<event>
 8    1  0.7192024E-009  0.1398835E+03  0.7561462E-02  0.1213486E+00
         -2   -1    0    0    0  501 -0.00000000000E+00  0.00000000000E+00  0.40925832176E+02  0.40925832176E+02  0.00000000000E+00 0.  1.
          2   -1    0    0  501    0  0.00000000000E+00 -0.00000000000E+00 -0.64750390797E+03  0.64750390797E+03  0.00000000000E+00 0. -1.
         25    2    1    2    0    0 -0.45851805860E+02 -0.11048555351E+03 -0.36231375933E+03  0.40153272457E+03  0.12509125894E+03 0.  0.
         23    2    1    2    0    0  0.45851805860E+02  0.11048555351E+03 -0.24426431646E+03  0.28689701557E+03  0.91298387789E+02 0.  0.
          5    1    3    3  502    0 -0.57406373838E+02 -0.88059132844E+02 -0.36090140424E+03  0.37592179854E+03  0.41800000000E+01 0. -1.
         -5    1    3    3    0  502  0.11554567979E+02 -0.22426420670E+02 -0.14123550916E+01  0.25610926031E+02  0.41800000000E+01 0. -1.
        -11    1    4    4    0    0 -0.25836312720E+02  0.45044219463E+02 -0.66660626357E+02  0.84499324662E+02  0.00000000000E+00 0.  1.
         11    1    4    4    0    0  0.71688118580E+02  0.65441334051E+02 -0.17760369010E+03  0.20239769091E+03  0.00000000000E+00 0. -1.
</event>
<event>
 8    1  0.7192024E-009  0.1190877E+03  0.7561462E-02  0.1244610E+00
         -2   -1    0    0    0  501 -0.00000000000E+00  0.00000000000E+00  0.17947085568E+02  0.17947085568E+02  0.00000000000E+00 0. -1.
          2   -1    0    0  501    0  0.00000000000E+00 -0.00000000000E+00 -0.93463192373E+03  0.93463192373E+03  0.00000000000E+00 0.  1.
         25    2    1    2    0    0 -0.17527695816E+02 -0.46048923846E+02 -0.69110245572E+03  0.70405886029E+03  0.12509416829E+03 0.  0.
         23    2    1    2    0    0  0.17527695816E+02  0.46048923846E+02 -0.22558238244E+03  0.24852014901E+03  0.91908267790E+02 0.  0.
          5    1    3    3  502    0  0.59223280982E+01 -0.86659031993E+02 -0.42163499914E+03  0.43050947341E+03  0.41800000000E+01 0.  1.
         -5    1    3    3    0  502 -0.23450023914E+02  0.40610108147E+02 -0.26946745658E+03  0.27354938688E+03  0.41800000000E+01 0.  1.
        -11    1    4    4    0    0  0.45015579857E+02  0.58617744871E+02 -0.15393978031E+03  0.17076269617E+03  0.00000000000E+00 0. -1.
         11    1    4    4    0    0 -0.27487884041E+02 -0.12568821025E+02 -0.71642602130E+02  0.77757452832E+02  0.00000000000E+00 0.  1.
</event>
<event>
 8    1  0.7192024E-009  0.3031107E+03  0.7561462E-02  0.1083696E+00
         -2   -1    0    0    0  501 -0.00000000000E+00  0.00000000000E+00  0.41818465420E+03  0.41818465420E+03  0.00000000000E+00 0.  1.
          2   -1    0    0  501    0  0.00000000000E+00 -0.00000000000E+00 -0.23018542532E+03  0.23018542532E+03  0.00000000000E+00 0. -1.
         25    2    1    2    0    0 -0.21879273499E+03 -0.18982991852E+03  0.80101978368E+02  0.32552997231E+03  0.12509107515E+03 0.  0.
         23    2    1    2    0    0  0.21879273499E+03  0.18982991852E+03  0.10789725052E+03  0.32284010721E+03  0.93157175280E+02 0.  0.
          5    1    3    3  502    0 -0.13764673618E+03 -0.18914220809E+03  0.53196540224E+02  0.23993487274E+03  0.41800000000E+01 0.  1.
         -5    1    3    3    0  502 -0.81145998807E+02 -0.68771042226E+00  0.26905438144E+02  0.85595099566E+02  0.41800000000E+01 0.  1.
        -11    1    4    4    0    0  0.54515785474E+02  0.64001489204E+02  0.76259496813E+02  0.11350626564E+03  0.00000000000E+00 0.  1.
         11    1    4    4    0    0  0.16427694952E+03  0.12582842931E+03  0.31637753702E+02  0.20933384157E+03  0.00000000000E+00 0. -1.
</event>
<event>
 8    1  0.7192024E-009  0.1032872E+03  0.7561462E-02  0.1273531E+00
          1   -1    0    0  501    0  0.00000000000E+00  0.00000000000E+00  0.92324508244E+03  0.92324508244E+03  0.00000000000E+00 0. -1.
         -1   -1    0    0    0  501 -0.00000000000E+00 -0.00000000000E+00 -0.18407973930E+02  0.18407973930E+02  0.00000000000E+00 0.  1.
         25    2    1    2    0    0 -0.12089433251E+02 -0.16525802174E+02  0.75090779210E+03  0.76153080726E+03  0.12508957443E+03 0.  0.
         23    2    1    2    0    0  0.12089433251E+02  0.16525802174E+02  0.15392931641E+03  0.18012224911E+03  0.91271757082E+02 0.  0.
          5    1    3    3  502    0 -0.58991617276E+02  0.91455124957E+01  0.56139499276E+03  0.56457547025E+03  0.41800000000E+01 0.  1.
         -5    1    3    3    0  502  0.46902184025E+02 -0.25671314670E+02  0.18951279934E+03  0.19695533701E+03  0.41800000000E+01 0.  1.
        -11    1    4    4    0    0 -0.37403162552E+02  0.21858131587E+02  0.62976928138E+02  0.76438654901E+02  0.00000000000E+00 0. -1.
         11    1    4    4    0    0  0.49492595803E+02 -0.53323294122E+01  0.90952388267E+02  0.10368359421E+03  0.00000000000E+00 0.  1.
</event>
<event>
 8    1  0.7192024E-009  0.7256014E+02  0.7561462E-02  0.1351597E+00
          2   -1    0    0  501    0  0.00000000000E+00  0.00000000000E+00  0.50554091283E+03  0.50554091283E+03  0.00000000000E+00 0.  1.
         -2   -1    0    0    0  501 -0.00000000000E+00 -0.00000000000E+00 -0.30297765222E+02  0.30297765222E+02  0.00000000000E+00 0. -1.
         25    2    1    2    0    0 -0.47196297815E+02  0.34412621953E+02  0.30222564892E+03  0.33226484853E+03  0.12509143706E+03 0.  0.
         23    2    1    2    0    0  0.47196297815E+02 -0.34412621953E+02  0.17301749869E+03  0.20357382952E+03  0.89975164002E+02 0.  0.
          5    1    3    3  502    0 -0.45871311479E+01  0.38746295423E+02  0.28199857753E+03  0.28471562533E+03  0.41800000000E+01 0. -1.
         -5    1    3    3    0  502 -0.42609166667E+02 -0.43336734694E+01  0.20227071399E+02  0.47549223203E+02  0.41800000000E+01 0. -1.
        -11    1    4    4    0    0  0.22159967299E+02 -0.30202114404E+02  0.17417680965E+03  0.17815945915E+03  0.00000000000E+00 0.  1.
         11    1    4    4    0    0  0.25036330516E+02 -0.42105075496E+01 -0.11593109610E+01  0.25414370373E+02  0.00000000000E+00 0. -1.
</event>
<event>
 8    1  0.7192024E-009  0.7810274E+02  0.7561462E-02  0.1334523E+00
          1   -1    0    0  501    0  0.00000000000E+00  0.00000000000E+00  0.28010719736E+03  0.28010719736E+03  0.00000000000E+00 0. -1.
         -1   -1    0    0    0  501 -0.00000000000E+00 -0.00000000000E+00 -0.63179416397E+02  0.63179416397E+02  0.00000000000E+00 0.  1.
         25    2    1    2    0    0 -0.27111662139E+02 -0.24430758951E+02  0.20677570106E+03  0.24441025898E+03  0.12509308509E+03 0.  0.
         23    2    1    2    0    0  0.27111662139E+02  0.24430758951E+02  0.10152079900E+02  0.98876354778E+02  0.91332166300E+02 0.  0.
          5    1    3    3  502    0 -0.65265990371E+02 -0.17421133478E+02  0.19044401739E+03  0.20211269517E+03  0.41800000000E+01 0.  1.
         -5    1    3    3    0  502  0.38154328232E+02 -0.70096254730E+01  0.16331683671E+02  0.42297563803E+02  0.41800000000E+01 0.  1.
        -11    1    4    4    0    0  0.19326594549E+02  0.32804438634E+02 -0.35353193851E+02  0.51956681634E+02  0.00000000000E+00 0.  1.
         11    1    4    4    0    0  0.77850675896E+01 -0.83736796834E+01  0.45505273751E+02  0.46919673144E+02  0.00000000000E+00 0. -1.
</event>
<event>
 8    1  0.7192024E-009  0.8647350E+02  0.7561462E-02  0.1311624E+00
          2   -1    0    0  501    0  0.00000000000E+00  0.00000000000E+00  0.19784000214E+03  0.19784000214E+03  0.00000000000E+00 0. -1.
         -2   -1    0    0    0  501 -0.00000000000E+00 -0.00000000000E+00 -0.69999184759E+02  0.69999184759E+02  0.00000000000E+00 0.  1.
         25    2    1    2    0    0  0.21941556270E+02  0.24788238672E+02  0.10941681879E+03  0.16945637099E+03  0.12509009860E+03 0.  0.
         23    2    1    2    0    0 -0.21941556270E+02 -0.24788238672E+02  0.18423998599E+02  0.98382815915E+02  0.90795628061E+02 0.  0.
          5    1    3    3  502    0  0.65437772199E+02 -0.11820645271E+02  0.83530810388E+02  0.10684895118E+03  0.41800000000E+01 0. -1.
         -5    1    3    3    0  502 -0.43496215929E+02  0.36608883943E+02  0.25886008398E+02  0.62607419803E+02  0.41800000000E+01 0. -1.
        -11    1    4    4    0    0 -0.13026702450E+02 -0.34051017293E+02 -0.30664354543E+02  0.47638948299E+02  0.00000000000E+00 0.  1.
         11    1    4    4    0    0 -0.89148538204E+01  0.92627786213E+01  0.49088353142E+02  0.50743867616E+02  0.00000000000E+00 0. -1.
</event>
<event>
 8    1  0.7192024E-009  0.1190398E+03  0.7561462E-02  0.1244689E+00
          1   -1    0    0  501    0  0.00000000000E+00  0.00000000000E+00  0.33202776667E+03  0.33202776667E+03  0.00000000000E+00 0. -1.
         -1   -1    0    0    0  501 -0.00000000000E+00 -0.00000000000E+00 -0.51317080973E+02  0.51317080973E+02  0.00000000000E+00 0.  1.
         25    2    1    2    0    0 -0.64113492508E+02 -0.33919493434E+02  0.17423162404E+03  0.22641738874E+03  0.12508838135E+03 0.  0.
         23    2    1    2    0    0  0.64113492508E+02  0.33919493434E+02  0.10647906165E+03  0.15692745890E+03  0.89595562565E+02 0.  0.
          5    1    3    3  502    0 -0.88946795796E+02 -0.97108680677E+01  0.16876212040E+03  0.19106009296E+03  0.41800000000E+01 0. -1.
         -5    1    3    3    0  502  0.24833303288E+02 -0.24208625366E+02  0.54695036417E+01  0.35357295773E+02  0.41800000000E+01 0. -1.
        -11    1    4    4    0    0 -0.13418071738E+02  0.33451256200E+02  0.21832425639E+02  0.42138889399E+02  0.00000000000E+00 0.  1.
         11    1    4    4    0    0  0.77531564246E+02  0.46823723403E+00  0.84646636013E+02  0.11478856950E+03  0.00000000000E+00 0. -1.
</event>
<event>
 8    1  0.7192024E-009  0.7813966E+02  0.7561462E-02  0.1334415E+00
          1   -1    0    0  501    0  0.00000000000E+00  0.00000000000E+00  0.42957867718E+03  0.42957867718E+03  0.00000000000E+00 0. -1.
         -1   -1    0    0    0  501 -0.00000000000E+00 -0.00000000000E+00 -0.41616293937E+02  0.41616293937E+02  0.00000000000E+00 0.  1.
         25    2    1    2    0    0 -0.38213120032E+02  0.33496082243E+02  0.10911069580E+03  0.17359321995E+03  0.12508889642E+03 0.  0.
         23    2    1    2    0    0  0.38213120032E+02 -0.33496082243E+02  0.27885168744E+03  0.29760175116E+03  0.90699000208E+02 0.  0.
          5    1    3    3  502    0 -0.11591694355E+02 -0.17986853203E+01  0.12560649687E+03  0.12622229242E+03  0.41800000000E+01 0. -1.
         -5    1    3    3    0  502 -0.26621425677E+02  0.35294767563E+02 -0.16495801072E+02  0.47370927534E+02  0.41800000000E+01 0. -1.
        -11    1    4    4    0    0  0.13944761416E+02  0.29108668044E+02  0.13569866728E+03  0.13948440496E+03  0.00000000000E+00 0. -1.
         11    1    4    4    0    0  0.24268358616E+02 -0.62604750287E+02  0.14315302016E+03  0.15811734620E+03  0.00000000000E+00 0.  1.
</event>
<event>
 8    1  0.7192024E-009  0.9179626E+02  0.7561462E-02  0.1298559E+00
          3   -1    0    0  501    0  0.00000000000E+00  0.00000000000E+00  0.12510115147E+03  0.12510115147E+03  0.00000000000E+00 0. -1.
         -3   -1    0    0    0  501 -0.00000000000E+00 -0.00000000000E+00 -0.15407651906E+03  0.15407651906E+03  0.00000000000E+00 0.  1.
         25    2    1    2    0    0 -0.63134714800E+02  0.14610440634E+02 -0.74738214848E+02  0.15947620703E+03  0.12508957855E+03 0.  0.
         23    2    1    2    0    0  0.63134714800E+02 -0.14610440634E+02  0.45762847256E+02  0.11970146350E+03  0.89636739043E+02 0.  0.
          5    1    3    3  502    0 -0.30814908824E+02  0.33258443863E+02 -0.10291173689E+03  0.11253435335E+03  0.41800000000E+01 0.  1.
         -5    1    3    3    0  502 -0.32319805975E+02 -0.18648003229E+02  0.28173522041E+02  0.46941853680E+02  0.41800000000E+01 0.  1.
        -11    1    4    4    0    0  0.29768714522E+02  0.31666635811E+02 -0.44643306048E+01  0.43690759156E+02  0.00000000000E+00 0.  1.
         11    1    4    4    0    0  0.33366000277E+02 -0.46277076445E+02  0.50227177861E+02  0.76010704342E+02  0.00000000000E+00 0. -1.
</event>
<event>
 8    1  0.7192024E-009  0.1021078E+03  0.7561462E-02  0.1275925E+00
          3   -1    0    0  501    0  0.00000000000E+00  0.00000000000E+00  0.29241274782E+03  0.29241274782E+03  0.00000000000E+00 0. -1.
         -3   -1    0    0    0  501 -0.00000000000E+00 -0.00000000000E+00 -0.12950115215E+03  0.12950115215E+03  0.00000000000E+00 0.  1.
         25    2    1    2    0    0 -0.22297033747E+02 -0.78413213610E+02 -0.64566451160E+02  0.16267178725E+03  0.12508994352E+03 0.  0.
         23    2    1    2    0    0  0.22297033747E+02  0.78413213610E+02  0.22747804683E+03  0.25924211272E+03  0.93885150244E+02 0.  0.
          5    1    3    3  502    0 -0.28574230885E+02 -0.57579272688E+02  0.25977547554E+02  0.69456207000E+02  0.41800000000E+01 0.  1.
         -5    1    3    3    0  502  0.62771971380E+01 -0.20833940922E+02 -0.90543998713E+02  0.93215580250E+02  0.41800000000E+01 0.  1.
        -11    1    4    4    0    0  0.30268077263E+01  0.93264980980E+02  0.20835604370E+03  0.22829752339E+03  0.00000000000E+00 0. -1.
         11    1    4    4    0    0  0.19270226021E+02 -0.14851767370E+02  0.19122003133E+02  0.30944589329E+02  0.00000000000E+00 0.  1.
</event>
<event>
 8    1  0.7192024E-009  0.1305545E+03  0.7561462E-02  0.1226635E+00
         -1   -1    0    0    0  501 -0.00000000000E+00  0.00000000000E+00  0.23426453123E+03  0.23426453123E+03  0.00000000000E+00 0.  1.
          1   -1    0    0  501    0  0.00000000000E+00 -0.00000000000E+00 -0.14819683957E+03  0.14819683957E+03  0.00000000000E+00 0. -1.
         25    2    1    2    0    0 -0.22858376739E+02  0.12729884322E+03 -0.34007484196E+02  0.18311791079E+03  0.12509260330E+03 0.  0.
         23    2    1    2    0    0  0.22858376739E+02 -0.12729884322E+03  0.12007517585E+03  0.19934346000E+03  0.92694478357E+02 0.  0.
          5    1    3    3  502    0 -0.18481399647E+02  0.69392373627E+02  0.45094613011E+02  0.84899117623E+02  0.41800000000E+01 0.  1.
         -5    1    3    3    0  502 -0.43769770920E+01  0.57906469590E+02 -0.79102097207E+02  0.98218793168E+02  0.41800000000E+01 0.  1.
        -11    1    4    4    0    0 -0.54493858327E+00 -0.54150395300E+02  0.10904902759E+03  0.12175488774E+03  0.00000000000E+00 0.  1.
         11    1    4    4    0    0  0.23403315322E+02 -0.73148447917E+02  0.11026148262E+02  0.77588572265E+02  0.00000000000E+00 0. -1.
</event>
<event>
 8    1  0.7192024E-009  0.1061884E+03  0.7561462E-02  0.1267796E+00
         -4   -1    0    0    0  501 -0.00000000000E+00  0.00000000000E+00  0.82449490247E+02  0.82449490247E+02  0.00000000000E+00 0.  1.
          4   -1    0    0  501    0  0.00000000000E+00 -0.00000000000E+00 -0.27081761164E+03  0.27081761164E+03  0.00000000000E+00 0. -1.
         25    2    1    2    0    0 -0.57361188574E+02  0.28597773769E+02 -0.19725777712E+03  0.24221143102E+03  0.12509039955E+03 0.  0.
         23    2    1    2    0    0  0.57361188574E+02 -0.28597773769E+02  0.88896557292E+01  0.11105567087E+03  0.90256287506E+02 0.  0.
          5    1    3    3  502    0 -0.18171442351E+02 -0.48788738069E+02 -0.57606160464E+02  0.77759143532E+02  0.41800000000E+01 0.  1.
         -5    1    3    3    0  502 -0.39189746223E+02  0.77386511838E+02 -0.13965161666E+03  0.16445228748E+03  0.41800000000E+01 0.  1.
        -11    1    4    4    0    0  0.59977333664E+02 -0.18344553755E+02  0.42536824800E+02  0.75783802161E+02  0.00000000000E+00 0.  1.
         11    1    4    4    0    0 -0.26161450903E+01 -0.10253220014E+02 -0.33647169070E+02  0.35271868709E+02  0.00000000000E+00 0. -1.
</event>
<event>
 8    1  0.7192024E-009  0.1081228E+03  0.7561462E-02  0.1264086E+00
          1   -1    0    0  501    0  0.00000000000E+00  0.00000000000E+00  0.63208352986E+02  0.63208352986E+02  0.00000000000E+00 0. -1.
         -1   -1    0    0    0  501 -0.00000000000E+00 -0.00000000000E+00 -0.38034288006E+03  0.38034288006E+03  0.00000000000E+00 0.  1.
         25    2    1    2    0    0 -0.78168495861E+02  0.33891443545E+02 -0.72066549065E+02  0.16762967857E+03  0.12508868035E+03 0.  0.
         23    2    1    2    0    0  0.78168495861E+02 -0.33891443545E+02 -0.24506797801E+03  0.27592155448E+03  0.93890610233E+02 0.  0.
          5    1    3    3  502    0 -0.71758967240E+02 -0.21574212477E+02  0.16421099838E+01  0.75066403594E+02  0.41800000000E+01 0. -1.
         -5    1    3    3    0  502 -0.64095286209E+01  0.55465656023E+02 -0.73708659049E+02  0.92563274974E+02  0.41800000000E+01 0. -1.
        -11    1    4    4    0    0  0.63468202336E+02 -0.27972889807E+02 -0.24990600407E+03  0.25935247471E+03  0.00000000000E+00 0.  1.
         11    1    4    4    0    0  0.14700293524E+02 -0.59185537389E+01  0.48380260587E+01  0.16569079764E+02  0.00000000000E+00 0. -1.
</event>
<event>
 8    1  0.7192024E-009  0.1179841E+03  0.7561462E-02  0.1246460E+00
         -3   -1    0    0    0  501 -0.00000000000E+00  0.00000000000E+00  0.30641010132E+03  0.30641010132E+03  0.00000000000E+00 0.  1.
          3   -1    0    0  501    0  0.00000000000E+00 -0.00000000000E+00 -0.68751883502E+02  0.68751883502E+02  0.00000000000E+00 0. -1.
         25    2    1    2    0    0  0.93703832431E+02  0.19713001245E+02  0.13407771392E+03  0.20686683587E+03  0.12509214116E+03 0.  0.
         23    2    1    2    0    0 -0.93703832431E+02 -0.19713001245E+02  0.10358050389E+03  0.16829514895E+03  0.91789573179E+02 0.  0.
          5    1    3    3  502    0  0.26842331926E+02 -0.15509150096E+02 -0.18646243707E+02  0.36417019707E+02  0.41800000000E+01 0. -1.
         -5    1    3    3    0  502  0.66861500505E+02  0.35222151341E+02  0.15272395763E+03  0.17044981616E+03  0.41800000000E+01 0. -1.
        -11    1    4    4    0    0 -0.97774784573E+00 -0.35007323748E+02  0.11856301948E+02  0.36973512177E+02  0.00000000000E+00 0. -1.
         11    1    4    4    0    0 -0.92726084585E+02  0.15294322503E+02  0.91724201946E+02  0.13132163678E+03  0.00000000000E+00 0.  1.
</event>
<event>
 8    1  0.7192024E-009  0.2542894E+03  0.7561462E-02  0.1110624E+00
          1   -1    0    0  501    0  0.00000000000E+00  0.00000000000E+00  0.38177052130E+03  0.38177052130E+03  0.00000000000E+00 0. -1.
         -1   -1    0    0    0  501 -0.00000000000E+00 -0.00000000000E+00 -0.20712525852E+03  0.20712525852E+03  0.00000000000E+00 0.  1.
         25    2    1    2    0    0 -0.13917730417E+03 -0.20787266165E+03  0.16077877572E+03  0.32260675235E+03  0.12507572300E+03 0.  0.
         23    2    1    2    0    0  0.13917730417E+03  0.20787266165E+03  0.13866487061E+02  0.26628902746E+03  0.90200893709E+02 0.  0.
          5    1    3    3  502    0 -0.12416380863E+02 -0.43060547629E+02  0.93940254243E+02  0.10416631434E+03  0.41800000000E+01 0.  1.
         -5    1    3    3    0  502 -0.12676092330E+03 -0.16481211402E+03  0.66838521478E+02  0.21844043801E+03  0.41800000000E+01 0.  1.
        -11    1    4    4    0    0  0.13267574903E+03  0.16256425237E+03  0.39955661872E+02  0.21360347714E+03  0.00000000000E+00 0.  1.
         11    1    4    4    0    0  0.65015551381E+01  0.45308409277E+02 -0.26089174811E+02  0.52685550322E+02  0.00000000000E+00 0. -1.
</event>
<event>
 8    1  0.7192024E-009  0.1317451E+03  0.7561462E-02  0.1224889E+00
          1   -1    0    0  501    0  0.00000000000E+00  0.00000000000E+00  0.16563854690E+03  0.16563854690E+03  0.00000000000E+00 0. -1.
         -1   -1    0    0    0  501 -0.00000000000E+00 -0.00000000000E+00 -0.13330866970E+03  0.13330866970E+03  0.00000000000E+00 0.  1.
         25    2    1    2    0    0  0.80237687396E+02 -0.59739942292E+02  0.50097068507E+02  0.16782066819E+03  0.12508842159E+03 0.  0.
         23    2    1    2    0    0 -0.80237687396E+02  0.59739942292E+02 -0.17767191305E+02  0.13112654840E+03  0.82894821463E+02 0.  0.
          5    1    3    3  502    0  0.20149156956E+02  0.37649912669E+02  0.19187865222E+00  0.42907035174E+02  0.41800000000E+01 0.  1.
         -5    1    3    3    0  502  0.60088530440E+02 -0.97389854961E+02  0.49905189855E+02  0.12491363302E+03  0.41800000000E+01 0.  1.
        -11    1    4    4    0    0 -0.18493123084E+02 -0.21883150153E+01  0.27066302371E+02  0.32853752419E+02  0.00000000000E+00 0.  1.
         11    1    4    4    0    0 -0.61744564312E+02  0.61928257307E+02 -0.44833493676E+02  0.98272795984E+02  0.00000000000E+00 0. -1.
</event>
<event>
 8    1  0.7192024E-009  0.2205306E+03  0.7561462E-02  0.1133488E+00
         -1   -1    0    0    0  501 -0.00000000000E+00  0.00000000000E+00  0.10209970773E+03  0.10209970773E+03  0.00000000000E+00 0.  1.
          1   -1    0    0  501    0  0.00000000000E+00 -0.00000000000E+00 -0.84342549396E+03  0.84342549396E+03  0.00000000000E+00 0. -1.
         25    2    1    2    0    0 -0.25279743925E+02 -0.20938885345E+03 -0.65472494467E+03  0.69913975775E+03  0.12509552465E+03 0.  0.
         23    2    1    2    0    0  0.25279743925E+02  0.20938885345E+03 -0.86600841551E+02  0.24638544394E+03  0.93398735665E+02 0.  0.
          5    1    3    3  502    0 -0.35926493190E+02 -0.41566234734E+02 -0.31798824704E+03  0.32272660634E+03  0.41800000000E+01 0.  1.
         -5    1    3    3    0  502  0.10646749265E+02 -0.16782261872E+03 -0.33673669763E+03  0.37641315141E+03  0.41800000000E+01 0.  1.
        -11    1    4    4    0    0  0.40229993851E+02  0.18346561231E+03 -0.41654271067E+02  0.19238804953E+03  0.00000000000E+00 0.  1.
         11    1    4    4    0    0 -0.14950249926E+02  0.25923241145E+02 -0.44946570483E+02  0.53997394405E+02  0.00000000000E+00 0. -1.
</event>
<event>
 8    1  0.7192024E-009  0.1000250E+03  0.7561462E-02  0.1280243E+00
          2   -1    0    0  501    0  0.00000000000E+00  0.00000000000E+00  0.50360360714E+03  0.50360360714E+03  0.00000000000E+00 0.  1.
         -2   -1    0    0    0  501 -0.00000000000E+00 -0.00000000000E+00 -0.39904088961E+02  0.39904088961E+02  0.00000000000E+00 0. -1.
         25    2    1    2    0    0  0.35591788335E+02 -0.15054603949E+01  0.41592270243E+03  0.43578892183E+03  0.12510494870E+03 0.  0.
         23    2    1    2    0    0 -0.35591788335E+02  0.15054603949E+01  0.47776815749E+02  0.10771877427E+03  0.89731089365E+02 0.  0.
          5    1    3    3  502    0  0.22372802545E+02 -0.56399718478E+02  0.30767522153E+03  0.31362873733E+03  0.41800000000E+01 0.  1.
         -5    1    3    3    0  502  0.13218985790E+02  0.54894258083E+02  0.10824748090E+03  0.12216018450E+03  0.41800000000E+01 0.  1.
        -11    1    4    4    0    0 -0.41319045208E+02 -0.29700515288E+02  0.62908116373E+00  0.50889879626E+02  0.00000000000E+00 0. -1.
         11    1    4    4    0    0  0.57272568725E+01  0.31205975683E+02  0.47147734585E+02  0.56828894641E+02  0.00000000000E+00 0.  1.
</event>
<event>
 8    1  0.7192024E-009  0.1372679E+03  0.7561462E-02  0.1217053E+00
         -3   -1    0    0    0  501 -0.00000000000E+00  0.00000000000E+00  0.88066559451E+02  0.88066559451E+02  0.00000000000E+00 0.  1.
          3   -1    0    0  501    0  0.00000000000E+00 -0.00000000000E+00 -0.38438647441E+03  0.38438647441E+03  0.00000000000E+00 0. -1.
         25    2    1    2    0    0 -0.10225962520E+03 -0.10238512225E+02 -0.18964560877E+02  0.16299706140E+03  0.12508608787E+03 0.  0.
         23    2    1    2    0    0  0.10225962520E+03  0.10238512225E+02 -0.27735535408E+03  0.30945597245E+03  0.90967842522E+02 0.  0.
          5    1    3    3  502    0  0.24477062596E+02  0.17306661268E+02  0.59952524545E+01  0.30855511170E+02  0.41800000000E+01 0. -1.
         -5    1    3    3    0  502 -0.12673668780E+03 -0.27545173494E+02 -0.24959813332E+02  0.13214155023E+03  0.41800000000E+01 0. -1.
        -11    1    4    4    0    0  0.63162474132E+02 -0.18689848276E+02 -0.68576568231E+02  0.95087087858E+02  0.00000000000E+00 0.  1.
         11    1    4    4    0    0  0.39097151068E+02  0.28928360501E+02 -0.20877878585E+03  0.21436888460E+03  0.00000000000E+00 0. -1.
</event>
<event>
 8    1  0.7192024E-009  0.1614114E+03  0.7561462E-02  0.1187112E+00
          3   -1    0    0  501    0  0.00000000000E+00  0.00000000000E+00  0.14219267571E+03  0.14219267571E+03  0.00000000000E+00 0. -1.
         -3   -1    0    0    0  501 -0.00000000000E+00 -0.00000000000E+00 -0.22867821153E+03  0.22867821153E+03  0.00000000000E+00 0.  1.
         25    2    1    2    0    0 -0.27391028944E+01 -0.12885533630E+03 -0.11058563755E+03  0.21091125747E+03  0.12507267854E+03 0.  0.
         23    2    1    2    0    0  0.27391028944E+01  0.12885533630E+03  0.24100101731E+02  0.15995962976E+03  0.91624602988E+02 0.  0.
          5    1    3    3  502    0  0.28136480424E+02  0.14541594691E+02 -0.28261870851E+02  0.42653549100E+02  0.41800000000E+01 0.  1.
         -5    1    3    3    0  502 -0.30875583319E+02 -0.14339693099E+03 -0.82323766700E+02  0.16825770837E+03  0.41800000000E+01 0.  1.
        -11    1    4    4    0    0 -0.30315910379E+02  0.47873795271E+02  0.42182425091E+02  0.70642138149E+02  0.00000000000E+00 0. -1.
         11    1    4    4    0    0  0.33055013274E+02  0.80981541028E+02 -0.18082323360E+02  0.89317491612E+02  0.00000000000E+00 0.  1.
</event>
<event>
 8    1  0.7192024E-009  0.1643152E+03  0.7561462E-02  0.1183909E+00
          1   -1    0    0  501    0  0.00000000000E+00  0.00000000000E+00  0.13966178022E+04  0.13966178022E+04  0.00000000000E+00 0. -1.
         -1   -1    0    0    0  501 -0.00000000000E+00 -0.00000000000E+00 -0.30197581631E+02  0.30197581631E+02  0.00000000000E+00 0.  1.
         25    2    1    2    0    0 -0.43039750465E+02 -0.15107405304E+03  0.44971956027E+03  0.49251526114E+03  0.12509120648E+03 0.  0.
         23    2    1    2    0    0  0.43039750465E+02  0.15107405304E+03  0.91670066030E+03  0.93430012270E+03  0.88886607879E+02 0.  0.
          5    1    3    3  502    0 -0.27804183019E+02 -0.66978970717E+02  0.62111323718E+02  0.95574808636E+02  0.41800000000E+01 0. -1.
         -5    1    3    3    0  502 -0.15235567446E+02 -0.84095082320E+02  0.38760823656E+03  0.39694045250E+03  0.41800000000E+01 0. -1.
        -11    1    4    4    0    0  0.58684691118E+02  0.13826446677E+03  0.87675814361E+03  0.88953122381E+03  0.00000000000E+00 0.  1.
         11    1    4    4    0    0 -0.15644940653E+02  0.12809586267E+02  0.39942516685E+02  0.44768898887E+02  0.00000000000E+00 0. -1.
</event>
<event>
 8    1  0.7192024E-009  0.1839859E+03  0.7561462E-02  0.1164000E+00
         -2   -1    0    0    0  501 -0.00000000000E+00  0.00000000000E+00  0.22640915835E+02  0.22640915835E+02  0.00000000000E+00 0.  1.
          2   -1    0    0  501    0  0.00000000000E+00 -0.00000000000E+00 -0.21899954560E+04  0.21899954560E+04  0.00000000000E+00 0. -1.
         25    2    1    2    0    0 -0.33156358801E+02 -0.14946289315E+03 -0.17192417286E+04  0.17305716573E+04  0.12509052471E+03 0.  0.
         23    2    1    2    0    0  0.33156358801E+02  0.14946289315E+03 -0.44811281162E+03  0.48206471452E+03  0.90237445044E+02 0.  0.
          5    1    3    3  502    0  0.90749772056E+01 -0.15429786667E+03 -0.13888544022E+04  0.13974348679E+04  0.41800000000E+01 0. -1.
         -5    1    3    3    0  502 -0.42231336006E+02  0.48349735181E+01 -0.33038732631E+03  0.33313678947E+03  0.41800000000E+01 0. -1.
        -11    1    4    4    0    0  0.25723793845E+01  0.13792750813E+03 -0.40573199230E+03  0.42854295492E+03  0.00000000000E+00 0. -1.
         11    1    4    4    0    0  0.30583979416E+02  0.11535385029E+02 -0.42380819318E+02  0.53521759601E+02  0.00000000000E+00 0.  1.
</event>
<event>
 8    1  0.7192024E-009  0.1413192E+03  0.7561462E-02  0.1211565E+00
         -1   -1    0    0    0  501 -0.00000000000E+00  0.00000000000E+00  0.69913108768E+03  0.69913108768E+03  0.00000000000E+00 0.  1.
          1   -1    0    0  501    0  0.00000000000E+00 -0.00000000000E+00 -0.37280515885E+02  0.37280515885E+02  0.00000000000E+00 0. -1.
         25    2    1    2    0    0 -0.27979792114E+02  0.10454356471E+03  0.23861116027E+03  0.29033594643E+03  0.12508976895E+03 0.  0.
         23    2    1    2    0    0  0.27979792114E+02 -0.10454356471E+03  0.42323941153E+03  0.44607565714E+03  0.90220101589E+02 0.  0.
          5    1    3    3  502    0  0.68234773204E+01 -0.15790574955E+02 -0.31845240499E+01  0.17986542012E+02  0.41800000000E+01 0.  1.
         -5    1    3    3    0  502 -0.34803269435E+02  0.12033413966E+03  0.24179568432E+03  0.27234940442E+03  0.41800000000E+01 0.  1.
        -11    1    4    4    0    0  0.60197172382E+02 -0.64977826056E+02  0.23840750059E+03  0.25433040278E+03  0.00000000000E+00 0. -1.
         11    1    4    4    0    0 -0.32217380268E+02 -0.39565738652E+02  0.18483191094E+03  0.19174525436E+03  0.00000000000E+00 0.  1.
</event>
<event>
 8    1  0.7192024E-009  0.1202961E+03  0.7561462E-02  0.1242609E+00
          1   -1    0    0  501    0  0.00000000000E+00  0.00000000000E+00  0.22789164208E+03  0.22789164208E+03  0.00000000000E+00 0. -1.
         -1   -1    0    0    0  501 -0.00000000000E+00 -0.00000000000E+00 -0.10940324397E+03  0.10940324397E+03  0.00000000000E+00 0.  1.
         25    2    1    2    0    0  0.41406609413E+02  0.98773587312E+02  0.10706165308E+03  0.19641829606E+03  0.12508885088E+03 0.  0.
         23    2    1    2    0    0 -0.41406609413E+02 -0.98773587312E+02  0.11426745033E+02  0.14087658999E+03  0.90801510177E+02 0.  0.
          5    1    3    3  502    0  0.42460311596E+02  0.81676106035E+02  0.44000196458E+01  0.92253438585E+02  0.41800000000E+01 0. -1.
         -5    1    3    3    0  502 -0.10537021830E+01  0.17097481277E+02  0.10266163343E+03  0.10416485748E+03  0.41800000000E+01 0. -1.
        -11    1    4    4    0    0  0.10005587027E+02 -0.72289125154E+02 -0.19162620914E+02  0.75452206247E+02  0.00000000000E+00 0.  1.
         11    1    4    4    0    0 -0.51412196440E+02 -0.26484462158E+02  0.30589365946E+02  0.65424383738E+02  0.00000000000E+00 0. -1.
</event>
<event>
 8    1  0.7192024E-009  0.1766335E+03  0.7561462E-02  0.1171102E+00
         -3   -1    0    0    0  501 -0.00000000000E+00  0.00000000000E+00  0.29020361008E+03  0.29020361008E+03  0.00000000000E+00 0.  1.
          3   -1    0    0  501    0  0.00000000000E+00 -0.00000000000E+00 -0.12487365053E+03  0.12487365053E+03  0.00000000000E+00 0. -1.
         25    2    1    2    0    0 -0.62611928419E+02 -0.12500547603E+03  0.11107286260E+02  0.18792938592E+03  0.12508980640E+03 0.  0.
         23    2    1    2    0    0  0.62611928419E+02  0.12500547603E+03  0.15422267329E+03  0.22714787470E+03  0.90911503161E+02 0.  0.
          5    1    3    3  502    0  0.36621742649E+02 -0.50720998759E+02  0.12303997317E+02  0.63895481059E+02  0.41800000000E+01 0. -1.
         -5    1    3    3    0  502 -0.99233671068E+02 -0.74284477269E+02 -0.11967110570E+01  0.12403390486E+03  0.41800000000E+01 0. -1.
        -11    1    4    4    0    0  0.74392551398E+02  0.47767739546E+02  0.75922279191E+02  0.11653411999E+03  0.00000000000E+00 0.  1.
         11    1    4    4    0    0 -0.11780622979E+02  0.77237736482E+02  0.78300394094E+02  0.11061375471E+03  0.00000000000E+00 0. -1.
</event>
<event>
 8    1  0.7192024E-009  0.1116068E+03  0.7561462E-02  0.1257623E+00
         -1   -1    0    0    0  501 -0.00000000000E+00  0.00000000000E+00  0.24416390034E+02  0.24416390034E+02  0.00000000000E+00 0.  1.
          1   -1    0    0  501    0  0.00000000000E+00 -0.00000000000E+00 -0.56856896393E+03  0.56856896393E+03  0.00000000000E+00 0. -1.
         25    2    1    2    0    0 -0.13114743672E+02 -0.37382473521E+02 -0.24625380680E+03  0.27903062176E+03  0.12509078579E+03 0.  0.
         23    2    1    2    0    0  0.13114743672E+02  0.37382473521E+02 -0.29789876709E+03  0.31395473220E+03  0.90854018109E+02 0.  0.
          5    1    3    3  502    0 -0.61890967303E+02  0.74394870378E+01 -0.93188537863E+02  0.11219364416E+03  0.41800000000E+01 0.  1.
         -5    1    3    3    0  502  0.48776223630E+02 -0.44821960559E+02 -0.15306526894E+03  0.16683697760E+03  0.41800000000E+01 0.  1.
        -11    1    4    4    0    0  0.48535880288E+02  0.32952945550E+02 -0.13508914757E+03  0.14727764965E+03  0.00000000000E+00 0. -1.
         11    1    4    4    0    0 -0.35421136616E+02  0.44295279704E+01 -0.16280961952E+03  0.16667708255E+03  0.00000000000E+00 0.  1.
</event>
<event>
 8    1  0.7192024E-009  0.1010806E+03  0.7561462E-02  0.1278040E+00
         -1   -1    0    0    0  501 -0.00000000000E+00  0.00000000000E+00  0.62088596186E+02  0.62088596186E+02  0.00000000000E+00 0.  1.
          1   -1    0    0  501    0  0.00000000000E+00 -0.00000000000E+00 -0.27806272093E+03  0.27806272093E+03  0.00000000000E+00 0. -1.
         25    2    1    2    0    0  0.53461598712E+02 -0.34336676679E+02 -0.70782381287E+02  0.15714542995E+03  0.12508953094E+03 0.  0.
         23    2    1    2    0    0 -0.53461598712E+02  0.34336676679E+02 -0.14519174346E+03  0.18300588717E+03  0.91506078863E+02 0.  0.
          5    1    3    3  502    0  0.72293983189E+02 -0.58515995322E+02 -0.82177078613E+02  0.12418166678E+03  0.41800000000E+01 0.  1.
         -5    1    3    3    0  502 -0.18832384477E+02  0.24179318643E+02  0.11394697326E+02  0.32963763169E+02  0.41800000000E+01 0.  1.
        -11    1    4    4    0    0 -0.51237449143E+02  0.81919288006E+01 -0.20841408801E+02  0.55917333744E+02  0.00000000000E+00 0.  1.
         11    1    4    4    0    0 -0.22241495688E+01  0.26144747879E+02 -0.12435033466E+03  0.12708855343E+03  0.00000000000E+00 0. -1.
</event>
<event>
 8    1  0.7192024E-009  0.8789240E+02  0.7561462E-02  0.1308037E+00
         -2   -1    0    0    0  501 -0.00000000000E+00  0.00000000000E+00  0.19081782250E+02  0.19081782250E+02  0.00000000000E+00 0.  1.
          2   -1    0    0  501    0  0.00000000000E+00 -0.00000000000E+00 -0.10201552470E+04  0.10201552470E+04  0.00000000000E+00 0. -1.
         25    2    1    2    0    0  0.49268753855E+02 -0.42198813163E+02 -0.78481062733E+03  0.79736016596E+03  0.12508942221E+03 0.  0.
         23    2    1    2    0    0 -0.49268753855E+02  0.42198813163E+02 -0.21626283745E+03  0.24187686332E+03  0.86756280521E+02 0.  0.
          5    1    3    3  502    0  0.47372683963E+02 -0.33139626729E+02 -0.78506442295E+03  0.78720138886E+03  0.41800000000E+01 0. -1.
         -5    1    3    3    0  502  0.18960698914E+01 -0.90591864339E+01  0.25379561989E+00  0.10158777096E+02  0.41800000000E+01 0. -1.
        -11    1    4    4    0    0  0.24759847346E+02  0.72387160405E+01 -0.63929952243E+02  0.68938290118E+02  0.00000000000E+00 0.  1.
         11    1    4    4    0    0 -0.74028601201E+02  0.34960097122E+02 -0.15233288521E+03  0.17293857320E+03  0.00000000000E+00 0. -1.
</event>
<event>
 8    1  0.7192024E-009  0.8638377E+02  0.7561462E-02  0.1311853E+00
          1   -1    0    0  501    0  0.00000000000E+00  0.00000000000E+00  0.42421147027E+03  0.42421147027E+03  0.00000000000E+00 0. -1.
         -1   -1    0    0    0  501 -0.00000000000E+00 -0.00000000000E+00 -0.32324672877E+02  0.32324672877E+02  0.00000000000E+00 0.  1.
         25    2    1    2    0    0  0.44804156195E+02  0.72400606519E+01  0.25120969601E+03  0.28428174846E+03  0.12509984113E+03 0.  0.
         23    2    1    2    0    0 -0.44804156195E+02 -0.72400606519E+01  0.14067710139E+03  0.17225439468E+03  0.88440368290E+02 0.  0.
          5    1    3    3  502    0  0.29673421688E+02 -0.25331454902E+02  0.24434936488E+03  0.24747985591E+03  0.41800000000E+01 0.  1.
         -5    1    3    3    0  502  0.15130734508E+02  0.32571515554E+02  0.68603311221E+01  0.36801892551E+02  0.41800000000E+01 0.  1.
        -11    1    4    4    0    0  0.11603499516E+01 -0.40575426363E+02  0.76219635494E+02  0.86354759402E+02  0.00000000000E+00 0. -1.
         11    1    4    4    0    0 -0.45964506147E+02  0.33335365711E+02  0.64457465892E+02  0.85899635282E+02  0.00000000000E+00 0.  1.
</event>
<event>
 8    1  0.7192024E-009  0.2553532E+03  0.7561462E-02  0.1109968E+00
         -2   -1    0    0    0  501 -0.00000000000E+00  0.00000000000E+00  0.58769636482E+03  0.58769636482E+03  0.00000000000E+00 0.  1.
          2   -1    0    0  501    0  0.00000000000E+00 -0.00000000000E+00 -0.12432615200E+03  0.12432615200E+03  0.00000000000E+00 0. -1.
         25    2    1    2    0    0 -0.91375844805E+02 -0.22340446427E+03  0.30918611606E+03  0.41170831029E+03  0.12509427936E+03 0.  0.
         23    2    1    2    0    0  0.91375844805E+02  0.22340446427E+03  0.15418409676E+03  0.30031420653E+03  0.90314933873E+02 0.  0.
          5    1    3    3  502    0  0.17300336906E+02  0.20392864506E+01  0.41633940382E+02  0.45324582050E+02  0.41800000000E+01 0. -1.
         -5    1    3    3    0  502 -0.10867618171E+03 -0.22544375072E+03  0.26755217568E+03  0.36638372824E+03  0.41800000000E+01 0. -1.
        -11    1    4    4    0    0  0.14614763136E+02  0.17867813340E+02 -0.11106987527E+02  0.25616698206E+02  0.00000000000E+00 0.  1.
         11    1    4    4    0    0  0.76761081670E+02  0.20553665093E+03  0.16529108429E+03  0.27469750832E+03  0.00000000000E+00 0. -1.
</event>
<event>
 8    1  0.7192024E-009  0.1044614E+03  0.7561462E-02  0.1271185E+00
         -1   -1    0    0    0  501 -0.00000000000E+00  0.00000000000E+00  0.36463700030E+03  0.36463700030E+03  0.00000000000E+00 0.  1.
          1   -1    0    0  501    0  0.00000000000E+00 -0.00000000000E+00 -0.83140566341E+02  0.83140566341E+02  0.00000000000E+00 0. -1.
         25    2    1    2    0    0  0.60518777671E+02 -0.42917405679E+02  0.29367732628E+03  0.32771278523E+03  0.12507946063E+03 0.  0.
         23    2    1    2    0    0 -0.60518777671E+02  0.42917405679E+02 -0.12180892327E+02  0.12006478141E+03  0.93609569144E+02 0.  0.
          5    1    3    3  502    0 -0.13460132740E+02 -0.56906966574E+02  0.68064944802E+02  0.89832550498E+02  0.41800000000E+01 0. -1.
         -5    1    3    3    0  502  0.73978910412E+02  0.13989560895E+02  0.22561238148E+03  0.23788023473E+03  0.41800000000E+01 0. -1.
        -11    1    4    4    0    0 -0.74603254434E+01  0.99051100107E+01  0.37967173481E+02  0.39940880338E+02  0.00000000000E+00 0.  1.
         11    1    4    4    0    0 -0.53058452228E+02  0.33012295668E+02 -0.50148065808E+02  0.80123901068E+02  0.00000000000E+00 0. -1.
</event>
<event>
 8    1  0.7192024E-009  0.8985980E+02  0.7561462E-02  0.1303192E+00
         -1   -1    0    0    0  501 -0.00000000000E+00  0.00000000000E+00  0.47264917992E+02  0.47264917992E+02  0.00000000000E+00 0.  1.
          1   -1    0    0  501    0  0.00000000000E+00 -0.00000000000E+00 -0.30015377248E+03  0.30015377248E+03  0.00000000000E+00 0. -1.
         25    2    1    2    0    0 -0.28543392269E+02  0.91712136422E+01 -0.20433555839E+03  0.24144644986E+03  0.12507810091E+03 0.  0.
         23    2    1    2    0    0  0.28543392269E+02 -0.91712136422E+01 -0.48553296101E+02  0.10597224061E+03  0.89296454668E+02 0.  0.
          5    1    3    3  502    0  0.42642852480E+02 -0.74592916577E+01 -0.31382555561E+02  0.53631996916E+02  0.41800000000E+01 0. -1.
         -5    1    3    3    0  502 -0.71186244749E+02  0.16630505300E+02 -0.17295300283E+03  0.18781445294E+03  0.41800000000E+01 0. -1.
        -11    1    4    4    0    0  0.63414248819E+01  0.23032854245E+02  0.17218291456E+02  0.29448185087E+02  0.00000000000E+00 0.  1.
         11    1    4    4    0    0  0.22201967387E+02 -0.32204067888E+02 -0.65771587557E+02  0.76524055526E+02  0.00000000000E+00 0. -1.
</event>
<event>
 8    1  0.7192024E-009  0.1133681E+03  0.7561462E-02  0.1254457E+00
         -2   -1    0    0    0  501 -0.00000000000E+00  0.00000000000E+00  0.19975951576E+02  0.19975951576E+02  0.00000000000E+00 0. -1.
          2   -1    0    0  501    0  0.00000000000E+00 -0.00000000000E+00 -0.76065529554E+03  0.76065529554E+03  0.00000000000E+00 0.  1.
         25    2    1    2    0    0  0.27214012825E+02  0.33285843258E+02 -0.54177525395E+03  0.55768770729E+03  0.12508638302E+03 0.  0.
         23    2    1    2    0    0 -0.27214012825E+02 -0.33285843258E+02 -0.19890409001E+03  0.22294353982E+03  0.91062808376E+02 0.  0.
          5    1    3    3  502    0 -0.46697631500E+02  0.32515400822E+02 -0.27327470940E+03  0.27916743950E+03  0.41800000000E+01 0.  1.
         -5    1    3    3    0  502  0.73911644325E+02  0.77044243563E+00 -0.26850054455E+03  0.27852026779E+03  0.41800000000E+01 0.  1.
        -11    1    4    4    0    0 -0.18894834976E+02  0.28010744576E+02 -0.39626575692E+02  0.52075734288E+02  0.00000000000E+00 0. -1.
         11    1    4    4    0    0 -0.83191778493E+01 -0.61296587834E+02 -0.15927751432E+03  0.17086780553E+03  0.00000000000E+00 0.  1.
</event>
<event>
 8    1  0.7192024E-009  0.9832847E+02  0.7561462E-02  0.1283851E+00
          2   -1    0    0  501    0  0.00000000000E+00  0.00000000000E+00  0.15487357158E+03  0.15487357158E+03  0.00000000000E+00 0. -1.
         -2   -1    0    0    0  501 -0.00000000000E+00 -0.00000000000E+00 -0.96291852108E+02  0.96291852108E+02  0.00000000000E+00 0.  1.
         25    2    1    2    0    0  0.80997646954E+01 -0.64373927300E+01  0.90967991333E+02  0.15501610917E+03  0.12509105660E+03 0.  0.
         23    2    1    2    0    0 -0.80997646954E+01  0.64373927300E+01 -0.32386271862E+02  0.96149314520E+02  0.89937610955E+02 0.  0.
          5    1    3    3  502    0  0.47746213453E+02 -0.39287557242E+02  0.16054538424E+02  0.64019010123E+02  0.41800000000E+01 0. -1.
         -5    1    3    3    0  502 -0.39646448758E+02  0.32850164512E+02  0.74913452909E+02  0.90997099043E+02  0.41800000000E+01 0. -1.
        -11    1    4    4    0    0 -0.45437841965E+02  0.33503993479E+01 -0.36608607904E+02  0.58446666550E+02  0.00000000000E+00 0.  1.
         11    1    4    4    0    0  0.37338077269E+02  0.30869933821E+01  0.42223360417E+01  0.37702647970E+02  0.00000000000E+00 0. -1.
</event>
<event>
 8    1  0.7192024E-009  0.1190272E+03  0.7561462E-02  0.1244711E+00
          2   -1    0    0  501    0  0.00000000000E+00  0.00000000000E+00  0.22011032017E+04  0.22011032017E+04  0.00000000000E+00 0. -1.
         -2   -1    0    0    0  501 -0.00000000000E+00 -0.00000000000E+00 -0.12842014715E+02  0.12842014715E+02  0.00000000000E+00 0.  1.
         25    2    1    2    0    0 -0.63627476491E+02  0.46054983842E+02  0.18209713039E+04  0.18269517187E+04  0.12508627157E+03 0.  0.
         23    2    1    2    0    0  0.63627476491E+02 -0.46054983842E+02  0.36728988309E+03  0.38699349777E+03  0.93234069942E+02 0.  0.
          5    1    3    3  502    0  0.17538961147E+02  0.58374453851E+02  0.10034049217E+04  0.10052632000E+04  0.41800000000E+01 0. -1.
         -5    1    3    3    0  502 -0.81166437638E+02 -0.12319470009E+02  0.81756638222E+03  0.82168851865E+03  0.41800000000E+01 0. -1.
        -11    1    4    4    0    0  0.29479326222E+02 -0.52305604356E+02  0.33238502186E+03  0.33776428123E+03  0.00000000000E+00 0. -1.
         11    1    4    4    0    0  0.34148150268E+02  0.62506205139E+01  0.34904861230E+02  0.49229216539E+02  0.00000000000E+00 0.  1.
</event>
<event>
 8    1  0.7192024E-009  0.1343999E+03  0.7561462E-02  0.1221069E+00
          1   -1    0    0  501    0  0.00000000000E+00  0.00000000000E+00  0.21687518430E+03  0.21687518430E+03  0.00000000000E+00 0. -1.
         -1   -1    0    0    0  501 -0.00000000000E+00 -0.00000000000E+00 -0.20718957933E+03  0.20718957933E+03  0.00000000000E+00 0.  1.
         25    2    1    2    0    0 -0.23206693330E+02 -0.94666169213E+02  0.15814571742E+03  0.22396036374E+03  0.12509173584E+03 0.  0.
         23    2    1    2    0    0  0.23206693330E+02  0.94666169213E+02 -0.14846011245E+03  0.20010439990E+03  0.92201581655E+02 0.  0.
          5    1    3    3  502    0 -0.50385604518E+02 -0.74495794663E+01  0.10843356169E+03  0.11987291220E+03  0.41800000000E+01 0.  1.
         -5    1    3    3    0  502  0.27178911188E+02 -0.87216589747E+02  0.49712155730E+02  0.10408745154E+03  0.41800000000E+01 0.  1.
        -11    1    4    4    0    0  0.41040179753E+02  0.13589501920E+02 -0.21170360575E+02  0.48136837074E+02  0.00000000000E+00 0.  1.
         11    1    4    4    0    0 -0.17833486422E+02  0.81076667292E+02 -0.12728975188E+03  0.15196756282E+03  0.00000000000E+00 0. -1.
</event>
<event>
 8    1  0.7192024E-009  0.1522799E+03  0.7561462E-02  0.1197699E+00
         -2   -1    0    0    0  501 -0.00000000000E+00  0.00000000000E+00  0.13673971375E+02  0.13673971375E+02  0.00000000000E+00 0.  1.
          2   -1    0    0  501    0  0.00000000000E+00 -0.00000000000E+00 -0.17835623733E+04  0.17835623733E+04  0.00000000000E+00 0. -1.
         25    2    1    2    0    0  0.10743206088E+02  0.11187889633E+03 -0.10634373567E+04  0.10766517171E+04  0.12509038450E+03 0.  0.
         23    2    1    2    0    0 -0.10743206088E+02 -0.11187889633E+03 -0.70645104524E+03  0.72058462764E+03  0.86814873972E+02 0.  0.
          5    1    3    3  502    0  0.62961177198E+02  0.83639356384E+02 -0.56075390756E+03  0.57045777146E+03  0.41800000000E+01 0. -1.
         -5    1    3    3    0  502 -0.52217971111E+02  0.28239539942E+02 -0.50268344916E+03  0.50619394562E+03  0.41800000000E+01 0. -1.
        -11    1    4    4    0    0 -0.97684055523E+01  0.12516378956E+02 -0.50333441367E+02  0.52778184973E+02  0.00000000000E+00 0.  1.
         11    1    4    4    0    0 -0.97480053523E+00 -0.12439527528E+03 -0.65611760387E+03  0.66780644266E+03  0.00000000000E+00 0. -1.
</event>
<event>
 8    1  0.7192024E-009  0.1778859E+03  0.7561462E-02  0.1169865E+00
          1   -1    0    0  501    0  0.00000000000E+00  0.00000000000E+00  0.12714314133E+04  0.12714314133E+04  0.00000000000E+00 0. -1.
         -1   -1    0    0    0  501 -0.00000000000E+00 -0.00000000000E+00 -0.30404499178E+02  0.30404499178E+02  0.00000000000E+00 0.  1.
         25    2    1    2    0    0  0.13744109866E+03  0.50230866580E+02  0.89257392883E+03  0.91309783341E+03  0.12508492872E+03 0.  0.
         23    2    1    2    0    0 -0.13744109866E+03 -0.50230866580E+02  0.34845298531E+03  0.38873807909E+03  0.91019863785E+02 0.  0.
          5    1    3    3  502    0  0.22265306645E+02  0.71754169430E+02  0.34272381442E+03  0.35088671973E+03  0.41800000000E+01 0. -1.
         -5    1    3    3    0  502  0.11517579201E+03 -0.21523302851E+02  0.54985011441E+03  0.56221111368E+03  0.41800000000E+01 0. -1.
        -11    1    4    4    0    0 -0.63629744970E+02 -0.61644802690E+02  0.12559524221E+03  0.15369772610E+03  0.00000000000E+00 0. -1.
         11    1    4    4    0    0 -0.73811353686E+02  0.11413936110E+02  0.22285774311E+03  0.23504035299E+03  0.00000000000E+00 0.  1.
</event>
<event>
 8    1  0.7192024E-009  0.1270776E+03  0.7561462E-02  0.1231858E+00
         -1   -1    0    0    0  501 -0.00000000000E+00  0.00000000000E+00  0.21437195937E+02  0.21437195937E+02  0.00000000000E+00 0.  1.
          1   -1    0    0  501    0  0.00000000000E+00 -0.00000000000E+00 -0.11161857312E+04  0.11161857312E+04  0.00000000000E+00 0. -1.
         25    2    1    2    0    0 -0.34400330019E+02  0.92205293305E+02 -0.77727230478E+03  0.79340055186E+03  0.12508797340E+03 0.  0.
         23    2    1    2    0    0  0.34400330019E+02 -0.92205293305E+02 -0.31747623048E+03  0.34422237528E+03  0.89513618538E+02 0.  0.
          5    1    3    3  502    0 -0.47880629184E+02 -0.12543474427E+01 -0.45557768883E+03  0.45810766311E+03  0.41800000000E+01 0.  1.
         -5    1    3    3    0  502  0.13480299165E+02  0.93459640748E+02 -0.32169461596E+03  0.33529288875E+03  0.41800000000E+01 0.  1.
        -11    1    4    4    0    0  0.76655737136E+01 -0.82892930794E+02 -0.29910558516E+03  0.31047407311E+03  0.00000000000E+00 0. -1.
         11    1    4    4    0    0  0.26734756306E+02 -0.93123625111E+01 -0.18370645323E+02  0.33748302177E+02  0.00000000000E+00 0.  1.
</event>
<event>
 8    1  0.7192024E-009  0.1341129E+03  0.7561462E-02  0.1221477E+00
          3   -1    0    0  501    0  0.00000000000E+00  0.00000000000E+00  0.39691359937E+03  0.39691359937E+03  0.00000000000E+00 0. -1.
         -3   -1    0    0    0  501 -0.00000000000E+00 -0.00000000000E+00 -0.47567854252E+02  0.47567854252E+02  0.00000000000E+00 0.  1.
         25    2    1    2    0    0 -0.77412587798E+02 -0.15999186632E+02  0.14604155433E+03  0.20790553595E+03  0.12509154073E+03 0.  0.
         23    2    1    2    0    0  0.77412587798E+02  0.15999186632E+02  0.20330419078E+03  0.23657591768E+03  0.91579954744E+02 0.  0.
          5    1    3    3  502    0  0.17763007414E+02  0.34891675051E+02  0.47513622234E+02  0.61708752362E+02  0.41800000000E+01 0.  1.
         -5    1    3    3    0  502 -0.95175595212E+02 -0.50890861683E+02  0.98527932101E+02  0.14619678359E+03  0.41800000000E+01 0.  1.
        -11    1    4    4    0    0  0.13889748700E+02  0.47819014727E+02  0.78309275942E+02  0.92800463291E+02  0.00000000000E+00 0. -1.
         11    1    4    4    0    0  0.63522839098E+02 -0.31819828095E+02  0.12499491484E+03  0.14377545439E+03  0.00000000000E+00 0.  1.
</event>
<event>
 8    1  0.7192024E-009  0.9991180E+02  0.7561462E-02  0.1280482E+00
          2   -1    0    0  501    0  0.00000000000E+00  0.00000000000E+00  0.70608407964E+03  0.70608407964E+03  0.00000000000E+00 0. -1.
         -2   -1    0    0    0  501 -0.00000000000E+00 -0.00000000000E+00 -0.18219967426E+02  0.18219967426E+02  0.00000000000E+00 0.  1.
         25    2    1    2    0    0 -0.14924077230E+02  0.13973845289E+02  0.43066687475E+03  0.44893117707E+03  0.12508896156E+03 0.  0.
         23    2    1    2    0    0  0.14924077230E+02 -0.13973845289E+02  0.25719723746E+03  0.27537287000E+03  0.96238257145E+02 0.  0.
          5    1    3    3  502    0 -0.59992063345E+02  0.21832422652E+02  0.35254761702E+03  0.35830573120E+03  0.41800000000E+01 0.  1.
         -5    1    3    3    0  502  0.45067986115E+02 -0.78585773623E+01  0.78119257726E+02  0.90625445865E+02  0.41800000000E+01 0.  1.
        -11    1    4    4    0    0 -0.22408590758E+02 -0.38987990933E+02  0.72718436606E+02  0.85499587129E+02  0.00000000000E+00 0.  1.
         11    1    4    4    0    0  0.37332667988E+02  0.25014145644E+02  0.18447880086E+03  0.18987328287E+03  0.00000000000E+00 0. -1.
</event>
<event>
 8    1  0.7192024E-009  0.8158082E+02  0.7561462E-02  0.1324624E+00
         -1   -1    0    0    0  501 -0.00000000000E+00  0.00000000000E+00  0.18635294916E+03  0.18635294916E+03  0.00000000000E+00 0.  1.
          1   -1    0    0  501    0  0.00000000000E+00 -0.00000000000E+00 -0.94423847867E+02  0.94423847867E+02  0.00000000000E+00 0. -1.
         25    2    1    2    0    0  0.61143042587E+02  0.34683541928E+02  0.14408065324E+02  0.14421600044E+03  0.12509693322E+03 0.  0.
         23    2    1    2    0    0 -0.61143042587E+02 -0.34683541928E+02  0.77521035969E+02  0.13656079658E+03  0.87737793500E+02 0.  0.
          5    1    3    3  502    0  0.23713585564E+02  0.10768755373E+02 -0.55406068003E+02  0.61364525617E+02  0.41800000000E+01 0.  1.
         -5    1    3    3    0  502  0.37429457023E+02  0.23914786555E+02  0.69814133327E+02  0.82851474828E+02  0.41800000000E+01 0.  1.
        -11    1    4    4    0    0 -0.29382189958E+02  0.15164153185E+02  0.69432862368E+02  0.76903751568E+02  0.00000000000E+00 0.  1.
         11    1    4    4    0    0 -0.31760852628E+02 -0.49847695112E+02  0.80881736002E+01  0.59657045015E+02  0.00000000000E+00 0. -1.
</event>
<event>
 8    1  0.7192024E-009  0.1029710E+03  0.7561462E-02  0.1274170E+00
         -2   -1    0    0    0  501 -0.00000000000E+00  0.00000000000E+00  0.36811814393E+02  0.36811814393E+02  0.00000000000E+00 0. -1.
          2   -1    0    0  501    0  0.00000000000E+00 -0.00000000000E+00 -0.43404466131E+03  0.43404466131E+03  0.00000000000E+00 0.  1.
         25    2    1    2    0    0  0.21482121219E+02 -0.59796239242E+02 -0.23335840776E+03  0.27228902565E+03  0.12509234691E+03 0.  0.
         23    2    1    2    0    0 -0.21482121219E+02  0.59796239242E+02 -0.16387443915E+03  0.19856745006E+03  0.92396583565E+02 0.  0.
          5    1    3    3  502    0  0.23401792065E+02 -0.92094968501E+02 -0.21441306486E+03  0.23456249035E+03  0.41800000000E+01 0. -1.
         -5    1    3    3    0  502 -0.19196708459E+01  0.32298729260E+02 -0.18945342900E+02  0.37726535297E+02  0.41800000000E+01 0. -1.
        -11    1    4    4    0    0 -0.31118860498E+02  0.19392879534E+02 -0.15054256226E+03  0.15494363591E+03  0.00000000000E+00 0.  1.
         11    1    4    4    0    0  0.96367392791E+01  0.40403359707E+02 -0.13331876891E+02  0.43623814150E+02  0.00000000000E+00 0. -1.
</event>
<event>
 8    1  0.7192024E-009  0.1021486E+03  0.7561462E-02  0.1275842E+00
         -2   -1    0    0    0  501 -0.00000000000E+00  0.00000000000E+00  0.86184016836E+02  0.86184016836E+02  0.00000000000E+00 0.  1.
          2   -1    0    0  501    0  0.00000000000E+00 -0.00000000000E+00 -0.17146800100E+03  0.17146800100E+03  0.00000000000E+00 0. -1.
         25    2    1    2    0    0 -0.33572127640E+02 -0.21526938963E+02 -0.72809755697E+01  0.13149771762E+03  0.12509252687E+03 0.  0.
         23    2    1    2    0    0  0.33572127640E+02  0.21526938963E+02 -0.78003008594E+02  0.12615430022E+03  0.90774122186E+02 0.  0.
          5    1    3    3  502    0 -0.77101328505E+02  0.92393751131E+01 -0.63087388722E+01  0.78020852956E+02  0.41800000000E+01 0.  1.
         -5    1    3    3    0  502  0.43529200865E+02 -0.30766314076E+02 -0.97223669750E+00  0.53476864661E+02  0.41800000000E+01 0.  1.
        -11    1    4    4    0    0  0.33547089316E+02  0.41346552093E+02 -0.88833875843E+02  0.10356834492E+03  0.00000000000E+00 0. -1.
         11    1    4    4    0    0  0.25038324341E-01 -0.19819613130E+02  0.10830867249E+02  0.22585955302E+02  0.00000000000E+00 0.  1.
</event>
<event>
 8    1  0.7192024E-009  0.2172389E+03  0.7561462E-02  0.1135958E+00
         -1   -1    0    0    0  501 -0.00000000000E+00  0.00000000000E+00  0.16137071970E+03  0.16137071970E+03  0.00000000000E+00 0.  1.
          1   -1    0    0  501    0  0.00000000000E+00 -0.00000000000E+00 -0.32397266925E+03  0.32397266925E+03  0.00000000000E+00 0. -1.
         25    2    1    2    0    0  0.41266434554E+01 -0.20004567270E+03 -0.64097553199E+02  0.24451701097E+03  0.12507906290E+03 0.  0.
         23    2    1    2    0    0 -0.41266434554E+01  0.20004567270E+03 -0.98504396354E+02  0.24082637798E+03  0.90878643683E+02 0.  0.
          5    1    3    3  502    0  0.43160203714E+02 -0.13798136117E+03 -0.85510503491E+02  0.16802136121E+03  0.41800000000E+01 0.  1.
         -5    1    3    3    0  502 -0.39033560259E+02 -0.62064311527E+02  0.21412950292E+02  0.76495649759E+02  0.41800000000E+01 0.  1.
        -11    1    4    4    0    0 -0.31731396854E+02  0.17874134940E+03 -0.66015066406E+02  0.19316661338E+03  0.00000000000E+00 0.  1.
         11    1    4    4    0    0  0.27604753399E+02  0.21304323303E+02 -0.32489329948E+02  0.47659764604E+02  0.00000000000E+00 0. -1.
</event>
<event>
 8    1  0.7192024E-009  0.1220296E+03  0.7561462E-02  0.1239786E+00
         -1   -1    0    0    0  501 -0.00000000000E+00  0.00000000000E+00  0.76256165285E+02  0.76256165285E+02  0.00000000000E+00 0.  1.
          1   -1    0    0  501    0  0.00000000000E+00 -0.00000000000E+00 -0.21412505286E+03  0.21412505286E+03  0.00000000000E+00 0. -1.
         25    2    1    2    0    0 -0.46665027602E+02 -0.49799439369E+02 -0.88044061749E+02  0.16750136147E+03  0.12508932937E+03 0.  0.
         23    2    1    2    0    0  0.46665027602E+02  0.49799439369E+02 -0.49824825826E+02  0.12287985667E+03  0.89215116124E+02 0.  0.
          5    1    3    3  502    0 -0.65809903261E+02  0.20193902642E+02 -0.33773224353E+02  0.76790885881E+02  0.41800000000E+01 0. -1.
         -5    1    3    3    0  502  0.19144875659E+02 -0.69993342012E+02 -0.54270837397E+02  0.90710475590E+02  0.41800000000E+01 0. -1.
        -11    1    4    4    0    0 -0.13174945460E+02 -0.10954334074E+02 -0.31199030887E+02  0.35594327514E+02  0.00000000000E+00 0. -1.
         11    1    4    4    0    0  0.59839973062E+02  0.60753773443E+02 -0.18625794938E+02  0.87285529160E+02  0.00000000000E+00 0.  1.
</event>
<event>
 8    1  0.7192024E-009  0.1140348E+03  0.7561462E-02  0.1253275E+00
         -1   -1    0    0    0  501 -0.00000000000E+00  0.00000000000E+00  0.24851060304E+03  0.24851060304E+03  0.00000000000E+00 0.  1.
          1   -1    0    0  501    0  0.00000000000E+00 -0.00000000000E+00 -0.92827360627E+02  0.92827360627E+02  0.00000000000E+00 0. -1.
         25    2    1    2    0    0 -0.42025573619E+02 -0.50640020719E+01  0.19421659781E+03  0.23486277581E+03  0.12509453883E+03 0.  0.
         23    2    1    2    0    0  0.42025573619E+02  0.50640020719E+01 -0.38533355394E+02  0.10647518785E+03  0.89779469787E+02 0.  0.
          5    1    3    3  502    0  0.44026369501E+02  0.21214414711E+01  0.82187829631E+02  0.93354879170E+02  0.41800000000E+01 0. -1.
         -5    1    3    3    0  502 -0.86051943120E+02 -0.71854435429E+01  0.11202876818E+03  0.14150789664E+03  0.41800000000E+01 0. -1.
        -11    1    4    4    0    0  0.20517924730E+02  0.46406211857E+02 -0.96532513462E+01  0.51649849910E+02  0.00000000000E+00 0.  1.
         11    1    4    4    0    0  0.21507648889E+02 -0.41342209785E+02 -0.28880104048E+02  0.54825337942E+02  0.00000000000E+00 0. -1.
</event>
<event>
 8    1  0.7192024E-009  0.1882229E+03  0.7561462E-02  0.1160074E+00
          2   -1    0    0  501    0  0.00000000000E+00  0.00000000000E+00  0.10273973546E+04  0.10273973546E+04  0.00000000000E+00 0. -1.
         -2   -1    0    0    0  501 -0.00000000000E+00 -0.00000000000E+00 -0.35525100253E+02  0.35525100253E+02  0.00000000000E+00 0.  1.
         25    2    1    2    0    0  0.15506765621E+03 -0.14619696448E+02  0.47296117543E+03  0.51342009170E+03  0.12509277985E+03 0.  0.
         23    2    1    2    0    0 -0.15506765621E+03  0.14619696448E+02  0.51891107887E+03  0.54950236310E+03  0.91784670600E+02 0.  0.
          5    1    3    3  502    0  0.15550834958E+03 -0.47387659555E+02  0.34729002213E+03  0.38347916363E+03  0.41800000000E+01 0. -1.
         -5    1    3    3    0  502 -0.44069336502E+00  0.32767963107E+02  0.12567115330E+03  0.12994092807E+03  0.41800000000E+01 0. -1.
        -11    1    4    4    0    0 -0.77044913054E+02  0.53317938487E+02  0.26849332228E+03  0.28437191369E+03  0.00000000000E+00 0. -1.
         11    1    4    4    0    0 -0.78022743156E+02 -0.38698242039E+02  0.25041775659E+03  0.26513044941E+03  0.00000000000E+00 0.  1.
</event>
<event>
 8    1  0.7192024E-009  0.1647746E+03  0.7561462E-02  0.1183409E+00
         -2   -1    0    0    0  501 -0.00000000000E+00  0.00000000000E+00  0.61399596141E+02  0.61399596141E+02  0.00000000000E+00 0.  1.
          2   -1    0    0  501    0  0.00000000000E+00 -0.00000000000E+00 -0.49544392363E+03  0.49544392363E+03  0.00000000000E+00 0. -1.
         25    2    1    2    0    0 -0.10615601482E+03 -0.84875039881E+02 -0.21118789601E+03  0.28057135138E+03  0.12508830447E+03 0.  0.
         23    2    1    2    0    0  0.10615601482E+03  0.84875039881E+02 -0.22285643148E+03  0.27627216839E+03  0.90490055246E+02 0.  0.
          5    1    3    3  502    0 -0.99801199349E+01  0.31210637706E+02 -0.28081964337E+02  0.43356381549E+02  0.41800000000E+01 0. -1.
         -5    1    3    3    0  502 -0.96175894886E+02 -0.11608567759E+03 -0.18310593167E+03  0.23721496983E+03  0.41800000000E+01 0. -1.
        -11    1    4    4    0    0  0.90006645060E+02  0.91411447032E+02 -0.13317069042E+03  0.18490992832E+03  0.00000000000E+00 0.  1.
         11    1    4    4    0    0  0.16149369761E+02 -0.65364071510E+01 -0.89685741055E+02  0.91362240070E+02  0.00000000000E+00 0. -1.
</event>
<event>
 8    1  0.7192024E-009  0.1349271E+03  0.7561462E-02  0.1220323E+00
         -2   -1    0    0    0  501 -0.00000000000E+00  0.00000000000E+00  0.43419818315E+02  0.43419818315E+02  0.00000000000E+00 0.  1.
          2   -1    0    0  501    0  0.00000000000E+00 -0.00000000000E+00 -0.51616000851E+03  0.51616000851E+03  0.00000000000E+00 0. -1.
         25    2    1    2    0    0  0.83416735201E+02  0.57094685474E+02 -0.29215843221E+03  0.33349966705E+03  0.12508926249E+03 0.  0.
         23    2    1    2    0    0 -0.83416735201E+02 -0.57094685474E+02 -0.18058175798E+03  0.22608015977E+03  0.91018198758E+02 0.  0.
          5    1    3    3  502    0  0.17529836997E+02  0.86632892882E+02 -0.15857054304E+03  0.18158921453E+03  0.41800000000E+01 0. -1.
         -5    1    3    3    0  502  0.65886898204E+02 -0.29538207408E+02 -0.13358788916E+03  0.15191045251E+03  0.41800000000E+01 0. -1.
        -11    1    4    4    0    0 -0.55205769540E+02 -0.58956355095E+02 -0.55882364436E+02  0.98215922596E+02  0.00000000000E+00 0.  1.
         11    1    4    4    0    0 -0.28210965661E+02  0.18616696208E+01 -0.12469939355E+03  0.12786423718E+03  0.00000000000E+00 0. -1.
</event>
<event>
 8    1  0.7192024E-009  0.1249754E+03  0.7561462E-02  0.1235108E+00
         -1   -1    0    0    0  501 -0.00000000000E+00  0.00000000000E+00  0.51594780648E+02  0.51594780648E+02  0.00000000000E+00 0.  1.
          1   -1    0    0  501    0  0.00000000000E+00 -0.00000000000E+00 -0.44750029619E+03  0.44750029619E+03  0.00000000000E+00 0. -1.
         25    2    1    2    0    0  0.10051616868E+03 -0.25855034435E+01 -0.19217740944E+03  0.25038206235E+03  0.12509530549E+03 0.  0.
         23    2    1    2    0    0 -0.10051616868E+03  0.25855034435E+01 -0.20372810610E+03  0.24871301449E+03  0.10120690374E+03 0.  0.
          5    1    3    3  502    0  0.34872505736E+02  0.18578289454E+02 -0.17462739689E+03  0.17909060456E+03  0.41800000000E+01 0. -1.
         -5    1    3    3    0  502  0.65643662941E+02 -0.21163792898E+02 -0.17550012549E+02  0.71291457795E+02  0.41800000000E+01 0. -1.
        -11    1    4    4    0    0 -0.11663764026E+03  0.18928704036E+02 -0.18269579536E+03  0.21757846540E+03  0.00000000000E+00 0. -1.
         11    1    4    4    0    0  0.16121471587E+02 -0.16343200592E+02 -0.21032310739E+02  0.31134549085E+02  0.00000000000E+00 0.  1.
</event>
<event>
 8    1  0.7192024E-009  0.1208193E+03  0.7561462E-02  0.1241751E+00
         -1   -1    0    0    0  501 -0.00000000000E+00  0.00000000000E+00  0.24960541838E+03  0.24960541838E+03  0.00000000000E+00 0.  1.
          1   -1    0    0  501    0  0.00000000000E+00 -0.00000000000E+00 -0.10450897476E+03  0.10450897476E+03  0.00000000000E+00 0. -1.
         25    2    1    2    0    0  0.35652665694E+02 -0.61248247134E+02 -0.27575522918E+02  0.14638126942E+03  0.12507840032E+03 0.  0.
         23    2    1    2    0    0 -0.35652665694E+02  0.61248247134E+02  0.17267196654E+03  0.20773312372E+03  0.91186524831E+02 0.  0.
          5    1    3    3  502    0  0.37000336271E+02 -0.96842578445E+02 -0.47369630552E+01  0.10386251058E+03  0.41800000000E+01 0. -1.
         -5    1    3    3    0  502 -0.13476705771E+01  0.35594331311E+02 -0.22838559862E+02  0.42518758848E+02  0.41800000000E+01 0. -1.
        -11    1    4    4    0    0  0.20600624173E+02  0.33421498809E+02  0.23158336693E+02  0.45581694323E+02  0.00000000000E+00 0. -1.
         11    1    4    4    0    0 -0.56253289867E+02  0.27826748325E+02  0.14951362985E+03  0.16215142939E+03  0.00000000000E+00 0.  1.
</event>
<event>
 8    1  0.7192024E-009  0.1624138E+03  0.7561462E-02  0.1185998E+00
         -4   -1    0    0    0  501 -0.00000000000E+00  0.00000000000E+00  0.20224453954E+03  0.20224453954E+03  0.00000000000E+00 0.  1.
          4   -1    0    0  501    0  0.00000000000E+00 -0.00000000000E+00 -0.21657606510E+03  0.21657606510E+03  0.00000000000E+00 0. -1.
         25    2    1    2    0    0 -0.12650620981E+03  0.37444306705E+02  0.11342786296E+03  0.21428749484E+03  0.12508938053E+03 0.  0.
         23    2    1    2    0    0  0.12650620981E+03 -0.37444306705E+02 -0.12775938852E+03  0.20453310980E+03  0.90030186173E+02 0.  0.
          5    1    3    3  502    0 -0.14440470982E+03  0.59966563876E+01  0.98332938666E+02  0.17485856951E+03  0.41800000000E+01 0. -1.
         -5    1    3    3    0  502  0.17898500002E+02  0.31447650318E+02  0.15094924294E+02  0.39428925325E+02  0.41800000000E+01 0. -1.
        -11    1    4    4    0    0  0.23567924740E+01 -0.17995695028E+02  0.77411018195E+01  0.19731299189E+02  0.00000000000E+00 0.  1.
         11    1    4    4    0    0  0.12414941734E+03 -0.19448611677E+02 -0.13550049034E+03  0.18480181061E+03  0.00000000000E+00 0. -1.
</event>
<event>
 8    1  0.7192024E-009  0.1255929E+03  0.7561462E-02  0.1234146E+00
         -3   -1    0    0    0  501 -0.00000000000E+00  0.00000000000E+00  0.87169786559E+02  0.87169786559E+02  0.00000000000E+00 0.  1.
          3   -1    0    0  501    0  0.00000000000E+00 -0.00000000000E+00 -0.39838195421E+03  0.39838195421E+03  0.00000000000E+00 0. -1.
         25    2    1    2    0    0 -0.72557842123E+02  0.18559094938E+02  0.73519224433E+01  0.14598377303E+03  0.12509248885E+03 0.  0.
         23    2    1    2    0    0  0.72557842123E+02 -0.18559094938E+02 -0.31856409010E+03  0.33956796774E+03  0.90632470762E+02 0.  0.
          5    1    3    3  502    0 -0.94537435361E+02  0.40406961938E+02 -0.19546010460E+02  0.10473570634E+03  0.41800000000E+01 0.  1.
         -5    1    3    3    0  502  0.21979593238E+02 -0.21847867000E+02  0.26897932904E+02  0.41248066692E+02  0.41800000000E+01 0.  1.
        -11    1    4    4    0    0  0.63295369285E+02 -0.52251472489E+02 -0.20775480297E+03  0.22337989683E+03  0.00000000000E+00 0. -1.
         11    1    4    4    0    0  0.92624728381E+01  0.33692377552E+02 -0.11080928712E+03  0.11618807091E+03  0.00000000000E+00 0.  1.
</event>
<event>
 8    1  0.7192024E-009  0.1146039E+03  0.7561462E-02  0.1252274E+00
          2   -1    0    0  501    0  0.00000000000E+00  0.00000000000E+00  0.32534564140E+03  0.32534564140E+03  0.00000000000E+00 0. -1.
         -2   -1    0    0    0  501 -0.00000000000E+00 -0.00000000000E+00 -0.60485892653E+02  0.60485892653E+02  0.00000000000E+00 0.  1.
         25    2    1    2    0    0 -0.40317470033E+02 -0.61767649475E+02  0.79451845268E+02  0.16553411159E+03  0.12509278745E+03 0.  0.
         23    2    1    2    0    0  0.40317470033E+02  0.61767649475E+02  0.18540790348E+03  0.22029742246E+03  0.93349465765E+02 0.  0.
          5    1    3    3  502    0 -0.26234299829E+02  0.16069406035E+02 -0.21093510806E+02  0.37534955654E+02  0.41800000000E+01 0. -1.
         -5    1    3    3    0  502 -0.14083170204E+02 -0.77837055510E+02  0.10054535607E+03  0.12799915594E+03  0.41800000000E+01 0. -1.
        -11    1    4    4    0    0  0.21020458876E+02  0.85680572943E+02  0.13552002192E+03  0.16170558621E+03  0.00000000000E+00 0. -1.
         11    1    4    4    0    0  0.19297011157E+02 -0.23912923468E+02  0.49887881566E+02  0.58591836254E+02  0.00000000000E+00 0.  1.
</event>
<event>
 8    1  0.7192024E-009  0.1342749E+03  0.7561462E-02  0.1221247E+00
         -1   -1    0    0    0  501 -0.00000000000E+00  0.00000000000E+00  0.12602562992E+03  0.12602562992E+03  0.00000000000E+00 0.  1.
          1   -1    0    0  501    0  0.00000000000E+00 -0.00000000000E+00 -0.16341997854E+03  0.16341997854E+03  0.00000000000E+00 0. -1.
         25    2    1    2    0    0 -0.80965428434E+02 -0.13943941677E+02  0.28401150903E+02  0.15232848341E+03  0.12508999710E+03 0.  0.
         23    2    1    2    0    0  0.80965428434E+02  0.13943941677E+02 -0.65795499519E+02  0.13711712505E+03  0.87876186277E+02 0.  0.
          5    1    3    3  502    0  0.30451935802E+02  0.14023433311E+02 -0.54627376739E+00  0.33789760149E+02  0.41800000000E+01 0. -1.
         -5    1    3    3    0  502 -0.11141736424E+03 -0.27967374988E+02  0.28947424671E+02  0.11853872326E+03  0.41800000000E+01 0. -1.
        -11    1    4    4    0    0  0.10873397355E+02 -0.33470079384E+02 -0.25043247635E+02  0.43193069307E+02  0.00000000000E+00 0.  1.
         11    1    4    4    0    0  0.70092031079E+02  0.47414021061E+02 -0.40752251884E+02  0.93924055745E+02  0.00000000000E+00 0. -1.
</event>
<event>
 8    1  0.7192024E-009  0.1787862E+03  0.7561462E-02  0.1168983E+00
          2   -1    0    0  501    0  0.00000000000E+00  0.00000000000E+00  0.20020552751E+03  0.20020552751E+03  0.00000000000E+00 0.  1.
         -2   -1    0    0    0  501 -0.00000000000E+00 -0.00000000000E+00 -0.17338915176E+03  0.17338915176E+03  0.00000000000E+00 0. -1.
         25    2    1    2    0    0 -0.14666828816E+02  0.14427682647E+03 -0.27160436114E+02  0.19343130362E+03  0.12508821450E+03 0.  0.
         23    2    1    2    0    0  0.14666828816E+02 -0.14427682647E+03  0.53976811867E+02  0.18016337565E+03  0.92273653779E+02 0.  0.
          5    1    3    3  502    0  0.51224151191E+02  0.30783694274E+02 -0.13598400508E+02  0.61432388809E+02  0.41800000000E+01 0. -1.
         -5    1    3    3    0  502 -0.65890980007E+02  0.11349313219E+03 -0.13562035606E+02  0.13199891481E+03  0.41800000000E+01 0. -1.
        -11    1    4    4    0    0 -0.75618147947E+01 -0.14393382830E+03  0.29542034755E+02  0.14712871844E+03  0.00000000000E+00 0.  1.
         11    1    4    4    0    0  0.22228643610E+02 -0.34299817210E+00  0.24434777113E+02  0.33034657211E+02  0.00000000000E+00 0. -1.
</event>
<event>
 8    1  0.7192024E-009  0.1049505E+03  0.7561462E-02  0.1270217E+00
          2   -1    0    0  501    0  0.00000000000E+00  0.00000000000E+00  0.17735299084E+03  0.17735299084E+03  0.00000000000E+00 0. -1.
         -2   -1    0    0    0  501 -0.00000000000E+00 -0.00000000000E+00 -0.68832778620E+02  0.68832778620E+02  0.00000000000E+00 0.  1.
         25    2    1    2    0    0  0.18787591387E+02  0.65584460707E+01  0.44045628448E+02  0.13409993240E+03  0.12508712035E+03 0.  0.
         23    2    1    2    0    0 -0.18787591387E+02 -0.65584460707E+01  0.64474583767E+02  0.11208583706E+03  0.89500145880E+02 0.  0.
          5    1    3    3  502    0 -0.32169472576E+02 -0.42240193686E+02  0.53639218729E+01  0.53528992017E+02  0.41800000000E+01 0. -1.
         -5    1    3    3    0  502  0.50957063963E+02  0.48798639757E+02  0.38681706575E+02  0.80570940378E+02  0.41800000000E+01 0. -1.
        -11    1    4    4    0    0  0.13961811684E+02 -0.38049136201E+02  0.11159531999E+02  0.42038126809E+02  0.00000000000E+00 0.  1.
         11    1    4    4    0    0 -0.32749403071E+02  0.31490690130E+02  0.53315051769E+02  0.70047710252E+02  0.00000000000E+00 0. -1.
</event>
<event>
 8    1  0.7192024E-009  0.1158470E+03  0.7561462E-02  0.1250110E+00
         -1   -1    0    0    0  501 -0.00000000000E+00  0.00000000000E+00  0.10891684663E+04  0.10891684663E+04  0.00000000000E+00 0.  1.
          1   -1    0    0  501    0  0.00000000000E+00 -0.00000000000E+00 -0.25962055754E+02  0.25962055754E+02  0.00000000000E+00 0. -1.
         25    2    1    2    0    0  0.65307027107E+02 -0.92664008107E+01  0.92859137985E+03  0.93929793061E+03  0.12509107773E+03 0.  0.
         23    2    1    2    0    0 -0.65307027107E+02  0.92664008107E+01  0.13461503065E+03  0.17583259141E+03  0.91896788573E+02 0.  0.
          5    1    3    3  502    0  0.11113611812E+02  0.54925947212E+02  0.43088670348E+03  0.43453560922E+03  0.41800000000E+01 0. -1.
         -5    1    3    3    0  502  0.54193415296E+02 -0.64192348023E+02  0.49770467638E+03  0.50476232139E+03  0.41800000000E+01 0. -1.
        -11    1    4    4    0    0 -0.72388355634E+02 -0.78982426154E+01  0.13885180328E+03  0.15678737048E+03  0.00000000000E+00 0.  1.
         11    1    4    4    0    0  0.70813285267E+01  0.17164643426E+02 -0.42367726337E+01  0.19045220923E+02  0.00000000000E+00 0. -1.
</event>
<event>
 8    1  0.7192024E-009  0.1287756E+03  0.7561462E-02  0.1229284E+00
         -1   -1    0    0    0  501 -0.00000000000E+00  0.00000000000E+00  0.20553942022E+03  0.20553942022E+03  0.00000000000E+00 0.  1.
          1   -1    0    0  501    0  0.00000000000E+00 -0.00000000000E+00 -0.13104352849E+03  0.13104352849E+03  0.00000000000E+00 0. -1.
         25    2    1    2    0    0 -0.29986558859E+02  0.91410473564E+02 -0.38463553883E+02  0.16242593551E+03  0.12509065177E+03 0.  0.
         23    2    1    2    0    0  0.29986558859E+02 -0.91410473564E+02  0.11295944561E+03  0.17415701319E+03  0.91190791764E+02 0.  0.
          5    1    3    3  502    0 -0.40021997248E+02  0.11786561934E+03 -0.46131257708E+02  0.13281426815E+03  0.41800000000E+01 0. -1.
         -5    1    3    3    0  502  0.10035438389E+02 -0.26455145780E+02  0.76677038258E+01  0.29611667360E+02  0.41800000000E+01 0. -1.
        -11    1    4    4    0    0  0.82139564169E+00 -0.65159935061E+02  0.11779766289E+03  0.13462087955E+03  0.00000000000E+00 0.  1.
         11    1    4    4    0    0  0.29165163218E+02 -0.26250538502E+02 -0.48382172794E+01  0.39536133645E+02  0.00000000000E+00 0. -1.
</event>
<event>
 8    1  0.7192024E-009  0.1715982E+03  0.7561462E-02  0.1176191E+00
          2   -1    0    0  501    0  0.00000000000E+00  0.00000000000E+00  0.14480980312E+04  0.14480980312E+04  0.00000000000E+00 0.  1.
         -2   -1    0    0    0  501 -0.00000000000E+00 -0.00000000000E+00 -0.27153553237E+02  0.27153553237E+02  0.00000000000E+00 0. -1.
         25    2    1    2    0    0 -0.12920163694E+03 -0.74196874768E+02  0.10129532650E+04  0.10314648240E+04  0.12508847671E+03 0.  0.
         23    2    1    2    0    0  0.12920163694E+03  0.74196874768E+02  0.40799121302E+03  0.44378676042E+03  0.91058330814E+02 0.  0.
          5    1    3    3  502    0 -0.52174656327E+02 -0.98851546667E+02  0.51896247968E+03  0.53087978936E+03  0.41800000000E+01 0. -1.
         -5    1    3    3    0  502 -0.77026980618E+02  0.24654671899E+02  0.49399078528E+03  0.50058503467E+03  0.41800000000E+01 0. -1.
        -11    1    4    4    0    0  0.54762428964E+02  0.43081238285E+02  0.30552416919E+03  0.31336868810E+03  0.00000000000E+00 0.  1.
         11    1    4    4    0    0  0.74439207981E+02  0.31115636483E+02  0.10246704382E+03  0.13041807232E+03  0.00000000000E+00 0. -1.
</event>
<event>
 8    1  0.7192024E-009  0.9513420E+02  0.7561462E-02  0.1290874E+00
         -1   -1    0    0    0  501 -0.00000000000E+00  0.00000000000E+00  0.13522807558E+03  0.13522807558E+03  0.00000000000E+00 0.  1.
          1   -1    0    0  501    0  0.00000000000E+00 -0.00000000000E+00 -0.12996189255E+03  0.12996189255E+03  0.00000000000E+00 0. -1.
         25    2    1    2    0    0 -0.14406063689E+02 -0.60714818285E+02 -0.50645316723E+02  0.14868446040E+03  0.12509315261E+03 0.  0.
         23    2    1    2    0    0  0.14406063689E+02  0.60714818285E+02  0.55911499752E+02  0.11650550773E+03  0.80954392694E+02 0.  0.
          5    1    3    3  502    0 -0.29803820821E+02  0.59651588318E+01  0.29947106112E+02  0.42873679804E+02  0.41800000000E+01 0. -1.
         -5    1    3    3    0  502  0.15397757131E+02 -0.66679977117E+02 -0.80592422835E+02  0.10581078060E+03  0.41800000000E+01 0. -1.
        -11    1    4    4    0    0  0.16393056648E+02 -0.10704296814E+02 -0.75111742246E+01  0.20969788144E+02  0.00000000000E+00 0. -1.
         11    1    4    4    0    0 -0.19869929586E+01  0.71419115099E+02  0.63422673976E+02  0.95535719586E+02  0.00000000000E+00 0.  1.
</event>
<event>
 8    1  0.7192024E-009  0.7731171E+02  0.7561462E-02  0.1336858E+00
          1   -1    0    0  501    0  0.00000000000E+00  0.00000000000E+00  0.32507020505E+02  0.32507020505E+02  0.00000000000E+00 0. -1.
         -1   -1    0    0    0  501 -0.00000000000E+00 -0.00000000000E+00 -0.49709096527E+03  0.49709096527E+03  0.00000000000E+00 0.  1.
         25    2    1    2    0    0 -0.22645644516E+02  0.17758862786E+01 -0.38981683545E+03  0.41002518041E+03  0.12508998513E+03 0.  0.
         23    2    1    2    0    0  0.22645644516E+02 -0.17758862786E+01 -0.74767109311E+02  0.11957280537E+03  0.90507216069E+02 0.  0.
          5    1    3    3  502    0 -0.39755016466E+02  0.30728685028E+02 -0.36386237355E+03  0.36733909770E+03  0.41800000000E+01 0.  1.
         -5    1    3    3    0  502  0.17109371951E+02 -0.28952798749E+02 -0.25954461905E+02  0.42686082705E+02  0.41800000000E+01 0.  1.
        -11    1    4    4    0    0 -0.23109090420E+02  0.60670040820E+01 -0.68724466995E+02  0.72759129752E+02  0.00000000000E+00 0.  1.
         11    1    4    4    0    0  0.45754734936E+02 -0.78428903605E+01 -0.60426423165E+01  0.46813675613E+02  0.00000000000E+00 0. -1.
</event>
<event>
 8    1  0.7192024E-009  0.9607316E+02  0.7561462E-02  0.1288777E+00
          1   -1    0    0  501    0  0.00000000000E+00  0.00000000000E+00  0.61828068281E+02  0.61828068281E+02  0.00000000000E+00 0. -1.
         -1   -1    0    0    0  501 -0.00000000000E+00 -0.00000000000E+00 -0.50599718896E+03  0.50599718896E+03  0.00000000000E+00 0.  1.
         25    2    1    2    0    0  0.76041141844E+02 -0.12390846359E+02 -0.48283175875E+02  0.15465913236E+03  0.12510952731E+03 0.  0.
         23    2    1    2    0    0 -0.76041141844E+02  0.12390846359E+02 -0.39588594480E+03  0.41316612488E+03  0.89692681570E+02 0.  0.
          5    1    3    3  502    0 -0.51358703182E+01  0.19911393664E+02  0.30446771274E+02  0.36977277381E+02  0.41800000000E+01 0. -1.
         -5    1    3    3    0  502  0.81177012162E+02 -0.32302240022E+02 -0.78729947148E+02  0.11768185498E+03  0.41800000000E+01 0. -1.
        -11    1    4    4    0    0 -0.73543705847E+01 -0.91225373927E+01 -0.98485799334E+00  0.11759141144E+02  0.00000000000E+00 0. -1.
         11    1    4    4    0    0 -0.68686771259E+02  0.21513383751E+02 -0.39490108681E+03  0.40140698373E+03  0.00000000000E+00 0.  1.
</event>
<event>
 8    1  0.7192024E-009  0.7137352E+02  0.7561462E-02  0.1355484E+00
          1   -1    0    0  501    0  0.00000000000E+00  0.00000000000E+00  0.61571256255E+02  0.61571256255E+02  0.00000000000E+00 0. -1.
         -1   -1    0    0    0  501 -0.00000000000E+00 -0.00000000000E+00 -0.24503803488E+03  0.24503803488E+03  0.00000000000E+00 0.  1.
         25    2    1    2    0    0 -0.16009416664E+02  0.44733829034E+01 -0.17223169365E+03  0.21351106739E+03  0.12508759740E+03 0.  0.
         23    2    1    2    0    0  0.16009416664E+02 -0.44733829034E+01 -0.11235084976E+02  0.93098223745E+02  0.90910612986E+02 0.  0.
          5    1    3    3  502    0  0.27805063979E+02 -0.15833569304E+02  0.23216334865E+01  0.32352525123E+02  0.41800000000E+01 0. -1.
         -5    1    3    3    0  502 -0.43814480643E+02  0.20306952208E+02 -0.17455332714E+03  0.18115854227E+03  0.41800000000E+01 0. -1.
        -11    1    4    4    0    0  0.38899914022E+02 -0.15670765433E+01 -0.40269535854E+02  0.56011557358E+02  0.00000000000E+00 0.  1.
         11    1    4    4    0    0 -0.22890497358E+02 -0.29063063600E+01  0.29034450878E+02  0.37086666387E+02  0.00000000000E+00 0. -1.
</event>
<event>
 8    1  0.7192024E-009  0.9744762E+02  0.7561462E-02  0.1285757E+00
          2   -1    0    0  501    0  0.00000000000E+00  0.00000000000E+00  0.39309080838E+03  0.39309080838E+03  0.00000000000E+00 0. -1.
         -2   -1    0    0    0  501 -0.00000000000E+00 -0.00000000000E+00 -0.39827232020E+02  0.39827232020E+02  0.00000000000E+00 0.  1.
         25    2    1    2    0    0 -0.14390296597E+02 -0.59508882535E+02  0.17862674176E+03  0.22650279334E+03  0.12509042643E+03 0.  0.
         23    2    1    2    0    0  0.14390296597E+02  0.59508882535E+02  0.17463683461E+03  0.20641524706E+03  0.91437642589E+02 0.  0.
          5    1    3    3  502    0 -0.26248551288E+01  0.23097919532E+02  0.12503488444E+03  0.12724621204E+03  0.41800000000E+01 0. -1.
         -5    1    3    3    0  502 -0.11765441468E+02 -0.82606802067E+02  0.53591857314E+02  0.99256581298E+02  0.41800000000E+01 0. -1.
        -11    1    4    4    0    0  0.25742204301E+02 -0.13930477026E+01  0.12327560037E+03  0.12594234916E+03  0.00000000000E+00 0. -1.
         11    1    4    4    0    0 -0.11351907704E+02  0.60901930238E+02  0.51361234231E+02  0.80472897903E+02  0.00000000000E+00 0.  1.
</event>
<event>
 8    1  0.7192024E-009  0.1373279E+03  0.7561462E-02  0.1216970E+00
          2   -1    0    0  501    0  0.00000000000E+00  0.00000000000E+00  0.97610045010E+03  0.97610045010E+03  0.00000000000E+00 0. -1.
         -2   -1    0    0    0  501 -0.00000000000E+00 -0.00000000000E+00 -0.21650096232E+02  0.21650096232E+02  0.00000000000E+00 0.  1.
         25    2    1    2    0    0  0.33222337290E+02  0.90408407678E+02  0.53745425185E+03  0.56016052024E+03  0.12508130048E+03 0.  0.
         23    2    1    2    0    0 -0.33222337290E+02 -0.90408407678E+02  0.41699610202E+03  0.43759002610E+03  0.91224327692E+02 0.  0.
          5    1    3    3  502    0  0.67728402443E+02  0.10432619496E+02  0.28182552885E+03  0.29006736659E+03  0.41800000000E+01 0.  1.
         -5    1    3    3    0  502 -0.34506065153E+02  0.79975788181E+02  0.25562872300E+03  0.27009315365E+03  0.41800000000E+01 0.  1.
        -11    1    4    4    0    0  0.21256619109E+02 -0.35977738204E+02  0.65042288284E+02  0.77309383437E+02  0.00000000000E+00 0.  1.
         11    1    4    4    0    0 -0.54478956399E+02 -0.54430669474E+02  0.35195381374E+03  0.36028064266E+03  0.00000000000E+00 0. -1.
</event>
<event>
 8    1  0.7192024E-009  0.1175900E+03  0.7561462E-02  0.1247127E+00
          1   -1    0    0  501    0  0.00000000000E+00  0.00000000000E+00  0.60309230150E+03  0.60309230150E+03  0.00000000000E+00 0. -1.
         -1   -1    0    0    0  501 -0.00000000000E+00 -0.00000000000E+00 -0.24636506855E+02  0.24636506855E+02  0.00000000000E+00 0.  1.
         25    2    1    2    0    0  0.32673627035E+02 -0.44258527781E+02  0.35240427932E+03  0.37797756090E+03  0.12510746291E+03 0.  0.
         23    2    1    2    0    0 -0.32673627035E+02  0.44258527781E+02  0.22605151533E+03  0.24975124746E+03  0.90829592311E+02 0.  0.
          5    1    3    3  502    0  0.47439533757E+02 -0.80254248922E+02  0.20114366382E+03  0.22173745675E+03  0.41800000000E+01 0.  1.
         -5    1    3    3    0  502 -0.14765906722E+02  0.35995721141E+02  0.15126061550E+03  0.15624010414E+03  0.41800000000E+01 0.  1.
        -11    1    4    4    0    0 -0.31510392257E+02 -0.20737780723E+02  0.54369372066E+02  0.66173929825E+02  0.00000000000E+00 0.  1.
         11    1    4    4    0    0 -0.11632347778E+01  0.64996308504E+02  0.17168214326E+03  0.18357731763E+03  0.00000000000E+00 0. -1.
</event>
<event>
 8    1  0.7192024E-009  0.1179730E+03  0.7561462E-02  0.1246479E+00
         -2   -1    0    0    0  501 -0.00000000000E+00  0.00000000000E+00  0.49539661896E+02  0.49539661896E+02  0.00000000000E+00 0.  1.
          2   -1    0    0  501    0  0.00000000000E+00 -0.00000000000E+00 -0.28643100893E+03  0.28643100893E+03  0.00000000000E+00 0. -1.
         25    2    1    2    0    0  0.22656217992E+02 -0.40131714973E+02 -0.12195973164E+03  0.18067999673E+03  0.12508887367E+03 0.  0.
         23    2    1    2    0    0 -0.22656217992E+02  0.40131714973E+02 -0.11493161539E+03  0.15529067409E+03  0.93712637805E+02 0.  0.
          5    1    3    3  502    0 -0.13481429249E+02 -0.78780899875E+02 -0.78089078333E+02  0.11181929920E+03  0.41800000000E+01 0. -1.
         -5    1    3    3    0  502  0.36137647241E+02  0.38649184902E+02 -0.43870653309E+02  0.68860697524E+02  0.41800000000E+01 0. -1.
        -11    1    4    4    0    0 -0.10685367546E+02  0.69919163625E+02 -0.65826716717E+02  0.96623098457E+02  0.00000000000E+00 0.  1.
         11    1    4    4    0    0 -0.11970850446E+02 -0.29787448652E+02 -0.49104898671E+02  0.58667575637E+02  0.00000000000E+00 0. -1.
</event>
<event>
 8    1  0.7192024E-009  0.1004078E+03  0.7561462E-02  0.1279441E+00
          2   -1    0    0  501    0  0.00000000000E+00  0.00000000000E+00  0.79942229972E+03  0.79942229972E+03  0.00000000000E+00 0. -1.
         -2   -1    0    0    0  501 -0.00000000000E+00 -0.00000000000E+00 -0.20723192140E+02  0.20723192140E+02  0.00000000000E+00 0.  1.
         25    2    1    2    0    0 -0.28401968950E+02 -0.50912714523E+02  0.35037158286E+03  0.37657186625E+03  0.12508936020E+03 0.  0.
         23    2    1    2    0    0  0.28401968950E+02  0.50912714523E+02  0.42832752472E+03  0.44357362561E+03  0.99470179274E+02 0.  0.
          5    1    3    3  502    0  0.25134770686E+02 -0.12773691810E+02  0.27501322347E+03  0.27648629149E+03  0.41800000000E+01 0. -1.
         -5    1    3    3    0  502 -0.53536739636E+02 -0.38139022713E+02  0.75358359388E+02  0.10008557475E+03  0.41800000000E+01 0. -1.
        -11    1    4    4    0    0  0.43769495519E+02 -0.89233643668E+01  0.10056164636E+03  0.11003653888E+03  0.00000000000E+00 0.  1.
         11    1    4    4    0    0 -0.15367526569E+02  0.59836078890E+02  0.32776587835E+03  0.33353708673E+03  0.00000000000E+00 0. -1.
</event>
<event>
 8    1  0.7192024E-009  0.9277264E+02  0.7561462E-02  0.1296273E+00
          2   -1    0    0  501    0  0.00000000000E+00  0.00000000000E+00  0.60992937225E+02  0.60992937225E+02  0.00000000000E+00 0.  1.
         -2   -1    0    0    0  501 -0.00000000000E+00 -0.00000000000E+00 -0.19720826710E+03  0.19720826710E+03  0.00000000000E+00 0. -1.
         25    2    1    2    0    0 -0.17338076469E+01 -0.16116421146E+02 -0.75617988752E+02  0.14706798517E+03  0.12509263336E+03 0.  0.
         23    2    1    2    0    0  0.17338076469E+01  0.16116421146E+02 -0.60597341121E+02  0.11113321915E+03  0.91737721403E+02 0.  0.
          5    1    3    3  502    0 -0.28357689597E+02  0.42950365528E+02 -0.61793117788E+01  0.52005276196E+02  0.41800000000E+01 0.  1.
         -5    1    3    3    0  502  0.26623881950E+02 -0.59066786674E+02 -0.69438676974E+02  0.95062708976E+02  0.41800000000E+01 0.  1.
        -11    1    4    4    0    0  0.98320676572E+01  0.41339539066E+02 -0.70941373158E+02  0.82694047368E+02  0.00000000000E+00 0. -1.
         11    1    4    4    0    0 -0.80982600103E+01 -0.25223117920E+02  0.10344032037E+02  0.28439171781E+02  0.00000000000E+00 0.  1.
</event>
<event>
 8    1  0.7192024E-009  0.1556612E+03  0.7561462E-02  0.1193684E+00
         -2   -1    0    0    0  501 -0.00000000000E+00  0.00000000000E+00  0.52023816061E+03  0.52023816061E+03  0.00000000000E+00 0.  1.
          2   -1    0    0  501    0  0.00000000000E+00 -0.00000000000E+00 -0.77520564308E+02  0.77520564308E+02  0.00000000000E+00 0. -1.
         25    2    1    2    0    0 -0.12292803339E+03  0.11208781429E+02  0.60446177619E+02  0.18584256532E+03  0.12508709175E+03 0.  0.
         23    2    1    2    0    0  0.12292803339E+03 -0.11208781429E+02  0.38227141868E+03  0.41191615959E+03  0.91140259055E+02 0.  0.
          5    1    3    3  502    0 -0.77478849595E+02 -0.44689499599E+02 -0.32329648518E+01  0.89599374835E+02  0.41800000000E+01 0. -1.
         -5    1    3    3    0  502 -0.45449183792E+02  0.55898281028E+02  0.63679142471E+02  0.96243190487E+02  0.41800000000E+01 0. -1.
        -11    1    4    4    0    0  0.73158839075E+02  0.35540269054E+02  0.25250750063E+03  0.26528355458E+03  0.00000000000E+00 0.  1.
         11    1    4    4    0    0  0.49769194312E+02 -0.46749050483E+02  0.12976391805E+03  0.14663260501E+03  0.00000000000E+00 0. -1.
</event>
<event>
 8    1  0.7192024E-009  0.1287522E+03  0.7561462E-02  0.1229319E+00
         -2   -1    0    0    0  501 -0.00000000000E+00  0.00000000000E+00  0.84378921799E+02  0.84378921799E+02  0.00000000000E+00 0.  1.
          2   -1    0    0  501    0  0.00000000000E+00 -0.00000000000E+00 -0.37210239536E+03  0.37210239536E+03  0.00000000000E+00 0. -1.
         25    2    1    2    0    0  0.92565372327E+02 -0.65462409809E+02 -0.25759123960E+03  0.30798382749E+03  0.12508843280E+03 0.  0.
         23    2    1    2    0    0 -0.92565372327E+02  0.65462409809E+02 -0.30132233956E+02  0.14849748967E+03  0.91048765302E+02 0.  0.
          5    1    3    3  502    0  0.69753012153E+02 -0.82547003108E+02 -0.25737736198E+03  0.27917748707E+03  0.41800000000E+01 0.  1.
         -5    1    3    3    0  502  0.22812360174E+02  0.17084593299E+02 -0.21387762760E+00  0.28806340422E+02  0.41800000000E+01 0.  1.
        -11    1    4    4    0    0 -0.62038972410E+02  0.65227397011E+02 -0.58063273378E+02  0.10712045152E+03  0.00000000000E+00 0. -1.
         11    1    4    4    0    0 -0.30526399916E+02  0.23501279833E+00  0.27931039422E+02  0.41377038150E+02  0.00000000000E+00 0.  1.
</event>
<event>
 8    1  0.7192024E-009  0.1258584E+03  0.7561462E-02  0.1233734E+00
         -2   -1    0    0    0  501 -0.00000000000E+00  0.00000000000E+00  0.11404234137E+03  0.11404234137E+03  0.00000000000E+00 0.  1.
          2   -1    0    0  501    0  0.00000000000E+00 -0.00000000000E+00 -0.21007861881E+03  0.21007861881E+03  0.00000000000E+00 0. -1.
         25    2    1    2    0    0  0.10915411520E+03 -0.97855339852E+01 -0.65106100496E+02  0.17859648484E+03  0.12509005770E+03 0.  0.
         23    2    1    2    0    0 -0.10915411520E+03  0.97855339852E+01 -0.30930176949E+02  0.14552447534E+03  0.90610813586E+02 0.  0.
          5    1    3    3  502    0  0.19639624116E+02  0.46636064567E+01  0.36767026634E+02  0.42151520827E+02  0.41800000000E+01 0.  1.
         -5    1    3    3    0  502  0.89514491080E+02 -0.14449140442E+02 -0.10187312713E+03  0.13644496401E+03  0.41800000000E+01 0.  1.
        -11    1    4    4    0    0 -0.11489844876E+03  0.30466787049E+02 -0.34479518010E+02  0.12376879980E+03  0.00000000000E+00 0. -1.
         11    1    4    4    0    0  0.57443335690E+01 -0.20681253064E+02  0.35493410612E+01  0.21755675545E+02  0.00000000000E+00 0.  1.
</event>
<event>
 8    1  0.7192024E-009  0.1567443E+03  0.7561462E-02  0.1192422E+00
          2   -1    0    0  501    0  0.00000000000E+00  0.00000000000E+00  0.19390506234E+03  0.19390506234E+03  0.00000000000E+00 0. -1.
         -2   -1    0    0    0  501 -0.00000000000E+00 -0.00000000000E+00 -0.19499867858E+03  0.19499867858E+03  0.00000000000E+00 0.  1.
         25    2    1    2    0    0 -0.17523191517E+02  0.13762556817E+03  0.81584428774E+02  0.20385099146E+03  0.12510534939E+03 0.  0.
         23    2    1    2    0    0  0.17523191517E+02 -0.13762556817E+03 -0.82678045014E+02  0.18505274945E+03  0.90338262635E+02 0.  0.
          5    1    3    3  502    0  0.28594963320E+02  0.38933744308E+02  0.81502990066E+02  0.94835215837E+02  0.41800000000E+01 0. -1.
         -5    1    3    3    0  502 -0.46118154837E+02  0.98691823865E+02  0.81438708815E-01  0.10901577563E+03  0.41800000000E+01 0. -1.
        -11    1    4    4    0    0  0.26554648842E+02 -0.10524240445E+02  0.67874806014E+01  0.29359477261E+02  0.00000000000E+00 0. -1.
         11    1    4    4    0    0 -0.90314573255E+01 -0.12710132773E+03 -0.89465525616E+02  0.15569327219E+03  0.00000000000E+00 0.  1.
</event>
<event>
 8    1  0.7192024E-009  0.6575430E+02  0.7561462E-02  0.1375156E+00
          2   -1    0    0  501    0  0.00000000000E+00  0.00000000000E+00  0.25279154181E+03  0.25279154181E+03  0.00000000000E+00 0. -1.
         -2   -1    0    0    0  501 -0.00000000000E+00 -0.00000000000E+00 -0.47397382687E+02  0.47397382687E+02  0.00000000000E+00 0.  1.
         25    2    1    2    0    0  0.22730099877E+01 -0.34363806931E+01  0.15282073871E+03  0.19753206287E+03  0.12509101645E+03 0.  0.
         23    2    1    2    0    0 -0.22730099877E+01  0.34363806931E+01  0.52573420413E+02  0.10265686163E+03  0.88076622428E+02 0.  0.
          5    1    3    3  502    0 -0.28244270517E+02 -0.25433704675E+02  0.15497290535E+03  0.15962044338E+03  0.41800000000E+01 0.  1.
         -5    1    3    3    0  502  0.30517280505E+02  0.21997323982E+02 -0.21521666383E+01  0.37911619499E+02  0.41800000000E+01 0.  1.
        -11    1    4    4    0    0 -0.28760206344E+02  0.42785233418E+00  0.66591702681E+02  0.72538178861E+02  0.00000000000E+00 0. -1.
         11    1    4    4    0    0  0.26487196357E+02  0.30085283589E+01 -0.14018282268E+02  0.30118682764E+02  0.00000000000E+00 0.  1.
</event>
<event>
 8    1  0.7192024E-009  0.1155029E+03  0.7561462E-02  0.1250706E+00
          3   -1    0    0  501    0  0.00000000000E+00  0.00000000000E+00  0.58231091491E+02  0.58231091491E+02  0.00000000000E+00 0. -1.
         -3   -1    0    0    0  501 -0.00000000000E+00 -0.00000000000E+00 -0.35920641411E+03  0.35920641411E+03  0.00000000000E+00 0.  1.
         25    2    1    2    0    0 -0.19636323257E+02 -0.91876502722E+02 -0.19590049597E+03  0.25070153835E+03  0.12508948823E+03 0.  0.
         23    2    1    2    0    0  0.19636323257E+02  0.91876502722E+02 -0.10507482665E+03  0.16673596726E+03  0.89068999306E+02 0.  0.
          5    1    3    3  502    0 -0.17554899202E+02  0.15788532301E+02 -0.11085838172E+03  0.11342180318E+03  0.41800000000E+01 0.  1.
         -5    1    3    3    0  502 -0.20814240552E+01 -0.10766503502E+03 -0.85042114245E+02  0.13727973517E+03  0.41800000000E+01 0.  1.
        -11    1    4    4    0    0  0.27542945533E+02  0.54571686004E+02 -0.70238094050E+01  0.61530615636E+02  0.00000000000E+00 0. -1.
         11    1    4    4    0    0 -0.79066222760E+01  0.37304816718E+02 -0.98051017250E+02  0.10520535162E+03  0.00000000000E+00 0.  1.
</event>
<event>
 8    1  0.7192024E-009  0.9627533E+02  0.7561462E-02  0.1288329E+00
         -2   -1    0    0    0  501 -0.00000000000E+00  0.00000000000E+00  0.11864922474E+02  0.11864922474E+02  0.00000000000E+00 0.  1.
          2   -1    0    0  501    0  0.00000000000E+00 -0.00000000000E+00 -0.10726132700E+04  0.10726132700E+04  0.00000000000E+00 0. -1.
         25    2    1    2    0    0  0.11249854674E+02 -0.30344734021E+02 -0.67164121907E+03  0.68395822754E+03  0.12509823241E+03 0.  0.
         23    2    1    2    0    0 -0.11249854674E+02  0.30344734021E+02 -0.38910712844E+03  0.40051996492E+03  0.89244175069E+02 0.  0.
          5    1    3    3  502    0 -0.38627985210E+02 -0.29246732932E+02 -0.55369229176E+03  0.55582382010E+03  0.41800000000E+01 0.  1.
         -5    1    3    3    0  502  0.49877839884E+02 -0.10980010888E+01 -0.11794892731E+03  0.12813440744E+03  0.41800000000E+01 0.  1.
        -11    1    4    4    0    0 -0.28822231854E+02  0.55869720477E+02 -0.23082358184E+03  0.23923142069E+03  0.00000000000E+00 0.  1.
         11    1    4    4    0    0  0.17572377180E+02 -0.25524986456E+02 -0.15828354660E+03  0.16128854422E+03  0.00000000000E+00 0. -1.
</event>
<event>
 8    1  0.7192024E-009  0.9169958E+02  0.7561462E-02  0.1298787E+00
          2   -1    0    0  501    0  0.00000000000E+00  0.00000000000E+00  0.90952789284E+03  0.90952789284E+03  0.00000000000E+00 0. -1.
         -2   -1    0    0    0  501 -0.00000000000E+00 -0.00000000000E+00 -0.16596598412E+02  0.16596598412E+02  0.00000000000E+00 0.  1.
         25    2    1    2    0    0 -0.82364722536E+01  0.57841273669E+02  0.49382618084E+03  0.51276287801E+03  0.12509204521E+03 0.  0.
         23    2    1    2    0    0  0.82364722536E+01 -0.57841273669E+02  0.39910511359E+03  0.41336161324E+03  0.90385171293E+02 0.  0.
          5    1    3    3  502    0  0.73409123797E+00  0.66031937675E+02  0.49541892139E+03  0.49981810267E+03  0.41800000000E+01 0.  1.
         -5    1    3    3    0  502 -0.89705634916E+01 -0.81906640064E+01 -0.15927405558E+01  0.12944775344E+02  0.41800000000E+01 0.  1.
        -11    1    4    4    0    0 -0.35712115308E+02 -0.47161252126E+02  0.27450636576E+03  0.28080826862E+03  0.00000000000E+00 0. -1.
         11    1    4    4    0    0  0.43948587562E+02 -0.10680021543E+02  0.12459874783E+03  0.13255334462E+03  0.00000000000E+00 0.  1.
</event>
<event>
 8    1  0.7192024E-009  0.1271533E+03  0.7561462E-02  0.1231742E+00
         -1   -1    0    0    0  501 -0.00000000000E+00  0.00000000000E+00  0.89326784295E+02  0.89326784295E+02  0.00000000000E+00 0.  1.
          1   -1    0    0  501    0  0.00000000000E+00 -0.00000000000E+00 -0.20965098165E+03  0.20965098165E+03  0.00000000000E+00 0. -1.
         25    2    1    2    0    0  0.52424415720E+02  0.60985796106E+02 -0.76077268600E+02  0.16704053663E+03  0.12508878204E+03 0.  0.
         23    2    1    2    0    0 -0.52424415720E+02 -0.60985796106E+02 -0.44246928757E+02  0.13193722931E+03  0.94773704602E+02 0.  0.
          5    1    3    3  502    0  0.33829889523E+02  0.90618473086E+02 -0.17063781501E+02  0.98309786535E+02  0.41800000000E+01 0.  1.
         -5    1    3    3    0  502  0.18594526196E+02 -0.29632676980E+02 -0.59013487100E+02  0.68730750099E+02  0.41800000000E+01 0.  1.
        -11    1    4    4    0    0 -0.32563824569E+02  0.20437569192E+02 -0.30998191091E+01  0.38570789252E+02  0.00000000000E+00 0. -1.
         11    1    4    4    0    0 -0.19860591151E+02 -0.81423365298E+02 -0.41147109648E+02  0.93366440061E+02  0.00000000000E+00 0.  1.
</event>
<event>
 8    1  0.7192024E-009  0.1099814E+03  0.7561462E-02  0.1260604E+00
         -4   -1    0    0    0  501 -0.00000000000E+00  0.00000000000E+00  0.35121501582E+03  0.35121501582E+03  0.00000000000E+00 0.  1.
          4   -1    0    0  501    0  0.00000000000E+00 -0.00000000000E+00 -0.45761739966E+02  0.45761739966E+02  0.00000000000E+00 0. -1.
         25    2    1    2    0    0  0.37557388351E+02  0.60160181818E+02  0.18712626021E+03  0.23599500047E+03  0.12509035971E+03 0.  0.
         23    2    1    2    0    0 -0.37557388351E+02 -0.60160181818E+02  0.11832701564E+03  0.16098175531E+03  0.82970103151E+02 0.  0.
          5    1    3    3  502    0  0.22966178778E+01  0.87002630663E+02  0.73611826813E+02  0.11406535689E+03  0.41800000000E+01 0. -1.
         -5    1    3    3    0  502  0.35260770474E+02 -0.26842448845E+02  0.11351443340E+03  0.12192964358E+03  0.41800000000E+01 0. -1.
        -11    1    4    4    0    0  0.11782272544E+02 -0.18379892001E+01  0.69055661472E+02  0.70077703529E+02  0.00000000000E+00 0.  1.
         11    1    4    4    0    0 -0.49339660896E+02 -0.58322192618E+02  0.49271354172E+02  0.90904051785E+02  0.00000000000E+00 0. -1.
</event>
<event>
 8    1  0.7192024E-009  0.1046006E+03  0.7561462E-02  0.1270909E+00
         -2   -1    0    0    0  501 -0.00000000000E+00  0.00000000000E+00  0.29961793013E+02  0.29961793013E+02  0.00000000000E+00 0.  1.
          2   -1    0    0  501    0  0.00000000000E+00 -0.00000000000E+00 -0.60579185551E+03  0.60579185551E+03  0.00000000000E+00 0. -1.
         25    2    1    2    0    0  0.77709340640E+02  0.17700158659E+02 -0.31827893430E+03  0.35114246392E+03  0.12509001843E+03 0.  0.
         23    2    1    2    0    0 -0.77709340640E+02 -0.17700158659E+02 -0.25755112820E+03  0.28461118460E+03  0.91208034325E+02 0.  0.
          5    1    3    3  502    0  0.61552297184E+01 -0.14838450434E+02 -0.23846527341E+03  0.23904230899E+03  0.41800000000E+01 0. -1.
         -5    1    3    3    0  502  0.71554110921E+02  0.32538609092E+02 -0.79813660893E+02  0.11210015494E+03  0.41800000000E+01 0. -1.
        -11    1    4    4    0    0  0.15783224038E+02  0.68774398425E+01 -0.85925503138E+02  0.87633335149E+02  0.00000000000E+00 0.  1.
         11    1    4    4    0    0 -0.93492564677E+02 -0.24577598501E+02 -0.17162562506E+03  0.19697784945E+03  0.00000000000E+00 0. -1.
</event>
<event>
 8    1  0.7192024E-009  0.1093193E+03  0.7561462E-02  0.1261836E+00
          1   -1    0    0  501    0  0.00000000000E+00  0.00000000000E+00  0.14376724902E+03  0.14376724902E+03  0.00000000000E+00 0. -1.
         -1   -1    0    0    0  501 -0.00000000000E+00 -0.00000000000E+00 -0.10155590001E+03  0.10155590001E+03  0.00000000000E+00 0.  1.
         25    2    1    2    0    0 -0.49860284640E+02 -0.36242314691E+02  0.39395007812E+02  0.14491251293E+03  0.12509243145E+03 0.  0.
         23    2    1    2    0    0  0.49860284640E+02  0.36242314691E+02  0.28163411986E+01  0.10041063609E+03  0.79213702753E+02 0.  0.
          5    1    3    3  502    0 -0.37871938652E+01 -0.77186500516E+02  0.26488812631E+02  0.81799928447E+02  0.41800000000E+01 0. -1.
         -5    1    3    3    0  502 -0.46073090775E+02  0.40944185825E+02  0.12906195181E+02  0.63112584486E+02  0.41800000000E+01 0. -1.
        -11    1    4    4    0    0 -0.73173900363E+01  0.18031760407E+02  0.29012408789E+02  0.34934344764E+02  0.00000000000E+00 0. -1.
         11    1    4    4    0    0  0.57177674676E+02  0.18210554285E+02 -0.26196067591E+02  0.65476291327E+02  0.00000000000E+00 0.  1.
</event>
<event>
 8    1  0.7192024E-009  0.2221779E+03  0.7561462E-02  0.1132270E+00
         -2   -1    0    0    0  501 -0.00000000000E+00  0.00000000000E+00  0.12430630922E+03  0.12430630922E+03  0.00000000000E+00 0. -1.
          2   -1    0    0  501    0  0.00000000000E+00 -0.00000000000E+00 -0.48624074644E+03  0.48624074644E+03  0.00000000000E+00 0.  1.
         25    2    1    2    0    0  0.13102277139E+02 -0.19370589453E+03 -0.59969460265E+02  0.23861587896E+03  0.12509020059E+03 0.  0.
         23    2    1    2    0    0 -0.13102277139E+02  0.19370589453E+03 -0.30196497695E+03  0.37193117670E+03  0.97243558425E+02 0.  0.
          5    1    3    3  502    0 -0.23393126345E+02 -0.18930454554E+03 -0.34980427233E+02  0.19397049264E+03  0.41800000000E+01 0.  1.
         -5    1    3    3    0  502  0.36495403484E+02 -0.44013489911E+01 -0.24989033032E+02  0.44645386327E+02  0.41800000000E+01 0.  1.
        -11    1    4    4    0    0 -0.52404408901E+02  0.74759041834E+02 -0.14074070965E+03  0.16775900501E+03  0.00000000000E+00 0. -1.
         11    1    4    4    0    0  0.39302131761E+02  0.11894685270E+03 -0.16122426730E+03  0.20417217169E+03  0.00000000000E+00 0.  1.
</event>
<event>
 8    1  0.7192024E-009  0.1258603E+03  0.7561462E-02  0.1233731E+00
          2   -1    0    0  501    0  0.00000000000E+00  0.00000000000E+00  0.51719302519E+02  0.51719302519E+02  0.00000000000E+00 0. -1.
         -2   -1    0    0    0  501 -0.00000000000E+00 -0.00000000000E+00 -0.47128551520E+03  0.47128551520E+03  0.00000000000E+00 0.  1.
         25    2    1    2    0    0  0.72298262066E+02 -0.61476512381E+02 -0.12488220587E+03  0.20061449060E+03  0.12507680929E+03 0.  0.
         23    2    1    2    0    0 -0.72298262066E+02  0.61476512381E+02 -0.29468400681E+03  0.32239032712E+03  0.89946978157E+02 0.  0.
          5    1    3    3  502    0  0.16298912910E+02  0.38546855575E+02 -0.28706439802E+02  0.50921966997E+02  0.41800000000E+01 0.  1.
         -5    1    3    3    0  502  0.55999349156E+02 -0.10002336796E+03 -0.96175766071E+02  0.14969252360E+03  0.41800000000E+01 0.  1.
        -11    1    4    4    0    0 -0.26872192319E+02  0.20899382996E+02 -0.16899788370E+02  0.38006601750E+02  0.00000000000E+00 0. -1.
         11    1    4    4    0    0 -0.45426069747E+02  0.40577129386E+02 -0.27778421844E+03  0.28438372537E+03  0.00000000000E+00 0.  1.
</event>
<event>
 8    1  0.7192024E-009  0.7644894E+02  0.7561462E-02  0.1339442E+00
          2   -1    0    0  501    0  0.00000000000E+00  0.00000000000E+00  0.31212767000E+03  0.31212767000E+03  0.00000000000E+00 0. -1.
         -2   -1    0    0    0  501 -0.00000000000E+00 -0.00000000000E+00 -0.49500148648E+02  0.49500148648E+02  0.00000000000E+00 0.  1.
         25    2    1    2    0    0 -0.23110236443E+02  0.55561317131E+02  0.15394353893E+03  0.20728294716E+03  0.12508582659E+03 0.  0.
         23    2    1    2    0    0  0.23110236443E+02 -0.55561317131E+02  0.10868398242E+03  0.15434487149E+03  0.91591420619E+02 0.  0.
          5    1    3    3  502    0 -0.21300630924E+02 -0.58255028911E+01 -0.15302841013E+02  0.27190121455E+02  0.41800000000E+01 0. -1.
         -5    1    3    3    0  502 -0.18096055195E+01  0.61386820022E+02  0.16924637995E+03  0.18009282570E+03  0.41800000000E+01 0. -1.
        -11    1    4    4    0    0  0.22002740108E+00 -0.42524239106E+02  0.11875779651E+03  0.12614187867E+03  0.00000000000E+00 0. -1.
         11    1    4    4    0    0  0.22890209042E+02 -0.13037078026E+02 -0.10073814092E+02  0.28202992816E+02  0.00000000000E+00 0.  1.
</event>
<event>
 8    1  0.7192024E-009  0.9858647E+02  0.7561462E-02  0.1283297E+00
         -2   -1    0    0    0  501 -0.00000000000E+00  0.00000000000E+00  0.11152695140E+03  0.11152695140E+03  0.00000000000E+00 0.  1.
          2   -1    0    0  501    0  0.00000000000E+00 -0.00000000000E+00 -0.15656905268E+03  0.15656905268E+03  0.00000000000E+00 0. -1.
         25    2    1    2    0    0 -0.51756140957E+02  0.51627667638E+02 -0.38625129379E+02  0.14994547092E+03  0.12509048500E+03 0.  0.
         23    2    1    2    0    0  0.51756140957E+02 -0.51627667638E+02 -0.64169719038E+01  0.11815053316E+03  0.92597282707E+02 0.  0.
          5    1    3    3  502    0 -0.32210174283E+01 -0.72046572178E+01  0.39611055264E+02  0.40605296920E+02  0.41800000000E+01 0.  1.
         -5    1    3    3    0  502 -0.48535123528E+02  0.58832324856E+02 -0.78236184642E+02  0.10934017400E+03  0.41800000000E+01 0.  1.
        -11    1    4    4    0    0 -0.13147812665E+02 -0.44692035530E+02  0.15811458366E+02  0.49195987981E+02  0.00000000000E+00 0.  1.
         11    1    4    4    0    0  0.64903953622E+02 -0.69356321076E+01 -0.22228430270E+02  0.68954545178E+02  0.00000000000E+00 0. -1.
</event>
<event>
 8    1  0.7192024E-009  0.1733116E+03  0.7561462E-02  0.1174438E+00
         -1   -1    0    0    0  501 -0.00000000000E+00  0.00000000000E+00  0.10568831608E+03  0.10568831608E+03  0.00000000000E+00 0.  1.
          1   -1    0    0  501    0  0.00000000000E+00 -0.00000000000E+00 -0.39231669388E+03  0.39231669388E+03  0.00000000000E+00 0. -1.
         25    2    1    2    0    0  0.15680579704E+03  0.51315179800E+02 -0.91257447742E+02  0.22626749345E+03  0.12509097153E+03 0.  0.
         23    2    1    2    0    0 -0.15680579704E+03 -0.51315179800E+02 -0.19537093006E+03  0.27173751652E+03  0.91924816612E+02 0.  0.
          5    1    3    3  502    0  0.34896493116E+01  0.22268992766E+02 -0.63771269399E+02  0.67766753589E+02  0.41800000000E+01 0.  1.
         -5    1    3    3    0  502  0.15331614773E+03  0.29046187034E+02 -0.27486178342E+02  0.15850073986E+03  0.41800000000E+01 0.  1.
        -11    1    4    4    0    0 -0.45973999144E+02 -0.12687168947E+01 -0.12038141438E+03  0.12886777397E+03  0.00000000000E+00 0. -1.
         11    1    4    4    0    0 -0.11083179790E+03 -0.50046462905E+02 -0.74989515676E+02  0.14286974255E+03  0.00000000000E+00 0.  1.
</event>
<event>
 8    1  0.7192024E-009  0.2678273E+03  0.7561462E-02  0.1102530E+00
          2   -1    0    0  501    0  0.00000000000E+00  0.00000000000E+00  0.12193475520E+04  0.12193475520E+04  0.00000000000E+00 0. -1.
         -2   -1    0    0    0  501 -0.00000000000E+00 -0.00000000000E+00 -0.89996866290E+02  0.89996866290E+02  0.00000000000E+00 0.  1.
         25    2    1    2    0    0 -0.23989738197E+03 -0.81410818172E+02  0.21117701046E+03  0.35273227514E+03  0.12508338413E+03 0.  0.
         23    2    1    2    0    0  0.23989738197E+03  0.81410818172E+02  0.91817367530E+03  0.95661214320E+03  0.88799883517E+02 0.  0.
          5    1    3    3  502    0 -0.21063052592E+02 -0.38941364884E+02 -0.16545069428E+01  0.44500470523E+02  0.41800000000E+01 0.  1.
         -5    1    3    3    0  502 -0.21883432938E+03 -0.42469453288E+02  0.21283151741E+03  0.30823180462E+03  0.41800000000E+01 0.  1.
        -11    1    4    4    0    0  0.76784339094E+02  0.71330784229E+02  0.37776092530E+03  0.39202963178E+03  0.00000000000E+00 0.  1.
         11    1    4    4    0    0  0.16311304288E+03  0.10080033942E+02  0.54041275000E+03  0.56458251142E+03  0.00000000000E+00 0. -1.
</event>
<event>
 8    1  0.7192024E-009  0.9330283E+02  0.7561462E-02  0.1295045E+00
          1   -1    0    0  501    0  0.00000000000E+00  0.00000000000E+00  0.56175563546E+03  0.56175563546E+03  0.00000000000E+00 0. -1.
         -1   -1    0    0    0  501 -0.00000000000E+00 -0.00000000000E+00 -0.29446262039E+02  0.29446262039E+02  0.00000000000E+00 0.  1.
         25    2    1    2    0    0  0.32470492660E+01  0.60728198190E+02  0.22167642257E+03  0.26169785523E+03  0.12508746431E+03 0.  0.
         23    2    1    2    0    0 -0.32470492660E+01 -0.60728198190E+02  0.31063295085E+03  0.32950404226E+03  0.91551222427E+02 0.  0.
          5    1    3    3  502    0 -0.17056830279E+02  0.53708060892E+02  0.21703814377E+02  0.60531142583E+02  0.41800000000E+01 0. -1.
         -5    1    3    3    0  502  0.20303879545E+02  0.70201372975E+01  0.19997260819E+03  0.20116671265E+03  0.41800000000E+01 0. -1.
        -11    1    4    4    0    0 -0.44335615826E+02 -0.47667814196E+02  0.15765401725E+03  0.17056569554E+03  0.00000000000E+00 0. -1.
         11    1    4    4    0    0  0.41088566560E+02 -0.13060383994E+02  0.15297893361E+03  0.15893834672E+03  0.00000000000E+00 0.  1.
</event>
<event>
 8    1  0.7192024E-009  0.9422494E+02  0.7561462E-02  0.1292931E+00
         -1   -1    0    0    0  501 -0.00000000000E+00  0.00000000000E+00  0.51929967579E+02  0.51929967579E+02  0.00000000000E+00 0.  1.
          1   -1    0    0  501    0  0.00000000000E+00 -0.00000000000E+00 -0.24411349002E+03  0.24411349002E+03  0.00000000000E+00 0. -1.
         25    2    1    2    0    0  0.20276626361E+02  0.15852796680E+02 -0.11522177690E+03  0.17200574862E+03  0.12508983550E+03 0.  0.
         23    2    1    2    0    0 -0.20276626361E+02 -0.15852796680E+02 -0.76961745543E+02  0.12403770898E+03  0.93807197132E+02 0.  0.
          5    1    3    3  502    0 -0.33445629242E+02  0.52609064801E+02 -0.56942765423E+02  0.84535641884E+02  0.41800000000E+01 0.  1.
         -5    1    3    3    0  502  0.53722255603E+02 -0.36756268121E+02 -0.58279011477E+02  0.87470106734E+02  0.41800000000E+01 0.  1.
        -11    1    4    4    0    0 -0.26526535005E+02 -0.33088345171E+02  0.25058773343E+01  0.42482644300E+02  0.00000000000E+00 0.  1.
         11    1    4    4    0    0  0.62499086439E+01  0.17235548491E+02 -0.79467622877E+02  0.81555064684E+02  0.00000000000E+00 0. -1.
</event>
<event>
 8    1  0.7192024E-009  0.1686035E+03  0.7561462E-02  0.1179312E+00
          1   -1    0    0  501    0  0.00000000000E+00  0.00000000000E+00  0.12611383316E+03  0.12611383316E+03  0.00000000000E+00 0. -1.
         -1   -1    0    0    0  501 -0.00000000000E+00 -0.00000000000E+00 -0.26347368327E+03  0.26347368327E+03  0.00000000000E+00 0.  1.
         25    2    1    2    0    0 -0.56605029871E+02  0.12826936416E+03 -0.30569160120E+02  0.19036688986E+03  0.12509164647E+03 0.  0.
         23    2    1    2    0    0  0.56605029871E+02 -0.12826936416E+03 -0.10679068999E+03  0.19922062657E+03  0.92884053501E+02 0.  0.
          5    1    3    3  502    0 -0.17304361496E+02  0.14278888301E+03 -0.12140652440E+02  0.14440558812E+03  0.41800000000E+01 0.  1.
         -5    1    3    3    0  502 -0.39300668376E+02 -0.14519518853E+02 -0.18428507679E+02  0.45961301742E+02  0.41800000000E+01 0.  1.
        -11    1    4    4    0    0  0.67625903886E+02 -0.98645702877E+02 -0.41350013613E+02  0.12654667597E+03  0.00000000000E+00 0. -1.
         11    1    4    4    0    0 -0.11020874014E+02 -0.29623661281E+02 -0.65440676378E+02  0.72673950605E+02  0.00000000000E+00 0.  1.
</event>
<event>
 8    1  0.7192024E-009  0.1503429E+03  0.7561462E-02  0.1200052E+00
         -3   -1    0    0    0  501 -0.00000000000E+00  0.00000000000E+00  0.84857119530E+03  0.84857119530E+03  0.00000000000E+00 0.  1.
          3   -1    0    0  501    0  0.00000000000E+00 -0.00000000000E+00 -0.30742646489E+02  0.30742646489E+02  0.00000000000E+00 0. -1.
         25    2    1    2    0    0 -0.78097414624E+02 -0.92278871009E+02  0.45927806423E+03  0.49111939348E+03  0.12508925676E+03 0.  0.
         23    2    1    2    0    0  0.78097414624E+02  0.92278871009E+02  0.35855048458E+03  0.38819444831E+03  0.86728792822E+02 0.  0.
          5    1    3    3  502    0 -0.32239539089E+02 -0.11692551519E+03  0.30602071885E+03  0.32920679936E+03  0.41800000000E+01 0. -1.
         -5    1    3    3    0  502 -0.45857875535E+02  0.24646644179E+02  0.15325734539E+03  0.16191259412E+03  0.41800000000E+01 0. -1.
        -11    1    4    4    0    0  0.12429422761E+02  0.43643492892E+02  0.23972472979E+03  0.24398194830E+03  0.00000000000E+00 0.  1.
         11    1    4    4    0    0  0.65667991862E+02  0.48635378117E+02  0.11882575479E+03  0.14421250001E+03  0.00000000000E+00 0. -1.
</event>
<event>
 8    1  0.7192024E-009  0.1095229E+03  0.7561462E-02  0.1261456E+00
          2   -1    0    0  501    0  0.00000000000E+00  0.00000000000E+00  0.54161494126E+03  0.54161494126E+03  0.00000000000E+00 0. -1.
         -2   -1    0    0    0  501 -0.00000000000E+00 -0.00000000000E+00 -0.24378269540E+02  0.24378269540E+02  0.00000000000E+00 0.  1.
         25    2    1    2    0    0  0.36635029730E+02  0.59640235159E+01  0.25189862037E+03  0.28368786061E+03  0.12509273492E+03 0.  0.
         23    2    1    2    0    0 -0.36635029730E+02 -0.59640235159E+01  0.26533805135E+03  0.28230535020E+03  0.88962544222E+02 0.  0.
          5    1    3    3  502    0 -0.45525235121E+02 -0.17734760411E+01  0.66598829602E+02  0.80799559123E+02  0.41800000000E+01 0.  1.
         -5    1    3    3    0  502  0.82160264851E+02  0.77374995570E+01  0.18529979077E+03  0.20288830148E+03  0.41800000000E+01 0.  1.
        -11    1    4    4    0    0 -0.50841277153E+02 -0.32657662269E+02  0.12621738861E+03  0.13993636966E+03  0.00000000000E+00 0. -1.
         11    1    4    4    0    0  0.14206247423E+02  0.26693638753E+02  0.13912066275E+03  0.14236898053E+03  0.00000000000E+00 0.  1.
</event>
<event>
 8    1  0.7192024E-009  0.1398589E+03  0.7561462E-02  0.1213519E+00
         -1   -1    0    0    0  501 -0.00000000000E+00  0.00000000000E+00  0.98950881724E+02  0.98950881724E+02  0.00000000000E+00 0.  1.
          1   -1    0    0  501    0  0.00000000000E+00 -0.00000000000E+00 -0.26455592332E+03  0.26455592332E+03  0.00000000000E+00 0. -1.
         25    2    1    2    0    0 -0.10266742155E+03 -0.50734404375E+02 -0.50101990414E+02  0.17683860448E+03  0.12508838218E+03 0.  0.
         23    2    1    2    0    0  0.10266742155E+03  0.50734404375E+02 -0.11550305119E+03  0.18666820057E+03  0.91594121180E+02 0.  0.
          5    1    3    3  502    0 -0.12789330492E+03 -0.28700266443E+02 -0.55958267173E+02  0.14258051341E+03  0.41800000000E+01 0.  1.
         -5    1    3    3    0  502  0.25225883375E+02 -0.22034137932E+02  0.58562767595E+01  0.34258091072E+02  0.41800000000E+01 0.  1.
        -11    1    4    4    0    0  0.34256249353E+02  0.21377543092E+02  0.92190461829E+01  0.41418362847E+02  0.00000000000E+00 0.  1.
         11    1    4    4    0    0  0.68411172197E+02  0.29356861283E+02 -0.12472209737E+03  0.14524983772E+03  0.00000000000E+00 0. -1.
</event>
<event>
 8    1  0.7192024E-009  0.1559138E+03  0.7561462E-02  0.1193389E+00
         -1   -1    0    0    0  501 -0.00000000000E+00  0.00000000000E+00  0.66871494959E+02  0.66871494959E+02  0.00000000000E+00 0.  1.
          1   -1    0    0  501    0  0.00000000000E+00 -0.00000000000E+00 -0.56920366365E+03  0.56920366365E+03  0.00000000000E+00 0. -1.
         25    2    1    2    0    0 -0.10688151490E+03 -0.43478842255E+02 -0.44781989376E+03  0.47906595708E+03  0.12508983185E+03 0.  0.
         23    2    1    2    0    0  0.10688151490E+03  0.43478842255E+02 -0.54512274932E+02  0.15700920153E+03  0.91467115938E+02 0.  0.
          5    1    3    3  502    0 -0.60647101661E+02  0.41287510968E+02 -0.19913706889E+03  0.21226345448E+03  0.41800000000E+01 0. -1.
         -5    1    3    3    0  502 -0.46234413235E+02 -0.84766353223E+02 -0.24868282488E+03  0.26680250260E+03  0.41800000000E+01 0. -1.
        -11    1    4    4    0    0 -0.11263556892E+02 -0.69532484874E+01 -0.20019931037E+02  0.24000271188E+02  0.00000000000E+00 0.  1.
         11    1    4    4    0    0  0.11814507179E+03  0.50432090742E+02 -0.34492343895E+02  0.13300893035E+03  0.00000000000E+00 0. -1.
</event>
<event>
 8    1  0.7192024E-009  0.1219349E+03  0.7561462E-02  0.1239939E+00
         -1   -1    0    0    0  501 -0.00000000000E+00  0.00000000000E+00  0.45451403625E+02  0.45451403625E+02  0.00000000000E+00 0.  1.
          1   -1    0    0  501    0  0.00000000000E+00 -0.00000000000E+00 -0.42605565465E+03  0.42605565465E+03  0.00000000000E+00 0. -1.
         25    2    1    2    0    0  0.88641802334E+02 -0.20571307016E+01 -0.21296943418E+03  0.26242328927E+03  0.12509357278E+03 0.  0.
         23    2    1    2    0    0 -0.88641802334E+02  0.20571307016E+01 -0.16763481684E+03  0.20908376900E+03  0.88051063216E+02 0.  0.
          5    1    3    3  502    0 -0.25261859192E+02  0.21720013087E+02 -0.73034540743E+02  0.80383064385E+02  0.41800000000E+01 0.  1.
         -5    1    3    3    0  502  0.11390366153E+03 -0.23777143789E+02 -0.13993489344E+03  0.18204022489E+03  0.41800000000E+01 0.  1.
        -11    1    4    4    0    0 -0.51625455753E+02 -0.14030488235E+02 -0.21804063877E+02  0.57770749375E+02  0.00000000000E+00 0.  1.
         11    1    4    4    0    0 -0.37016346581E+02  0.16087618937E+02 -0.14583075297E+03  0.15131301963E+03  0.00000000000E+00 0. -1.
</event>
<event>
 8    1  0.7192024E-009  0.1024288E+03  0.7561462E-02  0.1275270E+00
          2   -1    0    0  501    0  0.00000000000E+00  0.00000000000E+00  0.10431716043E+04  0.10431716043E+04  0.00000000000E+00 0.  1.
         -2   -1    0    0    0  501 -0.00000000000E+00 -0.00000000000E+00 -0.17471823660E+02  0.17471823660E+02  0.00000000000E+00 0. -1.
         25    2    1    2    0    0 -0.88210779303E+01  0.40719211067E+02  0.81592628853E+03  0.82651097848E+03  0.12509525837E+03 0.  0.
         23    2    1    2    0    0  0.88210779303E+01 -0.40719211067E+02  0.20977349208E+03  0.23413244945E+03  0.95274447469E+02 0.  0.
          5    1    3    3  502    0 -0.37899033296E+02 -0.13766045306E+02  0.99863787978E+02  0.10777796286E+03  0.41800000000E+01 0.  1.
         -5    1    3    3    0  502  0.29077955365E+02  0.54485256374E+02  0.71606250055E+03  0.71873301562E+03  0.41800000000E+01 0.  1.
        -11    1    4    4    0    0 -0.27176359436E+02 -0.56820592417E+02  0.14800059496E+03  0.16084561027E+03  0.00000000000E+00 0. -1.
         11    1    4    4    0    0  0.35997437367E+02  0.16101381350E+02  0.61772897117E+02  0.73286839177E+02  0.00000000000E+00 0.  1.
</event>
<event>
 8    1  0.7192024E-009  0.1040032E+03  0.7561462E-02  0.1272096E+00
         -1   -1    0    0    0  501 -0.00000000000E+00  0.00000000000E+00  0.14091793096E+03  0.14091793096E+03  0.00000000000E+00 0.  1.
          1   -1    0    0  501    0  0.00000000000E+00 -0.00000000000E+00 -0.12668306871E+03  0.12668306871E+03  0.00000000000E+00 0. -1.
         25    2    1    2    0    0  0.30108212556E+02 -0.44391521592E+02 -0.49940522862E+02  0.14497952040E+03  0.12509154191E+03 0.  0.
         23    2    1    2    0    0 -0.30108212556E+02  0.44391521592E+02  0.64175385119E+02  0.12262147927E+03  0.89668475345E+02 0.  0.
          5    1    3    3  502    0 -0.40747675132E+02 -0.47856509405E+02 -0.10999365242E+02  0.63945890852E+02  0.41800000000E+01 0.  1.
         -5    1    3    3    0  502  0.70855887688E+02  0.34649878135E+01 -0.38941157620E+02  0.81033629546E+02  0.41800000000E+01 0.  1.
        -11    1    4    4    0    0 -0.33203693674E+02  0.40041980156E+01  0.73768038097E+02  0.80995322828E+02  0.00000000000E+00 0.  1.
         11    1    4    4    0    0  0.30954811185E+01  0.40387323576E+02 -0.95926529776E+01  0.41626156442E+02  0.00000000000E+00 0. -1.
</event>
<event>
 8    1  0.7192024E-009  0.1307221E+03  0.7561462E-02  0.1226388E+00
         -1   -1    0    0    0  501 -0.00000000000E+00  0.00000000000E+00  0.40393453669E+02  0.40393453669E+02  0.00000000000E+00 0. -1.
          1   -1    0    0  501    0  0.00000000000E+00 -0.00000000000E+00 -0.59845379517E+03  0.59845379517E+03  0.00000000000E+00 0.  1.
         25    2    1    2    0    0  0.48044632358E+02 -0.98558803035E+02 -0.26653985069E+03  0.31418531553E+03  0.12508715417E+03 0.  0.
         23    2    1    2    0    0 -0.48044632358E+02  0.98558803035E+02 -0.29152049082E+03  0.32466193331E+03  0.91646331183E+02 0.  0.
          5    1    3    3  502    0  0.20520394416E+01 -0.56359173947E+02 -0.23940788264E+03  0.24599628864E+03  0.41800000000E+01 0.  1.
         -5    1    3    3    0  502  0.45992592916E+02 -0.42199629088E+02 -0.27131968043E+02  0.68189026890E+02  0.41800000000E+01 0.  1.
        -11    1    4    4    0    0 -0.14231218414E+02 -0.16860634110E+02 -0.35480503126E+02  0.41781271668E+02  0.00000000000E+00 0. -1.
         11    1    4    4    0    0 -0.33813413944E+02  0.11541943714E+03 -0.25603998769E+03  0.28288066164E+03  0.00000000000E+00 0.  1.
</event>
<event>
 8    1  0.7192024E-009  0.9048968E+02  0.7561462E-02  0.1301670E+00
          1   -1    0    0  501    0  0.00000000000E+00  0.00000000000E+00  0.11243575393E+03  0.11243575393E+03  0.00000000000E+00 0. -1.
         -1   -1    0    0    0  501 -0.00000000000E+00 -0.00000000000E+00 -0.18408343800E+03  0.18408343800E+03  0.00000000000E+00 0.  1.
         25    2    1    2    0    0  0.37189440212E+02 -0.20621762272E+02 -0.12590879977E+03  0.18250341946E+03  0.12508461421E+03 0.  0.
         23    2    1    2    0    0 -0.37189440212E+02  0.20621762272E+02  0.54261115695E+02  0.11401577247E+03  0.90813083602E+02 0.  0.
          5    1    3    3  502    0  0.50931651815E+02  0.43032764377E+02 -0.61128844190E+02  0.90554182446E+02  0.41800000000E+01 0.  1.
         -5    1    3    3    0  502 -0.13742211602E+02 -0.63654526649E+02 -0.64779955577E+02  0.91949237012E+02  0.41800000000E+01 0.  1.
        -11    1    4    4    0    0 -0.24565586706E+02  0.25476574277E+02 -0.18550898928E+02  0.39958224912E+02  0.00000000000E+00 0.  1.
         11    1    4    4    0    0 -0.12623853506E+02 -0.48548120051E+01  0.72812014623E+02  0.74057547559E+02  0.00000000000E+00 0. -1.
</event>
<event>
 8    1  0.7192024E-009  0.1238527E+03  0.7561462E-02  0.1236873E+00
         -3   -1    0    0    0  501 -0.00000000000E+00  0.00000000000E+00  0.15905047140E+03  0.15905047140E+03  0.00000000000E+00 0.  1.
          3   -1    0    0  501    0  0.00000000000E+00 -0.00000000000E+00 -0.12095211491E+03  0.12095211491E+03  0.00000000000E+00 0. -1.
         25    2    1    2    0    0 -0.65117428308E+02 -0.55785624962E+02  0.28741652875E+02  0.15435751836E+03  0.12509134839E+03 0.  0.
         23    2    1    2    0    0  0.65117428308E+02  0.55785624962E+02  0.93567036166E+01  0.12564506794E+03  0.91360931332E+02 0.  0.
          5    1    3    3  502    0 -0.10131004380E+03 -0.48380091305E+02  0.32596004599E+02  0.11698004156E+03  0.41800000000E+01 0. -1.
         -5    1    3    3    0  502  0.36192615487E+02 -0.74055336568E+01 -0.38543517232E+01  0.37377476798E+02  0.41800000000E+01 0. -1.
        -11    1    4    4    0    0  0.10257167587E+02  0.39709933300E+02  0.42910572125E+02  0.59358280717E+02  0.00000000000E+00 0.  1.
         11    1    4    4    0    0  0.54860260721E+02  0.16075691662E+02 -0.33553868508E+02  0.66286787226E+02  0.00000000000E+00 0. -1.
</event>
<event>
 8    1  0.7192024E-009  0.1532903E+03  0.7561462E-02  0.1196487E+00
         -1   -1    0    0    0  501 -0.00000000000E+00  0.00000000000E+00  0.26384230972E+02  0.26384230972E+02  0.00000000000E+00 0.  1.
          1   -1    0    0  501    0  0.00000000000E+00 -0.00000000000E+00 -0.16649824726E+04  0.16649824726E+04  0.00000000000E+00 0. -1.
         25    2    1    2    0    0  0.13581692900E+02 -0.14951952485E+03 -0.12456698361E+04  0.12609052310E+04  0.12509240658E+03 0.  0.
         23    2    1    2    0    0 -0.13581692900E+02  0.14951952485E+03 -0.39292840552E+03  0.43046147261E+03  0.91453796234E+02 0.  0.
          5    1    3    3  502    0 -0.56342998684E+01 -0.95712659360E+02 -0.11029430512E+04  0.11071104304E+04  0.41800000000E+01 0.  1.
         -5    1    3    3    0  502  0.19215992768E+02 -0.53806865485E+02 -0.14272678491E+03  0.15379480057E+03  0.41800000000E+01 0.  1.
        -11    1    4    4    0    0 -0.23455645007E+02  0.90872496821E+02 -0.33323365871E+03  0.34619741370E+03  0.00000000000E+00 0. -1.
         11    1    4    4    0    0  0.98739521074E+01  0.58647028024E+02 -0.59694746818E+02  0.84264058909E+02  0.00000000000E+00 0.  1.
</event>
<event>
 8    1  0.7192024E-009  0.1031296E+03  0.7561462E-02  0.1273849E+00
         -1   -1    0    0    0  501 -0.00000000000E+00  0.00000000000E+00  0.36225281666E+03  0.36225281666E+03  0.00000000000E+00 0.  1.
          1   -1    0    0  501    0  0.00000000000E+00 -0.00000000000E+00 -0.44885031038E+02  0.44885031038E+02  0.00000000000E+00 0. -1.
         25    2    1    2    0    0  0.58570969740E+02 -0.24188553454E+02  0.13582566538E+03  0.19522689438E+03  0.12509709947E+03 0.  0.
         23    2    1    2    0    0 -0.58570969740E+02  0.24188553454E+02  0.18154212024E+03  0.21191095332E+03  0.89067761298E+02 0.  0.
          5    1    3    3  502    0  0.91392647992E+02 -0.23766201519E+02  0.13136449876E+03  0.16183804366E+03  0.41800000000E+01 0.  1.
         -5    1    3    3    0  502 -0.32821678252E+02 -0.42235193460E+00  0.44611666252E+01  0.33388850715E+02  0.41800000000E+01 0.  1.
        -11    1    4    4    0    0 -0.34155513414E+02 -0.10940135919E+02  0.13197962059E+02  0.38216120590E+02  0.00000000000E+00 0. -1.
         11    1    4    4    0    0 -0.24415456326E+02  0.35128689373E+02  0.16834415818E+03  0.17369483273E+03  0.00000000000E+00 0.  1.
</event>
<event>
 8    1  0.7192024E-009  0.8710738E+02  0.7561462E-02  0.1310012E+00
         -1   -1    0    0    0  501 -0.00000000000E+00  0.00000000000E+00  0.33926886595E+02  0.33926886595E+02  0.00000000000E+00 0.  1.
          1   -1    0    0  501    0  0.00000000000E+00 -0.00000000000E+00 -0.58998988936E+03  0.58998988936E+03  0.00000000000E+00 0. -1.
         25    2    1    2    0    0  0.22904051049E+02 -0.38616143609E+02 -0.47930987430E+03  0.49739709152E+03  0.12510039549E+03 0.  0.
         23    2    1    2    0    0 -0.22904051049E+02  0.38616143609E+02 -0.76753128462E+02  0.12651968443E+03  0.90002142850E+02 0.  0.
          5    1    3    3  502    0  0.29410286961E+02  0.37428591736E+02 -0.10499053640E+03  0.11535315164E+03  0.41800000000E+01 0. -1.
         -5    1    3    3    0  502 -0.65062359121E+01 -0.76044735345E+02 -0.37431933790E+03  0.38204393989E+03  0.41800000000E+01 0. -1.
        -11    1    4    4    0    0 -0.79446669377E+01  0.33115082384E+02  0.12181650983E+02  0.36167928261E+02  0.00000000000E+00 0.  1.
         11    1    4    4    0    0 -0.14959384111E+02  0.55010612250E+01 -0.88934779446E+02  0.90351756168E+02  0.00000000000E+00 0. -1.
</event>
<event>
 8    1  0.7192024E-009  0.1517213E+03  0.7561462E-02  0.1198374E+00
         -1   -1    0    0    0  501 -0.00000000000E+00  0.00000000000E+00  0.59919957972E+03  0.59919957972E+03  0.00000000000E+00 0.  1.
          1   -1    0    0  501    0  0.00000000000E+00 -0.00000000000E+00 -0.52459259041E+02  0.52459259041E+02  0.00000000000E+00 0. -1.
         25    2    1    2    0    0 -0.11279254281E+03  0.81146222342E+02  0.32565599416E+03  0.37550753844E+03  0.12508883957E+03 0.  0.
         23    2    1    2    0    0  0.11279254281E+03 -0.81146222342E+02  0.22108432653E+03  0.27615130032E+03  0.89857632511E+02 0.  0.
          5    1    3    3  502    0 -0.71175265996E+02  0.19659255081E+01  0.24437579964E+03  0.25457177220E+03  0.41800000000E+01 0. -1.
         -5    1    3    3    0  502 -0.41617276810E+02  0.79180296834E+02  0.81280194517E+02  0.12093576624E+03  0.41800000000E+01 0. -1.
        -11    1    4    4    0    0  0.58404370206E+02 -0.61311021405E+02  0.19512345769E+03  0.21270466743E+03  0.00000000000E+00 0. -1.
         11    1    4    4    0    0  0.54388172600E+02 -0.19835200936E+02  0.25960868840E+02  0.63446632896E+02  0.00000000000E+00 0.  1.
</event>
<event>
 8    1  0.7192024E-009  0.1200321E+03  0.7561462E-02  0.1243044E+00
         -1   -1    0    0    0  501 -0.00000000000E+00  0.00000000000E+00  0.40159854776E+02  0.40159854776E+02  0.00000000000E+00 0.  1.
          1   -1    0    0  501    0  0.00000000000E+00 -0.00000000000E+00 -0.38671162004E+03  0.38671162004E+03  0.00000000000E+00 0. -1.
         25    2    1    2    0    0 -0.40607215624E+02 -0.22741333667E+02 -0.13464660395E+03  0.18958125441E+03  0.12508089323E+03 0.  0.
         23    2    1    2    0    0  0.40607215624E+02  0.22741333667E+02 -0.21190516131E+03  0.23729022040E+03  0.96107944997E+02 0.  0.
          5    1    3    3  502    0  0.31802673692E+02 -0.46913385963E+02 -0.52624927887E+02  0.77454059103E+02  0.41800000000E+01 0.  1.
         -5    1    3    3    0  502 -0.72409889316E+02  0.24172052296E+02 -0.82021676064E+02  0.11212719531E+03  0.41800000000E+01 0.  1.
        -11    1    4    4    0    0  0.34355837046E+02 -0.34799680596E+02 -0.97958602843E+02  0.10948620543E+03  0.00000000000E+00 0. -1.
         11    1    4    4    0    0  0.62513785781E+01  0.57541014263E+02 -0.11394655847E+03  0.12780401497E+03  0.00000000000E+00 0.  1.
</event>
<event>
 8    1  0.7192024E-009  0.8398653E+02  0.7561462E-02  0.1318104E+00
          2   -1    0    0  501    0  0.00000000000E+00  0.00000000000E+00  0.29938390595E+03  0.29938390595E+03  0.00000000000E+00 0.  1.
         -2   -1    0    0    0  501 -0.00000000000E+00 -0.00000000000E+00 -0.50996134081E+02  0.50996134081E+02  0.00000000000E+00 0. -1.
         25    2    1    2    0    0 -0.49059385965E+02 -0.20472789361E+02  0.11592965454E+03  0.17864549366E+03  0.12509424107E+03 0.  0.
         23    2    1    2    0    0  0.49059385965E+02  0.20472789361E+02  0.13245811733E+03  0.17173454637E+03  0.95507293516E+02 0.  0.
          5    1    3    3  502    0 -0.22256930793E+02 -0.49705486059E+02  0.12615813219E+03  0.13747491782E+03  0.41800000000E+01 0. -1.
         -5    1    3    3    0  502 -0.26802455172E+02  0.29232696698E+02 -0.10228477653E+02  0.41170575835E+02  0.41800000000E+01 0. -1.
        -11    1    4    4    0    0  0.41298579324E+02 -0.96120084109E+01  0.76117264519E+01  0.43080178034E+02  0.00000000000E+00 0. -1.
         11    1    4    4    0    0  0.77608066416E+01  0.30084797772E+02  0.12484639088E+03  0.12865436834E+03  0.00000000000E+00 0.  1.
</event>
<event>
 8    1  0.7192024E-009  0.1589537E+03  0.7561462E-02  0.1189883E+00
         -1   -1    0    0    0  501 -0.00000000000E+00  0.00000000000E+00  0.80384335783E+02  0.80384335783E+02  0.00000000000E+00 0.  1.
          1   -1    0    0  501    0  0.00000000000E+00 -0.00000000000E+00 -0.32473628293E+03  0.32473628293E+03  0.00000000000E+00 0. -1.
         25    2    1    2    0    0  0.94754609478E+02  0.65008473820E+02 -0.11406337289E+03  0.20460732613E+03  0.12509663139E+03 0.  0.
         23    2    1    2    0    0 -0.94754609478E+02 -0.65008473820E+02 -0.13028857426E+03  0.20051329258E+03  0.10012956724E+03 0.  0.
          5    1    3    3  502    0  0.23419248175E+02 -0.37704324597E+02 -0.33891307028E+02  0.56001521144E+02  0.41800000000E+01 0.  1.
         -5    1    3    3    0  502  0.71335361303E+02  0.10271279842E+03 -0.80172065864E+02  0.14860580499E+03  0.41800000000E+01 0.  1.
        -11    1    4    4    0    0 -0.85867101772E+01  0.23291841119E+02 -0.63263554325E+01  0.25617654605E+02  0.00000000000E+00 0. -1.
         11    1    4    4    0    0 -0.86167899300E+02 -0.88300314939E+02 -0.12396221882E+03  0.17489563798E+03  0.00000000000E+00 0.  1.
</event>
<event>
 8    1  0.7192024E-009  0.1317189E+03  0.7561462E-02  0.1224927E+00
         -1   -1    0    0    0  501 -0.00000000000E+00  0.00000000000E+00  0.44467486280E+02  0.44467486280E+02  0.00000000000E+00 0.  1.
          1   -1    0    0  501    0  0.00000000000E+00 -0.00000000000E+00 -0.46848820413E+03  0.46848820413E+03  0.00000000000E+00 0. -1.
         25    2    1    2    0    0  0.43330839805E+02  0.82435611031E+02 -0.19193735029E+03  0.24730729796E+03  0.12509101304E+03 0.  0.
         23    2    1    2    0    0 -0.43330839805E+02 -0.82435611031E+02 -0.23208336756E+03  0.26564839245E+03  0.89628049575E+02 0.  0.
          5    1    3    3  502    0 -0.41143305662E+02  0.44429865750E+02 -0.54872613718E+02  0.81824572762E+02  0.41800000000E+01 0. -1.
         -5    1    3    3    0  502  0.84474145466E+02  0.38005745281E+02 -0.13706473657E+03  0.16548272519E+03  0.41800000000E+01 0. -1.
        -11    1    4    4    0    0  0.13978466264E+02 -0.26351256423E+02 -0.13350053918E+02  0.32680424932E+02  0.00000000000E+00 0.  1.
         11    1    4    4    0    0 -0.57309306068E+02 -0.56084354609E+02 -0.21873331364E+03  0.23296796752E+03  0.00000000000E+00 0. -1.
</event>
<event>
 8    1  0.7192024E-009  0.1459763E+03  0.7561462E-02  0.1205506E+00
         -2   -1    0    0    0  501 -0.00000000000E+00  0.00000000000E+00  0.32162383958E+03  0.32162383958E+03  0.00000000000E+00 0.  1.
          2   -1    0    0  501    0  0.00000000000E+00 -0.00000000000E+00 -0.87719916310E+02  0.87719916310E+02  0.00000000000E+00 0. -1.
         25    2    1    2    0    0  0.80574103391E+02 -0.77750188217E+02  0.19774157946E+03  0.25939522380E+03  0.12508745731E+03 0.  0.
         23    2    1    2    0    0 -0.80574103391E+02  0.77750188217E+02  0.36162343809E+02  0.14994853209E+03  0.92949283277E+02 0.  0.
          5    1    3    3  502    0  0.88107225548E+02 -0.10598588625E+03  0.15509304227E+03  0.20752642106E+03  0.41800000000E+01 0.  1.
         -5    1    3    3    0  502 -0.75331221570E+01  0.28235698032E+02  0.42648537193E+02  0.51868802738E+02  0.41800000000E+01 0.  1.
        -11    1    4    4    0    0 -0.49932392227E+02  0.11049087555E+02 -0.22610411658E+02  0.55915622545E+02  0.00000000000E+00 0. -1.
         11    1    4    4    0    0 -0.30641711164E+02  0.66701100662E+02  0.58772755467E+02  0.94032909547E+02  0.00000000000E+00 0.  1.
</event>
<event>
 8    1  0.7192024E-009  0.1186406E+03  0.7561462E-02  0.1245357E+00
         -2   -1    0    0    0  501 -0.00000000000E+00  0.00000000000E+00  0.12490383234E+03  0.12490383234E+03  0.00000000000E+00 0.  1.
          2   -1    0    0  501    0  0.00000000000E+00 -0.00000000000E+00 -0.16661547942E+03  0.16661547942E+03  0.00000000000E+00 0. -1.
         25    2    1    2    0    0  0.43844843075E+02 -0.78245820751E+02  0.86990762510E+01  0.15416957346E+03  0.12509118564E+03 0.  0.
         23    2    1    2    0    0 -0.43844843075E+02  0.78245820751E+02 -0.50410723334E+02  0.13734973829E+03  0.90988630350E+02 0.  0.
          5    1    3    3  502    0 -0.21588392441E+02 -0.48770423726E+01 -0.38833936457E+02  0.44893109173E+02  0.41800000000E+01 0.  1.
         -5    1    3    3    0  502  0.65433235516E+02 -0.73368778379E+02  0.47533012708E+02  0.10927646429E+03  0.41800000000E+01 0.  1.
        -11    1    4    4    0    0 -0.16526515930E+02  0.86309135422E+02 -0.10766778279E+02  0.88534265121E+02  0.00000000000E+00 0. -1.
         11    1    4    4    0    0 -0.27318327145E+02 -0.80633146708E+01 -0.39643945056E+02  0.48815473172E+02  0.00000000000E+00 0.  1.
</event>
<event>
 8    1  0.7192024E-009  0.1140040E+03  0.7561462E-02  0.1253330E+00
         -2   -1    0    0    0  501 -0.00000000000E+00  0.00000000000E+00  0.26656692271E+02  0.26656692271E+02  0.00000000000E+00 0. -1.
          2   -1    0    0  501    0  0.00000000000E+00 -0.00000000000E+00 -0.61052883753E+03  0.61052883753E+03  0.00000000000E+00 0.  1.
         25    2    1    2    0    0  0.66259275389E+02  0.17260077501E+02 -0.32752307104E+03  0.35722152723E+03  0.12509058960E+03 0.  0.
         23    2    1    2    0    0 -0.66259275389E+02 -0.17260077501E+02 -0.25634907422E+03  0.27996400257E+03  0.89312893972E+02 0.  0.
          5    1    3    3  502    0  0.38469826868E+02  0.70772155535E+02 -0.16114793905E+03  0.18020753658E+03  0.41800000000E+01 0.  1.
         -5    1    3    3    0  502  0.27789448521E+02 -0.53512078033E+02 -0.16637513199E+03  0.17701399066E+03  0.41800000000E+01 0.  1.
        -11    1    4    4    0    0 -0.55420917229E+02  0.11120565876E+02 -0.23767401045E+03  0.24430325478E+03  0.00000000000E+00 0.  1.
         11    1    4    4    0    0 -0.10838358160E+02 -0.28380643378E+02 -0.18675063773E+02  0.35660747792E+02  0.00000000000E+00 0. -1.
</event>
<event>
 8    1  0.7192024E-009  0.1296474E+03  0.7561462E-02  0.1227980E+00
          2   -1    0    0  501    0  0.00000000000E+00  0.00000000000E+00  0.40387414920E+03  0.40387414920E+03  0.00000000000E+00 0. -1.
         -2   -1    0    0    0  501 -0.00000000000E+00 -0.00000000000E+00 -0.65264485614E+02  0.65264485614E+02  0.00000000000E+00 0.  1.
         25    2    1    2    0    0  0.89939873445E+02 -0.69420314186E+02  0.11901174498E+03  0.20668805511E+03  0.12509115007E+03 0.  0.
         23    2    1    2    0    0 -0.89939873445E+02  0.69420314186E+02  0.21959791861E+03  0.26245057970E+03  0.88026700909E+02 0.  0.
          5    1    3    3  502    0  0.99068641688E+01 -0.38482808739E+02  0.11381469080E+03  0.12062474360E+03  0.41800000000E+01 0.  1.
         -5    1    3    3    0  502  0.80033009276E+02 -0.30937505446E+02  0.51970541826E+01  0.86063311516E+02  0.41800000000E+01 0.  1.
        -11    1    4    4    0    0 -0.92104038753E+02  0.34359539478E+02  0.11080201085E+03  0.14812433128E+03  0.00000000000E+00 0.  1.
         11    1    4    4    0    0  0.21641653083E+01  0.35060774708E+02  0.10879590775E+03  0.11432624842E+03  0.00000000000E+00 0. -1.
</event>
<event>
 8    1  0.7192024E-009  0.2072606E+03  0.7561462E-02  0.1143754E+00
         -3   -1    0    0    0  501 -0.00000000000E+00  0.00000000000E+00  0.31743856112E+02  0.31743856112E+02  0.00000000000E+00 0.  1.
          3   -1    0    0  501    0  0.00000000000E+00 -0.00000000000E+00 -0.18763928219E+04  0.18763928219E+04  0.00000000000E+00 0. -1.
         25    2    1    2    0    0 -0.35391041811E+02 -0.19777286020E+03 -0.12763360586E+04  0.12980932256E+04  0.12508260425E+03 0.  0.
         23    2    1    2    0    0  0.35391041811E+02  0.19777286020E+03 -0.56831290719E+03  0.61004345237E+03  0.93844676134E+02 0.  0.
          5    1    3    3  502    0  0.39825623574E+01 -0.10752913944E+03 -0.34145966177E+03  0.35803707859E+03  0.41800000000E+01 0.  1.
         -5    1    3    3    0  502 -0.39373604168E+02 -0.90243720761E+02 -0.93487639681E+03  0.94005614702E+03  0.41800000000E+01 0.  1.
        -11    1    4    4    0    0  0.48550281940E+02  0.12065630663E+03 -0.24477797043E+03  0.27718464787E+03  0.00000000000E+00 0.  1.
         11    1    4    4    0    0 -0.13159240129E+02  0.77116553566E+02 -0.32353493675E+03  0.33285880450E+03  0.00000000000E+00 0. -1.
</event>
<event>
 8    1  0.7192024E-009  0.1556161E+03  0.7561462E-02  0.1193737E+00
          1   -1    0    0  501    0  0.00000000000E+00  0.00000000000E+00  0.60930710042E+03  0.60930710042E+03  0.00000000000E+00 0.  1.
         -1   -1    0    0    0  501 -0.00000000000E+00 -0.00000000000E+00 -0.45279780976E+02  0.45279780976E+02  0.00000000000E+00 0. -1.
         25    2    1    2    0    0  0.25033158158E+02 -0.12298675841E+03  0.30353388128E+03  0.35147330711E+03  0.12509303250E+03 0.  0.
         23    2    1    2    0    0 -0.25033158158E+02  0.12298675841E+03  0.26049343817E+03  0.30311357429E+03  0.90931874690E+02 0.  0.
          5    1    3    3  502    0  0.60853247451E+02 -0.14338840753E+02  0.10280815083E+03  0.12039812439E+03  0.41800000000E+01 0. -1.
         -5    1    3    3    0  502 -0.35820089294E+02 -0.10864791765E+03  0.20072573045E+03  0.23107518273E+03  0.41800000000E+01 0. -1.
        -11    1    4    4    0    0 -0.39237422991E+02  0.90363518978E+02  0.10655950993E+03  0.14512088093E+03  0.00000000000E+00 0. -1.
         11    1    4    4    0    0  0.14204264833E+02  0.32623239430E+02  0.15393392824E+03  0.15799269336E+03  0.00000000000E+00 0.  1.
</event>
<event>
 8    1  0.7192024E-009  0.1004588E+03  0.7561462E-02  0.1279334E+00
          1   -1    0    0  501    0  0.00000000000E+00  0.00000000000E+00  0.51293119584E+02  0.51293119584E+02  0.00000000000E+00 0. -1.
         -1   -1    0    0    0  501 -0.00000000000E+00 -0.00000000000E+00 -0.32275519566E+03  0.32275519566E+03  0.00000000000E+00 0.  1.
         25    2    1    2    0    0 -0.63347005169E+02  0.14609429175E+02 -0.17116221829E+03  0.22173936638E+03  0.12508222553E+03 0.  0.
         23    2    1    2    0    0  0.63347005169E+02 -0.14609429175E+02 -0.10029985778E+03  0.15230894887E+03  0.94401673450E+02 0.  0.
          5    1    3    3  502    0 -0.80795148140E+02  0.31271053996E+02 -0.54281446184E+02  0.10232146686E+03  0.41800000000E+01 0.  1.
         -5    1    3    3    0  502  0.17448142971E+02 -0.16661624821E+02 -0.11688077211E+03  0.11941789951E+03  0.41800000000E+01 0.  1.
        -11    1    4    4    0    0  0.70518215801E+02  0.31036220408E+01 -0.11013761763E+03  0.13081569495E+03  0.00000000000E+00 0.  1.
         11    1    4    4    0    0 -0.71712106322E+01 -0.17713051216E+02  0.98377598428E+01  0.21493253919E+02  0.00000000000E+00 0. -1.
</event>
<event>
 8    1  0.7192024E-009  0.1283984E+03  0.7561462E-02  0.1229852E+00
         -1   -1    0    0    0  501 -0.00000000000E+00  0.00000000000E+00  0.78818664133E+03  0.78818664133E+03  0.00000000000E+00 0.  1.
          1   -1    0    0  501    0  0.00000000000E+00 -0.00000000000E+00 -0.30749529870E+02  0.30749529870E+02  0.00000000000E+00 0. -1.
         25    2    1    2    0    0 -0.62671282256E+02  0.80980238807E+02  0.52856121450E+03  0.55272873251E+03  0.12508639242E+03 0.  0.
         23    2    1    2    0    0  0.62671282256E+02 -0.80980238807E+02  0.22887589696E+03  0.26620743869E+03  0.89424468174E+02 0.  0.
          5    1    3    3  502    0  0.16591555683E+01  0.71180095586E+02  0.42059509734E+03  0.42659942230E+03  0.41800000000E+01 0.  1.
         -5    1    3    3    0  502 -0.64330437824E+02  0.98001432210E+01  0.10796611717E+03  0.12612931021E+03  0.41800000000E+01 0.  1.
        -11    1    4    4    0    0 -0.28456070186E+01 -0.45828562828E+02  0.15395054197E+03  0.16065218337E+03  0.00000000000E+00 0.  1.
         11    1    4    4    0    0  0.65516889275E+02 -0.35151675979E+02  0.74925354986E+02  0.10555525531E+03  0.00000000000E+00 0. -1.
</event>
<event>
 8    1  0.7192024E-009  0.1556054E+03  0.7561462E-02  0.1193749E+00
          1   -1    0    0  501    0  0.00000000000E+00  0.00000000000E+00  0.10487507540E+04  0.10487507540E+04  0.00000000000E+00 0. -1.
         -1   -1    0    0    0  501 -0.00000000000E+00 -0.00000000000E+00 -0.34233911163E+02  0.34233911163E+02  0.00000000000E+00 0.  1.
         25    2    1    2    0    0  0.11895824379E+03  0.93907207385E+02  0.43795754852E+03  0.48002691542E+03  0.12509755335E+03 0.  0.
         23    2    1    2    0    0 -0.11895824379E+03 -0.93907207385E+02  0.57655929435E+03  0.60295774978E+03  0.90375885918E+02 0.  0.
          5    1    3    3  502    0  0.90338226408E+02  0.66293104959E+02  0.42254616839E+03  0.43717102801E+03  0.41800000000E+01 0. -1.
         -5    1    3    3    0  502  0.28620017381E+02  0.27614102426E+02  0.15411380139E+02  0.42855887408E+02  0.41800000000E+01 0. -1.
        -11    1    4    4    0    0 -0.78802784421E+02 -0.31465729014E+02  0.43409877794E+03  0.44231405126E+03  0.00000000000E+00 0. -1.
         11    1    4    4    0    0 -0.40155459369E+02 -0.62441478370E+02  0.14246051641E+03  0.16064369852E+03  0.00000000000E+00 0.  1.
</event>
<event>
 8    1  0.7192024E-009  0.1264035E+03  0.7561462E-02  0.1232892E+00
          2   -1    0    0  501    0  0.00000000000E+00  0.00000000000E+00  0.19844465983E+04  0.19844465983E+04  0.00000000000E+00 0. -1.
         -2   -1    0    0    0  501 -0.00000000000E+00 -0.00000000000E+00 -0.13475789868E+02  0.13475789868E+02  0.00000000000E+00 0.  1.
         25    2    1    2    0    0  0.96978327303E+01  0.92992274341E+02  0.15382691405E+04  0.15461765158E+04  0.12509299822E+03 0.  0.
         23    2    1    2    0    0 -0.96978327303E+01 -0.92992274341E+02  0.43270166790E+03  0.45174587239E+03  0.90011048018E+02 0.  0.
          5    1    3    3  502    0 -0.88939321230E+01  0.10302050871E+03  0.14866274966E+04  0.14902251888E+04  0.41800000000E+01 0. -1.
         -5    1    3    3    0  502  0.18591764853E+02 -0.10028234367E+02  0.51641643924E+02  0.55951326991E+02  0.41800000000E+01 0. -1.
        -11    1    4    4    0    0 -0.48117001030E+02 -0.61642130098E+02  0.22480762172E+03  0.23801988315E+03  0.00000000000E+00 0.  1.
         11    1    4    4    0    0  0.38419168299E+02 -0.31350144242E+02  0.20789404619E+03  0.21372598924E+03  0.00000000000E+00 0. -1.
</event>
<event>
 8    1  0.7192024E-009  0.9078772E+02  0.7561462E-02  0.1300955E+00
          1   -1    0    0  501    0  0.00000000000E+00  0.00000000000E+00  0.50324722022E+03  0.50324722022E+03  0.00000000000E+00 0. -1.
         -1   -1    0    0    0  501 -0.00000000000E+00 -0.00000000000E+00 -0.31206579599E+02  0.31206579599E+02  0.00000000000E+00 0.  1.
         25    2    1    2    0    0 -0.65950562658E+02 -0.72660081281E+01  0.31607496231E+03  0.34634215960E+03  0.12508892087E+03 0.  0.
         23    2    1    2    0    0  0.65950562658E+02  0.72660081281E+01  0.15596567831E+03  0.18811164022E+03  0.81599171488E+02 0.  0.
          5    1    3    3  502    0 -0.55543554631E+02  0.28110201340E+02  0.29909052246E+03  0.30552885773E+03  0.41800000000E+01 0.  1.
         -5    1    3    3    0  502 -0.10407008026E+02 -0.35376209468E+02  0.16984439856E+02  0.40813301871E+02  0.41800000000E+01 0.  1.
        -11    1    4    4    0    0  0.31735769669E+02  0.27781748635E+02  0.13810436582E+03  0.14440152524E+03  0.00000000000E+00 0. -1.
         11    1    4    4    0    0  0.34214792989E+02 -0.20515740507E+02  0.17861312490E+02  0.43710114981E+02  0.00000000000E+00 0.  1.
</event>
<event>
 8    1  0.7192024E-009  0.1056589E+03  0.7561462E-02  0.1268827E+00
         -2   -1    0    0    0  501 -0.00000000000E+00  0.00000000000E+00  0.20550659562E+03  0.20550659562E+03  0.00000000000E+00 0.  1.
          2   -1    0    0  501    0  0.00000000000E+00 -0.00000000000E+00 -0.61271052441E+02  0.61271052441E+02  0.00000000000E+00 0. -1.
         25    2    1    2    0    0  0.44405402751E+01 -0.29270575388E+02  0.67665754777E+02  0.14526970703E+03  0.12509255944E+03 0.  0.
         23    2    1    2    0    0 -0.44405402751E+01  0.29270575388E+02  0.76569788405E+02  0.12150794104E+03  0.89581037375E+02 0.  0.
          5    1    3    3  502    0  0.32130286379E+02  0.41063133933E+02  0.21174685880E+02  0.56430275503E+02  0.41800000000E+01 0.  1.
         -5    1    3    3    0  502 -0.27689746104E+02 -0.70333709322E+02  0.46491068897E+02  0.88839431524E+02  0.41800000000E+01 0.  1.
        -11    1    4    4    0    0 -0.11750682950E+02  0.55164104923E+02  0.75941097391E+02  0.94594964425E+02  0.00000000000E+00 0.  1.
         11    1    4    4    0    0  0.73101426749E+01 -0.25893529535E+02  0.62869101427E+00  0.26912976612E+02  0.00000000000E+00 0. -1.
</event>
<event>
 8    1  0.7192024E-009  0.1379560E+03  0.7561462E-02  0.1216106E+00
         -2   -1    0    0    0  501 -0.00000000000E+00  0.00000000000E+00  0.13437839909E+03  0.13437839909E+03  0.00000000000E+00 0.  1.
          2   -1    0    0  501    0  0.00000000000E+00 -0.00000000000E+00 -0.17575493944E+03  0.17575493944E+03  0.00000000000E+00 0. -1.
         25    2    1    2    0    0 -0.58931697526E+02 -0.74600886216E+02  0.29160782068E+02  0.15979818922E+03  0.12508746088E+03 0.  0.
         23    2    1    2    0    0  0.58931697526E+02  0.74600886216E+02 -0.70537322421E+02  0.15033514931E+03  0.92665560306E+02 0.  0.
          5    1    3    3  502    0 -0.56206310026E+02  0.11063798945E+02  0.44461193074E+02  0.72634888472E+02  0.41800000000E+01 0. -1.
         -5    1    3    3    0  502 -0.27253875006E+01 -0.85664685161E+02 -0.15300411006E+02  0.87163300751E+02  0.41800000000E+01 0. -1.
        -11    1    4    4    0    0 -0.52749258688E+01  0.67905505243E+02 -0.39052668660E+02  0.78511740617E+02  0.00000000000E+00 0.  1.
         11    1    4    4    0    0  0.64206623395E+02  0.66953809734E+01 -0.31484653761E+02  0.71823408696E+02  0.00000000000E+00 0. -1.
</event>
<event>
 8    1  0.7192024E-009  0.1993956E+03  0.7561462E-02  0.1150250E+00
          1   -1    0    0  501    0  0.00000000000E+00  0.00000000000E+00  0.98317506964E+03  0.98317506964E+03  0.00000000000E+00 0. -1.
         -1   -1    0    0    0  501 -0.00000000000E+00 -0.00000000000E+00 -0.49557943522E+02  0.49557943522E+02  0.00000000000E+00 0.  1.
         25    2    1    2    0    0 -0.18522809645E+03 -0.30270524650E+02  0.39149139664E+03  0.45181671959E+03  0.12508829715E+03 0.  0.
         23    2    1    2    0    0  0.18522809645E+03  0.30270524650E+02  0.54212572948E+03  0.58091629357E+03  0.91310904027E+02 0.  0.
          5    1    3    3  502    0  0.63724050004E+01  0.41912560046E+01 -0.50422973062E+01  0.10053424019E+02  0.41800000000E+01 0. -1.
         -5    1    3    3    0  502 -0.19160050145E+03 -0.34461780655E+02  0.39653369394E+03  0.44176329557E+03  0.41800000000E+01 0. -1.
        -11    1    4    4    0    0  0.86357354419E+02 -0.13215045783E+02  0.34765195058E+03  0.35846074937E+03  0.00000000000E+00 0. -1.
         11    1    4    4    0    0  0.98870742032E+02  0.43485570433E+02  0.19447377891E+03  0.22245554421E+03  0.00000000000E+00 0.  1.
</event>
<event>
 8    1  0.7192024E-009  0.9534641E+02  0.7561462E-02  0.1290398E+00
         -3   -1    0    0    0  501 -0.00000000000E+00  0.00000000000E+00  0.36908992856E+03  0.36908992856E+03  0.00000000000E+00 0.  1.
          3   -1    0    0  501    0  0.00000000000E+00 -0.00000000000E+00 -0.39208553361E+02  0.39208553361E+02  0.00000000000E+00 0. -1.
         25    2    1    2    0    0 -0.43262555688E+02  0.25804344919E+01  0.14291938247E+03  0.19480444753E+03  0.12507803773E+03 0.  0.
         23    2    1    2    0    0  0.43262555688E+02 -0.25804344919E+01  0.18696199273E+03  0.21349403440E+03  0.93523305285E+02 0.  0.
          5    1    3    3  502    0  0.11037866982E+02 -0.39357732173E+02  0.59008347047E+01  0.41510936385E+02  0.41800000000E+01 0.  1.
         -5    1    3    3    0  502 -0.54300422670E+02  0.41938166665E+02  0.13701854777E+03  0.15329351114E+03  0.41800000000E+01 0.  1.
        -11    1    4    4    0    0  0.48367440221E+02  0.23863466816E+02  0.17657505519E+03  0.18462834137E+03  0.00000000000E+00 0.  1.
         11    1    4    4    0    0 -0.51048845321E+01 -0.26443901308E+02  0.10386937537E+02  0.28865693026E+02  0.00000000000E+00 0. -1.
</event>
<event>
 8    1  0.7192024E-009  0.1021248E+03  0.7561462E-02  0.1275890E+00
         -1   -1    0    0    0  501 -0.00000000000E+00  0.00000000000E+00  0.62514818037E+03  0.62514818037E+03  0.00000000000E+00 0.  1.
          1   -1    0    0  501    0  0.00000000000E+00 -0.00000000000E+00 -0.27791501449E+02  0.27791501449E+02  0.00000000000E+00 0. -1.
         25    2    1    2    0    0  0.38048354314E+02  0.25936402862E+02  0.47042870388E+03  0.48894882696E+03  0.12508963062E+03 0.  0.
         23    2    1    2    0    0 -0.38048354314E+02 -0.25936402862E+02  0.12692797504E+03  0.16399085486E+03  0.93069411575E+02 0.  0.
          5    1    3    3  502    0 -0.32209126382E+02 -0.17479546268E+02  0.61257211274E+02  0.71504410305E+02  0.41800000000E+01 0.  1.
         -5    1    3    3    0  502  0.70257480696E+02  0.43415949130E+02  0.40917149261E+03  0.41744441666E+03  0.41800000000E+01 0.  1.
        -11    1    4    4    0    0 -0.32439979841E+02  0.20186171121E+02  0.12034271427E+02  0.40058176262E+02  0.00000000000E+00 0. -1.
         11    1    4    4    0    0 -0.56083744727E+01 -0.46122573983E+02  0.11489370361E+03  0.12393267860E+03  0.00000000000E+00 0.  1.
</event>
<event>
 8    1  0.7192024E-009  0.1721550E+03  0.7561462E-02  0.1175619E+00
          2   -1    0    0  501    0  0.00000000000E+00  0.00000000000E+00  0.49013070667E+03  0.49013070667E+03  0.00000000000E+00 0. -1.
         -2   -1    0    0    0  501 -0.00000000000E+00 -0.00000000000E+00 -0.70990591847E+02  0.70990591847E+02  0.00000000000E+00 0.  1.
         25    2    1    2    0    0  0.58170231050E+01  0.14546242383E+03  0.15245642894E+03  0.24511566724E+03  0.12508226532E+03 0.  0.
         23    2    1    2    0    0 -0.58170231050E+01 -0.14546242383E+03  0.26668368589E+03  0.31600563128E+03  0.86868959807E+02 0.  0.
          5    1    3    3  502    0  0.53903558385E+02  0.52159137122E+02  0.10679708142E+03  0.13057280801E+03  0.41800000000E+01 0.  1.
         -5    1    3    3    0  502 -0.48086535280E+02  0.93303286704E+02  0.45659347520E+02  0.11454285923E+03  0.41800000000E+01 0.  1.
        -11    1    4    4    0    0 -0.37305542037E+02 -0.42911424925E+02  0.13268527625E+03  0.14435538227E+03  0.00000000000E+00 0.  1.
         11    1    4    4    0    0  0.31488518932E+02 -0.10255099890E+03  0.13399840963E+03  0.17165024901E+03  0.00000000000E+00 0. -1.
</event>
<event>
 8    1  0.7192024E-009  0.9219578E+02  0.7561462E-02  0.1297620E+00
         -2   -1    0    0    0  501 -0.00000000000E+00  0.00000000000E+00  0.12230436239E+03  0.12230436239E+03  0.00000000000E+00 0.  1.
          2   -1    0    0  501    0  0.00000000000E+00 -0.00000000000E+00 -0.13008834515E+03  0.13008834515E+03  0.00000000000E+00 0. -1.
         25    2    1    2    0    0 -0.30478877095E+02 -0.15950710762E+02  0.48388339068E+02  0.13846542605E+03  0.12509138951E+03 0.  0.
         23    2    1    2    0    0  0.30478877095E+02  0.15950710762E+02 -0.56172321822E+02  0.11392728149E+03  0.92955411922E+02 0.  0.
          5    1    3    3  502    0 -0.39080576086E+02  0.39684740278E+02 -0.10563417072E+02  0.56843893413E+02  0.41800000000E+01 0. -1.
         -5    1    3    3    0  502  0.86016989909E+01 -0.55635451039E+02  0.58951756140E+02  0.81621532636E+02  0.41800000000E+01 0. -1.
        -11    1    4    4    0    0 -0.18455295172E+02 -0.45874143652E+01  0.15647869601E+02  0.24627182411E+02  0.00000000000E+00 0.  1.
         11    1    4    4    0    0  0.48934172267E+02  0.20538125127E+02 -0.71820191422E+02  0.89300099077E+02  0.00000000000E+00 0. -1.
</event>
<event>
 8    1  0.7192024E-009  0.1120752E+03  0.7561462E-02  0.1256774E+00
          1   -1    0    0  501    0  0.00000000000E+00  0.00000000000E+00  0.37832886740E+03  0.37832886740E+03  0.00000000000E+00 0. -1.
         -1   -1    0    0    0  501 -0.00000000000E+00 -0.00000000000E+00 -0.57695655022E+02  0.57695655022E+02  0.00000000000E+00 0.  1.
         25    2    1    2    0    0  0.74815237632E+01 -0.54913369705E+02  0.29775628204E+03  0.32768542692E+03  0.12508990428E+03 0.  0.
         23    2    1    2    0    0 -0.74815237632E+01  0.54913369705E+02  0.22876930342E+02  0.10833909550E+03  0.90236103099E+02 0.  0.
          5    1    3    3  502    0 -0.50975818016E+02 -0.58586648112E+02  0.15839739948E+03  0.17646001791E+03  0.41800000000E+01 0.  1.
         -5    1    3    3    0  502  0.58457341779E+02  0.36732784070E+01  0.13935888255E+03  0.15122540901E+03  0.41800000000E+01 0.  1.
        -11    1    4    4    0    0  0.22976995067E+02 -0.20436750811E+01 -0.20233310324E+02  0.30683965793E+02  0.00000000000E+00 0.  1.
         11    1    4    4    0    0 -0.30458518830E+02  0.56957044786E+02  0.43110240666E+02  0.77655129710E+02  0.00000000000E+00 0. -1.
</event>
<event>
 8    1  0.7192024E-009  0.1068302E+03  0.7561462E-02  0.1266555E+00
         -1   -1    0    0    0  501 -0.00000000000E+00  0.00000000000E+00  0.30431425334E+03  0.30431425334E+03  0.00000000000E+00 0.  1.
          1   -1    0    0  501    0  0.00000000000E+00 -0.00000000000E+00 -0.46573365334E+02  0.46573365334E+02  0.00000000000E+00 0. -1.
         25    2    1    2    0    0 -0.57107551302E+01 -0.16858025768E+02  0.89277017998E+02  0.15470391505E+03  0.12508441002E+03 0.  0.
         23    2    1    2    0    0  0.57107551302E+01  0.16858025768E+02  0.16846387001E+03  0.19618370363E+03  0.98950312352E+02 0.  0.
          5    1    3    3  502    0  0.37669143769E+02 -0.49427610691E+02  0.17614831040E+02  0.64728724408E+02  0.41800000000E+01 0.  1.
         -5    1    3    3    0  502 -0.43379898900E+02  0.32569584922E+02  0.71662186958E+02  0.89975190637E+02  0.41800000000E+01 0.  1.
        -11    1    4    4    0    0  0.30766665475E+02 -0.30542722243E+02  0.10171195395E+03  0.11056566901E+03  0.00000000000E+00 0.  1.
         11    1    4    4    0    0 -0.25055910345E+02  0.47400748011E+02  0.66751916056E+02  0.85618034621E+02  0.00000000000E+00 0. -1.
</event>
<event>
 8    1  0.7192024E-009  0.9969065E+02  0.7561462E-02  0.1280948E+00
          2   -1    0    0  501    0  0.00000000000E+00  0.00000000000E+00  0.14482679719E+03  0.14482679719E+03  0.00000000000E+00 0. -1.
         -2   -1    0    0    0  501 -0.00000000000E+00 -0.00000000000E+00 -0.84060982120E+02  0.84060982120E+02  0.00000000000E+00 0.  1.
         25    2    1    2    0    0  0.11100892270E+02  0.96679774012E+01  0.17180458142E+02  0.12713224988E+03  0.12510292252E+03 0.  0.
         23    2    1    2    0    0 -0.11100892270E+02 -0.96679774012E+01  0.43585356927E+02  0.10175552942E+03  0.90762353615E+02 0.  0.
          5    1    3    3  502    0  0.63550784135E+02  0.28442341048E+02  0.14241521062E+02  0.71189621790E+02  0.41800000000E+01 0.  1.
         -5    1    3    3    0  502 -0.52449891865E+02 -0.18774363646E+02  0.29389370800E+01  0.55942628094E+02  0.41800000000E+01 0.  1.
        -11    1    4    4    0    0 -0.19995820231E+02 -0.38613622083E+02  0.54361846934E+02  0.69613612456E+02  0.00000000000E+00 0. -1.
         11    1    4    4    0    0  0.88949279613E+01  0.28945644682E+02 -0.10776490007E+02  0.32141916968E+02  0.00000000000E+00 0.  1.
</event>
<event>
 8    1  0.7192024E-009  0.1539284E+03  0.7561462E-02  0.1195727E+00
          2   -1    0    0  501    0  0.00000000000E+00  0.00000000000E+00  0.20744127585E+03  0.20744127585E+03  0.00000000000E+00 0. -1.
         -2   -1    0    0    0  501 -0.00000000000E+00 -0.00000000000E+00 -0.13268802077E+03  0.13268802077E+03  0.00000000000E+00 0.  1.
         25    2    1    2    0    0 -0.12160323173E+03  0.26737152723E+02  0.53947348598E+02  0.18455326045E+03  0.12508944087E+03 0.  0.
         23    2    1    2    0    0  0.12160323173E+03 -0.26737152723E+02  0.20805906489E+02  0.15557603618E+03  0.90932920244E+02 0.  0.
          5    1    3    3  502    0 -0.13974886626E+03  0.31392407538E+00  0.59155043111E+02  0.15181118435E+03  0.41800000000E+01 0.  1.
         -5    1    3    3    0  502  0.18145634529E+02  0.26423228648E+02 -0.52076945134E+01  0.32742076091E+02  0.41800000000E+01 0.  1.
        -11    1    4    4    0    0  0.50047276590E+02 -0.38578863180E+02  0.46687823514E+02  0.78567241538E+02  0.00000000000E+00 0. -1.
         11    1    4    4    0    0  0.71555955142E+02  0.11841710457E+02 -0.25881917026E+02  0.77008794639E+02  0.00000000000E+00 0.  1.
</event>
<event>
 8    1  0.7192024E-009  0.1305451E+03  0.7561462E-02  0.1226649E+00
          2   -1    0    0  501    0  0.00000000000E+00  0.00000000000E+00  0.51745060359E+02  0.51745060359E+02  0.00000000000E+00 0.  1.
         -2   -1    0    0    0  501 -0.00000000000E+00 -0.00000000000E+00 -0.36311966664E+03  0.36311966664E+03  0.00000000000E+00 0. -1.
         25    2    1    2    0    0 -0.56584901896E+02  0.46062274907E+02 -0.22249147766E+03  0.26546875877E+03  0.12509044712E+03 0.  0.
         23    2    1    2    0    0  0.56584901896E+02 -0.46062274907E+02 -0.88883128618E+02  0.14939596822E+03  0.95369599328E+02 0.  0.
          5    1    3    3  502    0  0.13857460076E+02 -0.32620107131E+02 -0.83908883853E+02  0.91182639677E+02  0.41800000000E+01 0.  1.
         -5    1    3    3    0  502 -0.70442361971E+02  0.78682382038E+02 -0.13858259380E+03  0.17428611909E+03  0.41800000000E+01 0.  1.
        -11    1    4    4    0    0  0.79281114615E+02 -0.14121295286E+02 -0.54221614420E+02  0.97081870529E+02  0.00000000000E+00 0.  1.
         11    1    4    4    0    0 -0.22696212719E+02 -0.31940979621E+02 -0.34661514198E+02  0.52314097693E+02  0.00000000000E+00 0. -1.
</event>
<event>
 8    1  0.7192024E-009  0.1085682E+03  0.7561462E-02  0.1263245E+00
         -2   -1    0    0    0  501 -0.00000000000E+00  0.00000000000E+00  0.32345968264E+02  0.32345968264E+02  0.00000000000E+00 0.  1.
          2   -1    0    0  501    0  0.00000000000E+00 -0.00000000000E+00 -0.62823339661E+03  0.62823339661E+03  0.00000000000E+00 0. -1.
         25    2    1    2    0    0 -0.49345280174E+02  0.53726532685E+02 -0.45100585040E+03  0.47368263398E+03  0.12508982232E+03 0.  0.
         23    2    1    2    0    0  0.49345280174E+02 -0.53726532685E+02 -0.14488157795E+03  0.18689673089E+03  0.92834365411E+02 0.  0.
          5    1    3    3  502    0  0.30680586302E+02  0.24725062791E+01 -0.24276400173E+03  0.24474322176E+03  0.41800000000E+01 0. -1.
         -5    1    3    3    0  502 -0.80025866476E+02  0.51254026406E+02 -0.20824184867E+03  0.22893941221E+03  0.41800000000E+01 0. -1.
        -11    1    4    4    0    0  0.85598472198E+01 -0.49171155093E+02 -0.17214897571E+02  0.52796081067E+02  0.00000000000E+00 0.  1.
         11    1    4    4    0    0  0.40785432954E+02 -0.45553775918E+01 -0.12766668037E+03  0.13410064983E+03  0.00000000000E+00 0. -1.
</event>
<event>
 8    1  0.7192024E-009  0.1346588E+03  0.7561462E-02  0.1220702E+00
         -2   -1    0    0    0  501 -0.00000000000E+00  0.00000000000E+00  0.14594492323E+02  0.14594492323E+02  0.00000000000E+00 0.  1.
          2   -1    0    0  501    0  0.00000000000E+00 -0.00000000000E+00 -0.13437466322E+04  0.13437466322E+04  0.00000000000E+00 0. -1.
         25    2    1    2    0    0  0.45444994772E+02 -0.73458927503E+02 -0.80106658426E+03  0.81536246987E+03  0.12508726264E+03 0.  0.
         23    2    1    2    0    0 -0.45444994772E+02  0.73458927503E+02 -0.52808555565E+03  0.54297865468E+03  0.92141216502E+02 0.  0.
          5    1    3    3  502    0  0.15878838473E+02 -0.10529853367E+03 -0.62118392116E+03  0.63025935535E+03  0.41800000000E+01 0. -1.
         -5    1    3    3    0  502  0.29566156299E+02  0.31839606168E+02 -0.17988266310E+03  0.18510311451E+03  0.41800000000E+01 0. -1.
        -11    1    4    4    0    0 -0.54183329046E+02  0.10074718777E+02 -0.15640043393E+03  0.16582650222E+03  0.00000000000E+00 0.  1.
         11    1    4    4    0    0  0.87383342738E+01  0.63384208726E+02 -0.37168512172E+03  0.37715215247E+03  0.00000000000E+00 0. -1.
</event>
<event>
 8    1  0.7192024E-009  0.1701981E+03  0.7561462E-02  0.1177641E+00
          2   -1    0    0  501    0  0.00000000000E+00  0.00000000000E+00  0.90548628114E+03  0.90548628114E+03  0.00000000000E+00 0.  1.
         -2   -1    0    0    0  501 -0.00000000000E+00 -0.00000000000E+00 -0.35907162044E+02  0.35907162044E+02  0.00000000000E+00 0. -1.
         25    2    1    2    0    0  0.90232802589E+02  0.10370534005E+03  0.34092050274E+03  0.38829425915E+03  0.12509550864E+03 0.  0.
         23    2    1    2    0    0 -0.90232802589E+02 -0.10370534005E+03  0.52865861636E+03  0.55309918404E+03  0.86844795549E+02 0.  0.
          5    1    3    3  502    0  0.69390043095E+02  0.12797275845E+03  0.22541572367E+03  0.26836863800E+03  0.41800000000E+01 0.  1.
         -5    1    3    3    0  502  0.20842759494E+02 -0.24267418400E+02  0.11550477907E+03  0.11992562114E+03  0.41800000000E+01 0.  1.
        -11    1    4    4    0    0  0.41553286985E+01  0.12278695498E+02  0.37183309920E+02  0.39378060596E+02  0.00000000000E+00 0. -1.
         11    1    4    4    0    0 -0.94388131287E+02 -0.11598403555E+03  0.49147530644E+03  0.51372112344E+03  0.00000000000E+00 0.  1.
</event>
<event>
 8    1  0.7192024E-009  0.4179691E+03  0.7561462E-02  0.1037729E+00
          1   -1    0    0  501    0  0.00000000000E+00  0.00000000000E+00  0.87822553197E+03  0.87822553197E+03  0.00000000000E+00 0. -1.
         -1   -1    0    0    0  501 -0.00000000000E+00 -0.00000000000E+00 -0.21128487763E+03  0.21128487763E+03  0.00000000000E+00 0.  1.
         25    2    1    2    0    0  0.14078830640E+03  0.38136315850E+03  0.22087515312E+03  0.47926318686E+03  0.12509261822E+03 0.  0.
         23    2    1    2    0    0 -0.14078830640E+03 -0.38136315850E+03  0.44606550123E+03  0.61024722274E+03  0.90377185140E+02 0.  0.
          5    1    3    3  502    0 -0.12621262955E+02  0.98170635340E+00  0.15824511954E+02  0.20691727925E+02  0.41800000000E+01 0.  1.
         -5    1    3    3    0  502  0.15340956936E+03  0.38038145215E+03  0.20505064116E+03  0.45857145893E+03  0.41800000000E+01 0.  1.
        -11    1    4    4    0    0 -0.15319464476E+02 -0.13591418218E+03  0.10953279444E+03  0.17522780592E+03  0.00000000000E+00 0.  1.
         11    1    4    4    0    0 -0.12546884192E+03 -0.24544897632E+03  0.33653270679E+03  0.43501941682E+03  0.00000000000E+00 0. -1.
</event>
<event>
 8    1  0.7192024E-009  0.1887601E+03  0.7561462E-02  0.1159584E+00
         -1   -1    0    0    0  501 -0.00000000000E+00  0.00000000000E+00  0.31364498960E+02  0.31364498960E+02  0.00000000000E+00 0.  1.
          1   -1    0    0  501    0  0.00000000000E+00 -0.00000000000E+00 -0.16814427023E+04  0.16814427023E+04  0.00000000000E+00 0. -1.
         25    2    1    2    0    0  0.10472541947E+03  0.12599942392E+03 -0.12699433488E+04  0.12865639944E+04  0.12509010366E+03 0.  0.
         23    2    1    2    0    0 -0.10472541947E+03 -0.12599942392E+03 -0.38013485449E+03  0.42624320688E+03  0.10167347492E+03 0.  0.
          5    1    3    3  502    0  0.11521464930E+03  0.47395489777E+02 -0.68422071231E+03  0.69548271253E+03  0.41800000000E+01 0. -1.
         -5    1    3    3    0  502 -0.10489229830E+02  0.78603934148E+02 -0.58572263651E+03  0.59108128183E+03  0.41800000000E+01 0. -1.
        -11    1    4    4    0    0 -0.22132606464E+02 -0.70643547538E+02 -0.75269259352E+02  0.10557378690E+03  0.00000000000E+00 0.  1.
         11    1    4    4    0    0 -0.82592813003E+02 -0.55355876387E+02 -0.30486559513E+03  0.32066941997E+03  0.00000000000E+00 0. -1.
</event>
<event>
 8    1  0.7192024E-009  0.1518041E+03  0.7561462E-02  0.1198273E+00
         -2   -1    0    0    0  501 -0.00000000000E+00  0.00000000000E+00  0.94122219672E+02  0.94122219672E+02  0.00000000000E+00 0.  1.
          2   -1    0    0  501    0  0.00000000000E+00 -0.00000000000E+00 -0.33868464184E+03  0.33868464184E+03  0.00000000000E+00 0. -1.
         25    2    1    2    0    0 -0.10956646016E+03 -0.86970750818E+02 -0.97891507559E+02  0.21165770407E+03  0.12509003059E+03 0.  0.
         23    2    1    2    0    0  0.10956646016E+03  0.86970750818E+02 -0.14667091460E+03  0.22114915743E+03  0.88463958502E+02 0.  0.
          5    1    3    3  502    0 -0.20802765407E+02 -0.69790053449E+02  0.68076470107E+01  0.73261334050E+02  0.41800000000E+01 0. -1.
         -5    1    3    3    0  502 -0.88763694750E+02 -0.17180697369E+02 -0.10469915457E+03  0.13839637002E+03  0.41800000000E+01 0. -1.
        -11    1    4    4    0    0  0.31793893336E+02  0.30367607273E+02 -0.10955295089E+03  0.11804614468E+03  0.00000000000E+00 0. -1.
         11    1    4    4    0    0  0.77772566821E+02  0.56603143545E+02 -0.37117963717E+02  0.10310301276E+03  0.00000000000E+00 0.  1.
</event>
<event>
 8    1  0.7192024E-009  0.1555042E+03  0.7561462E-02  0.1193868E+00
          2   -1    0    0  501    0  0.00000000000E+00  0.00000000000E+00  0.20029307004E+04  0.20029307004E+04  0.00000000000E+00 0.  1.
         -2   -1    0    0    0  501 -0.00000000000E+00 -0.00000000000E+00 -0.29327175884E+02  0.29327175884E+02  0.00000000000E+00 0. -1.
         25    2    1    2    0    0  0.12928849165E+03  0.62059888595E+02  0.16962783416E+04  0.17069199224E+04  0.12509382678E+03 0.  0.
         23    2    1    2    0    0 -0.12928849165E+03 -0.62059888595E+02  0.27732518296E+03  0.32533795392E+03  0.91479961239E+02 0.  0.
          5    1    3    3  502    0  0.97274315221E+02  0.73680265536E+02  0.73839252065E+03  0.74841970904E+03  0.41800000000E+01 0. -1.
         -5    1    3    3    0  502  0.32014176432E+02 -0.11620376940E+02  0.95788582092E+03  0.95850021334E+03  0.41800000000E+01 0. -1.
        -11    1    4    4    0    0 -0.98961340167E+02 -0.72328997984E+02  0.26319811616E+03  0.29034131492E+03  0.00000000000E+00 0.  1.
         11    1    4    4    0    0 -0.30327151486E+02  0.10269109389E+02  0.14127066799E+02  0.34996638999E+02  0.00000000000E+00 0. -1.
</event>
<event>
 8    1  0.7192024E-009  0.1233532E+03  0.7561462E-02  0.1237666E+00
          3   -1    0    0  501    0  0.00000000000E+00  0.00000000000E+00  0.36139434067E+03  0.36139434067E+03  0.00000000000E+00 0. -1.
         -3   -1    0    0    0  501 -0.00000000000E+00 -0.00000000000E+00 -0.45822105679E+02  0.45822105679E+02  0.00000000000E+00 0.  1.
         25    2    1    2    0    0  0.35635419250E+02  0.59744425827E+02  0.16458552763E+03  0.21812034844E+03  0.12509520765E+03 0.  0.
         23    2    1    2    0    0 -0.35635419250E+02 -0.59744425827E+02  0.15098670736E+03  0.18909609791E+03  0.90116973548E+02 0.  0.
          5    1    3    3  502    0  0.29352192425E+02  0.93597281018E+02  0.79819941057E+02  0.12653338534E+03  0.41800000000E+01 0.  1.
         -5    1    3    3    0  502  0.62832268252E+01 -0.33852855191E+02  0.84765586571E+02  0.91586963104E+02  0.41800000000E+01 0.  1.
        -11    1    4    4    0    0 -0.36691873842E+02 -0.82902607199E+02  0.11980955843E+03  0.15024468768E+03  0.00000000000E+00 0.  1.
         11    1    4    4    0    0  0.10564545924E+01  0.23158181372E+02  0.31177148939E+02  0.38851410228E+02  0.00000000000E+00 0. -1.
</event>
<event>
 8    1  0.7192024E-009  0.1207135E+03  0.7561462E-02  0.1241925E+00
          4   -1    0    0  501    0  0.00000000000E+00  0.00000000000E+00  0.82782700700E+02  0.82782700700E+02  0.00000000000E+00 0. -1.
         -4   -1    0    0    0  501 -0.00000000000E+00 -0.00000000000E+00 -0.28092450756E+03  0.28092450756E+03  0.00000000000E+00 0.  1.
         25    2    1    2    0    0  0.62976327008E+02  0.52525445123E+02 -0.26484880290E+02  0.15190054985E+03  0.12508951999E+03 0.  0.
         23    2    1    2    0    0 -0.62976327008E+02 -0.52525445123E+02 -0.17165692657E+03  0.21180665842E+03  0.93118311629E+02 0.  0.
          5    1    3    3  502    0 -0.29433360578E+02  0.17274139114E+02  0.22861580993E+02  0.41289743067E+02  0.41800000000E+01 0. -1.
         -5    1    3    3    0  502  0.92409687586E+02  0.35251306009E+02 -0.49346461283E+02  0.11061080678E+03  0.41800000000E+01 0. -1.
        -11    1    4    4    0    0 -0.74365195867E+02 -0.25319894235E+02 -0.67561923258E+02  0.10361415383E+03  0.00000000000E+00 0. -1.
         11    1    4    4    0    0  0.11388868858E+02 -0.27205550888E+02 -0.10409500331E+03  0.10819250458E+03  0.00000000000E+00 0.  1.
</event>
<event>
 8    1  0.7192024E-009  0.1030275E+03  0.7561462E-02  0.1274055E+00
          1   -1    0    0  501    0  0.00000000000E+00  0.00000000000E+00  0.20678496214E+02  0.20678496214E+02  0.00000000000E+00 0. -1.
         -1   -1    0    0    0  501 -0.00000000000E+00 -0.00000000000E+00 -0.58668111652E+03  0.58668111652E+03  0.00000000000E+00 0.  1.
         25    2    1    2    0    0  0.15239856148E+01  0.15457614004E+02 -0.31518818512E+03  0.33945890952E+03  0.12508996301E+03 0.  0.
         23    2    1    2    0    0 -0.15239856148E+01 -0.15457614004E+02 -0.25081443518E+03  0.26790070322E+03  0.92852816461E+02 0.  0.
          5    1    3    3  502    0 -0.43186540963E+02  0.49364856750E+02 -0.21163822246E+03  0.22160815871E+03  0.41800000000E+01 0. -1.
         -5    1    3    3    0  502  0.44710526577E+02 -0.33907242746E+02 -0.10354996266E+03  0.11785075080E+03  0.41800000000E+01 0. -1.
        -11    1    4    4    0    0  0.22007335880E+02 -0.42716776587E+02 -0.19953800401E+03  0.20524244414E+03  0.00000000000E+00 0.  1.
         11    1    4    4    0    0 -0.23531321494E+02  0.27259162582E+02 -0.51276431173E+02  0.62658259071E+02  0.00000000000E+00 0. -1.
</event>
<event>
 8    1  0.7192024E-009  0.1070346E+03  0.7561462E-02  0.1266162E+00
          2   -1    0    0  501    0  0.00000000000E+00  0.00000000000E+00  0.19887324015E+03  0.19887324015E+03  0.00000000000E+00 0. -1.
         -2   -1    0    0    0  501 -0.00000000000E+00 -0.00000000000E+00 -0.93355271590E+02  0.93355271590E+02  0.00000000000E+00 0.  1.
         25    2    1    2    0    0  0.62808282009E+02 -0.47768456265E+02  0.81210070697E+02  0.16872881411E+03  0.12509049294E+03 0.  0.
         23    2    1    2    0    0 -0.62808282009E+02  0.47768456265E+02  0.24307897863E+02  0.12349969763E+03  0.91840055064E+02 0.  0.
          5    1    3    3  502    0  0.26134457150E+02 -0.70865486614E+02 -0.10519080843E+01  0.75653856176E+02  0.41800000000E+01 0. -1.
         -5    1    3    3    0  502  0.36673824859E+02  0.23097030350E+02  0.82261978781E+02  0.93074957931E+02  0.41800000000E+01 0. -1.
        -11    1    4    4    0    0 -0.43104373072E+00  0.30026044612E+02  0.46157836588E+02  0.55066278540E+02  0.00000000000E+00 0. -1.
         11    1    4    4    0    0 -0.62377238278E+02  0.17742411653E+02 -0.21849938726E+02  0.68433419093E+02  0.00000000000E+00 0.  1.
</event>
<event>
 8    1  0.7192024E-009  0.1180751E+03  0.7561462E-02  0.1246307E+00
         -1   -1    0    0    0  501 -0.00000000000E+00  0.00000000000E+00  0.24031876537E+03  0.24031876537E+03  0.00000000000E+00 0.  1.
          1   -1    0    0  501    0  0.00000000000E+00 -0.00000000000E+00 -0.96491796584E+02  0.96491796584E+02  0.00000000000E+00 0. -1.
         25    2    1    2    0    0 -0.97329098822E+02 -0.13974768634E+01  0.12873182497E+03  0.20419289974E+03  0.12509177081E+03 0.  0.
         23    2    1    2    0    0  0.97329098822E+02  0.13974768634E+01  0.15095143814E+02  0.13261766221E+03  0.88795689901E+02 0.  0.
          5    1    3    3  502    0  0.28116414537E+01  0.32459622289E+02  0.82388752495E+02  0.88695610627E+02  0.41800000000E+01 0. -1.
         -5    1    3    3    0  502 -0.10014074028E+03 -0.33857099153E+02  0.46343072477E+02  0.11549728911E+03  0.41800000000E+01 0. -1.
        -11    1    4    4    0    0  0.34067869582E+02 -0.22636136389E+01  0.49791615996E+02  0.60373410605E+02  0.00000000000E+00 0.  1.
         11    1    4    4    0    0  0.63261229240E+02  0.36610905022E+01 -0.34696472182E+02  0.72244251608E+02  0.00000000000E+00 0. -1.
</event>
<event>
 8    1  0.7192024E-009  0.1097658E+03  0.7561462E-02  0.1261004E+00
          1   -1    0    0  501    0  0.00000000000E+00  0.00000000000E+00  0.17791495236E+03  0.17791495236E+03  0.00000000000E+00 0. -1.
         -1   -1    0    0    0  501 -0.00000000000E+00 -0.00000000000E+00 -0.13002609370E+03  0.13002609370E+03  0.00000000000E+00 0.  1.
         25    2    1    2    0    0  0.31471693562E+02 -0.85778193045E+02 -0.29706177336E+02  0.15772804905E+03  0.12508922650E+03 0.  0.
         23    2    1    2    0    0 -0.31471693562E+02  0.85778193045E+02  0.77595036003E+02  0.15021299701E+03  0.90523968986E+02 0.  0.
          5    1    3    3  502    0 -0.27776676984E+02 -0.14204809733E+02  0.32961683398E+02  0.45577026848E+02  0.41800000000E+01 0.  1.
         -5    1    3    3    0  502  0.59248370547E+02 -0.71573383312E+02 -0.62667860734E+02  0.11215102220E+03  0.41800000000E+01 0.  1.
        -11    1    4    4    0    0  0.40122385961E+01  0.19072385153E+02 -0.19241364928E+02  0.27387662519E+02  0.00000000000E+00 0.  1.
         11    1    4    4    0    0 -0.35483932159E+02  0.66705807892E+02  0.96836400930E+02  0.12282533449E+03  0.00000000000E+00 0. -1.
</event>
<event>
 8    1  0.7192024E-009  0.1094557E+03  0.7561462E-02  0.1261581E+00
         -3   -1    0    0    0  501 -0.00000000000E+00  0.00000000000E+00  0.15771147310E+03  0.15771147310E+03  0.00000000000E+00 0.  1.
          3   -1    0    0  501    0  0.00000000000E+00 -0.00000000000E+00 -0.85480596569E+02  0.85480596569E+02  0.00000000000E+00 0. -1.
         25    2    1    2    0    0  0.31741395388E+02  0.61911953895E+00  0.68222188488E+02  0.14597972064E+03  0.12509161581E+03 0.  0.
         23    2    1    2    0    0 -0.31741395388E+02 -0.61911953895E+00  0.40086880471E+01  0.97212349030E+02  0.91794726068E+02 0.  0.
          5    1    3    3  502    0 -0.10230258870E+02 -0.52686324021E+02  0.66093064259E+01  0.54237093090E+02  0.41800000000E+01 0. -1.
         -5    1    3    3    0  502  0.41971654258E+02  0.53305443560E+02  0.61612882062E+02  0.91742627553E+02  0.41800000000E+01 0. -1.
        -11    1    4    4    0    0 -0.64244332910E+02  0.35066043223E+01  0.15930441488E+01  0.64359679727E+02  0.00000000000E+00 0.  1.
         11    1    4    4    0    0  0.32502937521E+02 -0.41257238613E+01  0.24156438983E+01  0.32852669303E+02  0.00000000000E+00 0. -1.
</event>
<event>
 8    1  0.7192024E-009  0.1901438E+03  0.7561462E-02  0.1158332E+00
          1   -1    0    0  501    0  0.00000000000E+00  0.00000000000E+00  0.13342438203E+03  0.13342438203E+03  0.00000000000E+00 0. -1.
         -1   -1    0    0    0  501 -0.00000000000E+00 -0.00000000000E+00 -0.30797076944E+03  0.30797076944E+03  0.00000000000E+00 0.  1.
         25    2    1    2    0    0 -0.15292039310E+03 -0.68791190411E+02 -0.55176182826E+02  0.21635260579E+03  0.12508862608E+03 0.  0.
         23    2    1    2    0    0  0.15292039310E+03  0.68791190411E+02 -0.11937020459E+03  0.22504254569E+03  0.90983664031E+02 0.  0.
          5    1    3    3  502    0  0.16383133452E+02 -0.31394233153E+02 -0.12016617049E+02  0.37628133388E+02  0.41800000000E+01 0.  1.
         -5    1    3    3    0  502 -0.16930352656E+03 -0.37396957257E+02 -0.43159565777E+02  0.17872447240E+03  0.41800000000E+01 0.  1.
        -11    1    4    4    0    0  0.51711571598E+02  0.59234549207E+01  0.56332643011E+01  0.52353678209E+02  0.00000000000E+00 0. -1.
         11    1    4    4    0    0  0.10120882151E+03  0.62867735490E+02 -0.12500346889E+03  0.17268886748E+03  0.00000000000E+00 0.  1.
</event>
<event>
 8    1  0.7192024E-009  0.1451741E+03  0.7561462E-02  0.1206532E+00
          2   -1    0    0  501    0  0.00000000000E+00  0.00000000000E+00  0.20620180029E+03  0.20620180029E+03  0.00000000000E+00 0. -1.
         -2   -1    0    0    0  501 -0.00000000000E+00 -0.00000000000E+00 -0.12775477225E+03  0.12775477225E+03  0.00000000000E+00 0.  1.
         25    2    1    2    0    0  0.11564805677E+03 -0.29329223909E+02  0.52525832877E+02  0.18066741149E+03  0.12508826501E+03 0.  0.
         23    2    1    2    0    0 -0.11564805677E+03  0.29329223909E+02  0.25921195166E+02  0.15328916106E+03  0.92687551100E+02 0.  0.
          5    1    3    3  502    0 -0.79162372891E+01  0.92850957557E+01 -0.26123469518E+02  0.29133964298E+02  0.41800000000E+01 0. -1.
         -5    1    3    3    0  502  0.12356429406E+03 -0.38614319664E+02  0.78649302396E+02  0.15153344719E+03  0.41800000000E+01 0. -1.
        -11    1    4    4    0    0 -0.93360583355E+02  0.59281174264E+02  0.32742987491E+02  0.11533672172E+03  0.00000000000E+00 0.  1.
         11    1    4    4    0    0 -0.22287473416E+02 -0.29951950356E+02 -0.68217923252E+01  0.37952439341E+02  0.00000000000E+00 0. -1.
</event>
<event>
 8    1  0.7192024E-009  0.1150302E+03  0.7561462E-02  0.1251528E+00
         -2   -1    0    0    0  501 -0.00000000000E+00  0.00000000000E+00  0.20762452707E+02  0.20762452707E+02  0.00000000000E+00 0. -1.
          2   -1    0    0  501    0  0.00000000000E+00 -0.00000000000E+00 -0.72271438746E+03  0.72271438746E+03  0.00000000000E+00 0.  1.
         25    2    1    2    0    0 -0.50297776813E+01  0.44603649014E+02 -0.50899885163E+03  0.52606606128E+03  0.12510349997E+03 0.  0.
         23    2    1    2    0    0  0.50297776813E+01 -0.44603649014E+02 -0.19295308312E+03  0.21741077889E+03  0.89564336204E+02 0.  0.
          5    1    3    3  502    0  0.25711462123E+02 -0.37031721184E+02 -0.19104204637E+03  0.19633380641E+03  0.41800000000E+01 0. -1.
         -5    1    3    3    0  502 -0.30741239804E+02  0.81635370198E+02 -0.31795680526E+03  0.32973225487E+03  0.41800000000E+01 0. -1.
        -11    1    4    4    0    0 -0.18255158225E+02 -0.64370632138E+02 -0.10705851555E+03  0.12624719733E+03  0.00000000000E+00 0.  1.
         11    1    4    4    0    0  0.23284935906E+02  0.19766983124E+02 -0.85894567579E+02  0.91163581553E+02  0.00000000000E+00 0. -1.
</event>
<event>
 8    1  0.7192024E-009  0.1210851E+03  0.7561462E-02  0.1241318E+00
          3   -1    0    0  501    0  0.00000000000E+00  0.00000000000E+00  0.30774477975E+02  0.30774477975E+02  0.00000000000E+00 0. -1.
         -3   -1    0    0    0  501 -0.00000000000E+00 -0.00000000000E+00 -0.65745466913E+03  0.65745466913E+03  0.00000000000E+00 0.  1.
         25    2    1    2    0    0 -0.85204696038E+02  0.25059265441E+02 -0.39405289007E+03  0.42286311341E+03  0.12509086897E+03 0.  0.
         23    2    1    2    0    0  0.85204696038E+02 -0.25059265441E+02 -0.23262730109E+03  0.26536603370E+03  0.91738016207E+02 0.  0.
          5    1    3    3  502    0 -0.34258866115E+01 -0.25456379593E+02 -0.11597175178E+02  0.28490890354E+02  0.41800000000E+01 0.  1.
         -5    1    3    3    0  502 -0.81778809427E+02  0.50515645034E+02 -0.38245571489E+03  0.39437222306E+03  0.41800000000E+01 0.  1.
        -11    1    4    4    0    0  0.94475129605E+02 -0.39802339131E+02 -0.22307225223E+03  0.24550153977E+03  0.00000000000E+00 0.  1.
         11    1    4    4    0    0 -0.92704335665E+01  0.14743073690E+02 -0.95550488579E+01  0.19864493928E+02  0.00000000000E+00 0. -1.
</event>
<event>
 8    1  0.7192024E-009  0.1779334E+03  0.7561462E-02  0.1169818E+00
          1   -1    0    0  501    0  0.00000000000E+00  0.00000000000E+00  0.22765724843E+03  0.22765724843E+03  0.00000000000E+00 0. -1.
         -1   -1    0    0    0  501 -0.00000000000E+00 -0.00000000000E+00 -0.18647513525E+03  0.18647513525E+03  0.00000000000E+00 0.  1.
         25    2    1    2    0    0 -0.98418678257E+02 -0.13917412282E+03 -0.16559879772E+02  0.21207653338E+03  0.12508618509E+03 0.  0.
         23    2    1    2    0    0  0.98418678257E+02  0.13917412282E+03  0.57741992952E+02  0.20205585031E+03  0.91851816533E+02 0.  0.
          5    1    3    3  502    0 -0.45857125443E+02 -0.39188154193E+02 -0.65285710867E+02  0.88984739289E+02  0.41800000000E+01 0.  1.
         -5    1    3    3    0  502 -0.52561552814E+02 -0.99985968626E+02  0.48725831094E+02  0.12309179409E+03  0.41800000000E+01 0.  1.
        -11    1    4    4    0    0 -0.56304876151E+01  0.33840241989E+02  0.40375991046E+02  0.52981931086E+02  0.00000000000E+00 0. -1.
         11    1    4    4    0    0  0.10404916587E+03  0.10533388083E+03  0.17366001906E+02  0.14907391922E+03  0.00000000000E+00 0.  1.
</event>
<event>
 8    1  0.7192024E-009  0.1125087E+03  0.7561462E-02  0.1255994E+00
         -1   -1    0    0    0  501 -0.00000000000E+00  0.00000000000E+00  0.55754147553E+03  0.55754147553E+03  0.00000000000E+00 0.  1.
          1   -1    0    0  501    0  0.00000000000E+00 -0.00000000000E+00 -0.29456035271E+02  0.29456035271E+02  0.00000000000E+00 0. -1.
         25    2    1    2    0    0 -0.28818215891E+02 -0.38120300973E+02  0.18306640313E+03  0.22681206749E+03  0.12508700608E+03 0.  0.
         23    2    1    2    0    0  0.28818215891E+02  0.38120300973E+02  0.34501903712E+03  0.36018544331E+03  0.91715705740E+02 0.  0.
          5    1    3    3  502    0  0.29483721401E+02 -0.55453453464E+02  0.49798277251E+02  0.80260302429E+02  0.41800000000E+01 0. -1.
         -5    1    3    3    0  502 -0.58301937292E+02  0.17333152491E+02  0.13326812588E+03  0.14655176506E+03  0.41800000000E+01 0. -1.
        -11    1    4    4    0    0  0.48135864907E+02  0.56649872303E+02  0.28371042314E+03  0.29328803883E+03  0.00000000000E+00 0.  1.
         11    1    4    4    0    0 -0.19317649017E+02 -0.18529571330E+02  0.61308613981E+02  0.66897404475E+02  0.00000000000E+00 0. -1.
</event>
<event>
 8    1  0.7192024E-009  0.9512839E+02  0.7561462E-02  0.1290887E+00
          2   -1    0    0  501    0  0.00000000000E+00  0.00000000000E+00  0.29458562450E+03  0.29458562450E+03  0.00000000000E+00 0. -1.
         -2   -1    0    0    0  501 -0.00000000000E+00 -0.00000000000E+00 -0.61733395384E+02  0.61733395384E+02  0.00000000000E+00 0.  1.
         25    2    1    2    0    0 -0.36350099856E+01  0.41817259695E+02  0.36216925535E+02  0.13682313172E+03  0.12508799772E+03 0.  0.
         23    2    1    2    0    0  0.36350099856E+01 -0.41817259695E+02  0.19663530358E+03  0.21949588816E+03  0.88040364609E+02 0.  0.
          5    1    3    3  502    0 -0.35141419224E+02  0.69943497620E+02 -0.38174222072E+01  0.78479661802E+02  0.41800000000E+01 0. -1.
         -5    1    3    3    0  502  0.31506409238E+02 -0.28126237925E+02  0.40034347742E+02  0.58343469917E+02  0.41800000000E+01 0. -1.
        -11    1    4    4    0    0  0.29179042798E+02 -0.27751799467E+02  0.29709841265E+02  0.50042517725E+02  0.00000000000E+00 0.  1.
         11    1    4    4    0    0 -0.25544032812E+02 -0.14065460227E+02  0.16692546231E+03  0.16945337044E+03  0.00000000000E+00 0. -1.
</event>
<event>
 8    1  0.7192024E-009  0.1457044E+03  0.7561462E-02  0.1205853E+00
          2   -1    0    0  501    0  0.00000000000E+00  0.00000000000E+00  0.49917540486E+03  0.49917540486E+03  0.00000000000E+00 0. -1.
         -2   -1    0    0    0  501 -0.00000000000E+00 -0.00000000000E+00 -0.54145853203E+02  0.54145853203E+02  0.00000000000E+00 0.  1.
         25    2    1    2    0    0  0.54080021103E+02 -0.10404475648E+03  0.30232427514E+03  0.34755922222E+03  0.12508990998E+03 0.  0.
         23    2    1    2    0    0 -0.54080021103E+02  0.10404475648E+03  0.14270527651E+03  0.20576203584E+03  0.90682189069E+02 0.  0.
          5    1    3    3  502    0  0.78695058610E+02 -0.67236972705E+02  0.11392372004E+03  0.15397989848E+03  0.41800000000E+01 0.  1.
         -5    1    3    3    0  502 -0.24615037507E+02 -0.36807783775E+02  0.18840055510E+03  0.19357932374E+03  0.41800000000E+01 0.  1.
        -11    1    4    4    0    0 -0.12587055567E+02 -0.13637014658E+02  0.36243097935E+01  0.18908668861E+02  0.00000000000E+00 0.  1.
         11    1    4    4    0    0 -0.41492965536E+02  0.11768177114E+03  0.13908096672E+03  0.18685336698E+03  0.00000000000E+00 0. -1.
</event>
<event>
 8    1  0.7192024E-009  0.1730758E+03  0.7561462E-02  0.1174678E+00
         -2   -1    0    0    0  501 -0.00000000000E+00  0.00000000000E+00  0.23981132820E+03  0.23981132820E+03  0.00000000000E+00 0.  1.
          2   -1    0    0  501    0  0.00000000000E+00 -0.00000000000E+00 -0.15857870992E+03  0.15857870992E+03  0.00000000000E+00 0. -1.
         25    2    1    2    0    0  0.11272372986E+03 -0.10697529154E+03 -0.28172212675E+01  0.19951177901E+03  0.12508661380E+03 0.  0.
         23    2    1    2    0    0 -0.11272372986E+03  0.10697529154E+03  0.84049839555E+02  0.19887825911E+03  0.91311741556E+02 0.  0.
          5    1    3    3  502    0  0.26877459653E+01  0.89169064389E+01  0.33969468184E+02  0.35470161650E+02  0.41800000000E+01 0.  1.
         -5    1    3    3    0  502  0.11003598389E+03 -0.11589219798E+03 -0.36786689451E+02  0.16404161736E+03  0.41800000000E+01 0.  1.
        -11    1    4    4    0    0 -0.41242153493E+02 -0.67146499799E+01  0.27137103060E+01  0.41873213069E+02  0.00000000000E+00 0. -1.
         11    1    4    4    0    0 -0.71481576365E+02  0.11368994152E+03  0.81336129249E+02  0.15700504605E+03  0.00000000000E+00 0.  1.
</event>
<event>
 8    1  0.7192024E-009  0.1182174E+03  0.7561462E-02  0.1246067E+00
         -2   -1    0    0    0  501 -0.00000000000E+00  0.00000000000E+00  0.25908715956E+03  0.25908715956E+03  0.00000000000E+00 0.  1.
          2   -1    0    0  501    0  0.00000000000E+00 -0.00000000000E+00 -0.55943750690E+02  0.55943750690E+02  0.00000000000E+00 0. -1.
         25    2    1    2    0    0 -0.39889970032E+02 -0.33896913783E+02  0.10562829076E+03  0.17188709395E+03  0.12509047440E+03 0.  0.
         23    2    1    2    0    0  0.39889970032E+02  0.33896913783E+02  0.97515118116E+02  0.14314381630E+03  0.90778540479E+02 0.  0.
          5    1    3    3  502    0 -0.56293847605E+02  0.33666514472E+02  0.46352253242E+02  0.80426583015E+02  0.41800000000E+01 0. -1.
         -5    1    3    3    0  502  0.16403877573E+02 -0.67563428255E+02  0.59276037516E+02  0.91460510935E+02  0.41800000000E+01 0. -1.
        -11    1    4    4    0    0  0.47142588428E+02  0.58658875066E+02  0.87639847596E+02  0.11551636315E+03  0.00000000000E+00 0.  1.
         11    1    4    4    0    0 -0.72526183960E+01 -0.24761961282E+02  0.98752705206E+01  0.27627453158E+02  0.00000000000E+00 0. -1.
</event>
<event>
 8    1  0.7192024E-009  0.1259260E+03  0.7561462E-02  0.1233629E+00
          1   -1    0    0  501    0  0.00000000000E+00  0.00000000000E+00  0.35530994413E+03  0.35530994413E+03  0.00000000000E+00 0. -1.
         -1   -1    0    0    0  501 -0.00000000000E+00 -0.00000000000E+00 -0.63798043740E+02  0.63798043740E+02  0.00000000000E+00 0.  1.
         25    2    1    2    0    0 -0.32986353609E+02 -0.95098450328E+02  0.12731640171E+03  0.20490569619E+03  0.12508022789E+03 0.  0.
         23    2    1    2    0    0  0.32986353609E+02  0.95098450328E+02  0.16419549868E+03  0.21420229168E+03  0.93758440647E+02 0.  0.
          5    1    3    3  502    0  0.19189229554E+02 -0.55387397985E+02 -0.31279271153E+01  0.58849356109E+02  0.41800000000E+01 0.  1.
         -5    1    3    3    0  502 -0.52175583163E+02 -0.39711052344E+02  0.13044432882E+03  0.14605634008E+03  0.41800000000E+01 0.  1.
        -11    1    4    4    0    0  0.49492649450E+02  0.98768013642E+02  0.10417562438E+03  0.15184598639E+03  0.00000000000E+00 0.  1.
         11    1    4    4    0    0 -0.16506295841E+02 -0.36695633134E+01  0.60019874307E+02  0.62356305288E+02  0.00000000000E+00 0. -1.
</event>
<event>
 8    1  0.7192024E-009  0.1917545E+03  0.7561462E-02  0.1156888E+00
         -1   -1    0    0    0  501 -0.00000000000E+00  0.00000000000E+00  0.26064763621E+03  0.26064763621E+03  0.00000000000E+00 0.  1.
          1   -1    0    0  501    0  0.00000000000E+00 -0.00000000000E+00 -0.16985781513E+03  0.16985781513E+03  0.00000000000E+00 0. -1.
         25    2    1    2    0    0  0.77573278800E+01  0.17131144842E+03 -0.85151973879E+01  0.21243262342E+03  0.12508925777E+03 0.  0.
         23    2    1    2    0    0 -0.77573278800E+01 -0.17131144842E+03  0.99305018473E+02  0.21807282792E+03  0.91030121867E+02 0.  0.
          5    1    3    3  502    0 -0.36369813156E+02  0.82161128388E+02 -0.51879711677E+02  0.10383733053E+03  0.41800000000E+01 0. -1.
         -5    1    3    3    0  502  0.44127141036E+02  0.89150320035E+02  0.43364514289E+02  0.10859529289E+03  0.41800000000E+01 0. -1.
        -11    1    4    4    0    0  0.41426812230E+02 -0.69025909087E+02  0.36988876958E+02  0.88594209266E+02  0.00000000000E+00 0.  1.
         11    1    4    4    0    0 -0.49184140110E+02 -0.10228553934E+03  0.62316141515E+02  0.12947861866E+03  0.00000000000E+00 0. -1.
</event>
<event>
 8    1  0.7192024E-009  0.1348866E+03  0.7561462E-02  0.1220380E+00
          2   -1    0    0  501    0  0.00000000000E+00  0.00000000000E+00  0.92400445451E+03  0.92400445451E+03  0.00000000000E+00 0. -1.
         -2   -1    0    0    0  501 -0.00000000000E+00 -0.00000000000E+00 -0.22108017233E+02  0.22108017233E+02  0.00000000000E+00 0.  1.
         25    2    1    2    0    0  0.18155062902E+01  0.79890152098E+02  0.64085536991E+03  0.65782154769E+03  0.12509137056E+03 0.  0.
         23    2    1    2    0    0 -0.18155062902E+01 -0.79890152098E+02  0.26104106736E+03  0.28829092406E+03  0.92647102372E+02 0.  0.
          5    1    3    3  502    0  0.57559738167E+02  0.70749813260E+02  0.42100657954E+03  0.43079307324E+03  0.41800000000E+01 0.  1.
         -5    1    3    3    0  502 -0.55744231877E+02  0.91403388376E+01  0.21984879037E+03  0.22702847445E+03  0.41800000000E+01 0.  1.
        -11    1    4    4    0    0 -0.34832071589E+02 -0.81644819431E+02  0.20152087952E+03  0.22020402956E+03  0.00000000000E+00 0. -1.
         11    1    4    4    0    0  0.33016565299E+02  0.17546673331E+01  0.59520187844E+02  0.68086894499E+02  0.00000000000E+00 0.  1.
</event>
<event>
 8    1  0.7192024E-009  0.1749202E+03  0.7561462E-02  0.1172812E+00
          1   -1    0    0  501    0  0.00000000000E+00  0.00000000000E+00  0.85793184735E+03  0.85793184735E+03  0.00000000000E+00 0. -1.
         -1   -1    0    0    0  501 -0.00000000000E+00 -0.00000000000E+00 -0.47333047987E+02  0.47333047987E+02  0.00000000000E+00 0.  1.
         25    2    1    2    0    0  0.16695125148E+03 -0.20275025848E+02  0.46324913449E+03  0.50845896967E+03  0.12508783391E+03 0.  0.
         23    2    1    2    0    0 -0.16695125148E+03  0.20275025848E+02  0.34734966487E+03  0.39680592566E+03  0.92300357034E+02 0.  0.
          5    1    3    3  502    0  0.91448331554E+02  0.22683868711E+02  0.11111547665E+03  0.14574456009E+03  0.41800000000E+01 0. -1.
         -5    1    3    3    0  502  0.75502919926E+02 -0.42958894560E+02  0.35213365784E+03  0.36271440958E+03  0.41800000000E+01 0. -1.
        -11    1    4    4    0    0 -0.25758524368E+02  0.72898826090E+01  0.63647145682E+01  0.27516423416E+02  0.00000000000E+00 0.  1.
         11    1    4    4    0    0 -0.14119272711E+03  0.12985143239E+02  0.34098495031E+03  0.36928950225E+03  0.00000000000E+00 0. -1.
</event>
<event>
 8    1  0.7192024E-009  0.1143006E+03  0.7561462E-02  0.1252807E+00
          1   -1    0    0  501    0  0.00000000000E+00  0.00000000000E+00  0.11210561337E+03  0.11210561337E+03  0.00000000000E+00 0. -1.
         -1   -1    0    0    0  501 -0.00000000000E+00 -0.00000000000E+00 -0.12173447871E+03  0.12173447871E+03  0.00000000000E+00 0.  1.
         25    2    1    2    0    0  0.66996119354E+01  0.37824442668E+02 -0.16103417685E+02  0.13184316073E+03  0.12509086980E+03 0.  0.
         23    2    1    2    0    0 -0.66996119354E+01 -0.37824442668E+02  0.64745523503E+01  0.10199693135E+03  0.94264950607E+02 0.  0.
          5    1    3    3  502    0 -0.35031915225E+02 -0.31198418592E+02  0.75210328161E+01  0.47692921294E+02  0.41800000000E+01 0.  1.
         -5    1    3    3    0  502  0.41731527160E+02  0.69022861260E+02 -0.23624450501E+02  0.84150239436E+02  0.41800000000E+01 0.  1.
        -11    1    4    4    0    0 -0.42101692953E+02  0.79768424891E+01 -0.44693438141E+01  0.43083147514E+02  0.00000000000E+00 0. -1.
         11    1    4    4    0    0  0.35402081017E+02 -0.45801285157E+02  0.10943896164E+02  0.58913783834E+02  0.00000000000E+00 0.  1.
</event>
<event>
 8    1  0.7192024E-009  0.8496991E+02  0.7561462E-02  0.1315511E+00
         -2   -1    0    0    0  501 -0.00000000000E+00  0.00000000000E+00  0.12341276170E+03  0.12341276170E+03  0.00000000000E+00 0.  1.
          2   -1    0    0  501    0  0.00000000000E+00 -0.00000000000E+00 -0.10921755997E+03  0.10921755997E+03  0.00000000000E+00 0. -1.
         25    2    1    2    0    0  0.20839210243E+02 -0.63837243041E+01  0.44620059738E+02  0.13459186042E+03  0.12509594134E+03 0.  0.
         23    2    1    2    0    0 -0.20839210243E+02  0.63837243041E+01 -0.30424858011E+02  0.98038461253E+02  0.90613703602E+02 0.  0.
          5    1    3    3  502    0 -0.26667183286E+02 -0.53398716334E+02  0.24622652611E+02  0.64701692344E+02  0.41800000000E+01 0.  1.
         -5    1    3    3    0  502  0.47506393529E+02  0.47014992030E+02  0.19997407128E+02  0.69890168075E+02  0.41800000000E+01 0.  1.
        -11    1    4    4    0    0 -0.29116227650E+02 -0.45029728146E+01  0.26418984852E+02  0.39572645064E+02  0.00000000000E+00 0.  1.
         11    1    4    4    0    0  0.82770174071E+01  0.10886697119E+02 -0.56843842863E+02  0.58465816189E+02  0.00000000000E+00 0. -1.
</event>
<event>
 8    1  0.7192024E-009  0.1093609E+03  0.7561462E-02  0.1261758E+00
         -2   -1    0    0    0  501 -0.00000000000E+00  0.00000000000E+00  0.13170018590E+03  0.13170018590E+03  0.00000000000E+00 0.  1.
          2   -1    0    0  501    0  0.00000000000E+00 -0.00000000000E+00 -0.16094831108E+03  0.16094831108E+03  0.00000000000E+00 0. -1.
         25    2    1    2    0    0  0.82501361389E+02 -0.15813842642E+02 -0.66827928742E+02  0.16483269606E+03  0.12508914174E+03 0.  0.
         23    2    1    2    0    0 -0.82501361389E+02  0.15813842642E+02  0.37579803556E+02  0.12781580092E+03  0.88702227021E+02 0.  0.
          5    1    3    3  502    0  0.37622537461E+00  0.29523716909E+02  0.20829751492E+02  0.36375023751E+02  0.41800000000E+01 0.  1.
         -5    1    3    3    0  502  0.82125136014E+02 -0.45337559552E+02 -0.87657680234E+02  0.12845767231E+03  0.41800000000E+01 0.  1.
        -11    1    4    4    0    0 -0.47627057925E+02 -0.13432719036E+02 -0.20894685082E+02  0.53715569921E+02  0.00000000000E+00 0. -1.
         11    1    4    4    0    0 -0.34874303463E+02  0.29246561678E+02  0.58474488638E+02  0.74100230995E+02  0.00000000000E+00 0.  1.
</event>
<event>
 8    1  0.7192024E-009  0.1769334E+03  0.7561462E-02  0.1170804E+00
          3   -1    0    0  501    0  0.00000000000E+00  0.00000000000E+00  0.93973851806E+02  0.93973851806E+02  0.00000000000E+00 0. -1.
         -3   -1    0    0    0  501 -0.00000000000E+00 -0.00000000000E+00 -0.38433955642E+03  0.38433955642E+03  0.00000000000E+00 0.  1.
         25    2    1    2    0    0 -0.14863897838E+03  0.36365832379E+02 -0.12497003688E+03  0.23383888304E+03  0.12508834257E+03 0.  0.
         23    2    1    2    0    0  0.14863897838E+03 -0.36365832379E+02 -0.16539566774E+03  0.24447452519E+03  0.94847492853E+02 0.  0.
          5    1    3    3  502    0 -0.14676969688E+03 -0.38135602244E+01 -0.62951357538E+02  0.15980060382E+03  0.41800000000E+01 0. -1.
         -5    1    3    3    0  502 -0.18692814982E+01  0.40179392604E+02 -0.62018679343E+02  0.74038279226E+02  0.41800000000E+01 0. -1.
        -11    1    4    4    0    0  0.64641910816E+02 -0.49648197573E+02 -0.12760474054E+03  0.15141495952E+03  0.00000000000E+00 0.  1.
         11    1    4    4    0    0  0.83997067564E+02  0.13282365193E+02 -0.37790927193E+02  0.93059565670E+02  0.00000000000E+00 0. -1.
</event>
<event>
 8    1  0.7192024E-009  0.1013102E+03  0.7561462E-02  0.1277565E+00
         -1   -1    0    0    0  501 -0.00000000000E+00  0.00000000000E+00  0.58502593978E+03  0.58502593978E+03  0.00000000000E+00 0.  1.
          1   -1    0    0  501    0  0.00000000000E+00 -0.00000000000E+00 -0.20862976631E+02  0.20862976631E+02  0.00000000000E+00 0. -1.
         25    2    1    2    0    0 -0.46324240132E+01  0.49836498031E+01  0.29664094054E+03  0.32200684766E+03  0.12508503594E+03 0.  0.
         23    2    1    2    0    0  0.46324240132E+01 -0.49836498031E+01  0.26752202260E+03  0.28388206875E+03  0.94734894636E+02 0.  0.
          5    1    3    3  502    0 -0.37616767844E+02  0.54012192316E+02  0.16193961701E+03  0.17485494016E+03  0.41800000000E+01 0. -1.
         -5    1    3    3    0  502  0.32984343830E+02 -0.49028542513E+02  0.13470132353E+03  0.14715190750E+03  0.41800000000E+01 0. -1.
        -11    1    4    4    0    0  0.40855028123E+02 -0.53519857830E+01  0.57385448894E+02  0.70646067262E+02  0.00000000000E+00 0. -1.
         11    1    4    4    0    0 -0.36222604110E+02  0.36833597986E+00  0.21013657371E+03  0.21323600149E+03  0.00000000000E+00 0.  1.
</event>
<event>
 8    1  0.7192024E-009  0.1005568E+03  0.7561462E-02  0.1279129E+00
          1   -1    0    0  501    0  0.00000000000E+00  0.00000000000E+00  0.86196842669E+03  0.86196842669E+03  0.00000000000E+00 0. -1.
         -1   -1    0    0    0  501 -0.00000000000E+00 -0.00000000000E+00 -0.15006329574E+02  0.15006329574E+02  0.00000000000E+00 0.  1.
         25    2    1    2    0    0  0.17450509245E+02 -0.22955975608E+02  0.43253957230E+03  0.45118748364E+03  0.12509263248E+03 0.  0.
         23    2    1    2    0    0 -0.17450509245E+02  0.22955975608E+02  0.41442252482E+03  0.42578727262E+03  0.93366350269E+02 0.  0.
          5    1    3    3  502    0 -0.42180867144E+02 -0.53506672623E+01  0.31743086647E+03  0.32029311978E+03  0.41800000000E+01 0.  1.
         -5    1    3    3    0  502  0.59631376389E+02 -0.17605308345E+02  0.11510870583E+03  0.13089436386E+03  0.41800000000E+01 0.  1.
        -11    1    4    4    0    0 -0.54088808849E+02  0.25797806689E+01  0.19411714427E+03  0.20152846005E+03  0.00000000000E+00 0. -1.
         11    1    4    4    0    0  0.36638299603E+02  0.20376194939E+02  0.22030538055E+03  0.22425881258E+03  0.00000000000E+00 0.  1.
</event>
<event>
 8    1  0.7192024E-009  0.8764173E+02  0.7561462E-02  0.1308665E+00
         -3   -1    0    0    0  501 -0.00000000000E+00  0.00000000000E+00  0.33034676400E+02  0.33034676400E+02  0.00000000000E+00 0.  1.
          3   -1    0    0  501    0  0.00000000000E+00 -0.00000000000E+00 -0.40366589348E+03  0.40366589348E+03  0.00000000000E+00 0. -1.
         25    2    1    2    0    0  0.18469619075E+02  0.32210055951E+02 -0.19136391105E+03  0.23161564678E+03  0.12508815630E+03 0.  0.
         23    2    1    2    0    0 -0.18469619075E+02 -0.32210055951E+02 -0.17926730603E+03  0.20508492310E+03  0.92436162510E+02 0.  0.
          5    1    3    3  502    0  0.47181866577E+02  0.16579280885E+02 -0.15258393895E+02  0.52452760391E+02  0.41800000000E+01 0. -1.
         -5    1    3    3    0  502 -0.28712247502E+02  0.15630775066E+02 -0.17610551716E+03  0.17916288639E+03  0.41800000000E+01 0. -1.
        -11    1    4    4    0    0  0.11133296663E+02 -0.54157719847E+02 -0.66686521641E+02  0.86626214752E+02  0.00000000000E+00 0.  1.
         11    1    4    4    0    0 -0.29602915737E+02  0.21947663896E+02 -0.11258078438E+03  0.11845870835E+03  0.00000000000E+00 0. -1.
</event>
<event>
 8    1  0.7192024E-009  0.1005533E+03  0.7561462E-02  0.1279137E+00
         -2   -1    0    0    0  501 -0.00000000000E+00  0.00000000000E+00  0.61463212372E+03  0.61463212372E+03  0.00000000000E+00 0.  1.
          2   -1    0    0  501    0  0.00000000000E+00 -0.00000000000E+00 -0.26652691367E+02  0.26652691367E+02  0.00000000000E+00 0. -1.
         25    2    1    2    0    0  0.10073466244E+02 -0.26926687187E+02  0.48390567910E+03  0.50063922723E+03  0.12509359844E+03 0.  0.
         23    2    1    2    0    0 -0.10073466244E+02  0.26926687187E+02  0.10407375325E+03  0.14064558786E+03  0.90129429502E+02 0.  0.
          5    1    3    3  502    0 -0.57396215738E+02 -0.94489257041E+01  0.23469532369E+03  0.24183253532E+03  0.41800000000E+01 0. -1.
         -5    1    3    3    0  502  0.67469681983E+02 -0.17477761483E+02  0.24921035541E+03  0.25880669191E+03  0.41800000000E+01 0. -1.
        -11    1    4    4    0    0  0.15865672475E+02  0.40638436582E+02  0.13850588812E+02  0.45771616766E+02  0.00000000000E+00 0. -1.
         11    1    4    4    0    0 -0.25939138719E+02 -0.13711749394E+02  0.90223164439E+02  0.94873971090E+02  0.00000000000E+00 0.  1.
</event>
<event>
 8    1  0.7192024E-009  0.9205374E+02  0.7561462E-02  0.1297953E+00
          4   -1    0    0  501    0  0.00000000000E+00  0.00000000000E+00  0.84119149061E+02  0.84119149061E+02  0.00000000000E+00 0. -1.
         -4   -1    0    0    0  501 -0.00000000000E+00 -0.00000000000E+00 -0.16059416675E+03  0.16059416675E+03  0.00000000000E+00 0.  1.
         25    2    1    2    0    0 -0.35248570089E+02 -0.17169274382E+02 -0.62047840046E+02  0.14503249276E+03  0.12508894366E+03 0.  0.
         23    2    1    2    0    0  0.35248570089E+02  0.17169274382E+02 -0.14427177644E+02  0.99680823055E+02  0.90503465978E+02 0.  0.
          5    1    3    3  502    0  0.19690321408E+02 -0.35943344270E+02 -0.74845425681E+02  0.85433851018E+02  0.41800000000E+01 0.  1.
         -5    1    3    3    0  502 -0.54938891497E+02  0.18774069888E+02  0.12797585635E+02  0.59598641739E+02  0.41800000000E+01 0.  1.
        -11    1    4    4    0    0  0.39223849852E+02 -0.22242452963E+02 -0.33053286312E+02  0.55908468473E+02  0.00000000000E+00 0.  1.
         11    1    4    4    0    0 -0.39752797629E+01  0.39411727345E+02  0.18626108668E+02  0.43772354581E+02  0.00000000000E+00 0. -1.
</event>
<event>
 8    1  0.7192024E-009  0.1302120E+03  0.7561462E-02  0.1227141E+00
         -1   -1    0    0    0  501 -0.00000000000E+00  0.00000000000E+00  0.16254038041E+03  0.16254038041E+03  0.00000000000E+00 0.  1.
          1   -1    0    0  501    0  0.00000000000E+00 -0.00000000000E+00 -0.13330378767E+03  0.13330378767E+03  0.00000000000E+00 0. -1.
         25    2    1    2    0    0 -0.64166973188E+02  0.71749894966E+02 -0.82299304594E+01  0.15805401193E+03  0.12509153071E+03 0.  0.
         23    2    1    2    0    0  0.64166973188E+02 -0.71749894966E+02  0.37466523197E+02  0.13779015615E+03  0.91197252673E+02 0.  0.
          5    1    3    3  502    0 -0.83080678171E+02  0.11703214751E+02 -0.33024623677E+02  0.90263295364E+02  0.41800000000E+01 0.  1.
         -5    1    3    3    0  502  0.18913704984E+02  0.60046680215E+02  0.24794693217E+02  0.67790716568E+02  0.41800000000E+01 0.  1.
        -11    1    4    4    0    0  0.49831702154E+01 -0.50036832858E+02 -0.18411689411E+02  0.53549107694E+02  0.00000000000E+00 0.  1.
         11    1    4    4    0    0  0.59183802972E+02 -0.21713062108E+02  0.55878212608E+02  0.84241048454E+02  0.00000000000E+00 0. -1.
</event>
<event>
 8    1  0.7192024E-009  0.1034725E+03  0.7561462E-02  0.1273159E+00
         -1   -1    0    0    0  501 -0.00000000000E+00  0.00000000000E+00  0.14394669063E+03  0.14394669063E+03  0.00000000000E+00 0.  1.
          1   -1    0    0  501    0  0.00000000000E+00 -0.00000000000E+00 -0.10064113890E+03  0.10064113890E+03  0.00000000000E+00 0. -1.
         25    2    1    2    0    0 -0.14281611503E+02  0.29740892482E+02  0.55378106158E+02  0.14072098183E+03  0.12508866844E+03 0.  0.
         23    2    1    2    0    0  0.14281611503E+02 -0.29740892482E+02 -0.12072554431E+02  0.10386684770E+03  0.97745027326E+02 0.  0.
          5    1    3    3  502    0 -0.13294060407E+01  0.72465643432E+02  0.42599177838E+01  0.72723146920E+02  0.41800000000E+01 0. -1.
         -5    1    3    3    0  502 -0.12952205462E+02 -0.42724750949E+02  0.51118188374E+02  0.67997834912E+02  0.41800000000E+01 0. -1.
        -11    1    4    4    0    0  0.42858212700E+02  0.65065743111E+01  0.19919022931E+02  0.47706701622E+02  0.00000000000E+00 0.  1.
         11    1    4    4    0    0 -0.28576601197E+02 -0.36247466793E+02 -0.31991577362E+02  0.56160146074E+02  0.00000000000E+00 0. -1.
</event>
<event>
 8    1  0.7192024E-009  0.1537256E+03  0.7561462E-02  0.1195968E+00
          2   -1    0    0  501    0  0.00000000000E+00  0.00000000000E+00  0.25496482602E+04  0.25496482602E+04  0.00000000000E+00 0. -1.
         -2   -1    0    0    0  501 -0.00000000000E+00 -0.00000000000E+00 -0.14415333856E+02  0.14415333856E+02  0.00000000000E+00 0.  1.
         25    2    1    2    0    0  0.11189057095E+03 -0.22404560286E+02  0.20492701354E+04  0.20562532118E+04  0.12509084282E+03 0.  0.
         23    2    1    2    0    0 -0.11189057095E+03  0.22404560286E+02  0.48596279090E+03  0.50781038222E+03  0.93220630580E+02 0.  0.
          5    1    3    3  502    0  0.64789673957E+01  0.37888404156E+02  0.84110350540E+03  0.84199173832E+03  0.41800000000E+01 0. -1.
         -5    1    3    3    0  502  0.10541160355E+03 -0.60292964442E+02  0.12081666300E+04  0.12142614735E+04  0.41800000000E+01 0. -1.
        -11    1    4    4    0    0  0.13177854243E+02  0.17770448279E+02  0.78786733519E+02  0.81833941938E+02  0.00000000000E+00 0.  1.
         11    1    4    4    0    0 -0.12506842519E+03  0.46341120073E+01  0.40717605738E+03  0.42597644028E+03  0.00000000000E+00 0. -1.
</event>
<event>
 8    1  0.7192024E-009  0.1135834E+03  0.7561462E-02  0.1254074E+00
          1   -1    0    0  501    0  0.00000000000E+00  0.00000000000E+00  0.12508343575E+04  0.12508343575E+04  0.00000000000E+00 0. -1.
         -1   -1    0    0    0  501 -0.00000000000E+00 -0.00000000000E+00 -0.13066815152E+02  0.13066815152E+02  0.00000000000E+00 0.  1.
         25    2    1    2    0    0  0.23558697882E+02  0.14583388478E+02  0.96612234835E+03  0.97458089879E+03  0.12509136198E+03 0.  0.
         23    2    1    2    0    0 -0.23558697882E+02 -0.14583388478E+02  0.27164519396E+03  0.28932027382E+03  0.95642155858E+02 0.  0.
          5    1    3    3  502    0 -0.23168060261E+02  0.58734151756E+02  0.43911084073E+03  0.44364655126E+03  0.41800000000E+01 0. -1.
         -5    1    3    3    0  502  0.46726758143E+02 -0.44150763278E+02  0.52701150762E+03  0.53093434753E+03  0.41800000000E+01 0. -1.
        -11    1    4    4    0    0 -0.49969073406E+02  0.21793975725E+02  0.14220540530E+03  0.15229662824E+03  0.00000000000E+00 0.  1.
         11    1    4    4    0    0  0.26410375525E+02 -0.36377364202E+02  0.12943978865E+03  0.13702364558E+03  0.00000000000E+00 0. -1.
</event>
<event>
 8    1  0.7192024E-009  0.1218615E+03  0.7561462E-02  0.1240057E+00
          2   -1    0    0  501    0  0.00000000000E+00  0.00000000000E+00  0.35535161900E+03  0.35535161900E+03  0.00000000000E+00 0. -1.
         -2   -1    0    0    0  501 -0.00000000000E+00 -0.00000000000E+00 -0.60034298540E+02  0.60034298540E+02  0.00000000000E+00 0.  1.
         25    2    1    2    0    0 -0.62096037804E+02 -0.67292963146E+02  0.21148145249E+03  0.26221339519E+03  0.12508876477E+03 0.  0.
         23    2    1    2    0    0  0.62096037804E+02  0.67292963146E+02  0.83835867978E+02  0.15317252235E+03  0.89716821411E+02 0.  0.
          5    1    3    3  502    0  0.52918378852E+01  0.24080101209E+02  0.35354581658E+01  0.25255230881E+02  0.41800000000E+01 0. -1.
         -5    1    3    3    0  502 -0.67387875689E+02 -0.91373064355E+02  0.20794599432E+03  0.23695816431E+03  0.41800000000E+01 0. -1.
        -11    1    4    4    0    0 -0.60796073881E+01  0.23033592408E+02  0.65708228680E+02  0.69893342469E+02  0.00000000000E+00 0. -1.
         11    1    4    4    0    0  0.68175645192E+02  0.44259370738E+02  0.18127639298E+02  0.83279179883E+02  0.00000000000E+00 0.  1.
</event>
<event>
 8    1  0.7192024E-009  0.1767611E+03  0.7561462E-02  0.1170975E+00
          2   -1    0    0  501    0  0.00000000000E+00  0.00000000000E+00  0.15080099448E+04  0.15080099448E+04  0.00000000000E+00 0. -1.
         -2   -1    0    0    0  501 -0.00000000000E+00 -0.00000000000E+00 -0.39127426237E+02  0.39127426237E+02  0.00000000000E+00 0.  1.
         25    2    1    2    0    0  0.13522247147E+03 -0.53013670084E+02  0.12664612565E+04  0.12808851902E+04  0.12508872939E+03 0.  0.
         23    2    1    2    0    0 -0.13522247147E+03  0.53013670084E+02  0.20242126209E+03  0.26625218088E+03  0.93916401492E+02 0.  0.
          5    1    3    3  502    0  0.12200738774E+03 -0.90337636797E+02  0.10020373184E+04  0.10134806121E+04  0.41800000000E+01 0.  1.
         -5    1    3    3    0  502  0.13215083733E+02  0.37323966713E+02  0.26442393805E+03  0.26740457802E+03  0.41800000000E+01 0.  1.
        -11    1    4    4    0    0 -0.10513736059E+03  0.50976192898E+01  0.82794877487E+02  0.13392102916E+03  0.00000000000E+00 0.  1.
         11    1    4    4    0    0 -0.30085110880E+02  0.47916050794E+02  0.11962638461E+03  0.13233115172E+03  0.00000000000E+00 0. -1.
</event>
<event>
 8    1  0.7192024E-009  0.1025559E+03  0.7561462E-02  0.1275011E+00
         -2   -1    0    0    0  501 -0.00000000000E+00  0.00000000000E+00  0.16346954663E+02  0.16346954663E+02  0.00000000000E+00 0.  1.
          2   -1    0    0  501    0  0.00000000000E+00 -0.00000000000E+00 -0.72938347517E+03  0.72938347517E+03  0.00000000000E+00 0. -1.
         25    2    1    2    0    0 -0.85635706607E+01 -0.30828578406E+02 -0.45417978566E+03  0.47217618881E+03  0.12508932640E+03 0.  0.
         23    2    1    2    0    0  0.85635706607E+01  0.30828578406E+02 -0.25885673485E+03  0.27355424103E+03  0.82470465149E+02 0.  0.
          5    1    3    3  502    0  0.53268464552E+02 -0.13344657537E+02 -0.12259938973E+03  0.13440123498E+03  0.41800000000E+01 0. -1.
         -5    1    3    3    0  502 -0.61832035213E+02 -0.17483920869E+02 -0.33158039593E+03  0.33777495383E+03  0.41800000000E+01 0. -1.
        -11    1    4    4    0    0 -0.21830732782E+02 -0.17889513871E+02 -0.55763876294E+02  0.62499803997E+02  0.00000000000E+00 0.  1.
         11    1    4    4    0    0  0.30394303443E+02  0.48718092277E+02 -0.20309285855E+03  0.21105443704E+03  0.00000000000E+00 0. -1.
</event>
<event>
 8    1  0.7192024E-009  0.1679381E+03  0.7561462E-02  0.1180015E+00
         -1   -1    0    0    0  501 -0.00000000000E+00  0.00000000000E+00  0.48184920034E+02  0.48184920034E+02  0.00000000000E+00 0.  1.
          1   -1    0    0  501    0  0.00000000000E+00 -0.00000000000E+00 -0.83222538899E+03  0.83222538899E+03  0.00000000000E+00 0. -1.
         25    2    1    2    0    0  0.16434506318E+03 -0.13392395993E+02 -0.34681014824E+03  0.40387347940E+03  0.12509137613E+03 0.  0.
         23    2    1    2    0    0 -0.16434506318E+03  0.13392395993E+02 -0.43723032072E+03  0.47653682962E+03  0.93425588408E+02 0.  0.
          5    1    3    3  502    0  0.15497713234E+03 -0.22880989049E+02 -0.18932663693E+03  0.24577123318E+03  0.41800000000E+01 0. -1.
         -5    1    3    3    0  502  0.93679308418E+01  0.94885930560E+01 -0.15748351131E+03  0.15810224623E+03  0.41800000000E+01 0. -1.
        -11    1    4    4    0    0 -0.18139345418E+02 -0.16395272526E+01 -0.34553696730E+01  0.18538162837E+02  0.00000000000E+00 0.  1.
         11    1    4    4    0    0 -0.14620571776E+03  0.15031923246E+02 -0.43377495105E+03  0.45799866679E+03  0.00000000000E+00 0. -1.
</event>
<event>
 8    1  0.7192024E-009  0.1390038E+03  0.7561462E-02  0.1214676E+00
         -4   -1    0    0    0  501 -0.00000000000E+00  0.00000000000E+00  0.52347300813E+02  0.52347300813E+02  0.00000000000E+00 0.  1.
          4   -1    0    0  501    0  0.00000000000E+00 -0.00000000000E+00 -0.46847347822E+03  0.46847347822E+03  0.00000000000E+00 0. -1.
         25    2    1    2    0    0 -0.58174694420E+02 -0.80442244123E+02 -0.31329615447E+03  0.35164891273E+03  0.12508887923E+03 0.  0.
         23    2    1    2    0    0  0.58174694420E+02  0.80442244123E+02 -0.10283002294E+03  0.16917186630E+03  0.90497828822E+02 0.  0.
          5    1    3    3  502    0 -0.93597027076E+02 -0.31661686976E+02 -0.18268944498E+03  0.20773967268E+03  0.41800000000E+01 0.  1.
         -5    1    3    3    0  502  0.35422332656E+02 -0.48780557147E+02 -0.13060670950E+03  0.14390924005E+03  0.41800000000E+01 0.  1.
        -11    1    4    4    0    0 -0.99337924977E+01  0.36026548603E+02 -0.73999531306E+02  0.82900681971E+02  0.00000000000E+00 0. -1.
         11    1    4    4    0    0  0.68108486918E+02  0.44415695519E+02 -0.28830491630E+02  0.86271184334E+02  0.00000000000E+00 0.  1.
</event>
<event>
 8    1  0.7192024E-009  0.1058941E+03  0.7561462E-02  0.1268368E+00
          2   -1    0    0  501    0  0.00000000000E+00  0.00000000000E+00  0.99714648173E+03  0.99714648173E+03  0.00000000000E+00 0. -1.
         -2   -1    0    0    0  501 -0.00000000000E+00 -0.00000000000E+00 -0.17520007961E+02  0.17520007961E+02  0.00000000000E+00 0.  1.
         25    2    1    2    0    0  0.16409609522E+02 -0.60809581988E+02  0.69717192174E+03  0.71110034555E+03  0.12509169611E+03 0.  0.
         23    2    1    2    0    0 -0.16409609522E+02  0.60809581988E+02  0.28245455203E+03  0.30356614414E+03  0.91677420114E+02 0.  0.
          5    1    3    3  502    0 -0.52182893317E+02 -0.39543840191E+02  0.40008687129E+03  0.40543032278E+03  0.41800000000E+01 0.  1.
         -5    1    3    3    0  502  0.68592502839E+02 -0.21265741797E+02  0.29708505045E+03  0.30567002277E+03  0.41800000000E+01 0.  1.
        -11    1    4    4    0    0  0.11541669414E+02  0.67035879039E+01 -0.12437601703E+01  0.13405042447E+02  0.00000000000E+00 0.  1.
         11    1    4    4    0    0 -0.27951278936E+02  0.54105994085E+02  0.28369831220E+03  0.29016110169E+03  0.00000000000E+00 0. -1.
</event>
<event>
 8    1  0.7192024E-009  0.5779939E+02  0.7561462E-02  0.1407306E+00
         -1   -1    0    0    0  501 -0.00000000000E+00  0.00000000000E+00  0.14784851336E+03  0.14784851336E+03  0.00000000000E+00 0.  1.
          1   -1    0    0  501    0  0.00000000000E+00 -0.00000000000E+00 -0.13456769031E+03  0.13456769031E+03  0.00000000000E+00 0. -1.
         25    2    1    2    0    0  0.30302665634E+02 -0.38874113266E+02 -0.68179268564E+02  0.15074753934E+03  0.12508780807E+03 0.  0.
         23    2    1    2    0    0 -0.30302665634E+02  0.38874113266E+02  0.81460091619E+02  0.13166866432E+03  0.90947470617E+02 0.  0.
          5    1    3    3  502    0  0.16852260535E+02 -0.22270918426E+02  0.35184484153E+02  0.45115549623E+02  0.41800000000E+01 0.  1.
         -5    1    3    3    0  502  0.13450405100E+02 -0.16603194840E+02 -0.10336375272E+03  0.10563198972E+03  0.41800000000E+01 0.  1.
        -11    1    4    4    0    0 -0.65096821595E+01  0.41171533599E+02 -0.49845693750E+01  0.41979960369E+02  0.00000000000E+00 0. -1.
         11    1    4    4    0    0 -0.23792983475E+02 -0.22974203334E+01  0.86444660994E+02  0.89688703956E+02  0.00000000000E+00 0.  1.
</event>
<event>
 8    1  0.7192024E-009  0.1070259E+03  0.7561462E-02  0.1266179E+00
         -2   -1    0    0    0  501 -0.00000000000E+00  0.00000000000E+00  0.20155315918E+03  0.20155315918E+03  0.00000000000E+00 0.  1.
          2   -1    0    0  501    0  0.00000000000E+00 -0.00000000000E+00 -0.62085656095E+02  0.62085656095E+02  0.00000000000E+00 0. -1.
         25    2    1    2    0    0  0.21889001598E+02  0.50692138913E+01  0.10027581676E+03  0.16189338535E+03  0.12509757581E+03 0.  0.
         23    2    1    2    0    0 -0.21889001598E+02 -0.50692138913E+01  0.39191686329E+02  0.10174542993E+03  0.91166435236E+02 0.  0.
          5    1    3    3  502    0 -0.42845662478E+02 -0.24057438958E+02  0.16487082040E+02  0.51998148396E+02  0.41800000000E+01 0. -1.
         -5    1    3    3    0  502  0.64734664076E+02  0.29126652850E+02  0.83788734715E+02  0.10989523695E+03  0.41800000000E+01 0. -1.
        -11    1    4    4    0    0  0.21983390983E+02  0.30188170814E+02  0.11904908022E+02  0.39195943301E+02  0.00000000000E+00 0.  1.
         11    1    4    4    0    0 -0.43872392581E+02 -0.35257384706E+02  0.27286778307E+02  0.62549486628E+02  0.00000000000E+00 0. -1.
</event>
<event>
 8    1  0.7192024E-009  0.1623597E+03  0.7561462E-02  0.1186058E+00
         -1   -1    0    0    0  501 -0.00000000000E+00  0.00000000000E+00  0.35745438530E+02  0.35745438530E+02  0.00000000000E+00 0.  1.
          1   -1    0    0  501    0  0.00000000000E+00 -0.00000000000E+00 -0.80380691511E+03  0.80380691511E+03  0.00000000000E+00 0. -1.
         25    2    1    2    0    0 -0.13517304419E+02  0.12817320408E+03 -0.43997508386E+03  0.47522237386E+03  0.12508853841E+03 0.  0.
         23    2    1    2    0    0  0.13517304419E+02 -0.12817320408E+03 -0.32808639273E+03  0.36432997978E+03  0.92111700191E+02 0.  0.
          5    1    3    3  502    0 -0.42893243721E+02  0.14054524854E+03 -0.34733827305E+03  0.37716593904E+03  0.41800000000E+01 0.  1.
         -5    1    3    3    0  502  0.29375939303E+02 -0.12372044462E+02 -0.92636810802E+02  0.98056434820E+02  0.41800000000E+01 0.  1.
        -11    1    4    4    0    0  0.25040767438E+02 -0.10209516255E+02 -0.13566527645E+03  0.13833416603E+03  0.00000000000E+00 0.  1.
         11    1    4    4    0    0 -0.11523463020E+02 -0.11796368782E+03 -0.19242111627E+03  0.22599581375E+03  0.00000000000E+00 0. -1.
</event>
<event>
 8    1  0.7192024E-009  0.1685580E+03  0.7561462E-02  0.1179360E+00
         -2   -1    0    0    0  501 -0.00000000000E+00  0.00000000000E+00  0.73338127725E+02  0.73338127725E+02  0.00000000000E+00 0.  1.
          2   -1    0    0  501    0  0.00000000000E+00 -0.00000000000E+00 -0.44056664261E+03  0.44056664261E+03  0.00000000000E+00 0. -1.
         25    2    1    2    0    0  0.12952430233E+03 -0.37502738075E+02 -0.12807843730E+03  0.22412967812E+03  0.12508807399E+03 0.  0.
         23    2    1    2    0    0 -0.12952430233E+03  0.37502738075E+02 -0.23915007759E+03  0.28977509222E+03  0.92702989174E+02 0.  0.
          5    1    3    3  502    0  0.68458032515E+02 -0.81238000980E+02 -0.57003283923E+02  0.12063565724E+03  0.41800000000E+01 0.  1.
         -5    1    3    3    0  502  0.61066269818E+02  0.43735262905E+02 -0.71075153380E+02  0.10349402088E+03  0.41800000000E+01 0.  1.
        -11    1    4    4    0    0 -0.17844122502E+02 -0.22558629986E+02 -0.15489847107E+02  0.32668637225E+02  0.00000000000E+00 0. -1.
         11    1    4    4    0    0 -0.11168017983E+03  0.60061368062E+02 -0.22366023048E+03  0.25710645499E+03  0.00000000000E+00 0.  1.
</event>
<event>
 8    1  0.7192024E-009  0.1272679E+03  0.7561462E-02  0.1231567E+00
         -1   -1    0    0    0  501 -0.00000000000E+00  0.00000000000E+00  0.15870051762E+03  0.15870051762E+03  0.00000000000E+00 0.  1.
          1   -1    0    0  501    0  0.00000000000E+00 -0.00000000000E+00 -0.11206003199E+03  0.11206003199E+03  0.00000000000E+00 0. -1.
         25    2    1    2    0    0  0.75711519739E+02 -0.67312870840E+01  0.17203422892E+02  0.14738031683E+03  0.12508979009E+03 0.  0.
         23    2    1    2    0    0 -0.75711519739E+02  0.67312870840E+01  0.29437062732E+02  0.12338023277E+03  0.92620714368E+02 0.  0.
          5    1    3    3  502    0  0.72298442266E+02 -0.52092420919E+02  0.38275960025E+02  0.97073202209E+02  0.41800000000E+01 0.  1.
         -5    1    3    3    0  502  0.34130774731E+01  0.45361133835E+02 -0.21072537133E+02  0.50307114625E+02  0.41800000000E+01 0.  1.
        -11    1    4    4    0    0  0.14267104710E+02 -0.21091947143E+02  0.89866841728E+01  0.27003351709E+02  0.00000000000E+00 0.  1.
         11    1    4    4    0    0 -0.89978624449E+02  0.27823234227E+02  0.20450378559E+02  0.96376881065E+02  0.00000000000E+00 0. -1.
</event>
<event>
 8    1  0.7192024E-009  0.1192730E+03  0.7561462E-02  0.1244301E+00
          2   -1    0    0  501    0  0.00000000000E+00  0.00000000000E+00  0.52531091489E+03  0.52531091489E+03  0.00000000000E+00 0. -1.
         -2   -1    0    0    0  501 -0.00000000000E+00 -0.00000000000E+00 -0.27710689492E+02  0.27710689492E+02  0.00000000000E+00 0.  1.
         25    2    1    2    0    0 -0.40080810027E+02 -0.29020563613E+02  0.24838783897E+03  0.28247576114E+03  0.12508945856E+03 0.  0.
         23    2    1    2    0    0  0.40080810027E+02  0.29020563613E+02  0.24921238643E+03  0.27054584324E+03  0.92949315746E+02 0.  0.
          5    1    3    3  502    0 -0.68266486874E+01  0.48319267014E+02  0.73332020442E+02  0.88183968606E+02  0.41800000000E+01 0.  1.
         -5    1    3    3    0  502 -0.33254161340E+02 -0.77339830627E+02  0.17505581852E+03  0.19429179254E+03  0.41800000000E+01 0.  1.
        -11    1    4    4    0    0  0.45195834273E+02 -0.24571116149E+02  0.12455813244E+03  0.13476324254E+03  0.00000000000E+00 0.  1.
         11    1    4    4    0    0 -0.51150242458E+01  0.53591679761E+02  0.12465425400E+03  0.13578260070E+03  0.00000000000E+00 0. -1.
</event>
<event>
 8    1  0.7192024E-009  0.1505822E+03  0.7561462E-02  0.1199759E+00
          1   -1    0    0  501    0  0.00000000000E+00  0.00000000000E+00  0.43750084857E+03  0.43750084857E+03  0.00000000000E+00 0. -1.
         -1   -1    0    0    0  501 -0.00000000000E+00 -0.00000000000E+00 -0.15016776972E+03  0.15016776972E+03  0.00000000000E+00 0.  1.
         25    2    1    2    0    0 -0.43753514091E+02  0.10978326734E+03 -0.80906473113E+02  0.19015976771E+03  0.12509254206E+03 0.  0.
         23    2    1    2    0    0  0.43753514091E+02 -0.10978326734E+03  0.36823955197E+03  0.39750885058E+03  0.91903116769E+02 0.  0.
          5    1    3    3  502    0 -0.52754758092E+02  0.29285103263E+01  0.42386106379E+01  0.53170282059E+02  0.41800000000E+01 0. -1.
         -5    1    3    3    0  502  0.90012440005E+01  0.10685475702E+03 -0.85145083751E+02  0.13698948565E+03  0.41800000000E+01 0. -1.
        -11    1    4    4    0    0  0.13022812972E+02  0.10483282795E+02  0.12913360704E+02  0.21124577168E+02  0.00000000000E+00 0.  1.
         11    1    4    4    0    0  0.30730701119E+02 -0.12026655014E+03  0.35532619126E+03  0.37638427341E+03  0.00000000000E+00 0. -1.
</event>
<event>
 8    1  0.7192024E-009  0.1032759E+03  0.7561462E-02  0.1273554E+00
         -2   -1    0    0    0  501 -0.00000000000E+00  0.00000000000E+00  0.51832383980E+02  0.51832383980E+02  0.00000000000E+00 0.  1.
          2   -1    0    0  501    0  0.00000000000E+00 -0.00000000000E+00 -0.32226649680E+03  0.32226649680E+03  0.00000000000E+00 0. -1.
         25    2    1    2    0    0 -0.36851165171E+02  0.42338378000E+02 -0.97132378249E+02  0.16803220796E+03  0.12509827090E+03 0.  0.
         23    2    1    2    0    0  0.36851165171E+02 -0.42338378000E+02 -0.17330173457E+03  0.20606667282E+03  0.96329828277E+02 0.  0.
          5    1    3    3  502    0 -0.77046872336E+02  0.37476431497E+02 -0.93926830121E+02  0.12720230057E+03  0.41800000000E+01 0. -1.
         -5    1    3    3    0  502  0.40195707165E+02  0.48619465030E+01 -0.32055481277E+01  0.40829907385E+02  0.41800000000E+01 0. -1.
        -11    1    4    4    0    0  0.41737007187E+02 -0.45715755020E+01 -0.16048460241E+03  0.16588605933E+03  0.00000000000E+00 0.  1.
         11    1    4    4    0    0 -0.48858420165E+01 -0.37766802499E+02 -0.12817132162E+02  0.40180613485E+02  0.00000000000E+00 0. -1.
</event>
<event>
 8    1  0.7192024E-009  0.1045841E+03  0.7561462E-02  0.1270941E+00
          1   -1    0    0  501    0  0.00000000000E+00  0.00000000000E+00  0.17224025234E+03  0.17224025234E+03  0.00000000000E+00 0.  1.
         -1   -1    0    0    0  501 -0.00000000000E+00 -0.00000000000E+00 -0.12105649823E+03  0.12105649823E+03  0.00000000000E+00 0. -1.
         25    2    1    2    0    0  0.88528066936E+02  0.25564577165E+02  0.56805183691E+01  0.15546966565E+03  0.12509109643E+03 0.  0.
         23    2    1    2    0    0 -0.88528066936E+02 -0.25564577165E+02  0.45503235746E+02  0.13782708492E+03  0.91842226856E+02 0.  0.
          5    1    3    3  502    0  0.24512189794E+02  0.39206955137E+01 -0.57559689202E+02  0.62823638249E+02  0.41800000000E+01 0. -1.
         -5    1    3    3    0  502  0.64015877142E+02  0.21643881651E+02  0.63240207571E+02  0.92646027399E+02  0.41800000000E+01 0. -1.
        -11    1    4    4    0    0 -0.15543361382E+02 -0.39086069619E+02  0.47662391828E+02  0.63569021670E+02  0.00000000000E+00 0.  1.
         11    1    4    4    0    0 -0.72984705554E+02  0.13521492455E+02 -0.21591560820E+01  0.74258063252E+02  0.00000000000E+00 0. -1.
</event>
<event>
 8    1  0.7192024E-009  0.2066957E+03  0.7561462E-02  0.1144210E+00
          1   -1    0    0  501    0  0.00000000000E+00  0.00000000000E+00  0.38924713817E+02  0.38924713817E+02  0.00000000000E+00 0. -1.
         -1   -1    0    0    0  501 -0.00000000000E+00 -0.00000000000E+00 -0.13726805664E+04  0.13726805664E+04  0.00000000000E+00 0.  1.
         25    2    1    2    0    0 -0.19641371206E+03  0.12419299655E+02 -0.85301925705E+03  0.88431996343E+03  0.12508940615E+03 0.  0.
         23    2    1    2    0    0  0.19641371206E+03 -0.12419299655E+02 -0.48073659557E+03  0.52728531683E+03  0.90496108914E+02 0.  0.
          5    1    3    3  502    0 -0.15497563549E+03  0.13840217977E+02 -0.39732616948E+03  0.42672538779E+03  0.41800000000E+01 0.  1.
         -5    1    3    3    0  502 -0.41438076579E+02 -0.14209183219E+01 -0.45569308757E+03  0.45759457564E+03  0.41800000000E+01 0.  1.
        -11    1    4    4    0    0  0.12668974285E+03  0.35377391671E+02 -0.31063730818E+03  0.33733868444E+03  0.00000000000E+00 0.  1.
         11    1    4    4    0    0  0.69723969211E+02 -0.47796691326E+02 -0.17009928739E+03  0.18994663238E+03  0.00000000000E+00 0. -1.
</event>
<event>
 8    1  0.7192024E-009  0.9618532E+02  0.7561462E-02  0.1288529E+00
          1   -1    0    0  501    0  0.00000000000E+00  0.00000000000E+00  0.50518087279E+03  0.50518087279E+03  0.00000000000E+00 0. -1.
         -1   -1    0    0    0  501 -0.00000000000E+00 -0.00000000000E+00 -0.28884951155E+02  0.28884951155E+02  0.00000000000E+00 0.  1.
         25    2    1    2    0    0 -0.91330853813E+01  0.48172506596E+02  0.22687166210E+03  0.26367069997E+03  0.12508990095E+03 0.  0.
         23    2    1    2    0    0  0.91330853813E+01 -0.48172506596E+02  0.24942425954E+03  0.27039512397E+03  0.92179488954E+02 0.  0.
          5    1    3    3  502    0 -0.42443443195E+02  0.25291380731E+02  0.21032418130E+02  0.53860326975E+02  0.41800000000E+01 0. -1.
         -5    1    3    3    0  502  0.33310357813E+02  0.22881125865E+02  0.20583924397E+03  0.20981037299E+03  0.41800000000E+01 0. -1.
        -11    1    4    4    0    0 -0.27265731567E+02 -0.58314335597E+02  0.18277724357E+03  0.19378210088E+03  0.00000000000E+00 0. -1.
         11    1    4    4    0    0  0.36398816948E+02  0.10141829000E+02  0.66647015964E+02  0.76613023094E+02  0.00000000000E+00 0.  1.
</event>
<event>
 8    1  0.7192024E-009  0.1902695E+03  0.7561462E-02  0.1158218E+00
         -3   -1    0    0    0  501 -0.00000000000E+00  0.00000000000E+00  0.70818444215E+02  0.70818444215E+02  0.00000000000E+00 0. -1.
          3   -1    0    0  501    0  0.00000000000E+00 -0.00000000000E+00 -0.64260421023E+03  0.64260421023E+03  0.00000000000E+00 0.  1.
         25    2    1    2    0    0  0.88067234826E+02 -0.16070887034E+03 -0.30511464241E+03  0.37726071613E+03  0.12509006381E+03 0.  0.
         23    2    1    2    0    0 -0.88067234826E+02  0.16070887034E+03 -0.26667112360E+03  0.33616193831E+03  0.91149227933E+02 0.  0.
          5    1    3    3  502    0  0.74266704020E+02 -0.13749323940E+03 -0.13984764241E+03  0.20974930201E+03  0.41800000000E+01 0.  1.
         -5    1    3    3    0  502  0.13800530806E+02 -0.23215630939E+02 -0.16526700000E+03  0.16751141412E+03  0.41800000000E+01 0.  1.
        -11    1    4    4    0    0 -0.80116160539E+02  0.71679719415E+02 -0.19043584216E+03  0.21868331288E+03  0.00000000000E+00 0.  1.
         11    1    4    4    0    0 -0.79510742871E+01  0.89029150923E+02 -0.76235281442E+02  0.11747862543E+03  0.00000000000E+00 0. -1.
</event>
<event>
 8    1  0.7192024E-009  0.1106630E+03  0.7561462E-02  0.1259347E+00
         -2   -1    0    0    0  501 -0.00000000000E+00  0.00000000000E+00  0.49806623605E+02  0.49806623605E+02  0.00000000000E+00 0. -1.
          2   -1    0    0  501    0  0.00000000000E+00 -0.00000000000E+00 -0.31247075298E+03  0.31247075298E+03  0.00000000000E+00 0.  1.
         25    2    1    2    0    0 -0.14106875970E+02  0.60187167967E+02 -0.15916592242E+03  0.21166535142E+03  0.12508769322E+03 0.  0.
         23    2    1    2    0    0  0.14106875970E+02 -0.60187167967E+02 -0.10349820695E+03  0.15061202516E+03  0.90280696400E+02 0.  0.
          5    1    3    3  502    0  0.39715582391E+02  0.17034982405E+02 -0.12926716670E+03  0.13636345147E+03  0.41800000000E+01 0. -1.
         -5    1    3    3    0  502 -0.53822458362E+02  0.43152185562E+02 -0.29898755717E+02  0.75301899951E+02  0.41800000000E+01 0. -1.
        -11    1    4    4    0    0 -0.26441326943E+01  0.23399861076E+02 -0.16125259565E+02  0.28540654024E+02  0.00000000000E+00 0.  1.
         11    1    4    4    0    0  0.16751008665E+02 -0.83587029043E+02 -0.87372947388E+02  0.12207137114E+03  0.00000000000E+00 0. -1.
</event>
<event>
 8    1  0.7192024E-009  0.1155768E+03  0.7561462E-02  0.1250578E+00
          1   -1    0    0  501    0  0.00000000000E+00  0.00000000000E+00  0.11827409617E+04  0.11827409617E+04  0.00000000000E+00 0. -1.
         -1   -1    0    0    0  501 -0.00000000000E+00 -0.00000000000E+00 -0.16022014012E+02  0.16022014012E+02  0.00000000000E+00 0.  1.
         25    2    1    2    0    0  0.12213717463E+02 -0.38943969785E+02  0.93774661653E+03  0.94693333234E+03  0.12509281118E+03 0.  0.
         23    2    1    2    0    0 -0.12213717463E+02  0.38943969785E+02  0.22897233121E+03  0.25182964342E+03  0.96561033390E+02 0.  0.
          5    1    3    3  502    0 -0.49098731452E+02 -0.47043558548E+02  0.42001762208E+03  0.42550682379E+03  0.41800000000E+01 0. -1.
         -5    1    3    3    0  502  0.61312448916E+02  0.80995887625E+01  0.51772899445E+03  0.52142650855E+03  0.41800000000E+01 0. -1.
        -11    1    4    4    0    0  0.87586384065E+01  0.66128717379E+02  0.18047893382E+03  0.19241197094E+03  0.00000000000E+00 0. -1.
         11    1    4    4    0    0 -0.20972355870E+02 -0.27184747594E+02  0.48493397386E+02  0.59417672477E+02  0.00000000000E+00 0.  1.
</event>
<event>
 8    1  0.7192024E-009  0.1217550E+03  0.7561462E-02  0.1240230E+00
         -2   -1    0    0    0  501 -0.00000000000E+00  0.00000000000E+00  0.15038770994E+02  0.15038770994E+02  0.00000000000E+00 0. -1.
          2   -1    0    0  501    0  0.00000000000E+00 -0.00000000000E+00 -0.11795762019E+04  0.11795762019E+04  0.00000000000E+00 0.  1.
         25    2    1    2    0    0  0.12074893157E+02 -0.79408330563E+02 -0.60102120436E+03  0.61913267176E+03  0.12508913278E+03 0.  0.
         23    2    1    2    0    0 -0.12074893157E+02  0.79408330563E+02 -0.56351622659E+03  0.57548230118E+03  0.84722224557E+02 0.  0.
          5    1    3    3  502    0  0.10926929374E+02  0.23222428125E+02 -0.29884013042E+03  0.29996928993E+03  0.41800000000E+01 0. -1.
         -5    1    3    3    0  502  0.11479637837E+01 -0.10263075869E+03 -0.30218107394E+03  0.31916338183E+03  0.41800000000E+01 0. -1.
        -11    1    4    4    0    0 -0.44333071758E+02  0.66751911089E+02 -0.43803585958E+03  0.44530512366E+03  0.00000000000E+00 0.  1.
         11    1    4    4    0    0  0.32258178600E+02  0.12656419474E+02 -0.12548036701E+03  0.13017717751E+03  0.00000000000E+00 0. -1.
</event>
<event>
 8    1  0.7192024E-009  0.1253417E+03  0.7561462E-02  0.1234536E+00
          1   -1    0    0  501    0  0.00000000000E+00  0.00000000000E+00  0.50445959122E+03  0.50445959122E+03  0.00000000000E+00 0. -1.
         -1   -1    0    0    0  501 -0.00000000000E+00 -0.00000000000E+00 -0.49175126684E+02  0.49175126684E+02  0.00000000000E+00 0.  1.
         25    2    1    2    0    0  0.95003388914E+02 -0.26922112870E+02  0.14432533432E+03  0.21500648157E+03  0.12509013121E+03 0.  0.
         23    2    1    2    0    0 -0.95003388914E+02  0.26922112870E+02  0.31095913022E+03  0.33862823633E+03  0.90681076903E+02 0.  0.
          5    1    3    3  502    0  0.99402685507E+02 -0.60987130797E+02  0.13640398745E+03  0.17951001142E+03  0.41800000000E+01 0. -1.
         -5    1    3    3    0  502 -0.43992965935E+01  0.34065017927E+02  0.79213468681E+01  0.35496470150E+02  0.41800000000E+01 0. -1.
        -11    1    4    4    0    0 -0.21197443438E+02  0.12163277830E+01  0.36587583845E+01  0.21545244823E+02  0.00000000000E+00 0.  1.
         11    1    4    4    0    0 -0.73805945476E+02  0.25705785087E+02  0.30730037183E+03  0.31708299151E+03  0.00000000000E+00 0. -1.
</event>
<event>
 8    1  0.7192024E-009  0.2946479E+03  0.7561462E-02  0.1087947E+00
          1   -1    0    0  501    0  0.00000000000E+00  0.00000000000E+00  0.26220941618E+03  0.26220941618E+03  0.00000000000E+00 0. -1.
         -1   -1    0    0    0  501 -0.00000000000E+00 -0.00000000000E+00 -0.34976331943E+03  0.34976331943E+03  0.00000000000E+00 0.  1.
         25    2    1    2    0    0 -0.85734463387E+02  0.26539019425E+03  0.16856500813E+01  0.30566663143E+03  0.12508754828E+03 0.  0.
         23    2    1    2    0    0  0.85734463387E+02 -0.26539019425E+03 -0.89239553336E+02  0.30630610419E+03  0.89874235264E+02 0.  0.
          5    1    3    3  502    0 -0.10532177859E+03  0.13133471731E+03  0.17017766714E+02  0.16925886033E+03  0.41800000000E+01 0.  1.
         -5    1    3    3    0  502  0.19587315206E+02  0.13405547694E+03 -0.15332116633E+02  0.13640777110E+03  0.41800000000E+01 0.  1.
        -11    1    4    4    0    0  0.54796423230E+02 -0.77407704576E+02 -0.63330543076E+02  0.11404103828E+03  0.00000000000E+00 0.  1.
         11    1    4    4    0    0  0.30938040157E+02 -0.18798248968E+03 -0.25909010260E+02  0.19226506590E+03  0.00000000000E+00 0. -1.
</event>
<event>
 8    1  0.7192024E-009  0.1287428E+03  0.7561462E-02  0.1229333E+00
         -3   -1    0    0    0  501 -0.00000000000E+00  0.00000000000E+00  0.25370973579E+02  0.25370973579E+02  0.00000000000E+00 0.  1.
          3   -1    0    0  501    0  0.00000000000E+00 -0.00000000000E+00 -0.92357759846E+03  0.92357759846E+03  0.00000000000E+00 0. -1.
         25    2    1    2    0    0  0.49872065403E+02  0.92790097675E+02 -0.49276809466E+03  0.51919912068E+03  0.12510038637E+03 0.  0.
         23    2    1    2    0    0 -0.49872065403E+02 -0.92790097675E+02 -0.40543853022E+03  0.42974945136E+03  0.95952926051E+02 0.  0.
          5    1    3    3  502    0  0.47607262040E+02  0.31102949126E+02 -0.62887569915E+02  0.84889125883E+02  0.41800000000E+01 0.  1.
         -5    1    3    3    0  502  0.22648033632E+01  0.61687148549E+02 -0.42988052474E+03  0.43430999480E+03  0.41800000000E+01 0.  1.
        -11    1    4    4    0    0 -0.67826258549E+02 -0.31601584937E+02 -0.26778433959E+03  0.27804228824E+03  0.00000000000E+00 0. -1.
         11    1    4    4    0    0  0.17954193145E+02 -0.61188512738E+02 -0.13765419064E+03  0.15170716312E+03  0.00000000000E+00 0.  1.
</event>
<event>
 8    1  0.7192024E-009  0.1199376E+03  0.7561462E-02  0.1243200E+00
         -2   -1    0    0    0  501 -0.00000000000E+00  0.00000000000E+00  0.14977997502E+02  0.14977997502E+02  0.00000000000E+00 0.  1.
          2   -1    0    0  501    0  0.00000000000E+00 -0.00000000000E+00 -0.10342359517E+04  0.10342359517E+04  0.00000000000E+00 0. -1.
         25    2    1    2    0    0 -0.52705554061E+02 -0.29333822933E+02 -0.63414677709E+03  0.64917488199E+03  0.12509014320E+03 0.  0.
         23    2    1    2    0    0  0.52705554061E+02  0.29333822933E+02 -0.38511117714E+03  0.40003906723E+03  0.89901545929E+02 0.  0.
          5    1    3    3  502    0 -0.58395438660E+00 -0.69410005774E+02 -0.39714390440E+03  0.40318586670E+03  0.41800000000E+01 0. -1.
         -5    1    3    3    0  502 -0.52121599674E+02  0.40076182841E+02 -0.23700287269E+03  0.24598901530E+03  0.41800000000E+01 0. -1.
        -11    1    4    4    0    0 -0.23561834691E+01 -0.26169034369E+02 -0.14960852782E+03  0.15189826054E+03  0.00000000000E+00 0. -1.
         11    1    4    4    0    0  0.55061737530E+02  0.55502857302E+02 -0.23550264932E+03  0.24814080669E+03  0.00000000000E+00 0.  1.
</event>
<event>
 8    1  0.7192024E-009  0.3325410E+03  0.7561462E-02  0.1070018E+00
         -4   -1    0    0    0  501 -0.00000000000E+00  0.00000000000E+00  0.51700192489E+03  0.51700192489E+03  0.00000000000E+00 0. -1.
          4   -1    0    0  501    0  0.00000000000E+00 -0.00000000000E+00 -0.30613023373E+03  0.30613023373E+03  0.00000000000E+00 0.  1.
         25    2    1    2    0    0 -0.29636435152E+03  0.11857994357E+03 -0.11214921174E+03  0.36071900010E+03  0.12509084486E+03 0.  0.
         23    2    1    2    0    0  0.29636435152E+03 -0.11857994357E+03  0.32302090290E+03  0.46241315853E+03  0.87122864979E+02 0.  0.
          5    1    3    3  502    0 -0.20504079422E+03  0.13386276593E+03 -0.10876172855E+03  0.26796931428E+03  0.41800000000E+01 0. -1.
         -5    1    3    3    0  502 -0.91323557299E+02 -0.15282822361E+02 -0.33874831936E+01  0.92749685818E+02  0.41800000000E+01 0. -1.
        -11    1    4    4    0    0  0.61969746917E+02 -0.59172718231E+02  0.56965048754E+02  0.10289157835E+03  0.00000000000E+00 0.  1.
         11    1    4    4    0    0  0.23439460460E+03 -0.59407225340E+02  0.26605585415E+03  0.35952158018E+03  0.00000000000E+00 0. -1.
</event>
<event>
 8    1  0.7192024E-009  0.6617935E+02  0.7561462E-02  0.1373589E+00
          2   -1    0    0  501    0  0.00000000000E+00  0.00000000000E+00  0.84370323034E+03  0.84370323034E+03  0.00000000000E+00 0. -1.
         -2   -1    0    0    0  501 -0.00000000000E+00 -0.00000000000E+00 -0.15687600963E+02  0.15687600963E+02  0.00000000000E+00 0.  1.
         25    2    1    2    0    0  0.26535764318E+02  0.13658669033E+01  0.36782711089E+03  0.38942708829E+03  0.12510260271E+03 0.  0.
         23    2    1    2    0    0 -0.26535764318E+02 -0.13658669033E+01  0.46018851849E+03  0.46996374302E+03  0.91577479889E+02 0.  0.
          5    1    3    3  502    0  0.22549149286E+02 -0.10162731090E+02  0.37420255803E+03  0.37504236037E+03  0.41800000000E+01 0.  1.
         -5    1    3    3    0  502  0.39866150316E+01  0.11528597993E+02 -0.63754471364E+01  0.14384727918E+02  0.41800000000E+01 0.  1.
        -11    1    4    4    0    0 -0.39524737048E+02 -0.38416467289E+02  0.23492338562E+03  0.24130277020E+03  0.00000000000E+00 0.  1.
         11    1    4    4    0    0  0.12988972730E+02  0.37050600385E+02  0.22526513287E+03  0.22866097282E+03  0.00000000000E+00 0. -1.
</event>
<event>
 8    1  0.7192024E-009  0.1328609E+03  0.7561462E-02  0.1223271E+00
          1   -1    0    0  501    0  0.00000000000E+00  0.00000000000E+00  0.60217061951E+03  0.60217061951E+03  0.00000000000E+00 0. -1.
         -1   -1    0    0    0  501 -0.00000000000E+00 -0.00000000000E+00 -0.42030751064E+02  0.42030751064E+02  0.00000000000E+00 0.  1.
         25    2    1    2    0    0  0.10670619513E+03 -0.25571560786E+02  0.37969144033E+03  0.41455144837E+03  0.12508875524E+03 0.  0.
         23    2    1    2    0    0 -0.10670619513E+03  0.25571560786E+02  0.18044842811E+03  0.22964992220E+03  0.90207176867E+02 0.  0.
          5    1    3    3  502    0 -0.16598402558E+02 -0.26426184597E+02  0.15547557550E+03  0.15863157686E+03  0.41800000000E+01 0.  1.
         -5    1    3    3    0  502  0.12330459769E+03  0.85462381177E+00  0.22421586483E+03  0.25591987151E+03  0.41800000000E+01 0.  1.
        -11    1    4    4    0    0 -0.60473101594E+02  0.22499526616E+02  0.17044261247E+03  0.18224683498E+03  0.00000000000E+00 0. -1.
         11    1    4    4    0    0 -0.46233093536E+02  0.30720341700E+01  0.10005815649E+02  0.47403087227E+02  0.00000000000E+00 0.  1.
</event>
<event>
 8    1  0.7192024E-009  0.1362759E+03  0.7561462E-02  0.1218430E+00
          2   -1    0    0  501    0  0.00000000000E+00  0.00000000000E+00  0.49141421250E+03  0.49141421250E+03  0.00000000000E+00 0.  1.
         -2   -1    0    0    0  501 -0.00000000000E+00 -0.00000000000E+00 -0.41784353277E+02  0.41784353277E+02  0.00000000000E+00 0. -1.
         25    2    1    2    0    0  0.91801606849E+02 -0.11108494260E+02  0.26571153779E+03  0.30789730225E+03  0.12508874350E+03 0.  0.
         23    2    1    2    0    0 -0.91801606849E+02  0.11108494260E+02  0.18391832143E+03  0.22530126353E+03  0.91562965903E+02 0.  0.
          5    1    3    3  502    0 -0.26439094735E+02 -0.19517785911E+02  0.89953976603E+02  0.95860106426E+02  0.41800000000E+01 0. -1.
         -5    1    3    3    0  502  0.11824070158E+03  0.84092916503E+01  0.17575756119E+03  0.21203719582E+03  0.41800000000E+01 0. -1.
        -11    1    4    4    0    0 -0.92448113148E+02  0.33559391430E+02  0.10773321136E+03  0.14587436789E+03  0.00000000000E+00 0. -1.
         11    1    4    4    0    0  0.64650629921E+00 -0.22450897169E+02  0.76185110072E+02  0.79426895638E+02  0.00000000000E+00 0.  1.
</event>
<event>
 8    1  0.7192024E-009  0.9164160E+02  0.7561462E-02  0.1298924E+00
         -3   -1    0    0    0  501 -0.00000000000E+00  0.00000000000E+00  0.33736127170E+02  0.33736127170E+02  0.00000000000E+00 0.  1.
          3   -1    0    0  501    0  0.00000000000E+00 -0.00000000000E+00 -0.35953795423E+03  0.35953795423E+03  0.00000000000E+00 0. -1.
         25    2    1    2    0    0  0.10958188215E+02 -0.16701441237E+02 -0.19098759727E+03  0.22917652060E+03  0.12508635118E+03 0.  0.
         23    2    1    2    0    0 -0.10958188215E+02  0.16701441237E+02 -0.13481422979E+03  0.16409756081E+03  0.91400836326E+02 0.  0.
          5    1    3    3  502    0  0.28343318740E+02  0.29101806110E+02 -0.10576775994E+02  0.42185298701E+02  0.41800000000E+01 0. -1.
         -5    1    3    3    0  502 -0.17385130525E+02 -0.45803247347E+02 -0.18041082128E+03  0.18699122189E+03  0.41800000000E+01 0. -1.
        -11    1    4    4    0    0  0.71646320877E+01  0.52587406685E+02 -0.82962731891E+02  0.98486456824E+02  0.00000000000E+00 0.  1.
         11    1    4    4    0    0 -0.18122820302E+02 -0.35885965448E+02 -0.51851497900E+02  0.65611103986E+02  0.00000000000E+00 0. -1.
</event>
<event>
 8    1  0.7192024E-009  0.9936874E+02  0.7561462E-02  0.1281629E+00
         -1   -1    0    0    0  501 -0.00000000000E+00  0.00000000000E+00  0.46605316613E+02  0.46605316613E+02  0.00000000000E+00 0.  1.
          1   -1    0    0  501    0  0.00000000000E+00 -0.00000000000E+00 -0.25968254478E+03  0.25968254478E+03  0.00000000000E+00 0. -1.
         25    2    1    2    0    0 -0.28250601372E+01 -0.76200783119E+01 -0.13335930906E+03  0.18302831582E+03  0.12509441443E+03 0.  0.
         23    2    1    2    0    0  0.28250601372E+01  0.76200783119E+01 -0.79717919111E+02  0.12325954557E+03  0.93658541463E+02 0.  0.
          5    1    3    3  502    0  0.52680939027E+02 -0.34390650312E+02 -0.58870342044E+02  0.86262319341E+02  0.41800000000E+01 0. -1.
         -5    1    3    3    0  502 -0.55505999164E+02  0.26770572000E+02 -0.74488967014E+02  0.96765996482E+02  0.41800000000E+01 0. -1.
        -11    1    4    4    0    0 -0.12581621468E+02  0.37906605683E+02 -0.38445418107E+01  0.40124661430E+02  0.00000000000E+00 0.  1.
         11    1    4    4    0    0  0.15406681605E+02 -0.30286527371E+02 -0.75873377300E+02  0.83134884142E+02  0.00000000000E+00 0. -1.
</event>
<event>
 8    1  0.7192024E-009  0.7108796E+02  0.7561462E-02  0.1356432E+00
         -2   -1    0    0    0  501 -0.00000000000E+00  0.00000000000E+00  0.14189388657E+03  0.14189388657E+03  0.00000000000E+00 0.  1.
          2   -1    0    0  501    0  0.00000000000E+00 -0.00000000000E+00 -0.94531435745E+02  0.94531435745E+02  0.00000000000E+00 0. -1.
         25    2    1    2    0    0  0.19769168670E+02  0.33021153684E+02  0.12587875737E+02  0.13147595933E+03  0.12508499769E+03 0.  0.
         23    2    1    2    0    0 -0.19769168670E+02 -0.33021153684E+02  0.34774575089E+02  0.10494936298E+03  0.91235306202E+02 0.  0.
          5    1    3    3  502    0 -0.23117340957E+02  0.44907529444E+02 -0.38461528880E+02  0.63622788821E+02  0.41800000000E+01 0. -1.
         -5    1    3    3    0  502  0.42886509627E+02 -0.11886375759E+02  0.51049404616E+02  0.67853170511E+02  0.41800000000E+01 0. -1.
        -11    1    4    4    0    0 -0.18057776814E+02 -0.50202993417E+01 -0.29425581176E+02  0.34887698928E+02  0.00000000000E+00 0. -1.
         11    1    4    4    0    0 -0.17113918557E+01 -0.28000854342E+02  0.64200156265E+02  0.70061664057E+02  0.00000000000E+00 0.  1.
</event>
<event>
 8    1  0.7192024E-009  0.8734992E+02  0.7561462E-02  0.1309399E+00
         -1   -1    0    0    0  501 -0.00000000000E+00  0.00000000000E+00  0.58162452542E+03  0.58162452542E+03  0.00000000000E+00 0.  1.
          1   -1    0    0  501    0  0.00000000000E+00 -0.00000000000E+00 -0.10646134137E+03  0.10646134137E+03  0.00000000000E+00 0. -1.
         25    2    1    2    0    0  0.17795417561E+02 -0.42156107313E+02  0.54694761266E+03  0.56293043466E+03  0.12508064999E+03 0.  0.
         23    2    1    2    0    0 -0.17795417561E+02  0.42156107313E+02 -0.71784428610E+02  0.12515543214E+03  0.91744556968E+02 0.  0.
          5    1    3    3  502    0 -0.22881392306E+02  0.33671512325E+02  0.26415799722E+03  0.26730927547E+03  0.41800000000E+01 0.  1.
         -5    1    3    3    0  502  0.40676809867E+02 -0.75827619638E+02  0.28278961544E+03  0.29562115919E+03  0.41800000000E+01 0.  1.
        -11    1    4    4    0    0 -0.13555229870E+02  0.15319789472E+02  0.20496725375E+02  0.28957830674E+02  0.00000000000E+00 0.  1.
         11    1    4    4    0    0 -0.42401876911E+01  0.26836317841E+02 -0.92281153985E+02  0.96197601465E+02  0.00000000000E+00 0. -1.
</event>
<event>
 8    1  0.7192024E-009  0.1979283E+03  0.7561462E-02  0.1151499E+00
         -2   -1    0    0    0  501 -0.00000000000E+00  0.00000000000E+00  0.20798506134E+03  0.20798506134E+03  0.00000000000E+00 0.  1.
          2   -1    0    0  501    0  0.00000000000E+00 -0.00000000000E+00 -0.24994523775E+03  0.24994523775E+03  0.00000000000E+00 0. -1.
         25    2    1    2    0    0 -0.10895355831E+03 -0.15034203683E+03 -0.97962275747E+02  0.24437248156E+03  0.12509075252E+03 0.  0.
         23    2    1    2    0    0  0.10895355831E+03  0.15034203683E+03  0.56002099336E+02  0.21355781753E+03  0.89426508331E+02 0.  0.
          5    1    3    3  502    0 -0.77822996856E+02 -0.15852886832E+03 -0.11183271663E+03  0.20907379041E+03  0.41800000000E+01 0. -1.
         -5    1    3    3    0  502 -0.31130561451E+02  0.81868314855E+01  0.13870440882E+02  0.35298691141E+02  0.41800000000E+01 0. -1.
        -11    1    4    4    0    0  0.13121263878E+02  0.31195524300E+02  0.50201522451E+02  0.60543547621E+02  0.00000000000E+00 0.  1.
         11    1    4    4    0    0  0.95832294430E+02  0.11914651253E+03  0.58005768848E+01  0.15301426991E+03  0.00000000000E+00 0. -1.
</event>
<event>
 8    1  0.7192024E-009  0.8955311E+02  0.7561462E-02  0.1303938E+00
          1   -1    0    0  501    0  0.00000000000E+00  0.00000000000E+00  0.29465786887E+03  0.29465786887E+03  0.00000000000E+00 0. -1.
         -1   -1    0    0    0  501 -0.00000000000E+00 -0.00000000000E+00 -0.43319546773E+02  0.43319546773E+02  0.00000000000E+00 0.  1.
         25    2    1    2    0    0 -0.25940679853E+02 -0.16034645490E+02  0.12903362008E+03  0.18228010120E+03  0.12508529672E+03 0.  0.
         23    2    1    2    0    0  0.25940679853E+02  0.16034645490E+02  0.12230470202E+03  0.15569731445E+03  0.91395759537E+02 0.  0.
          5    1    3    3  502    0 -0.54837535422E+02  0.42956096530E+01  0.75312887976E+01  0.55675849920E+02  0.41800000000E+01 0.  1.
         -5    1    3    3    0  502  0.28896855568E+02 -0.20330255143E+02  0.12150233128E+03  0.12660425128E+03  0.41800000000E+01 0.  1.
        -11    1    4    4    0    0  0.44857758164E+02  0.38415582970E+02  0.10798710019E+03  0.12308204292E+03  0.00000000000E+00 0. -1.
         11    1    4    4    0    0 -0.18917078311E+02 -0.22380937480E+02  0.14317601835E+02  0.32615271525E+02  0.00000000000E+00 0.  1.
</event>
<event>
 8    1  0.7192024E-009  0.1005071E+03  0.7561462E-02  0.1279233E+00
         -2   -1    0    0    0  501 -0.00000000000E+00  0.00000000000E+00  0.19918788596E+02  0.19918788596E+02  0.00000000000E+00 0.  1.
          2   -1    0    0  501    0  0.00000000000E+00 -0.00000000000E+00 -0.67477924549E+03  0.67477924549E+03  0.00000000000E+00 0. -1.
         25    2    1    2    0    0 -0.61519626680E-01  0.38467087404E+02 -0.42070956906E+03  0.44059380505E+03  0.12508652587E+03 0.  0.
         23    2    1    2    0    0  0.61519626680E-01 -0.38467087404E+02 -0.23415088784E+03  0.25410422904E+03  0.90898846753E+02 0.  0.
          5    1    3    3  502    0 -0.11624307955E+01 -0.33429404441E+02 -0.36474688651E+02  0.49666403522E+02  0.41800000000E+01 0. -1.
         -5    1    3    3    0  502  0.11009111688E+01  0.71896491845E+02 -0.38423488041E+03  0.39092740153E+03  0.41800000000E+01 0. -1.
        -11    1    4    4    0    0  0.40203443956E+02 -0.37721598885E+02 -0.16702253177E+03  0.17588565048E+03  0.00000000000E+00 0.  1.
         11    1    4    4    0    0 -0.40141924330E+02 -0.74548851867E+00 -0.67128356072E+02  0.78218578554E+02  0.00000000000E+00 0. -1.
</event>
<event>
 8    1  0.7192024E-009  0.1073393E+03  0.7561462E-02  0.1265578E+00
          2   -1    0    0  501    0  0.00000000000E+00  0.00000000000E+00  0.17076601025E+02  0.17076601025E+02  0.00000000000E+00 0. -1.
         -2   -1    0    0    0  501 -0.00000000000E+00 -0.00000000000E+00 -0.72612665333E+03  0.72612665333E+03  0.00000000000E+00 0.  1.
         25    2    1    2    0    0 -0.14426887898E+02  0.24676002328E+02 -0.42414244030E+03  0.44312521670E+03  0.12508440280E+03 0.  0.
         23    2    1    2    0    0  0.14426887898E+02 -0.24676002328E+02 -0.28490761200E+03  0.30007803765E+03  0.89763250395E+02 0.  0.
          5    1    3    3  502    0 -0.50773987144E+02  0.59131540424E+02 -0.25743440950E+03  0.26900647657E+03  0.41800000000E+01 0. -1.
         -5    1    3    3    0  502  0.36347099246E+02 -0.34455538096E+02 -0.16670803080E+03  0.17411874013E+03  0.41800000000E+01 0. -1.
        -11    1    4    4    0    0 -0.30893941907E+01  0.29382674307E+02 -0.47293556052E+02  0.55763485812E+02  0.00000000000E+00 0. -1.
         11    1    4    4    0    0  0.17516282088E+02 -0.54058676634E+02 -0.23761405595E+03  0.24431455184E+03  0.00000000000E+00 0.  1.
</event>
<event>
 8    1  0.7192024E-009  0.1125163E+03  0.7561462E-02  0.1255980E+00
         -2   -1    0    0    0  501 -0.00000000000E+00  0.00000000000E+00  0.11273502852E+03  0.11273502852E+03  0.00000000000E+00 0.  1.
          2   -1    0    0  501    0  0.00000000000E+00 -0.00000000000E+00 -0.12779211710E+03  0.12779211710E+03  0.00000000000E+00 0. -1.
         25    2    1    2    0    0 -0.22286277379E+02  0.44775815835E+02  0.18392664141E+01  0.13473267612E+03  0.12509180337E+03 0.  0.
         23    2    1    2    0    0  0.22286277379E+02 -0.44775815835E+02 -0.16896354999E+02  0.10579446950E+03  0.91681138303E+02 0.  0.
          5    1    3    3  502    0  0.37222162017E+00  0.79776804696E+02 -0.26474626804E+02  0.84159701644E+02  0.41800000000E+01 0. -1.
         -5    1    3    3    0  502 -0.22658498999E+02 -0.35000988861E+02  0.28313893218E+02  0.50572974476E+02  0.41800000000E+01 0. -1.
        -11    1    4    4    0    0 -0.26328858738E+02 -0.47758332817E+02 -0.16880890352E+02  0.57087928802E+02  0.00000000000E+00 0. -1.
         11    1    4    4    0    0  0.48615136116E+02  0.29825169815E+01 -0.15464646651E-01  0.48706540693E+02  0.00000000000E+00 0.  1.
</event>
<event>
 8    1  0.7192024E-009  0.1063466E+03  0.7561462E-02  0.1267489E+00
         -1   -1    0    0    0  501 -0.00000000000E+00  0.00000000000E+00  0.10520311194E+03  0.10520311194E+03  0.00000000000E+00 0.  1.
          1   -1    0    0  501    0  0.00000000000E+00 -0.00000000000E+00 -0.12322580755E+03  0.12322580755E+03  0.00000000000E+00 0. -1.
         25    2    1    2    0    0  0.16801166668E+02  0.16252622142E+02 -0.96297724483E+01  0.12761912932E+03  0.12508989857E+03 0.  0.
         23    2    1    2    0    0 -0.16801166668E+02 -0.16252622142E+02 -0.83929231602E+01  0.10080979016E+03  0.97702332142E+02 0.  0.
          5    1    3    3  502    0  0.69329331070E+02  0.10064256407E+02  0.10321490002E+02  0.70935540877E+02  0.41800000000E+01 0.  1.
         -5    1    3    3    0  502 -0.52528164402E+02  0.61883657350E+01 -0.19951262450E+02  0.56683588447E+02  0.41800000000E+01 0.  1.
        -11    1    4    4    0    0  0.15852672436E+02 -0.43897237204E+02  0.18578220882E+02  0.50233703314E+02  0.00000000000E+00 0.  1.
         11    1    4    4    0    0 -0.32653839104E+02  0.27644615062E+02 -0.26971144042E+02  0.50576086850E+02  0.00000000000E+00 0. -1.
</event>
<event>
 8    1  0.7192024E-009  0.8536516E+02  0.7561462E-02  0.1314480E+00
          2   -1    0    0  501    0  0.00000000000E+00  0.00000000000E+00  0.11188235649E+03  0.11188235649E+03  0.00000000000E+00 0. -1.
         -2   -1    0    0    0  501 -0.00000000000E+00 -0.00000000000E+00 -0.11420814191E+03  0.11420814191E+03  0.00000000000E+00 0.  1.
         25    2    1    2    0    0  0.29956321520E+02 -0.15319253689E+01  0.70504372325E+01  0.12883884266E+03  0.12510000287E+03 0.  0.
         23    2    1    2    0    0 -0.29956321520E+02  0.15319253689E+01 -0.93762226586E+01  0.97251655739E+02  0.92033923084E+02 0.  0.
          5    1    3    3  502    0  0.21282333031E+02 -0.58745610749E+02  0.25999796798E+02  0.67804471203E+02  0.41800000000E+01 0. -1.
         -5    1    3    3    0  502  0.86739884886E+01  0.57213685381E+02 -0.18949359566E+02  0.61034371456E+02  0.41800000000E+01 0. -1.
        -11    1    4    4    0    0  0.27794295271E+01  0.14585654127E+02 -0.44852136309E+02  0.47245959259E+02  0.00000000000E+00 0.  1.
         11    1    4    4    0    0 -0.32735751047E+02 -0.13053728758E+02  0.35475913651E+02  0.50005696480E+02  0.00000000000E+00 0. -1.
</event>
<event>
 8    1  0.7192024E-009  0.6651795E+02  0.7561462E-02  0.1372351E+00
          1   -1    0    0  501    0  0.00000000000E+00  0.00000000000E+00  0.30434312785E+03  0.30434312785E+03  0.00000000000E+00 0.  1.
         -1   -1    0    0    0  501 -0.00000000000E+00 -0.00000000000E+00 -0.44295421793E+02  0.44295421793E+02  0.00000000000E+00 0. -1.
         25    2    1    2    0    0  0.74001885191E+00  0.15633966053E+02  0.83131124881E+02  0.15101017534E+03  0.12509324765E+03 0.  0.
         23    2    1    2    0    0 -0.74001885191E+00 -0.15633966053E+02  0.17691658118E+03  0.19762837431E+03  0.86674847065E+02 0.  0.
          5    1    3    3  502    0 -0.26631852770E+02  0.98171372372E+01  0.10897605218E+03  0.11268932565E+03  0.41800000000E+01 0. -1.
         -5    1    3    3    0  502  0.27371871622E+02  0.58168288157E+01 -0.25844927302E+02  0.38320849688E+02  0.41800000000E+01 0. -1.
        -11    1    4    4    0    0 -0.36407273741E+02 -0.17379162393E+02  0.14224689082E+03  0.14785703506E+03  0.00000000000E+00 0.  1.
         11    1    4    4    0    0  0.35667254889E+02  0.17451963404E+01  0.34669690352E+02  0.49771339250E+02  0.00000000000E+00 0. -1.
</event>
<event>
 8    1  0.7192024E-009  0.2242974E+03  0.7561462E-02  0.1130719E+00
          1   -1    0    0  501    0  0.00000000000E+00  0.00000000000E+00  0.81776214714E+03  0.81776214714E+03  0.00000000000E+00 0. -1.
         -1   -1    0    0    0  501 -0.00000000000E+00 -0.00000000000E+00 -0.73447038388E+02  0.73447038388E+02  0.00000000000E+00 0.  1.
         25    2    1    2    0    0 -0.17397510917E+03 -0.92938285171E+02  0.55811624605E+03  0.60501713852E+03  0.12508849002E+03 0.  0.
         23    2    1    2    0    0  0.17397510917E+03  0.92938285171E+02  0.18619886271E+03  0.28619204701E+03  0.91274354779E+02 0.  0.
          5    1    3    3  502    0 -0.61270471358E+02 -0.10216488046E+03  0.25559585177E+03  0.28202561108E+03  0.41800000000E+01 0.  1.
         -5    1    3    3    0  502 -0.11270463781E+03  0.92265952938E+01  0.30252039428E+03  0.32299152744E+03  0.41800000000E+01 0.  1.
        -11    1    4    4    0    0 -0.80543658591E+01  0.17360400844E+02  0.25527781177E+02  0.31904920290E+02  0.00000000000E+00 0. -1.
         11    1    4    4    0    0  0.18202947503E+03  0.75577884327E+02  0.16067108153E+03  0.25428712672E+03  0.00000000000E+00 0.  1.
</event>
<event>
 8    1  0.7192024E-009  0.9119060E+02  0.7561462E-02  0.1299994E+00
         -2   -1    0    0    0  501 -0.00000000000E+00  0.00000000000E+00  0.88015733854E+02  0.88015733854E+02  0.00000000000E+00 0.  1.
          2   -1    0    0  501    0  0.00000000000E+00 -0.00000000000E+00 -0.23192152232E+03  0.23192152232E+03  0.00000000000E+00 0. -1.
         25    2    1    2    0    0 -0.55059557945E+02  0.38163560045E+02 -0.50124772936E+01  0.14198682560E+03  0.12508845462E+03 0.  0.
         23    2    1    2    0    0  0.55059557945E+02 -0.38163560045E+02 -0.13889331117E+03  0.17795043058E+03  0.88808736158E+02 0.  0.
          5    1    3    3  502    0 -0.51879656058E+02  0.20520561753E+02  0.55458349472E+02  0.78776221625E+02  0.41800000000E+01 0. -1.
         -5    1    3    3    0  502 -0.31799018868E+01  0.17642998291E+02 -0.60470826766E+02  0.63210603972E+02  0.41800000000E+01 0. -1.
        -11    1    4    4    0    0  0.27208685335E+02  0.26276196885E+02 -0.29496824602E+02  0.47966798330E+02  0.00000000000E+00 0. -1.
         11    1    4    4    0    0  0.27850872610E+02 -0.64439756930E+02 -0.10939648657E+03  0.12998363225E+03  0.00000000000E+00 0.  1.
</event>
<event>
 8    1  0.7192024E-009  0.1403778E+03  0.7561462E-02  0.1212821E+00
         -1   -1    0    0    0  501 -0.00000000000E+00  0.00000000000E+00  0.15783187932E+03  0.15783187932E+03  0.00000000000E+00 0.  1.
          1   -1    0    0  501    0  0.00000000000E+00 -0.00000000000E+00 -0.14332653315E+03  0.14332653315E+03  0.00000000000E+00 0. -1.
         25    2    1    2    0    0  0.10084327007E+03 -0.19899113343E+02 -0.12942404181E+02  0.16242249522E+03  0.12509285070E+03 0.  0.
         23    2    1    2    0    0 -0.10084327007E+03  0.19899113343E+02  0.27447750348E+02  0.13873591725E+03  0.89044572580E+02 0.  0.
          5    1    3    3  502    0  0.21917031914E+02 -0.64493070538E+02  0.95993737312E+01  0.68915403296E+02  0.41800000000E+01 0. -1.
         -5    1    3    3    0  502  0.78926238159E+02  0.44593957195E+02 -0.22541777912E+02  0.93507091922E+02  0.41800000000E+01 0. -1.
        -11    1    4    4    0    0 -0.63712350558E+02 -0.20464411011E+02  0.45585872461E+02  0.80969917251E+02  0.00000000000E+00 0.  1.
         11    1    4    4    0    0 -0.37130919515E+02  0.40363524354E+02 -0.18138122114E+02  0.57766000001E+02  0.00000000000E+00 0. -1.
</event>
<event>
 8    1  0.7192024E-009  0.2116735E+03  0.7561462E-02  0.1140248E+00
          2   -1    0    0  501    0  0.00000000000E+00  0.00000000000E+00  0.61959126811E+02  0.61959126811E+02  0.00000000000E+00 0. -1.
         -2   -1    0    0    0  501 -0.00000000000E+00 -0.00000000000E+00 -0.94126438267E+03  0.94126438267E+03  0.00000000000E+00 0.  1.
         25    2    1    2    0    0 -0.68340370516E+02  0.18603493158E+03 -0.62989934309E+03  0.67208352125E+03  0.12507467807E+03 0.  0.
         23    2    1    2    0    0  0.68340370516E+02 -0.18603493158E+03 -0.24940591277E+03  0.33113998823E+03  0.90393475852E+02 0.  0.
          5    1    3    3  502    0  0.10152869600E+02  0.12539116794E+03 -0.44194415830E+03  0.45951946337E+03  0.41800000000E+01 0.  1.
         -5    1    3    3    0  502 -0.78493240116E+02  0.60643763634E+02 -0.18795518479E+03  0.21256405788E+03  0.41800000000E+01 0.  1.
        -11    1    4    4    0    0  0.45401588087E+02 -0.12136176412E+03 -0.22240442409E+03  0.25739796006E+03  0.00000000000E+00 0.  1.
         11    1    4    4    0    0  0.22938782430E+02 -0.64673167455E+02 -0.27001488681E+02  0.73742028172E+02  0.00000000000E+00 0. -1.
</event>
<event>
 8    1  0.7192024E-009  0.1621011E+03  0.7561462E-02  0.1186345E+00
          1   -1    0    0  501    0  0.00000000000E+00  0.00000000000E+00  0.10221696649E+03  0.10221696649E+03  0.00000000000E+00 0. -1.
         -1   -1    0    0    0  501 -0.00000000000E+00 -0.00000000000E+00 -0.37701193583E+03  0.37701193583E+03  0.00000000000E+00 0.  1.
         25    2    1    2    0    0 -0.57136158211E+02  0.10884810343E+03 -0.27461826536E+03  0.32584285422E+03  0.12508366713E+03 0.  0.
         23    2    1    2    0    0  0.57136158211E+02 -0.10884810343E+03 -0.17670398714E+00  0.15338604810E+03  0.91732209885E+02 0.  0.
          5    1    3    3  502    0 -0.76103062128E+02  0.12562565954E+03 -0.25161372001E+03  0.29137676451E+03  0.41800000000E+01 0.  1.
         -5    1    3    3    0  502  0.18966903918E+02 -0.16777556107E+02 -0.23004545350E+02  0.34466089710E+02  0.41800000000E+01 0.  1.
        -11    1    4    4    0    0  0.71767731295E+02 -0.41970908923E+02 -0.11717336763E+02  0.83961064976E+02  0.00000000000E+00 0.  1.
         11    1    4    4    0    0 -0.14631573084E+02 -0.66877194511E+02  0.11540632776E+02  0.69424983122E+02  0.00000000000E+00 0. -1.
</event>
<event>
 8    1  0.7192024E-009  0.1482995E+03  0.7561462E-02  0.1202578E+00
          1   -1    0    0  501    0  0.00000000000E+00  0.00000000000E+00  0.16911891583E+03  0.16911891583E+03  0.00000000000E+00 0. -1.
         -1   -1    0    0    0  501 -0.00000000000E+00 -0.00000000000E+00 -0.18967700669E+03  0.18967700669E+03  0.00000000000E+00 0.  1.
         25    2    1    2    0    0 -0.93604285003E+02  0.67745584581E+02  0.73195717080E+02  0.18535489725E+03  0.12509036148E+03 0.  0.
         23    2    1    2    0    0  0.93604285003E+02 -0.67745584581E+02 -0.93753807948E+02  0.17344102527E+03  0.89111089887E+02 0.  0.
          5    1    3    3  502    0  0.20402068070E+02  0.34288982251E+02  0.50204438091E+02  0.64264583476E+02  0.41800000000E+01 0.  1.
         -5    1    3    3    0  502 -0.11400635307E+03  0.33456602330E+02  0.22991278990E+02  0.12109031377E+03  0.41800000000E+01 0.  1.
        -11    1    4    4    0    0  0.50394067507E+02 -0.78297726239E+02 -0.34388106939E+02  0.99260454728E+02  0.00000000000E+00 0.  1.
         11    1    4    4    0    0  0.43210217496E+02  0.10552141658E+02 -0.59365701009E+02  0.74180570542E+02  0.00000000000E+00 0. -1.
</event>
<event>
 8    1  0.7192024E-009  0.1191252E+03  0.7561462E-02  0.1244547E+00
         -1   -1    0    0    0  501 -0.00000000000E+00  0.00000000000E+00  0.74395258100E+02  0.74395258100E+02  0.00000000000E+00 0.  1.
          1   -1    0    0  501    0  0.00000000000E+00 -0.00000000000E+00 -0.31011913693E+03  0.31011913693E+03  0.00000000000E+00 0. -1.
         25    2    1    2    0    0 -0.42081851293E+02  0.77254251769E+02 -0.52851628285E+02  0.16180214679E+03  0.12509012138E+03 0.  0.
         23    2    1    2    0    0  0.42081851293E+02 -0.77254251769E+02 -0.18287225054E+03  0.22271224824E+03  0.91757200666E+02 0.  0.
          5    1    3    3  502    0 -0.50278417705E+02  0.21508611875E+02  0.29234935712E+02  0.62150571501E+02  0.41800000000E+01 0.  1.
         -5    1    3    3    0  502  0.81965664128E+01  0.55745639894E+02 -0.82086563997E+02  0.99651575286E+02  0.41800000000E+01 0.  1.
        -11    1    4    4    0    0  0.71246861557E+02 -0.58943353007E+02 -0.13881286333E+03  0.16679162200E+03  0.00000000000E+00 0.  1.
         11    1    4    4    0    0 -0.29165010264E+02 -0.18310898762E+02 -0.44059387217E+02  0.55920626240E+02  0.00000000000E+00 0. -1.
</event>
<event>
 8    1  0.7192024E-009  0.2145478E+03  0.7561462E-02  0.1138014E+00
          2   -1    0    0  501    0  0.00000000000E+00  0.00000000000E+00  0.31921780016E+03  0.31921780016E+03  0.00000000000E+00 0. -1.
         -2   -1    0    0    0  501 -0.00000000000E+00 -0.00000000000E+00 -0.27501789952E+03  0.27501789952E+03  0.00000000000E+00 0.  1.
         25    2    1    2    0    0  0.18864039329E+03  0.14803649313E+02  0.22326892303E+03  0.31827681317E+03  0.12508705689E+03 0.  0.
         23    2    1    2    0    0 -0.18864039329E+03 -0.14803649313E+02 -0.17906902239E+03  0.27595888650E+03  0.91012341184E+02 0.  0.
          5    1    3    3  502    0  0.27817890804E+02  0.49561690377E+02  0.29934305818E+02  0.64371820438E+02  0.41800000000E+01 0.  1.
         -5    1    3    3    0  502  0.16082250248E+03 -0.34758041064E+02  0.19333461721E+03  0.25390499274E+03  0.41800000000E+01 0.  1.
        -11    1    4    4    0    0 -0.46779228323E+02  0.33634382390E+02 -0.31755998366E+02  0.65787622798E+02  0.00000000000E+00 0. -1.
         11    1    4    4    0    0 -0.14186116496E+03 -0.48438031702E+02 -0.14731302402E+03  0.21017126370E+03  0.00000000000E+00 0.  1.
</event>
<event>
 8    1  0.7192024E-009  0.2229911E+03  0.7561462E-02  0.1131673E+00
          1   -1    0    0  501    0  0.00000000000E+00  0.00000000000E+00  0.18706309754E+04  0.18706309754E+04  0.00000000000E+00 0. -1.
         -1   -1    0    0    0  501 -0.00000000000E+00 -0.00000000000E+00 -0.34234545103E+02  0.34234545103E+02  0.00000000000E+00 0.  1.
         25    2    1    2    0    0 -0.88043073424E+02 -0.17648448027E+03  0.13760016757E+04  0.13956815060E+04  0.12509156601E+03 0.  0.
         23    2    1    2    0    0  0.88043073424E+02  0.17648448027E+03  0.46039475458E+03  0.50918401456E+03  0.91687927724E+02 0.  0.
          5    1    3    3  502    0 -0.10517584711E+03 -0.72243575262E+02  0.77858351336E+03  0.78898089499E+03  0.41800000000E+01 0.  1.
         -5    1    3    3    0  502  0.17132773689E+02 -0.10424090501E+03  0.59741816239E+03  0.60670061098E+03  0.41800000000E+01 0.  1.
        -11    1    4    4    0    0 -0.62474913818E+01  0.70342844345E+02  0.20715620431E+03  0.21886260504E+03  0.00000000000E+00 0.  1.
         11    1    4    4    0    0  0.94290564806E+02  0.10614163592E+03  0.25323855027E+03  0.29032140953E+03  0.00000000000E+00 0. -1.
</event>
<event>
 8    1  0.7192024E-009  0.1141028E+03  0.7561462E-02  0.1253155E+00
          1   -1    0    0  501    0  0.00000000000E+00  0.00000000000E+00  0.15606049401E+03  0.15606049401E+03  0.00000000000E+00 0. -1.
         -1   -1    0    0    0  501 -0.00000000000E+00 -0.00000000000E+00 -0.10783427086E+03  0.10783427086E+03  0.00000000000E+00 0.  1.
         25    2    1    2    0    0 -0.59599986915E+02 -0.24634672643E+02 -0.14028172391E+02  0.14143226639E+03  0.12508905156E+03 0.  0.
         23    2    1    2    0    0  0.59599986915E+02  0.24634672643E+02  0.62254395543E+02  0.12246249848E+03  0.83441166302E+02 0.  0.
          5    1    3    3  502    0 -0.53226522576E+02 -0.67463063883E+02 -0.35317737499E+02  0.93000767072E+02  0.41800000000E+01 0.  1.
         -5    1    3    3    0  502 -0.63734643390E+01  0.42828391240E+02  0.21289565108E+02  0.48431499320E+02  0.41800000000E+01 0.  1.
        -11    1    4    4    0    0  0.70854203748E+01 -0.25258617246E+02 -0.10603856523E+01  0.26255006090E+02  0.00000000000E+00 0.  1.
         11    1    4    4    0    0  0.52514566540E+02  0.49893289888E+02  0.63314781195E+02  0.96207492393E+02  0.00000000000E+00 0. -1.
</event>
<event>
 8    1  0.7192024E-009  0.5425681E+02  0.7561462E-02  0.1423647E+00
          2   -1    0    0  501    0  0.00000000000E+00  0.00000000000E+00  0.35397525360E+02  0.35397525360E+02  0.00000000000E+00 0. -1.
         -2   -1    0    0    0  501 -0.00000000000E+00 -0.00000000000E+00 -0.33839807868E+03  0.33839807868E+03  0.00000000000E+00 0.  1.
         25    2    1    2    0    0  0.12471040130E+02  0.20553942217E+01 -0.15841922546E+03  0.20225238883E+03  0.12509846643E+03 0.  0.
         23    2    1    2    0    0 -0.12471040130E+02 -0.20553942217E+01 -0.14458132786E+03  0.17154321522E+03  0.91452516823E+02 0.  0.
          5    1    3    3  502    0 -0.19434411061E+02 -0.20007232420E+02  0.95767772768E+01  0.29785445194E+02  0.41800000000E+01 0.  1.
         -5    1    3    3    0  502  0.31905451190E+02  0.22062626642E+02 -0.16799600274E+03  0.17246694363E+03  0.41800000000E+01 0.  1.
        -11    1    4    4    0    0 -0.26601063091E+02 -0.44267091797E+01 -0.15270836490E+03  0.15507113536E+03  0.00000000000E+00 0.  1.
         11    1    4    4    0    0  0.14130022961E+02  0.23713149581E+01  0.81270370430E+01  0.16472079851E+02  0.00000000000E+00 0. -1.
</event>
<event>
 8    1  0.7192024E-009  0.2148700E+03  0.7561462E-02  0.1137766E+00
          1   -1    0    0  501    0  0.00000000000E+00  0.00000000000E+00  0.36219072849E+03  0.36219072849E+03  0.00000000000E+00 0. -1.
         -1   -1    0    0    0  501 -0.00000000000E+00 -0.00000000000E+00 -0.16709258745E+03  0.16709258745E+03  0.00000000000E+00 0.  1.
         25    2    1    2    0    0  0.62030841556E+02  0.20456061486E+03  0.40736222701E+02  0.25099668394E+03  0.12508806919E+03 0.  0.
         23    2    1    2    0    0 -0.62030841556E+02 -0.20456061486E+03  0.15436191834E+03  0.27828663200E+03  0.89011107514E+02 0.  0.
          5    1    3    3  502    0  0.64346876601E+02  0.18982962341E+03  0.74478711306E+02  0.21386995415E+03  0.41800000000E+01 0.  1.
         -5    1    3    3    0  502 -0.23160350454E+01  0.14730991448E+02 -0.33742488605E+02  0.37126729786E+02  0.41800000000E+01 0.  1.
        -11    1    4    4    0    0 -0.18316366457E+02 -0.63990778057E+02  0.22397938503E+01  0.66598240465E+02  0.00000000000E+00 0.  1.
         11    1    4    4    0    0 -0.43714475099E+02 -0.14056983680E+03  0.15212212449E+03  0.21168839153E+03  0.00000000000E+00 0. -1.
</event>
<event>
 8    1  0.7192024E-009  0.8489184E+02  0.7561462E-02  0.1315716E+00
          1   -1    0    0  501    0  0.00000000000E+00  0.00000000000E+00  0.12770532783E+03  0.12770532783E+03  0.00000000000E+00 0. -1.
         -1   -1    0    0    0  501 -0.00000000000E+00 -0.00000000000E+00 -0.11108923541E+03  0.11108923541E+03  0.00000000000E+00 0.  1.
         25    2    1    2    0    0 -0.40324850560E+02  0.20618762793E+02  0.33609115616E+02  0.13722131438E+03  0.12509552157E+03 0.  0.
         23    2    1    2    0    0  0.40324850560E+02 -0.20618762793E+02 -0.16993023200E+02  0.10157324886E+03  0.89314808931E+02 0.  0.
          5    1    3    3  502    0 -0.39749973902E+02  0.42050057898E+02 -0.33261646055E+02  0.66873591893E+02  0.41800000000E+01 0.  1.
         -5    1    3    3    0  502 -0.57487665840E+00 -0.21431295105E+02  0.66870761671E+02  0.70347722490E+02  0.41800000000E+01 0.  1.
        -11    1    4    4    0    0  0.39498627395E+02  0.23393216278E+02  0.13702985748E+02  0.47907785926E+02  0.00000000000E+00 0. -1.
         11    1    4    4    0    0  0.82622316465E+00 -0.44011979071E+02 -0.30696008947E+02  0.53665462932E+02  0.00000000000E+00 0.  1.
</event>
<event>
 8    1  0.7192024E-009  0.9366857E+02  0.7561462E-02  0.1294203E+00
          2   -1    0    0  501    0  0.00000000000E+00  0.00000000000E+00  0.93911799061E+03  0.93911799061E+03  0.00000000000E+00 0. -1.
         -2   -1    0    0    0  501 -0.00000000000E+00 -0.00000000000E+00 -0.17077461302E+02  0.17077461302E+02  0.00000000000E+00 0.  1.
         25    2    1    2    0    0 -0.65317036389E+02  0.25935254536E+01  0.48953635549E+03  0.50947754056E+03  0.12509388220E+03 0.  0.
         23    2    1    2    0    0  0.65317036389E+02 -0.25935254536E+01  0.43250417381E+03  0.44671791135E+03  0.90686219139E+02 0.  0.
          5    1    3    3  502    0 -0.26442788384E+02  0.35284925875E+02  0.42472448163E+03  0.42702763932E+03  0.41800000000E+01 0.  1.
         -5    1    3    3    0  502 -0.38874248005E+02 -0.32691400422E+02  0.64811873864E+02  0.82449901233E+02  0.41800000000E+01 0.  1.
        -11    1    4    4    0    0  0.62718175769E+02 -0.26461612389E+02  0.40285986106E+03  0.40857050084E+03  0.00000000000E+00 0. -1.
         11    1    4    4    0    0  0.25988606202E+01  0.23868086935E+02  0.29644312755E+02  0.38147410518E+02  0.00000000000E+00 0.  1.
</event>
<event>
 8    1  0.7192024E-009  0.1216534E+03  0.7561462E-02  0.1240394E+00
         -1   -1    0    0    0  501 -0.00000000000E+00  0.00000000000E+00  0.25555439809E+03  0.25555439809E+03  0.00000000000E+00 0.  1.
          1   -1    0    0  501    0  0.00000000000E+00 -0.00000000000E+00 -0.70556173199E+02  0.70556173199E+02  0.00000000000E+00 0. -1.
         25    2    1    2    0    0  0.54741613082E+02 -0.43253929585E+02  0.14372543078E+03  0.20290877874E+03  0.12508967346E+03 0.  0.
         23    2    1    2    0    0 -0.54741613082E+02  0.43253929585E+02  0.41272794105E+02  0.12320179255E+03  0.92777645619E+02 0.  0.
          5    1    3    3  502    0  0.86246777152E+02 -0.16352175056E+02  0.51849681380E+02  0.10203804221E+03  0.41800000000E+01 0. -1.
         -5    1    3    3    0  502 -0.31505164070E+02 -0.26901754528E+02  0.91875749402E+02  0.10087073653E+03  0.41800000000E+01 0. -1.
        -11    1    4    4    0    0 -0.23602091189E+02  0.69287651973E+02  0.14615406111E+02  0.74642129661E+02  0.00000000000E+00 0.  1.
         11    1    4    4    0    0 -0.31139521893E+02 -0.26033722388E+02  0.26657387994E+02  0.48559662888E+02  0.00000000000E+00 0. -1.
</event>
<event>
 8    1  0.7192024E-009  0.1529210E+03  0.7561462E-02  0.1196929E+00
         -1   -1    0    0    0  501 -0.00000000000E+00  0.00000000000E+00  0.62389670904E+02  0.62389670904E+02  0.00000000000E+00 0.  1.
          1   -1    0    0  501    0  0.00000000000E+00 -0.00000000000E+00 -0.39310704694E+03  0.39310704694E+03  0.00000000000E+00 0. -1.
         25    2    1    2    0    0 -0.66703304143E+01  0.11199016717E+03 -0.18643350271E+03  0.25098081644E+03  0.12509048100E+03 0.  0.
         23    2    1    2    0    0  0.66703304143E+01 -0.11199016717E+03 -0.14428387333E+03  0.20451590140E+03  0.91774871145E+02 0.  0.
          5    1    3    3  502    0  0.48905821684E+02  0.91238235272E+01 -0.43049492056E+02  0.65922338525E+02  0.41800000000E+01 0. -1.
         -5    1    3    3    0  502 -0.55576152098E+02  0.10286634365E+03 -0.14338401065E+03  0.18505847791E+03  0.41800000000E+01 0. -1.
        -11    1    4    4    0    0  0.15071593133E+02 -0.12364247885E+03 -0.10575948387E+03  0.16340037920E+03  0.00000000000E+00 0. -1.
         11    1    4    4    0    0 -0.84012627183E+01  0.11652311678E+02 -0.38524389456E+02  0.41115522198E+02  0.00000000000E+00 0.  1.
</event>
<event>
 8    1  0.7192024E-009  0.1131957E+03  0.7561462E-02  0.1254764E+00
          1   -1    0    0  501    0  0.00000000000E+00  0.00000000000E+00  0.19574189941E+03  0.19574189941E+03  0.00000000000E+00 0. -1.
         -1   -1    0    0    0  501 -0.00000000000E+00 -0.00000000000E+00 -0.71909799732E+02  0.71909799732E+02  0.00000000000E+00 0.  1.
         25    2    1    2    0    0 -0.30190803594E+02  0.27746383270E+02  0.97634349930E+02  0.16388984335E+03  0.12508424386E+03 0.  0.
         23    2    1    2    0    0  0.30190803594E+02 -0.27746383270E+02  0.26197749752E+02  0.10376185579E+03  0.91645262939E+02 0.  0.
          5    1    3    3  502    0  0.21906120605E+01 -0.48479909343E+02  0.36056694668E+02  0.60602458873E+02  0.41800000000E+01 0. -1.
         -5    1    3    3    0  502 -0.32381415654E+02  0.76226292613E+02  0.61577655263E+02  0.10328738448E+03  0.41800000000E+01 0. -1.
        -11    1    4    4    0    0 -0.25113958705E+02 -0.30348166378E+02 -0.57970097818E+01  0.39816170669E+02  0.00000000000E+00 0.  1.
         11    1    4    4    0    0  0.55304762298E+02  0.26017831086E+01  0.31994759534E+02  0.63945685123E+02  0.00000000000E+00 0. -1.
</event>
<event>
 8    1  0.7192024E-009  0.1003782E+03  0.7561462E-02  0.1279503E+00
          2   -1    0    0  501    0  0.00000000000E+00  0.00000000000E+00  0.23743366764E+03  0.23743366764E+03  0.00000000000E+00 0.  1.
         -2   -1    0    0    0  501 -0.00000000000E+00 -0.00000000000E+00 -0.62434064221E+02  0.62434064221E+02  0.00000000000E+00 0. -1.
         25    2    1    2    0    0  0.30766143618E+02  0.17038006750E+02  0.42417345220E+02  0.13668780734E+03  0.12508987262E+03 0.  0.
         23    2    1    2    0    0 -0.30766143618E+02 -0.17038006750E+02  0.13258225819E+03  0.16317992452E+03  0.88389950278E+02 0.  0.
          5    1    3    3  502    0 -0.43682914172E+02 -0.17031670447E+02  0.78707863478E+01  0.47725218350E+02  0.41800000000E+01 0.  1.
         -5    1    3    3    0  502  0.74449057790E+02  0.34069677197E+02  0.34546558872E+02  0.88962588991E+02  0.41800000000E+01 0.  1.
        -11    1    4    4    0    0 -0.48650084364E+02 -0.21626670349E+02  0.34651230302E+02  0.63523628206E+02  0.00000000000E+00 0. -1.
         11    1    4    4    0    0  0.17883940746E+02  0.45886635994E+01  0.97931027893E+02  0.99656296311E+02  0.00000000000E+00 0.  1.
</event>
<event>
 8    1  0.7192024E-009  0.1418398E+03  0.7561462E-02  0.1210875E+00
          1   -1    0    0  501    0  0.00000000000E+00  0.00000000000E+00  0.14049257743E+03  0.14049257743E+03  0.00000000000E+00 0. -1.
         -1   -1    0    0    0  501 -0.00000000000E+00 -0.00000000000E+00 -0.21588900611E+03  0.21588900611E+03  0.00000000000E+00 0.  1.
         25    2    1    2    0    0 -0.54571582310E+02 -0.11872033963E+03 -0.73310828965E+02  0.19517515237E+03  0.12508511431E+03 0.  0.
         23    2    1    2    0    0  0.54571582310E+02  0.11872033963E+03 -0.20855997117E+01  0.16120643116E+03  0.94395906071E+02 0.  0.
          5    1    3    3  502    0 -0.18997414923E+02 -0.10241691094E+03 -0.10248394764E+03  0.14618672082E+03  0.41800000000E+01 0.  1.
         -5    1    3    3    0  502 -0.35574167387E+02 -0.16303428692E+02  0.29173118677E+02  0.48988431550E+02  0.41800000000E+01 0.  1.
        -11    1    4    4    0    0  0.63547563463E+02  0.11232738757E+03 -0.28867266646E+02  0.13224618673E+03  0.00000000000E+00 0.  1.
         11    1    4    4    0    0 -0.89759811523E+01  0.63929520599E+01  0.26781666934E+02  0.28960244431E+02  0.00000000000E+00 0. -1.
</event>
<event>
 8    1  0.7192024E-009  0.1845655E+03  0.7561462E-02  0.1163456E+00
          2   -1    0    0  501    0  0.00000000000E+00  0.00000000000E+00  0.62158865472E+03  0.62158865472E+03  0.00000000000E+00 0. -1.
         -2   -1    0    0    0  501 -0.00000000000E+00 -0.00000000000E+00 -0.61803330465E+02  0.61803330465E+02  0.00000000000E+00 0.  1.
         25    2    1    2    0    0 -0.76092484062E+02 -0.14315837514E+03  0.32187931376E+03  0.38149435905E+03  0.12508903571E+03 0.  0.
         23    2    1    2    0    0  0.76092484062E+02  0.14315837514E+03  0.23790601049E+03  0.30189762613E+03  0.90876401412E+02 0.  0.
          5    1    3    3  502    0 -0.52333442722E+01  0.11850656001E+02 -0.35879863181E+01  0.14077357200E+02  0.41800000000E+01 0.  1.
         -5    1    3    3    0  502 -0.70859139790E+02 -0.15500903114E+03  0.32546730008E+03  0.36741700185E+03  0.41800000000E+01 0.  1.
        -11    1    4    4    0    0  0.49957094694E+02  0.12113934078E+02  0.53806673275E+02  0.74415165108E+02  0.00000000000E+00 0.  1.
         11    1    4    4    0    0  0.26135389368E+02  0.13104444106E+03  0.18409933721E+03  0.22748246102E+03  0.00000000000E+00 0. -1.
</event>
<event>
 8    1  0.7192024E-009  0.7577619E+02  0.7561462E-02  0.1341484E+00
         -1   -1    0    0    0  501 -0.00000000000E+00  0.00000000000E+00  0.11229998048E+03  0.11229998048E+03  0.00000000000E+00 0.  1.
          1   -1    0    0  501    0  0.00000000000E+00 -0.00000000000E+00 -0.14033958526E+03  0.14033958526E+03  0.00000000000E+00 0. -1.
         25    2    1    2    0    0  0.36834122588E+02  0.38222032277E+02 -0.50416810381E+02  0.14494026541E+03  0.12509256344E+03 0.  0.
         23    2    1    2    0    0 -0.36834122588E+02 -0.38222032277E+02  0.22377205598E+02  0.10769930033E+03  0.90998481434E+02 0.  0.
          5    1    3    3  502    0  0.37049633036E+01  0.14189393708E+02  0.41512612681E+02  0.44224824008E+02  0.41800000000E+01 0.  1.
         -5    1    3    3    0  502  0.33129159284E+02  0.24032638570E+02 -0.91929423062E+02  0.10071544140E+03  0.41800000000E+01 0.  1.
        -11    1    4    4    0    0 -0.44467210943E+02 -0.58507678597E+02 -0.39548833437E+01  0.73594309605E+02  0.00000000000E+00 0. -1.
         11    1    4    4    0    0  0.76330883553E+01  0.20285646320E+02  0.26332088942E+02  0.34104990727E+02  0.00000000000E+00 0.  1.
</event>
<event>
 8    1  0.7192024E-009  0.1261514E+03  0.7561462E-02  0.1233281E+00
         -1   -1    0    0    0  501 -0.00000000000E+00  0.00000000000E+00  0.26501006889E+03  0.26501006889E+03  0.00000000000E+00 0.  1.
          1   -1    0    0  501    0  0.00000000000E+00 -0.00000000000E+00 -0.64601988573E+02  0.64601988573E+02  0.00000000000E+00 0. -1.
         25    2    1    2    0    0 -0.55966900795E+02 -0.47642934813E+02  0.99575137994E+02  0.17596819609E+03  0.12508978658E+03 0.  0.
         23    2    1    2    0    0  0.55966900795E+02  0.47642934813E+02  0.10083294232E+03  0.15364386138E+03  0.89649376229E+02 0.  0.
          5    1    3    3  502    0 -0.67038149095E+01 -0.82623070461E+02  0.44850653897E+02  0.94342813514E+02  0.41800000000E+01 0.  1.
         -5    1    3    3    0  502 -0.49263085886E+02  0.34980135647E+02  0.54724484096E+02  0.81625382575E+02  0.41800000000E+01 0.  1.
        -11    1    4    4    0    0 -0.20849849202E+02  0.11996907433E+02  0.48381508525E+02  0.54031586751E+02  0.00000000000E+00 0. -1.
         11    1    4    4    0    0  0.76816749997E+02  0.35646027380E+02  0.52451433799E+02  0.99612274624E+02  0.00000000000E+00 0.  1.
</event>
<event>
 8    1  0.7192024E-009  0.1395868E+03  0.7561462E-02  0.1213886E+00
         -4   -1    0    0    0  501 -0.00000000000E+00  0.00000000000E+00  0.97310494261E+03  0.97310494261E+03  0.00000000000E+00 0.  1.
          4   -1    0    0  501    0  0.00000000000E+00 -0.00000000000E+00 -0.26996909449E+02  0.26996909449E+02  0.00000000000E+00 0. -1.
         25    2    1    2    0    0 -0.11480782457E+03 -0.92830619354E+01  0.40704049788E+03  0.44113170284E+03  0.12509276765E+03 0.  0.
         23    2    1    2    0    0  0.11480782457E+03  0.92830619354E+01  0.53906753529E+03  0.55897014922E+03  0.92665032756E+02 0.  0.
          5    1    3    3  502    0 -0.54948196743E+01  0.38321927637E+02  0.42855446252E+02  0.57903582398E+02  0.41800000000E+01 0.  1.
         -5    1    3    3    0  502 -0.10931300490E+03 -0.47604989572E+02  0.36418505162E+03  0.38322812044E+03  0.41800000000E+01 0.  1.
        -11    1    4    4    0    0  0.38136270191E+02 -0.14279555041E+02  0.55731460781E+02  0.69023738794E+02  0.00000000000E+00 0. -1.
         11    1    4    4    0    0  0.76671554381E+02  0.23562616976E+02  0.48333607451E+03  0.48994641043E+03  0.00000000000E+00 0.  1.
</event>
<event>
 8    1  0.7192024E-009  0.7944226E+02  0.7561462E-02  0.1330642E+00
         -1   -1    0    0    0  501 -0.00000000000E+00  0.00000000000E+00  0.15959080471E+03  0.15959080471E+03  0.00000000000E+00 0.  1.
          1   -1    0    0  501    0  0.00000000000E+00 -0.00000000000E+00 -0.11988778202E+03  0.11988778202E+03  0.00000000000E+00 0. -1.
         25    2    1    2    0    0 -0.51479198879E+01 -0.51854788750E+02 -0.47003731655E+02  0.14343441711E+03  0.12509460831E+03 0.  0.
         23    2    1    2    0    0  0.51479198879E+01  0.51854788750E+02  0.86706754345E+02  0.13604416962E+03  0.90964469122E+02 0.  0.
          5    1    3    3  502    0 -0.89975480859E+01 -0.30206896227E+02 -0.89732536381E+02  0.95198807433E+02  0.41800000000E+01 0. -1.
         -5    1    3    3    0  502  0.38496281979E+01 -0.21647892523E+02  0.42728804726E+02  0.48235609681E+02  0.41800000000E+01 0. -1.
        -11    1    4    4    0    0 -0.34753546737E+02  0.54589867104E+02  0.56780294918E+02  0.86092186012E+02  0.00000000000E+00 0. -1.
         11    1    4    4    0    0  0.39901466625E+02 -0.27350783542E+01  0.29926459427E+02  0.49951983607E+02  0.00000000000E+00 0.  1.
</event>
<event>
 8    1  0.7192024E-009  0.1077580E+03  0.7561462E-02  0.1264779E+00
          2   -1    0    0  501    0  0.00000000000E+00  0.00000000000E+00  0.24747053167E+03  0.24747053167E+03  0.00000000000E+00 0. -1.
         -2   -1    0    0    0  501 -0.00000000000E+00 -0.00000000000E+00 -0.93633092275E+02  0.93633092275E+02  0.00000000000E+00 0.  1.
         25    2    1    2    0    0  0.58626978067E+02  0.80305277040E+02  0.34961242136E+02  0.16356999273E+03  0.12508714559E+03 0.  0.
         23    2    1    2    0    0 -0.58626978067E+02 -0.80305277040E+02  0.11887619726E+03  0.17753363122E+03  0.86605888144E+02 0.  0.
          5    1    3    3  502    0 -0.52007373433E+01  0.10483276887E+02  0.63473592531E+02  0.64678559909E+02  0.41800000000E+01 0.  1.
         -5    1    3    3    0  502  0.63827715410E+02  0.69822000153E+02 -0.28512350394E+02  0.98891432818E+02  0.41800000000E+01 0.  1.
        -11    1    4    4    0    0 -0.46264966021E+02 -0.26766036311E+02  0.83442463914E+01  0.54097081516E+02  0.00000000000E+00 0.  1.
         11    1    4    4    0    0 -0.12362012046E+02 -0.53539240729E+02  0.11053195087E+03  0.12343654970E+03  0.00000000000E+00 0. -1.
</event>
<event>
 8    1  0.7192024E-009  0.1192922E+03  0.7561462E-02  0.1244269E+00
         -2   -1    0    0    0  501 -0.00000000000E+00  0.00000000000E+00  0.19927960612E+02  0.19927960612E+02  0.00000000000E+00 0.  1.
          2   -1    0    0  501    0  0.00000000000E+00 -0.00000000000E+00 -0.99599670133E+03  0.99599670133E+03  0.00000000000E+00 0. -1.
         25    2    1    2    0    0  0.74416759473E+02 -0.34832926502E+02 -0.40574997191E+03  0.43247291652E+03  0.12509435222E+03 0.  0.
         23    2    1    2    0    0 -0.74416759473E+02  0.34832926502E+02 -0.57031876880E+03  0.58345174542E+03  0.91658356552E+02 0.  0.
          5    1    3    3  502    0  0.74207329633E+02  0.11076432361E+02 -0.35913550208E+03  0.36691306379E+03  0.41800000000E+01 0. -1.
         -5    1    3    3    0  502  0.20942983942E+00 -0.45909358863E+02 -0.46614469827E+02  0.65559852725E+02  0.41800000000E+01 0. -1.
        -11    1    4    4    0    0 -0.93229671561E+02  0.29467549406E+02 -0.52595455976E+03  0.53496570643E+03  0.00000000000E+00 0. -1.
         11    1    4    4    0    0  0.18812912088E+02  0.53653770959E+01 -0.44364209041E+02  0.48486038985E+02  0.00000000000E+00 0.  1.
</event>
<event>
 8    1  0.7192024E-009  0.9268785E+02  0.7561462E-02  0.1296470E+00
          1   -1    0    0  501    0  0.00000000000E+00  0.00000000000E+00  0.27210676497E+03  0.27210676497E+03  0.00000000000E+00 0. -1.
         -1   -1    0    0    0  501 -0.00000000000E+00 -0.00000000000E+00 -0.71004355839E+02  0.71004355839E+02  0.00000000000E+00 0.  1.
         25    2    1    2    0    0  0.55712202211E+02  0.39815542317E+02  0.45236139168E+02  0.14959980613E+03  0.12507864255E+03 0.  0.
         23    2    1    2    0    0 -0.55712202211E+02 -0.39815542317E+02  0.15586626996E+03  0.19351131467E+03  0.91995695060E+02 0.  0.
          5    1    3    3  502    0 -0.68244816561E+01 -0.33236484904E+01  0.69267576761E+02  0.69807519505E+02  0.41800000000E+01 0. -1.
         -5    1    3    3    0  502  0.62536683867E+02  0.43139190808E+02 -0.24031437593E+02  0.79792286629E+02  0.41800000000E+01 0. -1.
        -11    1    4    4    0    0 -0.41181411633E+02 -0.61803594863E+02  0.14867503252E+03  0.16619223296E+03  0.00000000000E+00 0. -1.
         11    1    4    4    0    0 -0.14530790578E+02  0.21988052546E+02  0.71912374410E+01  0.27319081711E+02  0.00000000000E+00 0.  1.
</event>
<event>
 8    1  0.7192024E-009  0.1020897E+03  0.7561462E-02  0.1275962E+00
         -1   -1    0    0    0  501 -0.00000000000E+00  0.00000000000E+00  0.42142467422E+03  0.42142467422E+03  0.00000000000E+00 0.  1.
          1   -1    0    0  501    0  0.00000000000E+00 -0.00000000000E+00 -0.42805320978E+02  0.42805320978E+02  0.00000000000E+00 0. -1.
         25    2    1    2    0    0  0.25367476165E+02 -0.59415531381E+01  0.77508738583E+02  0.14944250483E+03  0.12508655720E+03 0.  0.
         23    2    1    2    0    0 -0.25367476165E+02  0.59415531381E+01  0.30111061466E+03  0.31478749037E+03  0.88004266568E+02 0.  0.
          5    1    3    3  502    0  0.93950298721E+01 -0.57543044255E+02  0.75157037999E+02  0.95213031090E+02  0.41800000000E+01 0.  1.
         -5    1    3    3    0  502  0.15972446293E+02  0.51601491117E+02  0.23517005838E+01  0.54229473736E+02  0.41800000000E+01 0.  1.
        -11    1    4    4    0    0 -0.21295933510E+02 -0.40058033499E+02  0.16044699287E+03  0.16673751934E+03  0.00000000000E+00 0.  1.
         11    1    4    4    0    0 -0.40715426548E+01  0.45999586638E+02  0.14066362178E+03  0.14804997104E+03  0.00000000000E+00 0. -1.
</event>
<event>
 8    1  0.7192024E-009  0.1095517E+03  0.7561462E-02  0.1261402E+00
          2   -1    0    0  501    0  0.00000000000E+00  0.00000000000E+00  0.17652993772E+03  0.17652993772E+03  0.00000000000E+00 0. -1.
         -2   -1    0    0    0  501 -0.00000000000E+00 -0.00000000000E+00 -0.10457098694E+03  0.10457098694E+03  0.00000000000E+00 0.  1.
         25    2    1    2    0    0 -0.77362237561E+02  0.34418374918E+01  0.66787781009E+02  0.16156925372E+03  0.12508898437E+03 0.  0.
         23    2    1    2    0    0  0.77362237561E+02 -0.34418374918E+01  0.51711697609E+01  0.11953167094E+03  0.90908290685E+02 0.  0.
          5    1    3    3  502    0 -0.10373948078E+03  0.21893905721E+02  0.25643743876E+02  0.10916179267E+03  0.41800000000E+01 0.  1.
         -5    1    3    3    0  502  0.26377243217E+02 -0.18452068229E+02  0.41144037133E+02  0.52407461046E+02  0.41800000000E+01 0.  1.
        -11    1    4    4    0    0  0.45828389022E+02  0.88781374618E+01 -0.41101526940E+02  0.62196447503E+02  0.00000000000E+00 0.  1.
         11    1    4    4    0    0  0.31533848539E+02 -0.12319974954E+02  0.46272696701E+02  0.57335223437E+02  0.00000000000E+00 0. -1.
</event>
<event>
 8    1  0.7192024E-009  0.8364746E+02  0.7561462E-02  0.1319008E+00
         -2   -1    0    0    0  501 -0.00000000000E+00  0.00000000000E+00  0.59606534775E+02  0.59606534775E+02  0.00000000000E+00 0.  1.
          2   -1    0    0  501    0  0.00000000000E+00 -0.00000000000E+00 -0.26292937496E+03  0.26292937496E+03  0.00000000000E+00 0. -1.
         25    2    1    2    0    0 -0.48076711751E+02  0.92390206138E+01 -0.91475791617E+02  0.16251751056E+03  0.12508953222E+03 0.  0.
         23    2    1    2    0    0  0.48076711751E+02 -0.92390206138E+01 -0.11184704857E+03  0.16001839918E+03  0.10343788516E+03 0.  0.
          5    1    3    3  502    0  0.14470521064E+02 -0.26677991329E+01 -0.97253325883E+02  0.98448945791E+02  0.41800000000E+01 0.  1.
         -5    1    3    3    0  502 -0.62547232815E+02  0.11906819747E+02  0.57775342662E+01  0.64068564768E+02  0.41800000000E+01 0.  1.
        -11    1    4    4    0    0  0.65356297784E+02 -0.19362433065E+02 -0.27794666732E+02  0.73613130438E+02  0.00000000000E+00 0.  1.
         11    1    4    4    0    0 -0.17279586033E+02  0.10123412451E+02 -0.84052381838E+02  0.86405268739E+02  0.00000000000E+00 0. -1.
</event>
<event>
 8    1  0.7192024E-009  0.1544185E+03  0.7561462E-02  0.1195146E+00
         -1   -1    0    0    0  501 -0.00000000000E+00  0.00000000000E+00  0.19942870884E+02  0.19942870884E+02  0.00000000000E+00 0.  1.
          1   -1    0    0  501    0  0.00000000000E+00 -0.00000000000E+00 -0.13621930114E+04  0.13621930114E+04  0.00000000000E+00 0. -1.
         25    2    1    2    0    0  0.12057100491E+03 -0.77738815374E+01 -0.60352828355E+03  0.62808724278E+03  0.12509754212E+03 0.  0.
         23    2    1    2    0    0 -0.12057100491E+03  0.77738815374E+01 -0.73872185697E+03  0.75404863950E+03  0.91003122554E+02 0.  0.
          5    1    3    3  502    0  0.13872168982E+03 -0.79816621415E+01 -0.58683190037E+03  0.60307260413E+03  0.41800000000E+01 0.  1.
         -5    1    3    3    0  502 -0.18150684916E+02  0.20778060412E+00 -0.16696383175E+02  0.25014638651E+02  0.41800000000E+01 0.  1.
        -11    1    4    4    0    0 -0.28785893088E+02  0.43950967847E+02 -0.24641598428E+03  0.25195466363E+03  0.00000000000E+00 0. -1.
         11    1    4    4    0    0 -0.91785111820E+02 -0.36177086309E+02 -0.49230587269E+03  0.50209397587E+03  0.00000000000E+00 0.  1.
</event>
<event>
 8    1  0.7192024E-009  0.1311214E+03  0.7561462E-02  0.1225801E+00
         -1   -1    0    0    0  501 -0.00000000000E+00  0.00000000000E+00  0.30227443948E+02  0.30227443948E+02  0.00000000000E+00 0.  1.
          1   -1    0    0  501    0  0.00000000000E+00 -0.00000000000E+00 -0.64687262618E+03  0.64687262618E+03  0.00000000000E+00 0. -1.
         25    2    1    2    0    0 -0.50618435429E+02 -0.67750610790E+02 -0.39574370492E+03  0.42357069808E+03  0.12508671000E+03 0.  0.
         23    2    1    2    0    0  0.50618435429E+02  0.67750610790E+02 -0.22090147730E+03  0.25352937204E+03  0.91254087832E+02 0.  0.
          5    1    3    3  502    0 -0.33087638607E+02  0.33760647400E+02 -0.11016072209E+03  0.11994761453E+03  0.41800000000E+01 0. -1.
         -5    1    3    3    0  502 -0.17530796822E+02 -0.10151125819E+03 -0.28558298284E+03  0.30362308355E+03  0.41800000000E+01 0. -1.
        -11    1    4    4    0    0  0.20101401707E+02  0.77174566373E+02 -0.96985092205E+02  0.12556308437E+03  0.00000000000E+00 0.  1.
         11    1    4    4    0    0  0.30517033722E+02 -0.94239555830E+01 -0.12391638510E+03  0.12796628768E+03  0.00000000000E+00 0. -1.
</event>
<event>
 8    1  0.7192024E-009  0.6713630E+02  0.7561462E-02  0.1370111E+00
         -1   -1    0    0    0  501 -0.00000000000E+00  0.00000000000E+00  0.17793833353E+02  0.17793833353E+02  0.00000000000E+00 0.  1.
          1   -1    0    0  501    0  0.00000000000E+00 -0.00000000000E+00 -0.11451247551E+04  0.11451247551E+04  0.00000000000E+00 0. -1.
         25    2    1    2    0    0 -0.59141673042E+02  0.10753490069E+02 -0.89297867507E+03  0.90369832734E+03  0.12508548145E+03 0.  0.
         23    2    1    2    0    0  0.59141673042E+02 -0.10753490069E+02 -0.23435224664E+03  0.25922026107E+03  0.93063382745E+02 0.  0.
          5    1    3    3  502    0 -0.55739823351E+01  0.25742977060E+01 -0.76007411754E+03  0.76011040832E+03  0.41800000000E+01 0. -1.
         -5    1    3    3    0  502 -0.53567690707E+02  0.81791923631E+01 -0.13290455753E+03  0.14358791901E+03  0.41800000000E+01 0. -1.
        -11    1    4    4    0    0  0.48884698202E+02 -0.25027137371E+02 -0.23529411998E+03  0.24161828205E+03  0.00000000000E+00 0. -1.
         11    1    4    4    0    0  0.10256974840E+02  0.14273647302E+02  0.94187334257E+00  0.17601979024E+02  0.00000000000E+00 0.  1.
</event>
<event>
 8    1  0.7192024E-009  0.1227129E+03  0.7561462E-02  0.1238688E+00
         -1   -1    0    0    0  501 -0.00000000000E+00  0.00000000000E+00  0.93839136206E+02  0.93839136206E+02  0.00000000000E+00 0.  1.
          1   -1    0    0  501    0  0.00000000000E+00 -0.00000000000E+00 -0.23134015372E+03  0.23134015372E+03  0.00000000000E+00 0. -1.
         25    2    1    2    0    0 -0.55160705956E+02 -0.73716168743E+02 -0.31573463059E+02  0.15849447743E+03  0.12508732466E+03 0.  0.
         23    2    1    2    0    0  0.55160705956E+02  0.73716168743E+02 -0.10592755445E+03  0.16668481249E+03  0.89924428871E+02 0.  0.
          5    1    3    3  502    0  0.21592043026E+02 -0.80395799429E+01  0.31560066043E+02  0.39298363024E+02  0.41800000000E+01 0. -1.
         -5    1    3    3    0  502 -0.76752748983E+02 -0.65676588800E+02 -0.63133529103E+02  0.11919611441E+03  0.41800000000E+01 0. -1.
        -11    1    4    4    0    0 -0.89275581506E+01 -0.11324544485E+02  0.25861657977E+01  0.14650421696E+02  0.00000000000E+00 0.  1.
         11    1    4    4    0    0  0.64088264107E+02  0.85040713228E+02 -0.10851372025E+03  0.15203439080E+03  0.00000000000E+00 0. -1.
</event>
<event>
 8    1  0.7192024E-009  0.1587348E+03  0.7561462E-02  0.1190133E+00
          1   -1    0    0  501    0  0.00000000000E+00  0.00000000000E+00  0.17734601804E+03  0.17734601804E+03  0.00000000000E+00 0. -1.
         -1   -1    0    0    0  501 -0.00000000000E+00 -0.00000000000E+00 -0.18151935404E+03  0.18151935404E+03  0.00000000000E+00 0.  1.
         25    2    1    2    0    0 -0.12734857448E+03 -0.60356664127E+02 -0.22578701044E+02  0.18978116673E+03  0.12508599913E+03 0.  0.
         23    2    1    2    0    0  0.12734857448E+03  0.60356664127E+02  0.18405365046E+02  0.16908420534E+03  0.91597623913E+02 0.  0.
          5    1    3    3  502    0 -0.38446843055E+02 -0.55914314872E+02 -0.62304448712E+02  0.92216522803E+02  0.41800000000E+01 0. -1.
         -5    1    3    3    0  502 -0.88901731427E+02 -0.44423492545E+01  0.39725747668E+02  0.97564643932E+02  0.41800000000E+01 0. -1.
        -11    1    4    4    0    0  0.37311108597E+02  0.59620354050E+02  0.33304042837E+02  0.77819436589E+02  0.00000000000E+00 0. -1.
         11    1    4    4    0    0  0.90037465885E+02  0.73631007671E+00 -0.14898677791E+02  0.91264768753E+02  0.00000000000E+00 0.  1.
</event>
<event>
 8    1  0.7192024E-009  0.1070856E+03  0.7561462E-02  0.1266064E+00
          2   -1    0    0  501    0  0.00000000000E+00  0.00000000000E+00  0.20580991297E+03  0.20580991297E+03  0.00000000000E+00 0. -1.
         -2   -1    0    0    0  501 -0.00000000000E+00 -0.00000000000E+00 -0.63226671861E+02  0.63226671861E+02  0.00000000000E+00 0.  1.
         25    2    1    2    0    0 -0.15378573991E+02  0.77705055575E+01  0.42453201834E+02  0.13321629096E+03  0.12508966598E+03 0.  0.
         23    2    1    2    0    0  0.15378573991E+02 -0.77705055575E+01  0.10013003927E+03  0.13582029387E+03  0.90134600285E+02 0.  0.
          5    1    3    3  502    0  0.50261276127E+02 -0.19487208304E+02  0.10061125655E+02  0.54996780041E+02  0.41800000000E+01 0.  1.
         -5    1    3    3    0  502 -0.65639850118E+02  0.27257713861E+02  0.32392076179E+02  0.78219510915E+02  0.41800000000E+01 0.  1.
        -11    1    4    4    0    0  0.18775297871E+02  0.38329223579E+02  0.31378477164E+02  0.52974050434E+02  0.00000000000E+00 0.  1.
         11    1    4    4    0    0 -0.33967238792E+01 -0.46099729137E+02  0.68751562107E+02  0.82846243438E+02  0.00000000000E+00 0. -1.
</event>
<event>
 8    1  0.7192024E-009  0.1275119E+03  0.7561462E-02  0.1231195E+00
          2   -1    0    0  501    0  0.00000000000E+00  0.00000000000E+00  0.70785185506E+02  0.70785185506E+02  0.00000000000E+00 0. -1.
         -2   -1    0    0    0  501 -0.00000000000E+00 -0.00000000000E+00 -0.26068189727E+03  0.26068189727E+03  0.00000000000E+00 0.  1.
         25    2    1    2    0    0 -0.59995274205E+02 -0.35760753867E+02 -0.54408561525E+02  0.15323832163E+03  0.12507368710E+03 0.  0.
         23    2    1    2    0    0  0.59995274205E+02  0.35760753867E+02 -0.13548815024E+03  0.17822876115E+03  0.92359016895E+02 0.  0.
          5    1    3    3  502    0 -0.12176674901E+02 -0.78156897816E+02 -0.29851185382E+02  0.84648318097E+02  0.41800000000E+01 0. -1.
         -5    1    3    3    0  502 -0.47818599304E+02  0.42396143949E+02 -0.24557376144E+02  0.68590003530E+02  0.41800000000E+01 0. -1.
        -11    1    4    4    0    0 -0.21607265019E+02  0.18312422022E+02 -0.57096712763E+02  0.63735808696E+02  0.00000000000E+00 0.  1.
         11    1    4    4    0    0  0.81602539223E+02  0.17448331845E+02 -0.78391437476E+02  0.11449295245E+03  0.00000000000E+00 0. -1.
</event>
<event>
 8    1  0.7192024E-009  0.1146358E+03  0.7561462E-02  0.1252218E+00
         -2   -1    0    0    0  501 -0.00000000000E+00  0.00000000000E+00  0.26174241856E+03  0.26174241856E+03  0.00000000000E+00 0.  1.
          2   -1    0    0  501    0  0.00000000000E+00 -0.00000000000E+00 -0.56357276338E+02  0.56357276338E+02  0.00000000000E+00 0. -1.
         25    2    1    2    0    0  0.52850486619E+02 -0.40108649784E+01  0.10328979511E+03  0.17065740012E+03  0.12508359392E+03 0.  0.
         23    2    1    2    0    0 -0.52850486619E+02  0.40108649784E+01  0.10209534712E+03  0.14744229479E+03  0.92230740073E+02 0.  0.
          5    1    3    3  502    0 -0.20804848367E+01  0.47650822150E+02  0.71643312591E+01  0.48412078153E+02  0.41800000000E+01 0.  1.
         -5    1    3    3    0  502  0.54930971456E+02 -0.51661687128E+02  0.96125463846E+02  0.12224532196E+03  0.41800000000E+01 0.  1.
        -11    1    4    4    0    0 -0.81276224981E+00 -0.38601572110E+02  0.44286553309E+02  0.58754070122E+02  0.00000000000E+00 0.  1.
         11    1    4    4    0    0 -0.52037724370E+02  0.42612437089E+02  0.57808793811E+02  0.88688224664E+02  0.00000000000E+00 0. -1.
</event>
<event>
 8    1  0.7192024E-009  0.1933812E+03  0.7561462E-02  0.1155447E+00
          2   -1    0    0  501    0  0.00000000000E+00  0.00000000000E+00  0.69395285542E+02  0.69395285542E+02  0.00000000000E+00 0. -1.
         -2   -1    0    0    0  501 -0.00000000000E+00 -0.00000000000E+00 -0.57697933592E+03  0.57697933592E+03  0.00000000000E+00 0.  1.
         25    2    1    2    0    0  0.12976656492E+03 -0.10300343154E+03 -0.30783319803E+03  0.37129252005E+03  0.12509112419E+03 0.  0.
         23    2    1    2    0    0 -0.12976656492E+03  0.10300343154E+03 -0.19975085234E+03  0.27508210141E+03  0.91217822946E+02 0.  0.
          5    1    3    3  502    0 -0.12251842443E+02 -0.46841677108E+02 -0.11801395925E+03  0.12762843467E+03  0.41800000000E+01 0.  1.
         -5    1    3    3    0  502  0.14201840737E+03 -0.56161754437E+02 -0.18981923878E+03  0.24366408538E+03  0.41800000000E+01 0.  1.
        -11    1    4    4    0    0 -0.46384857130E+02  0.89656144632E+02 -0.81298829014E+02  0.12961203200E+03  0.00000000000E+00 0. -1.
         11    1    4    4    0    0 -0.83381707794E+02  0.13347286913E+02 -0.11845202333E+03  0.14547006941E+03  0.00000000000E+00 0.  1.
</event>
<event>
 8    1  0.7192024E-009  0.1289102E+03  0.7561462E-02  0.1229082E+00
         -2   -1    0    0    0  501 -0.00000000000E+00  0.00000000000E+00  0.13782343626E+03  0.13782343626E+03  0.00000000000E+00 0.  1.
          2   -1    0    0  501    0  0.00000000000E+00 -0.00000000000E+00 -0.15630495998E+03  0.15630495998E+03  0.00000000000E+00 0. -1.
         25    2    1    2    0    0  0.51499632754E+02  0.84648222447E+02  0.88542232081E+01  0.15982234679E+03  0.12508897445E+03 0.  0.
         23    2    1    2    0    0 -0.51499632754E+02 -0.84648222447E+02 -0.27335746928E+02  0.13430604944E+03  0.86448470890E+02 0.  0.
          5    1    3    3  502    0  0.31221806353E+02  0.11643446670E+03 -0.10167417434E+01  0.12062459282E+03  0.41800000000E+01 0.  1.
         -5    1    3    3    0  502  0.20277826401E+02 -0.31786244257E+02  0.98709649515E+01  0.39197753974E+02  0.41800000000E+01 0.  1.
        -11    1    4    4    0    0 -0.16036649979E+02 -0.31907474106E+02  0.31559777163E+02  0.47657954016E+02  0.00000000000E+00 0.  1.
         11    1    4    4    0    0 -0.35462982775E+02 -0.52740748341E+02 -0.58895524092E+02  0.86648095425E+02  0.00000000000E+00 0. -1.
</event>
<event>
 8    1  0.7192024E-009  0.1297933E+03  0.7561462E-02  0.1227763E+00
          2   -1    0    0  501    0  0.00000000000E+00  0.00000000000E+00  0.76899472501E+02  0.76899472501E+02  0.00000000000E+00 0.  1.
         -2   -1    0    0    0  501 -0.00000000000E+00 -0.00000000000E+00 -0.25007064741E+03  0.25007064741E+03  0.00000000000E+00 0. -1.
         25    2    1    2    0    0 -0.83207964831E+02 -0.23266448956E+02 -0.90609132890E+02  0.17698185215E+03  0.12509063902E+03 0.  0.
         23    2    1    2    0    0  0.83207964831E+02  0.23266448956E+02 -0.82562042022E+02  0.14998826776E+03  0.90637170218E+02 0.  0.
          5    1    3    3  502    0 -0.11148428494E+03 -0.27389273598E+02 -0.93281376953E+02  0.14797907211E+03  0.41800000000E+01 0. -1.
         -5    1    3    3    0  502  0.28276320108E+02  0.41228246421E+01  0.26722440622E+01  0.29002780042E+02  0.41800000000E+01 0. -1.
        -11    1    4    4    0    0 -0.48643221705E+01 -0.17946189746E+02  0.48721754654E+01  0.19221484082E+02  0.00000000000E+00 0.  1.
         11    1    4    4    0    0  0.88072287001E+02  0.41212638702E+02 -0.87434217487E+02  0.13076678368E+03  0.00000000000E+00 0. -1.
</event>
<event>
 8    1  0.7192024E-009  0.7845211E+02  0.7561462E-02  0.1333502E+00
         -2   -1    0    0    0  501 -0.00000000000E+00  0.00000000000E+00  0.56315600811E+03  0.56315600811E+03  0.00000000000E+00 0.  1.
          2   -1    0    0  501    0  0.00000000000E+00 -0.00000000000E+00 -0.75888046897E+02  0.75888046897E+02  0.00000000000E+00 0. -1.
         25    2    1    2    0    0  0.50997820453E+02 -0.11525732191E+02  0.51197893643E+03  0.52962590542E+03  0.12509016011E+03 0.  0.
         23    2    1    2    0    0 -0.50997820453E+02  0.11525732191E+02 -0.24710975212E+02  0.10941814959E+03  0.92887453241E+02 0.  0.
          5    1    3    3  502    0  0.24246197169E+02  0.18920613258E+01  0.49368494842E+03  0.49430128329E+03  0.41800000000E+01 0. -1.
         -5    1    3    3    0  502  0.26751623284E+02 -0.13417793517E+02  0.18293988010E+02  0.35324622128E+02  0.41800000000E+01 0. -1.
        -11    1    4    4    0    0  0.24727139767E+02  0.87625223075E+01  0.71903485580E+01  0.27201366705E+02  0.00000000000E+00 0. -1.
         11    1    4    4    0    0 -0.75724960219E+02  0.27632098836E+01 -0.31901323770E+02  0.82216782882E+02  0.00000000000E+00 0.  1.
</event>
<event>
 8    1  0.7192024E-009  0.1439718E+03  0.7561462E-02  0.1208082E+00
         -2   -1    0    0    0  501 -0.00000000000E+00  0.00000000000E+00  0.14520076529E+03  0.14520076529E+03  0.00000000000E+00 0.  1.
          2   -1    0    0  501    0  0.00000000000E+00 -0.00000000000E+00 -0.14341443808E+03  0.14341443808E+03  0.00000000000E+00 0. -1.
         25    2    1    2    0    0 -0.41952142676E+02 -0.87245998972E+02 -0.20813721586E+01  0.15818735102E+03  0.12508820608E+03 0.  0.
         23    2    1    2    0    0  0.41952142676E+02  0.87245998972E+02  0.38676993594E+01  0.13042785235E+03  0.87319064119E+02 0.  0.
          5    1    3    3  502    0 -0.61631270170E+02 -0.11066370744E+03 -0.69751564557E+01  0.12692909365E+03  0.41800000000E+01 0.  1.
         -5    1    3    3    0  502  0.19679127494E+02  0.23417708471E+02  0.48937842971E+01  0.31258257368E+02  0.41800000000E+01 0.  1.
        -11    1    4    4    0    0  0.66690403797E+02  0.42138570075E+02  0.38611831053E+01  0.78982135838E+02  0.00000000000E+00 0. -1.
         11    1    4    4    0    0 -0.24738261121E+02  0.45107428897E+02  0.65162540574E-02  0.51445716512E+02  0.00000000000E+00 0.  1.
</event>
<event>
 8    1  0.7192024E-009  0.1024759E+03  0.7561462E-02  0.1275174E+00
          1   -1    0    0  501    0  0.00000000000E+00  0.00000000000E+00  0.54698730931E+03  0.54698730931E+03  0.00000000000E+00 0. -1.
         -1   -1    0    0    0  501 -0.00000000000E+00 -0.00000000000E+00 -0.26528824382E+02  0.26528824382E+02  0.00000000000E+00 0.  1.
         25    2    1    2    0    0  0.35628925990E+02  0.32706059043E+02  0.23850514743E+03  0.27362682728E+03  0.12509128103E+03 0.  0.
         23    2    1    2    0    0 -0.35628925990E+02 -0.32706059043E+02  0.28195333750E+03  0.29988930642E+03  0.89982247750E+02 0.  0.
          5    1    3    3  502    0 -0.13690921498E+02 -0.30581160534E+02  0.15142575691E+03  0.15514470976E+03  0.41800000000E+01 0. -1.
         -5    1    3    3    0  502  0.49319847488E+02  0.63287219576E+02  0.87079390518E+02  0.11848211752E+03  0.41800000000E+01 0. -1.
        -11    1    4    4    0    0  0.17374186734E+02 -0.33605679059E+02  0.19017679838E+03  0.19390311671E+03  0.00000000000E+00 0. -1.
         11    1    4    4    0    0 -0.53003112724E+02  0.89962001665E+00  0.91776539119E+02  0.10598618970E+03  0.00000000000E+00 0.  1.
</event>
<event>
 8    1  0.7192024E-009  0.1085691E+03  0.7561462E-02  0.1263243E+00
         -2   -1    0    0    0  501 -0.00000000000E+00  0.00000000000E+00  0.37499662050E+02  0.37499662050E+02  0.00000000000E+00 0. -1.
          2   -1    0    0  501    0  0.00000000000E+00 -0.00000000000E+00 -0.64248773729E+03  0.64248773729E+03  0.00000000000E+00 0.  1.
         25    2    1    2    0    0  0.31028848343E+02 -0.94891443647E+02 -0.22881897731E+03  0.27923592684E+03  0.12508957972E+03 0.  0.
         23    2    1    2    0    0 -0.31028848343E+02  0.94891443647E+02 -0.37616909793E+03  0.40075147249E+03  0.95558238600E+02 0.  0.
          5    1    3    3  502    0  0.14907805760E+02 -0.10557817687E+02 -0.17880191564E+03  0.17978127718E+03  0.41800000000E+01 0. -1.
         -5    1    3    3    0  502  0.16121042583E+02 -0.84333625960E+02 -0.50017061666E+02  0.99454649662E+02  0.41800000000E+01 0. -1.
        -11    1    4    4    0    0 -0.37141462557E+02  0.31357007977E+02 -0.55434144029E+02  0.73727162664E+02  0.00000000000E+00 0. -1.
         11    1    4    4    0    0  0.61126142146E+01  0.63534435670E+02 -0.32073495390E+03  0.32702430983E+03  0.00000000000E+00 0.  1.
</event>
<event>
 8    1  0.7192024E-009  0.1317640E+03  0.7561462E-02  0.1224861E+00
         -2   -1    0    0    0  501 -0.00000000000E+00  0.00000000000E+00  0.37719917372E+02  0.37719917372E+02  0.00000000000E+00 0.  1.
          2   -1    0    0  501    0  0.00000000000E+00 -0.00000000000E+00 -0.97551079303E+03  0.97551079303E+03  0.00000000000E+00 0. -1.
         25    2    1    2    0    0 -0.43831374083E+02 -0.75988257083E+02 -0.83675908613E+03  0.85059313496E+03  0.12509000141E+03 0.  0.
         23    2    1    2    0    0  0.43831374083E+02  0.75988257083E+02 -0.10103178953E+03  0.16263757544E+03  0.92456226841E+02 0.  0.
          5    1    3    3  502    0 -0.75783386563E+02 -0.79570586408E+02 -0.74913845588E+03  0.75716609696E+03  0.41800000000E+01 0.  1.
         -5    1    3    3    0  502  0.31952012480E+02  0.35823293256E+01 -0.87620630246E+02  0.93427038001E+02  0.41800000000E+01 0.  1.
        -11    1    4    4    0    0  0.63789547688E+02  0.78361338230E+02 -0.61492855182E+02  0.11828346022E+03  0.00000000000E+00 0.  1.
         11    1    4    4    0    0 -0.19958173605E+02 -0.23730811473E+01 -0.39538934344E+02  0.44354115218E+02  0.00000000000E+00 0. -1.
</event>
<event>
 8    1  0.7192024E-009  0.8730118E+02  0.7561462E-02  0.1309522E+00
         -2   -1    0    0    0  501 -0.00000000000E+00  0.00000000000E+00  0.12304463897E+03  0.12304463897E+03  0.00000000000E+00 0.  1.
          2   -1    0    0  501    0  0.00000000000E+00 -0.00000000000E+00 -0.11715996944E+03  0.11715996944E+03  0.00000000000E+00 0. -1.
         25    2    1    2    0    0  0.36759713449E+01  0.50297016050E+02 -0.12600414200E+02  0.13545944153E+03  0.12508871761E+03 0.  0.
         23    2    1    2    0    0 -0.36759713449E+01 -0.50297016050E+02  0.18485083723E+02  0.10474516688E+03  0.89925241593E+02 0.  0.
          5    1    3    3  502    0 -0.24280164244E+02  0.58226371898E+02 -0.55060007049E+02  0.83838616021E+02  0.41800000000E+01 0.  1.
         -5    1    3    3    0  502  0.27956135589E+02 -0.79293558477E+01  0.42459592848E+02  0.51620825507E+02  0.41800000000E+01 0.  1.
        -11    1    4    4    0    0 -0.34230500059E+02 -0.26174405472E+02 -0.22168091220E+02  0.48458754673E+02  0.00000000000E+00 0. -1.
         11    1    4    4    0    0  0.30554528714E+02 -0.24122610578E+02  0.40653174943E+02  0.56286412206E+02  0.00000000000E+00 0.  1.
</event>
<event>
 8    1  0.7192024E-009  0.1008491E+03  0.7561462E-02  0.1278520E+00
          2   -1    0    0  501    0  0.00000000000E+00  0.00000000000E+00  0.54337441358E+03  0.54337441358E+03  0.00000000000E+00 0. -1.
         -2   -1    0    0    0  501 -0.00000000000E+00 -0.00000000000E+00 -0.33254410333E+02  0.33254410333E+02  0.00000000000E+00 0.  1.
         25    2    1    2    0    0 -0.35289742022E+02 -0.67250932977E+02  0.22683018019E+03  0.26994311644E+03  0.12509716860E+03 0.  0.
         23    2    1    2    0    0  0.35289742022E+02  0.67250932977E+02  0.28328982305E+03  0.30668570746E+03  0.89637857191E+02 0.  0.
          5    1    3    3  502    0  0.17592676930E+02  0.82520282083E+01  0.14577395627E+03  0.14712279557E+03  0.41800000000E+01 0. -1.
         -5    1    3    3    0  502 -0.52882418953E+02 -0.75502961186E+02  0.81056223928E+02  0.12282032087E+03  0.41800000000E+01 0. -1.
        -11    1    4    4    0    0  0.18437758720E+01  0.53260561841E+02  0.25551956076E+03  0.26101787848E+03  0.00000000000E+00 0.  1.
         11    1    4    4    0    0  0.33445966150E+02  0.13990371136E+02  0.27770262289E+02  0.45667828981E+02  0.00000000000E+00 0. -1.
</event>
<event>
 8    1  0.7192024E-009  0.2035332E+03  0.7561462E-02  0.1146792E+00
         -2   -1    0    0    0  501 -0.00000000000E+00  0.00000000000E+00  0.30081971263E+02  0.30081971263E+02  0.00000000000E+00 0.  1.
          2   -1    0    0  501    0  0.00000000000E+00 -0.00000000000E+00 -0.22505100199E+04  0.22505100199E+04  0.00000000000E+00 0. -1.
         25    2    1    2    0    0 -0.10469966724E+03  0.15672007580E+03 -0.17717691830E+04  0.17861514924E+04  0.12509162037E+03 0.  0.
         23    2    1    2    0    0  0.10469966724E+03 -0.15672007580E+03 -0.44865886566E+03  0.49444049879E+03  0.87483864950E+02 0.  0.
          5    1    3    3  502    0 -0.26287498137E+02  0.18140173090E+01 -0.69121113812E+03  0.69172583664E+03  0.41800000000E+01 0.  1.
         -5    1    3    3    0  502 -0.78412169104E+02  0.15490605849E+03 -0.10805580449E+04  0.10944256558E+04  0.41800000000E+01 0.  1.
        -11    1    4    4    0    0  0.10728141026E+03 -0.90247193957E+02 -0.32693076992E+03  0.35572121855E+03  0.00000000000E+00 0.  1.
         11    1    4    4    0    0 -0.25817430206E+01 -0.66472881845E+02 -0.12172809574E+03  0.13871928024E+03  0.00000000000E+00 0. -1.
</event>
<event>
 8    1  0.7192024E-009  0.2822303E+03  0.7561462E-02  0.1094477E+00
         -1   -1    0    0    0  501 -0.00000000000E+00  0.00000000000E+00  0.12702913823E+03  0.12702913823E+03  0.00000000000E+00 0.  1.
          1   -1    0    0  501    0  0.00000000000E+00 -0.00000000000E+00 -0.73722252056E+03  0.73722252056E+03  0.00000000000E+00 0. -1.
         25    2    1    2    0    0  0.19270116537E+03  0.19285671239E+03 -0.18980641097E+03  0.35496706573E+03  0.12509074091E+03 0.  0.
         23    2    1    2    0    0 -0.19270116537E+03 -0.19285671239E+03 -0.42038697136E+03  0.50928459306E+03  0.91203839828E+02 0.  0.
          5    1    3    3  502    0  0.13807315876E+03  0.16801191707E+03 -0.83823360620E+02  0.23310090012E+03  0.41800000000E+01 0. -1.
         -5    1    3    3    0  502  0.54628006603E+02  0.24844795311E+02 -0.10598305035E+03  0.12186616561E+03  0.41800000000E+01 0. -1.
        -11    1    4    4    0    0 -0.10147250429E+03 -0.16071785832E+03 -0.26164724973E+03  0.32339787013E+03  0.00000000000E+00 0.  1.
         11    1    4    4    0    0 -0.91228661076E+02 -0.32138854063E+02 -0.15873972163E+03  0.18588672294E+03  0.00000000000E+00 0. -1.
</event>
<event>
 8    1  0.7192024E-009  0.1861377E+03  0.7561462E-02  0.1161992E+00
          1   -1    0    0  501    0  0.00000000000E+00  0.00000000000E+00  0.31200231817E+02  0.31200231817E+02  0.00000000000E+00 0. -1.
         -1   -1    0    0    0  501 -0.00000000000E+00 -0.00000000000E+00 -0.13047639012E+04  0.13047639012E+04  0.00000000000E+00 0.  1.
         25    2    1    2    0    0  0.16616831497E+03 -0.42519791908E+02 -0.67215521065E+03  0.70488338004E+03  0.12509240847E+03 0.  0.
         23    2    1    2    0    0 -0.16616831497E+03  0.42519791908E+02 -0.60140845872E+03  0.63108075296E+03  0.84563236293E+02 0.  0.
          5    1    3    3  502    0  0.16613190550E+03 -0.63792880997E+02 -0.64980508347E+03  0.67374584273E+03  0.41800000000E+01 0. -1.
         -5    1    3    3    0  502  0.36409467719E-01  0.21273089089E+02 -0.22350127174E+02  0.31137537310E+02  0.41800000000E+01 0. -1.
        -11    1    4    4    0    0 -0.86903291778E+02  0.12356057096E+02 -0.44080469941E+03  0.44945927212E+03  0.00000000000E+00 0.  1.
         11    1    4    4    0    0 -0.79265023189E+02  0.30163734812E+02 -0.16060375930E+03  0.18162148084E+03  0.00000000000E+00 0. -1.
</event>
<event>
 8    1  0.7192024E-009  0.1022879E+03  0.7561462E-02  0.1275557E+00
         -2   -1    0    0    0  501 -0.00000000000E+00  0.00000000000E+00  0.93154198691E+02  0.93154198691E+02  0.00000000000E+00 0.  1.
          2   -1    0    0  501    0  0.00000000000E+00 -0.00000000000E+00 -0.16475303359E+03  0.16475303359E+03  0.00000000000E+00 0. -1.
         25    2    1    2    0    0 -0.50484047172E+02  0.29698915860E+02 -0.63689655550E+02  0.15210090764E+03  0.12509056422E+03 0.  0.
         23    2    1    2    0    0  0.50484047172E+02 -0.29698915860E+02 -0.79091793469E+01  0.10580632464E+03  0.87759663822E+02 0.  0.
          5    1    3    3  502    0 -0.92357851939E+02  0.18059043808E+02 -0.47836251104E+02  0.10564980453E+03  0.41800000000E+01 0.  1.
         -5    1    3    3    0  502  0.41873804767E+02  0.11639872052E+02 -0.15853404446E+02  0.46451103104E+02  0.41800000000E+01 0.  1.
        -11    1    4    4    0    0  0.18092251618E+02  0.54700049406E+01  0.36147211791E+02  0.40790580321E+02  0.00000000000E+00 0.  1.
         11    1    4    4    0    0  0.32391795554E+02 -0.35168920801E+02 -0.44056391138E+02  0.65015744321E+02  0.00000000000E+00 0. -1.
</event>
<event>
 8    1  0.7192024E-009  0.1719052E+03  0.7561462E-02  0.1175876E+00
         -3   -1    0    0    0  501 -0.00000000000E+00  0.00000000000E+00  0.10531972206E+03  0.10531972206E+03  0.00000000000E+00 0.  1.
          3   -1    0    0  501    0  0.00000000000E+00 -0.00000000000E+00 -0.32107269675E+03  0.32107269675E+03  0.00000000000E+00 0. -1.
         25    2    1    2    0    0 -0.24479830703E+02 -0.13301503647E+03 -0.18234334643E+03  0.25920877523E+03  0.12509129118E+03 0.  0.
         23    2    1    2    0    0  0.24479830703E+02  0.13301503647E+03 -0.33409628260E+02  0.16718364358E+03  0.92422428998E+02 0.  0.
          5    1    3    3  502    0  0.49297537597E+01  0.23372381256E+02 -0.32872845487E+02  0.40849321269E+02  0.41800000000E+01 0.  1.
         -5    1    3    3    0  502 -0.29409584463E+02 -0.15638741773E+03 -0.14947050094E+03  0.21835945396E+03  0.41800000000E+01 0.  1.
        -11    1    4    4    0    0 -0.31212336524E+02  0.67654730025E+02  0.14154040505E+01  0.74520975669E+02  0.00000000000E+00 0.  1.
         11    1    4    4    0    0  0.55692167227E+02  0.65360306447E+02 -0.34825032311E+02  0.92662667913E+02  0.00000000000E+00 0. -1.
</event>
<event>
 8    1  0.7192024E-009  0.8135898E+02  0.7561462E-02  0.1325239E+00
          2   -1    0    0  501    0  0.00000000000E+00  0.00000000000E+00  0.51050984302E+02  0.51050984302E+02  0.00000000000E+00 0. -1.
         -2   -1    0    0    0  501 -0.00000000000E+00 -0.00000000000E+00 -0.27839543649E+03  0.27839543649E+03  0.00000000000E+00 0.  1.
         25    2    1    2    0    0  0.17752067027E+02  0.55543277532E+01 -0.64350558733E+02  0.14189439976E+03  0.12508812827E+03 0.  0.
         23    2    1    2    0    0 -0.17752067027E+02 -0.55543277532E+01 -0.16299389346E+03  0.18755202104E+03  0.90899751652E+02 0.  0.
          5    1    3    3  502    0  0.24907596498E+02  0.35516787435E+02  0.22928308561E+02  0.49244393452E+02  0.41800000000E+01 0. -1.
         -5    1    3    3    0  502 -0.71555294708E+01 -0.29962459682E+02 -0.87278867294E+02  0.92650006305E+02  0.41800000000E+01 0. -1.
        -11    1    4    4    0    0 -0.51342160912E+02 -0.14382831274E+02 -0.12596197581E+03  0.13678195302E+03  0.00000000000E+00 0.  1.
         11    1    4    4    0    0  0.33590093886E+02  0.88285035204E+01 -0.37031917648E+02  0.50770068016E+02  0.00000000000E+00 0. -1.
</event>
<event>
 8    1  0.7192024E-009  0.1290458E+03  0.7561462E-02  0.1228878E+00
          2   -1    0    0  501    0  0.00000000000E+00  0.00000000000E+00  0.21024010929E+03  0.21024010929E+03  0.00000000000E+00 0.  1.
         -2   -1    0    0    0  501 -0.00000000000E+00 -0.00000000000E+00 -0.11439584003E+03  0.11439584003E+03  0.00000000000E+00 0. -1.
         25    2    1    2    0    0 -0.69213852461E+02 -0.84337875358E+02  0.32080799256E+02  0.16905510521E+03  0.12508803429E+03 0.  0.
         23    2    1    2    0    0  0.69213852461E+02  0.84337875358E+02  0.63763470008E+02  0.15558084412E+03  0.90753426138E+02 0.  0.
          5    1    3    3  502    0 -0.14960921556E+02 -0.91691056850E+02 -0.18016902904E+02  0.94726766388E+02  0.41800000000E+01 0.  1.
         -5    1    3    3    0  502 -0.54252930905E+02  0.73531814919E+01  0.50097702161E+02  0.74328338819E+02  0.41800000000E+01 0.  1.
        -11    1    4    4    0    0  0.53797517704E+02  0.54381097665E+02  0.86089038510E+02  0.11516422728E+03  0.00000000000E+00 0.  1.
         11    1    4    4    0    0  0.15416334757E+02  0.29956777692E+02 -0.22325568503E+02  0.40416616831E+02  0.00000000000E+00 0. -1.
</event>
<event>
 8    1  0.7192024E-009  0.1075055E+03  0.7561462E-02  0.1265260E+00
         -1   -1    0    0    0  501 -0.00000000000E+00  0.00000000000E+00  0.16037898167E+03  0.16037898167E+03  0.00000000000E+00 0.  1.
          1   -1    0    0  501    0  0.00000000000E+00 -0.00000000000E+00 -0.11382612274E+03  0.11382612274E+03  0.00000000000E+00 0. -1.
         25    2    1    2    0    0  0.27671813094E+02  0.55075360578E+02  0.78157857378E+02  0.15986517077E+03  0.12509675285E+03 0.  0.
         23    2    1    2    0    0 -0.27671813094E+02 -0.55075360578E+02 -0.31604998442E+02  0.11433993364E+03  0.90970983917E+02 0.  0.
          5    1    3    3  502    0  0.26812034424E+02  0.82212440589E+02  0.94290638820E+02  0.12800768550E+03  0.41800000000E+01 0.  1.
         -5    1    3    3    0  502  0.85977866986E+00 -0.27137080011E+02 -0.16132781442E+02  0.31857485273E+02  0.41800000000E+01 0.  1.
        -11    1    4    4    0    0 -0.19736993757E+02  0.18447272958E+02  0.10800395065E+02  0.29094661636E+02  0.00000000000E+00 0.  1.
         11    1    4    4    0    0 -0.79348193368E+01 -0.73522633536E+02 -0.42405393507E+02  0.85245272001E+02  0.00000000000E+00 0. -1.
</event>
<event>
 8    1  0.7192024E-009  0.7809331E+02  0.7561462E-02  0.1334551E+00
         -1   -1    0    0    0  501 -0.00000000000E+00  0.00000000000E+00  0.89412340837E+02  0.89412340837E+02  0.00000000000E+00 0.  1.
          1   -1    0    0  501    0  0.00000000000E+00 -0.00000000000E+00 -0.16048137239E+03  0.16048137239E+03  0.00000000000E+00 0. -1.
         25    2    1    2    0    0  0.96952150556E+01  0.45245920927E+02 -0.62962946197E+02  0.14749079101E+03  0.12509200727E+03 0.  0.
         23    2    1    2    0    0 -0.96952150556E+01 -0.45245920927E+02 -0.81060853517E+01  0.10240292222E+03  0.90991534240E+02 0.  0.
          5    1    3    3  502    0 -0.85482074278E+01  0.46424746005E+02 -0.97378429361E+02  0.10829755213E+03  0.41800000000E+01 0.  1.
         -5    1    3    3    0  502  0.18243422483E+02 -0.11788250777E+01  0.34415483164E+02  0.39193238880E+02  0.41800000000E+01 0.  1.
        -11    1    4    4    0    0  0.34068687711E+02 -0.18859066185E+02 -0.27576818491E+02  0.47716043191E+02  0.00000000000E+00 0. -1.
         11    1    4    4    0    0 -0.43763902767E+02 -0.26386854742E+02  0.19470733140E+02  0.54686879026E+02  0.00000000000E+00 0.  1.
</event>
<event>
 8    1  0.7192024E-009  0.1708696E+03  0.7561462E-02  0.1176944E+00
          1   -1    0    0  501    0  0.00000000000E+00  0.00000000000E+00  0.25040383685E+03  0.25040383685E+03  0.00000000000E+00 0. -1.
         -1   -1    0    0    0  501 -0.00000000000E+00 -0.00000000000E+00 -0.24984126479E+03  0.24984126479E+03  0.00000000000E+00 0.  1.
         25    2    1    2    0    0 -0.15027657907E+03 -0.11729552816E+02  0.16718065070E+03  0.25752615120E+03  0.12509882477E+03 0.  0.
         23    2    1    2    0    0  0.15027657907E+03  0.11729552816E+02 -0.16661807863E+03  0.24271895044E+03  0.91816513479E+02 0.  0.
          5    1    3    3  502    0 -0.28892806907E+02 -0.54429685574E+02  0.27639203213E+02  0.67666704641E+02  0.41800000000E+01 0.  1.
         -5    1    3    3    0  502 -0.12138377217E+03  0.42700132759E+02  0.13954144748E+03  0.18985944656E+03  0.41800000000E+01 0.  1.
        -11    1    4    4    0    0  0.11746441412E+03  0.40574832073E+01 -0.17227544125E+03  0.20855018440E+03  0.00000000000E+00 0.  1.
         11    1    4    4    0    0  0.32812164954E+02  0.76720696086E+01  0.56573626164E+01  0.34168766042E+02  0.00000000000E+00 0. -1.
</event>
<event>
 8    1  0.7192024E-009  0.1556561E+03  0.7561462E-02  0.1193690E+00
          2   -1    0    0  501    0  0.00000000000E+00  0.00000000000E+00  0.46249883065E+03  0.46249883065E+03  0.00000000000E+00 0. -1.
         -2   -1    0    0    0  501 -0.00000000000E+00 -0.00000000000E+00 -0.62306540776E+02  0.62306540776E+02  0.00000000000E+00 0.  1.
         25    2    1    2    0    0 -0.64575428571E+02 -0.11599072743E+03  0.22514312166E+03  0.28976284509E+03  0.12509694777E+03 0.  0.
         23    2    1    2    0    0  0.64575428571E+02  0.11599072743E+03  0.17504916821E+03  0.23504252633E+03  0.83540068630E+02 0.  0.
          5    1    3    3  502    0 -0.13043795884E+02 -0.99459141725E+02  0.21100450479E+03  0.23367206706E+03  0.41800000000E+01 0.  1.
         -5    1    3    3    0  502 -0.51531632687E+02 -0.16531585703E+02  0.14138616871E+02  0.56090778033E+02  0.41800000000E+01 0.  1.
        -11    1    4    4    0    0  0.28456953620E+02  0.11709110212E+03  0.12931296627E+03  0.17675397492E+03  0.00000000000E+00 0.  1.
         11    1    4    4    0    0  0.36118474951E+02 -0.11003746897E+01  0.45736201939E+02  0.58288551406E+02  0.00000000000E+00 0. -1.
</event>
<event>
 8    1  0.7192024E-009  0.9129536E+02  0.7561462E-02  0.1299745E+00
         -1   -1    0    0    0  501 -0.00000000000E+00  0.00000000000E+00  0.61647793140E+03  0.61647793140E+03  0.00000000000E+00 0.  1.
          1   -1    0    0  501    0  0.00000000000E+00 -0.00000000000E+00 -0.25011549588E+02  0.25011549588E+02  0.00000000000E+00 0. -1.
         25    2    1    2    0    0  0.20855387591E+02  0.55564287895E+02  0.35083168018E+03  0.37716917529E+03  0.12510548225E+03 0.  0.
         23    2    1    2    0    0 -0.20855387591E+02 -0.55564287895E+02  0.24063470163E+03  0.26432030570E+03  0.91857645811E+02 0.  0.
          5    1    3    3  502    0 -0.11711367318E+02  0.29371033225E+02  0.95236034525E+01  0.33286410739E+02  0.41800000000E+01 0.  1.
         -5    1    3    3    0  502  0.32566754909E+02  0.26193254671E+02  0.34130807673E+03  0.34388276456E+03  0.41800000000E+01 0.  1.
        -11    1    4    4    0    0 -0.57011854374E+02 -0.30094399542E+02  0.12811029400E+03  0.14341642811E+03  0.00000000000E+00 0.  1.
         11    1    4    4    0    0  0.36156466783E+02 -0.25469888353E+02  0.11252440763E+03  0.12090387759E+03  0.00000000000E+00 0. -1.
</event>
<event>
 8    1  0.7192024E-009  0.1186738E+03  0.7561462E-02  0.1245301E+00
         -2   -1    0    0    0  501 -0.00000000000E+00  0.00000000000E+00  0.10911921053E+03  0.10911921053E+03  0.00000000000E+00 0.  1.
          2   -1    0    0  501    0  0.00000000000E+00 -0.00000000000E+00 -0.20732943880E+03  0.20732943880E+03  0.00000000000E+00 0. -1.
         25    2    1    2    0    0 -0.94135981253E+01  0.52662388401E+02 -0.14554003611E+03  0.19923799507E+03  0.12510768795E+03 0.  0.
         23    2    1    2    0    0  0.94135981253E+01 -0.52662388401E+02  0.47329807842E+02  0.11721065425E+03  0.92931608069E+02 0.  0.
          5    1    3    3  502    0 -0.26869609768E+02  0.88992993906E+02 -0.82857967417E+02  0.12459792959E+03  0.41800000000E+01 0. -1.
         -5    1    3    3    0  502  0.17456011642E+02 -0.36330605504E+02 -0.62682068695E+02  0.74640065478E+02  0.41800000000E+01 0. -1.
        -11    1    4    4    0    0  0.11177323308E+02 -0.77785826203E+02  0.47875023958E+02  0.92019482901E+02  0.00000000000E+00 0.  1.
         11    1    4    4    0    0 -0.17637251824E+01  0.25123437801E+02 -0.54521611603E+00  0.25191171352E+02  0.00000000000E+00 0. -1.
</event>
<event>
 8    1  0.7192024E-009  0.1933375E+03  0.7561462E-02  0.1155485E+00
          1   -1    0    0  501    0  0.00000000000E+00  0.00000000000E+00  0.23646198335E+03  0.23646198335E+03  0.00000000000E+00 0. -1.
         -1   -1    0    0    0  501 -0.00000000000E+00 -0.00000000000E+00 -0.18365008815E+03  0.18365008815E+03  0.00000000000E+00 0.  1.
         25    2    1    2    0    0 -0.23038376265E+01  0.17259189815E+03 -0.15133125190E+02  0.21370224022E+03  0.12508543089E+03 0.  0.
         23    2    1    2    0    0  0.23038376265E+01 -0.17259189815E+03  0.67945020395E+02  0.20640983128E+03  0.90527463671E+02 0.  0.
          5    1    3    3  502    0 -0.61537050365E+01 -0.81023516299E+01  0.26058840778E+02  0.28285186411E+02  0.41800000000E+01 0.  1.
         -5    1    3    3    0  502  0.38498674100E+01  0.18069424978E+03 -0.41191965968E+02  0.18541705381E+03  0.41800000000E+01 0.  1.
        -11    1    4    4    0    0  0.44331655293E+02 -0.59179304294E+02  0.27002889209E+02  0.78718750900E+02  0.00000000000E+00 0. -1.
         11    1    4    4    0    0 -0.42027817666E+02 -0.11341259386E+03  0.40942131186E+02  0.12769108038E+03  0.00000000000E+00 0.  1.
</event>
<event>
 8    1  0.7192024E-009  0.1085867E+03  0.7561462E-02  0.1263210E+00
         -2   -1    0    0    0  501 -0.00000000000E+00  0.00000000000E+00  0.10056059320E+03  0.10056059320E+03  0.00000000000E+00 0.  1.
          2   -1    0    0  501    0  0.00000000000E+00 -0.00000000000E+00 -0.33917176780E+03  0.33917176780E+03  0.00000000000E+00 0. -1.
         25    2    1    2    0    0  0.78211044767E+02  0.22616927531E+02 -0.27505714067E+03  0.31294234200E+03  0.12509190960E+03 0.  0.
         23    2    1    2    0    0 -0.78211044767E+02 -0.22616927531E+02  0.36445966076E+02  0.12679001900E+03  0.90104980665E+02 0.  0.
          5    1    3    3  502    0 -0.12044782663E+02  0.21226575914E+02 -0.18034962156E+03  0.18204148624E+03  0.41800000000E+01 0. -1.
         -5    1    3    3    0  502  0.90255827431E+02  0.13903516171E+01 -0.94707519110E+02  0.13090085576E+03  0.41800000000E+01 0. -1.
        -11    1    4    4    0    0 -0.36208807257E+02  0.20703176465E+02  0.49831768514E+02  0.64983877939E+02  0.00000000000E+00 0.  1.
         11    1    4    4    0    0 -0.42002237510E+02 -0.43320103997E+02 -0.13385802438E+02  0.61806141062E+02  0.00000000000E+00 0. -1.
</event>
<event>
 8    1  0.7192024E-009  0.1259168E+03  0.7561462E-02  0.1233643E+00
          2   -1    0    0  501    0  0.00000000000E+00  0.00000000000E+00  0.67877700804E+03  0.67877700804E+03  0.00000000000E+00 0.  1.
         -2   -1    0    0    0  501 -0.00000000000E+00 -0.00000000000E+00 -0.33089660795E+02  0.33089660795E+02  0.00000000000E+00 0. -1.
         25    2    1    2    0    0 -0.37757448528E+02  0.56072397987E+02  0.16404526234E+03  0.21709000871E+03  0.12508990787E+03 0.  0.
         23    2    1    2    0    0  0.37757448528E+02 -0.56072397987E+02  0.48164208490E+03  0.49477666012E+03  0.90857617829E+02 0.  0.
          5    1    3    3  502    0  0.53866565291E+01 -0.36099361468E+02  0.23849365723E+02  0.43800052652E+02  0.41800000000E+01 0. -1.
         -5    1    3    3    0  502 -0.43144105057E+02  0.92171759454E+02  0.14019589662E+03  0.17328995606E+03  0.41800000000E+01 0. -1.
        -11    1    4    4    0    0  0.67094410579E+02 -0.28218787229E+02  0.30707314764E+03  0.31558180855E+03  0.00000000000E+00 0.  1.
         11    1    4    4    0    0 -0.29336962051E+02 -0.27853610758E+02  0.17456893726E+03  0.17919485157E+03  0.00000000000E+00 0. -1.
</event>
<event>
 8    1  0.7192024E-009  0.1156398E+03  0.7561462E-02  0.1250468E+00
         -1   -1    0    0    0  501 -0.00000000000E+00  0.00000000000E+00  0.94868107796E+02  0.94868107796E+02  0.00000000000E+00 0.  1.
          1   -1    0    0  501    0  0.00000000000E+00 -0.00000000000E+00 -0.14240182663E+03  0.14240182663E+03  0.00000000000E+00 0. -1.
         25    2    1    2    0    0 -0.21613868459E+02  0.36056170805E+02 -0.21058709023E+02  0.13363634689E+03  0.12509195507E+03 0.  0.
         23    2    1    2    0    0  0.21613868459E+02 -0.36056170805E+02 -0.26475009814E+02  0.10363358754E+03  0.90949368104E+02 0.  0.
          5    1    3    3  502    0 -0.15948578037E+01  0.81339523882E+02 -0.20254292138E+02  0.83942661780E+02  0.41800000000E+01 0.  1.
         -5    1    3    3    0  502 -0.20019010655E+02 -0.45283353077E+02 -0.80441688555E+00  0.49693685112E+02  0.41800000000E+01 0.  1.
        -11    1    4    4    0    0 -0.25475581046E+02  0.15883817479E+02 -0.96520805256E+01  0.31535116074E+02  0.00000000000E+00 0.  1.
         11    1    4    4    0    0  0.47089449505E+02 -0.51939988284E+02 -0.16822929288E+02  0.72098471464E+02  0.00000000000E+00 0. -1.
</event>
<event>
 8    1  0.7192024E-009  0.1522968E+03  0.7561462E-02  0.1197679E+00
          2   -1    0    0  501    0  0.00000000000E+00  0.00000000000E+00  0.11018481242E+04  0.11018481242E+04  0.00000000000E+00 0. -1.
         -2   -1    0    0    0  501 -0.00000000000E+00 -0.00000000000E+00 -0.35909167108E+02  0.35909167108E+02  0.00000000000E+00 0.  1.
         25    2    1    2    0    0  0.12388832995E+03 -0.69595588828E+02  0.79465163311E+03  0.81689121781E+03  0.12509268345E+03 0.  0.
         23    2    1    2    0    0 -0.12388832995E+03  0.69595588828E+02  0.27128732397E+03  0.32086607348E+03  0.95741112809E+02 0.  0.
          5    1    3    3  502    0  0.87098494080E+02 -0.16125548744E+02  0.67415837050E+03  0.67996555935E+03  0.41800000000E+01 0. -1.
         -5    1    3    3    0  502  0.36789835873E+02 -0.53470040084E+02  0.12049326261E+03  0.13692565846E+03  0.41800000000E+01 0. -1.
        -11    1    4    4    0    0 -0.63643830822E+02  0.64187195694E+02  0.81622946297E+02  0.12179014186E+03  0.00000000000E+00 0.  1.
         11    1    4    4    0    0 -0.60244499131E+02  0.54083931347E+01  0.18966437768E+03  0.19907593162E+03  0.00000000000E+00 0. -1.
</event>
<event>
 8    1  0.7192024E-009  0.1112631E+03  0.7561462E-02  0.1258249E+00
         -1   -1    0    0    0  501 -0.00000000000E+00  0.00000000000E+00  0.11921792392E+04  0.11921792392E+04  0.00000000000E+00 0.  1.
          1   -1    0    0  501    0  0.00000000000E+00 -0.00000000000E+00 -0.13234003153E+02  0.13234003153E+02  0.00000000000E+00 0. -1.
         25    2    1    2    0    0 -0.57949104205E+02 -0.12463185488E+02  0.77781342664E+03  0.79003432806E+03  0.12508830153E+03 0.  0.
         23    2    1    2    0    0  0.57949104205E+02  0.12463185488E+02  0.40113180937E+03  0.41537891426E+03  0.90108180820E+02 0.  0.
          5    1    3    3  502    0 -0.81983291915E+02  0.25650502545E+02  0.61736014528E+03  0.62332193112E+03  0.41800000000E+01 0. -1.
         -5    1    3    3    0  502  0.24034187710E+02 -0.38113688033E+02  0.16045328136E+03  0.16671239694E+03  0.41800000000E+01 0. -1.
        -11    1    4    4    0    0 -0.15995203955E+02 -0.13294543299E+01  0.14932120380E+02  0.21922185507E+02  0.00000000000E+00 0. -1.
         11    1    4    4    0    0  0.73944308161E+02  0.13792639818E+02  0.38619968899E+03  0.39345672875E+03  0.00000000000E+00 0.  1.
</event>
<event>
 8    1  0.7192024E-009  0.8518721E+02  0.7561462E-02  0.1314944E+00
         -1   -1    0    0    0  501 -0.00000000000E+00  0.00000000000E+00  0.88978510441E+02  0.88978510441E+02  0.00000000000E+00 0.  1.
          1   -1    0    0  501    0  0.00000000000E+00 -0.00000000000E+00 -0.18421801853E+03  0.18421801853E+03  0.00000000000E+00 0. -1.
         25    2    1    2    0    0 -0.44719527694E+01 -0.36937188785E+02 -0.11417429615E+03  0.17340044813E+03  0.12509033229E+03 0.  0.
         23    2    1    2    0    0  0.44719527694E+01  0.36937188785E+02  0.18934788056E+02  0.99796080847E+02  0.90644234659E+02 0.  0.
          5    1    3    3  502    0  0.36848311178E+02 -0.81398133416E+01  0.10062049587E+02  0.39278134373E+02  0.41800000000E+01 0. -1.
         -5    1    3    3    0  502 -0.41320263947E+02 -0.28797375443E+02 -0.12423634574E+03  0.13412231376E+03  0.41800000000E+01 0. -1.
        -11    1    4    4    0    0 -0.21295496864E+02  0.48992446709E+02 -0.15026921867E+02  0.55493841118E+02  0.00000000000E+00 0. -1.
         11    1    4    4    0    0  0.25767449633E+02 -0.12055257925E+02  0.33961709922E+02  0.44302239730E+02  0.00000000000E+00 0.  1.
</event>
<event>
 8    1  0.7192024E-009  0.1820843E+03  0.7561462E-02  0.1165801E+00
         -1   -1    0    0    0  501 -0.00000000000E+00  0.00000000000E+00  0.42503183379E+03  0.42503183379E+03  0.00000000000E+00 0.  1.
          1   -1    0    0  501    0  0.00000000000E+00 -0.00000000000E+00 -0.92368469039E+02  0.92368469039E+02  0.00000000000E+00 0. -1.
         25    2    1    2    0    0  0.15497297183E+03 -0.43932231983E+02  0.22244556327E+03  0.30178658931E+03  0.12508578603E+03 0.  0.
         23    2    1    2    0    0 -0.15497297183E+03  0.43932231983E+02  0.11021780148E+03  0.21561371352E+03  0.91622304545E+02 0.  0.
          5    1    3    3  502    0  0.11629772528E+03 -0.86536214849E+02  0.17352006583E+03  0.22614235126E+03  0.41800000000E+01 0.  1.
         -5    1    3    3    0  502  0.38675246544E+02  0.42603982866E+02  0.48925497436E+02  0.75644238053E+02  0.41800000000E+01 0.  1.
        -11    1    4    4    0    0 -0.10159793127E+03  0.23328579713E+02  0.16110691292E+02  0.10547946076E+03  0.00000000000E+00 0. -1.
         11    1    4    4    0    0 -0.53375040558E+02  0.20603652270E+02  0.94107110189E+02  0.11013425275E+03  0.00000000000E+00 0.  1.
</event>
<event>
 8    1  0.7192024E-009  0.6012468E+02  0.7561462E-02  0.1397309E+00
          1   -1    0    0  501    0  0.00000000000E+00  0.00000000000E+00  0.10333106416E+03  0.10333106416E+03  0.00000000000E+00 0. -1.
         -1   -1    0    0    0  501 -0.00000000000E+00 -0.00000000000E+00 -0.13154188346E+03  0.13154188346E+03  0.00000000000E+00 0.  1.
         25    2    1    2    0    0 -0.37286391931E+02  0.67098071135E+01 -0.32941396980E+02  0.13479103996E+03  0.12509273473E+03 0.  0.
         23    2    1    2    0    0  0.37286391931E+02 -0.67098071135E+01  0.47305776844E+01  0.10008190766E+03  0.92513314396E+02 0.  0.
          5    1    3    3  502    0 -0.38025820553E+02  0.69860122176E+01 -0.79255607553E+02  0.88281884461E+02  0.41800000000E+01 0. -1.
         -5    1    3    3    0  502  0.73942862232E+00 -0.27620510408E+00  0.46314210572E+02  0.46509155495E+02  0.41800000000E+01 0. -1.
        -11    1    4    4    0    0 -0.13186491568E+02 -0.20869569082E+02 -0.28739629661E+02  0.37886525132E+02  0.00000000000E+00 0.  1.
         11    1    4    4    0    0  0.50472883499E+02  0.14159761968E+02  0.33470207346E+02  0.62195382525E+02  0.00000000000E+00 0. -1.
</event>
<event>
 8    1  0.7192024E-009  0.3923208E+03  0.7561462E-02  0.1046472E+00
         -1   -1    0    0    0  501 -0.00000000000E+00  0.00000000000E+00  0.25497621981E+03  0.25497621981E+03  0.00000000000E+00 0.  1.
          1   -1    0    0  501    0  0.00000000000E+00 -0.00000000000E+00 -0.66373345476E+03  0.66373345476E+03  0.00000000000E+00 0. -1.
         25    2    1    2    0    0  0.38133113612E+03  0.73563309140E+02 -0.29498694106E+03  0.50347778572E+03  0.12509032534E+03 0.  0.
         23    2    1    2    0    0 -0.38133113612E+03 -0.73563309140E+02 -0.11377029388E+03  0.41523188885E+03  0.92999171607E+02 0.  0.
          5    1    3    3  502    0  0.30202616618E+03  0.83053165461E+02 -0.28383093619E+03  0.42272343925E+03  0.41800000000E+01 0. -1.
         -5    1    3    3    0  502  0.79304969935E+02 -0.94898563216E+01 -0.11156004872E+02  0.80754346472E+02  0.41800000000E+01 0. -1.
        -11    1    4    4    0    0 -0.14986720409E+03 -0.53235136080E+02 -0.61409107500E+01  0.15915988615E+03  0.00000000000E+00 0.  1.
         11    1    4    4    0    0 -0.23146393203E+03 -0.20328173060E+02 -0.10762938313E+03  0.25607200269E+03  0.00000000000E+00 0. -1.
</event>
<event>
 8    1  0.7192024E-009  0.1230129E+03  0.7561462E-02  0.1238208E+00
         -2   -1    0    0    0  501 -0.00000000000E+00  0.00000000000E+00  0.20469338071E+02  0.20469338071E+02  0.00000000000E+00 0.  1.
          2   -1    0    0  501    0  0.00000000000E+00 -0.00000000000E+00 -0.13636214300E+04  0.13636214300E+04  0.00000000000E+00 0. -1.
         25    2    1    2    0    0  0.92021020534E+02 -0.52357639488E+02 -0.98164886323E+03  0.99523453020E+03  0.12509232106E+03 0.  0.
         23    2    1    2    0    0 -0.92021020534E+02  0.52357639488E+02 -0.36150322875E+03  0.38885623793E+03  0.96516313345E+02 0.  0.
          5    1    3    3  502    0  0.14131578489E+02 -0.40050234551E+02 -0.84964247241E+02  0.95079537795E+02  0.41800000000E+01 0.  1.
         -5    1    3    3    0  502  0.77889442046E+02 -0.12307404938E+02 -0.89668461599E+03  0.90015499240E+03  0.41800000000E+01 0.  1.
        -11    1    4    4    0    0  0.36445499795E+01  0.24465056438E+02 -0.16458439039E+02  0.29710300346E+02  0.00000000000E+00 0.  1.
         11    1    4    4    0    0 -0.95665570514E+02  0.27892583051E+02 -0.34504478971E+03  0.35914593758E+03  0.00000000000E+00 0. -1.
</event>
<event>
 8    1  0.7192024E-009  0.1014702E+03  0.7561462E-02  0.1277234E+00
          2   -1    0    0  501    0  0.00000000000E+00  0.00000000000E+00  0.13119191930E+03  0.13119191930E+03  0.00000000000E+00 0. -1.
         -2   -1    0    0    0  501 -0.00000000000E+00 -0.00000000000E+00 -0.98480507027E+02  0.98480507027E+02  0.00000000000E+00 0.  1.
         25    2    1    2    0    0  0.63701832280E+01  0.98419317177E+00 -0.59041447104E+01  0.12538678472E+03  0.12508172923E+03 0.  0.
         23    2    1    2    0    0 -0.63701832280E+01 -0.98419317177E+00  0.38615556983E+02  0.10428564161E+03  0.96658087781E+02 0.  0.
          5    1    3    3  502    0  0.64819629933E+02 -0.50415446041E+01  0.55144278300E+01  0.65382588745E+02  0.41800000000E+01 0.  1.
         -5    1    3    3    0  502 -0.58449446705E+02  0.60257377758E+01 -0.11418572540E+02  0.60004195976E+02  0.41800000000E+01 0.  1.
        -11    1    4    4    0    0 -0.42442233590E+02 -0.42971600940E+01 -0.98472326072E+01  0.43781009205E+02  0.00000000000E+00 0.  1.
         11    1    4    4    0    0  0.36072050362E+02  0.33129669222E+01  0.48462789590E+02  0.60504632401E+02  0.00000000000E+00 0. -1.
</event>
<event>
 8    1  0.7192024E-009  0.1237718E+03  0.7561462E-02  0.1237001E+00
          2   -1    0    0  501    0  0.00000000000E+00  0.00000000000E+00  0.85145696198E+02  0.85145696198E+02  0.00000000000E+00 0. -1.
         -2   -1    0    0    0  501 -0.00000000000E+00 -0.00000000000E+00 -0.21415286966E+03  0.21415286966E+03  0.00000000000E+00 0.  1.
         25    2    1    2    0    0  0.25888739757E+02 -0.71087877666E+02 -0.10987762248E+03  0.18287715466E+03  0.12508896265E+03 0.  0.
         23    2    1    2    0    0 -0.25888739757E+02  0.71087877666E+02 -0.19129550984E+02  0.11642141120E+03  0.86396134566E+02 0.  0.
          5    1    3    3  502    0 -0.42424347943E+02 -0.58861508066E+02 -0.34887966353E+02  0.80617274988E+02  0.41800000000E+01 0. -1.
         -5    1    3    3    0  502  0.68313087700E+02 -0.12226369600E+02 -0.74989656129E+02  0.10225987967E+03  0.41800000000E+01 0. -1.
        -11    1    4    4    0    0  0.19695870353E+02  0.52572181194E+02  0.13041806825E+02  0.57635494877E+02  0.00000000000E+00 0. -1.
         11    1    4    4    0    0 -0.45584610110E+02  0.18515696472E+02 -0.32171357809E+02  0.58785916324E+02  0.00000000000E+00 0.  1.
</event>
<event>
 8    1  0.7192024E-009  0.1102054E+03  0.7561462E-02  0.1260190E+00
          2   -1    0    0  501    0  0.00000000000E+00  0.00000000000E+00  0.56650496461E+03  0.56650496461E+03  0.00000000000E+00 0. -1.
         -2   -1    0    0    0  501 -0.00000000000E+00 -0.00000000000E+00 -0.39621540239E+02  0.39621540239E+02  0.00000000000E+00 0.  1.
         25    2    1    2    0    0 -0.68206312567E+02  0.62214119863E+02  0.19429853205E+03  0.24884301042E+03  0.12509287148E+03 0.  0.
         23    2    1    2    0    0  0.68206312567E+02 -0.62214119863E+02  0.33258489232E+03  0.35728349443E+03  0.92282647374E+02 0.  0.
          5    1    3    3  502    0 -0.47242554852E+02  0.72523066624E+02  0.44946528605E+02  0.97617196308E+02  0.41800000000E+01 0.  1.
         -5    1    3    3    0  502 -0.20963757715E+02 -0.10308946761E+02  0.14935200344E+03  0.15122581411E+03  0.41800000000E+01 0.  1.
        -11    1    4    4    0    0  0.27441147632E+02 -0.63566520648E+02  0.10302628563E+03  0.12412950762E+03  0.00000000000E+00 0.  1.
         11    1    4    4    0    0  0.40765164934E+02  0.13524007853E+01  0.22955860669E+03  0.23315398681E+03  0.00000000000E+00 0. -1.
</event>
<event>
 8    1  0.7192024E-009  0.8493844E+02  0.7561462E-02  0.1315594E+00
         -1   -1    0    0    0  501 -0.00000000000E+00  0.00000000000E+00  0.49142674227E+03  0.49142674227E+03  0.00000000000E+00 0.  1.
          1   -1    0    0  501    0  0.00000000000E+00 -0.00000000000E+00 -0.34234922584E+02  0.34234922584E+02  0.00000000000E+00 0. -1.
         25    2    1    2    0    0  0.57988568082E+01  0.64213129560E+02  0.19957451007E+03  0.24420292196E+03  0.12509248290E+03 0.  0.
         23    2    1    2    0    0 -0.57988568082E+01 -0.64213129560E+02  0.25761730962E+03  0.28145874289E+03  0.93249091080E+02 0.  0.
          5    1    3    3  502    0  0.21084589522E+02  0.50498960238E+02  0.12930413796E+02  0.56385928221E+02  0.41800000000E+01 0. -1.
         -5    1    3    3    0  502 -0.15285732713E+02  0.13714169321E+02  0.18664409627E+03  0.18781699374E+03  0.41800000000E+01 0. -1.
        -11    1    4    4    0    0 -0.33798455170E+02 -0.14079539975E+02  0.18646490676E+03  0.19002560478E+03  0.00000000000E+00 0.  1.
         11    1    4    4    0    0  0.27999598362E+02 -0.50133589585E+02  0.71152402859E+02  0.91433138116E+02  0.00000000000E+00 0. -1.
</event>
<event>
 8    1  0.7192024E-009  0.1155341E+03  0.7561462E-02  0.1250652E+00
         -2   -1    0    0    0  501 -0.00000000000E+00  0.00000000000E+00  0.89002400303E+02  0.89002400303E+02  0.00000000000E+00 0.  1.
          2   -1    0    0  501    0  0.00000000000E+00 -0.00000000000E+00 -0.24093282105E+03  0.24093282105E+03  0.00000000000E+00 0. -1.
         25    2    1    2    0    0 -0.18982759951E+02  0.88285266536E+02 -0.12591034120E+03  0.19913754803E+03  0.12509082921E+03 0.  0.
         23    2    1    2    0    0  0.18982759951E+02 -0.88285266536E+02 -0.26020079550E+02  0.13079767332E+03  0.90974465341E+02 0.  0.
          5    1    3    3  502    0  0.43464940269E+02  0.45006409332E+02 -0.10134559698E+03  0.11917709655E+03  0.41800000000E+01 0.  1.
         -5    1    3    3    0  502 -0.62447700220E+02  0.43278857204E+02 -0.24564744219E+02  0.79960451488E+02  0.41800000000E+01 0.  1.
        -11    1    4    4    0    0  0.11617200386E+02 -0.16930151915E+02  0.32349997946E+02  0.38315946494E+02  0.00000000000E+00 0.  1.
         11    1    4    4    0    0  0.73655595657E+01 -0.71355114621E+02 -0.58370077495E+02  0.92481726828E+02  0.00000000000E+00 0. -1.
</event>
<event>
 8    1  0.7192024E-009  0.1865342E+03  0.7561462E-02  0.1161625E+00
         -2   -1    0    0    0  501 -0.00000000000E+00  0.00000000000E+00  0.38478558266E+02  0.38478558266E+02  0.00000000000E+00 0.  1.
          2   -1    0    0  501    0  0.00000000000E+00 -0.00000000000E+00 -0.91921285694E+03  0.91921285694E+03  0.00000000000E+00 0. -1.
         25    2    1    2    0    0 -0.73556030888E+02 -0.13405525463E+03 -0.46441500062E+03  0.50468878957E+03  0.12509268782E+03 0.  0.
         23    2    1    2    0    0  0.73556030888E+02  0.13405525463E+03 -0.41631929805E+03  0.45300262563E+03  0.92240554667E+02 0.  0.
          5    1    3    3  502    0 -0.56013417597E+02  0.38418082142E+01 -0.10199688485E+03  0.11650364527E+03  0.41800000000E+01 0. -1.
         -5    1    3    3    0  502 -0.17542613291E+02 -0.13789706284E+03 -0.36241811577E+03  0.38818514431E+03  0.41800000000E+01 0. -1.
        -11    1    4    4    0    0  0.63841364643E+02  0.25560883152E+02 -0.18345943134E+03  0.19592458124E+03  0.00000000000E+00 0. -1.
         11    1    4    4    0    0  0.97146662455E+01  0.10849437148E+03 -0.23285986671E+03  0.25707804439E+03  0.00000000000E+00 0.  1.
</event>
<event>
 8    1  0.7192024E-009  0.1588452E+03  0.7561462E-02  0.1190007E+00
         -2   -1    0    0    0  501 -0.00000000000E+00  0.00000000000E+00  0.30873391486E+03  0.30873391486E+03  0.00000000000E+00 0.  1.
          2   -1    0    0  501    0  0.00000000000E+00 -0.00000000000E+00 -0.14161514162E+03  0.14161514162E+03  0.00000000000E+00 0. -1.
         25    2    1    2    0    0  0.64277639394E+02  0.13490836252E+03 -0.17722876458E+02  0.19568621123E+03  0.12508841558E+03 0.  0.
         23    2    1    2    0    0 -0.64277639394E+02 -0.13490836252E+03  0.18484164970E+03  0.25466284525E+03  0.91404858098E+02 0.  0.
          5    1    3    3  502    0  0.47747076985E+02  0.10697275406E+03 -0.68134129549E+02  0.13558276248E+03  0.41800000000E+01 0. -1.
         -5    1    3    3    0  502  0.16530562409E+02  0.27935608465E+02  0.50411253091E+02  0.60103448754E+02  0.41800000000E+01 0. -1.
        -11    1    4    4    0    0 -0.63610866431E+02 -0.45206226376E+02  0.49909351377E+02  0.92633085807E+02  0.00000000000E+00 0. -1.
         11    1    4    4    0    0 -0.66677296283E+00 -0.89702136149E+02  0.13493229832E+03  0.16202975944E+03  0.00000000000E+00 0.  1.
</event>
<event>
 8    1  0.7192024E-009  0.1266291E+03  0.7561462E-02  0.1232545E+00
          2   -1    0    0  501    0  0.00000000000E+00  0.00000000000E+00  0.53988517416E+03  0.53988517416E+03  0.00000000000E+00 0. -1.
         -2   -1    0    0    0  501 -0.00000000000E+00 -0.00000000000E+00 -0.34143946310E+02  0.34143946310E+02  0.00000000000E+00 0.  1.
         25    2    1    2    0    0 -0.23882834602E+02  0.75520102736E+02  0.24105301668E+03  0.28289259605E+03  0.12509191957E+03 0.  0.
         23    2    1    2    0    0  0.23882834602E+02 -0.75520102736E+02  0.26468821117E+03  0.29113652443E+03  0.91798426000E+02 0.  0.
          5    1    3    3  502    0 -0.16289804002E+02  0.10491744450E+03  0.22374646390E+03  0.24769533783E+03  0.41800000000E+01 0.  1.
         -5    1    3    3    0  502 -0.75930306008E+01 -0.29397341769E+02  0.17306552784E+02  0.35197258218E+02  0.41800000000E+01 0.  1.
        -11    1    4    4    0    0 -0.31610467554E+02 -0.17774495202E+02  0.48270752168E+02  0.60375656133E+02  0.00000000000E+00 0. -1.
         11    1    4    4    0    0  0.55493302157E+02 -0.57745607534E+02  0.21641745901E+03  0.23076086830E+03  0.00000000000E+00 0.  1.
</event>
<event>
 8    1  0.7192024E-009  0.1024237E+03  0.7561462E-02  0.1275280E+00
         -2   -1    0    0    0  501 -0.00000000000E+00  0.00000000000E+00  0.94081188239E+01  0.94081188239E+01  0.00000000000E+00 0.  1.
          2   -1    0    0  501    0  0.00000000000E+00 -0.00000000000E+00 -0.13605986750E+04  0.13605986750E+04  0.00000000000E+00 0. -1.
         25    2    1    2    0    0  0.13269497011E+01  0.42983562898E+01 -0.10016069283E+04  0.10093978373E+04  0.12508924199E+03 0.  0.
         23    2    1    2    0    0 -0.13269497011E+01 -0.42983562898E+01 -0.34958362784E+03  0.36060895649E+03  0.88373468783E+02 0.  0.
          5    1    3    3  502    0 -0.44825672543E+02  0.38281339642E+02 -0.32295684254E+03  0.32831904670E+03  0.41800000000E+01 0.  1.
         -5    1    3    3    0  502  0.46152622244E+02 -0.33982983353E+02 -0.67865008578E+03  0.68107879062E+03  0.41800000000E+01 0.  1.
        -11    1    4    4    0    0 -0.41597714055E+02 -0.18578383006E+02 -0.16819148841E+03  0.17425241147E+03  0.00000000000E+00 0.  1.
         11    1    4    4    0    0  0.40270764354E+02  0.14280026717E+02 -0.18139213943E+03  0.18635654502E+03  0.00000000000E+00 0. -1.
</event>
<event>
 8    1  0.7192024E-009  0.1007156E+03  0.7561462E-02  0.1278798E+00
          2   -1    0    0  501    0  0.00000000000E+00  0.00000000000E+00  0.49659859154E+02  0.49659859154E+02  0.00000000000E+00 0.  1.
         -2   -1    0    0    0  501 -0.00000000000E+00 -0.00000000000E+00 -0.56420809248E+03  0.56420809248E+03  0.00000000000E+00 0. -1.
         25    2    1    2    0    0 -0.47606883370E+02 -0.40961134517E+02 -0.73602045387E+02  0.15814504448E+03  0.12509342158E+03 0.  0.
         23    2    1    2    0    0  0.47606883370E+02  0.40961134517E+02 -0.44094618794E+03  0.45572290715E+03  0.96465525245E+02 0.  0.
          5    1    3    3  502    0 -0.65123306342E+01  0.15075212434E+02 -0.85810152417E+02  0.87467291819E+02  0.41800000000E+01 0. -1.
         -5    1    3    3    0  502 -0.41094552735E+02 -0.56036346951E+02  0.12208107031E+02  0.70677752662E+02  0.41800000000E+01 0. -1.
        -11    1    4    4    0    0 -0.28313097707E+02 -0.59867158524E+00 -0.96547843747E+02  0.10061548609E+03  0.00000000000E+00 0.  1.
         11    1    4    4    0    0  0.75919981077E+02  0.41559806102E+02 -0.34439834419E+03  0.35510742106E+03  0.00000000000E+00 0. -1.
</event>
<event>
 8    1  0.7192024E-009  0.1353236E+03  0.7561462E-02  0.1219764E+00
         -2   -1    0    0    0  501 -0.00000000000E+00  0.00000000000E+00  0.24513141252E+02  0.24513141252E+02  0.00000000000E+00 0. -1.
          2   -1    0    0  501    0  0.00000000000E+00 -0.00000000000E+00 -0.88085379766E+03  0.88085379766E+03  0.00000000000E+00 0.  1.
         25    2    1    2    0    0 -0.33318551382E+02  0.81439244695E+02 -0.59881918891E+03  0.61804085604E+03  0.12509037647E+03 0.  0.
         23    2    1    2    0    0  0.33318551382E+02 -0.81439244695E+02 -0.25752146751E+03  0.28732608288E+03  0.92176435350E+02 0.  0.
          5    1    3    3  502    0 -0.57665358936E+02 -0.77471969616E+01 -0.18406405733E+03  0.19308641144E+03  0.41800000000E+01 0.  1.
         -5    1    3    3    0  502  0.24346807554E+02  0.89186441657E+02 -0.41475513158E+03  0.42495444460E+03  0.41800000000E+01 0.  1.
        -11    1    4    4    0    0  0.52429290348E+02 -0.21168619477E+02 -0.73411899631E+02  0.92662009175E+02  0.00000000000E+00 0. -1.
         11    1    4    4    0    0 -0.19110738966E+02 -0.60270625218E+02 -0.18410956788E+03  0.19466407370E+03  0.00000000000E+00 0.  1.
</event>
<event>
 8    1  0.7192024E-009  0.1065282E+03  0.7561462E-02  0.1267138E+00
          2   -1    0    0  501    0  0.00000000000E+00  0.00000000000E+00  0.11821692495E+04  0.11821692495E+04  0.00000000000E+00 0. -1.
         -2   -1    0    0    0  501 -0.00000000000E+00 -0.00000000000E+00 -0.10980143099E+02  0.10980143099E+02  0.00000000000E+00 0.  1.
         25    2    1    2    0    0 -0.10474350412E+02 -0.30373594063E+01  0.80611911761E+03  0.81583922774E+03  0.12508667469E+03 0.  0.
         23    2    1    2    0    0  0.10474350412E+02  0.30373594063E+01  0.36506998881E+03  0.37731016487E+03  0.94699135250E+02 0.  0.
          5    1    3    3  502    0  0.54536082766E+02 -0.17913895731E+02  0.42934205874E+03  0.43318260328E+03  0.41800000000E+01 0. -1.
         -5    1    3    3    0  502 -0.65010433178E+02  0.14876536325E+02  0.37677705887E+03  0.38265662446E+03  0.41800000000E+01 0. -1.
        -11    1    4    4    0    0  0.29422039004E+02 -0.35277144032E+02  0.25738744853E+03  0.26145445479E+03  0.00000000000E+00 0. -1.
         11    1    4    4    0    0 -0.18947688592E+02  0.38314503439E+02  0.10768254028E+03  0.11585571008E+03  0.00000000000E+00 0.  1.
</event>
<event>
 8    1  0.7192024E-009  0.7671420E+02  0.7561462E-02  0.1338643E+00
          1   -1    0    0  501    0  0.00000000000E+00  0.00000000000E+00  0.10492365480E+03  0.10492365480E+03  0.00000000000E+00 0. -1.
         -1   -1    0    0    0  501 -0.00000000000E+00 -0.00000000000E+00 -0.14367695838E+03  0.14367695838E+03  0.00000000000E+00 0.  1.
         25    2    1    2    0    0 -0.22030102601E+02 -0.44108594287E+02  0.93599303471E+01  0.13478047929E+03  0.12508907142E+03 0.  0.
         23    2    1    2    0    0  0.22030102601E+02  0.44108594287E+02 -0.48113233923E+02  0.11382013390E+03  0.90604889997E+02 0.  0.
          5    1    3    3  502    0  0.11327597676E+02 -0.34763830535E+02  0.61720203820E+02  0.71858850131E+02  0.41800000000E+01 0.  1.
         -5    1    3    3    0  502 -0.33357700277E+02 -0.93447637525E+01 -0.52360273473E+02  0.62921629155E+02  0.41800000000E+01 0.  1.
        -11    1    4    4    0    0 -0.23282716055E+02  0.11955667082E+02  0.14652507472E+02  0.29995313258E+02  0.00000000000E+00 0. -1.
         11    1    4    4    0    0  0.45312818656E+02  0.32152927206E+02 -0.62765741395E+02  0.83824820640E+02  0.00000000000E+00 0.  1.
</event>
<event>
 8    1  0.7192024E-009  0.4961101E+02  0.7561462E-02  0.1447451E+00
         -1   -1    0    0    0  501 -0.00000000000E+00  0.00000000000E+00  0.21914336279E+03  0.21914336279E+03  0.00000000000E+00 0.  1.
          1   -1    0    0  501    0  0.00000000000E+00 -0.00000000000E+00 -0.19319790023E+03  0.19319790023E+03  0.00000000000E+00 0. -1.
         25    2    1    2    0    0  0.23989324928E+02  0.63897170453E+01  0.18684945925E+03  0.22621985874E+03  0.12508552223E+03 0.  0.
         23    2    1    2    0    0 -0.23989324928E+02 -0.63897170453E+01 -0.16090399670E+03  0.18612140427E+03  0.90192930875E+02 0.  0.
          5    1    3    3  502    0  0.12004356315E+02 -0.12604087553E+01 -0.17315757868E+02  0.21517459686E+02  0.41800000000E+01 0.  1.
         -5    1    3    3    0  502  0.11984968613E+02  0.76501258006E+01  0.20416521712E+03  0.20470239906E+03  0.41800000000E+01 0.  1.
        -11    1    4    4    0    0 -0.28186027258E+01 -0.35512171679E+02 -0.14005836040E+03  0.14451782996E+03  0.00000000000E+00 0. -1.
         11    1    4    4    0    0 -0.21170722202E+02  0.29122454633E+02 -0.20845636292E+02  0.41603574304E+02  0.00000000000E+00 0.  1.
</event>
<event>
 8    1  0.7192024E-009  0.1029208E+03  0.7561462E-02  0.1274271E+00
          1   -1    0    0  501    0  0.00000000000E+00  0.00000000000E+00  0.62145153109E+03  0.62145153109E+03  0.00000000000E+00 0. -1.
         -1   -1    0    0    0  501 -0.00000000000E+00 -0.00000000000E+00 -0.33114796751E+02  0.33114796751E+02  0.00000000000E+00 0.  1.
         25    2    1    2    0    0  0.78807428845E+02 -0.31719251199E+02  0.23003114356E+03  0.27527705410E+03  0.12508560177E+03 0.  0.
         23    2    1    2    0    0 -0.78807428845E+02  0.31719251199E+02  0.35830559078E+03  0.37928927374E+03  0.90888585934E+02 0.  0.
          5    1    3    3  502    0  0.63793793276E+02 -0.36300361698E+02  0.38369013065E+02  0.82927787162E+02  0.41800000000E+01 0. -1.
         -5    1    3    3    0  502  0.15013635568E+02  0.45811104992E+01  0.19166213049E+03  0.19234926694E+03  0.41800000000E+01 0. -1.
        -11    1    4    4    0    0 -0.70468462053E+02  0.56253134484E+02  0.20707144693E+03  0.22585128607E+03  0.00000000000E+00 0.  1.
         11    1    4    4    0    0 -0.83389667918E+01 -0.24533883285E+02  0.15123414385E+03  0.15343798768E+03  0.00000000000E+00 0. -1.
</event>
<event>
 8    1  0.7192024E-009  0.1101945E+03  0.7561462E-02  0.1260210E+00
         -1   -1    0    0    0  501 -0.00000000000E+00  0.00000000000E+00  0.39316155287E+02  0.39316155287E+02  0.00000000000E+00 0. -1.
          1   -1    0    0  501    0  0.00000000000E+00 -0.00000000000E+00 -0.32684003812E+03  0.32684003812E+03  0.00000000000E+00 0.  1.
         25    2    1    2    0    0  0.17436871751E+02 -0.19736878719E+02 -0.16772550084E+03  0.21088696992E+03  0.12509149280E+03 0.  0.
         23    2    1    2    0    0 -0.17436871751E+02  0.19736878719E+02 -0.11979838199E+03  0.15526922349E+03  0.95201315943E+02 0.  0.
          5    1    3    3  502    0  0.61390704933E+02 -0.42793235862E+02 -0.12249388859E+03  0.14360468248E+03  0.41800000000E+01 0. -1.
         -5    1    3    3    0  502 -0.43953833182E+02  0.23056357143E+02 -0.45231612249E+02  0.67282287437E+02  0.41800000000E+01 0. -1.
        -11    1    4    4    0    0 -0.43029212272E+02  0.43153344380E+02 -0.94055240326E+02  0.11207190760E+03  0.00000000000E+00 0. -1.
         11    1    4    4    0    0  0.25592340521E+02 -0.23416465661E+02 -0.25743141664E+02  0.43197315890E+02  0.00000000000E+00 0.  1.
</event>
<event>
 8    1  0.7192024E-009  0.1466803E+03  0.7561462E-02  0.1204613E+00
         -2   -1    0    0    0  501 -0.00000000000E+00  0.00000000000E+00  0.20470111019E+02  0.20470111019E+02  0.00000000000E+00 0.  1.
          2   -1    0    0  501    0  0.00000000000E+00 -0.00000000000E+00 -0.11284233436E+04  0.11284233436E+04  0.00000000000E+00 0. -1.
         25    2    1    2    0    0 -0.31780170981E+02 -0.10118261984E+03 -0.59544221408E+03  0.61761400718E+03  0.12509088589E+03 0.  0.
         23    2    1    2    0    0  0.31780170981E+02  0.10118261984E+03 -0.51251101847E+03  0.53127944741E+03  0.91336768939E+02 0.  0.
          5    1    3    3  502    0 -0.35351696820E+02 -0.12988118029E+03 -0.49757953280E+03  0.51548203395E+03  0.41800000000E+01 0.  1.
         -5    1    3    3    0  502  0.35715258386E+01  0.28698560455E+02 -0.97862681276E+02  0.10213197323E+03  0.41800000000E+01 0.  1.
        -11    1    4    4    0    0  0.74561231935E+00  0.98297718625E+02 -0.45851002986E+03  0.46892904037E+03  0.00000000000E+00 0. -1.
         11    1    4    4    0    0  0.31034558662E+02  0.28849012108E+01 -0.54000988610E+02  0.62350407033E+02  0.00000000000E+00 0.  1.
</event>
<event>
 8    1  0.7192024E-009  0.1236230E+03  0.7561462E-02  0.1237237E+00
          2   -1    0    0  501    0  0.00000000000E+00  0.00000000000E+00  0.18840652643E+04  0.18840652643E+04  0.00000000000E+00 0. -1.
         -2   -1    0    0    0  501 -0.00000000000E+00 -0.00000000000E+00 -0.12131517968E+02  0.12131517968E+02  0.00000000000E+00 0.  1.
         25    2    1    2    0    0 -0.33235398551E+02  0.82246146357E+02  0.13096548688E+04  0.13186019826E+04  0.12508514158E+03 0.  0.
         23    2    1    2    0    0  0.33235398551E+02 -0.82246146357E+02  0.56227887750E+03  0.57759479971E+03  0.97924441599E+02 0.  0.
          5    1    3    3  502    0  0.33433968500E+02  0.38038769565E+02  0.88502624658E+03  0.88648390159E+03  0.41800000000E+01 0.  1.
         -5    1    3    3    0  502 -0.66669367051E+02  0.44207376792E+02  0.42462862225E+03  0.43211808097E+03  0.41800000000E+01 0.  1.
        -11    1    4    4    0    0  0.48302124073E+02 -0.87848595791E+02  0.54439313168E+03  0.55354706466E+03  0.00000000000E+00 0. -1.
         11    1    4    4    0    0 -0.15066725522E+02  0.56024494338E+01  0.17885745825E+02  0.24047735056E+02  0.00000000000E+00 0.  1.
</event>
<event>
 8    1  0.7192024E-009  0.1016715E+03  0.7561462E-02  0.1276820E+00
         -1   -1    0    0    0  501 -0.00000000000E+00  0.00000000000E+00  0.74580396351E+02  0.74580396351E+02  0.00000000000E+00 0.  1.
          1   -1    0    0  501    0  0.00000000000E+00 -0.00000000000E+00 -0.20566435557E+03  0.20566435557E+03  0.00000000000E+00 0. -1.
         25    2    1    2    0    0 -0.96350735255E+01 -0.58231070965E+02 -0.80263673861E+02  0.15991591378E+03  0.12508856811E+03 0.  0.
         23    2    1    2    0    0  0.96350735255E+01  0.58231070965E+02 -0.50820285354E+02  0.12032883813E+03  0.91720420927E+02 0.  0.
          5    1    3    3  502    0 -0.12081076664E+02 -0.77308229551E+02 -0.10327401641E+03  0.12963606611E+03  0.41800000000E+01 0. -1.
         -5    1    3    3    0  502  0.24460031384E+01  0.19077158586E+02  0.23010342551E+02  0.30279847678E+02  0.41800000000E+01 0. -1.
        -11    1    4    4    0    0  0.37105580831E+02  0.66896222679E+02 -0.50235893363E+02  0.91518160599E+02  0.00000000000E+00 0.  1.
         11    1    4    4    0    0 -0.27470507305E+02 -0.86651517139E+01 -0.58439199053E+00  0.28810677532E+02  0.00000000000E+00 0. -1.
</event>
<event>
 8    1  0.7192024E-009  0.1041810E+03  0.7561462E-02  0.1271742E+00
         -1   -1    0    0    0  501 -0.00000000000E+00  0.00000000000E+00  0.22343825468E+02  0.22343825468E+02  0.00000000000E+00 0.  1.
          1   -1    0    0  501    0  0.00000000000E+00 -0.00000000000E+00 -0.87433634237E+03  0.87433634237E+03  0.00000000000E+00 0. -1.
         25    2    1    2    0    0 -0.42573715902E+01 -0.81819778333E+02 -0.59422660166E+03  0.61275491228E+03  0.12510286595E+03 0.  0.
         23    2    1    2    0    0  0.42573715902E+01  0.81819778333E+02 -0.25776591524E+03  0.28392525556E+03  0.86357873650E+02 0.  0.
          5    1    3    3  502    0 -0.88050425216E+01  0.13348782190E+02 -0.71943900996E+01  0.18026380908E+02  0.41800000000E+01 0. -1.
         -5    1    3    3    0  502  0.45476709314E+01 -0.95168560523E+02 -0.58703221156E+03  0.59472853137E+03  0.41800000000E+01 0. -1.
        -11    1    4    4    0    0 -0.17014177727E+02  0.65244414972E+01 -0.43897713092E+01  0.18743550163E+02  0.00000000000E+00 0.  1.
         11    1    4    4    0    0  0.21271549317E+02  0.75295336836E+02 -0.25337614394E+03  0.26518170539E+03  0.00000000000E+00 0. -1.
</event>
<event>
 8    1  0.7192024E-009  0.3049977E+03  0.7561462E-02  0.1082769E+00
         -2   -1    0    0    0  501 -0.00000000000E+00  0.00000000000E+00  0.47813449938E+02  0.47813449938E+02  0.00000000000E+00 0.  1.
          2   -1    0    0  501    0  0.00000000000E+00 -0.00000000000E+00 -0.22967319510E+04  0.22967319510E+04  0.00000000000E+00 0. -1.
         25    2    1    2    0    0 -0.24329949505E+03  0.17108995512E+03 -0.14838219016E+04  0.15184995719E+04  0.12508835756E+03 0.  0.
         23    2    1    2    0    0  0.24329949505E+03 -0.17108995512E+03 -0.76509659944E+03  0.82604582900E+03  0.92263145989E+02 0.  0.
          5    1    3    3  502    0 -0.18089159518E+02 -0.10303387177E+02 -0.33787258447E+02  0.39905246682E+02  0.41800000000E+01 0. -1.
         -5    1    3    3    0  502 -0.22521033553E+03  0.18139334230E+03 -0.14500346432E+04  0.14785943253E+04  0.41800000000E+01 0. -1.
        -11    1    4    4    0    0  0.93148478425E+02 -0.44832520742E+02 -0.16512306215E+03  0.19481329421E+03  0.00000000000E+00 0. -1.
         11    1    4    4    0    0  0.15015101662E+03 -0.12625743438E+03 -0.59997353729E+03  0.63123253479E+03  0.00000000000E+00 0.  1.
</event>
<event>
 8    1  0.7192024E-009  0.1279182E+03  0.7561462E-02  0.1230578E+00
         -1   -1    0    0    0  501 -0.00000000000E+00  0.00000000000E+00  0.18734442641E+03  0.18734442641E+03  0.00000000000E+00 0.  1.
          1   -1    0    0  501    0  0.00000000000E+00 -0.00000000000E+00 -0.13452561978E+03  0.13452561978E+03  0.00000000000E+00 0. -1.
         25    2    1    2    0    0 -0.60468089657E+02  0.92922156268E+02 -0.50322514154E+01  0.16722283531E+03  0.12508891278E+03 0.  0.
         23    2    1    2    0    0  0.60468089657E+02 -0.92922156268E+02  0.57851058043E+02  0.15464721088E+03  0.90984053125E+02 0.  0.
          5    1    3    3  502    0 -0.13518958637E+02  0.55468320047E+02 -0.61966731918E+02  0.84361395413E+02  0.41800000000E+01 0. -1.
         -5    1    3    3    0  502 -0.46949131020E+02  0.37453836221E+02  0.56934480502E+02  0.82861439894E+02  0.41800000000E+01 0. -1.
        -11    1    4    4    0    0  0.80729130998E+02 -0.63726874026E+02  0.59951469654E+02  0.11904824979E+03  0.00000000000E+00 0. -1.
         11    1    4    4    0    0 -0.20261041341E+02 -0.29195282242E+02 -0.21004116111E+01  0.35598961085E+02  0.00000000000E+00 0.  1.
</event>
<event>
 8    1  0.7192024E-009  0.1511569E+03  0.7561462E-02  0.1199059E+00
         -2   -1    0    0    0  501 -0.00000000000E+00  0.00000000000E+00  0.22521593693E+02  0.22521593693E+02  0.00000000000E+00 0.  1.
          2   -1    0    0  501    0  0.00000000000E+00 -0.00000000000E+00 -0.11087203856E+04  0.11087203856E+04  0.00000000000E+00 0. -1.
         25    2    1    2    0    0  0.11244473002E+03 -0.93427344731E+01 -0.67759198744E+03  0.69821951019E+03  0.12509388065E+03 0.  0.
         23    2    1    2    0    0 -0.11244473002E+03  0.93427344731E+01 -0.40860680451E+03  0.43302246914E+03  0.88418516681E+02 0.  0.
          5    1    3    3  502    0  0.12261855575E+02  0.43665173328E+02 -0.10422602164E+03  0.11374329189E+03  0.41800000000E+01 0.  1.
         -5    1    3    3    0  502  0.10018287444E+03 -0.53007907801E+02 -0.57336596580E+03  0.58447621830E+03  0.41800000000E+01 0.  1.
        -11    1    4    4    0    0 -0.20119288868E+02  0.41061869730E+02 -0.13104373622E+03  0.13879237635E+03  0.00000000000E+00 0. -1.
         11    1    4    4    0    0 -0.92325441151E+02 -0.31719135257E+02 -0.27756306829E+03  0.29423009279E+03  0.00000000000E+00 0.  1.
</event>
<event>
 8    1  0.7192024E-009  0.1172857E+03  0.7561462E-02  0.1247643E+00
         -2   -1    0    0    0  501 -0.00000000000E+00  0.00000000000E+00  0.63411251306E+03  0.63411251306E+03  0.00000000000E+00 0.  1.
          2   -1    0    0  501    0  0.00000000000E+00 -0.00000000000E+00 -0.26887228139E+02  0.26887228139E+02  0.00000000000E+00 0. -1.
         25    2    1    2    0    0 -0.55488364038E+02  0.41029069130E+02  0.36572772432E+03  0.39263949684E+03  0.12508662235E+03 0.  0.
         23    2    1    2    0    0  0.55488364038E+02 -0.41029069130E+02  0.24149756060E+03  0.26836024436E+03  0.94518812498E+02 0.  0.
          5    1    3    3  502    0 -0.59022297993E+02  0.80314085160E+02  0.21909005860E+03  0.24073202967E+03  0.41800000000E+01 0.  1.
         -5    1    3    3    0  502  0.35339339559E+01 -0.39285016030E+02  0.14663766572E+03  0.15190746717E+03  0.41800000000E+01 0.  1.
        -11    1    4    4    0    0  0.28602591448E+02  0.15514797398E+02  0.17102230217E+03  0.17409033579E+03  0.00000000000E+00 0.  1.
         11    1    4    4    0    0  0.26885772590E+02 -0.56543866528E+02  0.70475258432E+02  0.94269908564E+02  0.00000000000E+00 0. -1.
</event>
<event>
 8    1  0.7192024E-009  0.8085640E+02  0.7561462E-02  0.1326639E+00
         -1   -1    0    0    0  501 -0.00000000000E+00  0.00000000000E+00  0.12971484515E+02  0.12971484515E+02  0.00000000000E+00 0.  1.
          1   -1    0    0  501    0  0.00000000000E+00 -0.00000000000E+00 -0.10389791933E+04  0.10389791933E+04  0.00000000000E+00 0. -1.
         25    2    1    2    0    0  0.20255914258E+02 -0.12977847297E+01 -0.74837443173E+03  0.75902733450E+03  0.12508484378E+03 0.  0.
         23    2    1    2    0    0 -0.20255914258E+02  0.12977847297E+01 -0.27763327706E+03  0.29292334332E+03  0.91169414952E+02 0.  0.
          5    1    3    3  502    0 -0.13093774395E+01  0.30128723699E+02 -0.67964068521E+03  0.68032226765E+03  0.41800000000E+01 0.  1.
         -5    1    3    3    0  502  0.21565291698E+02 -0.31426508429E+02 -0.68733746519E+02  0.78705066854E+02  0.41800000000E+01 0.  1.
        -11    1    4    4    0    0 -0.23830227590E+02  0.44018307142E+02 -0.16417823875E+03  0.17163911323E+03  0.00000000000E+00 0. -1.
         11    1    4    4    0    0  0.35743133324E+01 -0.42720522412E+02 -0.11345503831E+03  0.12128423009E+03  0.00000000000E+00 0.  1.
</event>
<event>
 8    1  0.7192024E-009  0.1120990E+03  0.7561462E-02  0.1256731E+00
         -1   -1    0    0    0  501 -0.00000000000E+00  0.00000000000E+00  0.31952966136E+02  0.31952966136E+02  0.00000000000E+00 0.  1.
          1   -1    0    0  501    0  0.00000000000E+00 -0.00000000000E+00 -0.56253580876E+03  0.56253580876E+03  0.00000000000E+00 0. -1.
         25    2    1    2    0    0  0.22276512021E+02 -0.74909678275E+02 -0.29712678219E+03  0.33172125154E+03  0.12508781373E+03 0.  0.
         23    2    1    2    0    0 -0.22276512021E+02  0.74909678275E+02 -0.23345606043E+03  0.26276752335E+03  0.91854974219E+02 0.  0.
          5    1    3    3  502    0 -0.42161010119E+01 -0.79613342755E+02 -0.80445838969E+02  0.11333607219E+03  0.41800000000E+01 0. -1.
         -5    1    3    3    0  502  0.26492613033E+02  0.47036644798E+01 -0.21668094322E+03  0.21838517935E+03  0.41800000000E+01 0. -1.
        -11    1    4    4    0    0 -0.43881818351E+02  0.52428833518E+01 -0.59323159106E+02  0.73975259472E+02  0.00000000000E+00 0.  1.
         11    1    4    4    0    0  0.21605306330E+02  0.69666794924E+02 -0.17413290133E+03  0.18879226388E+03  0.00000000000E+00 0. -1.
</event>
<event>
 8    1  0.7192024E-009  0.1818476E+03  0.7561462E-02  0.1166027E+00
         -2   -1    0    0    0  501 -0.00000000000E+00  0.00000000000E+00  0.25030010210E+03  0.25030010210E+03  0.00000000000E+00 0.  1.
          2   -1    0    0  501    0  0.00000000000E+00 -0.00000000000E+00 -0.15763058365E+03  0.15763058365E+03  0.00000000000E+00 0. -1.
         25    2    1    2    0    0  0.53775629998E+02  0.15100163292E+03  0.52502755761E+01  0.20339143983E+03  0.12508877198E+03 0.  0.
         23    2    1    2    0    0 -0.53775629998E+02 -0.15100163292E+03  0.87419242870E+02  0.20453924591E+03  0.92200149503E+02 0.  0.
          5    1    3    3  502    0 -0.14386555456E+02  0.12002816912E+03  0.29640931702E+02  0.12453831376E+03  0.41800000000E+01 0. -1.
         -5    1    3    3    0  502  0.68162185454E+02  0.30973463799E+02 -0.24390656126E+02  0.78853126075E+02  0.41800000000E+01 0. -1.
        -11    1    4    4    0    0 -0.35759723876E+02 -0.33914033485E+02 -0.11032835873E+02  0.50503890804E+02  0.00000000000E+00 0. -1.
         11    1    4    4    0    0 -0.18015906122E+02 -0.11708759944E+03  0.98452078742E+02  0.15403535511E+03  0.00000000000E+00 0.  1.
</event>
<event>
 8    1  0.7192024E-009  0.1139510E+03  0.7561462E-02  0.1253423E+00
          1   -1    0    0  501    0  0.00000000000E+00  0.00000000000E+00  0.43988647741E+02  0.43988647741E+02  0.00000000000E+00 0. -1.
         -1   -1    0    0    0  501 -0.00000000000E+00 -0.00000000000E+00 -0.42535961230E+03  0.42535961230E+03  0.00000000000E+00 0.  1.
         25    2    1    2    0    0 -0.83175954540E+02 -0.22228764603E+01 -0.21656916149E+03  0.26357862603E+03  0.12509320444E+03 0.  0.
         23    2    1    2    0    0  0.83175954540E+02  0.22228764603E+01 -0.16480180307E+03  0.20576963401E+03  0.90875339860E+02 0.  0.
          5    1    3    3  502    0 -0.21259265745E+02 -0.31254610620E+02 -0.18368922267E+03  0.18758467418E+03  0.41800000000E+01 0. -1.
         -5    1    3    3    0  502 -0.61916688794E+02  0.29031734160E+02 -0.32879938824E+02  0.75993951843E+02  0.41800000000E+01 0. -1.
        -11    1    4    4    0    0 -0.12184468422E+02 -0.20022626689E+02 -0.47503322876E+02  0.52971053742E+02  0.00000000000E+00 0.  1.
         11    1    4    4    0    0  0.95360422962E+02  0.22245503150E+02 -0.11729848019E+03  0.15279858027E+03  0.00000000000E+00 0. -1.
</event>
<event>
 8    1  0.7192024E-009  0.8162535E+02  0.7561462E-02  0.1324501E+00
          1   -1    0    0  501    0  0.00000000000E+00  0.00000000000E+00  0.28890623292E+03  0.28890623292E+03  0.00000000000E+00 0. -1.
         -1   -1    0    0    0  501 -0.00000000000E+00 -0.00000000000E+00 -0.49194052658E+02  0.49194052658E+02  0.00000000000E+00 0.  1.
         25    2    1    2    0    0 -0.43887420634E+02 -0.14580634607E+02  0.10776520636E+03  0.17146196396E+03  0.12508862773E+03 0.  0.
         23    2    1    2    0    0  0.43887420634E+02  0.14580634607E+02  0.13194697391E+03  0.16663832162E+03  0.90662151495E+02 0.  0.
          5    1    3    3  502    0 -0.56295304970E+02 -0.20115838468E+02  0.13109484149E+03  0.14414277014E+03  0.41800000000E+01 0. -1.
         -5    1    3    3    0  502  0.12407884335E+02  0.55352038605E+01 -0.23329635133E+02  0.27319193818E+02  0.41800000000E+01 0. -1.
        -11    1    4    4    0    0  0.60813237045E+02  0.28532011869E+02  0.55588267679E+02  0.87191633800E+02  0.00000000000E+00 0.  1.
         11    1    4    4    0    0 -0.16925816411E+02 -0.13951377262E+02  0.76358706230E+02  0.79446687821E+02  0.00000000000E+00 0. -1.
</event>
<event>
 8    1  0.7192024E-009  0.1204386E+03  0.7561462E-02  0.1242375E+00
         -1   -1    0    0    0  501 -0.00000000000E+00  0.00000000000E+00  0.36063733063E+03  0.36063733063E+03  0.00000000000E+00 0.  1.
          1   -1    0    0  501    0  0.00000000000E+00 -0.00000000000E+00 -0.70167387873E+02  0.70167387873E+02  0.00000000000E+00 0. -1.
         25    2    1    2    0    0  0.23280542756E+02  0.11282991624E+03  0.17106662011E+03  0.24121289154E+03  0.12508915564E+03 0.  0.
         23    2    1    2    0    0 -0.23280542756E+02 -0.11282991624E+03  0.11940332264E+03  0.18959182696E+03  0.91735128081E+02 0.  0.
          5    1    3    3  502    0 -0.11299038568E+02  0.18772980702E+02 -0.17017709124E+02  0.28056512628E+02  0.41800000000E+01 0.  1.
         -5    1    3    3    0  502  0.34579581324E+02  0.94056935534E+02  0.18808432924E+03  0.21315637891E+03  0.41800000000E+01 0.  1.
        -11    1    4    4    0    0 -0.27596792273E+02 -0.70288141999E+02  0.15296241365E+02  0.77045316855E+02  0.00000000000E+00 0. -1.
         11    1    4    4    0    0  0.43162495175E+01 -0.42541774236E+02  0.10410708128E+03  0.11254651011E+03  0.00000000000E+00 0.  1.
</event>
<event>
 8    1  0.7192024E-009  0.1359549E+03  0.7561462E-02  0.1218878E+00
         -2   -1    0    0    0  501 -0.00000000000E+00  0.00000000000E+00  0.35424632401E+03  0.35424632401E+03  0.00000000000E+00 0. -1.
          2   -1    0    0  501    0  0.00000000000E+00 -0.00000000000E+00 -0.77943624703E+02  0.77943624703E+02  0.00000000000E+00 0.  1.
         25    2    1    2    0    0 -0.37869076091E+02 -0.90986200536E+02  0.24893252709E+03  0.29551216711E+03  0.12508989670E+03 0.  0.
         23    2    1    2    0    0  0.37869076091E+02  0.90986200536E+02  0.27370172224E+02  0.13667778161E+03  0.90659439915E+02 0.  0.
          5    1    3    3  502    0 -0.35352544686E+01 -0.11285819297E+03  0.14508868368E+03  0.18389580821E+03  0.41800000000E+01 0. -1.
         -5    1    3    3    0  502 -0.34333821622E+02  0.21871992437E+02  0.10384384340E+03  0.11161635889E+03  0.41800000000E+01 0. -1.
        -11    1    4    4    0    0 -0.18622553440E+02  0.21500115568E+02 -0.20568489119E+02  0.35101527185E+02  0.00000000000E+00 0.  1.
         11    1    4    4    0    0  0.56491629531E+02  0.69486084968E+02  0.47938661343E+02  0.10157625442E+03  0.00000000000E+00 0. -1.
</event>
<event>
 8    1  0.7192024E-009  0.1095246E+03  0.7561462E-02  0.1261453E+00
         -2   -1    0    0    0  501 -0.00000000000E+00  0.00000000000E+00  0.35929196507E+03  0.35929196507E+03  0.00000000000E+00 0.  1.
          2   -1    0    0  501    0  0.00000000000E+00 -0.00000000000E+00 -0.35358995681E+02  0.35358995681E+02  0.00000000000E+00 0. -1.
         25    2    1    2    0    0 -0.27874873153E+02 -0.15327344609E+01  0.15431241583E+03  0.20059475627E+03  0.12508627717E+03 0.  0.
         23    2    1    2    0    0  0.27874873153E+02  0.15327344609E+01  0.16962055356E+03  0.19405620448E+03  0.90040660135E+02 0.  0.
          5    1    3    3  502    0 -0.75654500745E+02 -0.12607280883E+02  0.75713911735E+02  0.10785460511E+03  0.41800000000E+01 0. -1.
         -5    1    3    3    0  502  0.47779627592E+02  0.11074546422E+02  0.78598504093E+02  0.92740151159E+02  0.41800000000E+01 0. -1.
        -11    1    4    4    0    0  0.22837905021E+01 -0.42243934970E+02  0.93072115407E+02  0.10223592523E+03  0.00000000000E+00 0.  1.
         11    1    4    4    0    0  0.25591082651E+02  0.43776669430E+02  0.76548438154E+02  0.91820279250E+02  0.00000000000E+00 0. -1.
</event>
<event>
 8    1  0.7192024E-009  0.1389331E+03  0.7561462E-02  0.1214772E+00
          2   -1    0    0  501    0  0.00000000000E+00  0.00000000000E+00  0.27828705141E+03  0.27828705141E+03  0.00000000000E+00 0. -1.
         -2   -1    0    0    0  501 -0.00000000000E+00 -0.00000000000E+00 -0.14909190897E+03  0.14909190897E+03  0.00000000000E+00 0.  1.
         25    2    1    2    0    0 -0.48600444882E+02 -0.11813850949E+03 -0.53032991792E+02  0.18648962011E+03  0.12508864667E+03 0.  0.
         23    2    1    2    0    0  0.48600444882E+02  0.11813850949E+03  0.18222813423E+03  0.24088934027E+03  0.92205589232E+02 0.  0.
          5    1    3    3  502    0 -0.16287471825E+01 -0.18985242932E+02 -0.72414362432E+02  0.74996030248E+02  0.41800000000E+01 0. -1.
         -5    1    3    3    0  502 -0.46971697699E+02 -0.99153266554E+02  0.19381370640E+02  0.11149358987E+03  0.41800000000E+01 0. -1.
        -11    1    4    4    0    0  0.57835530915E+02  0.41051136866E+02  0.12750577679E+03  0.14590362432E+03  0.00000000000E+00 0.  1.
         11    1    4    4    0    0 -0.92350860332E+01  0.77087372620E+02  0.54722357438E+02  0.94985715953E+02  0.00000000000E+00 0. -1.
</event>
<event>
 8    1  0.7192024E-009  0.9106327E+02  0.7561462E-02  0.1300297E+00
         -1   -1    0    0    0  501 -0.00000000000E+00  0.00000000000E+00  0.60114603908E+02  0.60114603908E+02  0.00000000000E+00 0.  1.
          1   -1    0    0  501    0  0.00000000000E+00 -0.00000000000E+00 -0.25060521585E+03  0.25060521585E+03  0.00000000000E+00 0. -1.
         25    2    1    2    0    0 -0.26354022184E+02 -0.48897953751E+02 -0.77756869767E+02  0.15740751537E+03  0.12508177618E+03 0.  0.
         23    2    1    2    0    0  0.26354022184E+02  0.48897953751E+02 -0.11273374218E+03  0.15331230439E+03  0.87807868025E+02 0.  0.
          5    1    3    3  502    0 -0.50169239874E+02 -0.20961819130E+02 -0.10027156013E+03  0.11414117864E+03  0.41800000000E+01 0.  1.
         -5    1    3    3    0  502  0.23815217690E+02 -0.27936134621E+02  0.22514690365E+02  0.43266336723E+02  0.41800000000E+01 0.  1.
        -11    1    4    4    0    0 -0.19364783969E+02 -0.49707378388E+01  0.32118673406E+00  0.19995155757E+02  0.00000000000E+00 0.  1.
         11    1    4    4    0    0  0.45718806153E+02  0.53868691590E+02 -0.11305492891E+03  0.13331714864E+03  0.00000000000E+00 0. -1.
</event>
<event>
 8    1  0.7192024E-009  0.1067423E+03  0.7561462E-02  0.1266724E+00
          2   -1    0    0  501    0  0.00000000000E+00  0.00000000000E+00  0.47817361297E+03  0.47817361297E+03  0.00000000000E+00 0. -1.
         -2   -1    0    0    0  501 -0.00000000000E+00 -0.00000000000E+00 -0.28119838027E+02  0.28119838027E+02  0.00000000000E+00 0.  1.
         25    2    1    2    0    0  0.19606087120E+01 -0.11543866204E+02  0.17346000352E+03  0.21418239634E+03  0.12509444931E+03 0.  0.
         23    2    1    2    0    0 -0.19606087120E+01  0.11543866204E+02  0.27659377142E+03  0.29211105466E+03  0.93207558866E+02 0.  0.
          5    1    3    3  502    0 -0.20528679105E+01  0.56456378703E+02  0.90377334349E+02  0.10666335794E+03  0.41800000000E+01 0. -1.
         -5    1    3    3    0  502  0.40134766225E+01 -0.68000244907E+02  0.83082669171E+02  0.10751903840E+03  0.41800000000E+01 0. -1.
        -11    1    4    4    0    0  0.32655320770E+02  0.34146701390E+02  0.98005034280E+02  0.10879960448E+03  0.00000000000E+00 0.  1.
         11    1    4    4    0    0 -0.34615929482E+02 -0.22602835187E+02  0.17858873714E+03  0.18331145018E+03  0.00000000000E+00 0. -1.
</event>
<event>
 8    1  0.7192024E-009  0.1976819E+03  0.7561462E-02  0.1151710E+00
          1   -1    0    0  501    0  0.00000000000E+00  0.00000000000E+00  0.35259400460E+03  0.35259400460E+03  0.00000000000E+00 0. -1.
         -1   -1    0    0    0  501 -0.00000000000E+00 -0.00000000000E+00 -0.13674092978E+03  0.13674092978E+03  0.00000000000E+00 0.  1.
         25    2    1    2    0    0 -0.13497803874E+03  0.13155724666E+03  0.14942221247E+03  0.27111359584E+03  0.12509677925E+03 0.  0.
         23    2    1    2    0    0  0.13497803874E+03 -0.13155724666E+03  0.66430862355E+02  0.21822133854E+03  0.87641959318E+02 0.  0.
          5    1    3    3  502    0 -0.41448335566E+02  0.40791770719E+02 -0.16015372852E+02  0.60464019443E+02  0.41800000000E+01 0. -1.
         -5    1    3    3    0  502 -0.93529703170E+02  0.90765475940E+02  0.16543758532E+03  0.21064957639E+03  0.41800000000E+01 0. -1.
        -11    1    4    4    0    0  0.37396007174E+02 -0.95619516288E+02  0.44726612326E+02  0.11199117420E+03  0.00000000000E+00 0.  1.
         11    1    4    4    0    0  0.97582031561E+02 -0.35937730371E+02  0.21704250029E+02  0.10623016435E+03  0.00000000000E+00 0. -1.
</event>
<event>
 8    1  0.7192024E-009  0.1181248E+03  0.7561462E-02  0.1246223E+00
          2   -1    0    0  501    0  0.00000000000E+00  0.00000000000E+00  0.17506231250E+03  0.17506231250E+03  0.00000000000E+00 0. -1.
         -2   -1    0    0    0  501 -0.00000000000E+00 -0.00000000000E+00 -0.88684648150E+02  0.88684648150E+02  0.00000000000E+00 0.  1.
         25    2    1    2    0    0 -0.42689966134E+02 -0.33837176266E+02  0.17595628950E+02  0.13756595789E+03  0.12508956354E+03 0.  0.
         23    2    1    2    0    0  0.42689966134E+02  0.33837176266E+02  0.68782035403E+02  0.12618100276E+03  0.90682354165E+02 0.  0.
          5    1    3    3  502    0 -0.69243129117E+02  0.23325365275E+02  0.70507436691E+01  0.73524614799E+02  0.41800000000E+01 0. -1.
         -5    1    3    3    0  502  0.26553162983E+02 -0.57162541541E+02  0.10544885281E+02  0.64041343094E+02  0.41800000000E+01 0. -1.
        -11    1    4    4    0    0  0.45643594827E+02 -0.17197953450E+02  0.12919153347E+02  0.50458020916E+02  0.00000000000E+00 0.  1.
         11    1    4    4    0    0 -0.29536286928E+01  0.51035129716E+02  0.55862882055E+02  0.75722981842E+02  0.00000000000E+00 0. -1.
</event>
<event>
 8    1  0.7192024E-009  0.1079806E+03  0.7561462E-02  0.1264356E+00
         -2   -1    0    0    0  501 -0.00000000000E+00  0.00000000000E+00  0.66600216697E+02  0.66600216697E+02  0.00000000000E+00 0.  1.
          2   -1    0    0  501    0  0.00000000000E+00 -0.00000000000E+00 -0.19594117363E+03  0.19594117363E+03  0.00000000000E+00 0. -1.
         25    2    1    2    0    0 -0.33981165044E+02  0.84288659298E+01 -0.72944836135E+02  0.14897865996E+03  0.12509167296E+03 0.  0.
         23    2    1    2    0    0  0.33981165044E+02 -0.84288659298E+01 -0.56396120794E+02  0.11356273037E+03  0.92142313459E+02 0.  0.
          5    1    3    3  502    0 -0.21254544080E+02  0.61171598741E+02 -0.98140541308E+01  0.65631609725E+02  0.41800000000E+01 0.  1.
         -5    1    3    3    0  502 -0.12726620963E+02 -0.52742732811E+02 -0.63130782004E+02  0.83347050230E+02  0.41800000000E+01 0.  1.
        -11    1    4    4    0    0 -0.17210102354E+02 -0.34979001119E+02 -0.33905800713E+02  0.51665476523E+02  0.00000000000E+00 0. -1.
         11    1    4    4    0    0  0.51191267398E+02  0.26550135189E+02 -0.22490320081E+02  0.61897253846E+02  0.00000000000E+00 0.  1.
</event>
<event>
 8    1  0.7192024E-009  0.1135009E+03  0.7561462E-02  0.1254221E+00
          3   -1    0    0  501    0  0.00000000000E+00  0.00000000000E+00  0.17750761209E+03  0.17750761209E+03  0.00000000000E+00 0. -1.
         -3   -1    0    0    0  501 -0.00000000000E+00 -0.00000000000E+00 -0.90115653740E+02  0.90115653740E+02  0.00000000000E+00 0.  1.
         25    2    1    2    0    0  0.38503812710E+02 -0.21308843708E+02  0.98191856310E+02  0.16500093139E+03  0.12508819409E+03 0.  0.
         23    2    1    2    0    0 -0.38503812710E+02  0.21308843708E+02 -0.10799897959E+02  0.10262233444E+03  0.92076573117E+02 0.  0.
          5    1    3    3  502    0  0.80001423117E+02 -0.26005014573E+01  0.86274982739E+02  0.11776177374E+03  0.41800000000E+01 0.  1.
         -5    1    3    3    0  502 -0.41497610407E+02 -0.18708342251E+02  0.11916873570E+02  0.47239157644E+02  0.41800000000E+01 0.  1.
        -11    1    4    4    0    0 -0.63181793183E+02  0.35700034647E+02 -0.15229022880E+01  0.72586160492E+02  0.00000000000E+00 0.  1.
         11    1    4    4    0    0  0.24677980473E+02 -0.14391190938E+02 -0.92769956712E+01  0.30036173950E+02  0.00000000000E+00 0. -1.
</event>
<event>
 8    1  0.7192024E-009  0.1949931E+03  0.7561462E-02  0.1154033E+00
          2   -1    0    0  501    0  0.00000000000E+00  0.00000000000E+00  0.25588834197E+03  0.25588834197E+03  0.00000000000E+00 0. -1.
         -2   -1    0    0    0  501 -0.00000000000E+00 -0.00000000000E+00 -0.18937446851E+03  0.18937446851E+03  0.00000000000E+00 0.  1.
         25    2    1    2    0    0 -0.16500068216E+03  0.95260522273E+02  0.33977538287E+02  0.23043363622E+03  0.12508155490E+03 0.  0.
         23    2    1    2    0    0  0.16500068216E+03 -0.95260522273E+02  0.32536335178E+02  0.21482917426E+03  0.93771897638E+02 0.  0.
          5    1    3    3  502    0 -0.76645019044E+02  0.77095381162E+02 -0.37704961772E+02  0.11514031997E+03  0.41800000000E+01 0. -1.
         -5    1    3    3    0  502 -0.88355663121E+02  0.18165141112E+02  0.71682500059E+02  0.11529331625E+03  0.41800000000E+01 0. -1.
        -11    1    4    4    0    0  0.10538363748E+03 -0.67351461462E+02  0.65531924807E+02  0.14119618826E+03  0.00000000000E+00 0. -1.
         11    1    4    4    0    0  0.59617044684E+02 -0.27909060811E+02 -0.32995589628E+02  0.73632985999E+02  0.00000000000E+00 0.  1.
</event>
<event>
 8    1  0.7192024E-009  0.1097466E+03  0.7561462E-02  0.1261040E+00
          1   -1    0    0  501    0  0.00000000000E+00  0.00000000000E+00  0.39982724168E+02  0.39982724168E+02  0.00000000000E+00 0. -1.
         -1   -1    0    0    0  501 -0.00000000000E+00 -0.00000000000E+00 -0.35826624328E+03  0.35826624328E+03  0.00000000000E+00 0.  1.
         25    2    1    2    0    0 -0.25299722609E+01  0.29967217217E+02 -0.24880929961E+03  0.28009801972E+03  0.12507756877E+03 0.  0.
         23    2    1    2    0    0  0.25299722609E+01 -0.29967217217E+02 -0.69474219501E+02  0.11815094773E+03  0.90711324579E+02 0.  0.
          5    1    3    3  502    0  0.60253433498E+02  0.45685432018E+01 -0.10926650018E+03  0.12493193465E+03  0.41800000000E+01 0.  1.
         -5    1    3    3    0  502 -0.62783405759E+02  0.25398674015E+02 -0.13954279943E+03  0.15516608506E+03  0.41800000000E+01 0.  1.
        -11    1    4    4    0    0  0.43062590194E+02 -0.26090136196E+02 -0.55895360263E+02  0.75228805519E+02  0.00000000000E+00 0.  1.
         11    1    4    4    0    0 -0.40532617933E+02 -0.38770810208E+01 -0.13578859237E+02  0.42922142210E+02  0.00000000000E+00 0. -1.
</event>
<event>
 8    1  0.7192024E-009  0.1448755E+03  0.7561462E-02  0.1206915E+00
          1   -1    0    0  501    0  0.00000000000E+00  0.00000000000E+00  0.18173185682E+04  0.18173185682E+04  0.00000000000E+00 0. -1.
         -1   -1    0    0    0  501 -0.00000000000E+00 -0.00000000000E+00 -0.13526940381E+02  0.13526940381E+02  0.00000000000E+00 0.  1.
         25    2    1    2    0    0 -0.38506617666E+02  0.10448326737E+03  0.10878906826E+04  0.11007057737E+04  0.12509016858E+03 0.  0.
         23    2    1    2    0    0  0.38506617666E+02 -0.10448326737E+03  0.71590094529E+03  0.73013973492E+03  0.90500587164E+02 0.  0.
          5    1    3    3  502    0  0.35804152045E+02  0.44906409800E+02  0.21337229442E+03  0.22100617949E+03  0.41800000000E+01 0.  1.
         -5    1    3    3    0  502 -0.74310769711E+02  0.59576857573E+02  0.87451838815E+03  0.87969959422E+03  0.41800000000E+01 0.  1.
        -11    1    4    4    0    0 -0.21618900768E+02 -0.78132234242E+01  0.56731146853E+02  0.61211488742E+02  0.00000000000E+00 0.  1.
         11    1    4    4    0    0  0.60125518434E+02 -0.96670043949E+02  0.65916979844E+03  0.66892824618E+03  0.00000000000E+00 0. -1.
</event>
<event>
 8    1  0.7192024E-009  0.9980242E+02  0.7561462E-02  0.1280712E+00
          1   -1    0    0  501    0  0.00000000000E+00  0.00000000000E+00  0.50644635891E+03  0.50644635891E+03  0.00000000000E+00 0. -1.
         -1   -1    0    0    0  501 -0.00000000000E+00 -0.00000000000E+00 -0.32440422046E+02  0.32440422046E+02  0.00000000000E+00 0.  1.
         25    2    1    2    0    0 -0.56054863210E+02  0.29208219873E+02  0.31641784926E+03  0.34606917652E+03  0.12509337236E+03 0.  0.
         23    2    1    2    0    0  0.56054863210E+02 -0.29208219873E+02  0.15758808761E+03  0.19281760444E+03  0.91374807408E+02 0.  0.
          5    1    3    3  502    0  0.35326486510E+02  0.27394907521E+02  0.69466928889E+02  0.82713772834E+02  0.41800000000E+01 0. -1.
         -5    1    3    3    0  502 -0.91381349719E+02  0.18133123520E+01  0.24695092037E+03  0.26335540368E+03  0.41800000000E+01 0. -1.
        -11    1    4    4    0    0  0.31636325611E+02 -0.16823398242E+02  0.31480452758E+01  0.35969348279E+02  0.00000000000E+00 0.  1.
         11    1    4    4    0    0  0.24418537598E+02 -0.12384821631E+02  0.15444004234E+03  0.15684825616E+03  0.00000000000E+00 0. -1.
</event>
<event>
 8    1  0.7192024E-009  0.8582181E+02  0.7561462E-02  0.1313297E+00
          2   -1    0    0  501    0  0.00000000000E+00  0.00000000000E+00  0.25160865366E+03  0.25160865366E+03  0.00000000000E+00 0. -1.
         -2   -1    0    0    0  501 -0.00000000000E+00 -0.00000000000E+00 -0.51363460914E+02  0.51363460914E+02  0.00000000000E+00 0.  1.
         25    2    1    2    0    0  0.33370157376E+02 -0.59943031101E+01  0.10623342710E+03  0.16757964811E+03  0.12509155989E+03 0.  0.
         23    2    1    2    0    0 -0.33370157376E+02  0.59943031101E+01  0.94011765650E+02  0.13539246647E+03  0.91342261970E+02 0.  0.
          5    1    3    3  502    0  0.46788204719E+02  0.19097481915E+02 -0.66025239992E+01  0.51136245849E+02  0.41800000000E+01 0.  1.
         -5    1    3    3    0  502 -0.13418047344E+02 -0.25091785025E+02  0.11283595110E+03  0.11644340226E+03  0.41800000000E+01 0.  1.
        -11    1    4    4    0    0 -0.12165187973E+01  0.43077147690E+02  0.22381075109E+02  0.48559582928E+02  0.00000000000E+00 0.  1.
         11    1    4    4    0    0 -0.32153638578E+02 -0.37082844580E+02  0.71630690541E+02  0.86832883537E+02  0.00000000000E+00 0. -1.
</event>
<event>
 8    1  0.7192024E-009  0.1118410E+03  0.7561462E-02  0.1257198E+00
         -1   -1    0    0    0  501 -0.00000000000E+00  0.00000000000E+00  0.25089019527E+02  0.25089019527E+02  0.00000000000E+00 0.  1.
          1   -1    0    0  501    0  0.00000000000E+00 -0.00000000000E+00 -0.85035008498E+03  0.85035008498E+03  0.00000000000E+00 0. -1.
         25    2    1    2    0    0 -0.65814386590E+02  0.69220776598E+02 -0.39949496809E+03  0.42937975881E+03  0.12509076045E+03 0.  0.
         23    2    1    2    0    0  0.65814386590E+02 -0.69220776598E+02 -0.42576609737E+03  0.44605934570E+03  0.92569545886E+02 0.  0.
          5    1    3    3  502    0  0.16597988795E+02  0.27206196125E+02 -0.18065966537E+02  0.36871694924E+02  0.41800000000E+01 0. -1.
         -5    1    3    3    0  502 -0.82412375385E+02  0.42014580474E+02 -0.38142900155E+03  0.39250806388E+03  0.41800000000E+01 0. -1.
        -11    1    4    4    0    0  0.28334954278E+02 -0.12531731930E+02 -0.25676800881E+02  0.40239433925E+02  0.00000000000E+00 0.  1.
         11    1    4    4    0    0  0.37479432312E+02 -0.56689044669E+02 -0.40008929648E+03  0.40581991177E+03  0.00000000000E+00 0. -1.
</event>
<event>
 8    1  0.7192024E-009  0.1118733E+03  0.7561462E-02  0.1257140E+00
          1   -1    0    0  501    0  0.00000000000E+00  0.00000000000E+00  0.72257699192E+03  0.72257699192E+03  0.00000000000E+00 0. -1.
         -1   -1    0    0    0  501 -0.00000000000E+00 -0.00000000000E+00 -0.29647983800E+02  0.29647983800E+02  0.00000000000E+00 0.  1.
         25    2    1    2    0    0 -0.60450356370E+02  0.37359471683E+02  0.54948122334E+03  0.56800252137E+03  0.12508906339E+03 0.  0.
         23    2    1    2    0    0  0.60450356370E+02 -0.37359471683E+02  0.14344778479E+03  0.18422245435E+03  0.91162876307E+02 0.  0.
          5    1    3    3  502    0  0.34313812835E+02  0.27191607936E+02  0.24531966095E+03  0.24923087638E+03  0.41800000000E+01 0. -1.
         -5    1    3    3    0  502 -0.94764169205E+02  0.10167863747E+02  0.30416156238E+03  0.31877164499E+03  0.41800000000E+01 0. -1.
        -11    1    4    4    0    0  0.17064313250E+02 -0.37258342590E+02  0.76835588891E+01  0.41694267669E+02  0.00000000000E+00 0.  1.
         11    1    4    4    0    0  0.43386043120E+02 -0.10112909260E+00  0.13576422590E+03  0.14252818668E+03  0.00000000000E+00 0. -1.
</event>
<event>
 8    1  0.7192024E-009  0.1117042E+03  0.7561462E-02  0.1257446E+00
          1   -1    0    0  501    0  0.00000000000E+00  0.00000000000E+00  0.31299955273E+03  0.31299955273E+03  0.00000000000E+00 0. -1.
         -1   -1    0    0    0  501 -0.00000000000E+00 -0.00000000000E+00 -0.41774323216E+02  0.41774323216E+02  0.00000000000E+00 0.  1.
         25    2    1    2    0    0  0.15240387139E+02  0.29072532186E+02  0.12406518469E+03  0.17920886711E+03  0.12508463723E+03 0.  0.
         23    2    1    2    0    0 -0.15240387139E+02 -0.29072532186E+02  0.14716004483E+03  0.17556500884E+03  0.89941714501E+02 0.  0.
          5    1    3    3  502    0  0.86757127898E+01  0.78543515713E+02  0.79538659619E+02  0.11219724875E+03  0.41800000000E+01 0. -1.
         -5    1    3    3    0  502  0.65646743493E+01 -0.49470983526E+02  0.44526525073E+02  0.67011618362E+02  0.41800000000E+01 0. -1.
        -11    1    4    4    0    0  0.35915833263E+02 -0.11890809732E+01  0.41416162332E+02  0.54833014644E+02  0.00000000000E+00 0.  1.
         11    1    4    4    0    0 -0.51156220402E+02 -0.27883451213E+02  0.10574388249E+03  0.12073199419E+03  0.00000000000E+00 0. -1.
</event>
<event>
 8    1  0.7192024E-009  0.7562056E+02  0.7561462E-02  0.1341960E+00
         -1   -1    0    0    0  501 -0.00000000000E+00  0.00000000000E+00  0.20112629618E+03  0.20112629618E+03  0.00000000000E+00 0.  1.
          1   -1    0    0  501    0  0.00000000000E+00 -0.00000000000E+00 -0.63149377727E+02  0.63149377727E+02  0.00000000000E+00 0. -1.
         25    2    1    2    0    0 -0.10986759933E+02  0.18257413293E+02  0.50678576272E+02  0.13664262386E+03  0.12509534975E+03 0.  0.
         23    2    1    2    0    0  0.10986759933E+02 -0.18257413293E+02  0.87298342179E+02  0.12763305004E+03  0.90637480556E+02 0.  0.
          5    1    3    3  502    0 -0.28810856019E+02  0.31267010252E+02 -0.30449780575E+02  0.52462871554E+02  0.41800000000E+01 0. -1.
         -5    1    3    3    0  502  0.17824096085E+02 -0.13009596959E+02  0.81128356847E+02  0.84179752310E+02  0.41800000000E+01 0. -1.
        -11    1    4    4    0    0  0.45414626353E+02  0.31422191065E+01  0.70132095632E+02  0.83611438604E+02  0.00000000000E+00 0.  1.
         11    1    4    4    0    0 -0.34427866420E+02 -0.21399632399E+02  0.17166246548E+02  0.44021611438E+02  0.00000000000E+00 0. -1.
</event>
<event>
 8    1  0.7192024E-009  0.1074087E+03  0.7561462E-02  0.1265445E+00
          2   -1    0    0  501    0  0.00000000000E+00  0.00000000000E+00  0.25586973474E+03  0.25586973474E+03  0.00000000000E+00 0. -1.
         -2   -1    0    0    0  501 -0.00000000000E+00 -0.00000000000E+00 -0.94205840687E+02  0.94205840687E+02  0.00000000000E+00 0.  1.
         25    2    1    2    0    0  0.71781941554E+02 -0.68738043606E+01  0.18075342831E+03  0.23134203683E+03  0.12508972715E+03 0.  0.
         23    2    1    2    0    0 -0.71781941554E+02  0.68738043606E+01 -0.19089534251E+02  0.11873353860E+03  0.92376114615E+02 0.  0.
          5    1    3    3  502    0  0.95492036197E+02  0.89036904914E+01  0.17824019253E+03  0.20244763104E+03  0.41800000000E+01 0.  1.
         -5    1    3    3    0  502 -0.23710094643E+02 -0.15777494852E+02  0.25132357796E+01  0.28894405789E+02  0.41800000000E+01 0.  1.
        -11    1    4    4    0    0 -0.51283172101E+02  0.29774701924E+02  0.25522281021E+02  0.64559146864E+02  0.00000000000E+00 0.  1.
         11    1    4    4    0    0 -0.20498769453E+02 -0.22900897563E+02 -0.44611815272E+02  0.54174391737E+02  0.00000000000E+00 0. -1.
</event>
<event>
 8    1  0.7192024E-009  0.1194137E+03  0.7561462E-02  0.1244067E+00
          2   -1    0    0  501    0  0.00000000000E+00  0.00000000000E+00  0.35965898352E+03  0.35965898352E+03  0.00000000000E+00 0. -1.
         -2   -1    0    0    0  501 -0.00000000000E+00 -0.00000000000E+00 -0.78600176129E+02  0.78600176129E+02  0.00000000000E+00 0.  1.
         25    2    1    2    0    0 -0.82831325617E+02  0.28372850811E+02  0.27085931019E+03  0.31093260118E+03  0.12509304296E+03 0.  0.
         23    2    1    2    0    0  0.82831325617E+02 -0.28372850811E+02  0.10199497202E+02  0.12732655846E+03  0.91880224097E+02 0.  0.
          5    1    3    3  502    0 -0.11128438625E+03  0.89183370235E+01  0.16291114336E+03  0.19753800746E+03  0.41800000000E+01 0.  1.
         -5    1    3    3    0  502  0.28453060633E+02  0.19454513788E+02  0.10794816682E+03  0.11339459373E+03  0.41800000000E+01 0.  1.
        -11    1    4    4    0    0  0.85146984773E+01  0.60903299471E+01  0.39086272913E+02  0.40463921452E+02  0.00000000000E+00 0. -1.
         11    1    4    4    0    0  0.74316627140E+02 -0.34463180758E+02 -0.28886775711E+02  0.86862637010E+02  0.00000000000E+00 0.  1.
</event>
<event>
 8    1  0.7192024E-009  0.5003137E+03  0.7561462E-02  0.1013697E+00
          1   -1    0    0  501    0  0.00000000000E+00  0.00000000000E+00  0.13886984407E+04  0.13886984407E+04  0.00000000000E+00 0. -1.
         -1   -1    0    0    0  501 -0.00000000000E+00 -0.00000000000E+00 -0.19806132815E+03  0.19806132815E+03  0.00000000000E+00 0.  1.
         25    2    1    2    0    0 -0.43178884019E+03  0.23842398756E+03  0.81182492328E+03  0.95811988938E+03  0.12508563473E+03 0.  0.
         23    2    1    2    0    0  0.43178884019E+03 -0.23842398756E+03  0.37881218927E+03  0.62863987947E+03  0.91661458497E+02 0.  0.
          5    1    3    3  502    0 -0.36642728808E+03  0.24224646746E+03  0.66115179355E+03  0.79378301503E+03  0.41800000000E+01 0. -1.
         -5    1    3    3    0  502 -0.65361552108E+02 -0.38224799022E+01  0.15067312973E+03  0.16433687435E+03  0.41800000000E+01 0. -1.
        -11    1    4    4    0    0  0.28990954590E+03 -0.18618636071E+03  0.21700759950E+03  0.40719185154E+03  0.00000000000E+00 0.  1.
         11    1    4    4    0    0  0.14187929428E+03 -0.52237626844E+02  0.16180458977E+03  0.22144802793E+03  0.00000000000E+00 0. -1.
</event>
<event>
 8    1  0.7192024E-009  0.1111611E+03  0.7561462E-02  0.1258435E+00
          2   -1    0    0  501    0  0.00000000000E+00  0.00000000000E+00  0.89391884749E+03  0.89391884749E+03  0.00000000000E+00 0. -1.
         -2   -1    0    0    0  501 -0.00000000000E+00 -0.00000000000E+00 -0.26038496940E+02  0.26038496940E+02  0.00000000000E+00 0.  1.
         25    2    1    2    0    0  0.18370494521E+01 -0.95352237590E+02  0.61443117843E+03  0.63424677332E+03  0.12509145643E+03 0.  0.
         23    2    1    2    0    0 -0.18370494521E+01  0.95352237590E+02  0.25344917211E+03  0.28571057111E+03  0.91096781685E+02 0.  0.
          5    1    3    3  502    0 -0.23688974689E+02  0.67136856493E+00  0.36397619531E+03  0.36477083410E+03  0.41800000000E+01 0.  1.
         -5    1    3    3    0  502  0.25526024141E+02 -0.96023606155E+02  0.25045498312E+03  0.26947593922E+03  0.41800000000E+01 0.  1.
        -11    1    4    4    0    0 -0.11061474960E+02  0.19651673577E+02  0.16440182366E+01  0.22610778373E+02  0.00000000000E+00 0. -1.
         11    1    4    4    0    0  0.92244255076E+01  0.75700564013E+02  0.25180515388E+03  0.26309979274E+03  0.00000000000E+00 0.  1.
</event>
<event>
 8    1  0.7192024E-009  0.2095661E+03  0.7561462E-02  0.1141910E+00
         -1   -1    0    0    0  501 -0.00000000000E+00  0.00000000000E+00  0.59949578085E+02  0.59949578085E+02  0.00000000000E+00 0.  1.
          1   -1    0    0  501    0  0.00000000000E+00 -0.00000000000E+00 -0.80666378502E+03  0.80666378502E+03  0.00000000000E+00 0. -1.
         25    2    1    2    0    0 -0.85557441650E+02  0.16800412479E+03 -0.36379698103E+03  0.42841321457E+03  0.12507668543E+03 0.  0.
         23    2    1    2    0    0  0.85557441650E+02 -0.16800412479E+03 -0.38291722590E+03  0.43820014853E+03  0.99238634198E+02 0.  0.
          5    1    3    3  502    0 -0.85066350581E+02  0.42765904799E+02 -0.11126890104E+03  0.14650408647E+03  0.41800000000E+01 0. -1.
         -5    1    3    3    0  502 -0.49109106912E+00  0.12523821999E+03 -0.25252808000E+03  0.28190912810E+03  0.41800000000E+01 0. -1.
        -11    1    4    4    0    0  0.22187434556E+01 -0.69313892566E+02 -0.21771662349E+03  0.22849478478E+03  0.00000000000E+00 0.  1.
         11    1    4    4    0    0  0.83338698194E+02 -0.98690232227E+02 -0.16520060240E+03  0.20970536376E+03  0.00000000000E+00 0. -1.
</event>
<event>
 8    1  0.7192024E-009  0.8823580E+02  0.7561462E-02  0.1307181E+00
         -1   -1    0    0    0  501 -0.00000000000E+00  0.00000000000E+00  0.59915452537E+02  0.59915452537E+02  0.00000000000E+00 0.  1.
          1   -1    0    0  501    0  0.00000000000E+00 -0.00000000000E+00 -0.35136853242E+03  0.35136853242E+03  0.00000000000E+00 0. -1.
         25    2    1    2    0    0  0.57428783071E+02  0.29723475624E+01 -0.26727637225E+03  0.30065065196E+03  0.12508898986E+03 0.  0.
         23    2    1    2    0    0 -0.57428783071E+02 -0.29723475624E+01 -0.24176707628E+02  0.11063333299E+03  0.91369147979E+02 0.  0.
          5    1    3    3  502    0  0.41541682174E+02 -0.48994855337E+02 -0.21754671536E+03  0.22687056436E+03  0.41800000000E+01 0. -1.
         -5    1    3    3    0  502  0.15887100897E+02  0.51967202900E+02 -0.49729656890E+02  0.73780087602E+02  0.41800000000E+01 0. -1.
        -11    1    4    4    0    0 -0.31259708601E+02 -0.32454815431E+01 -0.59133127221E+02  0.66965881366E+02  0.00000000000E+00 0. -1.
         11    1    4    4    0    0 -0.26169074470E+02  0.27313398074E+00  0.34956419593E+02  0.43667451626E+02  0.00000000000E+00 0.  1.
</event>
<event>
 8    1  0.7192024E-009  0.1059025E+03  0.7561462E-02  0.1268352E+00
          2   -1    0    0  501    0  0.00000000000E+00  0.00000000000E+00  0.79806267105E+02  0.79806267105E+02  0.00000000000E+00 0. -1.
         -2   -1    0    0    0  501 -0.00000000000E+00 -0.00000000000E+00 -0.15408994681E+03  0.15408994681E+03  0.00000000000E+00 0.  1.
         25    2    1    2    0    0 -0.22723495538E+02 -0.11721808131E+02 -0.54775399660E+02  0.13892619908E+03  0.12508551614E+03 0.  0.
         23    2    1    2    0    0  0.22723495538E+02  0.11721808131E+02 -0.19508280048E+02  0.94970014838E+02  0.89358674411E+02 0.  0.
          5    1    3    3  502    0  0.43353397956E+02  0.26512269393E+02 -0.25993492597E+02  0.57232434861E+02  0.41800000000E+01 0.  1.
         -5    1    3    3    0  502 -0.66076893495E+02 -0.38234077524E+02 -0.28781907063E+02  0.81693764218E+02  0.41800000000E+01 0.  1.
        -11    1    4    4    0    0  0.52832733297E+02  0.12299436479E+02 -0.31301121800E+02  0.62628540389E+02  0.00000000000E+00 0.  1.
         11    1    4    4    0    0 -0.30109237759E+02 -0.57762834757E+00  0.11792841752E+02  0.32341474449E+02  0.00000000000E+00 0. -1.
</event>
<event>
 8    1  0.7192024E-009  0.2343303E+03  0.7561462E-02  0.1123629E+00
         -2   -1    0    0    0  501 -0.00000000000E+00  0.00000000000E+00  0.50372193113E+03  0.50372193113E+03  0.00000000000E+00 0.  1.
          2   -1    0    0  501    0  0.00000000000E+00 -0.00000000000E+00 -0.14255165664E+03  0.14255165664E+03  0.00000000000E+00 0. -1.
         25    2    1    2    0    0 -0.62566368589E+02 -0.21839553871E+03  0.75396288417E+02  0.27008150161E+03  0.12509298701E+03 0.  0.
         23    2    1    2    0    0  0.62566368589E+02  0.21839553871E+03  0.28577398608E+03  0.37619208617E+03  0.90788505728E+02 0.  0.
          5    1    3    3  502    0 -0.11730561552E+02 -0.17218748349E+03  0.96902846984E+02  0.19797416422E+03  0.41800000000E+01 0.  1.
         -5    1    3    3    0  502 -0.50835807037E+02 -0.46208055220E+02 -0.21506558567E+02  0.72107337392E+02  0.41800000000E+01 0.  1.
        -11    1    4    4    0    0  0.16682253735E+02  0.62789682886E+02  0.15415221509E+03  0.16728343398E+03  0.00000000000E+00 0.  1.
         11    1    4    4    0    0  0.45884114855E+02  0.15560585582E+03  0.13162177098E+03  0.20890865219E+03  0.00000000000E+00 0. -1.
</event>
<event>
 8    1  0.7192024E-009  0.2030237E+03  0.7561462E-02  0.1147213E+00
         -3   -1    0    0    0  501 -0.00000000000E+00  0.00000000000E+00  0.12916321431E+03  0.12916321431E+03  0.00000000000E+00 0.  1.
          3   -1    0    0  501    0  0.00000000000E+00 -0.00000000000E+00 -0.44997255736E+03  0.44997255736E+03  0.00000000000E+00 0. -1.
         25    2    1    2    0    0 -0.17753437803E+03 -0.72596277789E+02 -0.52343932227E+02  0.23489558514E+03  0.12508946297E+03 0.  0.
         23    2    1    2    0    0  0.17753437803E+03  0.72596277789E+02 -0.26846541082E+03  0.34424018653E+03  0.98178176208E+02 0.  0.
          5    1    3    3  502    0 -0.20054723715E+02  0.16817046906E+01 -0.57074818373E+02  0.60663229112E+02  0.41800000000E+01 0.  1.
         -5    1    3    3    0  502 -0.15747965431E+03 -0.74277982479E+02  0.47308861459E+01  0.17423235603E+03  0.41800000000E+01 0.  1.
        -11    1    4    4    0    0  0.10971755642E+03  0.89317943183E+02 -0.14630516392E+03  0.20352110001E+03  0.00000000000E+00 0.  1.
         11    1    4    4    0    0  0.67816821611E+02 -0.16721665394E+02 -0.12216024690E+03  0.14071908652E+03  0.00000000000E+00 0. -1.
</event>
<event>
 8    1  0.7192024E-009  0.1398827E+03  0.7561462E-02  0.1213487E+00
         -1   -1    0    0    0  501 -0.00000000000E+00  0.00000000000E+00  0.30833754524E+03  0.30833754524E+03  0.00000000000E+00 0.  1.
          1   -1    0    0  501    0  0.00000000000E+00 -0.00000000000E+00 -0.35475239972E+03  0.35475239972E+03  0.00000000000E+00 0. -1.
         25    2    1    2    0    0 -0.36875953704E+02  0.99799821268E+02  0.27055759872E+03  0.31649311704E+03  0.12508652455E+03 0.  0.
         23    2    1    2    0    0  0.36875953704E+02 -0.99799821268E+02 -0.31697245320E+03  0.34659682792E+03  0.91312566227E+02 0.  0.
          5    1    3    3  502    0  0.46372430107E+02  0.29032458805E+02  0.89698421142E+02  0.10515020254E+03  0.41800000000E+01 0.  1.
         -5    1    3    3    0  502 -0.83248383811E+02  0.70767362463E+02  0.18085917757E+03  0.21134291450E+03  0.41800000000E+01 0.  1.
        -11    1    4    4    0    0 -0.10385250259E+02 -0.25021024374E+02 -0.13065445770E+02  0.30076751102E+02  0.00000000000E+00 0.  1.
         11    1    4    4    0    0  0.47261203963E+02 -0.74778796894E+02 -0.30390700743E+03  0.31652007682E+03  0.00000000000E+00 0. -1.
</event>
<event>
 8    1  0.7192024E-009  0.2149618E+03  0.7561462E-02  0.1137696E+00
         -2   -1    0    0    0  501 -0.00000000000E+00  0.00000000000E+00  0.38336496458E+03  0.38336496458E+03  0.00000000000E+00 0.  1.
          2   -1    0    0  501    0  0.00000000000E+00 -0.00000000000E+00 -0.17016028241E+03  0.17016028241E+03  0.00000000000E+00 0. -1.
         25    2    1    2    0    0 -0.19442527840E+03 -0.73442244417E+02  0.11852101817E+01  0.24257792550E+03  0.12509073934E+03 0.  0.
         23    2    1    2    0    0  0.19442527840E+03  0.73442244417E+02  0.21201947199E+03  0.31094732150E+03  0.92417682820E+02 0.  0.
          5    1    3    3  502    0 -0.70262476514E+02 -0.12896003626E+01 -0.53952078562E+02  0.88694858115E+02  0.41800000000E+01 0.  1.
         -5    1    3    3    0  502 -0.12416280189E+03 -0.72152644055E+02  0.55137288744E+02  0.15388306738E+03  0.41800000000E+01 0.  1.
        -11    1    4    4    0    0  0.42097330260E+02  0.43655402417E+02  0.19610049349E+02  0.63738006014E+02  0.00000000000E+00 0.  1.
         11    1    4    4    0    0  0.15232794814E+03  0.29786842000E+02  0.19240942264E+03  0.24720931548E+03  0.00000000000E+00 0. -1.
</event>
<event>
 8    1  0.7192024E-009  0.1434781E+03  0.7561462E-02  0.1208724E+00
         -2   -1    0    0    0  501 -0.00000000000E+00  0.00000000000E+00  0.74928797244E+02  0.74928797244E+02  0.00000000000E+00 0.  1.
          2   -1    0    0  501    0  0.00000000000E+00 -0.00000000000E+00 -0.59838935614E+03  0.59838935614E+03  0.00000000000E+00 0. -1.
         25    2    1    2    0    0  0.11535877463E+03 -0.46020935216E+02 -0.48150902226E+03  0.51276179405E+03  0.12509254794E+03 0.  0.
         23    2    1    2    0    0 -0.11535877463E+03  0.46020935216E+02 -0.41951536634E+02  0.16055635934E+03  0.92697571360E+02 0.  0.
          5    1    3    3  502    0  0.37143992651E+02  0.19927103986E+02 -0.35854258650E+02  0.55495638807E+02  0.41800000000E+01 0. -1.
         -5    1    3    3    0  502  0.78214781981E+02 -0.65948039202E+02 -0.44565476361E+03  0.45726615524E+03  0.41800000000E+01 0. -1.
        -11    1    4    4    0    0 -0.31714201131E+02  0.49159924573E+02  0.13643815212E+02  0.60071977086E+02  0.00000000000E+00 0.  1.
         11    1    4    4    0    0 -0.83644573501E+02 -0.31389893576E+01 -0.55595351846E+02  0.10048438225E+03  0.00000000000E+00 0. -1.
</event>
<event>
 8    1  0.7192024E-009  0.1942322E+03  0.7561462E-02  0.1154699E+00
          3   -1    0    0  501    0  0.00000000000E+00  0.00000000000E+00  0.26586405220E+03  0.26586405220E+03  0.00000000000E+00 0. -1.
         -3   -1    0    0    0  501 -0.00000000000E+00 -0.00000000000E+00 -0.14695230334E+03  0.14695230334E+03  0.00000000000E+00 0.  1.
         25    2    1    2    0    0  0.12347366682E+03  0.11047862456E+03  0.58715068841E+02  0.21574562202E+03  0.12508973272E+03 0.  0.
         23    2    1    2    0    0 -0.12347366682E+03 -0.11047862456E+03  0.60196680017E+02  0.19707073352E+03  0.88101991129E+02 0.  0.
          5    1    3    3  502    0 -0.14544197915E+02  0.50167794559E+02 -0.39657981060E+01  0.52550368776E+02  0.41800000000E+01 0.  1.
         -5    1    3    3    0  502  0.13801786473E+03  0.60310830001E+02  0.62680866947E+02  0.16319525325E+03  0.41800000000E+01 0.  1.
        -11    1    4    4    0    0 -0.58887756840E+02 -0.17403865266E+01  0.33635156323E+02  0.67838931240E+02  0.00000000000E+00 0.  1.
         11    1    4    4    0    0 -0.64585909978E+02 -0.10873823803E+03  0.26561523695E+02  0.12923180228E+03  0.00000000000E+00 0. -1.
</event>
<event>
 8    1  0.7192024E-009  0.2091418E+03  0.7561462E-02  0.1142247E+00
         -1   -1    0    0    0  501 -0.00000000000E+00  0.00000000000E+00  0.21090025957E+03  0.21090025957E+03  0.00000000000E+00 0.  1.
          1   -1    0    0  501    0  0.00000000000E+00 -0.00000000000E+00 -0.45676199454E+03  0.45676199454E+03  0.00000000000E+00 0. -1.
         25    2    1    2    0    0  0.14597477819E+03  0.12607261444E+03  0.10939574581E+03  0.25459268542E+03  0.12508823400E+03 0.  0.
         23    2    1    2    0    0 -0.14597477819E+03 -0.12607261444E+03 -0.35525748078E+03  0.41306956870E+03  0.84944987810E+02 0.  0.
          5    1    3    3  502    0  0.83640525982E+02  0.13763376322E+03  0.10186855138E+03  0.19061339021E+03  0.41800000000E+01 0. -1.
         -5    1    3    3    0  502  0.62334252208E+02 -0.11561148781E+02  0.75271944283E+01  0.63979295209E+02  0.41800000000E+01 0. -1.
        -11    1    4    4    0    0 -0.72924194715E+02 -0.74261655090E+02 -0.27021450424E+03  0.28956624439E+03  0.00000000000E+00 0.  1.
         11    1    4    4    0    0 -0.73050583475E+02 -0.51810959352E+02 -0.85042976541E+02  0.12350332430E+03  0.00000000000E+00 0. -1.
</event>
<event>
 8    1  0.7192024E-009  0.2631277E+03  0.7561462E-02  0.1105278E+00
         -2   -1    0    0    0  501 -0.00000000000E+00  0.00000000000E+00  0.26665232873E+03  0.26665232873E+03  0.00000000000E+00 0.  1.
          2   -1    0    0  501    0  0.00000000000E+00 -0.00000000000E+00 -0.47243974061E+03  0.47243974061E+03  0.00000000000E+00 0. -1.
         25    2    1    2    0    0  0.23327011422E+03  0.74545071838E+02  0.13756263292E+03  0.30747952493E+03  0.12509303080E+03 0.  0.
         23    2    1    2    0    0 -0.23327011422E+03 -0.74545071838E+02 -0.34335004480E+03  0.43161254440E+03  0.91805344585E+02 0.  0.
          5    1    3    3  502    0  0.24227848686E+03  0.52686008900E+02  0.11103446405E+03  0.27169984420E+03  0.41800000000E+01 0. -1.
         -5    1    3    3    0  502 -0.90083726395E+01  0.21859062939E+02  0.26528168868E+02  0.35779680738E+02  0.41800000000E+01 0. -1.
        -11    1    4    4    0    0 -0.82096905431E+02 -0.61417215032E+02 -0.18987409473E+03  0.21578727496E+03  0.00000000000E+00 0. -1.
         11    1    4    4    0    0 -0.15117320879E+03 -0.13127856806E+02 -0.15347595007E+03  0.21582526944E+03  0.00000000000E+00 0.  1.
</event>
<event>
 8    1  0.7192024E-009  0.9223388E+02  0.7561462E-02  0.1297530E+00
          2   -1    0    0  501    0  0.00000000000E+00  0.00000000000E+00  0.31563227912E+03  0.31563227912E+03  0.00000000000E+00 0. -1.
         -2   -1    0    0    0  501 -0.00000000000E+00 -0.00000000000E+00 -0.36892044717E+02  0.36892044717E+02  0.00000000000E+00 0.  1.
         25    2    1    2    0    0  0.28610147460E+01 -0.10883484981E+02  0.15296062189E+03  0.19791686664E+03  0.12508996204E+03 0.  0.
         23    2    1    2    0    0 -0.28610147460E+01  0.10883484981E+02  0.12577961252E+03  0.15460745719E+03  0.89198202021E+02 0.  0.
          5    1    3    3  502    0  0.51009956273E+02  0.10076142277E+02  0.13070458684E+03  0.14072919279E+03  0.41800000000E+01 0. -1.
         -5    1    3    3    0  502 -0.48148941527E+02 -0.20959627257E+02  0.22256035045E+02  0.57187673854E+02  0.41800000000E+01 0. -1.
        -11    1    4    4    0    0 -0.36177896496E+02 -0.13204789373E+02  0.97159070118E+02  0.10451359511E+03  0.00000000000E+00 0. -1.
         11    1    4    4    0    0  0.33316881750E+02  0.24088274354E+02  0.28620542402E+02  0.50093862082E+02  0.00000000000E+00 0.  1.
</event>
<event>
 8    1  0.7192024E-009  0.1251193E+03  0.7561462E-02  0.1234883E+00
         -1   -1    0    0    0  501 -0.00000000000E+00  0.00000000000E+00  0.55366329776E+02  0.55366329776E+02  0.00000000000E+00 0.  1.
          1   -1    0    0  501    0  0.00000000000E+00 -0.00000000000E+00 -0.33867287958E+03  0.33867287958E+03  0.00000000000E+00 0. -1.
         25    2    1    2    0    0  0.68338364601E+02 -0.27679064948E+02 -0.20772022478E+03  0.25344006341E+03  0.12509161142E+03 0.  0.
         23    2    1    2    0    0 -0.68338364601E+02  0.27679064948E+02 -0.75586325021E+02  0.14059914594E+03  0.92836224592E+02 0.  0.
          5    1    3    3  502    0  0.82948175487E+02  0.23629280813E+02 -0.15966096689E+03  0.18151539735E+03  0.41800000000E+01 0. -1.
         -5    1    3    3    0  502 -0.14609810886E+02 -0.51308345760E+02 -0.48059257892E+02  0.71924666060E+02  0.41800000000E+01 0. -1.
        -11    1    4    4    0    0 -0.84510772789E+02  0.79742190477E+01 -0.77623211350E+02  0.11502617888E+03  0.00000000000E+00 0. -1.
         11    1    4    4    0    0  0.16172408188E+02  0.19704845900E+02  0.20368863293E+01  0.25572967064E+02  0.00000000000E+00 0.  1.
</event>
<event>
 8    1  0.7192024E-009  0.1074146E+03  0.7561462E-02  0.1265434E+00
          1   -1    0    0  501    0  0.00000000000E+00  0.00000000000E+00  0.61218038785E+02  0.61218038785E+02  0.00000000000E+00 0. -1.
         -1   -1    0    0    0  501 -0.00000000000E+00 -0.00000000000E+00 -0.26590611203E+03  0.26590611203E+03  0.00000000000E+00 0.  1.
         25    2    1    2    0    0 -0.26484946606E+02  0.43606472852E+02 -0.64067123027E+02  0.14951756894E+03  0.12509168757E+03 0.  0.
         23    2    1    2    0    0  0.26484946606E+02 -0.43606472852E+02 -0.14062095022E+03  0.17760658187E+03  0.95743769574E+02 0.  0.
          5    1    3    3  502    0  0.36518432069E+01 -0.40258654838E+02 -0.40208155756E+02  0.57168727793E+02  0.41800000000E+01 0. -1.
         -5    1    3    3    0  502 -0.30136789813E+02  0.83865127690E+02 -0.23858967271E+02  0.92348841150E+02  0.41800000000E+01 0. -1.
        -11    1    4    4    0    0 -0.18556777575E+02  0.44795711111E+01 -0.96362252571E+02  0.98234944250E+02  0.00000000000E+00 0.  1.
         11    1    4    4    0    0  0.45041724181E+02 -0.48086043963E+02 -0.44258697648E+02  0.79371637621E+02  0.00000000000E+00 0. -1.
</event>
<event>
 8    1  0.7192024E-009  0.1297487E+03  0.7561462E-02  0.1227829E+00
          2   -1    0    0  501    0  0.00000000000E+00  0.00000000000E+00  0.20400167991E+03  0.20400167991E+03  0.00000000000E+00 0. -1.
         -2   -1    0    0    0  501 -0.00000000000E+00 -0.00000000000E+00 -0.12033241802E+03  0.12033241802E+03  0.00000000000E+00 0.  1.
         25    2    1    2    0    0  0.88821468474E+02 -0.41521402651E+02  0.10814704785E+03  0.19224372161E+03  0.12509430203E+03 0.  0.
         23    2    1    2    0    0 -0.88821468474E+02  0.41521402651E+02 -0.24477785967E+02  0.13209037632E+03  0.85061303602E+02 0.  0.
          5    1    3    3  502    0  0.11494161484E+03 -0.54435901735E+02  0.74164042240E+02  0.14728414640E+03  0.41800000000E+01 0. -1.
         -5    1    3    3    0  502 -0.26120146364E+02  0.12914499085E+02  0.33983005609E+02  0.44959575208E+02  0.41800000000E+01 0. -1.
        -11    1    4    4    0    0 -0.60782509383E+02  0.11736128640E+02  0.25978465188E+02  0.67135168250E+02  0.00000000000E+00 0.  1.
         11    1    4    4    0    0 -0.28038959091E+02  0.29785274010E+02 -0.50456251155E+02  0.64955208070E+02  0.00000000000E+00 0. -1.
</event>
<event>
 8    1  0.7192024E-009  0.1209162E+03  0.7561462E-02  0.1241593E+00
         -2   -1    0    0    0  501 -0.00000000000E+00  0.00000000000E+00  0.26836886339E+02  0.26836886339E+02  0.00000000000E+00 0.  1.
          2   -1    0    0  501    0  0.00000000000E+00 -0.00000000000E+00 -0.66945281055E+03  0.66945281055E+03  0.00000000000E+00 0. -1.
         25    2    1    2    0    0 -0.55276352490E+02  0.54386853081E+02 -0.37019984216E+03  0.39838311785E+03  0.12509108889E+03 0.  0.
         23    2    1    2    0    0  0.55276352490E+02 -0.54386853081E+02 -0.27241608205E+03  0.29790657903E+03  0.92327694340E+02 0.  0.
          5    1    3    3  502    0  0.45654767111E+01 -0.31431349028E+02 -0.16425120272E+03  0.16734605843E+03  0.41800000000E+01 0.  1.
         -5    1    3    3    0  502 -0.59841829201E+02  0.85818202109E+02 -0.20594863944E+03  0.23103705942E+03  0.41800000000E+01 0.  1.
        -11    1    4    4    0    0  0.30913566628E+02 -0.69747122800E+02 -0.25008442650E+03  0.26146229196E+03  0.00000000000E+00 0. -1.
         11    1    4    4    0    0  0.24362785862E+02  0.15360269718E+02 -0.22331655547E+02  0.36444287073E+02  0.00000000000E+00 0.  1.
</event>
<event>
 8    1  0.7192024E-009  0.1721642E+03  0.7561462E-02  0.1175610E+00
          4   -1    0    0  501    0  0.00000000000E+00  0.00000000000E+00  0.49924219133E+02  0.49924219133E+02  0.00000000000E+00 0. -1.
         -4   -1    0    0    0  501 -0.00000000000E+00 -0.00000000000E+00 -0.73100583108E+03  0.73100583108E+03  0.00000000000E+00 0.  1.
         25    2    1    2    0    0 -0.11384808817E+03  0.10414468300E+03 -0.30952010776E+03  0.36776807609E+03  0.12507261294E+03 0.  0.
         23    2    1    2    0    0  0.11384808817E+03 -0.10414468300E+03 -0.37156150419E+03  0.41316197412E+03  0.94007251251E+02 0.  0.
          5    1    3    3  502    0 -0.24356634112E+01 -0.86775775434E+01 -0.12095433641E+03  0.12136167725E+03  0.41800000000E+01 0. -1.
         -5    1    3    3    0  502 -0.11141242476E+03  0.11282226055E+03 -0.18856577134E+03  0.24640639884E+03  0.41800000000E+01 0. -1.
        -11    1    4    4    0    0  0.95392040015E+02 -0.11869419423E+03 -0.28107593789E+03  0.31967426531E+03  0.00000000000E+00 0. -1.
         11    1    4    4    0    0  0.18456048153E+02  0.14549511223E+02 -0.90485566300E+02  0.93487708812E+02  0.00000000000E+00 0.  1.
</event>
<event>
 8    1  0.7192024E-009  0.7319418E+02  0.7561462E-02  0.1349556E+00
         -1   -1    0    0    0  501 -0.00000000000E+00  0.00000000000E+00  0.14416175053E+03  0.14416175053E+03  0.00000000000E+00 0.  1.
          1   -1    0    0  501    0  0.00000000000E+00 -0.00000000000E+00 -0.88677055902E+02  0.88677055902E+02  0.00000000000E+00 0. -1.
         25    2    1    2    0    0  0.41713834657E+02  0.29527019225E+01  0.48709649770E+02  0.14060273308E+03  0.12509091141E+03 0.  0.
         23    2    1    2    0    0 -0.41713834657E+02 -0.29527019225E+01  0.67750448592E+01  0.92236073353E+02  0.81931859154E+02 0.  0.
          5    1    3    3  502    0  0.37075280166E+01  0.17949887144E+02  0.84229775575E+02  0.86302211478E+02  0.41800000000E+01 0. -1.
         -5    1    3    3    0  502  0.38006306640E+02 -0.14997185222E+02 -0.35520125805E+02  0.54300521602E+02  0.41800000000E+01 0. -1.
        -11    1    4    4    0    0  0.20897224470E+02  0.90391104379E+01 -0.12056756876E+02  0.25763635116E+02  0.00000000000E+00 0. -1.
         11    1    4    4    0    0 -0.62611059126E+02 -0.11991812360E+02  0.18831801735E+02  0.66472438237E+02  0.00000000000E+00 0.  1.
</event>
<event>
 8    1  0.7192024E-009  0.8464085E+02  0.7561462E-02  0.1316374E+00
         -3   -1    0    0    0  501 -0.00000000000E+00  0.00000000000E+00  0.29444292907E+03  0.29444292907E+03  0.00000000000E+00 0.  1.
          3   -1    0    0  501    0  0.00000000000E+00 -0.00000000000E+00 -0.42375216019E+02  0.42375216019E+02  0.00000000000E+00 0. -1.
         25    2    1    2    0    0 -0.16392350634E+02  0.15329684751E+02  0.16717905008E+03  0.20999998084E+03  0.12508976287E+03 0.  0.
         23    2    1    2    0    0  0.16392350634E+02 -0.15329684751E+02  0.84888662977E+02  0.12681816425E+03  0.91504389446E+02 0.  0.
          5    1    3    3  502    0 -0.47342817429E+02 -0.25699453321E+02  0.26520750986E+02  0.60188262111E+02  0.41800000000E+01 0.  1.
         -5    1    3    3    0  502  0.30950466795E+02  0.41029138072E+02  0.14065829909E+03  0.14981171873E+03  0.41800000000E+01 0.  1.
        -11    1    4    4    0    0 -0.16390175022E+02 -0.24654050574E+02 -0.55942603293E+01  0.30128985970E+02  0.00000000000E+00 0. -1.
         11    1    4    4    0    0  0.32782525656E+02  0.93243658232E+01  0.90482923306E+02  0.96689178280E+02  0.00000000000E+00 0.  1.
</event>
<event>
 8    1  0.7192024E-009  0.1135314E+03  0.7561462E-02  0.1254167E+00
         -1   -1    0    0    0  501 -0.00000000000E+00  0.00000000000E+00  0.93681306354E+02  0.93681306354E+02  0.00000000000E+00 0.  1.
          1   -1    0    0  501    0  0.00000000000E+00 -0.00000000000E+00 -0.17972335280E+03  0.17972335280E+03  0.00000000000E+00 0. -1.
         25    2    1    2    0    0  0.67336056265E+02  0.10661099684E+02 -0.29786202877E+02  0.14554335789E+03  0.12509135711E+03 0.  0.
         23    2    1    2    0    0 -0.67336056265E+02 -0.10661099684E+02 -0.56255843568E+02  0.12786130126E+03  0.92390415658E+02 0.  0.
          5    1    3    3  502    0  0.17786875826E+02  0.65431379763E+02 -0.78659239386E+01  0.68388475409E+02  0.41800000000E+01 0. -1.
         -5    1    3    3    0  502  0.49549180438E+02 -0.54770280078E+02 -0.21920278938E+02  0.77154882481E+02  0.41800000000E+01 0. -1.
        -11    1    4    4    0    0 -0.56866825518E+02 -0.29152021772E+02  0.39401215512E+01  0.64025001177E+02  0.00000000000E+00 0.  1.
         11    1    4    4    0    0 -0.10469230747E+02  0.18490922088E+02 -0.60195965120E+02  0.63836300087E+02  0.00000000000E+00 0. -1.
</event>
<event>
 8    1  0.7192024E-009  0.1965423E+03  0.7561462E-02  0.1152689E+00
          1   -1    0    0  501    0  0.00000000000E+00  0.00000000000E+00  0.29607967166E+03  0.29607967166E+03  0.00000000000E+00 0. -1.
         -1   -1    0    0    0  501 -0.00000000000E+00 -0.00000000000E+00 -0.16409100452E+03  0.16409100452E+03  0.00000000000E+00 0.  1.
         25    2    1    2    0    0  0.17644451221E+03 -0.23052017418E+02  0.13710249439E+03  0.25711627898E+03  0.12509046946E+03 0.  0.
         23    2    1    2    0    0 -0.17644451221E+03  0.23052017418E+02 -0.51138272480E+01  0.20305439721E+03  0.97677405769E+02 0.  0.
          5    1    3    3  502    0  0.92768245445E+02 -0.50323620052E+02  0.15204788102E+02  0.10671022481E+03  0.41800000000E+01 0.  1.
         -5    1    3    3    0  502  0.83676266769E+02  0.27271602635E+02  0.12189770629E+03  0.15040605416E+03  0.41800000000E+01 0.  1.
        -11    1    4    4    0    0 -0.24925809732E+02  0.39751108524E+02  0.15087089219E+02  0.49285564629E+02  0.00000000000E+00 0. -1.
         11    1    4    4    0    0 -0.15151870248E+03 -0.16699091107E+02 -0.20200916467E+02  0.15376883258E+03  0.00000000000E+00 0.  1.
</event>
<event>
 8    1  0.7192024E-009  0.1058268E+03  0.7561462E-02  0.1268499E+00
         -2   -1    0    0    0  501 -0.00000000000E+00  0.00000000000E+00  0.97338035881E+01  0.97338035881E+01  0.00000000000E+00 0.  1.
          2   -1    0    0  501    0  0.00000000000E+00 -0.00000000000E+00 -0.16684258996E+04  0.16684258996E+04  0.00000000000E+00 0. -1.
         25    2    1    2    0    0 -0.49441233742E+01  0.14896460452E+02 -0.13502518348E+04  0.13561242436E+04  0.12508636161E+03 0.  0.
         23    2    1    2    0    0  0.49441233742E+01 -0.14896460452E+02 -0.30844026127E+03  0.32203545963E+03  0.91241950851E+02 0.  0.
          5    1    3    3  502    0 -0.57620548975E+02 -0.21176784956E+02 -0.59849844740E+03  0.60165309592E+03  0.41800000000E+01 0.  1.
         -5    1    3    3    0  502  0.52676425601E+02  0.36073245408E+02 -0.75175338737E+03  0.75447114767E+03  0.41800000000E+01 0.  1.
        -11    1    4    4    0    0  0.18614282039E+02  0.32149808293E+02 -0.19438626378E+03  0.19790432339E+03  0.00000000000E+00 0. -1.
         11    1    4    4    0    0 -0.13670158665E+02 -0.47046268745E+02 -0.11405399749E+03  0.12413113624E+03  0.00000000000E+00 0.  1.
</event>
<event>
 8    1  0.7192024E-009  0.1085990E+03  0.7561462E-02  0.1263186E+00
         -1   -1    0    0    0  501 -0.00000000000E+00  0.00000000000E+00  0.18211582930E+03  0.18211582930E+03  0.00000000000E+00 0.  1.
          1   -1    0    0  501    0  0.00000000000E+00 -0.00000000000E+00 -0.15484831024E+03  0.15484831024E+03  0.00000000000E+00 0. -1.
         25    2    1    2    0    0  0.29998678634E+02 -0.83143571887E+02 -0.78394634061E+02  0.17206498887E+03  0.12509143647E+03 0.  0.
         23    2    1    2    0    0 -0.29998678634E+02  0.83143571887E+02  0.10566215312E+03  0.16489915067E+03  0.90633685923E+02 0.  0.
          5    1    3    3  502    0  0.45592015801E+02 -0.96346089674E+02 -0.18010147977E+02  0.10818058389E+03  0.41800000000E+01 0. -1.
         -5    1    3    3    0  502 -0.15593337167E+02  0.13202517787E+02 -0.60384486083E+02  0.63884404979E+02  0.41800000000E+01 0. -1.
        -11    1    4    4    0    0 -0.44862561369E+01  0.34059956279E+02  0.10403147580E+03  0.10955708591E+03  0.00000000000E+00 0.  1.
         11    1    4    4    0    0 -0.25512422497E+02  0.49083615608E+02  0.16306773126E+01  0.55342064755E+02  0.00000000000E+00 0. -1.
</event>
<event>
 8    1  0.7192024E-009  0.1459924E+03  0.7561462E-02  0.1205486E+00
          2   -1    0    0  501    0  0.00000000000E+00  0.00000000000E+00  0.22025017804E+03  0.22025017804E+03  0.00000000000E+00 0.  1.
         -2   -1    0    0    0  501 -0.00000000000E+00 -0.00000000000E+00 -0.15666363586E+03  0.15666363586E+03  0.00000000000E+00 0. -1.
         25    2    1    2    0    0 -0.53623664715E+02 -0.10646820689E+03 -0.59598086761E+02  0.18278804052E+03  0.12509420177E+03 0.  0.
         23    2    1    2    0    0  0.53623664715E+02  0.10646820689E+03  0.12318462894E+03  0.19412577338E+03  0.91100969202E+02 0.  0.
          5    1    3    3  502    0  0.19709448767E+02  0.15112173413E+02  0.66566018952E+01  0.26050391643E+02  0.41800000000E+01 0.  1.
         -5    1    3    3    0  502 -0.73333113482E+02 -0.12158038030E+03 -0.66254688656E+02  0.15673764888E+03  0.41800000000E+01 0.  1.
        -11    1    4    4    0    0 -0.56806123404E+01  0.10559183237E+02  0.67141458851E+02  0.68203674416E+02  0.00000000000E+00 0.  1.
         11    1    4    4    0    0  0.59304277056E+02  0.95909023652E+02  0.56043170085E+02  0.12592209897E+03  0.00000000000E+00 0. -1.
</event>
<event>
 8    1  0.7192024E-009  0.1067596E+03  0.7561462E-02  0.1266691E+00
          1   -1    0    0  501    0  0.00000000000E+00  0.00000000000E+00  0.26526844019E+03  0.26526844019E+03  0.00000000000E+00 0. -1.
         -1   -1    0    0    0  501 -0.00000000000E+00 -0.00000000000E+00 -0.84413647094E+02  0.84413647094E+02  0.00000000000E+00 0.  1.
         25    2    1    2    0    0  0.16321681684E+02 -0.10085630990E+03  0.10186824249E+03  0.19095391355E+03  0.12509142949E+03 0.  0.
         23    2    1    2    0    0 -0.16321681684E+02  0.10085630990E+03  0.78986550609E+02  0.15872817374E+03  0.92289573746E+02 0.  0.
          5    1    3    3  502    0  0.27001254137E+02 -0.91313883476E+02  0.77147714067E+01  0.95625745164E+02  0.41800000000E+01 0. -1.
         -5    1    3    3    0  502 -0.10679572453E+02 -0.95424264244E+01  0.94153471084E+02  0.95328168382E+02  0.41800000000E+01 0. -1.
        -11    1    4    4    0    0 -0.13203098187E+02  0.35835595416E+02  0.85169239135E+02  0.93339761063E+02  0.00000000000E+00 0. -1.
         11    1    4    4    0    0 -0.31185834973E+01  0.65020714484E+02 -0.61826885262E+01  0.65388412677E+02  0.00000000000E+00 0.  1.
</event>
<event>
 8    1  0.7192024E-009  0.1810092E+03  0.7561462E-02  0.1166830E+00
          2   -1    0    0  501    0  0.00000000000E+00  0.00000000000E+00  0.16075905428E+04  0.16075905428E+04  0.00000000000E+00 0. -1.
         -2   -1    0    0    0  501 -0.00000000000E+00 -0.00000000000E+00 -0.25623913747E+02  0.25623913747E+02  0.00000000000E+00 0.  1.
         25    2    1    2    0    0  0.15175795459E+03  0.73172226556E+02  0.95428849816E+03  0.97708670963E+03  0.12508896394E+03 0.  0.
         23    2    1    2    0    0 -0.15175795459E+03 -0.73172226556E+02  0.62767813092E+03  0.65612774694E+03  0.90217142228E+02 0.  0.
          5    1    3    3  502    0  0.15034912698E+03  0.60681099825E+02  0.57147141304E+03  0.59404049036E+03  0.41800000000E+01 0.  1.
         -5    1    3    3    0  502  0.14088276042E+01  0.12491126731E+02  0.38281708512E+03  0.38304621927E+03  0.41800000000E+01 0.  1.
        -11    1    4    4    0    0 -0.92987351618E+02 -0.85742392889E+02  0.35370802062E+03  0.37564314096E+03  0.00000000000E+00 0.  1.
         11    1    4    4    0    0 -0.58770602968E+02  0.12570166333E+02  0.27397011029E+03  0.28048460598E+03  0.00000000000E+00 0. -1.
</event>
<event>
 8    1  0.7192024E-009  0.8760806E+02  0.7561462E-02  0.1308750E+00
         -1   -1    0    0    0  501 -0.00000000000E+00  0.00000000000E+00  0.11055916103E+03  0.11055916103E+03  0.00000000000E+00 0.  1.
          1   -1    0    0  501    0  0.00000000000E+00 -0.00000000000E+00 -0.12756593966E+03  0.12756593966E+03  0.00000000000E+00 0. -1.
         25    2    1    2    0    0 -0.53340376834E+01  0.11258437101E+02 -0.58178888348E+02  0.13851685012E+03  0.12508769066E+03 0.  0.
         23    2    1    2    0    0  0.53340376834E+01 -0.11258437101E+02  0.41172109715E+02  0.99608250571E+02  0.89841285607E+02 0.  0.
          5    1    3    3  502    0  0.33252262426E+02 -0.16761979696E+02 -0.78133527306E+02  0.86654471374E+02  0.41800000000E+01 0. -1.
         -5    1    3    3    0  502 -0.38586300110E+02  0.28020416798E+02  0.19954638958E+02  0.51862378750E+02  0.41800000000E+01 0. -1.
        -11    1    4    4    0    0  0.21008305755E+02  0.35117196843E+02  0.12097508340E+02  0.42672193907E+02  0.00000000000E+00 0.  1.
         11    1    4    4    0    0 -0.15674268072E+02 -0.46375633945E+02  0.29074601374E+02  0.56936056664E+02  0.00000000000E+00 0. -1.
</event>
<event>
 8    1  0.7192024E-009  0.1716854E+03  0.7561462E-02  0.1176102E+00
          2   -1    0    0  501    0  0.00000000000E+00  0.00000000000E+00  0.12066219356E+04  0.12066219356E+04  0.00000000000E+00 0. -1.
         -2   -1    0    0    0  501 -0.00000000000E+00 -0.00000000000E+00 -0.34002230863E+02  0.34002230863E+02  0.00000000000E+00 0.  1.
         25    2    1    2    0    0 -0.14435690348E+03  0.88137193765E+02  0.53460139551E+03  0.57450325887E+03  0.12509301286E+03 0.  0.
         23    2    1    2    0    0  0.14435690348E+03 -0.88137193765E+02  0.63801830926E+03  0.66612090762E+03  0.89680656316E+02 0.  0.
          5    1    3    3  502    0 -0.14040270779E+03  0.75265460849E+02  0.30192470603E+03  0.34139978100E+03  0.41800000000E+01 0.  1.
         -5    1    3    3    0  502 -0.39541956860E+01  0.12871732915E+02  0.23267668947E+03  0.23310347787E+03  0.41800000000E+01 0.  1.
        -11    1    4    4    0    0  0.63916841523E+02 -0.29660979613E+02  0.12446202633E+03  0.14302423690E+03  0.00000000000E+00 0.  1.
         11    1    4    4    0    0  0.80440061952E+02 -0.58476214152E+02  0.51355628293E+03  0.52309667073E+03  0.00000000000E+00 0. -1.
</event>
<event>
 8    1  0.7192024E-009  0.1244775E+03  0.7561462E-02  0.1235888E+00
         -2   -1    0    0    0  501 -0.00000000000E+00  0.00000000000E+00  0.36564111653E+02  0.36564111653E+02  0.00000000000E+00 0. -1.
          2   -1    0    0  501    0  0.00000000000E+00 -0.00000000000E+00 -0.49188970701E+03  0.49188970701E+03  0.00000000000E+00 0.  1.
         25    2    1    2    0    0  0.68979479231E+02  0.34605810355E+02 -0.28052596078E+03  0.31669876879E+03  0.12509022672E+03 0.  0.
         23    2    1    2    0    0 -0.68979479231E+02 -0.34605810355E+02 -0.17479963458E+03  0.21175504987E+03  0.91266413488E+02 0.  0.
          5    1    3    3  502    0 -0.35098789519E+02  0.22995981769E+02 -0.79362189971E+02  0.89869737955E+02  0.41800000000E+01 0.  1.
         -5    1    3    3    0  502  0.10407826875E+03  0.11609828586E+02 -0.20116377081E+03  0.22682903084E+03  0.41800000000E+01 0.  1.
        -11    1    4    4    0    0 -0.20371443684E+02 -0.47504886457E+02 -0.14348713683E+03  0.15251317448E+03  0.00000000000E+00 0. -1.
         11    1    4    4    0    0 -0.48608035548E+02  0.12899076102E+02 -0.31312497750E+02  0.59241875387E+02  0.00000000000E+00 0.  1.
</event>
<event>
 8    1  0.7192024E-009  0.1127057E+03  0.7561462E-02  0.1255640E+00
          2   -1    0    0  501    0  0.00000000000E+00  0.00000000000E+00  0.13406150998E+04  0.13406150998E+04  0.00000000000E+00 0. -1.
         -2   -1    0    0    0  501 -0.00000000000E+00 -0.00000000000E+00 -0.27062486609E+02  0.27062486609E+02  0.00000000000E+00 0.  1.
         25    2    1    2    0    0 -0.39164405152E+02  0.68809653841E+02  0.11631604094E+04  0.11725436503E+04  0.12509138621E+03 0.  0.
         23    2    1    2    0    0  0.39164405152E+02 -0.68809653841E+02  0.15039220384E+03  0.19513393610E+03  0.95868758988E+02 0.  0.
          5    1    3    3  502    0 -0.30978612309E+02  0.96422791503E+02  0.10735768313E+04  0.10783513872E+04  0.41800000000E+01 0.  1.
         -5    1    3    3    0  502 -0.81857928436E+01 -0.27613137662E+02  0.89583578106E+02  0.94192263176E+02  0.41800000000E+01 0.  1.
        -11    1    4    4    0    0  0.27120601238E+02 -0.76154021995E+02  0.15916827755E+03  0.17852031440E+03  0.00000000000E+00 0. -1.
         11    1    4    4    0    0  0.12043803914E+02  0.73443681537E+01 -0.87760737050E+01  0.16613621700E+02  0.00000000000E+00 0.  1.
</event>
<event>
 8    1  0.7192024E-009  0.1056077E+03  0.7561462E-02  0.1268927E+00
          1   -1    0    0  501    0  0.00000000000E+00  0.00000000000E+00  0.27715325320E+03  0.27715325320E+03  0.00000000000E+00 0. -1.
         -1   -1    0    0    0  501 -0.00000000000E+00 -0.00000000000E+00 -0.90808849688E+02  0.90808849688E+02  0.00000000000E+00 0.  1.
         25    2    1    2    0    0 -0.65224251970E+02 -0.28452892224E+02  0.20579717610E+03  0.25112495695E+03  0.12508995241E+03 0.  0.
         23    2    1    2    0    0  0.65224251970E+02  0.28452892224E+02 -0.19452772586E+02  0.11683714594E+03  0.90602087107E+02 0.  0.
          5    1    3    3  502    0 -0.56689812944E+02 -0.65964806609E+02  0.19060277569E+03  0.20955185779E+03  0.41800000000E+01 0.  1.
         -5    1    3    3    0  502 -0.85344390264E+01  0.37511914385E+02  0.15194400414E+02  0.41573099166E+02  0.41800000000E+01 0.  1.
        -11    1    4    4    0    0  0.51805270715E+02 -0.23324053716E+01 -0.49562147735E+02  0.71733065435E+02  0.00000000000E+00 0.  1.
         11    1    4    4    0    0  0.13418981256E+02  0.30785297596E+02  0.30109375149E+02  0.45104080501E+02  0.00000000000E+00 0. -1.
</event>
<event>
 8    1  0.7192024E-009  0.1254691E+03  0.7561462E-02  0.1234338E+00
         -1   -1    0    0    0  501 -0.00000000000E+00  0.00000000000E+00  0.26014930672E+03  0.26014930672E+03  0.00000000000E+00 0.  1.
          1   -1    0    0  501    0  0.00000000000E+00 -0.00000000000E+00 -0.67482733379E+02  0.67482733379E+02  0.00000000000E+00 0. -1.
         25    2    1    2    0    0  0.64823086676E+02  0.39280478458E+02  0.10322786443E+03  0.17901952515E+03  0.12508800836E+03 0.  0.
         23    2    1    2    0    0 -0.64823086676E+02 -0.39280478458E+02  0.89438708909E+02  0.14861251495E+03  0.91331311142E+02 0.  0.
          5    1    3    3  502    0  0.73384421642E+02 -0.22682340717E+02  0.29860396488E+02  0.82515923303E+02  0.41800000000E+01 0.  1.
         -5    1    3    3    0  502 -0.85613349663E+01  0.61962819175E+02  0.73367467944E+02  0.96503601844E+02  0.41800000000E+01 0.  1.
        -11    1    4    4    0    0 -0.84387298234E+02 -0.29061034981E+02  0.47221600100E+02  0.10097345876E+03  0.00000000000E+00 0. -1.
         11    1    4    4    0    0  0.19564211559E+02 -0.10219443477E+02  0.42217108809E+02  0.47639056195E+02  0.00000000000E+00 0.  1.
</event>
<event>
 8    1  0.7192024E-009  0.1081529E+03  0.7561462E-02  0.1264029E+00
         -1   -1    0    0    0  501 -0.00000000000E+00  0.00000000000E+00  0.27423477274E+03  0.27423477274E+03  0.00000000000E+00 0.  1.
          1   -1    0    0  501    0  0.00000000000E+00 -0.00000000000E+00 -0.50191167342E+02  0.50191167342E+02  0.00000000000E+00 0. -1.
         25    2    1    2    0    0 -0.41412744474E+02 -0.21967880836E+02  0.12954916646E+03  0.18608534412E+03  0.12508863087E+03 0.  0.
         23    2    1    2    0    0  0.41412744474E+02  0.21967880836E+02  0.94494438938E+02  0.13834059596E+03  0.89505967997E+02 0.  0.
          5    1    3    3  502    0  0.24408764316E+02  0.28650092627E+02  0.78109667064E+01  0.38666512434E+02  0.41800000000E+01 0.  1.
         -5    1    3    3    0  502 -0.65821508790E+02 -0.50617973463E+02  0.12173819975E+03  0.14741883169E+03  0.41800000000E+01 0.  1.
        -11    1    4    4    0    0 -0.23849361187E+02  0.18064658167E+02  0.10084333712E+02  0.31572419770E+02  0.00000000000E+00 0. -1.
         11    1    4    4    0    0  0.65262105662E+02  0.39032226687E+01  0.84410105227E+02  0.10676817619E+03  0.00000000000E+00 0.  1.
</event>
<event>
 8    1  0.7192024E-009  0.1253824E+03  0.7561462E-02  0.1234473E+00
         -1   -1    0    0    0  501 -0.00000000000E+00  0.00000000000E+00  0.93126001743E+03  0.93126001743E+03  0.00000000000E+00 0.  1.
          1   -1    0    0  501    0  0.00000000000E+00 -0.00000000000E+00 -0.30480586996E+02  0.30480586996E+02  0.00000000000E+00 0. -1.
         25    2    1    2    0    0 -0.72779934673E+02 -0.12070887903E+02  0.77742102003E+03  0.79086872307E+03  0.12508904639E+03 0.  0.
         23    2    1    2    0    0  0.72779934673E+02  0.12070887903E+02  0.12335841041E+03  0.17087188135E+03  0.92397387376E+02 0.  0.
          5    1    3    3  502    0 -0.80718229804E+02 -0.51107989578E+02  0.39746400067E+03  0.40880626640E+03  0.41800000000E+01 0. -1.
         -5    1    3    3    0  502  0.79382951306E+01  0.39037101675E+02  0.37995701936E+03  0.38206245667E+03  0.41800000000E+01 0. -1.
        -11    1    4    4    0    0  0.85355311363E+02 -0.13659992838E+02  0.10813172961E+03  0.13843625078E+03  0.00000000000E+00 0.  1.
         11    1    4    4    0    0 -0.12575376690E+02  0.25730880740E+02  0.15226680797E+02  0.32435630573E+02  0.00000000000E+00 0. -1.
</event>
<event>
 8    1  0.7192024E-009  0.1014741E+03  0.7561462E-02  0.1277226E+00
          3   -1    0    0  501    0  0.00000000000E+00  0.00000000000E+00  0.44926889551E+03  0.44926889551E+03  0.00000000000E+00 0. -1.
         -3   -1    0    0    0  501 -0.00000000000E+00 -0.00000000000E+00 -0.44243493930E+02  0.44243493930E+02  0.00000000000E+00 0.  1.
         25    2    1    2    0    0  0.28064858419E+02 -0.91075551729E+02  0.21721164134E+03  0.26816017063E+03  0.12508632051E+03 0.  0.
         23    2    1    2    0    0 -0.28064858419E+02  0.91075551729E+02  0.18781376024E+03  0.22535221880E+03  0.80169954376E+02 0.  0.
          5    1    3    3  502    0  0.74098049117E+01  0.45508961703E+01 -0.14037414209E+02  0.17033416053E+02  0.41800000000E+01 0. -1.
         -5    1    3    3    0  502  0.20655053507E+02 -0.95626447900E+02  0.23124905555E+03  0.25112675458E+03  0.41800000000E+01 0. -1.
        -11    1    4    4    0    0 -0.23212452691E+02  0.69858100167E+02  0.18972261732E+03  0.20350342416E+03  0.00000000000E+00 0. -1.
         11    1    4    4    0    0 -0.48524057279E+01  0.21217451562E+02 -0.19088570884E+01  0.21848794647E+02  0.00000000000E+00 0.  1.
</event>
<event>
 8    1  0.7192024E-009  0.1559629E+03  0.7561462E-02  0.1193332E+00
          1   -1    0    0  501    0  0.00000000000E+00  0.00000000000E+00  0.32645502641E+03  0.32645502641E+03  0.00000000000E+00 0. -1.
         -1   -1    0    0    0  501 -0.00000000000E+00 -0.00000000000E+00 -0.11941698804E+03  0.11941698804E+03  0.00000000000E+00 0.  1.
         25    2    1    2    0    0 -0.19129701219E+02  0.12432618322E+03  0.22862276233E+03  0.28937754970E+03  0.12509218006E+03 0.  0.
         23    2    1    2    0    0  0.19129701219E+02 -0.12432618322E+03 -0.21584723968E+02  0.15649446474E+03  0.90563082332E+02 0.  0.
          5    1    3    3  502    0 -0.52805466053E+02  0.57071317439E+01  0.81506953034E+02  0.97374762596E+02  0.41800000000E+01 0.  1.
         -5    1    3    3    0  502  0.33675764834E+02  0.11861905148E+03  0.14711580930E+03  0.19200278711E+03  0.41800000000E+01 0.  1.
        -11    1    4    4    0    0 -0.16471854291E+02 -0.26884929115E+02  0.27398080336E+02  0.41770518352E+02  0.00000000000E+00 0. -1.
         11    1    4    4    0    0  0.35601555510E+02 -0.97441254110E+02 -0.48982804305E+02  0.11472394639E+03  0.00000000000E+00 0.  1.
</event>
<event>
 8    1  0.7192024E-009  0.1283574E+03  0.7561462E-02  0.1229914E+00
         -2   -1    0    0    0  501 -0.00000000000E+00  0.00000000000E+00  0.45325044476E+03  0.45325044476E+03  0.00000000000E+00 0.  1.
          2   -1    0    0  501    0  0.00000000000E+00 -0.00000000000E+00 -0.40501886679E+02  0.40501886679E+02  0.00000000000E+00 0. -1.
         25    2    1    2    0    0 -0.71100130124E+02  0.28920344622E+02  0.17516357862E+03  0.22851347995E+03  0.12507804127E+03 0.  0.
         23    2    1    2    0    0  0.71100130124E+02 -0.28920344622E+02  0.23758497946E+03  0.26523885149E+03  0.89517657675E+02 0.  0.
          5    1    3    3  502    0  0.30519788575E+02 -0.16081128923E+02  0.52266019569E+02  0.62763599352E+02  0.41800000000E+01 0. -1.
         -5    1    3    3    0  502 -0.10161991870E+03  0.45001473545E+02  0.12289755905E+03  0.16574988060E+03  0.41800000000E+01 0. -1.
        -11    1    4    4    0    0  0.12060689907E+02 -0.47379448889E+02  0.61256586885E+02  0.78375007846E+02  0.00000000000E+00 0. -1.
         11    1    4    4    0    0  0.59039440217E+02  0.18459104267E+02  0.17632839258E+03  0.18686384364E+03  0.00000000000E+00 0.  1.
</event>
<event>
 8    1  0.7192024E-009  0.1098939E+03  0.7561462E-02  0.1260766E+00
         -2   -1    0    0    0  501 -0.00000000000E+00  0.00000000000E+00  0.52889130474E+02  0.52889130474E+02  0.00000000000E+00 0.  1.
          2   -1    0    0  501    0  0.00000000000E+00 -0.00000000000E+00 -0.35530066763E+03  0.35530066763E+03  0.00000000000E+00 0. -1.
         25    2    1    2    0    0 -0.28554793448E+02 -0.78064428239E+02 -0.14835074644E+03  0.21110346520E+03  0.12508915966E+03 0.  0.
         23    2    1    2    0    0  0.28554793448E+02  0.78064428239E+02 -0.15406079072E+03  0.19708633290E+03  0.90547579740E+02 0.  0.
          5    1    3    3  502    0  0.31484702634E+02 -0.66854683034E+02 -0.34118715762E+02  0.81500885325E+02  0.41800000000E+01 0. -1.
         -5    1    3    3    0  502 -0.60039496082E+02 -0.11209745204E+02 -0.11423203068E+03  0.12960257988E+03  0.41800000000E+01 0. -1.
        -11    1    4    4    0    0  0.25469011295E+02  0.48076274187E+02 -0.17371118823E+02  0.57111771512E+02  0.00000000000E+00 0.  1.
         11    1    4    4    0    0  0.30857821528E+01  0.29988154051E+02 -0.13668967189E+03  0.13997456139E+03  0.00000000000E+00 0. -1.
</event>
<event>
 8    1  0.7192024E-009  0.1323629E+03  0.7561462E-02  0.1223991E+00
         -1   -1    0    0    0  501 -0.00000000000E+00  0.00000000000E+00  0.46865319175E+02  0.46865319175E+02  0.00000000000E+00 0.  1.
          1   -1    0    0  501    0  0.00000000000E+00 -0.00000000000E+00 -0.58856741908E+03  0.58856741908E+03  0.00000000000E+00 0. -1.
         25    2    1    2    0    0 -0.10976319502E+03 -0.49765342398E+00 -0.17339546660E+03  0.24033643696E+03  0.12508960170E+03 0.  0.
         23    2    1    2    0    0  0.10976319502E+03  0.49765342398E+00 -0.36830663330E+03  0.39509630129E+03  0.91668448889E+02 0.  0.
          5    1    3    3  502    0 -0.59429064622E+02 -0.28331547061E+02 -0.17024697364E+03  0.18258147418E+03  0.41800000000E+01 0.  1.
         -5    1    3    3    0  502 -0.50334130395E+02  0.27833893637E+02 -0.31484929610E+01  0.57754962779E+02  0.41800000000E+01 0.  1.
        -11    1    4    4    0    0  0.32911601064E+02 -0.41928481715E+02 -0.17166367567E+03  0.17974868180E+03  0.00000000000E+00 0. -1.
         11    1    4    4    0    0  0.76851593953E+02  0.42426135139E+02 -0.19664295763E+03  0.21534761950E+03  0.00000000000E+00 0.  1.
</event>
<event>
 8    1  0.7192024E-009  0.9935114E+02  0.7561462E-02  0.1281666E+00
          1   -1    0    0  501    0  0.00000000000E+00  0.00000000000E+00  0.34067725385E+03  0.34067725385E+03  0.00000000000E+00 0. -1.
         -1   -1    0    0    0  501 -0.00000000000E+00 -0.00000000000E+00 -0.49796731973E+02  0.49796731973E+02  0.00000000000E+00 0.  1.
         25    2    1    2    0    0 -0.50718105123E+02  0.27828754771E+02  0.22665825459E+03  0.26527089454E+03  0.12509163576E+03 0.  0.
         23    2    1    2    0    0  0.50718105123E+02 -0.27828754771E+02  0.64222267296E+02  0.12520309129E+03  0.90578963741E+02 0.  0.
          5    1    3    3  502    0 -0.86021493178E+02  0.21921038002E+02  0.20447692732E+03  0.22295406568E+03  0.41800000000E+01 0. -1.
         -5    1    3    3    0  502  0.35303388055E+02  0.59077167697E+01  0.22181327265E+02  0.42316828861E+02  0.41800000000E+01 0. -1.
        -11    1    4    4    0    0  0.75171226397E+01  0.12571538193E+02 -0.18445763735E+02  0.23554127135E+02  0.00000000000E+00 0.  1.
         11    1    4    4    0    0  0.43200982484E+02 -0.40400292964E+02  0.82668031031E+02  0.10164896415E+03  0.00000000000E+00 0. -1.
</event>
<event>
 8    1  0.7192024E-009  0.1023589E+03  0.7561462E-02  0.1275412E+00
         -2   -1    0    0    0  501 -0.00000000000E+00  0.00000000000E+00  0.24586186558E+03  0.24586186558E+03  0.00000000000E+00 0.  1.
          2   -1    0    0  501    0  0.00000000000E+00 -0.00000000000E+00 -0.60147955579E+02  0.60147955579E+02  0.00000000000E+00 0. -1.
         25    2    1    2    0    0  0.22758280351E+02  0.32799245744E+02  0.57123624488E+02  0.14319258731E+03  0.12508908322E+03 0.  0.
         23    2    1    2    0    0 -0.22758280351E+02 -0.32799245744E+02  0.12859028552E+03  0.16281723385E+03  0.91543761473E+02 0.  0.
          5    1    3    3  502    0  0.50172984919E+01  0.78022028858E+02  0.52388909983E+02  0.94205522983E+02  0.41800000000E+01 0.  1.
         -5    1    3    3    0  502  0.17740981859E+02 -0.45222783115E+02  0.47347145056E+01  0.48987064327E+02  0.41800000000E+01 0.  1.
        -11    1    4    4    0    0  0.49855570543E+01  0.18599906292E+02 -0.23895266460E+01  0.19404178179E+02  0.00000000000E+00 0.  1.
         11    1    4    4    0    0 -0.27743837405E+02 -0.51399152035E+02  0.13097981216E+03  0.14341305567E+03  0.00000000000E+00 0. -1.
</event>
<event>
 8    1  0.7192024E-009  0.1095877E+03  0.7561462E-02  0.1261335E+00
          3   -1    0    0  501    0  0.00000000000E+00  0.00000000000E+00  0.22313978403E+02  0.22313978403E+02  0.00000000000E+00 0. -1.
         -3   -1    0    0    0  501 -0.00000000000E+00 -0.00000000000E+00 -0.62177472728E+03  0.62177472728E+03  0.00000000000E+00 0.  1.
         25    2    1    2    0    0  0.46014923962E+02  0.48256140757E+00 -0.38790529411E+03  0.41016707784E+03  0.12509559724E+03 0.  0.
         23    2    1    2    0    0 -0.46014923962E+02 -0.48256140757E+00 -0.21155545476E+03  0.23392162784E+03  0.88577714126E+02 0.  0.
          5    1    3    3  502    0  0.49227406792E+02 -0.56266762405E+02 -0.19012272173E+03  0.20433650640E+03  0.41800000000E+01 0.  1.
         -5    1    3    3    0  502 -0.32124828308E+01  0.56749323812E+02 -0.19778257238E+03  0.20583057144E+03  0.41800000000E+01 0.  1.
        -11    1    4    4    0    0  0.20633647332E+02  0.67877935627E+00 -0.12811740887E+02  0.24297095469E+02  0.00000000000E+00 0. -1.
         11    1    4    4    0    0 -0.66648571294E+02 -0.11613407638E+01 -0.19874371387E+03  0.20962453237E+03  0.00000000000E+00 0.  1.
</event>
<event>
 8    1  0.7192024E-009  0.2654962E+03  0.7561462E-02  0.1103885E+00
          2   -1    0    0  501    0  0.00000000000E+00  0.00000000000E+00  0.19251544713E+03  0.19251544713E+03  0.00000000000E+00 0. -1.
         -2   -1    0    0    0  501 -0.00000000000E+00 -0.00000000000E+00 -0.39915829036E+03  0.39915829036E+03  0.00000000000E+00 0.  1.
         25    2    1    2    0    0 -0.16243839247E+03  0.19514282187E+03 -0.10424345942E+03  0.30163059266E+03  0.12508942130E+03 0.  0.
         23    2    1    2    0    0  0.16243839247E+03 -0.19514282187E+03 -0.10239938381E+03  0.29004314483E+03  0.95772855133E+02 0.  0.
          5    1    3    3  502    0 -0.49418477132E+02  0.81998060866E-01  0.72026808207E+01  0.50115303219E+02  0.41800000000E+01 0.  1.
         -5    1    3    3    0  502 -0.11301991534E+03  0.19506082381E+03 -0.11144614024E+03  0.25151528944E+03  0.41800000000E+01 0.  1.
        -11    1    4    4    0    0  0.99907961759E+02 -0.95035239435E+02 -0.66347376216E+01  0.13804824266E+03  0.00000000000E+00 0. -1.
         11    1    4    4    0    0  0.62530430713E+02 -0.10010758243E+03 -0.95764646190E+02  0.15199490217E+03  0.00000000000E+00 0.  1.
</event>
<event>
 8    1  0.7192024E-009  0.1235450E+03  0.7561462E-02  0.1237361E+00
         -2   -1    0    0    0  501 -0.00000000000E+00  0.00000000000E+00  0.32804306356E+02  0.32804306356E+02  0.00000000000E+00 0.  1.
          2   -1    0    0  501    0  0.00000000000E+00 -0.00000000000E+00 -0.63068581780E+03  0.63068581780E+03  0.00000000000E+00 0. -1.
         25    2    1    2    0    0 -0.54623398684E+02  0.76428302381E+02 -0.34114485534E+03  0.37530275514E+03  0.12508934650E+03 0.  0.
         23    2    1    2    0    0  0.54623398684E+02 -0.76428302381E+02 -0.25673665611E+03  0.28818736901E+03  0.91177014534E+02 0.  0.
          5    1    3    3  502    0 -0.90477294489E+02  0.47458473052E+02 -0.28349346710E+03  0.30137097699E+03  0.41800000000E+01 0. -1.
         -5    1    3    3    0  502  0.35853895804E+02  0.28969829329E+02 -0.57651388234E+02  0.73931778154E+02  0.41800000000E+01 0. -1.
        -11    1    4    4    0    0  0.29294856585E+02 -0.63897658031E+02 -0.24922375383E+03  0.25894705791E+03  0.00000000000E+00 0. -1.
         11    1    4    4    0    0  0.25328542099E+02 -0.12530644350E+02 -0.75129022710E+01  0.29240311100E+02  0.00000000000E+00 0.  1.
</event>
<event>
 8    1  0.7192024E-009  0.2551532E+03  0.7561462E-02  0.1110091E+00
          1   -1    0    0  501    0  0.00000000000E+00  0.00000000000E+00  0.12240886587E+04  0.12240886587E+04  0.00000000000E+00 0. -1.
         -1   -1    0    0    0  501 -0.00000000000E+00 -0.00000000000E+00 -0.64335870375E+02  0.64335870375E+02  0.00000000000E+00 0.  1.
         25    2    1    2    0    0  0.83227642736E+02 -0.22013697460E+03  0.34857962908E+03  0.43879660762E+03  0.12509027520E+03 0.  0.
         23    2    1    2    0    0 -0.83227642736E+02  0.22013697460E+03  0.81117315921E+03  0.84962792142E+03  0.92079218791E+02 0.  0.
          5    1    3    3  502    0  0.10479272983E+02 -0.16935952577E+03  0.17487454651E+03  0.24370277707E+03  0.41800000000E+01 0. -1.
         -5    1    3    3    0  502  0.72748369754E+02 -0.50777448825E+02  0.17370508257E+03  0.19509383056E+03  0.41800000000E+01 0. -1.
        -11    1    4    4    0    0  0.54238347411E+01  0.11108110942E+03  0.39544645417E+03  0.41078744987E+03  0.00000000000E+00 0.  1.
         11    1    4    4    0    0 -0.88651477477E+02  0.10905586517E+03  0.41572670504E+03  0.43884047155E+03  0.00000000000E+00 0. -1.
</event>
<event>
 8    1  0.7192024E-009  0.1337402E+03  0.7561462E-02  0.1222009E+00
         -2   -1    0    0    0  501 -0.00000000000E+00  0.00000000000E+00  0.38693023580E+02  0.38693023580E+02  0.00000000000E+00 0.  1.
          2   -1    0    0  501    0  0.00000000000E+00 -0.00000000000E+00 -0.67857198118E+03  0.67857198118E+03  0.00000000000E+00 0. -1.
         25    2    1    2    0    0  0.97467562178E+02  0.16536428087E+02 -0.48791499777E+03  0.51330511854E+03  0.12509084914E+03 0.  0.
         23    2    1    2    0    0 -0.97467562178E+02 -0.16536428087E+02 -0.15196395984E+03  0.20395988623E+03  0.93451650440E+02 0.  0.
          5    1    3    3  502    0 -0.11057873105E+02 -0.33835614697E+02 -0.16659866260E+03  0.17041042268E+03  0.41800000000E+01 0.  1.
         -5    1    3    3    0  502  0.10852543528E+03  0.50372042784E+02 -0.32131633517E+03  0.34289469585E+03  0.41800000000E+01 0.  1.
        -11    1    4    4    0    0 -0.62546467063E+02  0.15600113104E+02 -0.26278606013E+02  0.69613139600E+02  0.00000000000E+00 0.  1.
         11    1    4    4    0    0 -0.34921095115E+02 -0.32136541191E+02 -0.12568535382E+03  0.13434674663E+03  0.00000000000E+00 0. -1.
</event>
<event>
 8    1  0.7192024E-009  0.1804715E+03  0.7561462E-02  0.1167347E+00
          2   -1    0    0  501    0  0.00000000000E+00  0.00000000000E+00  0.50172996759E+03  0.50172996759E+03  0.00000000000E+00 0. -1.
         -2   -1    0    0    0  501 -0.00000000000E+00 -0.00000000000E+00 -0.89520805682E+02  0.89520805682E+02  0.00000000000E+00 0.  1.
         25    2    1    2    0    0  0.16378659772E+03 -0.51395925414E+02  0.29763862801E+03  0.36565663176E+03  0.12509367980E+03 0.  0.
         23    2    1    2    0    0 -0.16378659772E+03  0.51395925414E+02  0.11457053389E+03  0.22559414150E+03  0.91097303480E+02 0.  0.
          5    1    3    3  502    0  0.12061593723E+03 -0.28261284931E+02  0.29068593649E+03  0.31601058623E+03  0.41800000000E+01 0. -1.
         -5    1    3    3    0  502  0.43170660492E+02 -0.23134640483E+02  0.69526915261E+01  0.49646045533E+02  0.41800000000E+01 0. -1.
        -11    1    4    4    0    0 -0.72094600893E+02 -0.16231801652E+02  0.17565470578E+02  0.75958203108E+02  0.00000000000E+00 0.  1.
         11    1    4    4    0    0 -0.91691996831E+02  0.67627727066E+02  0.97005063314E+02  0.14963593840E+03  0.00000000000E+00 0. -1.
</event>
<event>
 8    1  0.7192024E-009  0.1084652E+03  0.7561462E-02  0.1263439E+00
         -1   -1    0    0    0  501 -0.00000000000E+00  0.00000000000E+00  0.17033173013E+02  0.17033173013E+02  0.00000000000E+00 0. -1.
          1   -1    0    0  501    0  0.00000000000E+00 -0.00000000000E+00 -0.86698890974E+03  0.86698890974E+03  0.00000000000E+00 0.  1.
         25    2    1    2    0    0  0.58474575829E+01  0.51784623122E+02 -0.54611496843E+03  0.56267641715E+03  0.12508937495E+03 0.  0.
         23    2    1    2    0    0 -0.58474575829E+01 -0.51784623122E+02 -0.30384076831E+03  0.32134566561E+03  0.90708237600E+02 0.  0.
          5    1    3    3  502    0 -0.49364219588E+02  0.18308345419E+02 -0.11274240206E+03  0.12450037474E+03  0.41800000000E+01 0. -1.
         -5    1    3    3    0  502  0.55211677171E+02  0.33476277702E+02 -0.43337256637E+03  0.43817604241E+03  0.41800000000E+01 0. -1.
        -11    1    4    4    0    0  0.38019906402E+02 -0.37178646267E+02 -0.21142089181E+03  0.21800586807E+03  0.00000000000E+00 0.  1.
         11    1    4    4    0    0 -0.43867363985E+02 -0.14605976855E+02 -0.92419876500E+02  0.10333979754E+03  0.00000000000E+00 0. -1.
</event>
<event>
 8    1  0.7192024E-009  0.1402255E+03  0.7561462E-02  0.1213026E+00
         -2   -1    0    0    0  501 -0.00000000000E+00  0.00000000000E+00  0.45546867320E+03  0.45546867320E+03  0.00000000000E+00 0. -1.
          2   -1    0    0  501    0  0.00000000000E+00 -0.00000000000E+00 -0.73745131428E+02  0.73745131428E+02  0.00000000000E+00 0.  1.
         25    2    1    2    0    0  0.46299497572E+01 -0.12449146127E+03  0.31316953026E+03  0.35950325377E+03  0.12509146425E+03 0.  0.
         23    2    1    2    0    0 -0.46299497572E+01  0.12449146127E+03  0.68554011520E+02  0.16971055086E+03  0.92641557693E+02 0.  0.
          5    1    3    3  502    0 -0.52604913700E+01 -0.75488044918E+02  0.29741884248E+03  0.30692272310E+03  0.41800000000E+01 0. -1.
         -5    1    3    3    0  502  0.98904411272E+01 -0.49003416356E+02  0.15750687777E+02  0.52580530672E+02  0.41800000000E+01 0. -1.
        -11    1    4    4    0    0  0.18076252371E+02 -0.82207728383E+01  0.14665181849E+02  0.24686019616E+02  0.00000000000E+00 0. -1.
         11    1    4    4    0    0 -0.22706202128E+02  0.13271223411E+03  0.53888829671E+02  0.14502453124E+03  0.00000000000E+00 0.  1.
</event>
<event>
 8    1  0.7192024E-009  0.1012296E+03  0.7561462E-02  0.1277731E+00
          1   -1    0    0  501    0  0.00000000000E+00  0.00000000000E+00  0.97805878849E+01  0.97805878849E+01  0.00000000000E+00 0. -1.
         -1   -1    0    0    0  501 -0.00000000000E+00 -0.00000000000E+00 -0.16337375026E+04  0.16337375026E+04  0.00000000000E+00 0.  1.
         25    2    1    2    0    0  0.30744725737E+02  0.17194330566E+02 -0.12635370248E+04  0.12702014237E+04  0.12507981667E+03 0.  0.
         23    2    1    2    0    0 -0.30744725737E+02 -0.17194330566E+02 -0.36041988996E+03  0.37331666684E+03  0.90674988269E+02 0.  0.
          5    1    3    3  502    0 -0.25075728781E+02  0.39536230284E+02 -0.22197560847E+03  0.22689766159E+03  0.41800000000E+01 0. -1.
         -5    1    3    3    0  502  0.55820454519E+02 -0.22341899718E+02 -0.10415614163E+04  0.10433037621E+04  0.41800000000E+01 0. -1.
        -11    1    4    4    0    0 -0.62085972060E+02 -0.85420909354E+01 -0.19826433436E+03  0.20793359884E+03  0.00000000000E+00 0. -1.
         11    1    4    4    0    0  0.31341246323E+02 -0.86522396305E+01 -0.16215555560E+03  0.16538306800E+03  0.00000000000E+00 0.  1.
</event>
<event>
 8    1  0.7192024E-009  0.1024804E+03  0.7561462E-02  0.1275165E+00
          2   -1    0    0  501    0  0.00000000000E+00  0.00000000000E+00  0.95433491490E+03  0.95433491490E+03  0.00000000000E+00 0.  1.
         -2   -1    0    0    0  501 -0.00000000000E+00 -0.00000000000E+00 -0.15295155287E+02  0.15295155287E+02  0.00000000000E+00 0. -1.
         25    2    1    2    0    0  0.43654679125E+02  0.21514732468E+02  0.61667762654E+03  0.63111619014E+03  0.12509090957E+03 0.  0.
         23    2    1    2    0    0 -0.43654679125E+02 -0.21514732468E+02  0.32236213307E+03  0.33851388004E+03  0.91135544237E+02 0.  0.
          5    1    3    3  502    0  0.69587413335E+02 -0.16020019855E+02  0.51035605312E+03  0.51534437271E+03  0.41800000000E+01 0. -1.
         -5    1    3    3    0  502 -0.25932734210E+02  0.37534752323E+02  0.10632157343E+03  0.11577181743E+03  0.41800000000E+01 0. -1.
        -11    1    4    4    0    0  0.20830259939E-01 -0.40137659460E+02  0.62002215831E+02  0.73860049477E+02  0.00000000000E+00 0. -1.
         11    1    4    4    0    0 -0.43675509385E+02  0.18622926992E+02  0.26035991724E+03  0.26465383057E+03  0.00000000000E+00 0.  1.
</event>
<event>
 8    1  0.7192024E-009  0.1063253E+03  0.7561462E-02  0.1267530E+00
          2   -1    0    0  501    0  0.00000000000E+00  0.00000000000E+00  0.61768060570E+03  0.61768060570E+03  0.00000000000E+00 0. -1.
         -2   -1    0    0    0  501 -0.00000000000E+00 -0.00000000000E+00 -0.28561636485E+02  0.28561636485E+02  0.00000000000E+00 0.  1.
         25    2    1    2    0    0  0.67922012812E+02 -0.10498814472E+02  0.24488688137E+03  0.28344307158E+03  0.12508703063E+03 0.  0.
         23    2    1    2    0    0 -0.67922012812E+02  0.10498814472E+02  0.34423208785E+03  0.36279917060E+03  0.91672694724E+02 0.  0.
          5    1    3    3  502    0  0.81829358181E+02 -0.51454201011E+02  0.14277246397E+03  0.17246746803E+03  0.41800000000E+01 0.  1.
         -5    1    3    3    0  502 -0.13907345369E+02  0.40955386539E+02  0.10211441740E+03  0.11097560355E+03  0.41800000000E+01 0.  1.
        -11    1    4    4    0    0 -0.10505148909E+02  0.10744685467E+02  0.12882266582E+01  0.15081974251E+02  0.00000000000E+00 0.  1.
         11    1    4    4    0    0 -0.57416863903E+02 -0.24587099445E+00  0.34294386119E+03  0.34771719635E+03  0.00000000000E+00 0. -1.
</event>
<event>
 8    1  0.7192024E-009  0.7850315E+02  0.7561462E-02  0.1333354E+00
          1   -1    0    0  501    0  0.00000000000E+00  0.00000000000E+00  0.83295999913E+02  0.83295999913E+02  0.00000000000E+00 0. -1.
         -1   -1    0    0    0  501 -0.00000000000E+00 -0.00000000000E+00 -0.15709996903E+03  0.15709996903E+03  0.00000000000E+00 0.  1.
         25    2    1    2    0    0 -0.31120991089E+02 -0.17154285088E+02 -0.45322280487E+02  0.13771083535E+03  0.12508948589E+03 0.  0.
         23    2    1    2    0    0  0.31120991089E+02  0.17154285088E+02 -0.28481688632E+02  0.10268513360E+03  0.92033931194E+02 0.  0.
          5    1    3    3  502    0 -0.47061118563E+02 -0.52511213796E+02  0.85988442629E+01  0.71158899495E+02  0.41800000000E+01 0. -1.
         -5    1    3    3    0  502  0.15940127474E+02  0.35356928708E+02 -0.53921124750E+02  0.66551935853E+02  0.41800000000E+01 0. -1.
        -11    1    4    4    0    0  0.25558514961E+02  0.26288879740E+02  0.27410706309E+02  0.45778703622E+02  0.00000000000E+00 0. -1.
         11    1    4    4    0    0  0.55624761278E+01 -0.91345946520E+01 -0.55892394940E+02  0.56906429973E+02  0.00000000000E+00 0.  1.
</event>
<event>
 8    1  0.7192024E-009  0.1784681E+03  0.7561462E-02  0.1169294E+00
         -2   -1    0    0    0  501 -0.00000000000E+00  0.00000000000E+00  0.87076121959E+02  0.87076121959E+02  0.00000000000E+00 0. -1.
          2   -1    0    0  501    0  0.00000000000E+00 -0.00000000000E+00 -0.42247113069E+03  0.42247113069E+03  0.00000000000E+00 0.  1.
         25    2    1    2    0    0 -0.12447737865E+02  0.15495556674E+03 -0.15240020527E+03  0.25107661904E+03  0.12508985658E+03 0.  0.
         23    2    1    2    0    0  0.12447737865E+02 -0.15495556674E+03 -0.18299480345E+03  0.25847063361E+03  0.95675474948E+02 0.  0.
          5    1    3    3  502    0 -0.50805690244E+02  0.13253442636E+02 -0.40161973982E+02  0.66236911590E+02  0.41800000000E+01 0.  1.
         -5    1    3    3    0  502  0.38357952379E+02  0.14170212410E+03 -0.11223823129E+03  0.18483970745E+03  0.41800000000E+01 0.  1.
        -11    1    4    4    0    0 -0.28534600050E+01 -0.10757183141E+03 -0.54413245571E+02  0.12058458625E+03  0.00000000000E+00 0. -1.
         11    1    4    4    0    0  0.15301197870E+02 -0.47383735330E+02 -0.12858155788E+03  0.13788604736E+03  0.00000000000E+00 0.  1.
</event>
<event>
 8    1  0.7192024E-009  0.1601786E+03  0.7561462E-02  0.1188495E+00
         -4   -1    0    0    0  501 -0.00000000000E+00  0.00000000000E+00  0.86849284128E+02  0.86849284128E+02  0.00000000000E+00 0.  1.
          4   -1    0    0  501    0  0.00000000000E+00 -0.00000000000E+00 -0.44948948914E+03  0.44948948914E+03  0.00000000000E+00 0. -1.
         25    2    1    2    0    0 -0.59213953206E+02  0.13677234762E+03 -0.95259710946E+02  0.21664612419E+03  0.12509261876E+03 0.  0.
         23    2    1    2    0    0  0.59213953206E+02 -0.13677234762E+03 -0.26738049407E+03  0.31969264908E+03  0.92185106931E+02 0.  0.
          5    1    3    3  502    0  0.46912108619E+01  0.25295423906E+02 -0.83584558637E+02  0.87554079131E+02  0.41800000000E+01 0. -1.
         -5    1    3    3    0  502 -0.63905164068E+02  0.11147692372E+03 -0.11675152309E+02  0.12909204506E+03  0.41800000000E+01 0. -1.
        -11    1    4    4    0    0  0.62679226856E+02 -0.53561536667E+02 -0.81131663448E+02  0.11567139017E+03  0.00000000000E+00 0.  1.
         11    1    4    4    0    0 -0.34652736503E+01 -0.83210810955E+02 -0.18624883062E+03  0.20402125891E+03  0.00000000000E+00 0. -1.
</event>
<event>
 8    1  0.7192024E-009  0.1108718E+03  0.7561462E-02  0.1258964E+00
          3   -1    0    0  501    0  0.00000000000E+00  0.00000000000E+00  0.78389070070E+03  0.78389070070E+03  0.00000000000E+00 0. -1.
         -3   -1    0    0    0  501 -0.00000000000E+00 -0.00000000000E+00 -0.20254370103E+02  0.20254370103E+02  0.00000000000E+00 0.  1.
         25    2    1    2    0    0  0.95914552627E+01 -0.46859743579E+02  0.29142858670E+03  0.32072200918E+03  0.12507659429E+03 0.  0.
         23    2    1    2    0    0 -0.95914552627E+01  0.46859743579E+02  0.47220774390E+03  0.48342306163E+03  0.91814331872E+02 0.  0.
          5    1    3    3  502    0  0.59312031175E+02 -0.19545219826E+02  0.22361954963E+03  0.23221349667E+03  0.41800000000E+01 0. -1.
         -5    1    3    3    0  502 -0.49720575912E+02 -0.27314523753E+02  0.67809037075E+02  0.88508512505E+02  0.41800000000E+01 0. -1.
        -11    1    4    4    0    0  0.35330895701E+02  0.45131216327E+02  0.22669769874E+03  0.23383101910E+03  0.00000000000E+00 0.  1.
         11    1    4    4    0    0 -0.44922350963E+02  0.17285272519E+01  0.24551004516E+03  0.24959204254E+03  0.00000000000E+00 0. -1.
</event>
<event>
 8    1  0.7192024E-009  0.1551682E+03  0.7561462E-02  0.1194262E+00
         -3   -1    0    0    0  501 -0.00000000000E+00  0.00000000000E+00  0.41146196379E+02  0.41146196379E+02  0.00000000000E+00 0.  1.
          3   -1    0    0  501    0  0.00000000000E+00 -0.00000000000E+00 -0.71668555968E+03  0.71668555968E+03  0.00000000000E+00 0. -1.
         25    2    1    2    0    0 -0.12102931227E+03  0.35895933048E+02 -0.44488360771E+03  0.47906745427E+03  0.12509032294E+03 0.  0.
         23    2    1    2    0    0  0.12102931227E+03 -0.35895933048E+02 -0.23065575558E+03  0.27876430178E+03  0.92578863279E+02 0.  0.
          5    1    3    3  502    0 -0.11046543141E+03  0.77141826499E+02 -0.32945513644E+03  0.35596577400E+03  0.41800000000E+01 0. -1.
         -5    1    3    3    0  502 -0.10563880861E+02 -0.41245893451E+02 -0.11542847127E+03  0.12310168027E+03  0.41800000000E+01 0. -1.
        -11    1    4    4    0    0  0.54983038238E+02  0.47756994191E+01 -0.28238589445E+02  0.61994836339E+02  0.00000000000E+00 0.  1.
         11    1    4    4    0    0  0.66046274035E+02 -0.40671632467E+02 -0.20241716614E+03  0.21676946544E+03  0.00000000000E+00 0. -1.
</event>
<event>
 8    1  0.7192024E-009  0.8996089E+02  0.7561462E-02  0.1302946E+00
          2   -1    0    0  501    0  0.00000000000E+00  0.00000000000E+00  0.76889104884E+03  0.76889104884E+03  0.00000000000E+00 0.  1.
         -2   -1    0    0    0  501 -0.00000000000E+00 -0.00000000000E+00 -0.16354530934E+02  0.16354530934E+02  0.00000000000E+00 0. -1.
         25    2    1    2    0    0 -0.77193368110E+01  0.39716801807E+01  0.52990114877E+03  0.54453454010E+03  0.12508907024E+03 0.  0.
         23    2    1    2    0    0  0.77193368110E+01 -0.39716801807E+01  0.22263536914E+03  0.24071103968E+03  0.91103977001E+02 0.  0.
          5    1    3    3  502    0  0.74696923423E+01 -0.40419184984E+02  0.63479824035E+02  0.75740790054E+02  0.41800000000E+01 0.  1.
         -5    1    3    3    0  502 -0.15189029153E+02  0.44390865165E+02  0.46642132473E+03  0.46879375005E+03  0.41800000000E+01 0.  1.
        -11    1    4    4    0    0  0.25277178385E+02 -0.42338059077E+02  0.11788498059E+03  0.12778229785E+03  0.00000000000E+00 0.  1.
         11    1    4    4    0    0 -0.17557841574E+02  0.38366378896E+02  0.10475038855E+03  0.11292874183E+03  0.00000000000E+00 0. -1.
</event>
<event>
 8    1  0.7192024E-009  0.1587118E+03  0.7561462E-02  0.1190159E+00
         -2   -1    0    0    0  501 -0.00000000000E+00  0.00000000000E+00  0.97885723663E+02  0.97885723663E+02  0.00000000000E+00 0.  1.
          2   -1    0    0  501    0  0.00000000000E+00 -0.00000000000E+00 -0.34971543271E+03  0.34971543271E+03  0.00000000000E+00 0. -1.
         25    2    1    2    0    0 -0.11752089865E+03  0.17235295309E+02 -0.22678863526E+02  0.17398472198E+03  0.12509250820E+03 0.  0.
         23    2    1    2    0    0  0.11752089865E+03 -0.17235295309E+02 -0.22915084552E+03  0.27361643439E+03  0.90816442012E+02 0.  0.
          5    1    3    3  502    0 -0.98167845443E+02 -0.43510506087E+02 -0.23886077413E+02  0.11008227429E+03  0.41800000000E+01 0.  1.
         -5    1    3    3    0  502 -0.19353053212E+02  0.60745801396E+02  0.12072138870E+01  0.63902447693E+02  0.41800000000E+01 0.  1.
        -11    1    4    4    0    0  0.93109916244E+02  0.25780760141E+02 -0.12216502456E+03  0.15575107487E+03  0.00000000000E+00 0.  1.
         11    1    4    4    0    0  0.24410982411E+02 -0.43016055450E+02 -0.10698582096E+03  0.11786535952E+03  0.00000000000E+00 0. -1.
</event>
<event>
 8    1  0.7192024E-009  0.2375861E+03  0.7561462E-02  0.1121411E+00
         -1   -1    0    0    0  501 -0.00000000000E+00  0.00000000000E+00  0.26577668732E+04  0.26577668732E+04  0.00000000000E+00 0.  1.
          1   -1    0    0  501    0  0.00000000000E+00 -0.00000000000E+00 -0.24298397826E+02  0.24298397826E+02  0.00000000000E+00 0. -1.
         25    2    1    2    0    0  0.23120842164E+02  0.22705878452E+03  0.12448726301E+04  0.12717879295E+04  0.12508560055E+03 0.  0.
         23    2    1    2    0    0 -0.23120842164E+02 -0.22705878452E+03  0.13885958452E+04  0.14102773415E+04  0.92701097949E+02 0.  0.
          5    1    3    3  502    0  0.16349594933E+02  0.20902139162E+03  0.81771722847E+03  0.84417781867E+03  0.41800000000E+01 0.  1.
         -5    1    3    3    0  502  0.67712472304E+01  0.18037392901E+02  0.42715540163E+03  0.42761011081E+03  0.41800000000E+01 0.  1.
        -11    1    4    4    0    0  0.34985611698E+02 -0.10260570297E+03  0.56469440418E+03  0.57500582034E+03  0.00000000000E+00 0. -1.
         11    1    4    4    0    0 -0.58106453861E+02 -0.12445308155E+03  0.82390144105E+03  0.83527152116E+03  0.00000000000E+00 0.  1.
</event>
<event>
 8    1  0.7192024E-009  0.2092992E+03  0.7561462E-02  0.1142122E+00
         -1   -1    0    0    0  501 -0.00000000000E+00  0.00000000000E+00  0.49801553800E+02  0.49801553800E+02  0.00000000000E+00 0.  1.
          1   -1    0    0  501    0  0.00000000000E+00 -0.00000000000E+00 -0.10510131887E+04  0.10510131887E+04  0.00000000000E+00 0. -1.
         25    2    1    2    0    0  0.18419064801E+03  0.78038103337E+02 -0.46063572092E+03  0.51754159042E+03  0.12509152664E+03 0.  0.
         23    2    1    2    0    0 -0.18419064801E+03 -0.78038103337E+02 -0.54057591394E+03  0.58327315204E+03  0.89269876080E+02 0.  0.
          5    1    3    3  502    0  0.74697322674E+01  0.14226387446E+02  0.33517122737E+01  0.16937927119E+02  0.41800000000E+01 0. -1.
         -5    1    3    3    0  502  0.17672091574E+03  0.63811715890E+02 -0.46398743320E+03  0.50060366330E+03  0.41800000000E+01 0. -1.
        -11    1    4    4    0    0 -0.53923427724E+02  0.12583493174E+02 -0.91110237592E+02  0.10661686429E+03  0.00000000000E+00 0.  1.
         11    1    4    4    0    0 -0.13026722029E+03 -0.90621596510E+02 -0.44946567635E+03  0.47665628775E+03  0.00000000000E+00 0. -1.
</event>
<event>
 8    1  0.7192024E-009  0.1051916E+03  0.7561462E-02  0.1269743E+00
         -2   -1    0    0    0  501 -0.00000000000E+00  0.00000000000E+00  0.85036312625E+02  0.85036312625E+02  0.00000000000E+00 0.  1.
          2   -1    0    0  501    0  0.00000000000E+00 -0.00000000000E+00 -0.14052449549E+03  0.14052449549E+03  0.00000000000E+00 0. -1.
         25    2    1    2    0    0 -0.12443255154E+02 -0.16648045614E+02 -0.41077191515E+02  0.13329096649E+03  0.12508858487E+03 0.  0.
         23    2    1    2    0    0  0.12443255154E+02  0.16648045614E+02 -0.14410991353E+02  0.92269841624E+02  0.88735872002E+02 0.  0.
          5    1    3    3  502    0  0.56140693583E+02 -0.14027316203E+02 -0.17479394826E+02  0.60593272889E+02  0.41800000000E+01 0. -1.
         -5    1    3    3    0  502 -0.68583948737E+02 -0.26207294116E+01 -0.23597796688E+02  0.72697693606E+02  0.41800000000E+01 0. -1.
        -11    1    4    4    0    0 -0.34169616132E+02  0.18549212403E+00  0.12007997957E+02  0.36218629031E+02  0.00000000000E+00 0.  1.
         11    1    4    4    0    0  0.46612871286E+02  0.16462553490E+02 -0.26418989311E+02  0.56051212593E+02  0.00000000000E+00 0. -1.
</event>
<event>
 8    1  0.7192024E-009  0.1161920E+03  0.7561462E-02  0.1249515E+00
          1   -1    0    0  501    0  0.00000000000E+00  0.00000000000E+00  0.83096407226E+02  0.83096407226E+02  0.00000000000E+00 0.  1.
         -1   -1    0    0    0  501 -0.00000000000E+00 -0.00000000000E+00 -0.18429725173E+03  0.18429725173E+03  0.00000000000E+00 0. -1.
         25    2    1    2    0    0 -0.20565631945E+02 -0.60644866551E+02 -0.66748757836E+02  0.15557501060E+03  0.12508973656E+03 0.  0.
         23    2    1    2    0    0  0.20565631945E+02  0.60644866551E+02 -0.34452086668E+02  0.11181864836E+03  0.84945387099E+02 0.  0.
          5    1    3    3  502    0 -0.39779712818E+02 -0.93568345491E+02 -0.43022479513E+02  0.11048016552E+03  0.41800000000E+01 0. -1.
         -5    1    3    3    0  502  0.19214080873E+02  0.32923478940E+02 -0.23726278323E+02  0.45094845076E+02  0.41800000000E+01 0. -1.
        -11    1    4    4    0    0  0.45057219475E+02  0.39460612256E+02 -0.47962208877E+02  0.76731130754E+02  0.00000000000E+00 0. -1.
         11    1    4    4    0    0 -0.24491587529E+02  0.21184254295E+02  0.13510122209E+02  0.35087517607E+02  0.00000000000E+00 0.  1.
</event>
<event>
 8    1  0.7192024E-009  0.1915563E+03  0.7561462E-02  0.1157065E+00
         -1   -1    0    0    0  501 -0.00000000000E+00  0.00000000000E+00  0.36623267615E+02  0.36623267615E+02  0.00000000000E+00 0.  1.
          1   -1    0    0  501    0  0.00000000000E+00 -0.00000000000E+00 -0.13942781955E+04  0.13942781955E+04  0.00000000000E+00 0. -1.
         25    2    1    2    0    0  0.78195749143E+02 -0.15512094914E+03 -0.10022482502E+04  0.10248543232E+04  0.12509094581E+03 0.  0.
         23    2    1    2    0    0 -0.78195749143E+02  0.15512094914E+03 -0.35540667775E+03  0.40604713997E+03  0.91560303859E+02 0.  0.
          5    1    3    3  502    0  0.29177824060E+02 -0.15247830523E+03 -0.86946728101E+03  0.88322805896E+03  0.41800000000E+01 0.  1.
         -5    1    3    3    0  502  0.49017925083E+02 -0.26426439160E+01 -0.13278096915E+03  0.14162626421E+03  0.41800000000E+01 0.  1.
        -11    1    4    4    0    0 -0.43177783324E+02  0.42421584576E+02 -0.21121740382E+03  0.21971960196E+03  0.00000000000E+00 0. -1.
         11    1    4    4    0    0 -0.35017965819E+02  0.11269936457E+03 -0.14418927393E+03  0.18632753801E+03  0.00000000000E+00 0.  1.
</event>
<event>
 8    1  0.7192024E-009  0.7427466E+02  0.7561462E-02  0.1346132E+00
          1   -1    0    0  501    0  0.00000000000E+00  0.00000000000E+00  0.20249863208E+03  0.20249863208E+03  0.00000000000E+00 0.  1.
         -1   -1    0    0    0  501 -0.00000000000E+00 -0.00000000000E+00 -0.99109560699E+02  0.99109560699E+02  0.00000000000E+00 0. -1.
         25    2    1    2    0    0 -0.33851057871E+02  0.60078475572E+02  0.11896309869E+03  0.18589091854E+03  0.12509155607E+03 0.  0.
         23    2    1    2    0    0  0.33851057871E+02 -0.60078475572E+02 -0.15574027304E+02  0.11571727424E+03  0.91611243229E+02 0.  0.
          5    1    3    3  502    0 -0.32193910394E+02  0.37903432809E+02 -0.13347255149E+02  0.51659846159E+02  0.41800000000E+01 0. -1.
         -5    1    3    3    0  502 -0.16571474770E+01  0.22175042763E+02  0.13231035384E+03  0.13423107238E+03  0.41800000000E+01 0. -1.
        -11    1    4    4    0    0  0.84187300257E+00 -0.33838926988E+02 -0.50614869379E+02  0.60890448612E+02  0.00000000000E+00 0. -1.
         11    1    4    4    0    0  0.33009184868E+02 -0.26239548584E+02  0.35040842075E+02  0.54826825632E+02  0.00000000000E+00 0.  1.
</event>
<event>
 8    1  0.7192024E-009  0.1063634E+03  0.7561462E-02  0.1267456E+00
          2   -1    0    0  501    0  0.00000000000E+00  0.00000000000E+00  0.15813496233E+03  0.15813496233E+03  0.00000000000E+00 0. -1.
         -2   -1    0    0    0  501 -0.00000000000E+00 -0.00000000000E+00 -0.12273450461E+03  0.12273450461E+03  0.00000000000E+00 0.  1.
         25    2    1    2    0    0 -0.74224984351E+01  0.85713206697E+02  0.29482052687E+02  0.15465114907E+03  0.12508372872E+03 0.  0.
         23    2    1    2    0    0  0.74224984351E+01 -0.85713206697E+02  0.59184050290E+01  0.12621831787E+03  0.92163924408E+02 0.  0.
          5    1    3    3  502    0  0.71141042369E+01  0.48255565018E+02  0.77644890210E+02  0.91790039820E+02  0.41800000000E+01 0.  1.
         -5    1    3    3    0  502 -0.14536602672E+02  0.37457641678E+02 -0.48162837523E+02  0.62861109246E+02  0.41800000000E+01 0.  1.
        -11    1    4    4    0    0 -0.29957452529E+02 -0.80172013052E+02 -0.79745348388E+01  0.85956930172E+02  0.00000000000E+00 0.  1.
         11    1    4    4    0    0  0.37379950964E+02 -0.55411936452E+01  0.13892939868E+02  0.40261387696E+02  0.00000000000E+00 0. -1.
</event>
<event>
 8    1  0.7192024E-009  0.1144299E+03  0.7561462E-02  0.1252580E+00
         -2   -1    0    0    0  501 -0.00000000000E+00  0.00000000000E+00  0.28052763133E+02  0.28052763133E+02  0.00000000000E+00 0.  1.
          2   -1    0    0  501    0  0.00000000000E+00 -0.00000000000E+00 -0.53986081102E+03  0.53986081102E+03  0.00000000000E+00 0. -1.
         25    2    1    2    0    0  0.36498074655E+02 -0.36647322070E+02 -0.22187488854E+03  0.25990640926E+03  0.12509092591E+03 0.  0.
         23    2    1    2    0    0 -0.36498074655E+02  0.36647322070E+02 -0.28993315935E+03  0.30800716489E+03  0.90177830228E+02 0.  0.
          5    1    3    3  502    0 -0.43881852868E+02 -0.32193736695E+02 -0.83332139356E+02  0.99618128586E+02  0.41800000000E+01 0. -1.
         -5    1    3    3    0  502  0.80379927523E+02 -0.44535853754E+01 -0.13854274918E+03  0.16028828068E+03  0.41800000000E+01 0. -1.
        -11    1    4    4    0    0 -0.49637844798E+02 -0.50977091689E+01 -0.85972685578E+02  0.99404250113E+02  0.00000000000E+00 0.  1.
         11    1    4    4    0    0  0.13139770142E+02  0.41745031239E+02 -0.20396047377E+03  0.20860291478E+03  0.00000000000E+00 0. -1.
</event>
<event>
 8    1  0.7192024E-009  0.1439708E+03  0.7561462E-02  0.1208084E+00
          1   -1    0    0  501    0  0.00000000000E+00  0.00000000000E+00  0.14685299130E+04  0.14685299130E+04  0.00000000000E+00 0. -1.
         -1   -1    0    0    0  501 -0.00000000000E+00 -0.00000000000E+00 -0.18082989243E+02  0.18082989243E+02  0.00000000000E+00 0.  1.
         25    2    1    2    0    0  0.10725696098E+02  0.11907493418E+03  0.86768609041E+03  0.88477084010E+03  0.12508560066E+03 0.  0.
         23    2    1    2    0    0 -0.10725696098E+02 -0.11907493418E+03  0.58276083338E+03  0.60184206218E+03  0.91158095511E+02 0.  0.
          5    1    3    3  502    0 -0.29187112823E+02  0.53186386924E+02  0.66700588656E+03  0.66977235268E+03  0.41800000000E+01 0.  1.
         -5    1    3    3    0  502  0.39912808921E+02  0.65888547255E+02  0.20068020385E+03  0.21499848742E+03  0.41800000000E+01 0.  1.
        -11    1    4    4    0    0 -0.15319855547E+02 -0.13373937242E+03  0.50918493163E+03  0.52667847147E+03  0.00000000000E+00 0.  1.
         11    1    4    4    0    0  0.45941594481E+01  0.14664438240E+02  0.73575901749E+02  0.75163590708E+02  0.00000000000E+00 0. -1.
</event>
<event>
 8    1  0.7192024E-009  0.8938978E+02  0.7561462E-02  0.1304336E+00
          2   -1    0    0  501    0  0.00000000000E+00  0.00000000000E+00  0.11230888058E+04  0.11230888058E+04  0.00000000000E+00 0. -1.
         -2   -1    0    0    0  501 -0.00000000000E+00 -0.00000000000E+00 -0.14543298638E+02  0.14543298638E+02  0.00000000000E+00 0.  1.
         25    2    1    2    0    0  0.20078501356E+02  0.35822574234E+02  0.85947917741E+03  0.86950392972E+03  0.12508486860E+03 0.  0.
         23    2    1    2    0    0 -0.20078501356E+02 -0.35822574234E+02  0.24906632973E+03  0.26812817469E+03  0.90400654972E+02 0.  0.
          5    1    3    3  502    0 -0.25070751366E+02  0.16702918318E+02  0.73532035094E+03  0.73594906139E+03  0.41800000000E+01 0. -1.
         -5    1    3    3    0  502  0.45149252723E+02  0.19119655917E+02  0.12415882647E+03  0.13355486833E+03  0.41800000000E+01 0. -1.
        -11    1    4    4    0    0  0.30209067682E+02 -0.38334309531E+02  0.12955669549E+03  0.13844509527E+03  0.00000000000E+00 0. -1.
         11    1    4    4    0    0 -0.50287569038E+02  0.25117352965E+01  0.11950963423E+03  0.12968307942E+03  0.00000000000E+00 0.  1.
</event>
<event>
 8    1  0.7192024E-009  0.1473618E+03  0.7561462E-02  0.1203753E+00
          1   -1    0    0  501    0  0.00000000000E+00  0.00000000000E+00  0.31870548775E+03  0.31870548775E+03  0.00000000000E+00 0. -1.
         -1   -1    0    0    0  501 -0.00000000000E+00 -0.00000000000E+00 -0.86297986152E+02  0.86297986152E+02  0.00000000000E+00 0.  1.
         25    2    1    2    0    0 -0.11812743738E+03 -0.21455812346E+02  0.16828963227E+03  0.24162753771E+03  0.12509205932E+03 0.  0.
         23    2    1    2    0    0  0.11812743738E+03  0.21455812346E+02  0.64117869326E+02  0.16337593619E+03  0.90366763876E+02 0.  0.
          5    1    3    3  502    0 -0.18422015460E+02 -0.60245132748E+02  0.40931114773E+02  0.75244104287E+02  0.41800000000E+01 0.  1.
         -5    1    3    3    0  502 -0.99705421923E+02  0.38789320402E+02  0.12735851750E+03  0.16638343343E+03  0.41800000000E+01 0.  1.
        -11    1    4    4    0    0  0.35140442527E+02 -0.87379959392E+01  0.65738763392E+02  0.75051903949E+02  0.00000000000E+00 0. -1.
         11    1    4    4    0    0  0.82986994856E+02  0.30193808285E+02 -0.16208940664E+01  0.88324032242E+02  0.00000000000E+00 0.  1.
</event>
<event>
 8    1  0.7192024E-009  0.9703861E+02  0.7561462E-02  0.1286650E+00
         -2   -1    0    0    0  501 -0.00000000000E+00  0.00000000000E+00  0.26700962920E+02  0.26700962920E+02  0.00000000000E+00 0.  1.
          2   -1    0    0  501    0  0.00000000000E+00 -0.00000000000E+00 -0.78495881695E+03  0.78495881695E+03  0.00000000000E+00 0. -1.
         25    2    1    2    0    0 -0.37456303820E+01 -0.89183029816E+02 -0.50683824581E+03  0.52962242415E+03  0.12508901707E+03 0.  0.
         23    2    1    2    0    0  0.37456303820E+01  0.89183029816E+02 -0.25141960822E+03  0.28203735572E+03  0.91463698102E+02 0.  0.
          5    1    3    3  502    0  0.20908865078E+00 -0.94695459814E+02 -0.51162172701E+03  0.52032829807E+03  0.41800000000E+01 0. -1.
         -5    1    3    3    0  502 -0.39547190327E+01  0.55124299976E+01  0.47834812001E+01  0.92941260750E+01  0.41800000000E+01 0. -1.
        -11    1    4    4    0    0 -0.71175516219E+01  0.54854997422E+02 -0.41759289042E+02  0.69307780981E+02  0.00000000000E+00 0.  1.
         11    1    4    4    0    0  0.10863182004E+02  0.34328032394E+02 -0.20966031917E+03  0.21272957474E+03  0.00000000000E+00 0. -1.
</event>
<event>
 8    1  0.7192024E-009  0.9320035E+02  0.7561462E-02  0.1295282E+00
          2   -1    0    0  501    0  0.00000000000E+00  0.00000000000E+00  0.23175258841E+03  0.23175258841E+03  0.00000000000E+00 0. -1.
         -2   -1    0    0    0  501 -0.00000000000E+00 -0.00000000000E+00 -0.63572774884E+02  0.63572774884E+02  0.00000000000E+00 0.  1.
         25    2    1    2    0    0 -0.37023365018E+02 -0.26355273876E+02  0.13529512907E+03  0.18978385442E+03  0.12509120444E+03 0.  0.
         23    2    1    2    0    0  0.37023365018E+02  0.26355273876E+02  0.32884684453E+02  0.10554150887E+03  0.89399539178E+02 0.  0.
          5    1    3    3  502    0 -0.16675318262E+02  0.43523152702E+02  0.96396437498E+02  0.10715445218E+03  0.41800000000E+01 0. -1.
         -5    1    3    3    0  502 -0.20348046756E+02 -0.69878426578E+02  0.38898691572E+02  0.82629402235E+02  0.41800000000E+01 0. -1.
        -11    1    4    4    0    0  0.13572821842E+02  0.38123052365E+02 -0.21012457650E+02  0.45597280521E+02  0.00000000000E+00 0.  1.
         11    1    4    4    0    0  0.23450543176E+02 -0.11767778489E+02  0.53897142103E+02  0.59944228352E+02  0.00000000000E+00 0. -1.
</event>
<event>
 8    1  0.7192024E-009  0.8570768E+02  0.7561462E-02  0.1313592E+00
          2   -1    0    0  501    0  0.00000000000E+00  0.00000000000E+00  0.86695753562E+03  0.86695753562E+03  0.00000000000E+00 0.  1.
         -2   -1    0    0    0  501 -0.00000000000E+00 -0.00000000000E+00 -0.15625619924E+02  0.15625619924E+02  0.00000000000E+00 0. -1.
         25    2    1    2    0    0  0.58593186485E+01  0.27844769337E+02  0.61133017149E+03  0.62464484184E+03  0.12508771746E+03 0.  0.
         23    2    1    2    0    0 -0.58593186485E+01 -0.27844769337E+02  0.24000174420E+03  0.25793831370E+03  0.90120328805E+02 0.  0.
          5    1    3    3  502    0 -0.34046703128E+02 -0.13000967263E+02  0.47970507305E+03  0.48110563565E+03  0.41800000000E+01 0.  1.
         -5    1    3    3    0  502  0.39906021777E+02  0.40845736599E+02  0.13162509844E+03  0.14353920619E+03  0.41800000000E+01 0.  1.
        -11    1    4    4    0    0  0.10516284777E+02  0.22337171980E+02  0.20237042671E+02  0.31923022940E+02  0.00000000000E+00 0. -1.
         11    1    4    4    0    0 -0.16375603426E+02 -0.50181941316E+02  0.21976470153E+03  0.22601529076E+03  0.00000000000E+00 0.  1.
</event>
<event>
 8    1  0.7192024E-009  0.1396440E+03  0.7561462E-02  0.1213809E+00
         -2   -1    0    0    0  501 -0.00000000000E+00  0.00000000000E+00  0.21521352589E+02  0.21521352589E+02  0.00000000000E+00 0. -1.
          2   -1    0    0  501    0  0.00000000000E+00 -0.00000000000E+00 -0.93803998091E+03  0.93803998091E+03  0.00000000000E+00 0.  1.
         25    2    1    2    0    0 -0.79897414365E+02 -0.37406005994E+02 -0.58441653646E+03  0.60413017337E+03  0.12509105557E+03 0.  0.
         23    2    1    2    0    0  0.79897414365E+02  0.37406005994E+02 -0.33210209186E+03  0.35543116013E+03  0.90866407793E+02 0.  0.
          5    1    3    3  502    0 -0.22486072204E+01  0.41671502515E+02 -0.14616788516E+03  0.15206608237E+03  0.41800000000E+01 0.  1.
         -5    1    3    3    0  502 -0.77648807145E+02 -0.79077508509E+02 -0.43824865130E+03  0.45206409100E+03  0.41800000000E+01 0.  1.
        -11    1    4    4    0    0 -0.11083743793E+02 -0.17103435180E+02 -0.46438387935E+02  0.50713910768E+02  0.00000000000E+00 0.  1.
         11    1    4    4    0    0  0.90981158158E+02  0.54509441174E+02 -0.28566370392E+03  0.30471724936E+03  0.00000000000E+00 0. -1.
</event>
<event>
 8    1  0.7192024E-009  0.1817284E+03  0.7561462E-02  0.1166141E+00
          2   -1    0    0  501    0  0.00000000000E+00  0.00000000000E+00  0.57333308600E+03  0.57333308600E+03  0.00000000000E+00 0. -1.
         -2   -1    0    0    0  501 -0.00000000000E+00 -0.00000000000E+00 -0.71755095677E+02  0.71755095677E+02  0.00000000000E+00 0.  1.
         25    2    1    2    0    0 -0.36118244817E+02  0.15420854639E+03  0.36796594681E+03  0.41967916032E+03  0.12508739429E+03 0.  0.
         23    2    1    2    0    0  0.36118244817E+02 -0.15420854639E+03  0.13361204352E+03  0.22540902136E+03  0.88725674685E+02 0.  0.
          5    1    3    3  502    0 -0.20749967433E+02 -0.73596789234E+01  0.63526075034E+01  0.23292789537E+02  0.41800000000E+01 0. -1.
         -5    1    3    3    0  502 -0.15368277384E+02  0.16156822531E+03  0.36161333930E+03  0.39638637078E+03  0.41800000000E+01 0. -1.
        -11    1    4    4    0    0  0.49246579581E+02 -0.15761769620E+03  0.13264742513E+03  0.21181100809E+03  0.00000000000E+00 0. -1.
         11    1    4    4    0    0 -0.13128334764E+02  0.34091498088E+01  0.96461838345E+00  0.13598013263E+02  0.00000000000E+00 0.  1.
</event>
<event>
 8    1  0.7192024E-009  0.9035066E+02  0.7561462E-02  0.1302005E+00
          1   -1    0    0  501    0  0.00000000000E+00  0.00000000000E+00  0.16664790799E+03  0.16664790799E+03  0.00000000000E+00 0. -1.
         -1   -1    0    0    0  501 -0.00000000000E+00 -0.00000000000E+00 -0.83052646754E+02  0.83052646754E+02  0.00000000000E+00 0.  1.
         25    2    1    2    0    0 -0.48688814635E+01  0.44754218986E+02  0.49987749794E+02  0.14202680607E+03  0.12508474083E+03 0.  0.
         23    2    1    2    0    0  0.48688814635E+01 -0.44754218986E+02  0.33607511438E+02  0.10767374867E+03  0.91856002548E+02 0.  0.
          5    1    3    3  502    0 -0.13094410851E+01 -0.25434015097E+02  0.65092367984E+02  0.70022086014E+02  0.41800000000E+01 0. -1.
         -5    1    3    3    0  502 -0.35594403784E+01  0.70188234083E+02 -0.15104618190E+02  0.72004720055E+02  0.41800000000E+01 0. -1.
        -11    1    4    4    0    0  0.30393949446E+02  0.27958874608E+01 -0.15919498986E+02  0.34424404100E+02  0.00000000000E+00 0.  1.
         11    1    4    4    0    0 -0.25525067983E+02 -0.47550106447E+02  0.49527010424E+02  0.73249344571E+02  0.00000000000E+00 0. -1.
</event>
<event>
 8    1  0.7192024E-009  0.1346823E+03  0.7561462E-02  0.1220669E+00
         -3   -1    0    0    0  501 -0.00000000000E+00  0.00000000000E+00  0.54160331735E+02  0.54160331735E+02  0.00000000000E+00 0.  1.
          3   -1    0    0  501    0  0.00000000000E+00 -0.00000000000E+00 -0.43876693025E+03  0.43876693025E+03  0.00000000000E+00 0. -1.
         25    2    1    2    0    0  0.49446971970E+02 -0.75163047858E+02 -0.10829022706E+03  0.18833085232E+03  0.12508896777E+03 0.  0.
         23    2    1    2    0    0 -0.49446971970E+02  0.75163047858E+02 -0.27631637146E+03  0.30459640967E+03  0.91289368754E+02 0.  0.
          5    1    3    3  502    0 -0.17921367941E+02  0.23604412165E+02 -0.51320778536E+01  0.30366994017E+02  0.41800000000E+01 0.  1.
         -5    1    3    3    0  502  0.67368339911E+02 -0.98767460023E+02 -0.10315814921E+03  0.15796385830E+03  0.41800000000E+01 0.  1.
        -11    1    4    4    0    0  0.19918942295E+02  0.37861440378E+01 -0.15769554721E+02  0.25686144221E+02  0.00000000000E+00 0.  1.
         11    1    4    4    0    0 -0.69365914265E+02  0.71376903820E+02 -0.26054681674E+03  0.27891026545E+03  0.00000000000E+00 0. -1.
</event>
<event>
 8    1  0.7192024E-009  0.9685627E+02  0.7561462E-02  0.1287049E+00
          1   -1    0    0  501    0  0.00000000000E+00  0.00000000000E+00  0.10990324711E+04  0.10990324711E+04  0.00000000000E+00 0. -1.
         -1   -1    0    0    0  501 -0.00000000000E+00 -0.00000000000E+00 -0.15976569736E+02  0.15976569736E+02  0.00000000000E+00 0.  1.
         25    2    1    2    0    0 -0.19312418521E+02 -0.23927813624E+02  0.86684181848E+03  0.87635870198E+03  0.12507728212E+03 0.  0.
         23    2    1    2    0    0  0.19312418521E+02  0.23927813624E+02  0.21621408292E+03  0.23865033889E+03  0.96228607102E+02 0.  0.
          5    1    3    3  502    0 -0.14743130462E+02  0.32788161775E+02  0.84312966620E+02  0.91752777553E+02  0.41800000000E+01 0.  1.
         -5    1    3    3    0  502 -0.45692880582E+01 -0.56715975399E+02  0.78252885186E+03  0.78460592443E+03  0.41800000000E+01 0.  1.
        -11    1    4    4    0    0  0.58194138724E+02  0.93405756527E+01  0.13894114400E+03  0.15092529818E+03  0.00000000000E+00 0.  1.
         11    1    4    4    0    0 -0.38881720204E+02  0.14587237971E+02  0.77272938923E+02  0.87725040709E+02  0.00000000000E+00 0. -1.
</event>
<event>
 8    1  0.7192024E-009  0.7631503E+02  0.7561462E-02  0.1339846E+00
         -2   -1    0    0    0  501 -0.00000000000E+00  0.00000000000E+00  0.28969033392E+03  0.28969033392E+03  0.00000000000E+00 0.  1.
          2   -1    0    0  501    0  0.00000000000E+00 -0.00000000000E+00 -0.45218339638E+02  0.45218339638E+02  0.00000000000E+00 0. -1.
         25    2    1    2    0    0  0.23525070338E+02  0.87165203940E+01  0.14071520397E+03  0.18994211917E+03  0.12509130004E+03 0.  0.
         23    2    1    2    0    0 -0.23525070338E+02 -0.87165203940E+01  0.10375679032E+03  0.14496655439E+03  0.98083758557E+02 0.  0.
          5    1    3    3  502    0  0.39743245374E+02  0.38846501739E+01 -0.73809822811E+01  0.40823612766E+02  0.41800000000E+01 0.  1.
         -5    1    3    3    0  502 -0.16218175036E+02  0.48318702202E+01  0.14809618625E+03  0.14911850641E+03  0.41800000000E+01 0.  1.
        -11    1    4    4    0    0  0.36754987523E+01  0.39509421168E+02  0.19669957753E+02  0.44287818755E+02  0.00000000000E+00 0. -1.
         11    1    4    4    0    0 -0.27200569090E+02 -0.48225941562E+02  0.84086832564E+02  0.10067873563E+03  0.00000000000E+00 0.  1.
</event>
<event>
 8    1  0.7192024E-009  0.8946653E+02  0.7561462E-02  0.1304149E+00
         -2   -1    0    0    0  501 -0.00000000000E+00  0.00000000000E+00  0.67049044400E+02  0.67049044400E+02  0.00000000000E+00 0.  1.
          2   -1    0    0  501    0  0.00000000000E+00 -0.00000000000E+00 -0.25450226492E+03  0.25450226492E+03  0.00000000000E+00 0. -1.
         25    2    1    2    0    0 -0.19038304479E+02  0.18254444233E+02 -0.18260726230E+03  0.22291000954E+03  0.12509108017E+03 0.  0.
         23    2    1    2    0    0  0.19038304479E+02 -0.18254444233E+02 -0.48459582220E+01  0.98641299777E+02  0.94925976102E+02 0.  0.
          5    1    3    3  502    0 -0.17525746514E+02 -0.28423671656E+02 -0.17143661932E+03  0.17470845356E+03  0.41800000000E+01 0.  1.
         -5    1    3    3    0  502 -0.15125579648E+01  0.46678115889E+02 -0.11170642977E+02  0.48201555982E+02  0.41800000000E+01 0.  1.
        -11    1    4    4    0    0  0.27336265632E+02  0.35046928334E+02  0.34595214247E+00  0.44448602759E+02  0.00000000000E+00 0.  1.
         11    1    4    4    0    0 -0.82979611530E+01 -0.53301372567E+02 -0.51919103644E+01  0.54192697017E+02  0.00000000000E+00 0. -1.
</event>
<event>
 8    1  0.7192024E-009  0.1474395E+03  0.7561462E-02  0.1203655E+00
          2   -1    0    0  501    0  0.00000000000E+00  0.00000000000E+00  0.12380310561E+04  0.12380310561E+04  0.00000000000E+00 0. -1.
         -2   -1    0    0    0  501 -0.00000000000E+00 -0.00000000000E+00 -0.24662835884E+02  0.24662835884E+02  0.00000000000E+00 0.  1.
         25    2    1    2    0    0  0.13402254613E+03  0.26939206450E+02  0.65403614818E+03  0.67977740542E+03  0.12508506737E+03 0.  0.
         23    2    1    2    0    0 -0.13402254613E+03 -0.26939206450E+02  0.55933207203E+03  0.58291648656E+03  0.90837766284E+02 0.  0.
          5    1    3    3  502    0  0.15577762990E+02  0.22128072709E+02  0.17984972311E+02  0.32760493443E+02  0.41800000000E+01 0.  1.
         -5    1    3    3    0  502  0.11844478314E+03  0.48111337400E+01  0.63605117587E+03  0.64701691198E+03  0.41800000000E+01 0.  1.
        -11    1    4    4    0    0 -0.12927131295E+03 -0.81808701763E+01  0.54089646492E+03  0.55618970213E+03  0.00000000000E+00 0.  1.
         11    1    4    4    0    0 -0.47512331782E+01 -0.18758336273E+02  0.18435607109E+02  0.26726784429E+02  0.00000000000E+00 0. -1.
</event>
<event>
 8    1  0.7192024E-009  0.1037662E+03  0.7561462E-02  0.1272570E+00
         -1   -1    0    0    0  501 -0.00000000000E+00  0.00000000000E+00  0.42213873462E+02  0.42213873462E+02  0.00000000000E+00 0.  1.
          1   -1    0    0  501    0  0.00000000000E+00 -0.00000000000E+00 -0.29045285274E+03  0.29045285274E+03  0.00000000000E+00 0. -1.
         25    2    1    2    0    0  0.22874906939E+02 -0.35360494582E+01 -0.13669356709E+03  0.18673205099E+03  0.12509181656E+03 0.  0.
         23    2    1    2    0    0 -0.22874906939E+02  0.35360494582E+01 -0.11154541219E+03  0.14593467521E+03  0.91207375998E+02 0.  0.
          5    1    3    3  502    0  0.40277315218E+02 -0.56982915445E+02 -0.86867708558E+02  0.11150240340E+03  0.41800000000E+01 0.  1.
         -5    1    3    3    0  502 -0.17402408279E+02  0.53446865987E+02 -0.49825858532E+02  0.75229647588E+02  0.41800000000E+01 0.  1.
        -11    1    4    4    0    0 -0.45857589751E+02  0.22856717822E+02 -0.10247307318E+03  0.11456910061E+03  0.00000000000E+00 0. -1.
         11    1    4    4    0    0  0.22982682812E+02 -0.19320668364E+02 -0.90723390097E+01  0.31365574606E+02  0.00000000000E+00 0.  1.
</event>
<event>
 8    1  0.7192024E-009  0.1476726E+03  0.7561462E-02  0.1203362E+00
          2   -1    0    0  501    0  0.00000000000E+00  0.00000000000E+00  0.12708608891E+03  0.12708608891E+03  0.00000000000E+00 0.  1.
         -2   -1    0    0    0  501 -0.00000000000E+00 -0.00000000000E+00 -0.18426014811E+03  0.18426014811E+03  0.00000000000E+00 0. -1.
         25    2    1    2    0    0  0.39599415887E+02  0.10187175199E+03 -0.53363512392E+02  0.17446238723E+03  0.12507394817E+03 0.  0.
         23    2    1    2    0    0 -0.39599415887E+02 -0.10187175199E+03 -0.38105467997E+01  0.13688384979E+03  0.82320717155E+02 0.  0.
          5    1    3    3  502    0  0.76918016553E+02  0.91585269238E+02 -0.61703076842E+02  0.13464391893E+03  0.41800000000E+01 0. -1.
         -5    1    3    3    0  502 -0.37318600666E+02  0.10286482756E+02  0.83395644504E+01  0.39818468308E+02  0.41800000000E+01 0. -1.
        -11    1    4    4    0    0 -0.64391809255E+02 -0.85463240502E+02 -0.88310594526E+00  0.10700958112E+03  0.00000000000E+00 0. -1.
         11    1    4    4    0    0  0.24792393367E+02 -0.16408511492E+02 -0.29274408544E+01  0.29874268664E+02  0.00000000000E+00 0.  1.
</event>
<event>
 8    1  0.7192024E-009  0.1370482E+03  0.7561462E-02  0.1217357E+00
         -2   -1    0    0    0  501 -0.00000000000E+00  0.00000000000E+00  0.12113754794E+03  0.12113754794E+03  0.00000000000E+00 0.  1.
          2   -1    0    0  501    0  0.00000000000E+00 -0.00000000000E+00 -0.21902601420E+03  0.21902601420E+03  0.00000000000E+00 0. -1.
         25    2    1    2    0    0 -0.98643795279E+02 -0.22789223980E+02 -0.12164484590E+03  0.20172980226E+03  0.12508995767E+03 0.  0.
         23    2    1    2    0    0  0.98643795279E+02  0.22789223980E+02  0.23756379637E+02  0.13843375988E+03  0.91376108601E+02 0.  0.
          5    1    3    3  502    0 -0.12061773933E+03 -0.23455343262E+02 -0.12896955323E+03  0.17818364186E+03  0.41800000000E+01 0.  1.
         -5    1    3    3    0  502  0.21973944049E+02  0.66611928232E+00  0.73247073308E+01  0.23546160397E+02  0.41800000000E+01 0.  1.
        -11    1    4    4    0    0  0.36916793628E+02 -0.29983955353E+02  0.31203711654E+02  0.56881972992E+02  0.00000000000E+00 0. -1.
         11    1    4    4    0    0  0.61727001651E+02  0.52773179333E+02 -0.74473320170E+01  0.81551786883E+02  0.00000000000E+00 0.  1.
</event>
<event>
 8    1  0.7192024E-009  0.1062822E+03  0.7561462E-02  0.1267614E+00
         -1   -1    0    0    0  501 -0.00000000000E+00  0.00000000000E+00  0.14939216909E+02  0.14939216909E+02  0.00000000000E+00 0.  1.
          1   -1    0    0  501    0  0.00000000000E+00 -0.00000000000E+00 -0.14361435426E+04  0.14361435426E+04  0.00000000000E+00 0. -1.
         25    2    1    2    0    0 -0.89020493326E+02  0.22531326835E+02 -0.91171030088E+03  0.92482213978E+03  0.12509200045E+03 0.  0.
         23    2    1    2    0    0  0.89020493326E+02 -0.22531326835E+02 -0.50949402483E+03  0.52626061974E+03  0.94518620595E+02 0.  0.
          5    1    3    3  502    0 -0.60084734199E+02  0.23086196327E+02 -0.15957407270E+03  0.17211770630E+03  0.41800000000E+01 0. -1.
         -5    1    3    3    0  502 -0.28935759127E+02 -0.55486949230E+00 -0.75213622819E+03  0.75270443349E+03  0.41800000000E+01 0. -1.
        -11    1    4    4    0    0  0.21697499063E+02 -0.43244729993E+02 -0.10411697221E+03  0.11480954682E+03  0.00000000000E+00 0.  1.
         11    1    4    4    0    0  0.67322994263E+02  0.20713403158E+02 -0.40537705261E+03  0.41145107293E+03  0.00000000000E+00 0. -1.
</event>
<event>
 8    1  0.7192024E-009  0.1754242E+03  0.7561462E-02  0.1172306E+00
          1   -1    0    0  501    0  0.00000000000E+00  0.00000000000E+00  0.24320567907E+03  0.24320567907E+03  0.00000000000E+00 0. -1.
         -1   -1    0    0    0  501 -0.00000000000E+00 -0.00000000000E+00 -0.15453677375E+03  0.15453677375E+03  0.00000000000E+00 0.  1.
         25    2    1    2    0    0  0.66357265577E+02 -0.14170387362E+03  0.83109501817E+02  0.21688477088E+03  0.12509412477E+03 0.  0.
         23    2    1    2    0    0 -0.66357265577E+02  0.14170387362E+03  0.55594034951E+01  0.18085768195E+03  0.90528004827E+02 0.  0.
          5    1    3    3  502    0 -0.92624750605E+01 -0.75157711100E+02 -0.13749900030E+02  0.77077928960E+02  0.41800000000E+01 0.  1.
         -5    1    3    3    0  502  0.75619740637E+02 -0.66546162520E+02  0.96859401846E+02  0.13980684192E+03  0.41800000000E+01 0.  1.
        -11    1    4    4    0    0  0.41698696708E+01  0.81080597020E+02 -0.21524979631E+02  0.83992712626E+02  0.00000000000E+00 0.  1.
         11    1    4    4    0    0 -0.70527135248E+02  0.60623276600E+02  0.27084383127E+02  0.96864969320E+02  0.00000000000E+00 0. -1.
</event>
<event>
 8    1  0.7192024E-009  0.1176596E+03  0.7561462E-02  0.1247009E+00
          1   -1    0    0  501    0  0.00000000000E+00  0.00000000000E+00  0.34610878814E+03  0.34610878814E+03  0.00000000000E+00 0. -1.
         -1   -1    0    0    0  501 -0.00000000000E+00 -0.00000000000E+00 -0.54284929887E+02  0.54284929887E+02  0.00000000000E+00 0.  1.
         25    2    1    2    0    0 -0.75745123210E+02  0.32568244441E+02  0.13510058074E+03  0.20173626933E+03  0.12508933291E+03 0.  0.
         23    2    1    2    0    0  0.75745123210E+02 -0.32568244441E+02  0.15672327751E+03  0.19865744870E+03  0.90025451814E+02 0.  0.
          5    1    3    3  502    0 -0.35381007818E+02 -0.42571794553E+02  0.21303360356E+02  0.59459893779E+02  0.41800000000E+01 0. -1.
         -5    1    3    3    0  502 -0.40364115392E+02  0.75140038994E+02  0.11379722039E+03  0.14227637555E+03  0.41800000000E+01 0. -1.
        -11    1    4    4    0    0  0.50430324241E+02  0.32648328156E+01  0.14454636640E+03  0.15312585926E+03  0.00000000000E+00 0. -1.
         11    1    4    4    0    0  0.25314798969E+02 -0.35833077256E+02  0.12176911115E+02  0.45531589439E+02  0.00000000000E+00 0.  1.
</event>
<event>
 8    1  0.7192024E-009  0.1166221E+03  0.7561462E-02  0.1248776E+00
          2   -1    0    0  501    0  0.00000000000E+00  0.00000000000E+00  0.44765834136E+03  0.44765834136E+03  0.00000000000E+00 0. -1.
         -2   -1    0    0    0  501 -0.00000000000E+00 -0.00000000000E+00 -0.51312906451E+02  0.51312906451E+02  0.00000000000E+00 0.  1.
         25    2    1    2    0    0 -0.20520124642E+02 -0.87317699141E+02  0.12209186560E+03  0.19646977989E+03  0.12509394337E+03 0.  0.
         23    2    1    2    0    0  0.20520124642E+02  0.87317699141E+02  0.27425356931E+03  0.30250146792E+03  0.90811132108E+02 0.  0.
          5    1    3    3  502    0 -0.58064404172E+02 -0.72194069107E+02  0.12503204038E+03  0.15567254790E+03  0.41800000000E+01 0.  1.
         -5    1    3    3    0  502  0.37544279530E+02 -0.15123630034E+02 -0.29401747852E+01  0.40797231997E+02  0.41800000000E+01 0.  1.
        -11    1    4    4    0    0  0.22349942315E+02  0.13791099925E+02  0.98336584939E+01  0.28043095371E+02  0.00000000000E+00 0.  1.
         11    1    4    4    0    0 -0.18298176730E+01  0.73526599216E+02  0.26441991082E+03  0.27445837255E+03  0.00000000000E+00 0. -1.
</event>
<event>
 8    1  0.7192024E-009  0.7715076E+02  0.7561462E-02  0.1337337E+00
          1   -1    0    0  501    0  0.00000000000E+00  0.00000000000E+00  0.32545865931E+03  0.32545865931E+03  0.00000000000E+00 0. -1.
         -1   -1    0    0    0  501 -0.00000000000E+00 -0.00000000000E+00 -0.57749517730E+02  0.57749517730E+02  0.00000000000E+00 0.  1.
         25    2    1    2    0    0  0.63937022951E+02 -0.21142822844E+02  0.21494536719E+03  0.25764970052E+03  0.12508755110E+03 0.  0.
         23    2    1    2    0    0 -0.63937022951E+02  0.21142822844E+02  0.52763774390E+02  0.12555847652E+03  0.91901867639E+02 0.  0.
          5    1    3    3  502    0  0.64724144755E+02 -0.93320080104E+01  0.22935902043E+03  0.23853581270E+03  0.41800000000E+01 0. -1.
         -5    1    3    3    0  502 -0.78712180328E+00 -0.11810814833E+02 -0.14413653244E+02  0.19113887820E+02  0.41800000000E+01 0. -1.
        -11    1    4    4    0    0 -0.46521964545E+02 -0.28099255446E+01  0.75153955458E+02  0.88432493393E+02  0.00000000000E+00 0. -1.
         11    1    4    4    0    0 -0.17415058406E+02  0.23952748388E+02 -0.22390181068E+02  0.37125983124E+02  0.00000000000E+00 0.  1.
</event>
<event>
 8    1  0.7192024E-009  0.1133241E+03  0.7561462E-02  0.1254535E+00
          1   -1    0    0  501    0  0.00000000000E+00  0.00000000000E+00  0.10455095630E+04  0.10455095630E+04  0.00000000000E+00 0. -1.
         -1   -1    0    0    0  501 -0.00000000000E+00 -0.00000000000E+00 -0.17756054304E+02  0.17756054304E+02  0.00000000000E+00 0.  1.
         25    2    1    2    0    0 -0.67821129711E+02 -0.29878653095E+02  0.68771046090E+03  0.70291142123E+03  0.12508536491E+03 0.  0.
         23    2    1    2    0    0  0.67821129711E+02  0.29878653095E+02  0.34004304781E+03  0.36035419609E+03  0.93452836927E+02 0.  0.
          5    1    3    3  502    0 -0.33645526359E+02  0.42182731272E+02  0.42205950040E+03  0.42551509790E+03  0.41800000000E+01 0.  1.
         -5    1    3    3    0  502 -0.34175603352E+02 -0.72061384368E+02  0.26565096050E+03  0.27739632332E+03  0.41800000000E+01 0.  1.
        -11    1    4    4    0    0  0.72665843308E+02  0.11391251848E+02  0.33124796257E+03  0.33931592669E+03  0.00000000000E+00 0. -1.
         11    1    4    4    0    0 -0.48447135967E+01  0.18487401248E+02  0.87950852389E+01  0.21038269394E+02  0.00000000000E+00 0.  1.
</event>
<event>
 8    1  0.7192024E-009  0.1236685E+03  0.7561462E-02  0.1237165E+00
          1   -1    0    0  501    0  0.00000000000E+00  0.00000000000E+00  0.94145578559E+03  0.94145578559E+03  0.00000000000E+00 0. -1.
         -1   -1    0    0    0  501 -0.00000000000E+00 -0.00000000000E+00 -0.36989274183E+02  0.36989274183E+02  0.00000000000E+00 0.  1.
         25    2    1    2    0    0 -0.61927532789E+02 -0.62324271465E+02  0.80104063975E+03  0.81549545815E+03  0.12508957437E+03 0.  0.
         23    2    1    2    0    0  0.61927532789E+02  0.62324271465E+02  0.10342587166E+03  0.16294960162E+03  0.90201594263E+02 0.  0.
          5    1    3    3  502    0  0.32710454232E+02  0.76352694987E+01  0.22594370956E+03  0.22846510334E+03  0.41800000000E+01 0. -1.
         -5    1    3    3    0  502 -0.94637987021E+02 -0.69959540964E+02  0.57509693019E+03  0.58703035481E+03  0.41800000000E+01 0. -1.
        -11    1    4    4    0    0  0.35331778250E+02  0.59206071628E+02  0.11475431496E+03  0.13387399402E+03  0.00000000000E+00 0. -1.
         11    1    4    4    0    0  0.26595754539E+02  0.31181998376E+01 -0.11328443300E+02  0.29075607601E+02  0.00000000000E+00 0.  1.
</event>
<event>
 8    1  0.7192024E-009  0.1781592E+03  0.7561462E-02  0.1169597E+00
          1   -1    0    0  501    0  0.00000000000E+00  0.00000000000E+00  0.53179339130E+03  0.53179339130E+03  0.00000000000E+00 0. -1.
         -1   -1    0    0    0  501 -0.00000000000E+00 -0.00000000000E+00 -0.80889700233E+02  0.80889700233E+02  0.00000000000E+00 0.  1.
         25    2    1    2    0    0  0.14407213124E+03 -0.38062421437E+02  0.37555740285E+03  0.42296012309E+03  0.12508547463E+03 0.  0.
         23    2    1    2    0    0 -0.14407213124E+03  0.38062421437E+02  0.75346288215E+02  0.18972296844E+03  0.90067833784E+02 0.  0.
          5    1    3    3  502    0  0.16971303540E+02 -0.52517805855E+02  0.18736563104E+03  0.19537015424E+03  0.41800000000E+01 0.  1.
         -5    1    3    3    0  502  0.12710082770E+03  0.14455384417E+02  0.18819177181E+03  0.22758996884E+03  0.41800000000E+01 0.  1.
        -11    1    4    4    0    0 -0.46844782641E+02  0.57151183943E+02  0.42982238830E+02  0.85487802298E+02  0.00000000000E+00 0. -1.
         11    1    4    4    0    0 -0.97227348595E+02 -0.19088762506E+02  0.32364049385E+02  0.10423516615E+03  0.00000000000E+00 0.  1.
</event>
<event>
 8    1  0.7192024E-009  0.1488497E+03  0.7561462E-02  0.1201894E+00
         -2   -1    0    0    0  501 -0.00000000000E+00  0.00000000000E+00  0.21085020461E+02  0.21085020461E+02  0.00000000000E+00 0.  1.
          2   -1    0    0  501    0  0.00000000000E+00 -0.00000000000E+00 -0.13271071853E+04  0.13271071853E+04  0.00000000000E+00 0. -1.
         25    2    1    2    0    0 -0.65156729160E+02  0.10734364023E+03 -0.78715983604E+03  0.80686824939E+03  0.12509079878E+03 0.  0.
         23    2    1    2    0    0  0.65156729160E+02 -0.10734364023E+03 -0.51886232876E+03  0.54132395633E+03  0.89696449457E+02 0.  0.
          5    1    3    3  502    0  0.56029436373E+01  0.65768370911E+02 -0.58377138958E+03  0.58750606745E+03  0.41800000000E+01 0. -1.
         -5    1    3    3    0  502 -0.70759672797E+02  0.41575269317E+02 -0.20338844646E+03  0.21936218194E+03  0.41800000000E+01 0. -1.
        -11    1    4    4    0    0 -0.35260000049E+00 -0.77323549925E+02 -0.33583771344E+03  0.34462447021E+03  0.00000000000E+00 0.  1.
         11    1    4    4    0    0  0.65509329161E+02 -0.30020090303E+02 -0.18302461532E+03  0.19669948612E+03  0.00000000000E+00 0. -1.
</event>
<event>
 8    1  0.7192024E-009  0.2103451E+03  0.7561462E-02  0.1141293E+00
         -2   -1    0    0    0  501 -0.00000000000E+00  0.00000000000E+00  0.22079123633E+03  0.22079123633E+03  0.00000000000E+00 0.  1.
          2   -1    0    0  501    0  0.00000000000E+00 -0.00000000000E+00 -0.52991901244E+03  0.52991901244E+03  0.00000000000E+00 0. -1.
         25    2    1    2    0    0 -0.15717990031E+03  0.12822231976E+03 -0.43440835740E+03  0.49548397794E+03  0.12508903659E+03 0.  0.
         23    2    1    2    0    0  0.15717990031E+03 -0.12822231976E+03  0.12528058129E+03  0.25522627083E+03  0.91097425473E+02 0.  0.
          5    1    3    3  502    0 -0.37017338673E+02  0.28772762117E+02 -0.24782495123E+03  0.25225549361E+03  0.41800000000E+01 0. -1.
         -5    1    3    3    0  502 -0.12016256164E+03  0.99449557647E+02 -0.18658340616E+03  0.24322848433E+03  0.41800000000E+01 0. -1.
        -11    1    4    4    0    0  0.13132489797E+03 -0.59528278735E+02  0.10709484907E+03  0.17960832802E+03  0.00000000000E+00 0.  1.
         11    1    4    4    0    0  0.25855002338E+02 -0.68694041029E+02  0.18185732217E+02  0.75617942812E+02  0.00000000000E+00 0. -1.
</event>
<event>
 8    1  0.7192024E-009  0.7815841E+02  0.7561462E-02  0.1334360E+00
          1   -1    0    0  501    0  0.00000000000E+00  0.00000000000E+00  0.12044608985E+03  0.12044608985E+03  0.00000000000E+00 0. -1.
         -1   -1    0    0    0  501 -0.00000000000E+00 -0.00000000000E+00 -0.19934087666E+03  0.19934087666E+03  0.00000000000E+00 0.  1.
         25    2    1    2    0    0  0.22317914416E+02  0.42067228754E+02 -0.14501768890E+03  0.19734553430E+03  0.12508952306E+03 0.  0.
         23    2    1    2    0    0 -0.22317914416E+02 -0.42067228754E+02  0.66122902086E+02  0.12244143220E+03  0.91388867489E+02 0.  0.
          5    1    3    3  502    0 -0.14935793792E+02 -0.21328362739E+02  0.79729112006E+01  0.27550257827E+02  0.41800000000E+01 0.  1.
         -5    1    3    3    0  502  0.37253708208E+02  0.63395591494E+02 -0.15299060010E+03  0.16979527648E+03  0.41800000000E+01 0.  1.
        -11    1    4    4    0    0 -0.25479478903E+02 -0.16107380311E+02 -0.17478864260E+02  0.34844830914E+02  0.00000000000E+00 0.  1.
         11    1    4    4    0    0  0.31615644863E+01 -0.25959848444E+02  0.83601766347E+02  0.87596601290E+02  0.00000000000E+00 0. -1.
</event>
<event>
 8    1  0.7192024E-009  0.2391947E+03  0.7561462E-02  0.1120330E+00
          1   -1    0    0  501    0  0.00000000000E+00  0.00000000000E+00  0.80703090195E+03  0.80703090195E+03  0.00000000000E+00 0. -1.
         -1   -1    0    0    0  501 -0.00000000000E+00 -0.00000000000E+00 -0.84114141008E+02  0.84114141008E+02  0.00000000000E+00 0.  1.
         25    2    1    2    0    0  0.36516045853E+02 -0.23069906183E+03  0.30565559506E+03  0.40451022631E+03  0.12509077369E+03 0.  0.
         23    2    1    2    0    0 -0.36516045853E+02  0.23069906183E+03  0.41726116588E+03  0.48663481665E+03  0.90283362164E+02 0.  0.
          5    1    3    3  502    0  0.34585831921E+02 -0.90671955328E+02  0.41761337490E+02  0.10573109742E+03  0.41800000000E+01 0. -1.
         -5    1    3    3    0  502  0.19302139327E+01 -0.14002710651E+03  0.26389425757E+03  0.29877912889E+03  0.41800000000E+01 0. -1.
        -11    1    4    4    0    0  0.11580539621E+02  0.11869127809E+03  0.14095678342E+03  0.18463624559E+03  0.00000000000E+00 0.  1.
         11    1    4    4    0    0 -0.48096585475E+02  0.11200778374E+03  0.27630438247E+03  0.30199857106E+03  0.00000000000E+00 0. -1.
</event>
<event>
 8    1  0.7192024E-009  0.2556098E+03  0.7561462E-02  0.1109810E+00
         -1   -1    0    0    0  501 -0.00000000000E+00  0.00000000000E+00  0.23290452365E+03  0.23290452365E+03  0.00000000000E+00 0.  1.
          1   -1    0    0  501    0  0.00000000000E+00 -0.00000000000E+00 -0.34677615714E+03  0.34677615714E+03  0.00000000000E+00 0. -1.
         25    2    1    2    0    0 -0.15545042959E+03  0.20216449764E+03  0.38863964053E+01  0.28407390027E+03  0.12509019374E+03 0.  0.
         23    2    1    2    0    0  0.15545042959E+03 -0.20216449764E+03 -0.11775802989E+03  0.29560678052E+03  0.92092860311E+02 0.  0.
          5    1    3    3  502    0 -0.62099314356E+02  0.64549919646E+02 -0.57776338094E+02  0.10667049551E+03  0.41800000000E+01 0.  1.
         -5    1    3    3    0  502 -0.93351115230E+02  0.13761457800E+03  0.61662734500E+02  0.17740340475E+03  0.41800000000E+01 0.  1.
        -11    1    4    4    0    0  0.67704909922E+02 -0.96072284566E+02 -0.10453970560E+03  0.15729713518E+03  0.00000000000E+00 0. -1.
         11    1    4    4    0    0  0.87745519663E+02 -0.10609221308E+03 -0.13218324290E+02  0.13830964534E+03  0.00000000000E+00 0.  1.
</event>
<event>
 8    1  0.7192024E-009  0.2430738E+03  0.7561462E-02  0.1117762E+00
         -1   -1    0    0    0  501 -0.00000000000E+00  0.00000000000E+00  0.14570617683E+03  0.14570617683E+03  0.00000000000E+00 0.  1.
          1   -1    0    0  501    0  0.00000000000E+00 -0.00000000000E+00 -0.43667303739E+03  0.43667303739E+03  0.00000000000E+00 0. -1.
         25    2    1    2    0    0  0.19938439893E+03 -0.10678373581E+03 -0.17578226954E+03  0.31257758571E+03  0.12509370900E+03 0.  0.
         23    2    1    2    0    0 -0.19938439893E+03  0.10678373581E+03 -0.11518459103E+03  0.26980162851E+03  0.91479636891E+02 0.  0.
          5    1    3    3  502    0  0.17040378922E+03 -0.42684303060E+02 -0.78506342195E+02  0.19245809745E+03  0.41800000000E+01 0. -1.
         -5    1    3    3    0  502  0.28980609705E+02 -0.64099432755E+02 -0.97275927346E+02  0.12011948826E+03  0.41800000000E+01 0. -1.
        -11    1    4    4    0    0 -0.96295951313E+01  0.36269326213E+02 -0.37278262723E+02  0.52894820144E+02  0.00000000000E+00 0. -1.
         11    1    4    4    0    0 -0.18975480380E+03  0.70514409601E+02 -0.77906328303E+02  0.21690680837E+03  0.00000000000E+00 0.  1.
</event>
<event>
 8    1  0.7192024E-009  0.3233813E+03  0.7561462E-02  0.1074104E+00
         -2   -1    0    0    0  501 -0.00000000000E+00  0.00000000000E+00  0.10057381179E+03  0.10057381179E+03  0.00000000000E+00 0. -1.
          2   -1    0    0  501    0  0.00000000000E+00 -0.00000000000E+00 -0.14120037339E+04  0.14120037339E+04  0.00000000000E+00 0.  1.
         25    2    1    2    0    0 -0.28090002402E+03 -0.14182512611E+03 -0.10175048488E+04  0.10723725622E+04  0.12509038633E+03 0.  0.
         23    2    1    2    0    0  0.28090002402E+03  0.14182512611E+03 -0.29392507322E+03  0.44020498349E+03  0.91483817887E+02 0.  0.
          5    1    3    3  502    0 -0.25638851291E+03 -0.15603391212E+03 -0.82826360896E+03  0.88097657722E+03  0.41800000000E+01 0.  1.
         -5    1    3    3    0  502 -0.24511511115E+02  0.14208786010E+02 -0.18924123989E+03  0.19139598494E+03  0.41800000000E+01 0.  1.
        -11    1    4    4    0    0  0.68733792871E+02  0.13634870191E+02 -0.11433858503E+03  0.13410278145E+03  0.00000000000E+00 0.  1.
         11    1    4    4    0    0  0.21216623115E+03  0.12819025592E+03 -0.17958648819E+03  0.30610220204E+03  0.00000000000E+00 0. -1.
</event>
<event>
 8    1  0.7192024E-009  0.1062734E+03  0.7561462E-02  0.1267631E+00
          2   -1    0    0  501    0  0.00000000000E+00  0.00000000000E+00  0.19487157293E+03  0.19487157293E+03  0.00000000000E+00 0.  1.
         -2   -1    0    0    0  501 -0.00000000000E+00 -0.00000000000E+00 -0.63818931648E+02  0.63818931648E+02  0.00000000000E+00 0. -1.
         25    2    1    2    0    0 -0.47230941274E+00 -0.15913480128E+02  0.51029574576E+02  0.13603320269E+03  0.12509017877E+03 0.  0.
         23    2    1    2    0    0  0.47230941274E+00  0.15913480128E+02  0.80023066701E+02  0.12265730189E+03  0.91584172082E+02 0.  0.
          5    1    3    3  502    0 -0.39032317258E+02  0.37170524696E+02  0.44397677505E+02  0.69955670711E+02  0.41800000000E+01 0.  1.
         -5    1    3    3    0  502  0.38560007845E+02 -0.53084004824E+02  0.66318970706E+01  0.66077531975E+02  0.41800000000E+01 0.  1.
        -11    1    4    4    0    0 -0.12710190567E+02  0.52414201322E+02  0.50630399361E+02  0.73974554976E+02  0.00000000000E+00 0. -1.
         11    1    4    4    0    0  0.13182499980E+02 -0.36500721194E+02  0.29392667340E+02  0.48682746911E+02  0.00000000000E+00 0.  1.
</event>
<event>
 8    1  0.7192024E-009  0.9611244E+02  0.7561462E-02  0.1288690E+00
          2   -1    0    0  501    0  0.00000000000E+00  0.00000000000E+00  0.15914203310E+03  0.15914203310E+03  0.00000000000E+00 0. -1.
         -2   -1    0    0    0  501 -0.00000000000E+00 -0.00000000000E+00 -0.93864730023E+02  0.93864730023E+02  0.00000000000E+00 0.  1.
         25    2    1    2    0    0  0.44396181247E+02  0.35900076258E+01  0.67959034822E+02  0.14916763933E+03  0.12509454483E+03 0.  0.
         23    2    1    2    0    0 -0.44396181247E+02 -0.35900076258E+01 -0.26817317471E+01  0.10383912379E+03  0.93762801149E+02 0.  0.
          5    1    3    3  502    0  0.33266440125E+02 -0.41346663700E+02 -0.13913098756E+02  0.55020444879E+02  0.41800000000E+01 0.  1.
         -5    1    3    3    0  502  0.11129741123E+02  0.44936671326E+02  0.81872133578E+02  0.94147194456E+02  0.41800000000E+01 0.  1.
        -11    1    4    4    0    0 -0.60598584646E+02 -0.25090846396E+02 -0.23643127348E+02  0.69718982384E+02  0.00000000000E+00 0.  1.
         11    1    4    4    0    0  0.16202403398E+02  0.21500838771E+02  0.20961395601E+02  0.34120141401E+02  0.00000000000E+00 0. -1.
</event>
<event>
 8    1  0.7192024E-009  0.1040028E+03  0.7561462E-02  0.1272097E+00
         -2   -1    0    0    0  501 -0.00000000000E+00  0.00000000000E+00  0.49799960747E+02  0.49799960747E+02  0.00000000000E+00 0. -1.
          2   -1    0    0  501    0  0.00000000000E+00 -0.00000000000E+00 -0.57547189628E+03  0.57547189628E+03  0.00000000000E+00 0.  1.
         25    2    1    2    0    0 -0.46290695363E+02 -0.29731989042E+02 -0.61323606296E+02  0.14978449128E+03  0.12509192416E+03 0.  0.
         23    2    1    2    0    0  0.46290695363E+02  0.29731989042E+02 -0.46434832924E+03  0.47548736575E+03  0.86267285044E+02 0.  0.
          5    1    3    3  502    0 -0.63395693391E+02  0.81680368259E+01  0.12205869267E+02  0.65208790901E+02  0.41800000000E+01 0.  1.
         -5    1    3    3    0  502  0.17104998029E+02 -0.37900025868E+02 -0.73529475563E+02  0.84575700381E+02  0.41800000000E+01 0.  1.
        -11    1    4    4    0    0  0.63027496754E+02 -0.53850363687E+01 -0.30021706137E+03  0.30680897624E+03  0.00000000000E+00 0.  1.
         11    1    4    4    0    0 -0.16736801392E+02  0.35117025411E+02 -0.16413126786E+03  0.16867838950E+03  0.00000000000E+00 0. -1.
</event>
<event>
 8    1  0.7192024E-009  0.6784782E+02  0.7561462E-02  0.1367568E+00
         -1   -1    0    0    0  501 -0.00000000000E+00  0.00000000000E+00  0.22185185655E+03  0.22185185655E+03  0.00000000000E+00 0.  1.
          1   -1    0    0  501    0  0.00000000000E+00 -0.00000000000E+00 -0.67491301388E+02  0.67491301388E+02  0.00000000000E+00 0. -1.
         25    2    1    2    0    0  0.13927480190E+02  0.55557122759E+02  0.81225474610E+02  0.15976982331E+03  0.12509296591E+03 0.  0.
         23    2    1    2    0    0 -0.13927480190E+02 -0.55557122759E+02  0.73135080548E+02  0.12957333463E+03  0.90332388685E+02 0.  0.
          5    1    3    3  502    0  0.17840024364E+02  0.22229172683E+02 -0.31142824918E+02  0.42423466753E+02  0.41800000000E+01 0. -1.
         -5    1    3    3    0  502 -0.39125441737E+01  0.33327950076E+02  0.11236829953E+03  0.11734635656E+03  0.41800000000E+01 0. -1.
        -11    1    4    4    0    0 -0.29988051219E+02 -0.44154746793E+02  0.89338236484E+02  0.10406846486E+03  0.00000000000E+00 0.  1.
         11    1    4    4    0    0  0.16060571029E+02 -0.11402375966E+02 -0.16203155936E+02  0.25504869765E+02  0.00000000000E+00 0. -1.
</event>
<event>
 8    1  0.7192024E-009  0.1012306E+03  0.7561462E-02  0.1277729E+00
          2   -1    0    0  501    0  0.00000000000E+00  0.00000000000E+00  0.17004276848E+03  0.17004276848E+03  0.00000000000E+00 0. -1.
         -2   -1    0    0    0  501 -0.00000000000E+00 -0.00000000000E+00 -0.10354627674E+03  0.10354627674E+03  0.00000000000E+00 0.  1.
         25    2    1    2    0    0 -0.84983078730E+00 -0.50371345408E+02 -0.20309869828E+02  0.13637322840E+03  0.12508865640E+03 0.  0.
         23    2    1    2    0    0  0.84983078730E+00  0.50371345408E+02  0.86806361566E+02  0.13721581682E+03  0.93567309068E+02 0.  0.
          5    1    3    3  502    0 -0.48310413471E+02  0.18594944208E+01 -0.40108453093E+02  0.62956446682E+02  0.41800000000E+01 0.  1.
         -5    1    3    3    0  502  0.47460582684E+02 -0.52230839829E+02  0.19798583266E+02  0.73416781714E+02  0.41800000000E+01 0.  1.
        -11    1    4    4    0    0 -0.19613240059E+02 -0.81521421884E+01 -0.90253181634E+01  0.23077975991E+02  0.00000000000E+00 0.  1.
         11    1    4    4    0    0  0.20463070847E+02  0.58523487596E+02  0.95831679730E+02  0.11413784083E+03  0.00000000000E+00 0. -1.
</event>
<event>
 8    1  0.7192024E-009  0.1165891E+03  0.7561462E-02  0.1248832E+00
         -2   -1    0    0    0  501 -0.00000000000E+00  0.00000000000E+00  0.43460296777E+02  0.43460296777E+02  0.00000000000E+00 0.  1.
          2   -1    0    0  501    0  0.00000000000E+00 -0.00000000000E+00 -0.55486428625E+03  0.55486428625E+03  0.00000000000E+00 0. -1.
         25    2    1    2    0    0 -0.10226416232E+03  0.30545018130E+02 -0.32913657478E+03  0.36792781827E+03  0.12509611331E+03 0.  0.
         23    2    1    2    0    0  0.10226416232E+03 -0.30545018130E+02 -0.18226741469E+03  0.23039676476E+03  0.92034242147E+02 0.  0.
          5    1    3    3  502    0 -0.26817095067E+02  0.33597341574E+02 -0.26579413330E+03  0.26928039595E+03  0.41800000000E+01 0.  1.
         -5    1    3    3    0  502 -0.75447067254E+02 -0.30523234441E+01 -0.63342441489E+02  0.98647422316E+02  0.41800000000E+01 0.  1.
        -11    1    4    4    0    0  0.81077222481E+02 -0.50787504541E+01 -0.53105132976E+02  0.97053927586E+02  0.00000000000E+00 0.  1.
         11    1    4    4    0    0  0.21186939841E+02 -0.25466267676E+02 -0.12916228171E+03  0.13334283717E+03  0.00000000000E+00 0. -1.
</event>
<event>
 8    1  0.7192024E-009  0.9009838E+02  0.7561462E-02  0.1302614E+00
         -2   -1    0    0    0  501 -0.00000000000E+00  0.00000000000E+00  0.64174331894E+03  0.64174331894E+03  0.00000000000E+00 0.  1.
          2   -1    0    0  501    0  0.00000000000E+00 -0.00000000000E+00 -0.22335611031E+02  0.22335611031E+02  0.00000000000E+00 0. -1.
         25    2    1    2    0    0  0.14441681571E+02 -0.41397691971E+02  0.27054468325E+03  0.30126974628E+03  0.12508678317E+03 0.  0.
         23    2    1    2    0    0 -0.14441681571E+02  0.41397691971E+02  0.34886302466E+03  0.36280918369E+03  0.89458161891E+02 0.  0.
          5    1    3    3  502    0 -0.82279632782E+01  0.18627208519E+02 -0.23332709449E+01  0.20918624004E+02  0.41800000000E+01 0. -1.
         -5    1    3    3    0  502  0.22669644850E+02 -0.60024900490E+02  0.27287795420E+03  0.28035112228E+03  0.41800000000E+01 0. -1.
        -11    1    4    4    0    0  0.14882538829E+02  0.59040316997E+02  0.27102598338E+03  0.27778108766E+03  0.00000000000E+00 0. -1.
         11    1    4    4    0    0 -0.29324220400E+02 -0.17642625027E+02  0.77837041277E+02  0.85028096031E+02  0.00000000000E+00 0.  1.
</event>
<event>
 8    1  0.7192024E-009  0.1585651E+03  0.7561462E-02  0.1190326E+00
         -3   -1    0    0    0  501 -0.00000000000E+00  0.00000000000E+00  0.69634631359E+02  0.69634631359E+02  0.00000000000E+00 0.  1.
          3   -1    0    0  501    0  0.00000000000E+00 -0.00000000000E+00 -0.55463208171E+03  0.55463208171E+03  0.00000000000E+00 0. -1.
         25    2    1    2    0    0  0.51874128136E+02  0.14330984773E+03 -0.15938583306E+03  0.25353425664E+03  0.12508852020E+03 0.  0.
         23    2    1    2    0    0 -0.51874128136E+02 -0.14330984773E+03 -0.32561161729E+03  0.37073245643E+03  0.90504095528E+02 0.  0.
          5    1    3    3  502    0 -0.57221605642E+01  0.13990876377E+02  0.19721757348E+02  0.25197377963E+02  0.41800000000E+01 0. -1.
         -5    1    3    3    0  502  0.57596288700E+02  0.12931897135E+03 -0.17910759041E+03  0.22833687868E+03  0.41800000000E+01 0. -1.
        -11    1    4    4    0    0  0.92475822767E+01 -0.13805434147E+02 -0.18560222729E+01  0.16719826812E+02  0.00000000000E+00 0.  1.
         11    1    4    4    0    0 -0.61121710413E+02 -0.12950441358E+03 -0.32375559502E+03  0.35401262962E+03  0.00000000000E+00 0. -1.
</event>
<event>
 8    1  0.7192024E-009  0.9264649E+02  0.7561462E-02  0.1296566E+00
          1   -1    0    0  501    0  0.00000000000E+00  0.00000000000E+00  0.32258388417E+03  0.32258388417E+03  0.00000000000E+00 0. -1.
         -1   -1    0    0    0  501 -0.00000000000E+00 -0.00000000000E+00 -0.53122886712E+02  0.53122886712E+02  0.00000000000E+00 0.  1.
         25    2    1    2    0    0 -0.63657260970E+02  0.37402724515E+02  0.15306370742E+03  0.21101876544E+03  0.12509680317E+03 0.  0.
         23    2    1    2    0    0  0.63657260970E+02 -0.37402724515E+02  0.11639729003E+03  0.16468800544E+03  0.90125464394E+02 0.  0.
          5    1    3    3  502    0 -0.40831141124E+02  0.34718390071E-01 -0.99010673261E+01  0.42221876143E+02  0.41800000000E+01 0. -1.
         -5    1    3    3    0  502 -0.22826119846E+02  0.37368006125E+02  0.16296477475E+03  0.16879688930E+03  0.41800000000E+01 0. -1.
        -11    1    4    4    0    0  0.47979268417E+02 -0.57425244180E+02  0.41450262361E+02  0.85544100420E+02  0.00000000000E+00 0.  1.
         11    1    4    4    0    0  0.15677992553E+02  0.20022519665E+02  0.74947027674E+02  0.79143905017E+02  0.00000000000E+00 0. -1.
</event>
<event>
 8    1  0.7192024E-009  0.1004346E+03  0.7561462E-02  0.1279385E+00
          2   -1    0    0  501    0  0.00000000000E+00  0.00000000000E+00  0.56410893826E+03  0.56410893826E+03  0.00000000000E+00 0. -1.
         -2   -1    0    0    0  501 -0.00000000000E+00 -0.00000000000E+00 -0.25547082896E+02  0.25547082896E+02  0.00000000000E+00 0.  1.
         25    2    1    2    0    0  0.15253709458E+02  0.45080101891E+02  0.34486134009E+03  0.36992405164E+03  0.12509823682E+03 0.  0.
         23    2    1    2    0    0 -0.15253709458E+02 -0.45080101891E+02  0.19370051527E+03  0.21973196951E+03  0.92181112870E+02 0.  0.
          5    1    3    3  502    0  0.55453011933E+02  0.11143457037E+02  0.28292137910E+03  0.28855015564E+03  0.41800000000E+01 0.  1.
         -5    1    3    3    0  502 -0.40199302476E+02  0.33936644853E+02  0.61939960990E+02  0.81373896004E+02  0.41800000000E+01 0.  1.
        -11    1    4    4    0    0  0.17137327281E+02 -0.54915577114E+02  0.65679056843E+02  0.87310635686E+02  0.00000000000E+00 0.  1.
         11    1    4    4    0    0 -0.32391036739E+02  0.98354752229E+01  0.12802145843E+03  0.13242133382E+03  0.00000000000E+00 0. -1.
</event>
<event>
 8    1  0.7192024E-009  0.2103514E+03  0.7561462E-02  0.1141288E+00
          2   -1    0    0  501    0  0.00000000000E+00  0.00000000000E+00  0.14984443739E+04  0.14984443739E+04  0.00000000000E+00 0. -1.
         -2   -1    0    0    0  501 -0.00000000000E+00 -0.00000000000E+00 -0.36520179230E+02  0.36520179230E+02  0.00000000000E+00 0.  1.
         25    2    1    2    0    0 -0.64385097320E+02  0.19457583687E+03  0.75818720106E+03  0.79529864741E+03  0.12508760796E+03 0.  0.
         23    2    1    2    0    0  0.64385097320E+02 -0.19457583687E+03  0.70373699363E+03  0.73966590574E+03  0.99270835918E+02 0.  0.
          5    1    3    3  502    0 -0.24853160567E+02  0.14676096381E+03  0.32276751923E+03  0.35546139587E+03  0.41800000000E+01 0.  1.
         -5    1    3    3    0  502 -0.39531936753E+02  0.47814873064E+02  0.43541968183E+03  0.43983725154E+03  0.41800000000E+01 0.  1.
        -11    1    4    4    0    0  0.34772053756E+02 -0.43640921282E+02  0.81995289887E+02  0.99180911955E+02  0.00000000000E+00 0.  1.
         11    1    4    4    0    0  0.29613043564E+02 -0.15093491559E+03  0.62174170374E+03  0.64048499379E+03  0.00000000000E+00 0. -1.
</event>
<event>
 8    1  0.7192024E-009  0.1274057E+03  0.7561462E-02  0.1231357E+00
          1   -1    0    0  501    0  0.00000000000E+00  0.00000000000E+00  0.16329148453E+03  0.16329148453E+03  0.00000000000E+00 0. -1.
         -1   -1    0    0    0  501 -0.00000000000E+00 -0.00000000000E+00 -0.10810919616E+03  0.10810919616E+03  0.00000000000E+00 0.  1.
         25    2    1    2    0    0 -0.56656980867E+02 -0.42080689221E+02  0.45788935666E+02  0.15074802785E+03  0.12509014104E+03 0.  0.
         23    2    1    2    0    0  0.56656980867E+02  0.42080689221E+02  0.93933527093E+01  0.12065265284E+03  0.97406517620E+02 0.  0.
          5    1    3    3  502    0  0.34173428209E+02  0.21600795469E+01  0.34857244257E+02  0.49040687356E+02  0.41800000000E+01 0. -1.
         -5    1    3    3    0  502 -0.90830409076E+02 -0.44240768767E+02  0.10931691409E+02  0.10170734050E+03  0.41800000000E+01 0. -1.
        -11    1    4    4    0    0  0.19240243620E+02 -0.31350060112E+02 -0.45626633856E+01  0.37065228190E+02  0.00000000000E+00 0. -1.
         11    1    4    4    0    0  0.37416737247E+02  0.73430749332E+02  0.13956016095E+02  0.83587424646E+02  0.00000000000E+00 0.  1.
</event>
<event>
 8    1  0.7192024E-009  0.8915488E+02  0.7561462E-02  0.1304911E+00
          1   -1    0    0  501    0  0.00000000000E+00  0.00000000000E+00  0.78808917836E+03  0.78808917836E+03  0.00000000000E+00 0. -1.
         -1   -1    0    0    0  501 -0.00000000000E+00 -0.00000000000E+00 -0.17342740255E+02  0.17342740255E+02  0.00000000000E+00 0.  1.
         25    2    1    2    0    0  0.32530875909E+02 -0.33165712886E+01  0.53312474558E+03  0.54857831405E+03  0.12508762834E+03 0.  0.
         23    2    1    2    0    0 -0.32530875909E+02  0.33165712886E+01  0.23762169253E+03  0.25685360457E+03  0.91871910215E+02 0.  0.
          5    1    3    3  502    0  0.15057867089E+02 -0.38562227078E+02  0.48268600029E+03  0.48447603862E+03  0.41800000000E+01 0. -1.
         -5    1    3    3    0  502  0.17473008820E+02  0.35245655789E+02  0.50438745287E+02  0.64102275431E+02  0.41800000000E+01 0. -1.
        -11    1    4    4    0    0  0.32070462989E+02  0.53186558895E+01  0.90474134819E+02  0.96137254839E+02  0.00000000000E+00 0.  1.
         11    1    4    4    0    0 -0.64601338897E+02 -0.20020846009E+01  0.14714755771E+03  0.16071634973E+03  0.00000000000E+00 0. -1.
</event>
<event>
 8    1  0.7192024E-009  0.1048830E+03  0.7561462E-02  0.1270350E+00
         -2   -1    0    0    0  501 -0.00000000000E+00  0.00000000000E+00  0.22820135549E+02  0.22820135549E+02  0.00000000000E+00 0.  1.
          2   -1    0    0  501    0  0.00000000000E+00 -0.00000000000E+00 -0.59564506983E+03  0.59564506983E+03  0.00000000000E+00 0. -1.
         25    2    1    2    0    0 -0.24851586220E+02 -0.72943830698E+01 -0.23331364049E+03  0.26599515914E+03  0.12508940996E+03 0.  0.
         23    2    1    2    0    0  0.24851586220E+02  0.72943830698E+01 -0.33951129379E+03  0.35247004624E+03  0.91084606411E+02 0.  0.
          5    1    3    3  502    0  0.46400522348E+02 -0.10223833347E+02 -0.49273412252E+02  0.68577523996E+02  0.41800000000E+01 0.  1.
         -5    1    3    3    0  502 -0.71252108568E+02  0.29294502774E+01 -0.18404022824E+03  0.19741763514E+03  0.41800000000E+01 0.  1.
        -11    1    4    4    0    0 -0.18929953365E+01 -0.37992568279E+02 -0.19523412010E+03  0.19890545575E+03  0.00000000000E+00 0. -1.
         11    1    4    4    0    0  0.26744581556E+02  0.45286951349E+02 -0.14427717369E+03  0.15356459049E+03  0.00000000000E+00 0.  1.
</event>
<event>
 8    1  0.7192024E-009  0.1112445E+03  0.7561462E-02  0.1258282E+00
          1   -1    0    0  501    0  0.00000000000E+00  0.00000000000E+00  0.10079619736E+04  0.10079619736E+04  0.00000000000E+00 0. -1.
         -1   -1    0    0    0  501 -0.00000000000E+00 -0.00000000000E+00 -0.18075370209E+02  0.18075370209E+02  0.00000000000E+00 0.  1.
         25    2    1    2    0    0 -0.67505649805E+01  0.80363485580E+02  0.55077289890E+03  0.57052789579E+03  0.12508970291E+03 0.  0.
         23    2    1    2    0    0  0.67505649805E+01 -0.80363485580E+02  0.43911370451E+03  0.45550944803E+03  0.90355696098E+02 0.  0.
          5    1    3    3  502    0 -0.29694588325E+02  0.76815259878E+02  0.53682800822E+03  0.54312441994E+03  0.41800000000E+01 0. -1.
         -5    1    3    3    0  502  0.22944023345E+02  0.35482257014E+01  0.13944890683E+02  0.27403475857E+02  0.41800000000E+01 0. -1.
        -11    1    4    4    0    0  0.43253089716E+02 -0.24511663175E+02  0.25195459686E+03  0.25681271441E+03  0.00000000000E+00 0. -1.
         11    1    4    4    0    0 -0.36502524735E+02 -0.55851822405E+02  0.18715910765E+03  0.19869673362E+03  0.00000000000E+00 0.  1.
</event>
<event>
 8    1  0.7192024E-009  0.1164625E+03  0.7561462E-02  0.1249050E+00
          3   -1    0    0  501    0  0.00000000000E+00  0.00000000000E+00  0.89760324266E+03  0.89760324266E+03  0.00000000000E+00 0.  1.
         -3   -1    0    0    0  501 -0.00000000000E+00 -0.00000000000E+00 -0.15984877627E+02  0.15984877627E+02  0.00000000000E+00 0. -1.
         25    2    1    2    0    0  0.43948915962E+02  0.13189160888E+02  0.42165658225E+03  0.44220791911E+03  0.12509240260E+03 0.  0.
         23    2    1    2    0    0 -0.43948915962E+02 -0.13189160888E+02  0.45996178278E+03  0.47138020118E+03  0.92352537940E+02 0.  0.
          5    1    3    3  502    0 -0.42831616792E+02 -0.72240697293E+01  0.15407880419E+03  0.16013895492E+03  0.41800000000E+01 0.  1.
         -5    1    3    3    0  502  0.86780532755E+02  0.20413230617E+02  0.26757777806E+03  0.28206896419E+03  0.41800000000E+01 0.  1.
        -11    1    4    4    0    0 -0.78560039213E+01  0.37221351778E+02  0.12251561293E+03  0.12828570161E+03  0.00000000000E+00 0.  1.
         11    1    4    4    0    0 -0.36092912041E+02 -0.50410512666E+02  0.33744616985E+03  0.34309449957E+03  0.00000000000E+00 0. -1.
</event>
<event>
 8    1  0.7192024E-009  0.1953305E+03  0.7561462E-02  0.1153740E+00
          1   -1    0    0  501    0  0.00000000000E+00  0.00000000000E+00  0.17624818519E+04  0.17624818519E+04  0.00000000000E+00 0. -1.
         -1   -1    0    0    0  501 -0.00000000000E+00 -0.00000000000E+00 -0.24613651929E+02  0.24613651929E+02  0.00000000000E+00 0.  1.
         25    2    1    2    0    0  0.16262857319E+03  0.54445826136E+02  0.70643841698E+03  0.73764084489E+03  0.12508548384E+03 0.  0.
         23    2    1    2    0    0 -0.16262857319E+03 -0.54445826136E+02  0.10314297829E+04  0.10494546589E+04  0.89973791287E+02 0.  0.
          5    1    3    3  502    0  0.20144036344E+02 -0.26126502922E+02  0.26006922296E+03  0.26218666916E+03  0.41800000000E+01 0.  1.
         -5    1    3    3    0  502  0.14248453684E+03  0.80572329058E+02  0.44636919401E+03  0.47545417573E+03  0.41800000000E+01 0.  1.
        -11    1    4    4    0    0 -0.32467042623E+02 -0.54576750083E+02  0.34123215630E+03  0.34709093189E+03  0.00000000000E+00 0. -1.
         11    1    4    4    0    0 -0.13016153057E+03  0.13092394756E+00  0.69019762665E+03  0.70236372700E+03  0.00000000000E+00 0.  1.
</event>
<event>
 8    1  0.7192024E-009  0.1626600E+03  0.7561462E-02  0.1185726E+00
         -2   -1    0    0    0  501 -0.00000000000E+00  0.00000000000E+00  0.15301842616E+02  0.15301842616E+02  0.00000000000E+00 0.  1.
          2   -1    0    0  501    0  0.00000000000E+00 -0.00000000000E+00 -0.18094601645E+04  0.18094601645E+04  0.00000000000E+00 0. -1.
         25    2    1    2    0    0 -0.12088965992E+03  0.15323402368E+02 -0.11261170496E+04  0.11395774180E+04  0.12509182883E+03 0.  0.
         23    2    1    2    0    0  0.12088965992E+03 -0.15323402368E+02 -0.66804127222E+03  0.68518458907E+03  0.91376491359E+02 0.  0.
          5    1    3    3  502    0 -0.73917650114E+02  0.70099361838E+02 -0.62062840657E+03  0.62894739920E+03  0.41800000000E+01 0.  1.
         -5    1    3    3    0  502 -0.46972009808E+02 -0.54775959470E+02 -0.50548864305E+03  0.51063001879E+03  0.41800000000E+01 0.  1.
        -11    1    4    4    0    0  0.12045898067E+03 -0.39601997587E+02 -0.52493563278E+03  0.54003342749E+03  0.00000000000E+00 0.  1.
         11    1    4    4    0    0  0.43067925229E+00  0.24278595219E+02 -0.14310563944E+03  0.14515116159E+03  0.00000000000E+00 0. -1.
</event>
<event>
 8    1  0.7192024E-009  0.1198264E+03  0.7561462E-02  0.1243384E+00
          1   -1    0    0  501    0  0.00000000000E+00  0.00000000000E+00  0.16029642578E+04  0.16029642578E+04  0.00000000000E+00 0. -1.
         -1   -1    0    0    0  501 -0.00000000000E+00 -0.00000000000E+00 -0.12182127083E+02  0.12182127083E+02  0.00000000000E+00 0.  1.
         25    2    1    2    0    0 -0.13621310987E+02 -0.68450346924E+02  0.11960020583E+04  0.12045494570E+04  0.12508989130E+03 0.  0.
         23    2    1    2    0    0  0.13621310987E+02  0.68450346924E+02  0.39478007244E+03  0.41059692786E+03  0.88699162708E+02 0.  0.
          5    1    3    3  502    0 -0.45623131656E+02  0.14070873764E+02  0.26146500631E+03  0.26582114580E+03  0.41800000000E+01 0.  1.
         -5    1    3    3    0  502  0.32001820669E+02 -0.82521220688E+02  0.93453705195E+03  0.93872831120E+03  0.41800000000E+01 0.  1.
        -11    1    4    4    0    0 -0.27993555279E+02  0.50620225786E+02  0.30041416525E+03  0.30593253681E+03  0.00000000000E+00 0.  1.
         11    1    4    4    0    0  0.41614866267E+02  0.17830121137E+02  0.94365907193E+02  0.10466439105E+03  0.00000000000E+00 0. -1.
</event>
<event>
 8    1  0.7192024E-009  0.8845991E+02  0.7561462E-02  0.1306625E+00
         -1   -1    0    0    0  501 -0.00000000000E+00  0.00000000000E+00  0.31556558447E+03  0.31556558447E+03  0.00000000000E+00 0.  1.
          1   -1    0    0  501    0  0.00000000000E+00 -0.00000000000E+00 -0.93845887600E+02  0.93845887600E+02  0.00000000000E+00 0. -1.
         25    2    1    2    0    0 -0.33647466273E+02 -0.48760902354E+02  0.25778232677E+03  0.29259056233E+03  0.12509089330E+03 0.  0.
         23    2    1    2    0    0  0.33647466273E+02  0.48760902354E+02 -0.36062629894E+02  0.11682090974E+03  0.94004436560E+02 0.  0.
          5    1    3    3  502    0 -0.32240918215E+02 -0.12151480996E+02  0.26512783171E+01  0.34808576162E+02  0.41800000000E+01 0. -1.
         -5    1    3    3    0  502 -0.14065480584E+01 -0.36609421358E+02  0.25513104845E+03  0.25778198617E+03  0.41800000000E+01 0. -1.
        -11    1    4    4    0    0 -0.11669898087E+02 -0.19900654998E+02  0.68067424607E+01  0.24053156418E+02  0.00000000000E+00 0. -1.
         11    1    4    4    0    0  0.45317364360E+02  0.68661557353E+02 -0.42869372355E+02  0.92767753324E+02  0.00000000000E+00 0.  1.
</event>
<event>
 8    1  0.7192024E-009  0.7337367E+02  0.7561462E-02  0.1348983E+00
         -2   -1    0    0    0  501 -0.00000000000E+00  0.00000000000E+00  0.94153574653E+02  0.94153574653E+02  0.00000000000E+00 0.  1.
          2   -1    0    0  501    0  0.00000000000E+00 -0.00000000000E+00 -0.22128668856E+03  0.22128668856E+03  0.00000000000E+00 0. -1.
         25    2    1    2    0    0  0.37089430964E+02  0.39895042525E+02 -0.15267292913E+03  0.20475188744E+03  0.12508825609E+03 0.  0.
         23    2    1    2    0    0 -0.37089430964E+02 -0.39895042525E+02  0.25539815227E+02  0.11068837577E+03  0.92910677871E+02 0.  0.
          5    1    3    3  502    0  0.89333619499E+01 -0.46752263132E+01  0.20749552109E+02  0.23445234260E+02  0.41800000000E+01 0. -1.
         -5    1    3    3    0  502  0.28156069014E+02  0.44570268838E+02 -0.17342248124E+03  0.18130665318E+03  0.41800000000E+01 0. -1.
        -11    1    4    4    0    0  0.44871652850E+01 -0.41109671312E+02  0.48048750822E+02  0.63394180989E+02  0.00000000000E+00 0.  1.
         11    1    4    4    0    0 -0.41576596249E+02  0.12146287873E+01 -0.22508935596E+02  0.47294194786E+02  0.00000000000E+00 0. -1.
</event>
<event>
 8    1  0.7192024E-009  0.1086308E+03  0.7561462E-02  0.1263127E+00
          3   -1    0    0  501    0  0.00000000000E+00  0.00000000000E+00  0.30003308386E+02  0.30003308386E+02  0.00000000000E+00 0. -1.
         -3   -1    0    0    0  501 -0.00000000000E+00 -0.00000000000E+00 -0.57578796744E+03  0.57578796744E+03  0.00000000000E+00 0.  1.
         25    2    1    2    0    0 -0.32483765215E+02 -0.19240347196E+02 -0.15509520930E+03  0.20279829847E+03  0.12508892817E+03 0.  0.
         23    2    1    2    0    0  0.32483765215E+02  0.19240347196E+02 -0.39068944976E+03  0.40299297736E+03  0.91322000007E+02 0.  0.
          5    1    3    3  502    0 -0.68607989769E+02  0.14092110347E+02 -0.48364334233E+02  0.85218689617E+02  0.41800000000E+01 0.  1.
         -5    1    3    3    0  502  0.36124224555E+02 -0.33332457543E+02 -0.10673087507E+03  0.11757960885E+03  0.41800000000E+01 0.  1.
        -11    1    4    4    0    0 -0.26309048069E+02  0.27889864394E+02 -0.12545820228E+03  0.13118601703E+03  0.00000000000E+00 0. -1.
         11    1    4    4    0    0  0.58792813284E+02 -0.86495171977E+01 -0.26523124748E+03  0.27180696033E+03  0.00000000000E+00 0.  1.
</event>
<event>
 8    1  0.7192024E-009  0.8032958E+02  0.7561462E-02  0.1328119E+00
         -2   -1    0    0    0  501 -0.00000000000E+00  0.00000000000E+00  0.60565835534E+02  0.60565835534E+02  0.00000000000E+00 0.  1.
          2   -1    0    0  501    0  0.00000000000E+00 -0.00000000000E+00 -0.23177142677E+03  0.23177142677E+03  0.00000000000E+00 0. -1.
         25    2    1    2    0    0  0.46597565621E+02 -0.13271481318E+02 -0.10442681139E+03  0.17000027774E+03  0.12509064776E+03 0.  0.
         23    2    1    2    0    0 -0.46597565621E+02  0.13271481318E+02 -0.66778779845E+02  0.12233698456E+03  0.90329768160E+02 0.  0.
          5    1    3    3  502    0  0.42552098053E+01  0.14131205518E+02  0.25950708444E+02  0.30144807988E+02  0.41800000000E+01 0. -1.
         -5    1    3    3    0  502  0.42342355815E+02 -0.27402686836E+02 -0.13037751983E+03  0.13985546975E+03  0.41800000000E+01 0. -1.
        -11    1    4    4    0    0 -0.70117420471E+02  0.12173413421E+02 -0.68436838151E+02  0.98733203452E+02  0.00000000000E+00 0. -1.
         11    1    4    4    0    0  0.23519854851E+02  0.10980678972E+01  0.16580583055E+01  0.23603781109E+02  0.00000000000E+00 0.  1.
</event>
<event>
 8    1  0.7192024E-009  0.1034363E+03  0.7561462E-02  0.1273231E+00
          1   -1    0    0  501    0  0.00000000000E+00  0.00000000000E+00  0.57220908219E+03  0.57220908219E+03  0.00000000000E+00 0. -1.
         -1   -1    0    0    0  501 -0.00000000000E+00 -0.00000000000E+00 -0.22173566726E+02  0.22173566726E+02  0.00000000000E+00 0.  1.
         25    2    1    2    0    0 -0.41712737334E+00 -0.20143362852E+02  0.36412329909E+03  0.38553788735E+03  0.12509099320E+03 0.  0.
         23    2    1    2    0    0  0.41712737334E+00  0.20143362852E+02  0.18591221637E+03  0.20884476157E+03  0.92988457214E+02 0.  0.
          5    1    3    3  502    0 -0.44264533637E+02 -0.52875933735E+02  0.16240346331E+03  0.17648674342E+03  0.41800000000E+01 0.  1.
         -5    1    3    3    0  502  0.43847406263E+02  0.32732570883E+02  0.20171983578E+03  0.20905114393E+03  0.41800000000E+01 0.  1.
        -11    1    4    4    0    0 -0.37641537623E+02  0.24024498193E+02  0.47294204928E+02  0.65044628432E+02  0.00000000000E+00 0.  1.
         11    1    4    4    0    0  0.38058664996E+02 -0.38811353404E+01  0.13861801145E+03  0.14380013314E+03  0.00000000000E+00 0. -1.
</event>
<event>
 8    1  0.7192024E-009  0.9543826E+02  0.7561462E-02  0.1290192E+00
          2   -1    0    0  501    0  0.00000000000E+00  0.00000000000E+00  0.14012451324E+03  0.14012451324E+03  0.00000000000E+00 0. -1.
         -2   -1    0    0    0  501 -0.00000000000E+00 -0.00000000000E+00 -0.11540269052E+03  0.11540269052E+03  0.00000000000E+00 0.  1.
         25    2    1    2    0    0 -0.38009535161E+02 -0.24632041680E+02  0.63344467162E+02  0.14735206205E+03  0.12509454996E+03 0.  0.
         23    2    1    2    0    0  0.38009535161E+02  0.24632041680E+02 -0.38622644445E+02  0.10817514172E+03  0.90325469172E+02 0.  0.
          5    1    3    3  502    0 -0.33692742464E+02 -0.60462925381E+02  0.81275383283E+02  0.10683691576E+03  0.41800000000E+01 0. -1.
         -5    1    3    3    0  502 -0.43167926976E+01  0.35830883701E+02 -0.17930916121E+02  0.40515146290E+02  0.41800000000E+01 0. -1.
        -11    1    4    4    0    0  0.40526583824E+02 -0.16671856101E+02 -0.48772914018E+02  0.65567918406E+02  0.00000000000E+00 0.  1.
         11    1    4    4    0    0 -0.25170486630E+01  0.41303897781E+02  0.10150269573E+02  0.42607223311E+02  0.00000000000E+00 0. -1.
</event>
<event>
 8    1  0.7192024E-009  0.1113492E+03  0.7561462E-02  0.1258092E+00
         -1   -1    0    0    0  501 -0.00000000000E+00  0.00000000000E+00  0.21111547069E+02  0.21111547069E+02  0.00000000000E+00 0.  1.
          1   -1    0    0  501    0  0.00000000000E+00 -0.00000000000E+00 -0.63946673860E+03  0.63946673860E+03  0.00000000000E+00 0. -1.
         25    2    1    2    0    0  0.35831369736E+02  0.16886953459E+02 -0.36516901172E+03  0.38802711645E+03  0.12509028630E+03 0.  0.
         23    2    1    2    0    0 -0.35831369736E+02 -0.16886953459E+02 -0.25318617982E+03  0.27255116922E+03  0.92800010455E+02 0.  0.
          5    1    3    3  502    0  0.22463730862E+02  0.71347144424E+02 -0.20261422357E+03  0.21602090227E+03  0.41800000000E+01 0.  1.
         -5    1    3    3    0  502  0.13367638874E+02 -0.54460190965E+02 -0.16255478815E+03  0.17200621418E+03  0.41800000000E+01 0.  1.
        -11    1    4    4    0    0  0.60205543816E+01  0.28897965588E+02 -0.14382073902E+03  0.14681874697E+03  0.00000000000E+00 0. -1.
         11    1    4    4    0    0 -0.41851924117E+02 -0.45784919047E+02 -0.10936544080E+03  0.12573242225E+03  0.00000000000E+00 0.  1.
</event>
<event>
 8    1  0.7192024E-009  0.1119708E+03  0.7561462E-02  0.1256963E+00
          4   -1    0    0  501    0  0.00000000000E+00  0.00000000000E+00  0.22856110713E+03  0.22856110713E+03  0.00000000000E+00 0. -1.
         -4   -1    0    0    0  501 -0.00000000000E+00 -0.00000000000E+00 -0.16196950626E+03  0.16196950626E+03  0.00000000000E+00 0.  1.
         25    2    1    2    0    0 -0.65359966363E+02 -0.78626306154E+02  0.15725878379E+03  0.22546130334E+03  0.12509377683E+03 0.  0.
         23    2    1    2    0    0  0.65359966363E+02  0.78626306154E+02 -0.90667182926E+02  0.16506931005E+03  0.92592212615E+02 0.  0.
          5    1    3    3  502    0 -0.58497174440E+02 -0.61971922811E+02  0.17817044540E+03  0.19754649744E+03  0.41800000000E+01 0. -1.
         -5    1    3    3    0  502 -0.68627919223E+01 -0.16654383343E+02 -0.20911661609E+02  0.27914805906E+02  0.41800000000E+01 0. -1.
        -11    1    4    4    0    0  0.45044279491E+02  0.87145034788E+02 -0.10094598646E+03  0.14075985360E+03  0.00000000000E+00 0.  1.
         11    1    4    4    0    0  0.20315686872E+02 -0.85187286339E+01  0.10278803534E+02  0.24309456446E+02  0.00000000000E+00 0. -1.
</event>
<event>
 8    1  0.7192024E-009  0.1155399E+03  0.7561462E-02  0.1250642E+00
          3   -1    0    0  501    0  0.00000000000E+00  0.00000000000E+00  0.19551073551E+02  0.19551073551E+02  0.00000000000E+00 0. -1.
         -3   -1    0    0    0  501 -0.00000000000E+00 -0.00000000000E+00 -0.87049789700E+03  0.87049789700E+03  0.00000000000E+00 0.  1.
         25    2    1    2    0    0  0.21865921948E+00  0.57976252261E+02 -0.32138850516E+03  0.34971294325E+03  0.12508907941E+03 0.  0.
         23    2    1    2    0    0 -0.21865921948E+00 -0.57976252261E+02 -0.52955831829E+03  0.54033602730E+03  0.90386482913E+02 0.  0.
          5    1    3    3  502    0 -0.18205170082E+02  0.87377301923E+02 -0.14834728289E+03  0.17317797160E+03  0.41800000000E+01 0.  1.
         -5    1    3    3    0  502  0.18423829302E+02 -0.29401049662E+02 -0.17304122227E+03  0.17653497164E+03  0.41800000000E+01 0.  1.
        -11    1    4    4    0    0  0.44725890007E+02 -0.29094011949E+02 -0.29317407976E+03  0.29798977803E+03  0.00000000000E+00 0.  1.
         11    1    4    4    0    0 -0.44944549226E+02 -0.28882240312E+02 -0.23638423853E+03  0.24234624927E+03  0.00000000000E+00 0. -1.
</event>
<event>
 8    1  0.7192024E-009  0.1969922E+03  0.7561462E-02  0.1152302E+00
          1   -1    0    0  501    0  0.00000000000E+00  0.00000000000E+00  0.51223107015E+03  0.51223107015E+03  0.00000000000E+00 0. -1.
         -1   -1    0    0    0  501 -0.00000000000E+00 -0.00000000000E+00 -0.76036351733E+02  0.76036351733E+02  0.00000000000E+00 0.  1.
         25    2    1    2    0    0 -0.11253375033E+03  0.11978579510E+03  0.21808993886E+03  0.30037187725E+03  0.12509021360E+03 0.  0.
         23    2    1    2    0    0  0.11253375033E+03 -0.11978579510E+03  0.21810477955E+03  0.28789554463E+03  0.91113490122E+02 0.  0.
          5    1    3    3  502    0 -0.12610063870E+03  0.13534157115E+03  0.18937818787E+03  0.26476457921E+03  0.41800000000E+01 0. -1.
         -5    1    3    3    0  502  0.13566888379E+02 -0.15555776048E+02  0.28711750992E+02  0.35607298041E+02  0.41800000000E+01 0. -1.
        -11    1    4    4    0    0 -0.87158849656E+01 -0.44118852073E+02  0.54266696526E+02  0.70479175015E+02  0.00000000000E+00 0. -1.
         11    1    4    4    0    0  0.12124963529E+03 -0.75666943030E+02  0.16383808302E+03  0.21741636961E+03  0.00000000000E+00 0.  1.
</event>
<event>
 8    1  0.7192024E-009  0.1328250E+03  0.7561462E-02  0.1223323E+00
          1   -1    0    0  501    0  0.00000000000E+00  0.00000000000E+00  0.43661031990E+03  0.43661031990E+03  0.00000000000E+00 0. -1.
         -1   -1    0    0    0  501 -0.00000000000E+00 -0.00000000000E+00 -0.60556649748E+02  0.60556649748E+02  0.00000000000E+00 0.  1.
         25    2    1    2    0    0  0.43618727487E+02  0.96465608940E+02  0.11296243006E+03  0.19903640169E+03  0.12508705567E+03 0.  0.
         23    2    1    2    0    0 -0.43618727487E+02 -0.96465608940E+02  0.26309124009E+03  0.29813056796E+03  0.91959925210E+02 0.  0.
          5    1    3    3  502    0  0.13709865338E+02  0.98512472552E+02  0.13043726746E+03  0.16408540703E+03  0.41800000000E+01 0. -1.
         -5    1    3    3    0  502  0.29908862149E+02 -0.20468636119E+01 -0.17474837400E+02  0.34950994662E+02  0.41800000000E+01 0. -1.
        -11    1    4    4    0    0 -0.69349204020E+02 -0.76565615619E+02  0.16387143250E+03  0.19371487290E+03  0.00000000000E+00 0.  1.
         11    1    4    4    0    0  0.25730476533E+02 -0.19899993321E+02  0.99219807581E+02  0.10441569505E+03  0.00000000000E+00 0. -1.
</event>
<event>
 8    1  0.7192024E-009  0.2353376E+03  0.7561462E-02  0.1122938E+00
         -2   -1    0    0    0  501 -0.00000000000E+00  0.00000000000E+00  0.88058169815E+02  0.88058169815E+02  0.00000000000E+00 0. -1.
          2   -1    0    0  501    0  0.00000000000E+00 -0.00000000000E+00 -0.12102349643E+04  0.12102349643E+04  0.00000000000E+00 0.  1.
         25    2    1    2    0    0 -0.62697037837E+02 -0.20904001489E+03 -0.10017364661E+04  0.10328371752E+04  0.12509211244E+03 0.  0.
         23    2    1    2    0    0  0.62697037837E+02  0.20904001489E+03 -0.12044032833E+03  0.26545595885E+03  0.91281690510E+02 0.  0.
          5    1    3    3  502    0  0.19686298383E+02 -0.14456456630E+03 -0.53986177667E+03  0.55924473577E+03  0.41800000000E+01 0. -1.
         -5    1    3    3    0  502 -0.82383336220E+02 -0.64475448590E+02 -0.46187468946E+03  0.47359243947E+03  0.41800000000E+01 0. -1.
        -11    1    4    4    0    0  0.52964390877E+02  0.12989749078E+03 -0.12169086187E+03  0.18570743300E+03  0.00000000000E+00 0.  1.
         11    1    4    4    0    0  0.97326469593E+01  0.79142524119E+02  0.12505335421E+01  0.79748525847E+02  0.00000000000E+00 0. -1.
</event>
<event>
 8    1  0.7192024E-009  0.1433297E+03  0.7561462E-02  0.1208918E+00
         -3   -1    0    0    0  501 -0.00000000000E+00  0.00000000000E+00  0.96934677064E+02  0.96934677064E+02  0.00000000000E+00 0.  1.
          3   -1    0    0  501    0  0.00000000000E+00 -0.00000000000E+00 -0.23806751864E+03  0.23806751864E+03  0.00000000000E+00 0. -1.
         25    2    1    2    0    0  0.98701089398E+02  0.11955583652E+02 -0.11782100551E+03  0.19853107813E+03  0.12509180075E+03 0.  0.
         23    2    1    2    0    0 -0.98701089398E+02 -0.11955583652E+02 -0.23311836065E+02  0.13647111758E+03  0.90532221905E+02 0.  0.
          5    1    3    3  502    0 -0.10393587891E+02 -0.35890098310E+02 -0.12947857857E+02  0.39764874563E+02  0.41800000000E+01 0. -1.
         -5    1    3    3    0  502  0.10909467729E+03  0.47845681962E+02 -0.10487314765E+03  0.15876620356E+03  0.41800000000E+01 0. -1.
        -11    1    4    4    0    0 -0.36214078406E+02 -0.46125730361E+02 -0.28225174593E+02  0.65082278362E+02  0.00000000000E+00 0.  1.
         11    1    4    4    0    0 -0.62487010993E+02  0.34170146709E+02  0.49133385275E+01  0.71388839214E+02  0.00000000000E+00 0. -1.
</event>
<event>
 8    1  0.7192024E-009  0.1080837E+03  0.7561462E-02  0.1264160E+00
          1   -1    0    0  501    0  0.00000000000E+00  0.00000000000E+00  0.71611432844E+02  0.71611432844E+02  0.00000000000E+00 0. -1.
         -1   -1    0    0    0  501 -0.00000000000E+00 -0.00000000000E+00 -0.27121971060E+03  0.27121971060E+03  0.00000000000E+00 0.  1.
         25    2    1    2    0    0  0.81205722478E+01  0.75604472515E+02 -0.15996419097E+03  0.21683451914E+03  0.12508671528E+03 0.  0.
         23    2    1    2    0    0 -0.81205722478E+01 -0.75604472515E+02 -0.39644086782E+02  0.12599662430E+03  0.92312056424E+02 0.  0.
          5    1    3    3  502    0 -0.26289349934E+02  0.39280900526E+02 -0.15972592846E+03  0.16662521925E+03  0.41800000000E+01 0. -1.
         -5    1    3    3    0  502  0.34409922182E+02  0.36323571989E+02 -0.23826251199E+00  0.50209299892E+02  0.41800000000E+01 0. -1.
        -11    1    4    4    0    0 -0.49616560420E+02 -0.44492124170E+02 -0.13829975365E+02  0.68063355778E+02  0.00000000000E+00 0.  1.
         11    1    4    4    0    0  0.41495988172E+02 -0.31112348345E+02 -0.25814111417E+02  0.57933268526E+02  0.00000000000E+00 0. -1.
</event>
<event>
 8    1  0.7192024E-009  0.1346575E+03  0.7561462E-02  0.1220704E+00
         -2   -1    0    0    0  501 -0.00000000000E+00  0.00000000000E+00  0.46413094964E+03  0.46413094964E+03  0.00000000000E+00 0.  1.
          2   -1    0    0  501    0  0.00000000000E+00 -0.00000000000E+00 -0.49240902588E+02  0.49240902588E+02  0.00000000000E+00 0. -1.
         25    2    1    2    0    0 -0.48381581792E+02 -0.70374727693E+02  0.32105481614E+03  0.35498708877E+03  0.12508500499E+03 0.  0.
         23    2    1    2    0    0  0.48381581792E+02  0.70374727693E+02  0.93835230912E+02  0.15838476346E+03  0.94801387015E+02 0.  0.
          5    1    3    3  502    0  0.45717626335E+01 -0.92932797191E+02  0.21339658135E+03  0.23283680796E+03  0.41800000000E+01 0.  1.
         -5    1    3    3    0  502 -0.52953344425E+02  0.22558069497E+02  0.10765823479E+03  0.12215028081E+03  0.41800000000E+01 0.  1.
        -11    1    4    4    0    0  0.31957028705E+01  0.73126921551E+02  0.85155114374E+02  0.11229048346E+03  0.00000000000E+00 0. -1.
         11    1    4    4    0    0  0.45185878921E+02 -0.27521938575E+01  0.86801165380E+01  0.46094279992E+02  0.00000000000E+00 0.  1.
</event>
<event>
 8    1  0.7192024E-009  0.1280650E+03  0.7561462E-02  0.1230355E+00
         -2   -1    0    0    0  501 -0.00000000000E+00  0.00000000000E+00  0.33290980230E+02  0.33290980230E+02  0.00000000000E+00 0.  1.
          2   -1    0    0  501    0  0.00000000000E+00 -0.00000000000E+00 -0.53436791546E+03  0.53436791546E+03  0.00000000000E+00 0. -1.
         25    2    1    2    0    0 -0.52115968430E+02  0.49945725606E+02 -0.23001688319E+03  0.27159471265E+03  0.12508106056E+03 0.  0.
         23    2    1    2    0    0  0.52115968430E+02 -0.49945725606E+02 -0.27106005204E+03  0.29606418304E+03  0.94709022799E+02 0.  0.
          5    1    3    3  502    0 -0.77383104818E+02  0.72735028778E+02 -0.14381468557E+03  0.17882579654E+03  0.41800000000E+01 0. -1.
         -5    1    3    3    0  502  0.25267136387E+02 -0.22789303172E+02 -0.86202197627E+02  0.92768916109E+02  0.41800000000E+01 0. -1.
        -11    1    4    4    0    0  0.47404321539E+02  0.15558290309E+02 -0.82707033326E+02  0.96590286569E+02  0.00000000000E+00 0.  1.
         11    1    4    4    0    0  0.47116468914E+01 -0.65504015915E+02 -0.18835301871E+03  0.19947389647E+03  0.00000000000E+00 0. -1.
</event>
<event>
 8    1  0.7192024E-009  0.1274595E+03  0.7561462E-02  0.1231275E+00
          2   -1    0    0  501    0  0.00000000000E+00  0.00000000000E+00  0.10972620191E+03  0.10972620191E+03  0.00000000000E+00 0. -1.
         -2   -1    0    0    0  501 -0.00000000000E+00 -0.00000000000E+00 -0.23702371356E+03  0.23702371356E+03  0.00000000000E+00 0.  1.
         25    2    1    2    0    0  0.27756088148E+02 -0.90144933549E+02  0.11100489655E+02  0.15706501358E+03  0.12509871361E+03 0.  0.
         23    2    1    2    0    0 -0.27756088148E+02  0.90144933549E+02 -0.13839800131E+03  0.18968490189E+03  0.89049681434E+02 0.  0.
          5    1    3    3  502    0  0.67971831959E+02 -0.53686040934E+02 -0.26759702398E+02  0.90751942147E+02  0.41800000000E+01 0.  1.
         -5    1    3    3    0  502 -0.40215743811E+02 -0.36458892615E+02  0.37860192053E+02  0.66313071436E+02  0.41800000000E+01 0.  1.
        -11    1    4    4    0    0 -0.34958368923E+02  0.97431829569E+02 -0.81159704969E+02  0.13153686434E+03  0.00000000000E+00 0. -1.
         11    1    4    4    0    0  0.72022807753E+01 -0.72868960201E+01 -0.57238296343E+02  0.58148037544E+02  0.00000000000E+00 0.  1.
</event>
<event>
 8    1  0.7192024E-009  0.6728896E+02  0.7561462E-02  0.1369562E+00
          1   -1    0    0  501    0  0.00000000000E+00  0.00000000000E+00  0.52510591479E+03  0.52510591479E+03  0.00000000000E+00 0. -1.
         -1   -1    0    0    0  501 -0.00000000000E+00 -0.00000000000E+00 -0.23462761766E+02  0.23462761766E+02  0.00000000000E+00 0.  1.
         25    2    1    2    0    0  0.16315152103E+02  0.22681092938E+02  0.31773278892E+03  0.34261139622E+03  0.12509127668E+03 0.  0.
         23    2    1    2    0    0 -0.16315152103E+02 -0.22681092938E+02  0.18391036411E+03  0.20595728034E+03  0.88401148937E+02 0.  0.
          5    1    3    3  502    0  0.24202926543E+02  0.34305211027E+02  0.24052609969E+02  0.48565724572E+02  0.41800000000E+01 0. -1.
         -5    1    3    3    0  502 -0.78877744403E+01 -0.11624118090E+02  0.29368017895E+03  0.29404567165E+03  0.41800000000E+01 0. -1.
        -11    1    4    4    0    0 -0.45058420765E+02 -0.92243204871E+01  0.48350149166E+02  0.66731449068E+02  0.00000000000E+00 0.  1.
         11    1    4    4    0    0  0.28743268662E+02 -0.13456772451E+02  0.13556021494E+03  0.13922583127E+03  0.00000000000E+00 0. -1.
</event>
<event>
 8    1  0.7192024E-009  0.1003709E+03  0.7561462E-02  0.1279518E+00
          1   -1    0    0  501    0  0.00000000000E+00  0.00000000000E+00  0.49182480660E+02  0.49182480660E+02  0.00000000000E+00 0. -1.
         -1   -1    0    0    0  501 -0.00000000000E+00 -0.00000000000E+00 -0.25634385227E+03  0.25634385227E+03  0.00000000000E+00 0.  1.
         25    2    1    2    0    0 -0.48218793030E+01  0.20193171022E+01 -0.80351507924E+02  0.14876337160E+03  0.12508736045E+03 0.  0.
         23    2    1    2    0    0  0.48218793030E+01 -0.20193171022E+01 -0.12680986368E+03  0.15676296132E+03  0.92013892179E+02 0.  0.
          5    1    3    3  502    0 -0.33235237962E+02 -0.51909594595E+02 -0.54637163187E+02  0.82473505167E+02  0.41800000000E+01 0. -1.
         -5    1    3    3    0  502  0.28413358659E+02  0.53928911697E+02 -0.25714344737E+02  0.66289866438E+02  0.41800000000E+01 0. -1.
        -11    1    4    4    0    0  0.24620545545E+02  0.30863277217E+02 -0.10597396596E+03  0.11308932135E+03  0.00000000000E+00 0.  1.
         11    1    4    4    0    0 -0.19798666242E+02 -0.32882594319E+02 -0.20835897726E+02  0.43673639970E+02  0.00000000000E+00 0. -1.
</event>
<event>
 8    1  0.7192024E-009  0.2116997E+03  0.7561462E-02  0.1140227E+00
         -1   -1    0    0    0  501 -0.00000000000E+00  0.00000000000E+00  0.21388443014E+03  0.21388443014E+03  0.00000000000E+00 0.  1.
          1   -1    0    0  501    0  0.00000000000E+00 -0.00000000000E+00 -0.25502670193E+03  0.25502670193E+03  0.00000000000E+00 0. -1.
         25    2    1    2    0    0 -0.14764169790E+03  0.14298694943E+03 -0.38655576094E+02  0.24369006302E+03  0.12508898666E+03 0.  0.
         23    2    1    2    0    0  0.14764169790E+03 -0.14298694943E+03 -0.24866956924E+01  0.22522106906E+03  0.92059804628E+02 0.  0.
          5    1    3    3  502    0 -0.99632129159E+02  0.11889346981E+03 -0.81109423175E+02  0.17509548610E+03  0.41800000000E+01 0. -1.
         -5    1    3    3    0  502 -0.48009568741E+02  0.24093479618E+02  0.42453847081E+02  0.68594576919E+02  0.41800000000E+01 0. -1.
        -11    1    4    4    0    0  0.13283399066E+03 -0.92852781509E+02 -0.31987647881E+02  0.16519599791E+03  0.00000000000E+00 0.  1.
         11    1    4    4    0    0  0.14807707238E+02 -0.50134167916E+02  0.29500952188E+02  0.60025071148E+02  0.00000000000E+00 0. -1.
</event>
<event>
 8    1  0.7192024E-009  0.2761328E+03  0.7561462E-02  0.1097820E+00
         -2   -1    0    0    0  501 -0.00000000000E+00  0.00000000000E+00  0.60275178753E+03  0.60275178753E+03  0.00000000000E+00 0.  1.
          2   -1    0    0  501    0  0.00000000000E+00 -0.00000000000E+00 -0.14741613493E+03  0.14741613493E+03  0.00000000000E+00 0. -1.
         25    2    1    2    0    0 -0.19601649327E+02  0.26226160896E+03  0.12202645899E+03  0.31575795674E+03  0.12508898578E+03 0.  0.
         23    2    1    2    0    0  0.19601649327E+02 -0.26226160896E+03  0.33330919361E+03  0.43440996572E+03  0.91932712253E+02 0.  0.
          5    1    3    3  502    0  0.43524758252E+02  0.53946941556E+02  0.53037214850E+02  0.87379034346E+02  0.41800000000E+01 0. -1.
         -5    1    3    3    0  502 -0.63126407579E+02  0.20831466740E+03  0.68989244137E+02  0.22837892240E+03  0.41800000000E+01 0. -1.
        -11    1    4    4    0    0  0.69783085539E+01 -0.23465475431E+03  0.23764890295E+03  0.33404872636E+03  0.00000000000E+00 0. -1.
         11    1    4    4    0    0  0.12623340773E+02 -0.27606854643E+02  0.95660290665E+02  0.10036123936E+03  0.00000000000E+00 0.  1.
</event>
<event>
 8    1  0.7192024E-009  0.1171976E+03  0.7561462E-02  0.1247793E+00
         -2   -1    0    0    0  501 -0.00000000000E+00  0.00000000000E+00  0.22407626031E+03  0.22407626031E+03  0.00000000000E+00 0.  1.
          2   -1    0    0  501    0  0.00000000000E+00 -0.00000000000E+00 -0.83717159978E+02  0.83717159978E+02  0.00000000000E+00 0. -1.
         25    2    1    2    0    0  0.67487923603E+02 -0.75061459823E+01  0.13159443438E+03  0.19384449449E+03  0.12509049055E+03 0.  0.
         23    2    1    2    0    0 -0.67487923603E+02  0.75061459823E+01  0.87646659558E+01  0.11394892580E+03  0.91085543646E+02 0.  0.
          5    1    3    3  502    0  0.97240691513E+02  0.20723292326E+02  0.10563710908E+03  0.14512711031E+03  0.41800000000E+01 0.  1.
         -5    1    3    3    0  502 -0.29752767910E+02 -0.28229438308E+02  0.25957325297E+02  0.48717384187E+02  0.41800000000E+01 0.  1.
        -11    1    4    4    0    0 -0.37312568265E+02  0.36221359080E+02 -0.27405805643E+02  0.58781738551E+02  0.00000000000E+00 0. -1.
         11    1    4    4    0    0 -0.30175355338E+02 -0.28715213097E+02  0.36170471599E+02  0.55167187246E+02  0.00000000000E+00 0.  1.
</event>
<event>
 8    1  0.7192024E-009  0.1013354E+03  0.7561462E-02  0.1277513E+00
         -2   -1    0    0    0  501 -0.00000000000E+00  0.00000000000E+00  0.18970752625E+02  0.18970752625E+02  0.00000000000E+00 0. -1.
          2   -1    0    0  501    0  0.00000000000E+00 -0.00000000000E+00 -0.77201189059E+03  0.77201189059E+03  0.00000000000E+00 0.  1.
         25    2    1    2    0    0 -0.14247368724E+02 -0.21897796209E+02 -0.58150539060E+03  0.59538169023E+03  0.12509331227E+03 0.  0.
         23    2    1    2    0    0  0.14247368724E+02  0.21897796209E+02 -0.17153574737E+03  0.19560095298E+03  0.90292409362E+02 0.  0.
          5    1    3    3  502    0 -0.10888366115E+02  0.47823969809E+02 -0.35300883845E+03  0.35642446749E+03  0.41800000000E+01 0. -1.
         -5    1    3    3    0  502 -0.33590026085E+01 -0.69721766017E+02 -0.22849655215E+03  0.23895722274E+03  0.41800000000E+01 0. -1.
        -11    1    4    4    0    0 -0.80361873873E+01 -0.27861100217E+02 -0.21886864447E+02  0.36329823126E+02  0.00000000000E+00 0. -1.
         11    1    4    4    0    0  0.22283556111E+02  0.49758896426E+02 -0.14964888292E+03  0.15927112985E+03  0.00000000000E+00 0.  1.
</event>
<event>
 8    1  0.7192024E-009  0.1351998E+03  0.7561462E-02  0.1219938E+00
          1   -1    0    0  501    0  0.00000000000E+00  0.00000000000E+00  0.67996766127E+02  0.67996766127E+02  0.00000000000E+00 0. -1.
         -1   -1    0    0    0  501 -0.00000000000E+00 -0.00000000000E+00 -0.38342044488E+03  0.38342044488E+03  0.00000000000E+00 0.  1.
         25    2    1    2    0    0 -0.89397342396E+02 -0.38188948760E+02 -0.68845917426E+02  0.17273537650E+03  0.12508984497E+03 0.  0.
         23    2    1    2    0    0  0.89397342396E+02  0.38188948760E+02 -0.24657776133E+03  0.27868183450E+03  0.86096991043E+02 0.  0.
          5    1    3    3  502    0 -0.96281488171E+02 -0.72926419738E+02 -0.41441452460E+02  0.12776249075E+03  0.41800000000E+01 0.  1.
         -5    1    3    3    0  502  0.68841457747E+01  0.34737470978E+02 -0.27404464965E+02  0.44972885754E+02  0.41800000000E+01 0.  1.
        -11    1    4    4    0    0  0.38561426340E+02  0.48554370234E+02 -0.64970765083E+02  0.89809302334E+02  0.00000000000E+00 0.  1.
         11    1    4    4    0    0  0.50835916056E+02 -0.10365421475E+02 -0.18160699624E+03  0.18887253217E+03  0.00000000000E+00 0. -1.
</event>
<event>
 8    1  0.7192024E-009  0.1095119E+03  0.7561462E-02  0.1261476E+00
          1   -1    0    0  501    0  0.00000000000E+00  0.00000000000E+00  0.41118987503E+03  0.41118987503E+03  0.00000000000E+00 0. -1.
         -1   -1    0    0    0  501 -0.00000000000E+00 -0.00000000000E+00 -0.37080883172E+02  0.37080883172E+02  0.00000000000E+00 0.  1.
         25    2    1    2    0    0 -0.40433441054E+02 -0.13422111941E+02  0.28408918334E+03  0.31332026917E+03  0.12509160939E+03 0.  0.
         23    2    1    2    0    0  0.40433441054E+02  0.13422111941E+02  0.90019808522E+02  0.13495048903E+03  0.91066197460E+02 0.  0.
          5    1    3    3  502    0  0.32748743880E+02 -0.37737358164E+02  0.15483781644E+03  0.16275383322E+03  0.41800000000E+01 0.  1.
         -5    1    3    3    0  502 -0.73182184934E+02  0.24315246223E+02  0.12925136690E+03  0.15056643595E+03  0.41800000000E+01 0.  1.
        -11    1    4    4    0    0  0.21708035971E+02  0.47805028889E+02  0.77946519394E+02  0.93979888798E+02  0.00000000000E+00 0.  1.
         11    1    4    4    0    0  0.18725405083E+02 -0.34382916948E+02  0.12073289127E+02  0.40970600236E+02  0.00000000000E+00 0. -1.
</event>
<event>
 8    1  0.7192024E-009  0.1258221E+03  0.7561462E-02  0.1233790E+00
         -3   -1    0    0    0  501 -0.00000000000E+00  0.00000000000E+00  0.61201690978E+02  0.61201690978E+02  0.00000000000E+00 0.  1.
          3   -1    0    0  501    0  0.00000000000E+00 -0.00000000000E+00 -0.34571601799E+03  0.34571601799E+03  0.00000000000E+00 0. -1.
         25    2    1    2    0    0  0.61836490557E+02  0.70446507696E+02 -0.18690838599E+03  0.24365695670E+03  0.12508999074E+03 0.  0.
         23    2    1    2    0    0 -0.61836490557E+02 -0.70446507696E+02 -0.97605941021E+02  0.16326075227E+03  0.91327386353E+02 0.  0.
          5    1    3    3  502    0  0.83865744048E+02  0.64241912665E+02 -0.19259586397E+03  0.21970690837E+03  0.41800000000E+01 0. -1.
         -5    1    3    3    0  502 -0.22029253492E+02  0.62045950311E+01  0.56874779826E+01  0.23950048323E+02  0.41800000000E+01 0. -1.
        -11    1    4    4    0    0 -0.65129728308E+02 -0.85366325485E+02 -0.60762686393E+02  0.12337501811E+03  0.00000000000E+00 0.  1.
         11    1    4    4    0    0  0.32932377516E+01  0.14919817789E+02 -0.36843254628E+02  0.39885734158E+02  0.00000000000E+00 0. -1.
</event>
<event>
 8    1  0.7192024E-009  0.1262679E+03  0.7561462E-02  0.1233101E+00
         -1   -1    0    0    0  501 -0.00000000000E+00  0.00000000000E+00  0.23708278919E+02  0.23708278919E+02  0.00000000000E+00 0.  1.
          1   -1    0    0  501    0  0.00000000000E+00 -0.00000000000E+00 -0.71529755706E+03  0.71529755706E+03  0.00000000000E+00 0. -1.
         25    2    1    2    0    0 -0.26263299514E+02  0.66682020753E+02 -0.44430059266E+03  0.46710457694E+03  0.12508963333E+03 0.  0.
         23    2    1    2    0    0  0.26263299514E+02 -0.66682020753E+02 -0.24728868548E+03  0.27190125904E+03  0.87420523376E+02 0.  0.
          5    1    3    3  502    0 -0.25001202265E+02  0.10194094484E+03 -0.37199140419E+03  0.38653860550E+03  0.41800000000E+01 0.  1.
         -5    1    3    3    0  502 -0.12620972488E+01 -0.35258924085E+02 -0.72309188472E+02  0.80565971444E+02  0.41800000000E+01 0.  1.
        -11    1    4    4    0    0  0.12267779002E+02 -0.86685353780E+02 -0.20759332376E+03  0.22529943859E+03  0.00000000000E+00 0. -1.
         11    1    4    4    0    0  0.13995520512E+02  0.20003333027E+02 -0.39695361722E+02  0.46601820445E+02  0.00000000000E+00 0.  1.
</event>
<event>
 8    1  0.7192024E-009  0.1055762E+03  0.7561462E-02  0.1268988E+00
          1   -1    0    0  501    0  0.00000000000E+00  0.00000000000E+00  0.65419431075E+03  0.65419431075E+03  0.00000000000E+00 0. -1.
         -1   -1    0    0    0  501 -0.00000000000E+00 -0.00000000000E+00 -0.25055232021E+02  0.25055232021E+02  0.00000000000E+00 0.  1.
         25    2    1    2    0    0 -0.38308468404E+02 -0.53351160940E+02  0.43723251052E+03  0.45949104042E+03  0.12508342353E+03 0.  0.
         23    2    1    2    0    0  0.38308468404E+02  0.53351160940E+02  0.19190656821E+03  0.21975850235E+03  0.84568216905E+02 0.  0.
          5    1    3    3  502    0 -0.50126976795E+02 -0.87704790360E+00  0.36944615359E+03  0.37285575738E+03  0.41800000000E+01 0. -1.
         -5    1    3    3    0  502  0.11818508392E+02 -0.52474113036E+02  0.67786356939E+02  0.86635283036E+02  0.41800000000E+01 0. -1.
        -11    1    4    4    0    0 -0.20531013578E+02  0.42307762711E+02  0.78061493508E+02  0.91132135237E+02  0.00000000000E+00 0.  1.
         11    1    4    4    0    0  0.58839481982E+02  0.11043398229E+02  0.11384507470E+03  0.12862636712E+03  0.00000000000E+00 0. -1.
</event>
<event>
 8    1  0.7192024E-009  0.2795810E+03  0.7561462E-02  0.1095918E+00
         -2   -1    0    0    0  501 -0.00000000000E+00  0.00000000000E+00  0.19783129450E+03  0.19783129450E+03  0.00000000000E+00 0.  1.
          2   -1    0    0  501    0  0.00000000000E+00 -0.00000000000E+00 -0.50677506423E+03  0.50677506423E+03  0.00000000000E+00 0. -1.
         25    2    1    2    0    0 -0.10980880120E+03  0.25323156308E+03 -0.35048527966E+02  0.30505907308E+03  0.12509373044E+03 0.  0.
         23    2    1    2    0    0  0.10980880120E+03 -0.25323156308E+03 -0.27389524177E+03  0.39954728565E+03  0.91843522619E+02 0.  0.
          5    1    3    3  502    0 -0.84785412338E+02  0.11687422627E+03  0.36507067089E+02  0.14899123887E+03  0.41800000000E+01 0. -1.
         -5    1    3    3    0  502 -0.25023388860E+02  0.13635733682E+03 -0.71555595054E+02  0.15606783422E+03  0.41800000000E+01 0. -1.
        -11    1    4    4    0    0  0.34322142121E+02 -0.78676034581E+02 -0.14921431411E+03  0.17214191643E+03  0.00000000000E+00 0. -1.
         11    1    4    4    0    0  0.75486659077E+02 -0.17455552850E+03 -0.12468092766E+03  0.22740536922E+03  0.00000000000E+00 0.  1.
</event>
<event>
 8    1  0.7192024E-009  0.9571473E+02  0.7561462E-02  0.1289574E+00
          1   -1    0    0  501    0  0.00000000000E+00  0.00000000000E+00  0.27207093267E+02  0.27207093267E+02  0.00000000000E+00 0. -1.
         -1   -1    0    0    0  501 -0.00000000000E+00 -0.00000000000E+00 -0.52865584065E+03  0.52865584065E+03  0.00000000000E+00 0.  1.
         25    2    1    2    0    0  0.12898166027E+02 -0.37755266269E+02 -0.37819588927E+03  0.40033888240E+03  0.12508903745E+03 0.  0.
         23    2    1    2    0    0 -0.12898166027E+02  0.37755266269E+02 -0.12325285812E+03  0.15552405151E+03  0.86050222235E+02 0.  0.
          5    1    3    3  502    0  0.61406439052E+00 -0.81279441893E+02 -0.18921260768E+03  0.20597477529E+03  0.41800000000E+01 0. -1.
         -5    1    3    3    0  502  0.12284101636E+02  0.43524175623E+02 -0.18898328158E+03  0.19436410711E+03  0.41800000000E+01 0. -1.
        -11    1    4    4    0    0  0.84564646291E+01 -0.95290279807E+01  0.75485595091E+01  0.14808609622E+02  0.00000000000E+00 0. -1.
         11    1    4    4    0    0 -0.21354630656E+02  0.47284294250E+02 -0.13080141763E+03  0.14071544189E+03  0.00000000000E+00 0.  1.
</event>
<event>
 8    1  0.7192024E-009  0.1136416E+03  0.7561462E-02  0.1253971E+00
         -1   -1    0    0    0  501 -0.00000000000E+00  0.00000000000E+00  0.35457323911E+03  0.35457323911E+03  0.00000000000E+00 0.  1.
          1   -1    0    0  501    0  0.00000000000E+00 -0.00000000000E+00 -0.51781007772E+02  0.51781007772E+02  0.00000000000E+00 0. -1.
         25    2    1    2    0    0 -0.34112730574E+02  0.11261546457E+02  0.27334947626E+03  0.30275881291E+03  0.12510979900E+03 0.  0.
         23    2    1    2    0    0  0.34112730574E+02 -0.11261546457E+02  0.29442755080E+02  0.10359543398E+03  0.92599337463E+02 0.  0.
          5    1    3    3  502    0  0.46207693700E+02  0.10748208475E+02  0.12905222918E+03  0.13755953329E+03  0.41800000000E+01 0. -1.
         -5    1    3    3    0  502 -0.80320424274E+02  0.51333798210E+00  0.14429724709E+03  0.16519927962E+03  0.41800000000E+01 0. -1.
        -11    1    4    4    0    0 -0.25575756579E+02  0.19421636045E+02  0.74070170596E+01  0.32957293168E+02  0.00000000000E+00 0.  1.
         11    1    4    4    0    0  0.59688487152E+02 -0.30683182502E+02  0.22035738020E+02  0.70638140810E+02  0.00000000000E+00 0. -1.
</event>
<event>
 8    1  0.7192024E-009  0.1750317E+03  0.7561462E-02  0.1172700E+00
          1   -1    0    0  501    0  0.00000000000E+00  0.00000000000E+00  0.81399245220E+02  0.81399245220E+02  0.00000000000E+00 0. -1.
         -1   -1    0    0    0  501 -0.00000000000E+00 -0.00000000000E+00 -0.42503691653E+03  0.42503691653E+03  0.00000000000E+00 0.  1.
         25    2    1    2    0    0 -0.48806987617E+02  0.12744007552E+03 -0.95832873367E+02  0.20845687318E+03  0.12508890227E+03 0.  0.
         23    2    1    2    0    0  0.48806987617E+02 -0.12744007552E+03 -0.24780479794E+03  0.29797928857E+03  0.93602049367E+02 0.  0.
          5    1    3    3  502    0 -0.20893017496E+02 -0.23096924532E+02 -0.10513924089E+02  0.33136099690E+02  0.41800000000E+01 0. -1.
         -5    1    3    3    0  502 -0.27913970121E+02  0.15053700005E+03 -0.85318949278E+02  0.17532077349E+03  0.41800000000E+01 0. -1.
        -11    1    4    4    0    0  0.58618393636E+02 -0.26959376195E+02 -0.97515561247E+02  0.11692822039E+03  0.00000000000E+00 0. -1.
         11    1    4    4    0    0 -0.98114060191E+01 -0.10048069932E+03 -0.15028923670E+03  0.18105106818E+03  0.00000000000E+00 0.  1.
</event>
<event>
 8    1  0.7192024E-009  0.1435313E+03  0.7561462E-02  0.1208655E+00
          1   -1    0    0  501    0  0.00000000000E+00  0.00000000000E+00  0.21219025287E+03  0.21219025287E+03  0.00000000000E+00 0. -1.
         -1   -1    0    0    0  501 -0.00000000000E+00 -0.00000000000E+00 -0.11410239096E+03  0.11410239096E+03  0.00000000000E+00 0.  1.
         25    2    1    2    0    0 -0.10483804866E+03  0.40148765596E+02  0.53240707578E+02  0.17630533346E+03  0.12508420299E+03 0.  0.
         23    2    1    2    0    0  0.10483804866E+03 -0.40148765596E+02  0.44847154335E+02  0.14998731036E+03  0.88780550757E+02 0.  0.
          5    1    3    3  502    0 -0.45845282131E+02  0.79826267251E+02  0.92865096399E+01  0.92616059613E+02  0.41800000000E+01 0. -1.
         -5    1    3    3    0  502 -0.58992766530E+02 -0.39677501656E+02  0.43954197938E+02  0.83689273846E+02  0.41800000000E+01 0. -1.
        -11    1    4    4    0    0  0.35096150376E+02 -0.40972834397E+02 -0.17211735831E+02  0.56628233065E+02  0.00000000000E+00 0.  1.
         11    1    4    4    0    0  0.69741898284E+02  0.82406880103E+00  0.62058890166E+02  0.93359077300E+02  0.00000000000E+00 0. -1.
</event>
<event>
 8    1  0.7192024E-009  0.1445469E+03  0.7561462E-02  0.1207339E+00
          2   -1    0    0  501    0  0.00000000000E+00  0.00000000000E+00  0.93917973294E+03  0.93917973294E+03  0.00000000000E+00 0. -1.
         -2   -1    0    0    0  501 -0.00000000000E+00 -0.00000000000E+00 -0.25660729138E+02  0.25660729138E+02  0.00000000000E+00 0.  1.
         25    2    1    2    0    0 -0.37165533574E+02  0.99390902832E+02  0.60580197402E+03  0.62761769498E+03  0.12509240935E+03 0.  0.
         23    2    1    2    0    0  0.37165533574E+02 -0.99390902832E+02  0.30771702979E+03  0.33722276710E+03  0.88145310588E+02 0.  0.
          5    1    3    3  502    0 -0.71346134741E+02  0.28995411504E+02  0.20077953785E+03  0.21508347229E+03  0.41800000000E+01 0.  1.
         -5    1    3    3    0  502  0.34180601167E+02  0.70395491328E+02  0.40502243617E+03  0.41253422269E+03  0.41800000000E+01 0.  1.
        -11    1    4    4    0    0 -0.24710594798E+02 -0.44433124025E+02  0.78530094472E+02  0.93551545918E+02  0.00000000000E+00 0.  1.
         11    1    4    4    0    0  0.61876128372E+02 -0.54957778808E+02  0.22918693531E+03  0.24367122118E+03  0.00000000000E+00 0. -1.
</event>
<event>
 8    1  0.7192024E-009  0.7855343E+02  0.7561462E-02  0.1333207E+00
         -2   -1    0    0    0  501 -0.00000000000E+00  0.00000000000E+00  0.12351683630E+03  0.12351683630E+03  0.00000000000E+00 0.  1.
          2   -1    0    0  501    0  0.00000000000E+00 -0.00000000000E+00 -0.12493793100E+03  0.12493793100E+03  0.00000000000E+00 0. -1.
         25    2    1    2    0    0 -0.47063984382E+02 -0.22175289723E+02  0.28357066915E+02  0.13841577147E+03  0.12509212783E+03 0.  0.
         23    2    1    2    0    0  0.47063984382E+02  0.22175289723E+02 -0.29778161609E+02  0.11003899583E+03  0.92277188920E+02 0.  0.
          5    1    3    3  502    0 -0.35987538000E+02  0.38996727604E+01  0.75171263665E+02  0.83537426462E+02  0.41800000000E+01 0.  1.
         -5    1    3    3    0  502 -0.11076446382E+02 -0.26074962483E+02 -0.46814196750E+02  0.54878345003E+02  0.41800000000E+01 0.  1.
        -11    1    4    4    0    0  0.16079827279E+01  0.42292240150E+02 -0.41167666484E+02  0.59042323372E+02  0.00000000000E+00 0. -1.
         11    1    4    4    0    0  0.45456001654E+02 -0.20116950427E+02  0.11389504875E+02  0.50996672461E+02  0.00000000000E+00 0.  1.
</event>
<event>
 8    1  0.7192024E-009  0.1566491E+03  0.7561462E-02  0.1192533E+00
          2   -1    0    0  501    0  0.00000000000E+00  0.00000000000E+00  0.82865188551E+02  0.82865188551E+02  0.00000000000E+00 0. -1.
         -2   -1    0    0    0  501 -0.00000000000E+00 -0.00000000000E+00 -0.42647816204E+03  0.42647816204E+03  0.00000000000E+00 0.  1.
         25    2    1    2    0    0 -0.18455317852E+01  0.15322335414E+03 -0.15895800987E+03  0.25376387269E+03  0.12509057494E+03 0.  0.
         23    2    1    2    0    0  0.18455317852E+01 -0.15322335414E+03 -0.18465496362E+03  0.25557947790E+03  0.87992111533E+02 0.  0.
          5    1    3    3  502    0  0.33258434657E+01  0.14883451040E+03 -0.70194638189E+02  0.16464365263E+03  0.41800000000E+01 0.  1.
         -5    1    3    3    0  502 -0.51713752509E+01  0.43888437440E+01 -0.88763371681E+02  0.89120220061E+02  0.41800000000E+01 0.  1.
        -11    1    4    4    0    0 -0.14437769397E+02 -0.87929775534E+02 -0.43400179907E+02  0.99114429961E+02  0.00000000000E+00 0. -1.
         11    1    4    4    0    0  0.16283301183E+02 -0.65293578609E+02 -0.14125478371E+03  0.15646504794E+03  0.00000000000E+00 0.  1.
</event>
<event>
 8    1  0.7192024E-009  0.1350445E+03  0.7561462E-02  0.1220157E+00
          1   -1    0    0  501    0  0.00000000000E+00  0.00000000000E+00  0.38767784678E+03  0.38767784678E+03  0.00000000000E+00 0. -1.
         -1   -1    0    0    0  501 -0.00000000000E+00 -0.00000000000E+00 -0.55442928845E+02  0.55442928845E+02  0.00000000000E+00 0.  1.
         25    2    1    2    0    0 -0.86257399190E+02  0.32424984323E+02  0.23661524485E+03  0.28306506103E+03  0.12508931272E+03 0.  0.
         23    2    1    2    0    0  0.86257399190E+02 -0.32424984323E+02  0.95619673094E+02  0.16005571460E+03  0.89347587384E+02 0.  0.
          5    1    3    3  502    0  0.59967911004E+00  0.52656364550E+02  0.14853756699E+03  0.15765130367E+03  0.41800000000E+01 0.  1.
         -5    1    3    3    0  502 -0.86857078300E+02 -0.20231380227E+02  0.88077677856E+02  0.12541375735E+03  0.41800000000E+01 0.  1.
        -11    1    4    4    0    0  0.40984932329E+02  0.30056197687E+02  0.43974828088E+02  0.67208073941E+02  0.00000000000E+00 0.  1.
         11    1    4    4    0    0  0.45272466861E+02 -0.62481182010E+02  0.51644845005E+02  0.92847640663E+02  0.00000000000E+00 0. -1.
</event>
<event>
 8    1  0.7192024E-009  0.2526388E+03  0.7561462E-02  0.1111648E+00
          1   -1    0    0  501    0  0.00000000000E+00  0.00000000000E+00  0.27219808635E+03  0.27219808635E+03  0.00000000000E+00 0. -1.
         -1   -1    0    0    0  501 -0.00000000000E+00 -0.00000000000E+00 -0.24518301830E+03  0.24518301830E+03  0.00000000000E+00 0.  1.
         25    2    1    2    0    0  0.22094402969E+03  0.77658764392E+02  0.12226691293E+02  0.26579038655E+03  0.12509152513E+03 0.  0.
         23    2    1    2    0    0 -0.22094402969E+03 -0.77658764392E+02  0.14788376760E+02  0.25159071810E+03  0.90730619985E+02 0.  0.
          5    1    3    3  502    0  0.22549156809E+03  0.88046943446E+02 -0.79866212503E+01  0.24223948904E+03  0.41800000000E+01 0. -1.
         -5    1    3    3    0  502 -0.45475384026E+01 -0.10388179054E+02  0.20213312543E+02  0.23550897510E+02  0.41800000000E+01 0. -1.
        -11    1    4    4    0    0 -0.11528225241E+03 -0.87838421549E+02  0.11504538258E+02  0.14538892813E+03  0.00000000000E+00 0. -1.
         11    1    4    4    0    0 -0.10566177728E+03  0.10179657157E+02  0.32838385026E+01  0.10620178997E+03  0.00000000000E+00 0.  1.
</event>
<event>
 8    1  0.7192024E-009  0.1238776E+03  0.7561462E-02  0.1236834E+00
          1   -1    0    0  501    0  0.00000000000E+00  0.00000000000E+00  0.11251209938E+03  0.11251209938E+03  0.00000000000E+00 0. -1.
         -1   -1    0    0    0  501 -0.00000000000E+00 -0.00000000000E+00 -0.17046453303E+03  0.17046453303E+03  0.00000000000E+00 0.  1.
         25    2    1    2    0    0 -0.74686377383E+02  0.79247203524E+01  0.72121789684E+01  0.14608443928E+03  0.12509113364E+03 0.  0.
         23    2    1    2    0    0  0.74686377383E+02 -0.79247203524E+01 -0.65164612623E+02  0.13689219313E+03  0.94086075716E+02 0.  0.
          5    1    3    3  502    0 -0.80408595872E+02 -0.32313992007E+02  0.38207727054E+02  0.94799995655E+02  0.41800000000E+01 0. -1.
         -5    1    3    3    0  502  0.57222184894E+01  0.40238712360E+02 -0.30995548086E+02  0.51284443625E+02  0.41800000000E+01 0. -1.
        -11    1    4    4    0    0  0.96389697024E+02  0.16797498708E+01 -0.55719076893E+02  0.11134815123E+03  0.00000000000E+00 0.  1.
         11    1    4    4    0    0 -0.21703319641E+02 -0.96044702232E+01 -0.94455357299E+01  0.25544041907E+02  0.00000000000E+00 0. -1.
</event>
<event>
 8    1  0.7192024E-009  0.1072614E+03  0.7561462E-02  0.1265727E+00
         -1   -1    0    0    0  501 -0.00000000000E+00  0.00000000000E+00  0.13203320676E+03  0.13203320676E+03  0.00000000000E+00 0.  1.
          1   -1    0    0  501    0  0.00000000000E+00 -0.00000000000E+00 -0.17593662664E+03  0.17593662664E+03  0.00000000000E+00 0. -1.
         25    2    1    2    0    0 -0.61703234762E+02 -0.26977213970E+02 -0.10730213952E+03  0.17803247907E+03  0.12508699055E+03 0.  0.
         23    2    1    2    0    0  0.61703234762E+02  0.26977213970E+02  0.63398719634E+02  0.12993735433E+03  0.91264774943E+02 0.  0.
          5    1    3    3  502    0 -0.59006602061E+02  0.21927237660E+02 -0.11210933232E+03  0.12864119725E+03  0.41800000000E+01 0.  1.
         -5    1    3    3    0  502 -0.26966327012E+01 -0.48904451631E+02  0.48071927949E+01  0.49391281820E+02  0.41800000000E+01 0.  1.
        -11    1    4    4    0    0  0.46165041802E+02  0.54038734370E+02  0.15457125345E+02  0.72734576515E+02  0.00000000000E+00 0. -1.
         11    1    4    4    0    0  0.15538192959E+02 -0.27061520399E+02  0.47941594289E+02  0.57202777815E+02  0.00000000000E+00 0.  1.
</event>
<event>
 8    1  0.7192024E-009  0.8951462E+02  0.7561462E-02  0.1304031E+00
          1   -1    0    0  501    0  0.00000000000E+00  0.00000000000E+00  0.25176852624E+03  0.25176852624E+03  0.00000000000E+00 0.  1.
         -1   -1    0    0    0  501 -0.00000000000E+00 -0.00000000000E+00 -0.56601482741E+02  0.56601482741E+02  0.00000000000E+00 0. -1.
         25    2    1    2    0    0 -0.12408776677E+02 -0.40965352886E+02  0.14096572107E+03  0.19325979172E+03  0.12508347095E+03 0.  0.
         23    2    1    2    0    0  0.12408776677E+02  0.40965352886E+02  0.54201322431E+02  0.11511021726E+03  0.92089309304E+02 0.  0.
          5    1    3    3  502    0 -0.39781003538E+02  0.20767803187E+02  0.10995383852E+03  0.11883244042E+03  0.41800000000E+01 0.  1.
         -5    1    3    3    0  502  0.27372226861E+02 -0.61733156074E+02  0.31011882545E+02  0.74427351298E+02  0.41800000000E+01 0.  1.
        -11    1    4    4    0    0  0.31653951696E+02  0.18285723230E+02  0.71784982705E+02  0.80556961673E+02  0.00000000000E+00 0.  1.
         11    1    4    4    0    0 -0.19245175019E+02  0.22679629656E+02 -0.17583660274E+02  0.34553255585E+02  0.00000000000E+00 0. -1.
</event>
<event>
 8    1  0.7192024E-009  0.1480012E+03  0.7561462E-02  0.1202951E+00
          4   -1    0    0  501    0  0.00000000000E+00  0.00000000000E+00  0.24055953818E+03  0.24055953818E+03  0.00000000000E+00 0.  1.
         -4   -1    0    0    0  501 -0.00000000000E+00 -0.00000000000E+00 -0.13043596396E+03  0.13043596396E+03  0.00000000000E+00 0. -1.
         25    2    1    2    0    0  0.12552289126E+03 -0.17605461691E+00 -0.56552810261E+01  0.17730273385E+03  0.12509296544E+03 0.  0.
         23    2    1    2    0    0 -0.12552289126E+03  0.17605461691E+00  0.11577885525E+03  0.19369276829E+03  0.91411804153E+02 0.  0.
          5    1    3    3  502    0  0.11109256326E+03  0.46578758270E+02 -0.27375977352E+02  0.12360442901E+03  0.41800000000E+01 0.  1.
         -5    1    3    3    0  502  0.14430327997E+02 -0.46754812887E+02  0.21720696326E+02  0.53698304844E+02  0.41800000000E+01 0.  1.
        -11    1    4    4    0    0 -0.36377643099E+02  0.66422604928E+01  0.94980705089E+02  0.10192539861E+03  0.00000000000E+00 0.  1.
         11    1    4    4    0    0 -0.89145248163E+02 -0.64662058759E+01  0.20798150162E+02  0.91767369683E+02  0.00000000000E+00 0. -1.
</event>
<event>
 8    1  0.7192024E-009  0.7841059E+02  0.7561462E-02  0.1333623E+00
         -1   -1    0    0    0  501 -0.00000000000E+00  0.00000000000E+00  0.90049505992E+02  0.90049505992E+02  0.00000000000E+00 0.  1.
          1   -1    0    0  501    0  0.00000000000E+00 -0.00000000000E+00 -0.67621945393E+03  0.67621945393E+03  0.00000000000E+00 0. -1.
         25    2    1    2    0    0  0.49382565579E+02  0.39012064509E+02 -0.63062489649E+03  0.64598513482E+03  0.12509378629E+03 0.  0.
         23    2    1    2    0    0 -0.49382565579E+02 -0.39012064509E+02  0.44454948550E+02  0.12028382511E+03  0.92365454429E+02 0.  0.
          5    1    3    3  502    0  0.47696592225E+02  0.26173265056E+02 -0.90420484189E+02  0.10560937967E+03  0.41800000000E+01 0.  1.
         -5    1    3    3    0  502  0.16859733540E+01  0.12838799453E+02 -0.54020441230E+03  0.54037575515E+03  0.41800000000E+01 0.  1.
        -11    1    4    4    0    0 -0.63953806584E+02 -0.25743473299E+02  0.62876467514E+02  0.93307373562E+02  0.00000000000E+00 0.  1.
         11    1    4    4    0    0  0.14571241005E+02 -0.13268591210E+02 -0.18421518964E+02  0.26976451547E+02  0.00000000000E+00 0. -1.
</event>
<event>
 8    1  0.7192024E-009  0.9163316E+02  0.7561462E-02  0.1298944E+00
         -2   -1    0    0    0  501 -0.00000000000E+00  0.00000000000E+00  0.11636493569E+03  0.11636493569E+03  0.00000000000E+00 0.  1.
          2   -1    0    0  501    0  0.00000000000E+00 -0.00000000000E+00 -0.12324924394E+03  0.12324924394E+03  0.00000000000E+00 0. -1.
         25    2    1    2    0    0 -0.25623421227E+02  0.39374087251E+02 -0.24325290047E+02  0.13581246759E+03  0.12508568325E+03 0.  0.
         23    2    1    2    0    0  0.25623421227E+02 -0.39374087251E+02  0.17440981802E+02  0.10380171203E+03  0.90905055486E+02 0.  0.
          5    1    3    3  502    0 -0.10575810507E+02 -0.34547683912E+02 -0.44634539095E+02  0.57576946010E+02  0.41800000000E+01 0.  1.
         -5    1    3    3    0  502 -0.15047610720E+02  0.73921771163E+02  0.20309249048E+02  0.78235521582E+02  0.41800000000E+01 0.  1.
        -11    1    4    4    0    0  0.33938563123E+02 -0.30470266729E+01  0.45719293281E+02  0.57020734970E+02  0.00000000000E+00 0.  1.
         11    1    4    4    0    0 -0.83151418962E+01 -0.36327060578E+02 -0.28278311479E+02  0.46780977064E+02  0.00000000000E+00 0. -1.
</event>
<event>
 8    1  0.7192024E-009  0.1638166E+03  0.7561462E-02  0.1184454E+00
         -2   -1    0    0    0  501 -0.00000000000E+00  0.00000000000E+00  0.69698614088E+02  0.69698614088E+02  0.00000000000E+00 0.  1.
          2   -1    0    0  501    0  0.00000000000E+00 -0.00000000000E+00 -0.81928163706E+03  0.81928163706E+03  0.00000000000E+00 0. -1.
         25    2    1    2    0    0 -0.10848080257E+03  0.81970285705E+02 -0.83160169548E+02  0.20260748129E+03  0.12508783078E+03 0.  0.
         23    2    1    2    0    0  0.10848080257E+03 -0.81970285705E+02 -0.66642285342E+03  0.68637276986E+03  0.92200582294E+02 0.  0.
          5    1    3    3  502    0  0.11258895237E+02  0.31339542174E+02 -0.62450854787E+02  0.70897893405E+02  0.41800000000E+01 0.  1.
         -5    1    3    3    0  502 -0.11973969781E+03  0.50630743531E+02 -0.20709314761E+02  0.13170958788E+03  0.41800000000E+01 0.  1.
        -11    1    4    4    0    0  0.72456049631E+01  0.19416611584E+02 -0.71708985597E+02  0.74643701757E+02  0.00000000000E+00 0.  1.
         11    1    4    4    0    0  0.10123519761E+03 -0.10138689729E+03 -0.59471386782E+03  0.61172906810E+03  0.00000000000E+00 0. -1.
</event>
<event>
 8    1  0.7192024E-009  0.1049615E+03  0.7561462E-02  0.1270196E+00
         -1   -1    0    0    0  501 -0.00000000000E+00  0.00000000000E+00  0.54140769568E+03  0.54140769568E+03  0.00000000000E+00 0.  1.
          1   -1    0    0  501    0  0.00000000000E+00 -0.00000000000E+00 -0.25413404883E+02  0.25413404883E+02  0.00000000000E+00 0. -1.
         25    2    1    2    0    0 -0.28199471864E+02  0.19478978599E+02  0.36368365845E+03  0.38611884019E+03  0.12508922618E+03 0.  0.
         23    2    1    2    0    0  0.28199471864E+02 -0.19478978599E+02  0.15231063235E+03  0.18070226037E+03  0.90995260076E+02 0.  0.
          5    1    3    3  502    0  0.11148013842E+02  0.64932646937E+02  0.23369440366E+03  0.24283960458E+03  0.41800000000E+01 0.  1.
         -5    1    3    3    0  502 -0.39347485706E+02 -0.45453668338E+02  0.12998925479E+03  0.14327923561E+03  0.41800000000E+01 0.  1.
        -11    1    4    4    0    0  0.45291469563E+02  0.12846371038E+02  0.12903990337E+03  0.13735953963E+03  0.00000000000E+00 0.  1.
         11    1    4    4    0    0 -0.17091997699E+02 -0.32325349638E+02  0.23270728976E+02  0.43342720745E+02  0.00000000000E+00 0. -1.
</event>
<event>
 8    1  0.7192024E-009  0.8453774E+02  0.7561462E-02  0.1316646E+00
         -2   -1    0    0    0  501 -0.00000000000E+00  0.00000000000E+00  0.92000691420E+02  0.92000691420E+02  0.00000000000E+00 0. -1.
          2   -1    0    0  501    0  0.00000000000E+00 -0.00000000000E+00 -0.14816164547E+03  0.14816164547E+03  0.00000000000E+00 0.  1.
         25    2    1    2    0    0  0.21121814088E+02  0.39845679197E+02 -0.41201964371E+02  0.13920708220E+03  0.12508877122E+03 0.  0.
         23    2    1    2    0    0 -0.21121814088E+02 -0.39845679197E+02 -0.14958989684E+02  0.10095525469E+03  0.89075153084E+02 0.  0.
          5    1    3    3  502    0  0.41725526939E+02  0.45006233502E+02  0.27348284458E+02  0.67319994914E+02  0.41800000000E+01 0. -1.
         -5    1    3    3    0  502 -0.20603712851E+02 -0.51605543051E+01 -0.68550248829E+02  0.71887087286E+02  0.41800000000E+01 0. -1.
        -11    1    4    4    0    0 -0.56292918789E+00  0.21349514383E+02 -0.27878552635E+02  0.35118831853E+02  0.00000000000E+00 0.  1.
         11    1    4    4    0    0 -0.20558884900E+02 -0.61195193581E+02  0.12919562951E+02  0.65836422841E+02  0.00000000000E+00 0. -1.
</event>
<event>
 8    1  0.7192024E-009  0.1261041E+03  0.7561462E-02  0.1233354E+00
          2   -1    0    0  501    0  0.00000000000E+00  0.00000000000E+00  0.91904588630E+02  0.91904588630E+02  0.00000000000E+00 0.  1.
         -2   -1    0    0    0  501 -0.00000000000E+00 -0.00000000000E+00 -0.27709552109E+03  0.27709552109E+03  0.00000000000E+00 0. -1.
         25    2    1    2    0    0 -0.67985162995E+02  0.29979455764E+01 -0.20863804190E+03  0.25260685284E+03  0.12509763991E+03 0.  0.
         23    2    1    2    0    0  0.67985162995E+02 -0.29979455764E+01  0.23447109434E+02  0.11639325688E+03  0.91469411504E+02 0.  0.
          5    1    3    3  502    0 -0.30829764694E+02 -0.60673289004E+02 -0.10948020657E+03  0.12897717015E+03  0.41800000000E+01 0.  1.
         -5    1    3    3    0  502 -0.37155398301E+02  0.63671234580E+02 -0.99157835327E+02  0.12362968269E+03  0.41800000000E+01 0.  1.
        -11    1    4    4    0    0  0.18876572670E+02  0.40436013746E+02 -0.50448431990E+01  0.44909315808E+02  0.00000000000E+00 0. -1.
         11    1    4    4    0    0  0.49108590325E+02 -0.43433959322E+02  0.28491952633E+02  0.71483941071E+02  0.00000000000E+00 0.  1.
</event>
<event>
 8    1  0.7192024E-009  0.9765087E+02  0.7561462E-02  0.1285315E+00
          4   -1    0    0  501    0  0.00000000000E+00  0.00000000000E+00  0.13327214609E+03  0.13327214609E+03  0.00000000000E+00 0. -1.
         -4   -1    0    0    0  501 -0.00000000000E+00 -0.00000000000E+00 -0.10316508731E+03  0.10316508731E+03  0.00000000000E+00 0.  1.
         25    2    1    2    0    0  0.39678943680E+02  0.17999429065E+02  0.93403366501E+01  0.13279118686E+03  0.12509140418E+03 0.  0.
         23    2    1    2    0    0 -0.39678943680E+02 -0.17999429065E+02  0.20766722125E+02  0.10364604655E+03  0.91721579789E+02 0.  0.
          5    1    3    3  502    0  0.46039648628E+02 -0.40664875828E+02  0.32067545632E+02  0.69419602813E+02  0.41800000000E+01 0. -1.
         -5    1    3    3    0  502 -0.63607049477E+01  0.58664304893E+02 -0.22727208982E+02  0.63371584043E+02  0.41800000000E+01 0. -1.
        -11    1    4    4    0    0 -0.34330717068E+02  0.17598948118E+02  0.45737591523E+02  0.59835176841E+02  0.00000000000E+00 0. -1.
         11    1    4    4    0    0 -0.53482266117E+01 -0.35598377183E+02 -0.24970869398E+02  0.43810869707E+02  0.00000000000E+00 0.  1.
</event>
<event>
 8    1  0.7192024E-009  0.1312565E+03  0.7561462E-02  0.1225603E+00
          2   -1    0    0  501    0  0.00000000000E+00  0.00000000000E+00  0.35913284425E+02  0.35913284425E+02  0.00000000000E+00 0. -1.
         -2   -1    0    0    0  501 -0.00000000000E+00 -0.00000000000E+00 -0.71322793997E+03  0.71322793997E+03  0.00000000000E+00 0.  1.
         25    2    1    2    0    0 -0.78897110194E+02 -0.34870351148E+02 -0.54248707429E+03  0.56336545666E+03  0.12509083342E+03 0.  0.
         23    2    1    2    0    0  0.78897110194E+02  0.34870351148E+02 -0.13482758125E+03  0.18577576773E+03  0.94305163283E+02 0.  0.
          5    1    3    3  502    0 -0.54898250733E+02  0.42848656959E+02 -0.27809004805E+03  0.28670781740E+03  0.41800000000E+01 0.  1.
         -5    1    3    3    0  502 -0.23998859461E+02 -0.77719008107E+02 -0.26439702624E+03  0.27665763926E+03  0.41800000000E+01 0.  1.
        -11    1    4    4    0    0  0.53187240197E+02 -0.14939936797E+02 -0.21385251017E+02  0.59240300407E+02  0.00000000000E+00 0. -1.
         11    1    4    4    0    0  0.25709869997E+02  0.49810287945E+02 -0.11344233024E+03  0.12653546732E+03  0.00000000000E+00 0.  1.
</event>
<event>
 8    1  0.7192024E-009  0.1305230E+03  0.7561462E-02  0.1226682E+00
          1   -1    0    0  501    0  0.00000000000E+00  0.00000000000E+00  0.10765055958E+04  0.10765055958E+04  0.00000000000E+00 0. -1.
         -1   -1    0    0    0  501 -0.00000000000E+00 -0.00000000000E+00 -0.25100478514E+02  0.25100478514E+02  0.00000000000E+00 0.  1.
         25    2    1    2    0    0  0.10347909119E+03 -0.55438066059E+02  0.68523051782E+03  0.70637774742E+03  0.12508940009E+03 0.  0.
         23    2    1    2    0    0 -0.10347909119E+03  0.55438066059E+02  0.36617459951E+03  0.39522832694E+03  0.91325196998E+02 0.  0.
          5    1    3    3  502    0  0.34082360546E+02 -0.44411105548E+02  0.83945915056E+02  0.10098684395E+03  0.41800000000E+01 0.  1.
         -5    1    3    3    0  502  0.69396730646E+02 -0.11026960512E+02  0.60128460276E+03  0.60539090347E+03  0.41800000000E+01 0.  1.
        -11    1    4    4    0    0 -0.59327481225E+02  0.66381155067E+02  0.31218153866E+03  0.32462828105E+03  0.00000000000E+00 0.  1.
         11    1    4    4    0    0 -0.44151609967E+02 -0.10943089007E+02  0.53993060845E+02  0.70600045886E+02  0.00000000000E+00 0. -1.
</event>
<event>
 8    1  0.7192024E-009  0.1504006E+03  0.7561462E-02  0.1199982E+00
          2   -1    0    0  501    0  0.00000000000E+00  0.00000000000E+00  0.97825905345E+02  0.97825905345E+02  0.00000000000E+00 0. -1.
         -2   -1    0    0    0  501 -0.00000000000E+00 -0.00000000000E+00 -0.24010933064E+03  0.24010933064E+03  0.00000000000E+00 0.  1.
         25    2    1    2    0    0  0.30120245101E+02  0.10239082224E+03 -0.92591029427E+02  0.18871040782E+03  0.12508960646E+03 0.  0.
         23    2    1    2    0    0 -0.30120245101E+02 -0.10239082224E+03 -0.49692395865E+02  0.14922482816E+03  0.91692995856E+02 0.  0.
          5    1    3    3  502    0  0.58781963237E+02  0.16573164651E+01 -0.25293976812E+02  0.64150787702E+02  0.41800000000E+01 0. -1.
         -5    1    3    3    0  502 -0.28661718136E+02  0.10073350578E+03 -0.67297052615E+02  0.12455962012E+03  0.41800000000E+01 0. -1.
        -11    1    4    4    0    0 -0.50968865106E+01  0.15603006707E+02  0.44582793545E+01  0.17009065971E+02  0.00000000000E+00 0. -1.
         11    1    4    4    0    0 -0.25023358590E+02 -0.11799382895E+03 -0.54150675220E+02  0.13221576219E+03  0.00000000000E+00 0.  1.
</event>
<event>
 8    1  0.7192024E-009  0.1120363E+03  0.7561462E-02  0.1256845E+00
          2   -1    0    0  501    0  0.00000000000E+00  0.00000000000E+00  0.62070399665E+03  0.62070399665E+03  0.00000000000E+00 0. -1.
         -2   -1    0    0    0  501 -0.00000000000E+00 -0.00000000000E+00 -0.60308306400E+02  0.60308306400E+02  0.00000000000E+00 0.  1.
         25    2    1    2    0    0  0.51658110409E+01  0.10964862089E+03  0.49936343641E+03  0.52636512195E+03  0.12508754658E+03 0.  0.
         23    2    1    2    0    0 -0.51658110409E+01 -0.10964862089E+03  0.61032253840E+02  0.15464718110E+03  0.90229202303E+02 0.  0.
          5    1    3    3  502    0  0.17514033840E+02  0.53117031867E+02  0.56121864295E+02  0.79342904583E+02  0.41800000000E+01 0. -1.
         -5    1    3    3    0  502 -0.12348222799E+02  0.56531589022E+02  0.44324157212E+03  0.44702221736E+03  0.41800000000E+01 0. -1.
        -11    1    4    4    0    0  0.34443001019E+00 -0.62650274379E+02  0.81744985483E+02  0.10299232090E+03  0.00000000000E+00 0. -1.
         11    1    4    4    0    0 -0.55102410511E+01 -0.46998346511E+02 -0.20712731643E+02  0.51654860210E+02  0.00000000000E+00 0.  1.
</event>
<event>
 8    1  0.7192024E-009  0.2153001E+03  0.7561462E-02  0.1137436E+00
         -2   -1    0    0    0  501 -0.00000000000E+00  0.00000000000E+00  0.39619904395E+02  0.39619904395E+02  0.00000000000E+00 0.  1.
          2   -1    0    0  501    0  0.00000000000E+00 -0.00000000000E+00 -0.12462634915E+04  0.12462634915E+04  0.00000000000E+00 0. -1.
         25    2    1    2    0    0  0.12213625568E+03 -0.14799175691E+03 -0.70166414695E+03  0.73810491794E+03  0.12508984657E+03 0.  0.
         23    2    1    2    0    0 -0.12213625568E+03  0.14799175691E+03 -0.50497944017E+03  0.54777847797E+03  0.90764535281E+02 0.  0.
          5    1    3    3  502    0  0.14488892298E+03 -0.12619021964E+03 -0.53584283971E+03  0.56926425569E+03  0.41800000000E+01 0. -1.
         -5    1    3    3    0  502 -0.22752667300E+02 -0.21801537268E+02 -0.16582130724E+03  0.16884066226E+03  0.41800000000E+01 0. -1.
        -11    1    4    4    0    0 -0.12803625844E+02 -0.87610593784E+01 -0.13934638066E+02  0.20853372250E+02  0.00000000000E+00 0.  1.
         11    1    4    4    0    0 -0.10933262983E+03  0.15675281629E+03 -0.49104480211E+03  0.52692510572E+03  0.00000000000E+00 0. -1.
</event>
<event>
 8    1  0.7192024E-009  0.9846574E+02  0.7561462E-02  0.1283556E+00
          2   -1    0    0  501    0  0.00000000000E+00  0.00000000000E+00  0.67441487822E+03  0.67441487822E+03  0.00000000000E+00 0. -1.
         -2   -1    0    0    0  501 -0.00000000000E+00 -0.00000000000E+00 -0.18349959345E+02  0.18349959345E+02  0.00000000000E+00 0.  1.
         25    2    1    2    0    0  0.14137550253E+02 -0.23265047938E+02  0.39140961416E+03  0.41181259874E+03  0.12508795962E+03 0.  0.
         23    2    1    2    0    0 -0.14137550253E+02  0.23265047938E+02  0.26465530471E+03  0.28095223882E+03  0.90280659081E+02 0.  0.
          5    1    3    3  502    0  0.63517636299E+02 -0.23840830652E+02  0.30230516206E+03  0.30985280172E+03  0.41800000000E+01 0. -1.
         -5    1    3    3    0  502 -0.49380086046E+02  0.57578271405E+00  0.89104452094E+02  0.10195979701E+03  0.41800000000E+01 0. -1.
        -11    1    4    4    0    0 -0.51031617451E+01  0.50472644026E+02  0.23207389758E+03  0.23755383388E+03  0.00000000000E+00 0. -1.
         11    1    4    4    0    0 -0.90343885080E+01 -0.27207596088E+02  0.32581407137E+02  0.43398404943E+02  0.00000000000E+00 0.  1.
</event>
<event>
 8    1  0.7192024E-009  0.1054458E+03  0.7561462E-02  0.1269244E+00
          2   -1    0    0  501    0  0.00000000000E+00  0.00000000000E+00  0.72975465897E+03  0.72975465897E+03  0.00000000000E+00 0.  1.
         -2   -1    0    0    0  501 -0.00000000000E+00 -0.00000000000E+00 -0.21796274166E+02  0.21796274166E+02  0.00000000000E+00 0. -1.
         25    2    1    2    0    0 -0.93891597958E+01  0.56661769474E+02  0.48595728774E+03  0.50507633626E+03  0.12509559343E+03 0.  0.
         23    2    1    2    0    0  0.93891597958E+01 -0.56661769474E+02  0.22200109706E+03  0.24647459687E+03  0.90368840692E+02 0.  0.
          5    1    3    3  502    0 -0.46921074883E+02 -0.18952598747E+02  0.22951547989E+03  0.23506513178E+03  0.41800000000E+01 0. -1.
         -5    1    3    3    0  502  0.37531915087E+02  0.75614368221E+02  0.25644180785E+03  0.27001120448E+03  0.41800000000E+01 0. -1.
        -11    1    4    4    0    0  0.13415681677E+02  0.46140677301E+01 -0.18922836766E+01  0.14312612389E+02  0.00000000000E+00 0. -1.
         11    1    4    4    0    0 -0.40265218815E+01 -0.61275837204E+02  0.22389338073E+03  0.23216198449E+03  0.00000000000E+00 0.  1.
</event>
<event>
 8    1  0.7192024E-009  0.1184391E+03  0.7561462E-02  0.1245694E+00
          2   -1    0    0  501    0  0.00000000000E+00  0.00000000000E+00  0.21142591125E+04  0.21142591125E+04  0.00000000000E+00 0. -1.
         -2   -1    0    0    0  501 -0.00000000000E+00 -0.00000000000E+00 -0.12728012435E+02  0.12728012435E+02  0.00000000000E+00 0.  1.
         25    2    1    2    0    0  0.86616536374E+02  0.11290216499E+02  0.16803715408E+04  0.16872836138E+04  0.12509030728E+03 0.  0.
         23    2    1    2    0    0 -0.86616536374E+02 -0.11290216499E+02  0.42115955924E+03  0.43970351109E+03  0.91290251192E+02 0.  0.
          5    1    3    3  502    0  0.42619377067E+02 -0.34251727524E+02  0.27144573726E+03  0.27692932820E+03  0.41800000000E+01 0. -1.
         -5    1    3    3    0  502  0.43997159306E+02  0.45541944023E+02  0.14089258035E+04  0.14103542856E+04  0.41800000000E+01 0. -1.
        -11    1    4    4    0    0 -0.43607672828E+02 -0.45946830374E+02  0.14752917026E+03  0.16055402962E+03  0.00000000000E+00 0.  1.
         11    1    4    4    0    0 -0.43008863546E+02  0.34656613875E+02  0.27363038898E+03  0.27914948146E+03  0.00000000000E+00 0. -1.
</event>
<event>
 8    1  0.7192024E-009  0.1182422E+03  0.7561462E-02  0.1246025E+00
          1   -1    0    0  501    0  0.00000000000E+00  0.00000000000E+00  0.31581122909E+03  0.31581122909E+03  0.00000000000E+00 0. -1.
         -1   -1    0    0    0  501 -0.00000000000E+00 -0.00000000000E+00 -0.67758338353E+02  0.67758338353E+02  0.00000000000E+00 0.  1.
         25    2    1    2    0    0 -0.34575592313E+02  0.82067716588E+02  0.86390434600E+02  0.17618694821E+03  0.12509177366E+03 0.  0.
         23    2    1    2    0    0  0.34575592313E+02 -0.82067716588E+02  0.16166245614E+03  0.20738261924E+03  0.94563308676E+02 0.  0.
          5    1    3    3  502    0 -0.33406013665E+02  0.11059127946E+03  0.90802182791E+02  0.14699966544E+03  0.41800000000E+01 0. -1.
         -5    1    3    3    0  502 -0.11695786478E+01 -0.28523562869E+02 -0.44117481912E+01  0.29187282762E+02  0.41800000000E+01 0. -1.
        -11    1    4    4    0    0  0.25232579136E+02 -0.30320325402E+02  0.22377121093E+01  0.39509651198E+02  0.00000000000E+00 0.  1.
         11    1    4    4    0    0  0.93430131770E+01 -0.51747391186E+02  0.15942474403E+03  0.16787296804E+03  0.00000000000E+00 0. -1.
</event>
<event>
 8    1  0.7192024E-009  0.1052616E+03  0.7561462E-02  0.1269605E+00
          2   -1    0    0  501    0  0.00000000000E+00  0.00000000000E+00  0.26991039918E+03  0.26991039918E+03  0.00000000000E+00 0. -1.
         -2   -1    0    0    0  501 -0.00000000000E+00 -0.00000000000E+00 -0.59556843364E+02  0.59556843364E+02  0.00000000000E+00 0.  1.
         25    2    1    2    0    0 -0.38361431550E+02 -0.46078248345E+02  0.14709141596E+03  0.20218396128E+03  0.12509062775E+03 0.  0.
         23    2    1    2    0    0  0.38361431550E+02  0.46078248345E+02  0.63262139853E+02  0.12728328126E+03  0.92758454859E+02 0.  0.
          5    1    3    3  502    0  0.12596645178E+02 -0.73074184786E+02  0.11251054909E+03  0.13481323380E+03  0.41800000000E+01 0. -1.
         -5    1    3    3    0  502 -0.50958076728E+02  0.26995936441E+02  0.34580866874E+02  0.67370727485E+02  0.41800000000E+01 0. -1.
        -11    1    4    4    0    0  0.45074709998E+02  0.16334705929E+02 -0.90639170943E+01  0.48792486023E+02  0.00000000000E+00 0.  1.
         11    1    4    4    0    0 -0.67132784482E+01  0.29743542416E+02  0.72326056948E+02  0.78490795235E+02  0.00000000000E+00 0. -1.
</event>
<event>
 8    1  0.7192024E-009  0.1684169E+03  0.7561462E-02  0.1179509E+00
         -1   -1    0    0    0  501 -0.00000000000E+00  0.00000000000E+00  0.40925971133E+02  0.40925971133E+02  0.00000000000E+00 0.  1.
          1   -1    0    0  501    0  0.00000000000E+00 -0.00000000000E+00 -0.92986950153E+03  0.92986950153E+03  0.00000000000E+00 0. -1.
         25    2    1    2    0    0  0.16128581256E+03 -0.65342027593E+01 -0.48151789789E+03  0.52303210593E+03  0.12508912310E+03 0.  0.
         23    2    1    2    0    0 -0.16128581256E+03  0.65342027593E+01 -0.40742563251E+03  0.44776336673E+03  0.91872615176E+02 0.  0.
          5    1    3    3  502    0  0.48503344643E+02 -0.33846592186E+02 -0.54593928361E+02  0.80598608288E+02  0.41800000000E+01 0. -1.
         -5    1    3    3    0  502  0.11278246791E+03  0.27312389427E+02 -0.42692396952E+03  0.44243349765E+03  0.41800000000E+01 0. -1.
        -11    1    4    4    0    0 -0.10419623403E+03  0.36039050835E+01 -0.14149164255E+03  0.17575473886E+03  0.00000000000E+00 0.  1.
         11    1    4    4    0    0 -0.57089578521E+02  0.29302976758E+01 -0.26593398996E+03  0.27200862787E+03  0.00000000000E+00 0. -1.
</event>
<event>
 8    1  0.7192024E-009  0.9339500E+02  0.7561462E-02  0.1294832E+00
          2   -1    0    0  501    0  0.00000000000E+00  0.00000000000E+00  0.67361704252E+03  0.67361704252E+03  0.00000000000E+00 0. -1.
         -2   -1    0    0    0  501 -0.00000000000E+00 -0.00000000000E+00 -0.27685827624E+02  0.27685827624E+02  0.00000000000E+00 0.  1.
         25    2    1    2    0    0  0.63578599725E+02  0.53904610949E+02  0.34935161975E+03  0.38031679139E+03  0.12508541948E+03 0.  0.
         23    2    1    2    0    0 -0.63578599725E+02 -0.53904610949E+02  0.29657959515E+03  0.32098607876E+03  0.90136901834E+02 0.  0.
          5    1    3    3  502    0  0.30281980251E+02  0.17540491241E+02  0.32171533139E+03  0.32364006861E+03  0.41800000000E+01 0.  1.
         -5    1    3    3    0  502  0.33296619475E+02  0.36364119708E+02  0.27636288363E+02  0.56676722779E+02  0.41800000000E+01 0.  1.
        -11    1    4    4    0    0 -0.35361563181E+02  0.59806803836E+01  0.20425866732E+03  0.20738324876E+03  0.00000000000E+00 0. -1.
         11    1    4    4    0    0 -0.28217036545E+02 -0.59885291333E+02  0.92320927828E+02  0.11360283000E+03  0.00000000000E+00 0.  1.
</event>
<event>
 8    1  0.7192024E-009  0.1095647E+03  0.7561462E-02  0.1261378E+00
         -2   -1    0    0    0  501 -0.00000000000E+00  0.00000000000E+00  0.50076669538E+02  0.50076669538E+02  0.00000000000E+00 0.  1.
          2   -1    0    0  501    0  0.00000000000E+00 -0.00000000000E+00 -0.37307918084E+03  0.37307918084E+03  0.00000000000E+00 0. -1.
         25    2    1    2    0    0  0.32233279933E+02 -0.63881974696E+02 -0.11267904660E+03  0.18293111225E+03  0.12508930114E+03 0.  0.
         23    2    1    2    0    0 -0.32233279933E+02  0.63881974696E+02 -0.21032346470E+03  0.24022473813E+03  0.91389682005E+02 0.  0.
          5    1    3    3  502    0  0.27338149791E+02  0.32622224179E+02 -0.14615172960E+02  0.45195792117E+02  0.41800000000E+01 0.  1.
         -5    1    3    3    0  502  0.48951301418E+01 -0.96504198876E+02 -0.98063873639E+02  0.13773532014E+03  0.41800000000E+01 0.  1.
        -11    1    4    4    0    0 -0.60647381599E+01  0.49328631065E+02 -0.20354376943E+03  0.20952365252E+03  0.00000000000E+00 0. -1.
         11    1    4    4    0    0 -0.26168541773E+02  0.14553343631E+02 -0.67796952720E+01  0.30701085605E+02  0.00000000000E+00 0.  1.
</event>
<event>
 8    1  0.7192024E-009  0.1639403E+03  0.7561462E-02  0.1184319E+00
          1   -1    0    0  501    0  0.00000000000E+00  0.00000000000E+00  0.46394038523E+03  0.46394038523E+03  0.00000000000E+00 0. -1.
         -1   -1    0    0    0  501 -0.00000000000E+00 -0.00000000000E+00 -0.78476987302E+02  0.78476987302E+02  0.00000000000E+00 0.  1.
         25    2    1    2    0    0  0.14059599960E+03 -0.46000872167E+01  0.10192304618E+03  0.21406637276E+03  0.12509080181E+03 0.  0.
         23    2    1    2    0    0 -0.14059599960E+03  0.46000872167E+01  0.28354035174E+03  0.32835099977E+03  0.87354748477E+02 0.  0.
          5    1    3    3  502    0  0.15555874578E+03  0.16410570872E+02  0.10394781265E+03  0.18785752681E+03  0.41800000000E+01 0. -1.
         -5    1    3    3    0  502 -0.14962746181E+02 -0.21010658089E+02 -0.20247664710E+01  0.26208845947E+02  0.41800000000E+01 0. -1.
        -11    1    4    4    0    0 -0.71872418105E+02 -0.15792341142E+02  0.22198402355E+03  0.23386309934E+03  0.00000000000E+00 0. -1.
         11    1    4    4    0    0 -0.68723581491E+02  0.20392428359E+02  0.61556328193E+02  0.94487900431E+02  0.00000000000E+00 0.  1.
</event>
<event>
 8    1  0.7192024E-009  0.2611261E+03  0.7561462E-02  0.1106469E+00
         -1   -1    0    0    0  501 -0.00000000000E+00  0.00000000000E+00  0.99519202217E+02  0.99519202217E+02  0.00000000000E+00 0.  1.
          1   -1    0    0  501    0  0.00000000000E+00 -0.00000000000E+00 -0.76457598212E+03  0.76457598212E+03  0.00000000000E+00 0. -1.
         25    2    1    2    0    0  0.22011967840E+03 -0.10361999147E+03 -0.45254148052E+03  0.52880135010E+03  0.12508917148E+03 0.  0.
         23    2    1    2    0    0 -0.22011967840E+03  0.10361999147E+03 -0.21251529939E+03  0.33529383424E+03  0.89829991411E+02 0.  0.
          5    1    3    3  502    0  0.93621752319E+01  0.21996589696E+02 -0.72201112318E+02  0.76170685328E+02  0.41800000000E+01 0. -1.
         -5    1    3    3    0  502  0.21075750317E+03 -0.12561658117E+03 -0.38034036820E+03  0.45263066477E+03  0.41800000000E+01 0. -1.
        -11    1    4    4    0    0 -0.12899033129E+02 -0.99519211834E+01  0.16567437673E+01  0.16375914961E+02  0.00000000000E+00 0.  1.
         11    1    4    4    0    0 -0.20722064527E+03  0.11357191266E+03 -0.21417204315E+03  0.31891791928E+03  0.00000000000E+00 0. -1.
</event>
<event>
 8    1  0.7192024E-009  0.8975251E+02  0.7561462E-02  0.1303452E+00
         -2   -1    0    0    0  501 -0.00000000000E+00  0.00000000000E+00  0.28391953323E+02  0.28391953323E+02  0.00000000000E+00 0.  1.
          2   -1    0    0  501    0  0.00000000000E+00 -0.00000000000E+00 -0.68529105657E+03  0.68529105657E+03  0.00000000000E+00 0. -1.
         25    2    1    2    0    0  0.11242543351E+02 -0.58252007014E+02 -0.51058474810E+03  0.52902165937E+03  0.12508972775E+03 0.  0.
         23    2    1    2    0    0 -0.11242543351E+02  0.58252007014E+02 -0.14631435515E+03  0.18466135053E+03  0.95771774305E+02 0.  0.
          5    1    3    3  502    0  0.20482481937E+02 -0.51983305003E+02 -0.76762010115E+02  0.95035123308E+02  0.41800000000E+01 0. -1.
         -5    1    3    3    0  502 -0.92399385866E+01 -0.62687020111E+01 -0.43382273798E+03  0.43398653606E+03  0.41800000000E+01 0. -1.
        -11    1    4    4    0    0  0.37033342661E+01 -0.25859992142E+02 -0.45991817268E+02  0.52893299518E+02  0.00000000000E+00 0.  1.
         11    1    4    4    0    0 -0.14945877617E+02  0.84111999156E+02 -0.10032253788E+03  0.13176805101E+03  0.00000000000E+00 0. -1.
</event>
<event>
 8    1  0.7192024E-009  0.3394078E+03  0.7561462E-02  0.1067048E+00
         -3   -1    0    0    0  501 -0.00000000000E+00  0.00000000000E+00  0.36537357791E+03  0.36537357791E+03  0.00000000000E+00 0.  1.
          3   -1    0    0  501    0  0.00000000000E+00 -0.00000000000E+00 -0.51788919782E+03  0.51788919782E+03  0.00000000000E+00 0. -1.
         25    2    1    2    0    0 -0.28082286142E+03  0.16274785955E+03 -0.35016852399E+03  0.49357242132E+03  0.12508954634E+03 0.  0.
         23    2    1    2    0    0  0.28082286142E+03 -0.16274785955E+03  0.19765290408E+03  0.38969035442E+03  0.86276048533E+02 0.  0.
          5    1    3    3  502    0 -0.61177925317E+02  0.95270222125E+02 -0.15545664447E+03  0.19236266395E+03  0.41800000000E+01 0. -1.
         -5    1    3    3    0  502 -0.21964493611E+03  0.67477637427E+02 -0.19471187952E+03  0.30120975737E+03  0.41800000000E+01 0. -1.
        -11    1    4    4    0    0  0.12560388233E+03 -0.12227721562E+03  0.97532671208E+02  0.20060078432E+03  0.00000000000E+00 0.  1.
         11    1    4    4    0    0  0.15521897909E+03 -0.40470643931E+02  0.10012023287E+03  0.18908957010E+03  0.00000000000E+00 0. -1.
</event>
<event>
 8    1  0.7192024E-009  0.1108480E+03  0.7561462E-02  0.1259007E+00
         -2   -1    0    0    0  501 -0.00000000000E+00  0.00000000000E+00  0.59059647123E+02  0.59059647123E+02  0.00000000000E+00 0.  1.
          2   -1    0    0  501    0  0.00000000000E+00 -0.00000000000E+00 -0.43383395448E+03  0.43383395448E+03  0.00000000000E+00 0. -1.
         25    2    1    2    0    0 -0.42201368595E+02  0.22811189511E+02 -0.36506501591E+03  0.38887164826E+03  0.12508951634E+03 0.  0.
         23    2    1    2    0    0  0.42201368595E+02 -0.22811189511E+02 -0.97092914493E+01  0.10402195335E+03  0.91787747329E+02 0.  0.
          5    1    3    3  502    0 -0.55627259804E+01  0.70072805067E+02 -0.24110596767E+03  0.25117862564E+03  0.41800000000E+01 0.  1.
         -5    1    3    3    0  502 -0.36638642615E+02 -0.47261615556E+02 -0.12395904824E+03  0.13769302262E+03  0.41800000000E+01 0.  1.
        -11    1    4    4    0    0  0.65077207888E+02 -0.12620893043E+02  0.15935081352E+02  0.68178125124E+02  0.00000000000E+00 0.  1.
         11    1    4    4    0    0 -0.22875839292E+02 -0.10190296468E+02 -0.25644372802E+02  0.35843828225E+02  0.00000000000E+00 0. -1.
</event>
<event>
 8    1  0.7192024E-009  0.8404496E+02  0.7561462E-02  0.1317949E+00
         -2   -1    0    0    0  501 -0.00000000000E+00  0.00000000000E+00  0.16127818571E+02  0.16127818571E+02  0.00000000000E+00 0.  1.
          2   -1    0    0  501    0  0.00000000000E+00 -0.00000000000E+00 -0.16555626367E+04  0.16555626367E+04  0.00000000000E+00 0. -1.
         25    2    1    2    0    0  0.18527096056E+02 -0.38678868570E+02 -0.14587180097E+04  0.14647002741E+04  0.12509737361E+03 0.  0.
         23    2    1    2    0    0 -0.18527096056E+02  0.38678868570E+02 -0.18071680842E+03  0.20699018119E+03  0.91362257531E+02 0.  0.
          5    1    3    3  502    0  0.27251972387E+02  0.67409574485E+00 -0.13173459924E+04  0.13176346460E+04  0.41800000000E+01 0.  1.
         -5    1    3    3    0  502 -0.87248763311E+01 -0.39352964315E+02 -0.14137201729E+03  0.14706562800E+03  0.41800000000E+01 0.  1.
        -11    1    4    4    0    0 -0.39079015226E+01 -0.29753882397E+02 -0.41961214073E+02  0.51587873560E+02  0.00000000000E+00 0.  1.
         11    1    4    4    0    0 -0.14619194534E+02  0.68432750967E+02 -0.13875559435E+03  0.15540230763E+03  0.00000000000E+00 0. -1.
</event>
<event>
 8    1  0.7192024E-009  0.1035503E+03  0.7561462E-02  0.1273002E+00
         -3   -1    0    0    0  501 -0.00000000000E+00  0.00000000000E+00  0.26309435351E+03  0.26309435351E+03  0.00000000000E+00 0.  1.
          3   -1    0    0  501    0  0.00000000000E+00 -0.00000000000E+00 -0.82116328021E+02  0.82116328021E+02  0.00000000000E+00 0. -1.
         25    2    1    2    0    0 -0.90363481794E+01  0.22418719035E+02  0.20327453750E+03  0.23989949231E+03  0.12508786617E+03 0.  0.
         23    2    1    2    0    0  0.90363481794E+01 -0.22418719035E+02 -0.22296512013E+02  0.10531118922E+03  0.10004527763E+03 0.  0.
          5    1    3    3  502    0  0.42864586379E+02  0.40738911018E+02  0.51958647434E+02  0.78830229477E+02  0.41800000000E+01 0. -1.
         -5    1    3    3    0  502 -0.51900934558E+02 -0.18320191982E+02  0.15131589007E+03  0.16106926283E+03  0.41800000000E+01 0. -1.
        -11    1    4    4    0    0 -0.76898159631E+01  0.33438717696E+02 -0.31141073630E+02  0.46336244750E+02  0.00000000000E+00 0. -1.
         11    1    4    4    0    0  0.16726164143E+02 -0.55857436731E+02  0.88445616174E+01  0.58974944471E+02  0.00000000000E+00 0.  1.
</event>
<event>
 8    1  0.7192024E-009  0.6686589E+02  0.7561462E-02  0.1371087E+00
          2   -1    0    0  501    0  0.00000000000E+00  0.00000000000E+00  0.86952962723E+03  0.86952962723E+03  0.00000000000E+00 0. -1.
         -2   -1    0    0    0  501 -0.00000000000E+00 -0.00000000000E+00 -0.14729401954E+02  0.14729401954E+02  0.00000000000E+00 0.  1.
         25    2    1    2    0    0 -0.35775043620E+01 -0.24083163499E+02  0.58283273185E+03  0.59659852454E+03  0.12507201471E+03 0.  0.
         23    2    1    2    0    0  0.35775043620E+01  0.24083163499E+02  0.27196749342E+03  0.28766050464E+03  0.90495586366E+02 0.  0.
          5    1    3    3  502    0 -0.54380093927E+01 -0.40266905335E+02  0.55055777715E+02  0.68553677299E+02  0.41800000000E+01 0.  1.
         -5    1    3    3    0  502  0.18605050306E+01  0.16183741836E+02  0.52777695414E+03  0.52804484724E+03  0.41800000000E+01 0.  1.
        -11    1    4    4    0    0 -0.33920038130E+02  0.16863101520E+02  0.21963185958E+03  0.22287459909E+03  0.00000000000E+00 0. -1.
         11    1    4    4    0    0  0.37497542492E+02  0.72200619789E+01  0.52335633843E+02  0.64785905548E+02  0.00000000000E+00 0.  1.
</event>
<event>
 8    1  0.7192024E-009  0.1024863E+03  0.7561462E-02  0.1275153E+00
          1   -1    0    0  501    0  0.00000000000E+00  0.00000000000E+00  0.48332353804E+03  0.48332353804E+03  0.00000000000E+00 0. -1.
         -1   -1    0    0    0  501 -0.00000000000E+00 -0.00000000000E+00 -0.23916113374E+02  0.23916113374E+02  0.00000000000E+00 0.  1.
         25    2    1    2    0    0 -0.49728308284E+01  0.23996641393E+01  0.26071310702E+03  0.28922308198E+03  0.12509268381E+03 0.  0.
         23    2    1    2    0    0  0.49728308284E+01 -0.23996641393E+01  0.19869431765E+03  0.21801656943E+03  0.89561739871E+02 0.  0.
          5    1    3    3  502    0  0.23971299622E+02 -0.52793158186E+02  0.16491731640E+03  0.17486261580E+03  0.41800000000E+01 0. -1.
         -5    1    3    3    0  502 -0.28944130450E+02  0.55192822325E+02  0.95795790619E+02  0.11436046618E+03  0.41800000000E+01 0. -1.
        -11    1    4    4    0    0 -0.30403884289E+02 -0.27505915415E+02  0.59797981932E+02  0.72503587538E+02  0.00000000000E+00 0.  1.
         11    1    4    4    0    0  0.35376715118E+02  0.25106251276E+02  0.13889633571E+03  0.14551298190E+03  0.00000000000E+00 0. -1.
</event>
<event>
 8    1  0.7192024E-009  0.1447180E+03  0.7561462E-02  0.1207118E+00
          2   -1    0    0  501    0  0.00000000000E+00  0.00000000000E+00  0.48106930937E+03  0.48106930937E+03  0.00000000000E+00 0. -1.
         -2   -1    0    0    0  501 -0.00000000000E+00 -0.00000000000E+00 -0.88712445744E+02  0.88712445744E+02  0.00000000000E+00 0.  1.
         25    2    1    2    0    0 -0.44183771546E+02 -0.11619342972E+03  0.37410780443E+03  0.41359100791E+03  0.12509098172E+03 0.  0.
         23    2    1    2    0    0  0.44183771546E+02  0.11619342972E+03  0.18249059191E+02  0.15619074720E+03  0.92786866372E+02 0.  0.
          5    1    3    3  502    0 -0.36874522258E+02 -0.83621972982E+01  0.23150925813E+03  0.23461386518E+03  0.41800000000E+01 0.  1.
         -5    1    3    3    0  502 -0.73092492879E+01 -0.10783123243E+03  0.14259854630E+03  0.17897714273E+03  0.41800000000E+01 0.  1.
        -11    1    4    4    0    0  0.61235934387E+02  0.65114784938E+02 -0.18128193088E+02  0.91205297337E+02  0.00000000000E+00 0.  1.
         11    1    4    4    0    0 -0.17052162841E+02  0.51078644786E+02  0.36377252279E+02  0.64985449865E+02  0.00000000000E+00 0. -1.
</event>
<event>
 8    1  0.7192024E-009  0.1392666E+03  0.7561462E-02  0.1214319E+00
         -1   -1    0    0    0  501 -0.00000000000E+00  0.00000000000E+00  0.28915754508E+03  0.28915754508E+03  0.00000000000E+00 0.  1.
          1   -1    0    0  501    0  0.00000000000E+00 -0.00000000000E+00 -0.13910936215E+03  0.13910936215E+03  0.00000000000E+00 0. -1.
         25    2    1    2    0    0 -0.69923545618E+02 -0.54342565315E+02  0.23047972999E+03  0.27678221591E+03  0.12508026412E+03 0.  0.
         23    2    1    2    0    0  0.69923545618E+02  0.54342565315E+02 -0.80431547061E+02  0.15148469133E+03  0.92929873058E+02 0.  0.
          5    1    3    3  502    0 -0.53541856268E+01 -0.82068134130E+02  0.13547862257E+03  0.15854266151E+03  0.41800000000E+01 0. -1.
         -5    1    3    3    0  502 -0.64569359991E+02  0.27725568814E+02  0.95001107414E+02  0.11823955440E+03  0.41800000000E+01 0. -1.
        -11    1    4    4    0    0  0.60223942517E+02 -0.97148316326E+01 -0.23956715133E+02  0.65537969193E+02  0.00000000000E+00 0.  1.
         11    1    4    4    0    0  0.96996031011E+01  0.64057396948E+02 -0.56474831928E+02  0.85946722133E+02  0.00000000000E+00 0. -1.
</event>
<event>
 8    1  0.7192024E-009  0.2660318E+03  0.7561462E-02  0.1103572E+00
         -2   -1    0    0    0  501 -0.00000000000E+00  0.00000000000E+00  0.16049240134E+03  0.16049240134E+03  0.00000000000E+00 0. -1.
          2   -1    0    0  501    0  0.00000000000E+00 -0.00000000000E+00 -0.48002497974E+03  0.48002497974E+03  0.00000000000E+00 0.  1.
         25    2    1    2    0    0 -0.17915265462E+03  0.16555611767E+03 -0.25014912530E+03  0.37111441231E+03  0.12508725107E+03 0.  0.
         23    2    1    2    0    0  0.17915265462E+03 -0.16555611767E+03 -0.69383453107E+02  0.26940296877E+03  0.90881209623E+02 0.  0.
          5    1    3    3  502    0 -0.18373583730E+03  0.18050307962E+03 -0.23060826789E+03  0.34574248405E+03  0.41800000000E+01 0. -1.
         -5    1    3    3    0  502  0.45831826833E+01 -0.14946961949E+02 -0.19540857407E+02  0.25371928251E+02  0.41800000000E+01 0. -1.
        -11    1    4    4    0    0  0.10564177202E+03 -0.14946404972E+03 -0.64241396828E+02  0.19397588310E+03  0.00000000000E+00 0. -1.
         11    1    4    4    0    0  0.73510882596E+02 -0.16092067947E+02 -0.51420562787E+01  0.75427085677E+02  0.00000000000E+00 0.  1.
</event>
<event>
 8    1  0.7192024E-009  0.1624266E+03  0.7561462E-02  0.1185984E+00
         -2   -1    0    0    0  501 -0.00000000000E+00  0.00000000000E+00  0.10148237466E+03  0.10148237466E+03  0.00000000000E+00 0.  1.
          2   -1    0    0  501    0  0.00000000000E+00 -0.00000000000E+00 -0.34191533893E+03  0.34191533893E+03  0.00000000000E+00 0. -1.
         25    2    1    2    0    0 -0.79050510591E+02 -0.12792366393E+03 -0.11370406346E+03  0.22625020662E+03  0.12508834850E+03 0.  0.
         23    2    1    2    0    0  0.79050510591E+02  0.12792366393E+03 -0.12672890082E+03  0.21714750697E+03  0.92083540658E+02 0.  0.
          5    1    3    3  502    0 -0.97332834295E+02 -0.97873876609E+02 -0.12777052638E+03  0.18813759902E+03  0.41800000000E+01 0. -1.
         -5    1    3    3    0  502  0.18282323704E+02 -0.30049787326E+02  0.14066462928E+02  0.38112607594E+02  0.41800000000E+01 0. -1.
        -11    1    4    4    0    0  0.36570592925E+02  0.43524449289E+02  0.26836654622E+01  0.56912107790E+02  0.00000000000E+00 0.  1.
         11    1    4    4    0    0  0.42479917666E+02  0.84399214646E+02 -0.12941256629E+03  0.16023539918E+03  0.00000000000E+00 0. -1.
</event>
<event>
 8    1  0.7192024E-009  0.1463016E+03  0.7561462E-02  0.1205093E+00
          2   -1    0    0  501    0  0.00000000000E+00  0.00000000000E+00  0.77783439456E+03  0.77783439456E+03  0.00000000000E+00 0. -1.
         -2   -1    0    0    0  501 -0.00000000000E+00 -0.00000000000E+00 -0.45147393819E+02  0.45147393819E+02  0.00000000000E+00 0.  1.
         25    2    1    2    0    0  0.71494219166E+02 -0.10791402813E+03  0.21181458387E+03  0.27797443883E+03  0.12509000704E+03 0.  0.
         23    2    1    2    0    0 -0.71494219166E+02  0.10791402813E+03  0.52087241687E+03  0.54500734954E+03  0.94699923774E+02 0.  0.
          5    1    3    3  502    0 -0.14698777389E+02 -0.16156308002E+02 -0.88135654987E+01  0.23921364547E+02  0.41800000000E+01 0. -1.
         -5    1    3    3    0  502  0.86192996555E+02 -0.91757720132E+02  0.22062814937E+03  0.25405307429E+03  0.41800000000E+01 0. -1.
        -11    1    4    4    0    0 -0.57721120966E+02  0.29563319937E+02  0.35704272973E+03  0.36288459397E+03  0.00000000000E+00 0.  1.
         11    1    4    4    0    0 -0.13773098200E+02  0.78350708198E+02  0.16382968714E+03  0.18212275557E+03  0.00000000000E+00 0. -1.
</event>
<event>
 8    1  0.7192024E-009  0.8019546E+02  0.7561462E-02  0.1328498E+00
          1   -1    0    0  501    0  0.00000000000E+00  0.00000000000E+00  0.39685287262E+03  0.39685287262E+03  0.00000000000E+00 0. -1.
         -1   -1    0    0    0  501 -0.00000000000E+00 -0.00000000000E+00 -0.36921159858E+02  0.36921159858E+02  0.00000000000E+00 0.  1.
         25    2    1    2    0    0 -0.10638873870E+02 -0.53202853722E+02  0.18497179414E+03  0.22979223548E+03  0.12508468163E+03 0.  0.
         23    2    1    2    0    0  0.10638873870E+02  0.53202853722E+02  0.17495991862E+03  0.20398179700E+03  0.89743362439E+02 0.  0.
          5    1    3    3  502    0 -0.48510275002E+02 -0.41651405223E+02  0.17824782273E+03  0.18941447951E+03  0.41800000000E+01 0. -1.
         -5    1    3    3    0  502  0.37871401132E+02 -0.11551448499E+02  0.67239714129E+01  0.40377755976E+02  0.41800000000E+01 0. -1.
        -11    1    4    4    0    0 -0.27313655202E+01  0.26488259787E+02  0.14129484034E+00  0.26629086135E+02  0.00000000000E+00 0.  1.
         11    1    4    4    0    0  0.13370239390E+02  0.26714593934E+02  0.17481862378E+03  0.17735271086E+03  0.00000000000E+00 0. -1.
</event>
<event>
 8    1  0.7192024E-009  0.1084156E+03  0.7561462E-02  0.1263532E+00
          2   -1    0    0  501    0  0.00000000000E+00  0.00000000000E+00  0.46786893611E+02  0.46786893611E+02  0.00000000000E+00 0. -1.
         -2   -1    0    0    0  501 -0.00000000000E+00 -0.00000000000E+00 -0.39292507679E+03  0.39292507679E+03  0.00000000000E+00 0.  1.
         25    2    1    2    0    0 -0.69263186575E+01 -0.71972076877E+02 -0.13161896677E+03  0.19544665887E+03  0.12509152773E+03 0.  0.
         23    2    1    2    0    0  0.69263186575E+01  0.71972076877E+02 -0.21451921641E+03  0.24426531153E+03  0.91755623636E+02 0.  0.
          5    1    3    3  502    0 -0.45072922891E+02 -0.48520072713E+02 -0.11711483697E+02  0.67382468673E+02  0.41800000000E+01 0.  1.
         -5    1    3    3    0  502  0.38146604233E+02 -0.23452004164E+02 -0.11990748308E+03  0.12806419020E+03  0.41800000000E+01 0.  1.
        -11    1    4    4    0    0  0.32807703886E+02  0.72538940344E+02 -0.19837997329E+03  0.21375887608E+03  0.00000000000E+00 0.  1.
         11    1    4    4    0    0 -0.25881385229E+02 -0.56686346621E+00 -0.16139243119E+02  0.30506435452E+02  0.00000000000E+00 0. -1.
</event>
<event>
 8    1  0.7192024E-009  0.9706848E+02  0.7561462E-02  0.1286584E+00
         -4   -1    0    0    0  501 -0.00000000000E+00  0.00000000000E+00  0.61809224272E+02  0.61809224272E+02  0.00000000000E+00 0.  1.
          4   -1    0    0  501    0  0.00000000000E+00 -0.00000000000E+00 -0.22063134382E+03  0.22063134382E+03  0.00000000000E+00 0. -1.
         25    2    1    2    0    0 -0.20933463374E+02 -0.94215315004E+00 -0.13798254852E+03  0.18741782461E+03  0.12508860757E+03 0.  0.
         23    2    1    2    0    0  0.20933463374E+02  0.94215315004E+00 -0.20839571024E+02  0.95022743483E+02  0.90310223769E+02 0.  0.
          5    1    3    3  502    0 -0.26313583729E+02 -0.60571752313E+02 -0.62920893601E+02  0.91311845445E+02  0.41800000000E+01 0. -1.
         -5    1    3    3    0  502  0.53801203553E+01  0.59629599163E+02 -0.75061654920E+02  0.96105979163E+02  0.41800000000E+01 0. -1.
        -11    1    4    4    0    0  0.19393583587E+02 -0.30675403854E+02  0.21481505368E+02  0.42172817772E+02  0.00000000000E+00 0. -1.
         11    1    4    4    0    0  0.15398797866E+01  0.31617557004E+02 -0.42321076392E+02  0.52849925711E+02  0.00000000000E+00 0.  1.
</event>
<event>
 8    1  0.7192024E-009  0.7111422E+02  0.7561462E-02  0.1356345E+00
         -4   -1    0    0    0  501 -0.00000000000E+00  0.00000000000E+00  0.26863975255E+03  0.26863975255E+03  0.00000000000E+00 0.  1.
          4   -1    0    0  501    0  0.00000000000E+00 -0.00000000000E+00 -0.45904818340E+02  0.45904818340E+02  0.00000000000E+00 0. -1.
         25    2    1    2    0    0  0.14903422089E+02  0.30137183960E+02  0.10803186445E+03  0.16866944970E+03  0.12509251648E+03 0.  0.
         23    2    1    2    0    0 -0.14903422089E+02 -0.30137183960E+02  0.11470306977E+03  0.14587512120E+03  0.83620541277E+02 0.  0.
          5    1    3    3  502    0  0.32661043742E+02  0.18262246719E+02 -0.17317448346E+02  0.41444177525E+02  0.41800000000E+01 0.  1.
         -5    1    3    3    0  502 -0.17757621653E+02  0.11874937241E+02  0.12534931280E+03  0.12722527217E+03  0.41800000000E+01 0.  1.
        -11    1    4    4    0    0 -0.93686903372E+01  0.25360341449E+02  0.67836427256E+02  0.73025339026E+02  0.00000000000E+00 0.  1.
         11    1    4    4    0    0 -0.55347317515E+01 -0.55497525409E+02  0.46866642509E+02  0.72849782170E+02  0.00000000000E+00 0. -1.
</event>
<event>
 8    1  0.7192024E-009  0.1008516E+03  0.7561462E-02  0.1278515E+00
         -4   -1    0    0    0  501 -0.00000000000E+00  0.00000000000E+00  0.98555762145E+02  0.98555762145E+02  0.00000000000E+00 0.  1.
          4   -1    0    0  501    0  0.00000000000E+00 -0.00000000000E+00 -0.19507342102E+03  0.19507342102E+03  0.00000000000E+00 0. -1.
         25    2    1    2    0    0 -0.21528524242E+02 -0.66619910553E+02 -0.28877162487E+01  0.14337939827E+03  0.12509045969E+03 0.  0.
         23    2    1    2    0    0  0.21528524242E+02  0.66619910553E+02 -0.93629942624E+02  0.15024978489E+03  0.94375536376E+02 0.  0.
          5    1    3    3  502    0  0.36704986705E+01  0.19204606545E+02 -0.41344792647E+02  0.45925523972E+02  0.41800000000E+01 0.  1.
         -5    1    3    3    0  502 -0.25199022912E+02 -0.85824517098E+02  0.38457076398E+02  0.97453874300E+02  0.41800000000E+01 0.  1.
        -11    1    4    4    0    0 -0.95960041906E+01  0.59456387557E+02 -0.10088823030E+03  0.11749715031E+03  0.00000000000E+00 0. -1.
         11    1    4    4    0    0  0.31124528432E+02  0.71635229959E+01  0.72582876795E+01  0.32752634579E+02  0.00000000000E+00 0.  1.
</event>
<event>
 8    1  0.7192024E-009  0.1200033E+03  0.7561462E-02  0.1243092E+00
         -3   -1    0    0    0  501 -0.00000000000E+00  0.00000000000E+00  0.32379400006E+03  0.32379400006E+03  0.00000000000E+00 0.  1.
          3   -1    0    0  501    0  0.00000000000E+00 -0.00000000000E+00 -0.80703809025E+02  0.80703809025E+02  0.00000000000E+00 0. -1.
         25    2    1    2    0    0 -0.76678750065E+02  0.84196444482E+02  0.18053693654E+03  0.24740717678E+03  0.12509218077E+03 0.  0.
         23    2    1    2    0    0  0.76678750065E+02 -0.84196444482E+02  0.62553254492E+02  0.15709063231E+03  0.88294309760E+02 0.  0.
          5    1    3    3  502    0 -0.36466358463E+02  0.21352410482E+02 -0.92319064330E+01  0.43455968857E+02  0.41800000000E+01 0. -1.
         -5    1    3    3    0  502 -0.40212391603E+02  0.62844034000E+02  0.18976884297E+03  0.20395120792E+03  0.41800000000E+01 0. -1.
        -11    1    4    4    0    0  0.52171017603E+02 -0.83305170310E+02  0.96330040885E+01  0.98764169849E+02  0.00000000000E+00 0. -1.
         11    1    4    4    0    0  0.24507732462E+02 -0.89127417157E+00  0.52920250404E+02  0.58326462458E+02  0.00000000000E+00 0.  1.
</event>
<event>
 8    1  0.7192024E-009  0.7594312E+02  0.7561462E-02  0.1340975E+00
         -2   -1    0    0    0  501 -0.00000000000E+00  0.00000000000E+00  0.40845405177E+03  0.40845405177E+03  0.00000000000E+00 0.  1.
          2   -1    0    0  501    0  0.00000000000E+00 -0.00000000000E+00 -0.34602892470E+02  0.34602892470E+02  0.00000000000E+00 0. -1.
         25    2    1    2    0    0  0.36890088677E+02 -0.28858241712E+02  0.18497437052E+03  0.22815814292E+03  0.12508774390E+03 0.  0.
         23    2    1    2    0    0 -0.36890088677E+02  0.28858241712E+02  0.18887678878E+03  0.21489880132E+03  0.91177720485E+02 0.  0.
          5    1    3    3  502    0  0.12330629863E+02 -0.17574628413E+01 -0.17769839068E+02  0.22099155843E+02  0.41800000000E+01 0. -1.
         -5    1    3    3    0  502  0.24559458815E+02 -0.27100778871E+02  0.20274420959E+03  0.20605898708E+03  0.41800000000E+01 0. -1.
        -11    1    4    4    0    0 -0.25454266935E+02  0.61922817022E+02  0.13444936386E+03  0.15019649269E+03  0.00000000000E+00 0.  1.
         11    1    4    4    0    0 -0.11435821743E+02 -0.33064575310E+02  0.54427424917E+02  0.64702308633E+02  0.00000000000E+00 0. -1.
</event>
<event>
 8    1  0.7192024E-009  0.1178866E+03  0.7561462E-02  0.1246625E+00
         -1   -1    0    0    0  501 -0.00000000000E+00  0.00000000000E+00  0.10386000340E+03  0.10386000340E+03  0.00000000000E+00 0.  1.
          1   -1    0    0  501    0  0.00000000000E+00 -0.00000000000E+00 -0.24487793289E+03  0.24487793289E+03  0.00000000000E+00 0. -1.
         25    2    1    2    0    0 -0.78997328041E+02  0.71570298342E+02 -0.12723290685E+03  0.20784281645E+03  0.12509012081E+03 0.  0.
         23    2    1    2    0    0  0.78997328041E+02 -0.71570298342E+02 -0.13785022644E+02  0.14089511984E+03  0.91096226619E+02 0.  0.
          5    1    3    3  502    0 -0.63680441502E+02  0.35260423449E+02  0.17270633297E+01  0.72931140396E+02  0.41800000000E+01 0. -1.
         -5    1    3    3    0  502 -0.15316886539E+02  0.36309874893E+02 -0.12895997018E+03  0.13491167606E+03  0.41800000000E+01 0. -1.
        -11    1    4    4    0    0 -0.98163017936E+01 -0.15022650452E+02 -0.29411659537E+02  0.34454107509E+02  0.00000000000E+00 0.  1.
         11    1    4    4    0    0  0.88813629835E+02 -0.56547647890E+02  0.15626636893E+02  0.10644101233E+03  0.00000000000E+00 0. -1.
</event>
<event>
 8    1  0.7192024E-009  0.7338444E+02  0.7561462E-02  0.1348948E+00
         -1   -1    0    0    0  501 -0.00000000000E+00  0.00000000000E+00  0.44058951663E+03  0.44058951663E+03  0.00000000000E+00 0.  1.
          1   -1    0    0  501    0  0.00000000000E+00 -0.00000000000E+00 -0.28380966114E+02  0.28380966114E+02  0.00000000000E+00 0. -1.
         25    2    1    2    0    0 -0.64243691524E+01 -0.25655466471E+02  0.20222365482E+03  0.23924907835E+03  0.12508492892E+03 0.  0.
         23    2    1    2    0    0  0.64243691524E+01  0.25655466471E+02  0.20998489569E+03  0.22972140439E+03  0.89324082631E+02 0.  0.
          5    1    3    3  502    0 -0.33484345382E+02 -0.29630533971E+02  0.11267647190E+02  0.46299051850E+02  0.41800000000E+01 0.  1.
         -5    1    3    3    0  502  0.27059976230E+02  0.39750674995E+01  0.19095600763E+03  0.19295002650E+03  0.41800000000E+01 0.  1.
        -11    1    4    4    0    0  0.36546278043E+02  0.33244601549E+01  0.17373090109E+03  0.17756437837E+03  0.00000000000E+00 0. -1.
         11    1    4    4    0    0 -0.30121908890E+02  0.22331006316E+02  0.36253994602E+02  0.52157026017E+02  0.00000000000E+00 0.  1.
</event>
<event>
 8    1  0.7192024E-009  0.1156664E+03  0.7561462E-02  0.1250422E+00
         -3   -1    0    0    0  501 -0.00000000000E+00  0.00000000000E+00  0.38973501319E+03  0.38973501319E+03  0.00000000000E+00 0.  1.
          3   -1    0    0  501    0  0.00000000000E+00 -0.00000000000E+00 -0.48153068657E+02  0.48153068657E+02  0.00000000000E+00 0. -1.
         25    2    1    2    0    0  0.72272506158E+02 -0.33887613712E+02  0.20184827214E+03  0.25052372206E+03  0.12509086632E+03 0.  0.
         23    2    1    2    0    0 -0.72272506158E+02  0.33887613712E+02  0.13973367239E+03  0.18736435979E+03  0.95959463368E+02 0.  0.
          5    1    3    3  502    0 -0.15932329503E+02 -0.32446892265E+02  0.13484254476E+03  0.13966611693E+03  0.41800000000E+01 0. -1.
         -5    1    3    3    0  502  0.88204835662E+02 -0.14407214469E+01  0.67005727379E+02  0.11085760512E+03  0.41800000000E+01 0. -1.
        -11    1    4    4    0    0 -0.83959927352E+02  0.16324005177E+02  0.14238654793E+03  0.16610138945E+03  0.00000000000E+00 0.  1.
         11    1    4    4    0    0  0.11687421193E+02  0.17563608535E+02 -0.26528755408E+01  0.21262970337E+02  0.00000000000E+00 0. -1.
</event>
<event>
 8    1  0.7192024E-009  0.7401321E+02  0.7561462E-02  0.1346954E+00
         -2   -1    0    0    0  501 -0.00000000000E+00  0.00000000000E+00  0.75908088470E+02  0.75908088470E+02  0.00000000000E+00 0.  1.
          2   -1    0    0  501    0  0.00000000000E+00 -0.00000000000E+00 -0.16562008704E+03  0.16562008704E+03  0.00000000000E+00 0. -1.
         25    2    1    2    0    0 -0.22334587236E+02 -0.18615684314E+02 -0.50117780065E+02  0.13785769872E+03  0.12509027032E+03 0.  0.
         23    2    1    2    0    0  0.22334587236E+02  0.18615684314E+02 -0.39594218504E+02  0.10367047679E+03  0.91293417774E+02 0.  0.
          5    1    3    3  502    0  0.25754582973E+02 -0.13056391578E+02  0.31459471878E+02  0.42906161283E+02  0.41800000000E+01 0.  1.
         -5    1    3    3    0  502 -0.48089170209E+02 -0.55592927357E+01 -0.81577251943E+02  0.94951537437E+02  0.41800000000E+01 0.  1.
        -11    1    4    4    0    0 -0.83416569571E+01 -0.19573398869E+02  0.18137194627E+02  0.27958165409E+02  0.00000000000E+00 0.  1.
         11    1    4    4    0    0  0.30676244193E+02  0.38189083183E+02 -0.57731413131E+02  0.75712311379E+02  0.00000000000E+00 0. -1.
</event>
<event>
 8    1  0.7192024E-009  0.8278304E+02  0.7561462E-02  0.1321334E+00
          2   -1    0    0  501    0  0.00000000000E+00  0.00000000000E+00  0.11262544289E+03  0.11262544289E+03  0.00000000000E+00 0.  1.
         -2   -1    0    0    0  501 -0.00000000000E+00 -0.00000000000E+00 -0.16877250904E+03  0.16877250904E+03  0.00000000000E+00 0. -1.
         25    2    1    2    0    0 -0.74145892256E+02  0.14172555795E+02  0.86803008390E+01  0.14635164379E+03  0.12507989982E+03 0.  0.
         23    2    1    2    0    0  0.74145892256E+02 -0.14172555795E+02 -0.64827366985E+02  0.13504630814E+03  0.91304124528E+02 0.  0.
          5    1    3    3  502    0 -0.12690600876E+02  0.23422917935E+02 -0.52514127346E+02  0.59032960337E+02  0.41800000000E+01 0. -1.
         -5    1    3    3    0  502 -0.61455291381E+02 -0.92503621399E+01  0.61194428185E+02  0.87318683449E+02  0.41800000000E+01 0. -1.
        -11    1    4    4    0    0  0.10209136741E+02 -0.60355634217E+01 -0.69424397777E+02  0.70430117887E+02  0.00000000000E+00 0. -1.
         11    1    4    4    0    0  0.63936755516E+02 -0.81369923737E+01  0.45970307921E+01  0.64616190254E+02  0.00000000000E+00 0.  1.
</event>
<event>
 8    1  0.7192024E-009  0.1236522E+03  0.7561462E-02  0.1237191E+00
          2   -1    0    0  501    0  0.00000000000E+00  0.00000000000E+00  0.16283173381E+04  0.16283173381E+04  0.00000000000E+00 0. -1.
         -2   -1    0    0    0  501 -0.00000000000E+00 -0.00000000000E+00 -0.17808911742E+02  0.17808911742E+02  0.00000000000E+00 0.  1.
         25    2    1    2    0    0 -0.36363913041E+02  0.10085990432E+03  0.12091625957E+04  0.12203350359E+04  0.12509341533E+03 0.  0.
         23    2    1    2    0    0  0.36363913041E+02 -0.10085990432E+03  0.40134583062E+03  0.42579121389E+03  0.93405715040E+02 0.  0.
          5    1    3    3  502    0 -0.29366473217E+02  0.11022131743E+03  0.11986398684E+04  0.12040623469E+04  0.41800000000E+01 0.  1.
         -5    1    3    3    0  502 -0.69974398236E+01 -0.93614131091E+01  0.10522727283E+02  0.16272689051E+02  0.41800000000E+01 0.  1.
        -11    1    4    4    0    0 -0.15005220851E+02 -0.21733877145E+02  0.20494030376E+02  0.33429378540E+02  0.00000000000E+00 0.  1.
         11    1    4    4    0    0  0.51369133891E+02 -0.79126027177E+02  0.38085180024E+03  0.39236183535E+03  0.00000000000E+00 0. -1.
</event>
<event>
 8    1  0.7192024E-009  0.8512083E+02  0.7561462E-02  0.1315117E+00
         -1   -1    0    0    0  501 -0.00000000000E+00  0.00000000000E+00  0.36040156219E+02  0.36040156219E+02  0.00000000000E+00 0.  1.
          1   -1    0    0  501    0  0.00000000000E+00 -0.00000000000E+00 -0.51385411799E+03  0.51385411799E+03  0.00000000000E+00 0. -1.
         25    2    1    2    0    0  0.60449532190E+02  0.42327382524E+02 -0.18840756428E+03  0.23788873867E+03  0.12509152032E+03 0.  0.
         23    2    1    2    0    0 -0.60449532190E+02 -0.42327382524E+02 -0.28940639749E+03  0.31200553554E+03  0.90253188559E+02 0.  0.
          5    1    3    3  502    0 -0.64235748864E-01  0.15653019770E+02 -0.16767671609E+03  0.16845763465E+03  0.41800000000E+01 0.  1.
         -5    1    3    3    0  502  0.60513767939E+02  0.26674362754E+02 -0.20730848192E+02  0.69431104019E+02  0.41800000000E+01 0.  1.
        -11    1    4    4    0    0 -0.59619729300E+02 -0.16398412168E+02 -0.27592686007E+03  0.28277031695E+03  0.00000000000E+00 0. -1.
         11    1    4    4    0    0 -0.82980289063E+00 -0.25928970356E+02 -0.13479537422E+02  0.29235218584E+02  0.00000000000E+00 0.  1.
</event>
<event>
 8    1  0.7192024E-009  0.1581496E+03  0.7561462E-02  0.1190802E+00
         -1   -1    0    0    0  501 -0.00000000000E+00  0.00000000000E+00  0.29808077126E+02  0.29808077126E+02  0.00000000000E+00 0.  1.
          1   -1    0    0  501    0  0.00000000000E+00 -0.00000000000E+00 -0.99149823906E+03  0.99149823906E+03  0.00000000000E+00 0. -1.
         25    2    1    2    0    0 -0.11367667598E+03 -0.59122012022E+02 -0.64365311435E+03  0.66809774354E+03  0.12508982510E+03 0.  0.
         23    2    1    2    0    0  0.11367667598E+03  0.59122012022E+02 -0.31803704759E+03  0.35320857265E+03  0.84799370196E+02 0.  0.
          5    1    3    3  502    0 -0.78319089794E+02 -0.98526307887E+02 -0.44716672550E+03  0.46456093892E+03  0.41800000000E+01 0.  1.
         -5    1    3    3    0  502 -0.35357586189E+02  0.39404295865E+02 -0.19648638884E+03  0.20353680462E+03  0.41800000000E+01 0.  1.
        -11    1    4    4    0    0  0.83997406283E+02  0.16947565545E+02 -0.11317695044E+03  0.14195705812E+03  0.00000000000E+00 0.  1.
         11    1    4    4    0    0  0.29679269700E+02  0.42174446477E+02 -0.20486009715E+03  0.21125151452E+03  0.00000000000E+00 0. -1.
</event>
<event>
 8    1  0.7192024E-009  0.9983411E+02  0.7561462E-02  0.1280645E+00
          2   -1    0    0  501    0  0.00000000000E+00  0.00000000000E+00  0.59664546529E+03  0.59664546529E+03  0.00000000000E+00 0.  1.
         -2   -1    0    0    0  501 -0.00000000000E+00 -0.00000000000E+00 -0.31203970957E+02  0.31203970957E+02  0.00000000000E+00 0. -1.
         25    2    1    2    0    0  0.75754822230E+02 -0.11090114031E+02  0.23653430867E+03  0.27831360355E+03  0.12509276167E+03 0.  0.
         23    2    1    2    0    0 -0.75754822230E+02  0.11090114031E+02  0.32890718566E+03  0.34953583270E+03  0.90186350611E+02 0.  0.
          5    1    3    3  502    0  0.75232173275E+02  0.11592712803E+02  0.51855722126E+02  0.92199561838E+02  0.41800000000E+01 0. -1.
         -5    1    3    3    0  502  0.52264895416E+00 -0.22682826834E+02  0.18467858654E+03  0.18611404171E+03  0.41800000000E+01 0. -1.
        -11    1    4    4    0    0 -0.70853188159E+02 -0.16162165694E+02  0.30307915815E+03  0.31167028408E+03  0.00000000000E+00 0. -1.
         11    1    4    4    0    0 -0.49016340706E+01  0.27252279725E+02  0.25828027509E+02  0.37865548613E+02  0.00000000000E+00 0.  1.
</event>
<event>
 8    1  0.7192024E-009  0.7941376E+02  0.7561462E-02  0.1330723E+00
         -1   -1    0    0    0  501 -0.00000000000E+00  0.00000000000E+00  0.52356483423E+02  0.52356483423E+02  0.00000000000E+00 0.  1.
          1   -1    0    0  501    0  0.00000000000E+00 -0.00000000000E+00 -0.27817528998E+03  0.27817528998E+03  0.00000000000E+00 0. -1.
         25    2    1    2    0    0 -0.39884955356E+02 -0.15919449886E+02 -0.17634700712E+03  0.22042874453E+03  0.12508527471E+03 0.  0.
         23    2    1    2    0    0  0.39884955356E+02  0.15919449886E+02 -0.49471799438E+02  0.11010302887E+03  0.88492821618E+02 0.  0.
          5    1    3    3  502    0 -0.68004665155E+01  0.24927206189E+02  0.90377646245E+01  0.27690531642E+02  0.41800000000E+01 0.  1.
         -5    1    3    3    0  502 -0.33084488841E+02 -0.40846656075E+02 -0.18538477174E+03  0.19273821289E+03  0.41800000000E+01 0.  1.
        -11    1    4    4    0    0 -0.19027708066E+02  0.53772294961E+00 -0.45224724354E+02  0.49067489370E+02  0.00000000000E+00 0. -1.
         11    1    4    4    0    0  0.58912663422E+02  0.15381726937E+02 -0.42470750846E+01  0.61035539498E+02  0.00000000000E+00 0.  1.
</event>
<event>
 8    1  0.7192024E-009  0.9645910E+02  0.7561462E-02  0.1287923E+00
         -1   -1    0    0    0  501 -0.00000000000E+00  0.00000000000E+00  0.39201909404E+02  0.39201909404E+02  0.00000000000E+00 0.  1.
          1   -1    0    0  501    0  0.00000000000E+00 -0.00000000000E+00 -0.28668627426E+03  0.28668627426E+03  0.00000000000E+00 0. -1.
         25    2    1    2    0    0  0.13622116897E+01  0.25598483442E+02 -0.13375472599E+03  0.18491705531E+03  0.12508738004E+03 0.  0.
         23    2    1    2    0    0 -0.13622116897E+01 -0.25598483442E+02 -0.11372963887E+03  0.14097112835E+03  0.79254591648E+02 0.  0.
          5    1    3    3  502    0 -0.59075255328E+02  0.14356625620E+02 -0.40585923827E+02  0.73216720113E+02  0.41800000000E+01 0.  1.
         -5    1    3    3    0  502  0.60437467018E+02  0.11241857822E+02 -0.93168802159E+02  0.11170033519E+03  0.41800000000E+01 0.  1.
        -11    1    4    4    0    0 -0.75376565108E+01 -0.47250740392E+02 -0.10740973513E+03  0.11758528791E+03  0.00000000000E+00 0. -1.
         11    1    4    4    0    0  0.61754448211E+01  0.21652256950E+02 -0.63199037369E+01  0.23385840439E+02  0.00000000000E+00 0.  1.
</event>
<event>
 8    1  0.7192024E-009  0.1105066E+03  0.7561462E-02  0.1259635E+00
          2   -1    0    0  501    0  0.00000000000E+00  0.00000000000E+00  0.44499103766E+03  0.44499103766E+03  0.00000000000E+00 0. -1.
         -2   -1    0    0    0  501 -0.00000000000E+00 -0.00000000000E+00 -0.35140754267E+02  0.35140754267E+02  0.00000000000E+00 0.  1.
         25    2    1    2    0    0  0.29938172667E+02  0.28408992811E+02  0.31236153415E+03  0.33899753367E+03  0.12508491022E+03 0.  0.
         23    2    1    2    0    0 -0.29938172667E+02 -0.28408992811E+02  0.97488749249E+02  0.14113425826E+03  0.93335189344E+02 0.  0.
          5    1    3    3  502    0 -0.16685331354E+02 -0.37431765340E+02  0.17371171319E+03  0.17852946267E+03  0.41800000000E+01 0. -1.
         -5    1    3    3    0  502  0.46623504021E+02  0.65840758151E+02  0.13864982095E+03  0.16046807100E+03  0.41800000000E+01 0. -1.
        -11    1    4    4    0    0 -0.52505891349E+02 -0.46479188089E+02  0.52258409637E+02  0.87453558702E+02  0.00000000000E+00 0.  1.
         11    1    4    4    0    0  0.22567718682E+02  0.18070195278E+02  0.45230339612E+02  0.53680699560E+02  0.00000000000E+00 0. -1.
</event>
<event>
 8    1  0.7192024E-009  0.1163757E+03  0.7561462E-02  0.1249199E+00
         -1   -1    0    0    0  501 -0.00000000000E+00  0.00000000000E+00  0.27466983136E+03  0.27466983136E+03  0.00000000000E+00 0.  1.
          1   -1    0    0  501    0  0.00000000000E+00 -0.00000000000E+00 -0.61105565538E+02  0.61105565538E+02  0.00000000000E+00 0. -1.
         25    2    1    2    0    0  0.33145235737E+02 -0.51952068782E+02  0.16081000681E+03  0.21285154564E+03  0.12509315763E+03 0.  0.
         23    2    1    2    0    0 -0.33145235737E+02  0.51952068782E+02  0.52754259010E+02  0.12292385126E+03  0.92356035338E+02 0.  0.
          5    1    3    3  502    0  0.79076421204E+02 -0.24319631090E+02  0.75902971213E+02  0.11235327448E+03  0.41800000000E+01 0.  1.
         -5    1    3    3    0  502 -0.45931185467E+02 -0.27632437692E+02  0.84907035602E+02  0.10049827116E+03  0.41800000000E+01 0.  1.
        -11    1    4    4    0    0 -0.34457380597E+02  0.70017018850E+02  0.64579643578E+02  0.10129276564E+03  0.00000000000E+00 0.  1.
         11    1    4    4    0    0  0.13121448592E+01 -0.18064950069E+02 -0.11825384569E+02  0.21631085625E+02  0.00000000000E+00 0. -1.
</event>
<event>
 8    1  0.7192024E-009  0.1057961E+03  0.7561462E-02  0.1268559E+00
         -2   -1    0    0    0  501 -0.00000000000E+00  0.00000000000E+00  0.10169065714E+04  0.10169065714E+04  0.00000000000E+00 0.  1.
          2   -1    0    0  501    0  0.00000000000E+00 -0.00000000000E+00 -0.12046395064E+02  0.12046395064E+02  0.00000000000E+00 0. -1.
         25    2    1    2    0    0 -0.10380543635E+02  0.95587657329E+01  0.65077276566E+03  0.66283645019E+03  0.12509133260E+03 0.  0.
         23    2    1    2    0    0  0.10380543635E+02 -0.95587657329E+01  0.35408741073E+03  0.36611651632E+03  0.92001540197E+02 0.  0.
          5    1    3    3  502    0  0.51102799176E+02 -0.21658747788E+02  0.24670059671E+03  0.25290166914E+03  0.41800000000E+01 0. -1.
         -5    1    3    3    0  502 -0.61483342811E+02  0.31217513521E+02  0.40407216895E+03  0.40993478105E+03  0.41800000000E+01 0. -1.
        -11    1    4    4    0    0  0.95501729618E+01  0.38052329867E+02  0.96597963776E+02  0.10426098128E+03  0.00000000000E+00 0. -1.
         11    1    4    4    0    0  0.83037067297E+00 -0.47611095600E+02  0.25748944695E+03  0.26185553504E+03  0.00000000000E+00 0.  1.
</event>
<event>
 8    1  0.7192024E-009  0.8903739E+02  0.7561462E-02  0.1305200E+00
         -1   -1    0    0    0  501 -0.00000000000E+00  0.00000000000E+00  0.41856051360E+02  0.41856051360E+02  0.00000000000E+00 0.  1.
          1   -1    0    0  501    0  0.00000000000E+00 -0.00000000000E+00 -0.46712583850E+03  0.46712583850E+03  0.00000000000E+00 0. -1.
         25    2    1    2    0    0 -0.69015345502E+02 -0.55922339491E+02 -0.23486661555E+03  0.28053526947E+03  0.12508910563E+03 0.  0.
         23    2    1    2    0    0  0.69015345502E+02  0.55922339491E+02 -0.19040317159E+03  0.22844662039E+03  0.89688709698E+02 0.  0.
          5    1    3    3  502    0 -0.42581453430E+02 -0.33995691072E+02 -0.13245576571E+02  0.56229928742E+02  0.41800000000E+01 0.  1.
         -5    1    3    3    0  502 -0.26433892072E+02 -0.21926648419E+02 -0.22162103898E+03  0.22430534073E+03  0.41800000000E+01 0.  1.
        -11    1    4    4    0    0  0.35876716883E+02  0.28747584053E+02 -0.15725602170E+02  0.48588650596E+02  0.00000000000E+00 0.  1.
         11    1    4    4    0    0  0.33138628619E+02  0.27174755438E+02 -0.17467756942E+03  0.17985796979E+03  0.00000000000E+00 0. -1.
</event>
<event>
 8    1  0.7192024E-009  0.1420567E+03  0.7561462E-02  0.1210588E+00
          1   -1    0    0  501    0  0.00000000000E+00  0.00000000000E+00  0.13304357916E+03  0.13304357916E+03  0.00000000000E+00 0. -1.
         -1   -1    0    0    0  501 -0.00000000000E+00 -0.00000000000E+00 -0.18528815021E+03  0.18528815021E+03  0.00000000000E+00 0.  1.
         25    2    1    2    0    0 -0.10200466901E+03  0.25449998941E+02 -0.72591839470E+02  0.17880290579E+03  0.12509296150E+03 0.  0.
         23    2    1    2    0    0  0.10200466901E+03 -0.25449998941E+02  0.20347268423E+02  0.13952882358E+03  0.89451810105E+02 0.  0.
          5    1    3    3  502    0  0.13253454461E+02  0.40948196880E+02 -0.37551675186E+02  0.57271367997E+02  0.41800000000E+01 0.  1.
         -5    1    3    3    0  502 -0.11525812348E+03 -0.15498197940E+02 -0.35040164284E+02  0.12153153780E+03  0.41800000000E+01 0.  1.
        -11    1    4    4    0    0  0.72132539682E+02  0.15533305135E+02 -0.17998049095E+02  0.75949434631E+02  0.00000000000E+00 0.  1.
         11    1    4    4    0    0  0.29872129332E+02 -0.40983304076E+02  0.38345317518E+02  0.63579388951E+02  0.00000000000E+00 0. -1.
</event>
<event>
 8    1  0.7192024E-009  0.1120213E+03  0.7561462E-02  0.1256872E+00
          2   -1    0    0  501    0  0.00000000000E+00  0.00000000000E+00  0.41834733008E+03  0.41834733008E+03  0.00000000000E+00 0. -1.
         -2   -1    0    0    0  501 -0.00000000000E+00 -0.00000000000E+00 -0.57607109922E+02  0.57607109922E+02  0.00000000000E+00 0.  1.
         25    2    1    2    0    0  0.52515577113E+02  0.50290807891E+01  0.35010873071E+03  0.37550845583E+03  0.12508916653E+03 0.  0.
         23    2    1    2    0    0 -0.52515577113E+02 -0.50290807891E+01  0.10631489442E+02  0.10044598417E+03  0.84812674026E+02 0.  0.
          5    1    3    3  502    0  0.18793558789E+02 -0.55520777980E+02  0.22366004661E+03  0.23125103997E+03  0.41800000000E+01 0.  1.
         -5    1    3    3    0  502  0.33722018325E+02  0.60549858769E+02  0.12644868410E+03  0.14425741585E+03  0.41800000000E+01 0.  1.
        -11    1    4    4    0    0 -0.22918875011E+02  0.37549202093E+02  0.19003280378E+02  0.47920163550E+02  0.00000000000E+00 0. -1.
         11    1    4    4    0    0 -0.29596702103E+02 -0.42578282882E+02 -0.83717909363E+01  0.52525820622E+02  0.00000000000E+00 0.  1.
</event>
<event>
 8    1  0.7192024E-009  0.7619719E+02  0.7561462E-02  0.1340203E+00
          2   -1    0    0  501    0  0.00000000000E+00  0.00000000000E+00  0.18482237067E+03  0.18482237067E+03  0.00000000000E+00 0. -1.
         -2   -1    0    0    0  501 -0.00000000000E+00 -0.00000000000E+00 -0.11005680671E+03  0.11005680671E+03  0.00000000000E+00 0.  1.
         25    2    1    2    0    0 -0.23533543831E+02 -0.60393310793E+02  0.10983449813E+03  0.17863845340E+03  0.12508757084E+03 0.  0.
         23    2    1    2    0    0  0.23533543831E+02  0.60393310793E+02 -0.35068934174E+02  0.11624072398E+03  0.89893804531E+02 0.  0.
          5    1    3    3  502    0  0.43041644779E+01 -0.23851011164E+02 -0.25638642770E+02  0.35527580392E+02  0.41800000000E+01 0. -1.
         -5    1    3    3    0  502 -0.27837708309E+02 -0.36542299629E+02  0.13547314090E+03  0.14311087301E+03  0.41800000000E+01 0. -1.
        -11    1    4    4    0    0 -0.18152819039E+01  0.55899164046E+02  0.16746743123E+02  0.58382062268E+02  0.00000000000E+00 0. -1.
         11    1    4    4    0    0  0.25348825735E+02  0.44941467475E+01 -0.51815677298E+02  0.57858661710E+02  0.00000000000E+00 0.  1.
</event>
<event>
 8    1  0.7192024E-009  0.1187482E+03  0.7561462E-02  0.1245177E+00
          2   -1    0    0  501    0  0.00000000000E+00  0.00000000000E+00  0.43152948415E+02  0.43152948415E+02  0.00000000000E+00 0. -1.
         -2   -1    0    0    0  501 -0.00000000000E+00 -0.00000000000E+00 -0.36852001219E+03  0.36852001219E+03  0.00000000000E+00 0.  1.
         25    2    1    2    0    0 -0.47611599447E+02 -0.43160932753E+02 -0.16710922244E+03  0.21841129934E+03  0.12509305711E+03 0.  0.
         23    2    1    2    0    0  0.47611599447E+02  0.43160932753E+02 -0.15825784134E+03  0.19326166127E+03  0.90414572127E+02 0.  0.
          5    1    3    3  502    0 -0.42524563985E+02 -0.80067694106E+02 -0.15389227988E+03  0.17866023729E+03  0.41800000000E+01 0. -1.
         -5    1    3    3    0  502 -0.50870354621E+01  0.36906761353E+02 -0.13216942554E+02  0.39751062047E+02  0.41800000000E+01 0. -1.
        -11    1    4    4    0    0 -0.24652075679E+02 -0.80169760826E+00 -0.22951954602E+02  0.33692132233E+02  0.00000000000E+00 0.  1.
         11    1    4    4    0    0  0.72263675125E+02  0.43962630361E+02 -0.13530588674E+03  0.15956952904E+03  0.00000000000E+00 0. -1.
</event>
<event>
 8    1  0.7192024E-009  0.1185557E+03  0.7561462E-02  0.1245499E+00
         -1   -1    0    0    0  501 -0.00000000000E+00  0.00000000000E+00  0.89785727888E+02  0.89785727888E+02  0.00000000000E+00 0.  1.
          1   -1    0    0  501    0  0.00000000000E+00 -0.00000000000E+00 -0.20527015142E+03  0.20527015142E+03  0.00000000000E+00 0. -1.
         25    2    1    2    0    0  0.55641077457E+02  0.55807196440E+02 -0.49331787533E+02  0.15585866070E+03  0.12509166310E+03 0.  0.
         23    2    1    2    0    0 -0.55641077457E+02 -0.55807196440E+02 -0.66152635999E+02  0.13919721861E+03  0.93751382625E+02 0.  0.
          5    1    3    3  502    0  0.71664454112E+02  0.70906634832E+02  0.84528209828E+00  0.10090456753E+03  0.41800000000E+01 0.  1.
         -5    1    3    3    0  502 -0.16023376655E+02 -0.15099438391E+02 -0.50177069631E+02  0.54954093168E+02  0.41800000000E+01 0.  1.
        -11    1    4    4    0    0 -0.50656014314E+02  0.66976039136E+01 -0.45546193572E+01  0.51299456546E+02  0.00000000000E+00 0.  1.
         11    1    4    4    0    0 -0.49850631430E+01 -0.62504800354E+02 -0.61598016641E+02  0.87897762065E+02  0.00000000000E+00 0. -1.
</event>
<event>
 8    1  0.7192024E-009  0.2655019E+03  0.7561462E-02  0.1103882E+00
         -1   -1    0    0    0  501 -0.00000000000E+00  0.00000000000E+00  0.47809994775E+03  0.47809994775E+03  0.00000000000E+00 0.  1.
          1   -1    0    0  501    0  0.00000000000E+00 -0.00000000000E+00 -0.16828826827E+03  0.16828826827E+03  0.00000000000E+00 0. -1.
         25    2    1    2    0    0  0.20450391126E+03  0.15199903681E+03  0.22684139350E+03  0.36335938408E+03  0.12508983684E+03 0.  0.
         23    2    1    2    0    0 -0.20450391126E+03 -0.15199903681E+03  0.82970285981E+02  0.28302883193E+03  0.91080702883E+02 0.  0.
          5    1    3    3  502    0  0.98013984899E+02  0.11164846713E+03  0.57745066604E+02  0.15944932288E+03  0.41800000000E+01 0. -1.
         -5    1    3    3    0  502  0.10648992636E+03  0.40350569678E+02  0.16909632690E+03  0.20391006120E+03  0.41800000000E+01 0. -1.
        -11    1    4    4    0    0 -0.36423988882E+02 -0.75348328165E+02  0.42715080735E+02  0.93960926164E+02  0.00000000000E+00 0.  1.
         11    1    4    4    0    0 -0.16807992238E+03 -0.76650708644E+02  0.40255205246E+02  0.18906790577E+03  0.00000000000E+00 0. -1.
</event>
<event>
 8    1  0.7192024E-009  0.1854218E+03  0.7561462E-02  0.1162657E+00
          2   -1    0    0  501    0  0.00000000000E+00  0.00000000000E+00  0.98557284317E+03  0.98557284317E+03  0.00000000000E+00 0. -1.
         -2   -1    0    0    0  501 -0.00000000000E+00 -0.00000000000E+00 -0.37121188782E+02  0.37121188782E+02  0.00000000000E+00 0.  1.
         25    2    1    2    0    0  0.11710555249E+03 -0.10030344055E+03  0.57223162481E+03  0.60569899766E+03  0.12509097778E+03 0.  0.
         23    2    1    2    0    0 -0.11710555249E+03  0.10030344055E+03  0.37622002958E+03  0.41699503429E+03  0.92568122793E+02 0.  0.
          5    1    3    3  502    0  0.44236504318E+02  0.21257462890E+02  0.84845510314E+02  0.98106987841E+02  0.41800000000E+01 0.  1.
         -5    1    3    3    0  502  0.72869048172E+02 -0.12156090344E+03  0.48738611450E+03  0.50759200982E+03  0.41800000000E+01 0.  1.
        -11    1    4    4    0    0 -0.11822473107E+02  0.68933103562E+02  0.15095065135E+03  0.16636599045E+03  0.00000000000E+00 0.  1.
         11    1    4    4    0    0 -0.10528307938E+03  0.31370336992E+02  0.22526937823E+03  0.25062904384E+03  0.00000000000E+00 0. -1.
</event>
<event>
 8    1  0.7192024E-009  0.1990671E+03  0.7561462E-02  0.1150528E+00
          1   -1    0    0  501    0  0.00000000000E+00  0.00000000000E+00  0.52333258627E+03  0.52333258627E+03  0.00000000000E+00 0. -1.
         -1   -1    0    0    0  501 -0.00000000000E+00 -0.00000000000E+00 -0.83012710619E+02  0.83012710619E+02  0.00000000000E+00 0.  1.
         25    2    1    2    0    0 -0.17525147734E+03 -0.26826606507E+02  0.24404983105E+03  0.32655638740E+03  0.12508399971E+03 0.  0.
         23    2    1    2    0    0  0.17525147734E+03  0.26826606507E+02  0.19627004460E+03  0.27978890949E+03  0.91253253864E+02 0.  0.
          5    1    3    3  502    0  0.96330475699E+01  0.19505031665E+02  0.49177719145E+02  0.53936651046E+02  0.41800000000E+01 0. -1.
         -5    1    3    3    0  502 -0.18488452491E+03 -0.46331638172E+02  0.19487211191E+03  0.27261973635E+03  0.41800000000E+01 0. -1.
        -11    1    4    4    0    0  0.19265935325E+02 -0.14330257752E+02 -0.20985515598E+01  0.24102623713E+02  0.00000000000E+00 0.  1.
         11    1    4    4    0    0  0.15598554202E+03  0.41156864259E+02  0.19836859616E+03  0.25568628578E+03  0.00000000000E+00 0. -1.
</event>
<event>
 8    1  0.7192024E-009  0.1262563E+03  0.7561462E-02  0.1233119E+00
         -2   -1    0    0    0  501 -0.00000000000E+00  0.00000000000E+00  0.71833059529E+02  0.71833059529E+02  0.00000000000E+00 0.  1.
          2   -1    0    0  501    0  0.00000000000E+00 -0.00000000000E+00 -0.39391453225E+03  0.39391453225E+03  0.00000000000E+00 0. -1.
         25    2    1    2    0    0  0.10903771518E+03 -0.20245954193E+02 -0.85365991061E+02  0.18770606833E+03  0.12508834344E+03 0.  0.
         23    2    1    2    0    0 -0.10903771518E+03  0.20245954193E+02 -0.23671548166E+03  0.27804152345E+03  0.94729866001E+02 0.  0.
          5    1    3    3  502    0  0.36275331728E+02 -0.42758680993E+02  0.18181535929E+02  0.59095220966E+02  0.41800000000E+01 0.  1.
         -5    1    3    3    0  502  0.72762383450E+02  0.22512726801E+02 -0.10354752699E+03  0.12861084736E+03  0.41800000000E+01 0.  1.
        -11    1    4    4    0    0 -0.75073368202E+02  0.35172305284E+02 -0.73923281551E+02  0.11107543935E+03  0.00000000000E+00 0.  1.
         11    1    4    4    0    0 -0.33964346976E+02 -0.14926351091E+02 -0.16279220011E+03  0.16696608410E+03  0.00000000000E+00 0. -1.
</event>
<event>
 8    1  0.7192024E-009  0.1407604E+03  0.7561462E-02  0.1212309E+00
         -2   -1    0    0    0  501 -0.00000000000E+00  0.00000000000E+00  0.42387943843E+02  0.42387943843E+02  0.00000000000E+00 0.  1.
          2   -1    0    0  501    0  0.00000000000E+00 -0.00000000000E+00 -0.78741097277E+03  0.78741097277E+03  0.00000000000E+00 0. -1.
         25    2    1    2    0    0  0.95401024613E+02  0.11608475944E+02 -0.64298625632E+03  0.66205318123E+03  0.12508787615E+03 0.  0.
         23    2    1    2    0    0 -0.95401024613E+02 -0.11608475944E+02 -0.10203677262E+03  0.16774573538E+03  0.92146712165E+02 0.  0.
          5    1    3    3  502    0  0.62400926019E+01  0.54839106436E+02 -0.29787727478E+03  0.30297625251E+03  0.41800000000E+01 0.  1.
         -5    1    3    3    0  502  0.89160932011E+02 -0.43230630492E+02 -0.34510898153E+03  0.35907692873E+03  0.41800000000E+01 0.  1.
        -11    1    4    4    0    0  0.12287861547E+02  0.11525593294E+02 -0.34895366042E+02  0.38749418233E+02  0.00000000000E+00 0. -1.
         11    1    4    4    0    0 -0.10768888616E+03 -0.23134069238E+02 -0.67141406574E+02  0.12899631715E+03  0.00000000000E+00 0.  1.
</event>
<event>
 8    1  0.7192024E-009  0.1014665E+03  0.7561462E-02  0.1277242E+00
          1   -1    0    0  501    0  0.00000000000E+00  0.00000000000E+00  0.16399293507E+03  0.16399293507E+03  0.00000000000E+00 0. -1.
         -1   -1    0    0    0  501 -0.00000000000E+00 -0.00000000000E+00 -0.90238528106E+02  0.90238528106E+02  0.00000000000E+00 0.  1.
         25    2    1    2    0    0 -0.14172594844E+02  0.36408778091E+02  0.72974504373E+02  0.14999817552E+03  0.12509081822E+03 0.  0.
         23    2    1    2    0    0  0.14172594844E+02 -0.36408778091E+02  0.77990258984E+00  0.10423328766E+03  0.96630784127E+02 0.  0.
          5    1    3    3  502    0  0.43604546612E+02 -0.11181570172E+02 -0.23834704318E+00  0.45209658327E+02  0.41800000000E+01 0.  1.
         -5    1    3    3    0  502 -0.57777141456E+02  0.47590348263E+02  0.73212851416E+02  0.10478851719E+03  0.41800000000E+01 0.  1.
        -11    1    4    4    0    0 -0.16897034765E+02  0.15060040794E+02  0.29844455992E+02  0.37456723910E+02  0.00000000000E+00 0. -1.
         11    1    4    4    0    0  0.31069629609E+02 -0.51468818885E+02 -0.29064553402E+02  0.66776563748E+02  0.00000000000E+00 0.  1.
</event>
<event>
 8    1  0.7192024E-009  0.1014064E+03  0.7561462E-02  0.1277366E+00
         -2   -1    0    0    0  501 -0.00000000000E+00  0.00000000000E+00  0.15827233372E+02  0.15827233372E+02  0.00000000000E+00 0.  1.
          2   -1    0    0  501    0  0.00000000000E+00 -0.00000000000E+00 -0.75600352934E+03  0.75600352934E+03  0.00000000000E+00 0. -1.
         25    2    1    2    0    0 -0.14784293804E+02  0.12510258667E+02 -0.40792680353E+03  0.42711539894E+03  0.12509278577E+03 0.  0.
         23    2    1    2    0    0  0.14784293804E+02 -0.12510258667E+02 -0.33224949243E+03  0.34471536378E+03  0.89799080651E+02 0.  0.
          5    1    3    3  502    0 -0.48026175639E+02  0.51035507713E+02 -0.17294471266E+03  0.18665069684E+03  0.41800000000E+01 0.  1.
         -5    1    3    3    0  502  0.33241881835E+02 -0.38525249046E+02 -0.23498209088E+03  0.24046470210E+03  0.41800000000E+01 0.  1.
        -11    1    4    4    0    0 -0.21561702938E+02  0.22446470086E+02 -0.57568719182E+02  0.65443933876E+02  0.00000000000E+00 0.  1.
         11    1    4    4    0    0  0.36345996742E+02 -0.34956728753E+02 -0.27468077325E+03  0.27927142990E+03  0.00000000000E+00 0. -1.
</event>
<event>
 8    1  0.7192024E-009  0.8599844E+02  0.7561462E-02  0.1312842E+00
          2   -1    0    0  501    0  0.00000000000E+00  0.00000000000E+00  0.83263531586E+03  0.83263531586E+03  0.00000000000E+00 0. -1.
         -2   -1    0    0    0  501 -0.00000000000E+00 -0.00000000000E+00 -0.17715302143E+02  0.17715302143E+02  0.00000000000E+00 0.  1.
         25    2    1    2    0    0 -0.46435011654E+02  0.23771868268E+02  0.40851733921E+03  0.43041296528E+03  0.12509033624E+03 0.  0.
         23    2    1    2    0    0  0.46435011654E+02 -0.23771868268E+02  0.40640267451E+03  0.41993765272E+03  0.91995577596E+02 0.  0.
          5    1    3    3  502    0 -0.46632916257E+02  0.31057690278E+01  0.41060094631E+02  0.62351250596E+02  0.41800000000E+01 0. -1.
         -5    1    3    3    0  502  0.19790460278E+00  0.20666099241E+02  0.36745724458E+03  0.36806171469E+03  0.41800000000E+01 0. -1.
        -11    1    4    4    0    0 -0.54598762249E+01 -0.46868890277E+02  0.14695588995E+03  0.15434551084E+03  0.00000000000E+00 0.  1.
         11    1    4    4    0    0  0.51894887879E+02  0.23097022008E+02  0.25944678456E+03  0.26559214189E+03  0.00000000000E+00 0. -1.
</event>
<event>
 8    1  0.7192024E-009  0.1073502E+03  0.7561462E-02  0.1265557E+00
         -1   -1    0    0    0  501 -0.00000000000E+00  0.00000000000E+00  0.48131131124E+02  0.48131131124E+02  0.00000000000E+00 0.  1.
          1   -1    0    0  501    0  0.00000000000E+00 -0.00000000000E+00 -0.29975515625E+03  0.29975515625E+03  0.00000000000E+00 0. -1.
         25    2    1    2    0    0 -0.11554031838E+02  0.63444745311E+01 -0.21299003714E+03  0.24735649144E+03  0.12508688952E+03 0.  0.
         23    2    1    2    0    0  0.11554031838E+02 -0.63444745311E+01 -0.38633987991E+02  0.10052979594E+03  0.91868965566E+02 0.  0.
          5    1    3    3  502    0 -0.49560374708E+02 -0.38692152887E+02 -0.13944078434E+03  0.15301803218E+03  0.41800000000E+01 0. -1.
         -5    1    3    3    0  502  0.38006342871E+02  0.45036627418E+02 -0.73549252802E+02  0.94338459259E+02  0.41800000000E+01 0. -1.
        -11    1    4    4    0    0  0.44145368986E+02  0.22082979824E+02 -0.17279272694E+02  0.52297656407E+02  0.00000000000E+00 0.  1.
         11    1    4    4    0    0 -0.32591337148E+02 -0.28427454356E+02 -0.21354715297E+02  0.48232139530E+02  0.00000000000E+00 0. -1.
</event>
<event>
 8    1  0.7192024E-009  0.1634866E+03  0.7561462E-02  0.1184816E+00
          1   -1    0    0  501    0  0.00000000000E+00  0.00000000000E+00  0.32897877730E+03  0.32897877730E+03  0.00000000000E+00 0. -1.
         -1   -1    0    0    0  501 -0.00000000000E+00 -0.00000000000E+00 -0.11239802365E+03  0.11239802365E+03  0.00000000000E+00 0.  1.
         25    2    1    2    0    0  0.10063015300E+01 -0.15041718213E+03  0.57270975138E+02  0.20384758987E+03  0.12509010344E+03 0.  0.
         23    2    1    2    0    0 -0.10063015300E+01  0.15041718213E+03  0.15930977852E+03  0.23752921108E+03  0.91728835510E+02 0.  0.
          5    1    3    3  502    0  0.39540403920E+02 -0.11339331650E+03 -0.67483155955E+01  0.12035156805E+03  0.41800000000E+01 0.  1.
         -5    1    3    3    0  502 -0.38534102390E+02 -0.37023865625E+02  0.64019290733E+02  0.83496021815E+02  0.41800000000E+01 0.  1.
        -11    1    4    4    0    0  0.13848460044E+02  0.59770508836E+02  0.12541726592E+03  0.13962014240E+03  0.00000000000E+00 0. -1.
         11    1    4    4    0    0 -0.14854761574E+02  0.90646673293E+02  0.33892512595E+02  0.97909068683E+02  0.00000000000E+00 0.  1.
</event>
<event>
 8    1  0.7192024E-009  0.1062181E+03  0.7561462E-02  0.1267738E+00
          2   -1    0    0  501    0  0.00000000000E+00  0.00000000000E+00  0.31629063175E+03  0.31629063175E+03  0.00000000000E+00 0. -1.
         -2   -1    0    0    0  501 -0.00000000000E+00 -0.00000000000E+00 -0.89107941590E+02  0.89107941590E+02  0.00000000000E+00 0.  1.
         25    2    1    2    0    0  0.14087753553E+02  0.70902120315E+02  0.24989386945E+03  0.28864977664E+03  0.12508465973E+03 0.  0.
         23    2    1    2    0    0 -0.14087753553E+02 -0.70902120315E+02 -0.22711179293E+02  0.11674879670E+03  0.88819527135E+02 0.  0.
          5    1    3    3  502    0  0.50227818277E+02  0.85025519619E+02  0.13505194218E+03  0.16735791646E+03  0.41800000000E+01 0. -1.
         -5    1    3    3    0  502 -0.36140064724E+02 -0.14123399304E+02  0.11484192727E+03  0.12129186018E+03  0.41800000000E+01 0. -1.
        -11    1    4    4    0    0 -0.14841568459E+02 -0.28264735858E+02 -0.54772236761E+02  0.63396887678E+02  0.00000000000E+00 0.  1.
         11    1    4    4    0    0  0.75381490607E+00 -0.42637384457E+02  0.32061057468E+02  0.53351909022E+02  0.00000000000E+00 0. -1.
</event>
<event>
 8    1  0.7192024E-009  0.1075354E+03  0.7561462E-02  0.1265203E+00
          1   -1    0    0  501    0  0.00000000000E+00  0.00000000000E+00  0.56304470533E+02  0.56304470533E+02  0.00000000000E+00 0. -1.
         -1   -1    0    0    0  501 -0.00000000000E+00 -0.00000000000E+00 -0.30488578875E+03  0.30488578875E+03  0.00000000000E+00 0.  1.
         25    2    1    2    0    0 -0.10827966053E+01  0.49364926866E+02 -0.21494207453E+03  0.25354830123E+03  0.12509427326E+03 0.  0.
         23    2    1    2    0    0  0.10827966053E+01 -0.49364926866E+02 -0.33639243686E+02  0.10764195805E+03  0.89538393796E+02 0.  0.
          5    1    3    3  502    0  0.22574764086E+02  0.79831857669E+02 -0.19015554076E+03  0.20750746385E+03  0.41800000000E+01 0. -1.
         -5    1    3    3    0  502 -0.23657560691E+02 -0.30466930804E+02 -0.24786533766E+02  0.46040837380E+02  0.41800000000E+01 0. -1.
        -11    1    4    4    0    0 -0.30774359446E+02  0.40203804776E+01  0.89311689557E+01  0.32295362475E+02  0.00000000000E+00 0.  1.
         11    1    4    4    0    0  0.31857156051E+02 -0.53385307343E+02 -0.42570412642E+02  0.75346595572E+02  0.00000000000E+00 0. -1.
</event>
<event>
 8    1  0.7192024E-009  0.1016454E+03  0.7561462E-02  0.1276873E+00
         -1   -1    0    0    0  501 -0.00000000000E+00  0.00000000000E+00  0.47862280961E+03  0.47862280961E+03  0.00000000000E+00 0.  1.
          1   -1    0    0  501    0  0.00000000000E+00 -0.00000000000E+00 -0.37581745652E+02  0.37581745652E+02  0.00000000000E+00 0. -1.
         25    2    1    2    0    0 -0.58952347851E+02 -0.28119555806E+02  0.33058012917E+03  0.35943970280E+03  0.12509032502E+03 0.  0.
         23    2    1    2    0    0  0.58952347851E+02  0.28119555806E+02  0.11046093479E+03  0.15676485246E+03  0.90041724307E+02 0.  0.
          5    1    3    3  502    0 -0.41935267223E+02  0.22456385494E+02  0.35392951931E+02  0.59438954676E+02  0.41800000000E+01 0.  1.
         -5    1    3    3    0  502 -0.17017080627E+02 -0.50575941300E+02  0.29518717724E+03  0.30000074813E+03  0.41800000000E+01 0.  1.
        -11    1    4    4    0    0 -0.19196830778E+02  0.10580264520E+02  0.55379078997E+02  0.59559236898E+02  0.00000000000E+00 0.  1.
         11    1    4    4    0    0  0.78149178629E+02  0.17539291285E+02  0.55081855790E+02  0.97205615560E+02  0.00000000000E+00 0. -1.
</event>
<event>
 8    1  0.7192024E-009  0.1488495E+03  0.7561462E-02  0.1201894E+00
         -1   -1    0    0    0  501 -0.00000000000E+00  0.00000000000E+00  0.62213727079E+02  0.62213727079E+02  0.00000000000E+00 0.  1.
          1   -1    0    0  501    0  0.00000000000E+00 -0.00000000000E+00 -0.44223146799E+03  0.44223146799E+03  0.00000000000E+00 0. -1.
         25    2    1    2    0    0 -0.12268278721E+03  0.24647790783E+02 -0.18890044872E+03  0.25882165396E+03  0.12508672656E+03 0.  0.
         23    2    1    2    0    0  0.12268278721E+03 -0.24647790783E+02 -0.19111729219E+03  0.24562354111E+03  0.90258100507E+02 0.  0.
          5    1    3    3  502    0  0.77166131406E+01 -0.19701535731E+02 -0.80950548488E+02  0.83774461079E+02  0.41800000000E+01 0. -1.
         -5    1    3    3    0  502 -0.13039940035E+03  0.44349326514E+02 -0.10794990023E+03  0.17504719288E+03  0.41800000000E+01 0. -1.
        -11    1    4    4    0    0  0.44050520119E+02 -0.38483307811E+02 -0.13757157684E+03  0.14949030757E+03  0.00000000000E+00 0. -1.
         11    1    4    4    0    0  0.78632267091E+02  0.13835517028E+02 -0.53545715347E+02  0.96133233542E+02  0.00000000000E+00 0.  1.
</event>
<event>
 8    1  0.7192024E-009  0.1021809E+03  0.7561462E-02  0.1275776E+00
          1   -1    0    0  501    0  0.00000000000E+00  0.00000000000E+00  0.19445606695E+03  0.19445606695E+03  0.00000000000E+00 0. -1.
         -1   -1    0    0    0  501 -0.00000000000E+00 -0.00000000000E+00 -0.10030782482E+03  0.10030782482E+03  0.00000000000E+00 0.  1.
         25    2    1    2    0    0 -0.53715850631E+01 -0.44544115000E+02  0.12860863305E+03  0.18493160115E+03  0.12508590849E+03 0.  0.
         23    2    1    2    0    0  0.53715850631E+01  0.44544115000E+02 -0.34460390915E+02  0.10983229063E+03  0.94141284329E+02 0.  0.
          5    1    3    3  502    0 -0.56116550439E+02 -0.53561420544E+01  0.99409387195E+02  0.11435669702E+03  0.41800000000E+01 0.  1.
         -5    1    3    3    0  502  0.50744965376E+02 -0.39187972946E+02  0.29199245850E+02  0.70574904129E+02  0.41800000000E+01 0.  1.
        -11    1    4    4    0    0 -0.26366876093E+02  0.44640179245E+02  0.12331489207E+02  0.53291869774E+02  0.00000000000E+00 0. -1.
         11    1    4    4    0    0  0.31738461156E+02 -0.96064245294E-01 -0.46791880122E+02  0.56540420853E+02  0.00000000000E+00 0.  1.
</event>
<event>
 8    1  0.7192024E-009  0.1092496E+03  0.7561462E-02  0.1261966E+00
         -1   -1    0    0    0  501 -0.00000000000E+00  0.00000000000E+00  0.12777537547E+03  0.12777537547E+03  0.00000000000E+00 0.  1.
          1   -1    0    0  501    0  0.00000000000E+00 -0.00000000000E+00 -0.16111711553E+03  0.16111711553E+03  0.00000000000E+00 0. -1.
         25    2    1    2    0    0 -0.26615519190E+02 -0.81788367202E+02  0.20812092880E+02  0.15322815203E+03  0.12509196814E+03 0.  0.
         23    2    1    2    0    0  0.26615519190E+02  0.81788367202E+02 -0.54153832944E+02  0.13566433896E+03  0.89857956647E+02 0.  0.
          5    1    3    3  502    0  0.94147173801E+01 -0.19667816323E+02 -0.48496295325E+02  0.53336881822E+02  0.41800000000E+01 0. -1.
         -5    1    3    3    0  502 -0.36030236570E+02 -0.62120550879E+02  0.69308388205E+02  0.99891270211E+02  0.41800000000E+01 0. -1.
        -11    1    4    4    0    0 -0.32874281233E+02  0.19467999967E+02 -0.15390117590E+02  0.41189526688E+02  0.00000000000E+00 0.  1.
         11    1    4    4    0    0  0.59489800424E+02  0.62320367234E+02 -0.38763715354E+02  0.94474812277E+02  0.00000000000E+00 0. -1.
</event>
<event>
 8    1  0.7192024E-009  0.1030533E+03  0.7561462E-02  0.1274003E+00
          1   -1    0    0  501    0  0.00000000000E+00  0.00000000000E+00  0.11903799266E+04  0.11903799266E+04  0.00000000000E+00 0. -1.
         -1   -1    0    0    0  501 -0.00000000000E+00 -0.00000000000E+00 -0.35195022311E+02  0.35195022311E+02  0.00000000000E+00 0.  1.
         25    2    1    2    0    0 -0.66453700455E+01  0.33768399914E+02  0.11115831417E+04  0.11191289974E+04  0.12509263084E+03 0.  0.
         23    2    1    2    0    0  0.66453700455E+01 -0.33768399914E+02  0.43601762656E+02  0.10644595151E+03  0.90802869503E+02 0.  0.
          5    1    3    3  502    0 -0.34644858441E+02 -0.37258002352E+02  0.34745062222E+03  0.35118062623E+03  0.41800000000E+01 0. -1.
         -5    1    3    3    0  502  0.27999488396E+02  0.71026402266E+02  0.76413251943E+03  0.76794837120E+03  0.41800000000E+01 0. -1.
        -11    1    4    4    0    0 -0.41823295902E+01 -0.54791335857E+02 -0.20976354065E+01  0.54990748677E+02  0.00000000000E+00 0.  1.
         11    1    4    4    0    0  0.10827699636E+02  0.21022935944E+02  0.45699398062E+02  0.51455202830E+02  0.00000000000E+00 0. -1.
</event>
<event>
 8    1  0.7192024E-009  0.1372366E+03  0.7561462E-02  0.1217096E+00
          2   -1    0    0  501    0  0.00000000000E+00  0.00000000000E+00  0.58514198350E+03  0.58514198350E+03  0.00000000000E+00 0. -1.
         -2   -1    0    0    0  501 -0.00000000000E+00 -0.00000000000E+00 -0.50010208623E+02  0.50010208623E+02  0.00000000000E+00 0.  1.
         25    2    1    2    0    0  0.34915956768E+02 -0.94885656191E+02  0.12706569755E+03  0.20497534080E+03  0.12508711786E+03 0.  0.
         23    2    1    2    0    0 -0.34915956768E+02  0.94885656191E+02  0.40806607733E+03  0.43017685132E+03  0.91169008762E+02 0.  0.
          5    1    3    3  502    0 -0.29113548039E+02 -0.78887855234E+02  0.33980618660E+02  0.90791228802E+02  0.41800000000E+01 0.  1.
         -5    1    3    3    0  502  0.64029504807E+02 -0.15997800957E+02  0.93085078887E+02  0.11418411200E+03  0.41800000000E+01 0.  1.
        -11    1    4    4    0    0  0.21703123401E+02  0.38788607999E+02  0.24109780754E+03  0.24516062995E+03  0.00000000000E+00 0.  1.
         11    1    4    4    0    0 -0.56619080169E+02  0.56097048192E+02  0.16696826978E+03  0.18501622137E+03  0.00000000000E+00 0. -1.
</event>
<event>
 8    1  0.7192024E-009  0.1348565E+03  0.7561462E-02  0.1220422E+00
         -2   -1    0    0    0  501 -0.00000000000E+00  0.00000000000E+00  0.19268709684E+02  0.19268709684E+02  0.00000000000E+00 0.  1.
          2   -1    0    0  501    0  0.00000000000E+00 -0.00000000000E+00 -0.27405133202E+04  0.27405133202E+04  0.00000000000E+00 0. -1.
         25    2    1    2    0    0 -0.71861348891E+02  0.86298307274E+02 -0.24169748096E+04  0.24228143469E+04  0.12510267116E+03 0.  0.
         23    2    1    2    0    0  0.71861348891E+02 -0.86298307274E+02 -0.30426980090E+03  0.33696768290E+03  0.91409278940E+02 0.  0.
          5    1    3    3  502    0 -0.51178746285E+02  0.10428328968E+03 -0.22851973667E+04  0.22881518188E+04  0.41800000000E+01 0. -1.
         -5    1    3    3    0  502 -0.20682602606E+02 -0.17984982405E+02 -0.13177744285E+03  0.13466252815E+03  0.41800000000E+01 0. -1.
        -11    1    4    4    0    0  0.29167717344E+02 -0.76601167355E+02 -0.10639360501E+03  0.13430597069E+03  0.00000000000E+00 0.  1.
         11    1    4    4    0    0  0.42693631547E+02 -0.96971399194E+01 -0.19787619589E+03  0.20266171221E+03  0.00000000000E+00 0. -1.
</event>
<event>
 8    1  0.7192024E-009  0.7399825E+02  0.7561462E-02  0.1347001E+00
         -1   -1    0    0    0  501 -0.00000000000E+00  0.00000000000E+00  0.73527217128E+02  0.73527217128E+02  0.00000000000E+00 0.  1.
          1   -1    0    0  501    0  0.00000000000E+00 -0.00000000000E+00 -0.18727911088E+03  0.18727911088E+03  0.00000000000E+00 0. -1.
         25    2    1    2    0    0 -0.29287315546E+02 -0.21617039586E+02 -0.41176222208E+02  0.13662697592E+03  0.12508559478E+03 0.  0.
         23    2    1    2    0    0  0.29287315546E+02  0.21617039586E+02 -0.72575671540E+02  0.12417935209E+03  0.93958715045E+02 0.  0.
          5    1    3    3  502    0 -0.47505628163E+02 -0.52543693917E+02 -0.62593552315E+02  0.94620556271E+02  0.41800000000E+01 0.  1.
         -5    1    3    3    0  502  0.18218312617E+02  0.30926654331E+02  0.21417330106E+02  0.42006419648E+02  0.41800000000E+01 0.  1.
        -11    1    4    4    0    0  0.78726483557E+01  0.17368829030E+02  0.20838977722E+02  0.28247438937E+02  0.00000000000E+00 0.  1.
         11    1    4    4    0    0  0.21414667190E+02  0.42482105561E+01 -0.93414649263E+02  0.95931913150E+02  0.00000000000E+00 0. -1.
</event>
<event>
 8    1  0.7192024E-009  0.1151843E+03  0.7561462E-02  0.1251260E+00
          2   -1    0    0  501    0  0.00000000000E+00  0.00000000000E+00  0.19797048684E+03  0.19797048684E+03  0.00000000000E+00 0.  1.
         -2   -1    0    0    0  501 -0.00000000000E+00 -0.00000000000E+00 -0.84809548397E+02  0.84809548397E+02  0.00000000000E+00 0. -1.
         25    2    1    2    0    0 -0.43778174887E+02  0.21722582042E+02  0.38419358729E+01  0.13435088078E+03  0.12508796716E+03 0.  0.
         23    2    1    2    0    0  0.43778174887E+02 -0.21722582042E+02  0.10931900257E+03  0.14842915445E+03  0.87705019253E+02 0.  0.
          5    1    3    3  502    0 -0.45620754614E+02  0.70975798321E+02 -0.22903765471E+01  0.84507605714E+02  0.41800000000E+01 0.  1.
         -5    1    3    3    0  502  0.18425797274E+01 -0.49253216279E+02  0.61323124200E+01  0.49843275068E+02  0.41800000000E+01 0.  1.
        -11    1    4    4    0    0  0.47447256513E+02  0.22177439642E+02  0.79613710140E+02  0.95296504773E+02  0.00000000000E+00 0. -1.
         11    1    4    4    0    0 -0.36690816260E+01 -0.43900021684E+02  0.29705292428E+02  0.53132649680E+02  0.00000000000E+00 0.  1.
</event>
<event>
 8    1  0.7192024E-009  0.1593710E+03  0.7561462E-02  0.1189409E+00
         -2   -1    0    0    0  501 -0.00000000000E+00  0.00000000000E+00  0.36487739167E+02  0.36487739167E+02  0.00000000000E+00 0.  1.
          2   -1    0    0  501    0  0.00000000000E+00 -0.00000000000E+00 -0.82962846673E+03  0.82962846673E+03  0.00000000000E+00 0. -1.
         25    2    1    2    0    0 -0.13462481947E+03  0.11378540904E+02 -0.44423741996E+03  0.48088723537E+03  0.12510929075E+03 0.  0.
         23    2    1    2    0    0  0.13462481947E+03 -0.11378540904E+02 -0.34890330760E+03  0.38522897053E+03  0.91730738969E+02 0.  0.
          5    1    3    3  502    0  0.98108794089E+01  0.59584705141E+01 -0.17372227852E+03  0.17415125374E+03  0.41800000000E+01 0. -1.
         -5    1    3    3    0  502 -0.14443569888E+03  0.54200703895E+01 -0.27051514144E+03  0.30673598162E+03  0.41800000000E+01 0. -1.
        -11    1    4    4    0    0  0.65379688405E+02  0.39152232473E+02 -0.18926943601E+03  0.20403509593E+03  0.00000000000E+00 0. -1.
         11    1    4    4    0    0  0.69245131064E+02 -0.50530773376E+02 -0.15963387159E+03  0.18119387460E+03  0.00000000000E+00 0.  1.
</event>
<event>
 8    1  0.7192024E-009  0.1248261E+03  0.7561462E-02  0.1235341E+00
          1   -1    0    0  501    0  0.00000000000E+00  0.00000000000E+00  0.87994146027E+03  0.87994146027E+03  0.00000000000E+00 0. -1.
         -1   -1    0    0    0  501 -0.00000000000E+00 -0.00000000000E+00 -0.18651997707E+02  0.18651997707E+02  0.00000000000E+00 0.  1.
         25    2    1    2    0    0 -0.24868179455E+02 -0.58698047640E+02  0.54057442274E+03  0.55850878921E+03  0.12508986356E+03 0.  0.
         23    2    1    2    0    0  0.24868179455E+02  0.58698047640E+02  0.32071503982E+03  0.34008466876E+03  0.93464207116E+02 0.  0.
          5    1    3    3  502    0  0.48562828760E+02 -0.38313898940E+02  0.19551613649E+03  0.20511054390E+03  0.41800000000E+01 0. -1.
         -5    1    3    3    0  502 -0.73431008215E+02 -0.20384148699E+02  0.34505828624E+03  0.35339824531E+03  0.41800000000E+01 0. -1.
        -11    1    4    4    0    0  0.24759069418E+02 -0.20493379444E+02  0.12222707950E+03  0.12638215492E+03  0.00000000000E+00 0.  1.
         11    1    4    4    0    0  0.10911003732E+00  0.79191427083E+02  0.19848796033E+03  0.21370251384E+03  0.00000000000E+00 0. -1.
</event>
<event>
 8    1  0.7192024E-009  0.1116791E+03  0.7561462E-02  0.1257492E+00
          1   -1    0    0  501    0  0.00000000000E+00  0.00000000000E+00  0.23432360979E+03  0.23432360979E+03  0.00000000000E+00 0. -1.
         -1   -1    0    0    0  501 -0.00000000000E+00 -0.00000000000E+00 -0.60829517514E+02  0.60829517514E+02  0.00000000000E+00 0.  1.
         25    2    1    2    0    0 -0.44569488357E+02 -0.14941503068E+02  0.96183476107E+02  0.16465292212E+03  0.12509850470E+03 0.  0.
         23    2    1    2    0    0  0.44569488357E+02  0.14941503068E+02  0.77310616174E+02  0.13050020519E+03  0.94040865454E+02 0.  0.
          5    1    3    3  502    0  0.39036185657E+02 -0.25246811427E+02  0.19238224992E+02  0.50485710639E+02  0.41800000000E+01 0.  1.
         -5    1    3    3    0  502 -0.83605674014E+02  0.10305308359E+02  0.76945251115E+02  0.11416721148E+03  0.41800000000E+01 0.  1.
        -11    1    4    4    0    0  0.44331939112E+02 -0.26002462388E+02  0.73072685912E+02  0.89336813812E+02  0.00000000000E+00 0. -1.
         11    1    4    4    0    0  0.23754924536E+00  0.40943965456E+02  0.42379302621E+01  0.41163391379E+02  0.00000000000E+00 0.  1.
</event>
<event>
 8    1  0.7192024E-009  0.1168935E+03  0.7561462E-02  0.1248312E+00
          1   -1    0    0  501    0  0.00000000000E+00  0.00000000000E+00  0.13911393646E+03  0.13911393646E+03  0.00000000000E+00 0. -1.
         -1   -1    0    0    0  501 -0.00000000000E+00 -0.00000000000E+00 -0.10410906506E+03  0.10410906506E+03  0.00000000000E+00 0.  1.
         25    2    1    2    0    0 -0.42722993878E+02 -0.16123752801E+02  0.45135030800E+02  0.14060563118E+03  0.12509013912E+03 0.  0.
         23    2    1    2    0    0  0.42722993878E+02  0.16123752801E+02 -0.10130159392E+02  0.10261737034E+03  0.91337149924E+02 0.  0.
          5    1    3    3  502    0  0.40936342911E+02  0.14941942401E+02  0.13084269032E+02  0.45691534334E+02  0.41800000000E+01 0. -1.
         -5    1    3    3    0  502 -0.83659336789E+02 -0.31065695202E+02  0.32050761768E+02  0.94914096847E+02  0.41800000000E+01 0. -1.
        -11    1    4    4    0    0  0.67593915831E+02 -0.53585599400E+01 -0.14858294027E+02  0.69414843682E+02  0.00000000000E+00 0.  1.
         11    1    4    4    0    0 -0.24870921953E+02  0.21482312741E+02  0.47281346352E+01  0.33202526660E+02  0.00000000000E+00 0. -1.
</event>
<event>
 8    1  0.7192024E-009  0.2179441E+03  0.7561462E-02  0.1135425E+00
          2   -1    0    0  501    0  0.00000000000E+00  0.00000000000E+00  0.17987309709E+04  0.17987309709E+04  0.00000000000E+00 0. -1.
         -2   -1    0    0    0  501 -0.00000000000E+00 -0.00000000000E+00 -0.50456168656E+02  0.50456168656E+02  0.00000000000E+00 0.  1.
         25    2    1    2    0    0  0.94202024849E+02  0.17225909405E+03  0.15070130369E+04  0.15248877403E+04  0.12508840945E+03 0.  0.
         23    2    1    2    0    0 -0.94202024849E+02 -0.17225909405E+03  0.24126176528E+03  0.32429939919E+03  0.91736818991E+02 0.  0.
          5    1    3    3  502    0 -0.20971696207E+02  0.51598685774E+02  0.21465982140E+03  0.22180745645E+03  0.41800000000E+01 0. -1.
         -5    1    3    3    0  502  0.11517372106E+03  0.12066040828E+03  0.12923532155E+04  0.13030802839E+04  0.41800000000E+01 0. -1.
        -11    1    4    4    0    0 -0.10246445104E+03 -0.10983837838E+03  0.19509586712E+03  0.24622313145E+03  0.00000000000E+00 0. -1.
         11    1    4    4    0    0  0.82624261954E+01 -0.62420715669E+02  0.46165898167E+02  0.78076267744E+02  0.00000000000E+00 0.  1.
</event>
<event>
 8    1  0.7192024E-009  0.1215487E+03  0.7561462E-02  0.1240564E+00
         -2   -1    0    0    0  501 -0.00000000000E+00  0.00000000000E+00  0.16332364682E+02  0.16332364682E+02  0.00000000000E+00 0.  1.
          2   -1    0    0  501    0  0.00000000000E+00 -0.00000000000E+00 -0.11462770264E+04  0.11462770264E+04  0.00000000000E+00 0. -1.
         25    2    1    2    0    0  0.33991555687E+02 -0.72096334781E+02 -0.64680766684E+03  0.66359717893E+03  0.12509096950E+03 0.  0.
         23    2    1    2    0    0 -0.33991555687E+02  0.72096334781E+02 -0.48313699486E+03  0.49901221213E+03  0.96117244611E+02 0.  0.
          5    1    3    3  502    0  0.43781915654E+02  0.23166464983E+01 -0.46188523731E+03  0.46398024509E+03  0.41800000000E+01 0. -1.
         -5    1    3    3    0  502 -0.97903599668E+01 -0.74412981279E+02 -0.18492242953E+03  0.19961693384E+03  0.41800000000E+01 0. -1.
        -11    1    4    4    0    0 -0.40204672765E+02 -0.10100066750E+02 -0.13341075655E+03  0.13970274522E+03  0.00000000000E+00 0.  1.
         11    1    4    4    0    0  0.62131170779E+01  0.82196401530E+02 -0.34972623831E+03  0.35930946691E+03  0.00000000000E+00 0. -1.
</event>
<event>
 8    1  0.7192024E-009  0.1598198E+03  0.7561462E-02  0.1188900E+00
          2   -1    0    0  501    0  0.00000000000E+00  0.00000000000E+00  0.61302746571E+03  0.61302746571E+03  0.00000000000E+00 0. -1.
         -2   -1    0    0    0  501 -0.00000000000E+00 -0.00000000000E+00 -0.53101073704E+02  0.53101073704E+02  0.00000000000E+00 0.  1.
         25    2    1    2    0    0 -0.10315771718E+03  0.99061898122E+02  0.31987621709E+03  0.37205154331E+03  0.12508709905E+03 0.  0.
         23    2    1    2    0    0  0.10315771718E+03 -0.99061898122E+02  0.24005017491E+03  0.29407699610E+03  0.91664709051E+02 0.  0.
          5    1    3    3  502    0 -0.19530905512E+02  0.48049075978E+02  0.18659977289E+02  0.55279626671E+02  0.41800000000E+01 0.  1.
         -5    1    3    3    0  502 -0.83626811665E+02  0.51012822144E+02  0.30121623980E+03  0.31677191664E+03  0.41800000000E+01 0.  1.
        -11    1    4    4    0    0 -0.59673248162E+01 -0.49234438532E+02  0.78565933657E+02  0.92909874795E+02  0.00000000000E+00 0. -1.
         11    1    4    4    0    0  0.10912504199E+03 -0.49827459590E+02  0.16148424125E+03  0.20116712130E+03  0.00000000000E+00 0.  1.
</event>
<event>
 8    1  0.7192024E-009  0.1044298E+03  0.7561462E-02  0.1271247E+00
          1   -1    0    0  501    0  0.00000000000E+00  0.00000000000E+00  0.73900826574E+03  0.73900826574E+03  0.00000000000E+00 0. -1.
         -1   -1    0    0    0  501 -0.00000000000E+00 -0.00000000000E+00 -0.22149430003E+02  0.22149430003E+02  0.00000000000E+00 0.  1.
         25    2    1    2    0    0  0.20729759251E+02  0.42728319700E+02  0.24845207214E+03  0.28218930998E+03  0.12508773837E+03 0.  0.
         23    2    1    2    0    0 -0.20729759251E+02 -0.42728319700E+02  0.46840676359E+03  0.47896838576E+03  0.88036277518E+02 0.  0.
          5    1    3    3  502    0  0.55262552530E+02  0.10586446425E+01  0.44339704206E+02  0.70982759947E+02  0.41800000000E+01 0. -1.
         -5    1    3    3    0  502 -0.34532793279E+02  0.41669675057E+02  0.20411236794E+03  0.21120655003E+03  0.41800000000E+01 0. -1.
        -11    1    4    4    0    0 -0.55021718922E+02 -0.29149933828E+02  0.26244974205E+03  0.26973500940E+03  0.00000000000E+00 0.  1.
         11    1    4    4    0    0  0.34291959671E+02 -0.13578385872E+02  0.20595702154E+03  0.20923337636E+03  0.00000000000E+00 0. -1.
</event>
<event>
 8    1  0.7192024E-009  0.1171983E+03  0.7561462E-02  0.1247792E+00
         -2   -1    0    0    0  501 -0.00000000000E+00  0.00000000000E+00  0.76976726001E+02  0.76976726001E+02  0.00000000000E+00 0.  1.
          2   -1    0    0  501    0  0.00000000000E+00 -0.00000000000E+00 -0.23880683688E+03  0.23880683688E+03  0.00000000000E+00 0. -1.
         25    2    1    2    0    0 -0.68595448984E+02  0.21732247448E+02 -0.13610894960E+03  0.19836483804E+03  0.12508131998E+03 0.  0.
         23    2    1    2    0    0  0.68595448984E+02 -0.21732247448E+02 -0.25721161273E+02  0.11741872484E+03  0.89151290542E+02 0.  0.
          5    1    3    3  502    0 -0.86131061628E+02  0.39963418057E+02 -0.47754060546E+02  0.10636520699E+03  0.41800000000E+01 0. -1.
         -5    1    3    3    0  502  0.17535612644E+02 -0.18231170609E+02 -0.88354889055E+02  0.91999631045E+02  0.41800000000E+01 0. -1.
        -11    1    4    4    0    0  0.42073924355E+02 -0.56212739006E+02 -0.88881207973E+01  0.70774895468E+02  0.00000000000E+00 0.  1.
         11    1    4    4    0    0  0.26521524629E+02  0.34480491559E+02 -0.16833040476E+02  0.46643829372E+02  0.00000000000E+00 0. -1.
</event>
<event>
 8    1  0.7192024E-009  0.8267236E+02  0.7561462E-02  0.1321634E+00
         -2   -1    0    0    0  501 -0.00000000000E+00  0.00000000000E+00  0.40824923301E+02  0.40824923301E+02  0.00000000000E+00 0.  1.
          2   -1    0    0  501    0  0.00000000000E+00 -0.00000000000E+00 -0.32680973427E+03  0.32680973427E+03  0.00000000000E+00 0. -1.
         25    2    1    2    0    0  0.25969804412E+02 -0.13183906360E+02 -0.20638368205E+03  0.24308612729E+03  0.12509354474E+03 0.  0.
         23    2    1    2    0    0 -0.25969804412E+02  0.13183906360E+02 -0.79601128921E+02  0.12454853028E+03  0.91256509590E+02 0.  0.
          5    1    3    3  502    0 -0.29196157802E+02 -0.26072192892E+01 -0.17718478563E+03  0.17964168192E+03  0.41800000000E+01 0. -1.
         -5    1    3    3    0  502  0.55165962214E+02 -0.10576687071E+02 -0.29198896418E+02  0.63444445371E+02  0.41800000000E+01 0. -1.
        -11    1    4    4    0    0 -0.35458343923E+02  0.38519913890E+02 -0.14923853399E+02  0.54440787284E+02  0.00000000000E+00 0.  1.
         11    1    4    4    0    0  0.94885395117E+01 -0.25336007530E+02 -0.64677275522E+02  0.70107743000E+02  0.00000000000E+00 0. -1.
</event>
<event>
 8    1  0.7192024E-009  0.2032914E+03  0.7561462E-02  0.1146991E+00
         -2   -1    0    0    0  501 -0.00000000000E+00  0.00000000000E+00  0.41213625694E+02  0.41213625694E+02  0.00000000000E+00 0.  1.
          2   -1    0    0  501    0  0.00000000000E+00 -0.00000000000E+00 -0.12707302441E+04  0.12707302441E+04  0.00000000000E+00 0. -1.
         25    2    1    2    0    0  0.13623254500E+03 -0.12785634195E+03 -0.84348318563E+03  0.87293655489E+03  0.12509114252E+03 0.  0.
         23    2    1    2    0    0 -0.13623254500E+03  0.12785634195E+03 -0.38603343282E+03  0.43900731495E+03  0.93803309261E+02 0.  0.
          5    1    3    3  502    0  0.94709405151E+02 -0.13150281971E+03 -0.78141674050E+03  0.79805542273E+03  0.41800000000E+01 0.  1.
         -5    1    3    3    0  502  0.41523139847E+02  0.36464777614E+01 -0.62066445122E+02  0.74881132156E+02  0.41800000000E+01 0.  1.
        -11    1    4    4    0    0 -0.10641704607E+03  0.46875987799E+02 -0.27351385612E+03  0.29720662075E+03  0.00000000000E+00 0. -1.
         11    1    4    4    0    0 -0.29815498924E+02  0.80980354148E+02 -0.11251957670E+03  0.14180069420E+03  0.00000000000E+00 0.  1.
</event>
<event>
 8    1  0.7192024E-009  0.1986990E+03  0.7561462E-02  0.1150841E+00
          1   -1    0    0  501    0  0.00000000000E+00  0.00000000000E+00  0.10504451447E+04  0.10504451447E+04  0.00000000000E+00 0. -1.
         -1   -1    0    0    0  501 -0.00000000000E+00 -0.00000000000E+00 -0.38062384409E+02  0.38062384409E+02  0.00000000000E+00 0.  1.
         25    2    1    2    0    0 -0.13493988346E+03  0.97533623036E+02  0.47242581478E+03  0.51629009617E+03  0.12509089961E+03 0.  0.
         23    2    1    2    0    0  0.13493988346E+03 -0.97533623036E+02  0.53995694555E+03  0.57221743298E+03  0.90320029814E+02 0.  0.
          5    1    3    3  502    0  0.23388099872E+02  0.40520719710E+01  0.63066228109E+02  0.67514768983E+02  0.41800000000E+01 0.  1.
         -5    1    3    3    0  502 -0.15832798333E+03  0.93481551065E+02  0.40935958667E+03  0.44877532719E+03  0.41800000000E+01 0.  1.
        -11    1    4    4    0    0 -0.11564902750E+02 -0.21285654870E+02  0.72819828190E+02  0.76743426145E+02  0.00000000000E+00 0.  1.
         11    1    4    4    0    0  0.14650478621E+03 -0.76247968166E+02  0.46713711736E+03  0.49547400683E+03  0.00000000000E+00 0. -1.
</event>
<event>
 8    1  0.7192024E-009  0.4072526E+03  0.7561462E-02  0.1041297E+00
         -1   -1    0    0    0  501 -0.00000000000E+00  0.00000000000E+00  0.92944836775E+03  0.92944836775E+03  0.00000000000E+00 0.  1.
          1   -1    0    0  501    0  0.00000000000E+00 -0.00000000000E+00 -0.59302333462E+03  0.59302333462E+03  0.00000000000E+00 0. -1.
         25    2    1    2    0    0  0.16588968568E+03 -0.36215061103E+03  0.80161357681E+03  0.90382667403E+03  0.12508348127E+03 0.  0.
         23    2    1    2    0    0 -0.16588968568E+03  0.36215061103E+03 -0.46518854368E+03  0.61864502833E+03  0.87457629848E+02 0.  0.
          5    1    3    3  502    0 -0.10062302465E+02 -0.13025159484E+02  0.72640636056E+01  0.18470076625E+02  0.41800000000E+01 0.  1.
         -5    1    3    3    0  502  0.17595198815E+03 -0.34912545155E+03  0.79434951320E+03  0.88535659741E+03  0.41800000000E+01 0.  1.
        -11    1    4    4    0    0 -0.81441491701E+02  0.89008293808E+02 -0.11624327874E+03  0.16753415409E+03  0.00000000000E+00 0.  1.
         11    1    4    4    0    0 -0.84448193981E+02  0.27314231722E+03 -0.34894526494E+03  0.45111087423E+03  0.00000000000E+00 0. -1.
</event>
<event>
 8    1  0.7192024E-009  0.7770710E+02  0.7561462E-02  0.1335687E+00
         -2   -1    0    0    0  501 -0.00000000000E+00  0.00000000000E+00  0.30893061150E+02  0.30893061150E+02  0.00000000000E+00 0.  1.
          2   -1    0    0  501    0  0.00000000000E+00 -0.00000000000E+00 -0.40359247847E+03  0.40359247847E+03  0.00000000000E+00 0. -1.
         25    2    1    2    0    0  0.45848038929E+01  0.19557527530E+02 -0.17633769183E+03  0.21713896270E+03  0.12510327834E+03 0.  0.
         23    2    1    2    0    0 -0.45848038929E+01 -0.19557527530E+02 -0.19636172549E+03  0.21734657692E+03  0.90984009325E+02 0.  0.
          5    1    3    3  502    0  0.41992268967E+02 -0.33445869404E+01 -0.79370280388E+01  0.43069777441E+02  0.41800000000E+01 0.  1.
         -5    1    3    3    0  502 -0.37407465074E+02  0.22902114470E+02 -0.16840066379E+03  0.17406918525E+03  0.41800000000E+01 0.  1.
        -11    1    4    4    0    0  0.30672594126E+02 -0.12170711002E+02 -0.22857423562E+02  0.40142197855E+02  0.00000000000E+00 0.  1.
         11    1    4    4    0    0 -0.35257398019E+02 -0.73868165272E+01 -0.17350430193E+03  0.17720437907E+03  0.00000000000E+00 0. -1.
</event>
<event>
 8    1  0.7192024E-009  0.1140352E+03  0.7561462E-02  0.1253275E+00
          1   -1    0    0  501    0  0.00000000000E+00  0.00000000000E+00  0.31675573224E+03  0.31675573224E+03  0.00000000000E+00 0. -1.
         -1   -1    0    0    0  501 -0.00000000000E+00 -0.00000000000E+00 -0.46988033441E+02  0.46988033441E+02  0.00000000000E+00 0.  1.
         25    2    1    2    0    0  0.54592446155E+01 -0.54823843379E+02  0.15255460835E+03  0.20483081777E+03  0.12508916110E+03 0.  0.
         23    2    1    2    0    0 -0.54592446155E+01  0.54823843379E+02  0.11721309045E+03  0.15891294792E+03  0.92081264583E+02 0.  0.
          5    1    3    3  502    0 -0.52556674281E+02  0.50903863970E+01  0.64825290130E+02  0.83713240802E+02  0.41800000000E+01 0.  1.
         -5    1    3    3    0  502  0.58015918897E+02 -0.59914229776E+02  0.87729318219E+02  0.12111757697E+03  0.41800000000E+01 0.  1.
        -11    1    4    4    0    0  0.29176701690E+02  0.48187171783E+02  0.27844726293E+02  0.62837983961E+02  0.00000000000E+00 0.  1.
         11    1    4    4    0    0 -0.34635946306E+02  0.66366715961E+01  0.89368364161E+02  0.96074963956E+02  0.00000000000E+00 0. -1.
</event>
<event>
 8    1  0.7192024E-009  0.1956887E+03  0.7561462E-02  0.1153428E+00
         -2   -1    0    0    0  501 -0.00000000000E+00  0.00000000000E+00  0.44572547030E+03  0.44572547030E+03  0.00000000000E+00 0. -1.
          2   -1    0    0  501    0  0.00000000000E+00 -0.00000000000E+00 -0.10378980979E+03  0.10378980979E+03  0.00000000000E+00 0.  1.
         25    2    1    2    0    0  0.15942302814E+03  0.61554914604E+02  0.26904872752E+03  0.34240367388E+03  0.12509335991E+03 0.  0.
         23    2    1    2    0    0 -0.15942302814E+03 -0.61554914604E+02  0.72886932991E+02  0.20711160620E+03  0.91531431796E+02 0.  0.
          5    1    3    3  502    0  0.11647579797E+03  0.92827820750E+02  0.23780691177E+03  0.28063003315E+03  0.41800000000E+01 0. -1.
         -5    1    3    3    0  502  0.42947230173E+02 -0.31272906146E+02  0.31241815746E+02  0.61773640734E+02  0.41800000000E+01 0. -1.
        -11    1    4    4    0    0 -0.65937826207E+02 -0.68831442848E+02  0.13882869887E+02  0.96323924991E+02  0.00000000000E+00 0.  1.
         11    1    4    4    0    0 -0.93485201936E+02  0.72765282435E+01  0.59004063104E+02  0.11078768121E+03  0.00000000000E+00 0. -1.
</event>
<event>
 8    1  0.7192024E-009  0.1151995E+03  0.7561462E-02  0.1251233E+00
          1   -1    0    0  501    0  0.00000000000E+00  0.00000000000E+00  0.11942061574E+04  0.11942061574E+04  0.00000000000E+00 0. -1.
         -1   -1    0    0    0  501 -0.00000000000E+00 -0.00000000000E+00 -0.12365022170E+02  0.12365022170E+02  0.00000000000E+00 0.  1.
         25    2    1    2    0    0  0.28224702163E+01  0.40055026444E+02  0.85516539483E+03  0.86519848052E+03  0.12509271239E+03 0.  0.
         23    2    1    2    0    0 -0.28224702163E+01 -0.40055026444E+02  0.32667574044E+03  0.34137269909E+03  0.90586471464E+02 0.  0.
          5    1    3    3  502    0  0.56914560866E+02  0.50402846232E+02  0.50057223362E+03  0.50632968273E+03  0.41800000000E+01 0. -1.
         -5    1    3    3    0  502 -0.54092090650E+02 -0.10347819788E+02  0.35459316121E+03  0.35886879779E+03  0.41800000000E+01 0. -1.
        -11    1    4    4    0    0  0.13095214080E+02 -0.66709558977E+02  0.22964506771E+03  0.23949636117E+03  0.00000000000E+00 0. -1.
         11    1    4    4    0    0 -0.15917684296E+02  0.26654532533E+02  0.97030672726E+02  0.10187633792E+03  0.00000000000E+00 0.  1.
</event>
<event>
 8    1  0.7192024E-009  0.7781716E+02  0.7561462E-02  0.1335363E+00
          2   -1    0    0  501    0  0.00000000000E+00  0.00000000000E+00  0.18484997669E+04  0.18484997669E+04  0.00000000000E+00 0. -1.
         -2   -1    0    0    0  501 -0.00000000000E+00 -0.00000000000E+00 -0.10346082777E+02  0.10346082777E+02  0.00000000000E+00 0.  1.
         25    2    1    2    0    0 -0.52556016588E+01 -0.14950678535E+01  0.15730938237E+04  0.15780689592E+04  0.12509038832E+03 0.  0.
         23    2    1    2    0    0  0.52556016588E+01  0.14950678535E+01  0.26505986041E+03  0.28077689047E+03  0.92461213718E+02 0.  0.
          5    1    3    3  502    0  0.80828636297E+01  0.39988031147E+02  0.19431870521E+03  0.19859911106E+03  0.41800000000E+01 0. -1.
         -5    1    3    3    0  502 -0.13338465288E+02 -0.41483099000E+02  0.13787751185E+04  0.13794698482E+04  0.41800000000E+01 0. -1.
        -11    1    4    4    0    0  0.38044279336E+02  0.92622545831E+00  0.22857021381E+03  0.23171656765E+03  0.00000000000E+00 0. -1.
         11    1    4    4    0    0 -0.32788677678E+02  0.56884239522E+00  0.36489646603E+02  0.49060322816E+02  0.00000000000E+00 0.  1.
</event>
<event>
 8    1  0.7192024E-009  0.1405425E+03  0.7561462E-02  0.1212601E+00
         -2   -1    0    0    0  501 -0.00000000000E+00  0.00000000000E+00  0.13575663331E+03  0.13575663331E+03  0.00000000000E+00 0.  1.
          2   -1    0    0  501    0  0.00000000000E+00 -0.00000000000E+00 -0.25511589693E+03  0.25511589693E+03  0.00000000000E+00 0. -1.
         25    2    1    2    0    0  0.10763988664E+03  0.23610156228E+02 -0.17080181160E+03  0.23867310775E+03  0.12509120211E+03 0.  0.
         23    2    1    2    0    0 -0.10763988664E+03 -0.23610156228E+02  0.51442547982E+02  0.15219942248E+03  0.91512533499E+02 0.  0.
          5    1    3    3  502    0  0.23792274139E+02  0.55767279843E+02 -0.12219570747E+03  0.13647463183E+03  0.41800000000E+01 0.  1.
         -5    1    3    3    0  502  0.83847612504E+02 -0.32157123615E+02 -0.48606104135E+02  0.10219847592E+03  0.41800000000E+01 0.  1.
        -11    1    4    4    0    0 -0.11739059884E+03 -0.26289981348E+02  0.63850056463E+02  0.13619304507E+03  0.00000000000E+00 0.  1.
         11    1    4    4    0    0  0.97507121988E+01  0.26798251197E+01 -0.12407508482E+02  0.16006377410E+02  0.00000000000E+00 0. -1.
</event>
<event>
 8    1  0.7192024E-009  0.1391548E+03  0.7561462E-02  0.1214471E+00
          1   -1    0    0  501    0  0.00000000000E+00  0.00000000000E+00  0.18536637062E+03  0.18536637062E+03  0.00000000000E+00 0. -1.
         -1   -1    0    0    0  501 -0.00000000000E+00 -0.00000000000E+00 -0.13838002070E+03  0.13838002070E+03  0.00000000000E+00 0.  1.
         25    2    1    2    0    0  0.41855826185E+02  0.10855747328E+03  0.35737378230E+02  0.17452750475E+03  0.12508418973E+03 0.  0.
         23    2    1    2    0    0 -0.41855826185E+02 -0.10855747328E+03  0.11248971687E+02  0.14921888658E+03  0.92752905915E+02 0.  0.
          5    1    3    3  502    0 -0.12213125616E+02  0.40944933273E+02 -0.40556083222E+02  0.59058583494E+02  0.41800000000E+01 0. -1.
         -5    1    3    3    0  502  0.54068951800E+02  0.67612540010E+02  0.76293461452E+02  0.11546892125E+03  0.41800000000E+01 0. -1.
        -11    1    4    4    0    0 -0.71579296470E+02 -0.81975607274E+02  0.10530827388E+02  0.10933660959E+03  0.00000000000E+00 0.  1.
         11    1    4    4    0    0  0.29723470286E+02 -0.26581866008E+02  0.71814429973E+00  0.39882276986E+02  0.00000000000E+00 0. -1.
</event>
<event>
 8    1  0.7192024E-009  0.9359818E+02  0.7561462E-02  0.1294365E+00
          1   -1    0    0  501    0  0.00000000000E+00  0.00000000000E+00  0.11684764128E+03  0.11684764128E+03  0.00000000000E+00 0. -1.
         -1   -1    0    0    0  501 -0.00000000000E+00 -0.00000000000E+00 -0.13560073815E+03  0.13560073815E+03  0.00000000000E+00 0.  1.
         25    2    1    2    0    0 -0.29028671777E+02  0.43556168445E+02 -0.48515410902E+02  0.14401950377E+03  0.12509224107E+03 0.  0.
         23    2    1    2    0    0  0.29028671777E+02 -0.43556168445E+02  0.29762314037E+02  0.10842887565E+03  0.90173289526E+02 0.  0.
          5    1    3    3  502    0 -0.55891680759E+01  0.75981088136E+02 -0.65301952367E+02  0.10042998525E+03  0.41800000000E+01 0.  1.
         -5    1    3    3    0  502 -0.23439503701E+02 -0.32424919692E+02  0.16786541465E+02  0.43589518523E+02  0.41800000000E+01 0.  1.
        -11    1    4    4    0    0 -0.13127342290E+02 -0.70427694675E+01  0.47598734718E+02  0.49875517683E+02  0.00000000000E+00 0. -1.
         11    1    4    4    0    0  0.42156014067E+02 -0.36513398977E+02 -0.17836420681E+02  0.58553357970E+02  0.00000000000E+00 0.  1.
</event>
<event>
 8    1  0.7192024E-009  0.1381968E+03  0.7561462E-02  0.1215776E+00
          1   -1    0    0  501    0  0.00000000000E+00  0.00000000000E+00  0.89139451682E+03  0.89139451682E+03  0.00000000000E+00 0. -1.
         -1   -1    0    0    0  501 -0.00000000000E+00 -0.00000000000E+00 -0.26335615190E+02  0.26335615190E+02  0.00000000000E+00 0.  1.
         25    2    1    2    0    0  0.87868860163E+02  0.45505457937E+02  0.33789197540E+03  0.37364557753E+03  0.12509335424E+03 0.  0.
         23    2    1    2    0    0 -0.87868860163E+02 -0.45505457937E+02  0.52716692622E+03  0.54408455448E+03  0.91276234753E+02 0.  0.
          5    1    3    3  502    0  0.87778819036E+02 -0.78735798341E+01  0.11805589704E+03  0.14738311150E+03  0.41800000000E+01 0. -1.
         -5    1    3    3    0  502  0.90041127273E-01  0.53379037771E+02  0.21983607837E+03  0.22626246603E+03  0.41800000000E+01 0. -1.
        -11    1    4    4    0    0 -0.28879414232E+02  0.28099858079E+02  0.15679648853E+03  0.16189120238E+03  0.00000000000E+00 0. -1.
         11    1    4    4    0    0 -0.58989445932E+02 -0.73605316016E+02  0.37037043769E+03  0.38219335210E+03  0.00000000000E+00 0.  1.
</event>
<event>
 8    1  0.7192024E-009  0.1395825E+03  0.7561462E-02  0.1213892E+00
          2   -1    0    0  501    0  0.00000000000E+00  0.00000000000E+00  0.11797319273E+03  0.11797319273E+03  0.00000000000E+00 0. -1.
         -2   -1    0    0    0  501 -0.00000000000E+00 -0.00000000000E+00 -0.38993392825E+03  0.38993392825E+03  0.00000000000E+00 0.  1.
         25    2    1    2    0    0 -0.11715490515E+03  0.50429075365E+02  0.16427533381E+02  0.17940426551E+03  0.12509061990E+03 0.  0.
         23    2    1    2    0    0  0.11715490515E+03 -0.50429075365E+02 -0.28838826890E+03  0.32850285546E+03  0.92075886983E+02 0.  0.
          5    1    3    3  502    0 -0.88867625196E+02  0.59891116318E+02  0.62672028819E+02  0.12421616730E+03  0.41800000000E+01 0. -1.
         -5    1    3    3    0  502 -0.28287279954E+02 -0.94620409524E+01 -0.46244495439E+02  0.55188098214E+02  0.41800000000E+01 0. -1.
        -11    1    4    4    0    0  0.49823888336E+02  0.10584472856E+02 -0.42414369663E+02  0.66282951567E+02  0.00000000000E+00 0. -1.
         11    1    4    4    0    0  0.67331016813E+02 -0.61013548221E+02 -0.24597389924E+03  0.26221990389E+03  0.00000000000E+00 0.  1.
</event>
<event>
 8    1  0.7192024E-009  0.1107623E+03  0.7561462E-02  0.1259165E+00
         -1   -1    0    0    0  501 -0.00000000000E+00  0.00000000000E+00  0.26362623395E+03  0.26362623395E+03  0.00000000000E+00 0.  1.
          1   -1    0    0  501    0  0.00000000000E+00 -0.00000000000E+00 -0.59846951297E+02  0.59846951297E+02  0.00000000000E+00 0. -1.
         25    2    1    2    0    0  0.37337408600E+02  0.53852840326E+02  0.11196540167E+03  0.18021614127E+03  0.12508955157E+03 0.  0.
         23    2    1    2    0    0 -0.37337408600E+02 -0.53852840326E+02  0.91813880986E+02  0.14325704398E+03  0.88309577144E+02 0.  0.
          5    1    3    3  502    0  0.77828271766E+02  0.81656674044E+01  0.49050858487E+02  0.92452026092E+02  0.41800000000E+01 0. -1.
         -5    1    3    3    0  502 -0.40490863166E+02  0.45687172921E+02  0.62914543185E+02  0.87764115182E+02  0.41800000000E+01 0. -1.
        -11    1    4    4    0    0 -0.70817227010E+01 -0.51097660273E+02  0.56506979154E+01  0.51894624662E+02  0.00000000000E+00 0. -1.
         11    1    4    4    0    0 -0.30255685899E+02 -0.27551800521E+01  0.86163183071E+02  0.91362419316E+02  0.00000000000E+00 0.  1.
</event>
<event>
 8    1  0.7192024E-009  0.1142206E+03  0.7561462E-02  0.1252948E+00
         -2   -1    0    0    0  501 -0.00000000000E+00  0.00000000000E+00  0.16462834323E+03  0.16462834323E+03  0.00000000000E+00 0.  1.
          2   -1    0    0  501    0  0.00000000000E+00 -0.00000000000E+00 -0.14060281963E+03  0.14060281963E+03  0.00000000000E+00 0. -1.
         25    2    1    2    0    0 -0.27620520778E+02  0.97579112726E+02  0.45890826284E+02  0.16744599644E+03  0.12509043679E+03 0.  0.
         23    2    1    2    0    0  0.27620520778E+02 -0.97579112726E+02 -0.21865302686E+02  0.13778516642E+03  0.90675709067E+02 0.  0.
          5    1    3    3  502    0 -0.23333300723E+02  0.31797573793E+02  0.82779295295E+02  0.91790047125E+02  0.41800000000E+01 0. -1.
         -5    1    3    3    0  502 -0.42872200551E+01  0.65781538933E+02 -0.36888469011E+02  0.75655949311E+02  0.41800000000E+01 0. -1.
        -11    1    4    4    0    0  0.28278449673E+02 -0.10832775440E+03 -0.38134953028E+02  0.11827445934E+03  0.00000000000E+00 0. -1.
         11    1    4    4    0    0 -0.65792889529E+00  0.10748641678E+02  0.16269650342E+02  0.19510707076E+02  0.00000000000E+00 0.  1.
</event>
<event>
 8    1  0.7192024E-009  0.8455027E+02  0.7561462E-02  0.1316613E+00
          1   -1    0    0  501    0  0.00000000000E+00  0.00000000000E+00  0.53837162236E+03  0.53837162236E+03  0.00000000000E+00 0. -1.
         -1   -1    0    0    0  501 -0.00000000000E+00 -0.00000000000E+00 -0.28982273149E+02  0.28982273149E+02  0.00000000000E+00 0.  1.
         25    2    1    2    0    0  0.41955028034E+02  0.24167373260E+02  0.19888722770E+03  0.23989534456E+03  0.12509740482E+03 0.  0.
         23    2    1    2    0    0 -0.41955028034E+02 -0.24167373260E+02  0.31050212151E+03  0.32745855095E+03  0.92050251590E+02 0.  0.
          5    1    3    3  502    0  0.35711127284E+02 -0.42478109764E+01 -0.25787131578E+01  0.36296703315E+02  0.41800000000E+01 0. -1.
         -5    1    3    3    0  502  0.62439007504E+01  0.28415184237E+02  0.20146594086E+03  0.20359864125E+03  0.41800000000E+01 0. -1.
        -11    1    4    4    0    0 -0.12739558807E+01  0.33173395707E+02  0.85093834587E+02  0.91340340656E+02  0.00000000000E+00 0.  1.
         11    1    4    4    0    0 -0.40681072153E+02 -0.57340768967E+02  0.22540828693E+03  0.23611821029E+03  0.00000000000E+00 0. -1.
</event>
<event>
 8    1  0.7192024E-009  0.2100172E+03  0.7561462E-02  0.1141552E+00
         -1   -1    0    0    0  501 -0.00000000000E+00  0.00000000000E+00  0.49275924929E+02  0.49275924929E+02  0.00000000000E+00 0.  1.
          1   -1    0    0  501    0  0.00000000000E+00 -0.00000000000E+00 -0.10019437918E+04  0.10019437918E+04  0.00000000000E+00 0. -1.
         25    2    1    2    0    0  0.11475354669E+03 -0.14844700717E+03 -0.61118711520E+03  0.65146086100E+03  0.12508666278E+03 0.  0.
         23    2    1    2    0    0 -0.11475354669E+03  0.14844700717E+03 -0.34148075170E+03  0.39975885577E+03  0.89404410199E+02 0.  0.
          5    1    3    3  502    0 -0.19210832485E+02 -0.58762335840E+02 -0.13097454099E+03  0.14489261881E+03  0.41800000000E+01 0. -1.
         -5    1    3    3    0  502  0.13396437918E+03 -0.89684671332E+02 -0.48021257421E+03  0.50656824218E+03  0.41800000000E+01 0. -1.
        -11    1    4    4    0    0 -0.48095976001E+02  0.19998100000E+02 -0.41151500831E+02  0.66382173298E+02  0.00000000000E+00 0.  1.
         11    1    4    4    0    0 -0.66657570691E+02  0.12844890717E+03 -0.30032925087E+03  0.33337668247E+03  0.00000000000E+00 0. -1.
</event>
<event>
 8    1  0.7192024E-009  0.2966382E+03  0.7561462E-02  0.1086933E+00
         -2   -1    0    0    0  501 -0.00000000000E+00  0.00000000000E+00  0.10027339656E+03  0.10027339656E+03  0.00000000000E+00 0.  1.
          2   -1    0    0  501    0  0.00000000000E+00 -0.00000000000E+00 -0.95887139367E+03  0.95887139367E+03  0.00000000000E+00 0. -1.
         25    2    1    2    0    0  0.15390072236E+03 -0.23149045246E+03 -0.57976169868E+03  0.65501516774E+03  0.12509188941E+03 0.  0.
         23    2    1    2    0    0 -0.15390072236E+03  0.23149045246E+03 -0.27883629843E+03  0.40412962249E+03  0.91092307740E+02 0.  0.
          5    1    3    3  502    0  0.51605830692E+02 -0.26154588316E+01 -0.13230757563E+03  0.14210126444E+03  0.41800000000E+01 0. -1.
         -5    1    3    3    0  502  0.10229489167E+03 -0.22887499363E+03 -0.44745412305E+03  0.51291390331E+03  0.41800000000E+01 0. -1.
        -11    1    4    4    0    0 -0.73639149598E+02  0.41664180547E+02 -0.61405651770E+02  0.10454320812E+03  0.00000000000E+00 0.  1.
         11    1    4    4    0    0 -0.80261572766E+02  0.18982627191E+03 -0.21743064666E+03  0.29958641438E+03  0.00000000000E+00 0. -1.
</event>
<event>
 8    1  0.7192024E-009  0.9768304E+02  0.7561462E-02  0.1285245E+00
         -2   -1    0    0    0  501 -0.00000000000E+00  0.00000000000E+00  0.58772047756E+02  0.58772047756E+02  0.00000000000E+00 0.  1.
          2   -1    0    0  501    0  0.00000000000E+00 -0.00000000000E+00 -0.30401409540E+03  0.30401409540E+03  0.00000000000E+00 0. -1.
         25    2    1    2    0    0  0.26165599576E+02  0.63865752708E+02 -0.14260681850E+03  0.20186272785E+03  0.12509349800E+03 0.  0.
         23    2    1    2    0    0 -0.26165599576E+02 -0.63865752708E+02 -0.10263522914E+03  0.16092341530E+03  0.10295087353E+03 0.  0.
          5    1    3    3  502    0  0.15569744116E+01  0.25023687053E+02 -0.15253335177E+03  0.15463668674E+03  0.41800000000E+01 0.  1.
         -5    1    3    3    0  502  0.24608625164E+02  0.38842065655E+02  0.99265332675E+01  0.47226041116E+02  0.41800000000E+01 0.  1.
        -11    1    4    4    0    0 -0.59019789729E+02 -0.88243723683E+01 -0.45302235412E+02  0.74923278497E+02  0.00000000000E+00 0.  1.
         11    1    4    4    0    0  0.32854190153E+02 -0.55041380340E+02 -0.57332993730E+02  0.86000136804E+02  0.00000000000E+00 0. -1.
</event>
<event>
 8    1  0.7192024E-009  0.1148520E+03  0.7561462E-02  0.1251840E+00
          1   -1    0    0  501    0  0.00000000000E+00  0.00000000000E+00  0.32659702430E+03  0.32659702430E+03  0.00000000000E+00 0. -1.
         -1   -1    0    0    0  501 -0.00000000000E+00 -0.00000000000E+00 -0.55216774980E+02  0.55216774980E+02  0.00000000000E+00 0.  1.
         25    2    1    2    0    0 -0.52223164932E+02 -0.34602650634E+02  0.85564359694E+02  0.16399158473E+03  0.12508947928E+03 0.  0.
         23    2    1    2    0    0  0.52223164932E+02  0.34602650634E+02  0.18581588963E+03  0.21782221455E+03  0.94838652079E+02 0.  0.
          5    1    3    3  502    0 -0.80822341988E+02 -0.11344516322E+02  0.13349616978E+02  0.82804792666E+02  0.41800000000E+01 0. -1.
         -5    1    3    3    0  502  0.28599177057E+02 -0.23258134312E+02  0.72214742716E+02  0.81186792063E+02  0.41800000000E+01 0. -1.
        -11    1    4    4    0    0  0.56899976980E+02 -0.16753334149E+02  0.75208869889E+02  0.95784423031E+02  0.00000000000E+00 0.  1.
         11    1    4    4    0    0 -0.46768120481E+01  0.51355984784E+02  0.11060701974E+03  0.12203779152E+03  0.00000000000E+00 0. -1.
</event>
<event>
 8    1  0.7192024E-009  0.7906340E+02  0.7561462E-02  0.1331731E+00
          2   -1    0    0  501    0  0.00000000000E+00  0.00000000000E+00  0.13620101444E+04  0.13620101444E+04  0.00000000000E+00 0. -1.
         -2   -1    0    0    0  501 -0.00000000000E+00 -0.00000000000E+00 -0.31011037572E+02  0.31011037572E+02  0.00000000000E+00 0.  1.
         25    2    1    2    0    0  0.28269552582E+01 -0.44181695580E+02  0.12665002248E+04  0.12734329993E+04  0.12509504512E+03 0.  0.
         23    2    1    2    0    0 -0.28269552582E+01  0.44181695580E+02  0.64498882024E+02  0.11958818270E+03  0.90450062233E+02 0.  0.
          5    1    3    3  502    0  0.23890200463E+02 -0.59493858422E+02  0.12024506883E+04  0.12041658486E+04  0.41800000000E+01 0. -1.
         -5    1    3    3    0  502 -0.21063245205E+02  0.15312162842E+02  0.64049536554E+02  0.69267150672E+02  0.41800000000E+01 0. -1.
        -11    1    4    4    0    0 -0.26341109017E+02  0.16071352069E+02  0.75303421463E+02  0.81380265824E+02  0.00000000000E+00 0. -1.
         11    1    4    4    0    0  0.23514153759E+02  0.28110343511E+02 -0.10804539439E+02  0.38207916873E+02  0.00000000000E+00 0.  1.
</event>
<event>
 8    1  0.7192024E-009  0.7886753E+02  0.7561462E-02  0.1332296E+00
         -2   -1    0    0    0  501 -0.00000000000E+00  0.00000000000E+00  0.55378338516E+02  0.55378338516E+02  0.00000000000E+00 0.  1.
          2   -1    0    0  501    0  0.00000000000E+00 -0.00000000000E+00 -0.29631353439E+03  0.29631353439E+03  0.00000000000E+00 0. -1.
         25    2    1    2    0    0 -0.65678640431E+02 -0.19067593370E+02 -0.13762355129E+03  0.19815401355E+03  0.12509002475E+03 0.  0.
         23    2    1    2    0    0  0.65678640431E+02  0.19067593370E+02 -0.10331164459E+03  0.15353785936E+03  0.90682530969E+02 0.  0.
          5    1    3    3  502    0 -0.51503797481E+02 -0.71064138397E+00  0.65280859025E+01  0.52088717317E+02  0.41800000000E+01 0.  1.
         -5    1    3    3    0  502 -0.14174842950E+02 -0.18356951986E+02 -0.14415163719E+03  0.14606529623E+03  0.41800000000E+01 0.  1.
        -11    1    4    4    0    0  0.38209893298E+01  0.20264298705E+02 -0.87200064505E+02  0.89605206384E+02  0.00000000000E+00 0. -1.
         11    1    4    4    0    0  0.61857651101E+02 -0.11967053357E+01 -0.16111580081E+02  0.63932652973E+02  0.00000000000E+00 0.  1.
</event>
<event>
 8    1  0.7192024E-009  0.9649988E+02  0.7561462E-02  0.1287833E+00
         -1   -1    0    0    0  501 -0.00000000000E+00  0.00000000000E+00  0.15944883921E+02  0.15944883921E+02  0.00000000000E+00 0.  1.
          1   -1    0    0  501    0  0.00000000000E+00 -0.00000000000E+00 -0.75146311129E+03  0.75146311129E+03  0.00000000000E+00 0. -1.
         25    2    1    2    0    0 -0.17745648486E+02 -0.57809809076E+01 -0.43863558423E+03  0.45650536660E+03  0.12509055199E+03 0.  0.
         23    2    1    2    0    0  0.17745648486E+02  0.57809809076E+01 -0.29688264314E+03  0.31090262861E+03  0.90403611113E+02 0.  0.
          5    1    3    3  502    0  0.27970964715E+02  0.43817310214E+02 -0.12101403948E+03  0.13177329659E+03  0.41800000000E+01 0. -1.
         -5    1    3    3    0  502 -0.45716613202E+02 -0.49598291122E+02 -0.31762154475E+03  0.32473207001E+03  0.41800000000E+01 0. -1.
        -11    1    4    4    0    0 -0.26508174934E+02 -0.65889834040E+01 -0.32038202342E+02  0.42101596762E+02  0.00000000000E+00 0.  1.
         11    1    4    4    0    0  0.44253823420E+02  0.12369964312E+02 -0.26484444079E+03  0.26880103185E+03  0.00000000000E+00 0. -1.
</event>
<event>
 8    1  0.7192024E-009  0.1079179E+03  0.7561462E-02  0.1264475E+00
         -2   -1    0    0    0  501 -0.00000000000E+00  0.00000000000E+00  0.13409444583E+02  0.13409444583E+02  0.00000000000E+00 0.  1.
          2   -1    0    0  501    0  0.00000000000E+00 -0.00000000000E+00 -0.13080687775E+04  0.13080687775E+04  0.00000000000E+00 0. -1.
         25    2    1    2    0    0 -0.63755499486E+02  0.12666506382E+02 -0.91725736236E+03  0.92802660653E+03  0.12508840688E+03 0.  0.
         23    2    1    2    0    0  0.63755499486E+02 -0.12666506382E+02 -0.37740197059E+03  0.39345161558E+03  0.90259195095E+02 0.  0.
          5    1    3    3  502    0 -0.86121571715E+02  0.31927492519E+02 -0.84314337507E+03  0.84814180018E+03  0.41800000000E+01 0. -1.
         -5    1    3    3    0  502  0.22366072229E+02 -0.19260986137E+02 -0.74113987290E+02  0.79884806352E+02  0.41800000000E+01 0. -1.
        -11    1    4    4    0    0  0.26954831039E+02  0.28251780809E+02 -0.61907404108E+02  0.73193255964E+02  0.00000000000E+00 0.  1.
         11    1    4    4    0    0  0.36800668447E+02 -0.40918287191E+02 -0.31549456648E+03  0.32025835961E+03  0.00000000000E+00 0. -1.
</event>
<event>
 8    1  0.7192024E-009  0.1597168E+03  0.7561462E-02  0.1189017E+00
         -2   -1    0    0    0  501 -0.00000000000E+00  0.00000000000E+00  0.30568408503E+02  0.30568408503E+02  0.00000000000E+00 0.  1.
          2   -1    0    0  501    0  0.00000000000E+00 -0.00000000000E+00 -0.10216985040E+04  0.10216985040E+04  0.00000000000E+00 0. -1.
         25    2    1    2    0    0 -0.13029654060E+03  0.39542292955E+02 -0.43956640719E+03  0.47686887075E+03  0.12507802416E+03 0.  0.
         23    2    1    2    0    0  0.13029654060E+03 -0.39542292955E+02 -0.55156368833E+03  0.57539804178E+03  0.91211966198E+02 0.  0.
          5    1    3    3  502    0 -0.10440213068E+03  0.61966384039E+02 -0.19404037399E+03  0.22892963282E+03  0.41800000000E+01 0.  1.
         -5    1    3    3    0  502 -0.25894409922E+02 -0.22424091084E+02 -0.24552603320E+03  0.24793923793E+03  0.41800000000E+01 0.  1.
        -11    1    4    4    0    0  0.10407281217E+03 -0.68334357185E+02 -0.43743166194E+03  0.45480456624E+03  0.00000000000E+00 0.  1.
         11    1    4    4    0    0  0.26223728430E+02  0.28792064231E+02 -0.11413202639E+03  0.12059347555E+03  0.00000000000E+00 0. -1.
</event>
<event>
 8    1  0.7192024E-009  0.1066791E+03  0.7561462E-02  0.1266846E+00
         -2   -1    0    0    0  501 -0.00000000000E+00  0.00000000000E+00  0.49549164401E+02  0.49549164401E+02  0.00000000000E+00 0.  1.
          2   -1    0    0  501    0  0.00000000000E+00 -0.00000000000E+00 -0.48440011209E+03  0.48440011209E+03  0.00000000000E+00 0. -1.
         25    2    1    2    0    0 -0.90073029651E+02 -0.63733360762E+01 -0.12509308908E+03  0.19861941451E+03  0.12509045049E+03 0.  0.
         23    2    1    2    0    0  0.90073029651E+02  0.63733360762E+01 -0.30975785861E+03  0.33532986198E+03  0.91336823246E+02 0.  0.
          5    1    3    3  502    0 -0.67272420757E+02 -0.27996941940E+02 -0.36168803160E+01  0.73075040716E+02  0.41800000000E+01 0. -1.
         -5    1    3    3    0  502 -0.22800608894E+02  0.21623605864E+02 -0.12147620876E+03  0.12554437379E+03  0.41800000000E+01 0. -1.
        -11    1    4    4    0    0  0.27816209889E+02  0.31064203117E+02 -0.41470581233E+02  0.58809313511E+02  0.00000000000E+00 0.  1.
         11    1    4    4    0    0  0.62256819762E+02 -0.24690867041E+02 -0.26828727738E+03  0.27652054847E+03  0.00000000000E+00 0. -1.
</event>
<event>
 8    1  0.7192024E-009  0.1035640E+03  0.7561462E-02  0.1272975E+00
          2   -1    0    0  501    0  0.00000000000E+00  0.00000000000E+00  0.70985750459E+02  0.70985750459E+02  0.00000000000E+00 0. -1.
         -2   -1    0    0    0  501 -0.00000000000E+00 -0.00000000000E+00 -0.24331509794E+03  0.24331509794E+03  0.00000000000E+00 0.  1.
         25    2    1    2    0    0  0.46893330648E+02  0.50996575888E+02 -0.61600302383E+02  0.15569802140E+03  0.12509053282E+03 0.  0.
         23    2    1    2    0    0 -0.46893330648E+02 -0.50996575888E+02 -0.11072904510E+03  0.15860282700E+03  0.89968328280E+02 0.  0.
          5    1    3    3  502    0  0.59650938761E+02  0.12747226598E+01  0.16590871404E+02  0.62069226086E+02  0.41800000000E+01 0. -1.
         -5    1    3    3    0  502 -0.12757608114E+02  0.49721853229E+02 -0.78191173787E+02  0.93628795311E+02  0.41800000000E+01 0. -1.
        -11    1    4    4    0    0  0.11793071554E+01  0.14512116178E+02  0.65177991822E+01  0.15952240830E+02  0.00000000000E+00 0. -1.
         11    1    4    4    0    0 -0.48072637803E+02 -0.65508692067E+02 -0.11724684428E+03  0.14265058617E+03  0.00000000000E+00 0.  1.
</event>
<event>
 8    1  0.7192024E-009  0.9222330E+02  0.7561462E-02  0.1297555E+00
          2   -1    0    0  501    0  0.00000000000E+00  0.00000000000E+00  0.32015664909E+03  0.32015664909E+03  0.00000000000E+00 0. -1.
         -2   -1    0    0    0  501 -0.00000000000E+00 -0.00000000000E+00 -0.37076056721E+02  0.37076056721E+02  0.00000000000E+00 0.  1.
         25    2    1    2    0    0  0.24316885600E+01  0.46408251191E+01  0.13606569611E+03  0.18489948010E+03  0.12508594532E+03 0.  0.
         23    2    1    2    0    0 -0.24316885600E+01 -0.46408251191E+01  0.14701489626E+03  0.17233322571E+03  0.89765865421E+02 0.  0.
          5    1    3    3  502    0 -0.17493763365E+02  0.45568746686E+02  0.89321677740E+01  0.49797574764E+02  0.41800000000E+01 0.  1.
         -5    1    3    3    0  502  0.19925451925E+02 -0.40927921567E+02  0.12713352834E+03  0.13510190534E+03  0.41800000000E+01 0.  1.
        -11    1    4    4    0    0 -0.45940951807E+02  0.41310847956E+00  0.80610979231E+02  0.92784005540E+02  0.00000000000E+00 0. -1.
         11    1    4    4    0    0  0.43509263247E+02 -0.50539335987E+01  0.66403917028E+02  0.79549220171E+02  0.00000000000E+00 0.  1.
</event>
<event>
 8    1  0.7192024E-009  0.1313205E+03  0.7561462E-02  0.1225509E+00
          2   -1    0    0  501    0  0.00000000000E+00  0.00000000000E+00  0.14278692310E+03  0.14278692310E+03  0.00000000000E+00 0. -1.
         -2   -1    0    0    0  501 -0.00000000000E+00 -0.00000000000E+00 -0.12884103200E+03  0.12884103200E+03  0.00000000000E+00 0.  1.
         25    2    1    2    0    0  0.28704452564E+02 -0.70783822869E+02  0.34700109551E+02  0.15061630901E+03  0.12508748842E+03 0.  0.
         23    2    1    2    0    0 -0.28704452564E+02  0.70783822869E+02 -0.20754218450E+02  0.12101164609E+03  0.91535707394E+02 0.  0.
          5    1    3    3  502    0  0.33377178144E+02 -0.10481371125E+03  0.15855935102E+02  0.11121525599E+03  0.41800000000E+01 0. -1.
         -5    1    3    3    0  502 -0.46727255802E+01  0.34029888385E+02  0.18844174449E+02  0.39401053013E+02  0.41800000000E+01 0. -1.
        -11    1    4    4    0    0 -0.38466062794E+02 -0.73974537424E+01  0.13078029369E+01  0.39192737303E+02  0.00000000000E+00 0.  1.
         11    1    4    4    0    0  0.97616102303E+01  0.78181276612E+02 -0.22062021387E+02  0.81818908784E+02  0.00000000000E+00 0. -1.
</event>
<event>
 8    1  0.7192024E-009  0.1097355E+03  0.7561462E-02  0.1261061E+00
          2   -1    0    0  501    0  0.00000000000E+00  0.00000000000E+00  0.39336311823E+03  0.39336311823E+03  0.00000000000E+00 0. -1.
         -2   -1    0    0    0  501 -0.00000000000E+00 -0.00000000000E+00 -0.39606823873E+02  0.39606823873E+02  0.00000000000E+00 0.  1.
         25    2    1    2    0    0 -0.36865845871E+02 -0.13806669497E+02  0.27517182947E+03  0.30482385129E+03  0.12509328467E+03 0.  0.
         23    2    1    2    0    0  0.36865845871E+02  0.13806669497E+02  0.78584464892E+02  0.12814609081E+03  0.93253352507E+02 0.  0.
          5    1    3    3  502    0  0.44251934380E+02 -0.17006038370E+02  0.13008079928E+03  0.13851326932E+03  0.41800000000E+01 0. -1.
         -5    1    3    3    0  502 -0.81117780251E+02  0.31993688739E+01  0.14509103019E+03  0.16631058197E+03  0.41800000000E+01 0. -1.
        -11    1    4    4    0    0  0.55814675426E+01 -0.33452946314E+02  0.35332337502E+01  0.34098916959E+02  0.00000000000E+00 0.  1.
         11    1    4    4    0    0  0.31284378328E+02  0.47259615811E+02  0.75051231141E+02  0.94047173853E+02  0.00000000000E+00 0. -1.
</event>
<event>
 8    1  0.7192024E-009  0.1110355E+03  0.7561462E-02  0.1258664E+00
         -2   -1    0    0    0  501 -0.00000000000E+00  0.00000000000E+00  0.10580983261E+03  0.10580983261E+03  0.00000000000E+00 0.  1.
          2   -1    0    0  501    0  0.00000000000E+00 -0.00000000000E+00 -0.21049725750E+03  0.21049725750E+03  0.00000000000E+00 0. -1.
         25    2    1    2    0    0  0.41422426351E+02 -0.68069435142E+02 -0.12626742213E+03  0.19478139356E+03  0.12508822479E+03 0.  0.
         23    2    1    2    0    0 -0.41422426351E+02  0.68069435142E+02  0.21579997233E+02  0.12152569654E+03  0.89182583695E+02 0.  0.
          5    1    3    3  502    0  0.26971964669E+02  0.15851795651E+02 -0.10106000180E+03  0.10587427764E+03  0.41800000000E+01 0.  1.
         -5    1    3    3    0  502  0.14450461682E+02 -0.83921230793E+02 -0.25207420328E+02  0.88907115915E+02  0.41800000000E+01 0.  1.
        -11    1    4    4    0    0 -0.56673249803E+02  0.29752306410E+02 -0.15729748700E+02  0.65912684471E+02  0.00000000000E+00 0. -1.
         11    1    4    4    0    0  0.15250823452E+02  0.38317128732E+02  0.37309745934E+02  0.55613012073E+02  0.00000000000E+00 0.  1.
</event>
<event>
 8    1  0.7192024E-009  0.1172772E+03  0.7561462E-02  0.1247658E+00
         -2   -1    0    0    0  501 -0.00000000000E+00  0.00000000000E+00  0.10225246547E+03  0.10225246547E+03  0.00000000000E+00 0.  1.
          2   -1    0    0  501    0  0.00000000000E+00 -0.00000000000E+00 -0.17126128690E+03  0.17126128690E+03  0.00000000000E+00 0. -1.
         25    2    1    2    0    0  0.15587775183E+02  0.72698861205E+02 -0.52977062915E+02  0.15486834451E+03  0.12509808864E+03 0.  0.
         23    2    1    2    0    0 -0.15587775183E+02 -0.72698861205E+02 -0.16031758519E+02  0.11864540785E+03  0.91058291044E+02 0.  0.
          5    1    3    3  502    0  0.30021730824E+02 -0.12155946169E+02  0.23031231763E+02  0.39962249505E+02  0.41800000000E+01 0. -1.
         -5    1    3    3    0  502 -0.14433955641E+02  0.84854807374E+02 -0.76008294678E+02  0.11490609501E+03  0.41800000000E+01 0. -1.
        -11    1    4    4    0    0 -0.52778205551E+02 -0.40449379414E+02 -0.19505015759E+02  0.69297452449E+02  0.00000000000E+00 0.  1.
         11    1    4    4    0    0  0.37190430368E+02 -0.32249481791E+02  0.34732572398E+01  0.49347955405E+02  0.00000000000E+00 0. -1.
</event>
<event>
 8    1  0.7192024E-009  0.1199656E+03  0.7561462E-02  0.1243154E+00
         -2   -1    0    0    0  501 -0.00000000000E+00  0.00000000000E+00  0.26278955010E+02  0.26278955010E+02  0.00000000000E+00 0. -1.
          2   -1    0    0  501    0  0.00000000000E+00 -0.00000000000E+00 -0.10124047410E+04  0.10124047410E+04  0.00000000000E+00 0.  1.
         25    2    1    2    0    0 -0.53369966739E+02 -0.38759871837E+01 -0.87347223338E+03  0.88400469857E+03  0.12508872044E+03 0.  0.
         23    2    1    2    0    0  0.53369966739E+02  0.38759871837E+01 -0.11265355262E+03  0.15467899745E+03  0.91495315221E+02 0.  0.
          5    1    3    3  502    0  0.39911848138E+02  0.66757110799E+01 -0.20920446113E+03  0.21312320309E+03  0.41800000000E+01 0. -1.
         -5    1    3    3    0  502 -0.93281814876E+02 -0.10551698264E+02 -0.66426777225E+03  0.67088149547E+03  0.41800000000E+01 0. -1.
        -11    1    4    4    0    0 -0.23476249989E+02  0.14664701144E+02 -0.22070548116E+02  0.35401933102E+02  0.00000000000E+00 0. -1.
         11    1    4    4    0    0  0.76846216728E+02 -0.10788713960E+02 -0.90583004499E+02  0.11927706434E+03  0.00000000000E+00 0.  1.
</event>
<event>
 8    1  0.7192024E-009  0.1204713E+03  0.7561462E-02  0.1242322E+00
          1   -1    0    0  501    0  0.00000000000E+00  0.00000000000E+00  0.45292311541E+02  0.45292311541E+02  0.00000000000E+00 0. -1.
         -1   -1    0    0    0  501 -0.00000000000E+00 -0.00000000000E+00 -0.32482798594E+03  0.32482798594E+03  0.00000000000E+00 0.  1.
         25    2    1    2    0    0  0.37659758981E+01  0.54493282220E+02 -0.17497023799E+03  0.22191365296E+03  0.12508950717E+03 0.  0.
         23    2    1    2    0    0 -0.37659758981E+01 -0.54493282220E+02 -0.10456543641E+03  0.14820664453E+03  0.89708297322E+02 0.  0.
          5    1    3    3  502    0  0.18685738037E+02  0.92935478213E+02 -0.12665426664E+03  0.15825591797E+03  0.41800000000E+01 0.  1.
         -5    1    3    3    0  502 -0.14919762139E+02 -0.38442195994E+02 -0.48315971355E+02  0.63657734983E+02  0.41800000000E+01 0.  1.
        -11    1    4    4    0    0  0.42266691548E+02 -0.33886003779E+02 -0.60767592876E+02  0.81409058528E+02  0.00000000000E+00 0. -1.
         11    1    4    4    0    0 -0.46032667446E+02 -0.20607278441E+02 -0.43797843534E+02  0.66797585998E+02  0.00000000000E+00 0.  1.
</event>
<event>
 8    1  0.7192024E-009  0.9192590E+02  0.7561462E-02  0.1298254E+00
          1   -1    0    0  501    0  0.00000000000E+00  0.00000000000E+00  0.30333801110E+03  0.30333801110E+03  0.00000000000E+00 0. -1.
         -1   -1    0    0    0  501 -0.00000000000E+00 -0.00000000000E+00 -0.47971476831E+02  0.47971476831E+02  0.00000000000E+00 0.  1.
         25    2    1    2    0    0 -0.38503414663E+02 -0.31329246527E+02  0.17289453167E+03  0.21909521965E+03  0.12508461760E+03 0.  0.
         23    2    1    2    0    0  0.38503414663E+02  0.31329246527E+02  0.82472002597E+02  0.13221426829E+03  0.90636344241E+02 0.  0.
          5    1    3    3  502    0  0.13165351861E+02  0.81546430352E+01  0.14873661914E+03  0.14959906071E+03  0.41800000000E+01 0. -1.
         -5    1    3    3    0  502 -0.51668766524E+02 -0.39483889562E+02  0.24157912538E+02  0.69496158939E+02  0.41800000000E+01 0. -1.
        -11    1    4    4    0    0  0.34201629176E+02  0.62466201479E+02  0.49966204568E+02  0.86996548003E+02  0.00000000000E+00 0. -1.
         11    1    4    4    0    0  0.43017854871E+01 -0.31136954952E+02  0.32505798029E+02  0.45217720283E+02  0.00000000000E+00 0.  1.
</event>
<event>
 8    1  0.7192024E-009  0.1631869E+03  0.7561462E-02  0.1185145E+00
         -1   -1    0    0    0  501 -0.00000000000E+00  0.00000000000E+00  0.21920536413E+03  0.21920536413E+03  0.00000000000E+00 0.  1.
          1   -1    0    0  501    0  0.00000000000E+00 -0.00000000000E+00 -0.18130107871E+03  0.18130107871E+03  0.00000000000E+00 0. -1.
         25    2    1    2    0    0  0.36534606995E+02 -0.15342264348E+03 -0.34917356656E+02  0.20429433135E+03  0.12507464566E+03 0.  0.
         23    2    1    2    0    0 -0.36534606995E+02  0.15342264348E+03  0.72821642074E+02  0.19621211149E+03  0.91230017538E+02 0.  0.
          5    1    3    3  502    0  0.27196325520E+02 -0.14856250935E+03  0.16183307546E+02  0.15195338479E+03  0.41800000000E+01 0. -1.
         -5    1    3    3    0  502  0.93382814752E+01 -0.48601341228E+01 -0.51100664202E+02  0.52340946557E+02  0.41800000000E+01 0. -1.
        -11    1    4    4    0    0 -0.83721081351E+01  0.11982852440E+03  0.88984984520E+02  0.14949011648E+03  0.00000000000E+00 0.  1.
         11    1    4    4    0    0 -0.28162498860E+02  0.33594119076E+02 -0.16163342446E+02  0.46721995008E+02  0.00000000000E+00 0. -1.
</event>
<event>
 8    1  0.7192024E-009  0.4028509E+03  0.7561462E-02  0.1042797E+00
          1   -1    0    0  501    0  0.00000000000E+00  0.00000000000E+00  0.14215148109E+03  0.14215148109E+03  0.00000000000E+00 0. -1.
         -1   -1    0    0    0  501 -0.00000000000E+00 -0.00000000000E+00 -0.12332655613E+04  0.12332655613E+04  0.00000000000E+00 0.  1.
         25    2    1    2    0    0 -0.25702540256E+01 -0.39725965475E+03 -0.42729191826E+03  0.59669764213E+03  0.12509137945E+03 0.  0.
         23    2    1    2    0    0  0.25702540256E+01  0.39725965475E+03 -0.66382216199E+03  0.77871940030E+03  0.89006753444E+02 0.  0.
          5    1    3    3  502    0 -0.16972665497E+02 -0.28526328658E+02 -0.18579530510E+01  0.33507419929E+02  0.41800000000E+01 0. -1.
         -5    1    3    3    0  502  0.14402411472E+02 -0.36873332609E+03 -0.42543396521E+03  0.56319022220E+03  0.41800000000E+01 0. -1.
        -11    1    4    4    0    0 -0.32525633571E+02  0.15128821400E+03 -0.20385837597E+03  0.25593803545E+03  0.00000000000E+00 0. -1.
         11    1    4    4    0    0  0.35095887597E+02  0.24597144075E+03 -0.45996378601E+03  0.52278136485E+03  0.00000000000E+00 0.  1.
</event>
<event>
 8    1  0.7192024E-009  0.8329455E+02  0.7561462E-02  0.1319954E+00
          1   -1    0    0  501    0  0.00000000000E+00  0.00000000000E+00  0.19351408381E+03  0.19351408381E+03  0.00000000000E+00 0. -1.
         -1   -1    0    0    0  501 -0.00000000000E+00 -0.00000000000E+00 -0.79878656435E+02  0.79878656435E+02  0.00000000000E+00 0.  1.
         25    2    1    2    0    0  0.83735850097E+01  0.10815153786E+02  0.71206810170E+00  0.12583682805E+03  0.12508923125E+03 0.  0.
         23    2    1    2    0    0 -0.83735850097E+01 -0.10815153786E+02  0.11292335928E+03  0.14755591220E+03  0.93989242349E+02 0.  0.
          5    1    3    3  502    0  0.19660669598E+02  0.64360347392E+02  0.15109944397E+02  0.69098328961E+02  0.41800000000E+01 0.  1.
         -5    1    3    3    0  502 -0.11287084588E+02 -0.53545193607E+02 -0.14397876296E+02  0.56738499087E+02  0.41800000000E+01 0.  1.
        -11    1    4    4    0    0  0.14077729140E+02  0.69049631023E+01 -0.11781638350E+02  0.19612954275E+02  0.00000000000E+00 0.  1.
         11    1    4    4    0    0 -0.22451314150E+02 -0.17720116888E+02  0.12470499763E+03  0.12794295792E+03  0.00000000000E+00 0. -1.
</event>
<event>
 8    1  0.7192024E-009  0.1329370E+03  0.7561462E-02  0.1223162E+00
         -1   -1    0    0    0  501 -0.00000000000E+00  0.00000000000E+00  0.69615601043E+02  0.69615601043E+02  0.00000000000E+00 0.  1.
          1   -1    0    0  501    0  0.00000000000E+00 -0.00000000000E+00 -0.38630322967E+03  0.38630322967E+03  0.00000000000E+00 0. -1.
         25    2    1    2    0    0  0.95119701751E+02 -0.77292164095E+02 -0.15604157628E+03  0.23456070690E+03  0.12509162803E+03 0.  0.
         23    2    1    2    0    0 -0.95119701751E+02  0.77292164095E+02 -0.16064605235E+03  0.22135812381E+03  0.90390422890E+02 0.  0.
          5    1    3    3  502    0  0.49654588816E+02 -0.71010227357E+02 -0.16609968552E+03  0.18738892312E+03  0.41800000000E+01 0. -1.
         -5    1    3    3    0  502  0.45465112935E+02 -0.62819367383E+01  0.10058109239E+02  0.47171783779E+02  0.41800000000E+01 0. -1.
        -11    1    4    4    0    0 -0.48311725388E+02  0.73356063102E+01 -0.11645343089E+03  0.12629028267E+03  0.00000000000E+00 0. -1.
         11    1    4    4    0    0 -0.46807976363E+02  0.69956557785E+02 -0.44192621456E+02  0.95067841142E+02  0.00000000000E+00 0.  1.
</event>
<event>
 8    1  0.7192024E-009  0.2014386E+03  0.7561462E-02  0.1148531E+00
          2   -1    0    0  501    0  0.00000000000E+00  0.00000000000E+00  0.22349159957E+03  0.22349159957E+03  0.00000000000E+00 0.  1.
         -2   -1    0    0    0  501 -0.00000000000E+00 -0.00000000000E+00 -0.26271232014E+03  0.26271232014E+03  0.00000000000E+00 0. -1.
         25    2    1    2    0    0  0.12434747419E+03  0.11588051469E+03  0.11470635587E+03  0.24019964651E+03  0.12509090328E+03 0.  0.
         23    2    1    2    0    0 -0.12434747419E+03 -0.11588051469E+03 -0.15392707644E+03  0.24600427320E+03  0.89072832825E+02 0.  0.
          5    1    3    3  502    0 -0.22660790355E+02  0.38354822530E+02  0.22283753550E+02  0.49986417186E+02  0.41800000000E+01 0.  1.
         -5    1    3    3    0  502  0.14700826455E+03  0.77525692161E+02  0.92422602318E+02  0.19021322932E+03  0.41800000000E+01 0.  1.
        -11    1    4    4    0    0 -0.10580353850E+03 -0.38945016601E+02 -0.91951222992E+02  0.14548584291E+03  0.00000000000E+00 0.  1.
         11    1    4    4    0    0 -0.18543935694E+02 -0.76935498090E+02 -0.61975853447E+02  0.10051843029E+03  0.00000000000E+00 0. -1.
</event>
<event>
 8    1  0.7192024E-009  0.1294893E+03  0.7561462E-02  0.1228216E+00
         -1   -1    0    0    0  501 -0.00000000000E+00  0.00000000000E+00  0.12436033620E+03  0.12436033620E+03  0.00000000000E+00 0.  1.
          1   -1    0    0  501    0  0.00000000000E+00 -0.00000000000E+00 -0.18162299660E+03  0.18162299660E+03  0.00000000000E+00 0. -1.
         25    2    1    2    0    0 -0.57246533247E+02 -0.85769036191E+02 -0.39515942224E+02  0.16686151430E+03  0.12509101537E+03 0.  0.
         23    2    1    2    0    0  0.57246533247E+02  0.85769036191E+02 -0.17746718169E+02  0.13912181850E+03  0.91686647000E+02 0.  0.
          5    1    3    3  502    0 -0.40672010128E+02  0.14792035450E+02 -0.47684572077E+02  0.64531446092E+02  0.41800000000E+01 0. -1.
         -5    1    3    3    0  502 -0.16574523119E+02 -0.10056107164E+03  0.81686298530E+01  0.10233006821E+03  0.41800000000E+01 0. -1.
        -11    1    4    4    0    0  0.44018705003E+02  0.23622661669E+02  0.31214974268E+02  0.58907140085E+02  0.00000000000E+00 0.  1.
         11    1    4    4    0    0  0.13227828244E+02  0.62146374522E+02 -0.48961692437E+02  0.80214678411E+02  0.00000000000E+00 0. -1.
</event>
<event>
 8    1  0.7192024E-009  0.1000064E+03  0.7561462E-02  0.1280282E+00
         -2   -1    0    0    0  501 -0.00000000000E+00  0.00000000000E+00  0.44445743188E+03  0.44445743188E+03  0.00000000000E+00 0. -1.
          2   -1    0    0  501    0  0.00000000000E+00 -0.00000000000E+00 -0.37411686035E+02  0.37411686035E+02  0.00000000000E+00 0.  1.
         25    2    1    2    0    0  0.44564746904E+02 -0.41128075380E+02  0.29961128550E+03  0.33029048223E+03  0.12508934806E+03 0.  0.
         23    2    1    2    0    0 -0.44564746904E+02  0.41128075380E+02  0.10743446035E+03  0.15157863569E+03  0.88070337102E+02 0.  0.
          5    1    3    3  502    0  0.26350661503E+01 -0.80898221822E+02  0.17768521882E+03  0.19529714605E+03  0.41800000000E+01 0. -1.
         -5    1    3    3    0  502  0.41929680754E+02  0.39770146443E+02  0.12192606668E+03  0.13499333618E+03  0.41800000000E+01 0. -1.
        -11    1    4    4    0    0 -0.23283582763E+02  0.16872200744E+02  0.11491241205E+03  0.11845530308E+03  0.00000000000E+00 0. -1.
         11    1    4    4    0    0 -0.21281164141E+02  0.24255874636E+02 -0.74779517057E+01  0.33123332611E+02  0.00000000000E+00 0.  1.
</event>
<event>
 8    1  0.7192024E-009  0.1250249E+03  0.7561462E-02  0.1235030E+00
          3   -1    0    0  501    0  0.00000000000E+00  0.00000000000E+00  0.84002123299E+02  0.84002123299E+02  0.00000000000E+00 0. -1.
         -3   -1    0    0    0  501 -0.00000000000E+00 -0.00000000000E+00 -0.21589068115E+03  0.21589068115E+03  0.00000000000E+00 0.  1.
         25    2    1    2    0    0  0.69355256635E+02  0.28162720699E+02 -0.47114287414E+02  0.15320064652E+03  0.12508953416E+03 0.  0.
         23    2    1    2    0    0 -0.69355256635E+02 -0.28162720699E+02 -0.84774270437E+02  0.14669215793E+03  0.93427093549E+02 0.  0.
          5    1    3    3  502    0 -0.35692761282E+02  0.10634448486E+02 -0.22841531490E+02  0.43889322886E+02  0.41800000000E+01 0. -1.
         -5    1    3    3    0  502  0.10504801792E+03  0.17528272213E+02 -0.24272755924E+02  0.10931132364E+03  0.41800000000E+01 0. -1.
        -11    1    4    4    0    0 -0.53710255253E+02 -0.53758381662E+02 -0.25320936583E+02  0.80099344241E+02  0.00000000000E+00 0. -1.
         11    1    4    4    0    0 -0.15645001381E+02  0.25595660963E+02 -0.59453333854E+02  0.66592813686E+02  0.00000000000E+00 0.  1.
</event>
<event>
 8    1  0.7192024E-009  0.1067046E+03  0.7561462E-02  0.1266797E+00
          1   -1    0    0  501    0  0.00000000000E+00  0.00000000000E+00  0.78341501903E+02  0.78341501903E+02  0.00000000000E+00 0. -1.
         -1   -1    0    0    0  501 -0.00000000000E+00 -0.00000000000E+00 -0.20095385766E+03  0.20095385766E+03  0.00000000000E+00 0.  1.
         25    2    1    2    0    0  0.13709362130E+02  0.19747180358E+02 -0.13333673837E+03  0.18440219201E+03  0.12509030689E+03 0.  0.
         23    2    1    2    0    0 -0.13709362130E+02 -0.19747180358E+02  0.10724382610E+02  0.94893167556E+02  0.91169090839E+02 0.  0.
          5    1    3    3  502    0 -0.51255338831E+02 -0.14998493648E+02 -0.57698221751E+02  0.78731326444E+02  0.41800000000E+01 0.  1.
         -5    1    3    3    0  502  0.64964700961E+02  0.34745674005E+02 -0.75638516618E+02  0.10567086556E+03  0.41800000000E+01 0.  1.
        -11    1    4    4    0    0  0.32235410150E+02 -0.23589445982E+02  0.24393832725E+02  0.46804302199E+02  0.00000000000E+00 0. -1.
         11    1    4    4    0    0 -0.45944772280E+02  0.38422656242E+01 -0.13669450115E+02  0.48088865358E+02  0.00000000000E+00 0.  1.
</event>
<event>
 8    1  0.7192024E-009  0.1161298E+03  0.7561462E-02  0.1249622E+00
          1   -1    0    0  501    0  0.00000000000E+00  0.00000000000E+00  0.40236766308E+03  0.40236766308E+03  0.00000000000E+00 0. -1.
         -1   -1    0    0    0  501 -0.00000000000E+00 -0.00000000000E+00 -0.43568900961E+02  0.43568900961E+02  0.00000000000E+00 0.  1.
         25    2    1    2    0    0  0.69993281072E+02  0.12400156302E+02  0.20203108838E+03  0.24802674583E+03  0.12509149733E+03 0.  0.
         23    2    1    2    0    0 -0.69993281072E+02 -0.12400156302E+02  0.15676767374E+03  0.19790981821E+03  0.97669695101E+02 0.  0.
          5    1    3    3  502    0 -0.17070412593E+02 -0.11765154422E+02 -0.53178792488E+01  0.21807569429E+02  0.41800000000E+01 0.  1.
         -5    1    3    3    0  502  0.87063693665E+02  0.24165310724E+02  0.20734896763E+03  0.22621917640E+03  0.41800000000E+01 0.  1.
        -11    1    4    4    0    0 -0.67785208387E+02 -0.49221542030E+02  0.11315270223E+03  0.14078753033E+03  0.00000000000E+00 0.  1.
         11    1    4    4    0    0 -0.22080726853E+01  0.36821385727E+02  0.43614971509E+02  0.57122287871E+02  0.00000000000E+00 0. -1.
</event>
<event>
 8    1  0.7192024E-009  0.1892745E+03  0.7561462E-02  0.1159117E+00
          1   -1    0    0  501    0  0.00000000000E+00  0.00000000000E+00  0.91693609856E+02  0.91693609856E+02  0.00000000000E+00 0. -1.
         -1   -1    0    0    0  501 -0.00000000000E+00 -0.00000000000E+00 -0.44195720897E+03  0.44195720897E+03  0.00000000000E+00 0.  1.
         25    2    1    2    0    0 -0.16174883703E+03 -0.47672014304E+02 -0.16237232605E+03  0.26541897994E+03  0.12508859029E+03 0.  0.
         23    2    1    2    0    0  0.16174883703E+03  0.47672014304E+02 -0.18789127307E+03  0.26823183889E+03  0.90608397340E+02 0.  0.
          5    1    3    3  502    0 -0.48151563622E+02  0.42821685870E+02 -0.46424790878E+02  0.79529890407E+02  0.41800000000E+01 0. -1.
         -5    1    3    3    0  502 -0.11359727341E+03 -0.90493700174E+02 -0.11594753517E+03  0.18588908953E+03  0.41800000000E+01 0. -1.
        -11    1    4    4    0    0  0.12352331136E+03  0.38247703874E+02 -0.18881684191E+03  0.22885081404E+03  0.00000000000E+00 0.  1.
         11    1    4    4    0    0  0.38225525673E+02  0.94243104298E+01  0.92556883816E+00  0.39381024844E+02  0.00000000000E+00 0. -1.
</event>
<event>
 8    1  0.7192024E-009  0.9600621E+02  0.7561462E-02  0.1288926E+00
         -1   -1    0    0    0  501 -0.00000000000E+00  0.00000000000E+00  0.25538023789E+02  0.25538023789E+02  0.00000000000E+00 0.  1.
          1   -1    0    0  501    0  0.00000000000E+00 -0.00000000000E+00 -0.62208872910E+03  0.62208872910E+03  0.00000000000E+00 0. -1.
         25    2    1    2    0    0 -0.27946784952E+02 -0.16737978930E+02 -0.46811417845E+03  0.48563296397E+03  0.12508920377E+03 0.  0.
         23    2    1    2    0    0  0.27946784952E+02  0.16737978930E+02 -0.12843652687E+03  0.16199378892E+03  0.93192614989E+02 0.  0.
          5    1    3    3  502    0  0.32793295971E+02 -0.65700749138E+01 -0.35647798406E+03  0.35806785902E+03  0.41800000000E+01 0. -1.
         -5    1    3    3    0  502 -0.60740080922E+02 -0.10167904016E+02 -0.11163619439E+03  0.12756510495E+03  0.41800000000E+01 0. -1.
        -11    1    4    4    0    0  0.10467100092E+02 -0.37845495892E+02 -0.36235705043E+02  0.53430965400E+02  0.00000000000E+00 0.  1.
         11    1    4    4    0    0  0.17479684859E+02  0.54583474822E+02 -0.92200821822E+02  0.10856282352E+03  0.00000000000E+00 0. -1.
</event>
<event>
 8    1  0.7192024E-009  0.8806177E+02  0.7561462E-02  0.1307614E+00
          2   -1    0    0  501    0  0.00000000000E+00  0.00000000000E+00  0.79085232009E+03  0.79085232009E+03  0.00000000000E+00 0. -1.
         -2   -1    0    0    0  501 -0.00000000000E+00 -0.00000000000E+00 -0.23730392518E+02  0.23730392518E+02  0.00000000000E+00 0.  1.
         25    2    1    2    0    0  0.49282122304E+02 -0.53658230735E+02  0.30061796729E+03  0.33365563335E+03  0.12508791350E+03 0.  0.
         23    2    1    2    0    0 -0.49282122304E+02  0.53658230735E+02  0.46650396028E+03  0.48092707925E+03  0.91416504528E+02 0.  0.
          5    1    3    3  502    0  0.12106760874E+02 -0.22409062895E+02 -0.31491600136E+01  0.26002487717E+02  0.41800000000E+01 0. -1.
         -5    1    3    3    0  502  0.37175361430E+02 -0.31249167841E+02  0.30376712730E+03  0.30765314563E+03  0.41800000000E+01 0. -1.
        -11    1    4    4    0    0 -0.62921018336E+02  0.59622145429E+02  0.45166760375E+03  0.45991029457E+03  0.00000000000E+00 0. -1.
         11    1    4    4    0    0  0.13638896033E+02 -0.59639146935E+01  0.14836356532E+02  0.21016784687E+02  0.00000000000E+00 0.  1.
</event>
<event>
 8    1  0.7192024E-009  0.9225752E+02  0.7561462E-02  0.1297475E+00
         -1   -1    0    0    0  501 -0.00000000000E+00  0.00000000000E+00  0.56076819015E+03  0.56076819015E+03  0.00000000000E+00 0.  1.
          1   -1    0    0  501    0  0.00000000000E+00 -0.00000000000E+00 -0.31692518140E+02  0.31692518140E+02  0.00000000000E+00 0. -1.
         25    2    1    2    0    0 -0.32759189480E+02  0.20588440121E+02  0.44012376981E+03  0.45918613786E+03  0.12508368435E+03 0.  0.
         23    2    1    2    0    0  0.32759189480E+02 -0.20588440121E+02  0.88951902197E+02  0.13327457043E+03  0.91392679443E+02 0.  0.
          5    1    3    3  502    0 -0.16788838877E+02  0.51728580343E+02  0.40758109435E+03  0.41121470305E+03  0.41800000000E+01 0. -1.
         -5    1    3    3    0  502 -0.15970350603E+02 -0.31140140221E+02  0.32542675457E+02  0.47971434805E+02  0.41800000000E+01 0. -1.
        -11    1    4    4    0    0  0.37469049815E+01 -0.51901741632E+02  0.28679751858E+02  0.59416817889E+02  0.00000000000E+00 0. -1.
         11    1    4    4    0    0  0.29012284499E+02  0.31313301511E+02  0.60272150339E+02  0.73857752537E+02  0.00000000000E+00 0.  1.
</event>
<event>
 8    1  0.7192024E-009  0.1313836E+03  0.7561462E-02  0.1225417E+00
         -1   -1    0    0    0  501 -0.00000000000E+00  0.00000000000E+00  0.38380543535E+03  0.38380543535E+03  0.00000000000E+00 0.  1.
          1   -1    0    0  501    0  0.00000000000E+00 -0.00000000000E+00 -0.65006571552E+02  0.65006571552E+02  0.00000000000E+00 0. -1.
         25    2    1    2    0    0 -0.68839418541E+02 -0.92041460180E+02  0.18036604401E+03  0.24776915837E+03  0.12508856890E+03 0.  0.
         23    2    1    2    0    0  0.68839418541E+02  0.92041460180E+02  0.13843281979E+03  0.20104284854E+03  0.89688825479E+02 0.  0.
          5    1    3    3  502    0 -0.69448494157E+02 -0.86613465833E+02  0.19899739601E+03  0.22790880155E+03  0.41800000000E+01 0. -1.
         -5    1    3    3    0  502  0.60907561591E+00 -0.54279943468E+01 -0.18631351998E+02  0.19860356820E+02  0.41800000000E+01 0. -1.
        -11    1    4    4    0    0 -0.13527857440E+01  0.71699585368E+02  0.80305608515E+02  0.10766453144E+03  0.00000000000E+00 0. -1.
         11    1    4    4    0    0  0.70192204285E+02  0.20341874811E+02  0.58127211274E+02  0.93378317096E+02  0.00000000000E+00 0.  1.
</event>
<event>
 8    1  0.7192024E-009  0.1005164E+03  0.7561462E-02  0.1279214E+00
         -1   -1    0    0    0  501 -0.00000000000E+00  0.00000000000E+00  0.40771489780E+03  0.40771489780E+03  0.00000000000E+00 0.  1.
          1   -1    0    0  501    0  0.00000000000E+00 -0.00000000000E+00 -0.43353751663E+02  0.43353751663E+02  0.00000000000E+00 0. -1.
         25    2    1    2    0    0 -0.67893673276E+02 -0.72380970165E+01  0.26669976349E+03  0.30238813850E+03  0.12509149267E+03 0.  0.
         23    2    1    2    0    0  0.67893673276E+02  0.72380970165E+01  0.97661382650E+02  0.14868051097E+03  0.88916858706E+02 0.  0.
          5    1    3    3  502    0 -0.74980466993E+02  0.65792798702E+01  0.63534300665E+02  0.98587205636E+02  0.41800000000E+01 0. -1.
         -5    1    3    3    0  502  0.70867937176E+01 -0.13817376887E+02  0.20316546283E+03  0.20380093286E+03  0.41800000000E+01 0. -1.
        -11    1    4    4    0    0  0.52765960862E+02 -0.35921562391E+02  0.41003474462E+02  0.75867583250E+02  0.00000000000E+00 0. -1.
         11    1    4    4    0    0  0.15127712414E+02  0.43159659407E+02  0.56657908188E+02  0.72812927720E+02  0.00000000000E+00 0.  1.
</event>
<event>
 8    1  0.7192024E-009  0.7512643E+02  0.7561462E-02  0.1343480E+00
         -1   -1    0    0    0  501 -0.00000000000E+00  0.00000000000E+00  0.24030131299E+03  0.24030131299E+03  0.00000000000E+00 0. -1.
          1   -1    0    0  501    0  0.00000000000E+00 -0.00000000000E+00 -0.10162333353E+03  0.10162333353E+03  0.00000000000E+00 0.  1.
         25    2    1    2    0    0  0.10191598342E+02  0.48269144565E+02  0.18711052787E+03  0.23041647821E+03  0.12509046645E+03 0.  0.
         23    2    1    2    0    0 -0.10191598342E+02 -0.48269144565E+02 -0.48432548406E+02  0.11150816831E+03  0.87490461543E+02 0.  0.
          5    1    3    3  502    0  0.26822740523E+02  0.48016727122E+02  0.20094737502E+03  0.20838038636E+03  0.41800000000E+01 0.  1.
         -5    1    3    3    0  502 -0.16631142181E+02  0.25241744261E+00 -0.13836847150E+02  0.22036091846E+02  0.41800000000E+01 0.  1.
        -11    1    4    4    0    0 -0.15077635334E+02  0.10879699491E+02 -0.48730497480E+02  0.52157112007E+02  0.00000000000E+00 0.  1.
         11    1    4    4    0    0  0.48860369917E+01 -0.59148844056E+02  0.29794907376E+00  0.59351056303E+02  0.00000000000E+00 0. -1.
</event>
<event>
 8    1  0.7192024E-009  0.1517515E+03  0.7561462E-02  0.1198337E+00
         -1   -1    0    0    0  501 -0.00000000000E+00  0.00000000000E+00  0.15513756696E+03  0.15513756696E+03  0.00000000000E+00 0.  1.
          1   -1    0    0  501    0  0.00000000000E+00 -0.00000000000E+00 -0.16875492549E+03  0.16875492549E+03  0.00000000000E+00 0. -1.
         25    2    1    2    0    0  0.77496433204E+02  0.86142885372E+02 -0.38198795952E+02  0.17473644591E+03  0.12508950259E+03 0.  0.
         23    2    1    2    0    0 -0.77496433204E+02 -0.86142885372E+02  0.24581437417E+02  0.14915604654E+03  0.90647588462E+02 0.  0.
          5    1    3    3  502    0  0.46207799815E+02 -0.25151380408E+02 -0.24693118963E+02  0.58266415921E+02  0.41800000000E+01 0. -1.
         -5    1    3    3    0  502  0.31288633389E+02  0.11129426578E+03 -0.13505676990E+02  0.11647002999E+03  0.41800000000E+01 0. -1.
        -11    1    4    4    0    0 -0.83554797178E+02 -0.47874310728E+02  0.43933725597E+02  0.10584670993E+03  0.00000000000E+00 0.  1.
         11    1    4    4    0    0  0.60583639735E+01 -0.38268574645E+02 -0.19352288180E+02  0.43309336605E+02  0.00000000000E+00 0. -1.
</event>
<event>
 8    1  0.7192024E-009  0.1326440E+03  0.7561462E-02  0.1223584E+00
          2   -1    0    0  501    0  0.00000000000E+00  0.00000000000E+00  0.64115909006E+03  0.64115909006E+03  0.00000000000E+00 0. -1.
         -2   -1    0    0    0  501 -0.00000000000E+00 -0.00000000000E+00 -0.52645337201E+02  0.52645337201E+02  0.00000000000E+00 0.  1.
         25    2    1    2    0    0 -0.96813203729E+02 -0.36264284040E+02  0.10924870957E+03  0.19561839635E+03  0.12507350532E+03 0.  0.
         23    2    1    2    0    0  0.96813203729E+02  0.36264284040E+02  0.47926504329E+03  0.49818603092E+03  0.88354088558E+02 0.  0.
          5    1    3    3  502    0 -0.12614169581E+03 -0.19150046986E+02  0.91617814251E+02  0.15712971714E+03  0.41800000000E+01 0. -1.
         -5    1    3    3    0  502  0.29328492076E+02 -0.17114237054E+02  0.17630895316E+02  0.38488679206E+02  0.41800000000E+01 0. -1.
        -11    1    4    4    0    0  0.18988933039E+02  0.82977024262E+01  0.12604918034E+02  0.24255213917E+02  0.00000000000E+00 0.  1.
         11    1    4    4    0    0  0.77824270690E+02  0.27966581614E+02  0.46666012526E+03  0.47393081700E+03  0.00000000000E+00 0. -1.
</event>
<event>
 8    1  0.7192024E-009  0.1419071E+03  0.7561462E-02  0.1210786E+00
         -2   -1    0    0    0  501 -0.00000000000E+00  0.00000000000E+00  0.83219155858E+02  0.83219155858E+02  0.00000000000E+00 0.  1.
          2   -1    0    0  501    0  0.00000000000E+00 -0.00000000000E+00 -0.50383982786E+03  0.50383982786E+03  0.00000000000E+00 0. -1.
         25    2    1    2    0    0 -0.46789422453E+02  0.11483562764E+03 -0.39238455484E+03  0.43010401494E+03  0.12508938148E+03 0.  0.
         23    2    1    2    0    0  0.46789422453E+02 -0.11483562764E+03 -0.28236117163E+02  0.15695496878E+03  0.91984305645E+02 0.  0.
          5    1    3    3  502    0 -0.60520599017E+02  0.86077662118E+02 -0.13746000666E+03  0.17316129086E+03  0.41800000000E+01 0.  1.
         -5    1    3    3    0  502  0.13731176565E+02  0.28757965520E+02 -0.25492454818E+03  0.25694272408E+03  0.41800000000E+01 0.  1.
        -11    1    4    4    0    0 -0.59062507865E+01  0.95782079607E+01 -0.18292001522E+02  0.21476107324E+02  0.00000000000E+00 0. -1.
         11    1    4    4    0    0  0.52695673239E+02 -0.12441383560E+03 -0.99441156404E+01  0.13547886146E+03  0.00000000000E+00 0.  1.
</event>
<event>
 8    1  0.7192024E-009  0.1192489E+03  0.7561462E-02  0.1244341E+00
         -3   -1    0    0    0  501 -0.00000000000E+00  0.00000000000E+00  0.16055384532E+03  0.16055384532E+03  0.00000000000E+00 0.  1.
          3   -1    0    0  501    0  0.00000000000E+00 -0.00000000000E+00 -0.12349523837E+03  0.12349523837E+03  0.00000000000E+00 0. -1.
         25    2    1    2    0    0  0.48436879775E+02 -0.54462978397E+02 -0.32525539859E+02  0.14838415639E+03  0.12509036648E+03 0.  0.
         23    2    1    2    0    0 -0.48436879775E+02  0.54462978397E+02  0.69584146800E+02  0.13566492731E+03  0.90833208005E+02 0.  0.
          5    1    3    3  502    0 -0.41384895993E+02 -0.27831856627E+02 -0.19462367899E+02  0.53698957381E+02  0.41800000000E+01 0.  1.
         -5    1    3    3    0  502  0.89821775768E+02 -0.26631121771E+02 -0.13063171960E+02  0.94685199004E+02  0.41800000000E+01 0.  1.
        -11    1    4    4    0    0 -0.30128640926E+02  0.66330305774E+02  0.11674684319E+02  0.73781723496E+02  0.00000000000E+00 0. -1.
         11    1    4    4    0    0 -0.18308238849E+02 -0.11867327377E+02  0.57909462481E+02  0.61883203809E+02  0.00000000000E+00 0.  1.
</event>
<event>
 8    1  0.7192024E-009  0.1350817E+03  0.7561462E-02  0.1220104E+00
         -2   -1    0    0    0  501 -0.00000000000E+00  0.00000000000E+00  0.39917050556E+03  0.39917050556E+03  0.00000000000E+00 0.  1.
          2   -1    0    0  501    0  0.00000000000E+00 -0.00000000000E+00 -0.56735541751E+02  0.56735541751E+02  0.00000000000E+00 0. -1.
         25    2    1    2    0    0  0.71992375865E+02 -0.51158434552E+02  0.26881181992E+03  0.30936475038E+03  0.12508663654E+03 0.  0.
         23    2    1    2    0    0 -0.71992375865E+02  0.51158434552E+02  0.73623143893E+02  0.14654129693E+03  0.90850959169E+02 0.  0.
          5    1    3    3  502    0 -0.24694875994E+02 -0.46424967045E+02  0.12793670616E+03  0.13838492565E+03  0.41800000000E+01 0.  1.
         -5    1    3    3    0  502  0.96687251859E+02 -0.47334675076E+01  0.14087511376E+03  0.17097982473E+03  0.41800000000E+01 0.  1.
        -11    1    4    4    0    0 -0.28148911961E+02  0.67966525693E+02  0.22057849917E+02  0.76800772146E+02  0.00000000000E+00 0. -1.
         11    1    4    4    0    0 -0.43843463903E+02 -0.16808091140E+02  0.51565293976E+02  0.69740524788E+02  0.00000000000E+00 0.  1.
</event>
<event>
 8    1  0.7192024E-009  0.1177555E+03  0.7561462E-02  0.1246846E+00
         -2   -1    0    0    0  501 -0.00000000000E+00  0.00000000000E+00  0.65921608940E+03  0.65921608940E+03  0.00000000000E+00 0.  1.
          2   -1    0    0  501    0  0.00000000000E+00 -0.00000000000E+00 -0.23001471326E+02  0.23001471326E+02  0.00000000000E+00 0. -1.
         25    2    1    2    0    0  0.44652897255E+02  0.37317050421E+02  0.36343164496E+03  0.38873682593E+03  0.12508923132E+03 0.  0.
         23    2    1    2    0    0 -0.44652897255E+02 -0.37317050421E+02  0.27278297312E+03  0.29348073480E+03  0.91290458371E+02 0.  0.
          5    1    3    3  502    0  0.51766932065E+02 -0.31989286857E+02  0.10900836048E+03  0.12491366933E+03  0.41800000000E+01 0.  1.
         -5    1    3    3    0  502 -0.71140348095E+01  0.69306337278E+02  0.25442328448E+03  0.26382315661E+03  0.41800000000E+01 0.  1.
        -11    1    4    4    0    0 -0.14356072589E+02 -0.63237506775E+02  0.20305161312E+03  0.21315495930E+03  0.00000000000E+00 0. -1.
         11    1    4    4    0    0 -0.30296824666E+02  0.25920456354E+02  0.69731359998E+02  0.80325775499E+02  0.00000000000E+00 0.  1.
</event>
<event>
 8    1  0.7192024E-009  0.1199601E+03  0.7561462E-02  0.1243163E+00
         -2   -1    0    0    0  501 -0.00000000000E+00  0.00000000000E+00  0.43653196087E+02  0.43653196087E+02  0.00000000000E+00 0.  1.
          2   -1    0    0  501    0  0.00000000000E+00 -0.00000000000E+00 -0.61963803055E+03  0.61963803055E+03  0.00000000000E+00 0. -1.
         25    2    1    2    0    0 -0.18481129252E+02  0.59007225969E+02 -0.52669295259E+03  0.54486707626E+03  0.12510499446E+03 0.  0.
         23    2    1    2    0    0  0.18481129252E+02 -0.59007225969E+02 -0.49291881874E+02  0.11842415037E+03  0.88154324438E+02 0.  0.
          5    1    3    3  502    0 -0.23451161099E+02  0.96916985724E+02 -0.41120377140E+03  0.42314167024E+03  0.41800000000E+01 0. -1.
         -5    1    3    3    0  502  0.49700318467E+01 -0.37909759755E+02 -0.11548918119E+03  0.12172540603E+03  0.41800000000E+01 0. -1.
        -11    1    4    4    0    0 -0.15514162419E+02 -0.65270814201E+02 -0.13061904819E+02  0.68348970582E+02  0.00000000000E+00 0.  1.
         11    1    4    4    0    0  0.33995291671E+02  0.62635882326E+01 -0.36229977056E+02  0.50075179788E+02  0.00000000000E+00 0. -1.
</event>
<event>
 8    1  0.7192024E-009  0.2263737E+03  0.7561462E-02  0.1129218E+00
         -1   -1    0    0    0  501 -0.00000000000E+00  0.00000000000E+00  0.86546931875E+02  0.86546931875E+02  0.00000000000E+00 0.  1.
          1   -1    0    0  501    0  0.00000000000E+00 -0.00000000000E+00 -0.71446577306E+03  0.71446577306E+03  0.00000000000E+00 0. -1.
         25    2    1    2    0    0  0.13236983160E+03 -0.17815654540E+03 -0.27915825125E+03  0.37794535798E+03  0.12510730349E+03 0.  0.
         23    2    1    2    0    0 -0.13236983160E+03  0.17815654540E+03 -0.34876058994E+03  0.42306734696E+03  0.89947228867E+02 0.  0.
          5    1    3    3  502    0 -0.44182011892E+01 -0.21882119668E+02  0.75154513563E+01  0.23922835785E+02  0.41800000000E+01 0. -1.
         -5    1    3    3    0  502  0.13678803279E+03 -0.15627442574E+03 -0.28667370261E+03  0.35402252219E+03  0.41800000000E+01 0. -1.
        -11    1    4    4    0    0 -0.65041155116E+02  0.76979200909E+02 -0.23871585974E+03  0.25911659715E+03  0.00000000000E+00 0.  1.
         11    1    4    4    0    0 -0.67328676484E+02  0.10117734450E+03 -0.11004473020E+03  0.16395074980E+03  0.00000000000E+00 0. -1.
</event>
<event>
 8    1  0.7192024E-009  0.7262144E+02  0.7561462E-02  0.1351399E+00
         -2   -1    0    0    0  501 -0.00000000000E+00  0.00000000000E+00  0.47846892665E+02  0.47846892665E+02  0.00000000000E+00 0.  1.
          2   -1    0    0  501    0  0.00000000000E+00 -0.00000000000E+00 -0.31190495479E+03  0.31190495479E+03  0.00000000000E+00 0. -1.
         25    2    1    2    0    0 -0.57451081602E+01  0.44141761138E+02 -0.95574030885E+02  0.16359533582E+03  0.12509011623E+03 0.  0.
         23    2    1    2    0    0  0.57451081602E+01 -0.44141761138E+02 -0.16848403124E+03  0.19615651164E+03  0.90050024603E+02 0.  0.
          5    1    3    3  502    0  0.74408045332E+01  0.42018714364E+01  0.29803503864E+02  0.31284861167E+02  0.41800000000E+01 0. -1.
         -5    1    3    3    0  502 -0.13185912693E+02  0.39939889701E+02 -0.12537753475E+03  0.13231047465E+03  0.41800000000E+01 0. -1.
        -11    1    4    4    0    0  0.41268064972E+02 -0.66249040950E+01 -0.11231076797E+03  0.11983593428E+03  0.00000000000E+00 0. -1.
         11    1    4    4    0    0 -0.35522956812E+02 -0.37516857043E+02 -0.56173263270E+02  0.76320577365E+02  0.00000000000E+00 0.  1.
</event>
<event>
 8    1  0.7192024E-009  0.1038727E+03  0.7561462E-02  0.1272357E+00
         -2   -1    0    0    0  501 -0.00000000000E+00  0.00000000000E+00  0.10167015886E+04  0.10167015886E+04  0.00000000000E+00 0.  1.
          2   -1    0    0  501    0  0.00000000000E+00 -0.00000000000E+00 -0.17276685487E+02  0.17276685487E+02  0.00000000000E+00 0. -1.
         25    2    1    2    0    0  0.59689402412E+02  0.21144422469E+02  0.72281323269E+03  0.73628648043E+03  0.12509556565E+03 0.  0.
         23    2    1    2    0    0 -0.59689402412E+02 -0.21144422469E+02  0.27661167044E+03  0.29769179368E+03  0.89980422525E+02 0.  0.
          5    1    3    3  502    0 -0.21083231093E+02  0.17365023712E+02  0.47026348364E+03  0.47107458340E+03  0.41800000000E+01 0. -1.
         -5    1    3    3    0  502  0.80772633505E+02  0.37793987576E+01  0.25254974905E+03  0.26521189703E+03  0.41800000000E+01 0. -1.
        -11    1    4    4    0    0 -0.13356313943E+02  0.28355338449E+02  0.15791451449E+03  0.16099506274E+03  0.00000000000E+00 0.  1.
         11    1    4    4    0    0 -0.46333088469E+02 -0.49499760919E+02  0.11869715596E+03  0.13669673094E+03  0.00000000000E+00 0. -1.
</event>
<event>
 8    1  0.7192024E-009  0.1821852E+03  0.7561462E-02  0.1165705E+00
         -1   -1    0    0    0  501 -0.00000000000E+00  0.00000000000E+00  0.10573986725E+03  0.10573986725E+03  0.00000000000E+00 0.  1.
          1   -1    0    0  501    0  0.00000000000E+00 -0.00000000000E+00 -0.39064638224E+03  0.39064638224E+03  0.00000000000E+00 0. -1.
         25    2    1    2    0    0 -0.16846994356E+01 -0.16775839867E+03 -0.20348408024E+03  0.29188783700E+03  0.12508804875E+03 0.  0.
         23    2    1    2    0    0  0.16846994356E+01  0.16775839867E+03 -0.81422434747E+02  0.20449841249E+03  0.83930145309E+02 0.  0.
          5    1    3    3  502    0  0.45130574618E+02 -0.10956428811E+03 -0.17596017569E+03  0.21218048407E+03  0.41800000000E+01 0. -1.
         -5    1    3    3    0  502 -0.46815274054E+02 -0.58194110566E+02 -0.27523904558E+02  0.79707352932E+02  0.41800000000E+01 0. -1.
        -11    1    4    4    0    0  0.13514215503E+02  0.32164564333E+02 -0.56085567855E+02  0.66051375012E+02  0.00000000000E+00 0.  1.
         11    1    4    4    0    0 -0.11829516067E+02  0.13559383434E+03 -0.25336866892E+02  0.13844703747E+03  0.00000000000E+00 0. -1.
</event>
<event>
 8    1  0.7192024E-009  0.9612081E+02  0.7561462E-02  0.1288672E+00
         -1   -1    0    0    0  501 -0.00000000000E+00  0.00000000000E+00  0.40836742481E+02  0.40836742481E+02  0.00000000000E+00 0.  1.
          1   -1    0    0  501    0  0.00000000000E+00 -0.00000000000E+00 -0.29730597733E+03  0.29730597733E+03  0.00000000000E+00 0. -1.
         25    2    1    2    0    0  0.83245770131E+01  0.55315525772E+01 -0.12167610462E+03  0.17479095099E+03  0.12508759114E+03 0.  0.
         23    2    1    2    0    0 -0.83245770131E+01 -0.55315525772E+01 -0.13479313023E+03  0.16335176882E+03  0.91731759836E+02 0.  0.
          5    1    3    3  502    0  0.14808916193E+02  0.53693407179E+02 -0.15528579210E+02  0.57973227835E+02  0.41800000000E+01 0. -1.
         -5    1    3    3    0  502 -0.64843391795E+01 -0.48161854602E+02 -0.10614752540E+03  0.11681772315E+03  0.41800000000E+01 0. -1.
        -11    1    4    4    0    0  0.37768004601E+02 -0.14855869261E+02 -0.37354637999E+02  0.55158752733E+02  0.00000000000E+00 0.  1.
         11    1    4    4    0    0 -0.46092581614E+02  0.93243166841E+01 -0.97438492232E+02  0.10819301609E+03  0.00000000000E+00 0. -1.
</event>
<event>
 8    1  0.7192024E-009  0.1056381E+03  0.7561462E-02  0.1268868E+00
          1   -1    0    0  501    0  0.00000000000E+00  0.00000000000E+00  0.17944143981E+04  0.17944143981E+04  0.00000000000E+00 0. -1.
         -1   -1    0    0    0  501 -0.00000000000E+00 -0.00000000000E+00 -0.98041543676E+01  0.98041543676E+01  0.00000000000E+00 0.  1.
         25    2    1    2    0    0 -0.35809798318E+02  0.21270359529E+02  0.14245081159E+04  0.14305963130E+04  0.12509064157E+03 0.  0.
         23    2    1    2    0    0  0.35809798318E+02 -0.21270359529E+02  0.36010212783E+03  0.37362223949E+03  0.90472457231E+02 0.  0.
          5    1    3    3  502    0  0.77511268541E+01  0.61790892936E+02  0.99652456288E+03  0.99847727628E+03  0.41800000000E+01 0. -1.
         -5    1    3    3    0  502 -0.43560925172E+02 -0.40520533407E+02  0.42798355305E+03  0.43211903674E+03  0.41800000000E+01 0. -1.
        -11    1    4    4    0    0  0.35026979886E+02  0.24943182849E+02  0.91849860589E+02  0.10141720062E+03  0.00000000000E+00 0.  1.
         11    1    4    4    0    0  0.78281843244E+00 -0.46213542378E+02  0.26825226724E+03  0.27220503887E+03  0.00000000000E+00 0. -1.
</event>
<event>
 8    1  0.7192024E-009  0.1949721E+03  0.7561462E-02  0.1154052E+00
         -2   -1    0    0    0  501 -0.00000000000E+00  0.00000000000E+00  0.56370566856E+03  0.56370566856E+03  0.00000000000E+00 0.  1.
          2   -1    0    0  501    0  0.00000000000E+00 -0.00000000000E+00 -0.71467335760E+02  0.71467335760E+02  0.00000000000E+00 0. -1.
         25    2    1    2    0    0 -0.95772484987E+02  0.13807129195E+03  0.27516918777E+03  0.34583481980E+03  0.12509032795E+03 0.  0.
         23    2    1    2    0    0  0.95772484987E+02 -0.13807129195E+03  0.21706914503E+03  0.28933818452E+03  0.91441351466E+02 0.  0.
          5    1    3    3  502    0 -0.11192795195E+03  0.78173893662E+02  0.23499406263E+03  0.27180637585E+03  0.41800000000E+01 0.  1.
         -5    1    3    3    0  502  0.16155466962E+02  0.59897398287E+02  0.40175125141E+02  0.74028443955E+02  0.41800000000E+01 0.  1.
        -11    1    4    4    0    0  0.26790176928E+01  0.13247075349E+02  0.18188703858E+02  0.22660341770E+02  0.00000000000E+00 0.  1.
         11    1    4    4    0    0  0.93093467294E+02 -0.15131836730E+03  0.19888044117E+03  0.26667784275E+03  0.00000000000E+00 0. -1.
</event>
<event>
 8    1  0.7192024E-009  0.1597677E+03  0.7561462E-02  0.1188959E+00
          2   -1    0    0  501    0  0.00000000000E+00  0.00000000000E+00  0.10511941559E+04  0.10511941559E+04  0.00000000000E+00 0. -1.
         -2   -1    0    0    0  501 -0.00000000000E+00 -0.00000000000E+00 -0.27030790792E+02  0.27030790792E+02  0.00000000000E+00 0.  1.
         25    2    1    2    0    0 -0.12116831275E+02  0.12077183404E+03  0.41365190044E+03  0.44887310422E+03  0.12508603221E+03 0.  0.
         23    2    1    2    0    0  0.12116831275E+02 -0.12077183404E+03  0.61051146462E+03  0.62935184243E+03  0.92880781829E+02 0.  0.
          5    1    3    3  502    0 -0.56339575630E+02  0.11380060815E+03  0.33488413122E+03  0.35817534804E+03  0.41800000000E+01 0. -1.
         -5    1    3    3    0  502  0.44222744355E+02  0.69712258955E+01  0.78767769217E+02  0.90697756180E+02  0.41800000000E+01 0. -1.
        -11    1    4    4    0    0 -0.12570683294E+02 -0.12214879352E+03  0.55742162138E+03  0.57078648707E+03  0.00000000000E+00 0. -1.
         11    1    4    4    0    0  0.24687514569E+02  0.13769594745E+01  0.53089843242E+02  0.58565355360E+02  0.00000000000E+00 0.  1.
</event>
<event>
 8    1  0.7192024E-009  0.1326075E+03  0.7561462E-02  0.1223637E+00
         -1   -1    0    0    0  501 -0.00000000000E+00  0.00000000000E+00  0.29039380096E+02  0.29039380096E+02  0.00000000000E+00 0.  1.
          1   -1    0    0  501    0  0.00000000000E+00 -0.00000000000E+00 -0.99795144846E+03  0.99795144846E+03  0.00000000000E+00 0. -1.
         25    2    1    2    0    0 -0.15053925205E+01  0.11361424200E+03 -0.70390324022E+03  0.72390313487E+03  0.12508203266E+03 0.  0.
         23    2    1    2    0    0  0.15053925205E+01 -0.11361424200E+03 -0.26500882815E+03  0.30308769369E+03  0.93391695969E+02 0.  0.
          5    1    3    3  502    0 -0.16870928227E+02  0.35934074933E+02 -0.44622741006E+02  0.59871089646E+02  0.41800000000E+01 0. -1.
         -5    1    3    3    0  502  0.15365535706E+02  0.77680167068E+02 -0.65928049921E+03  0.66403204522E+03  0.41800000000E+01 0. -1.
        -11    1    4    4    0    0 -0.36477173649E+02 -0.13448878669E+02 -0.87688481987E+02  0.95920417055E+02  0.00000000000E+00 0. -1.
         11    1    4    4    0    0  0.37982566170E+02 -0.10016536333E+03 -0.17732034616E+03  0.20716727663E+03  0.00000000000E+00 0.  1.
</event>
<event>
 8    1  0.7192024E-009  0.1076899E+03  0.7561462E-02  0.1264909E+00
         -3   -1    0    0    0  501 -0.00000000000E+00  0.00000000000E+00  0.30875444520E+02  0.30875444520E+02  0.00000000000E+00 0.  1.
          3   -1    0    0  501    0  0.00000000000E+00 -0.00000000000E+00 -0.60232757109E+03  0.60232757109E+03  0.00000000000E+00 0. -1.
         25    2    1    2    0    0  0.33350933763E+01 -0.55360894998E+02 -0.45451400597E+03  0.47466400958E+03  0.12508792438E+03 0.  0.
         23    2    1    2    0    0 -0.33350933763E+01  0.55360894998E+02 -0.11693812059E+03  0.15853900602E+03  0.91564954211E+02 0.  0.
          5    1    3    3  502    0 -0.57967481062E+02 -0.32285264580E+02 -0.16686388569E+03  0.17962070014E+03  0.41800000000E+01 0.  1.
         -5    1    3    3    0  502  0.61302574439E+02 -0.23075630418E+02 -0.28765012028E+03  0.29504330945E+03  0.41800000000E+01 0.  1.
        -11    1    4    4    0    0 -0.32343648177E+02  0.22343408428E+02 -0.67198528287E+01  0.39881021798E+02  0.00000000000E+00 0.  1.
         11    1    4    4    0    0  0.29008554801E+02  0.33017486570E+02 -0.11021826776E+03  0.11865798422E+03  0.00000000000E+00 0. -1.
</event>
<event>
 8    1  0.7192024E-009  0.1019998E+03  0.7561462E-02  0.1276146E+00
          1   -1    0    0  501    0  0.00000000000E+00  0.00000000000E+00  0.89920475491E+03  0.89920475491E+03  0.00000000000E+00 0. -1.
         -1   -1    0    0    0  501 -0.00000000000E+00 -0.00000000000E+00 -0.25089678237E+02  0.25089678237E+02  0.00000000000E+00 0.  1.
         25    2    1    2    0    0  0.45286856437E+02 -0.64944509585E+02  0.67532975540E+03  0.69136542807E+03  0.12508872019E+03 0.  0.
         23    2    1    2    0    0 -0.45286856437E+02  0.64944509585E+02  0.19878532128E+03  0.23292900508E+03  0.92041451312E+02 0.  0.
          5    1    3    3  502    0  0.37294944397E+02 -0.34988113891E+02  0.64739210546E+03  0.64942212128E+03  0.41800000000E+01 0. -1.
         -5    1    3    3    0  502  0.79919120398E+01 -0.29956395694E+02  0.27937649938E+02  0.41943306797E+02  0.41800000000E+01 0. -1.
        -11    1    4    4    0    0  0.22366318706E+02 -0.62210804429E+01  0.37347993155E+02  0.43975295872E+02  0.00000000000E+00 0.  1.
         11    1    4    4    0    0 -0.67653175143E+02  0.71165590028E+02  0.16143732812E+03  0.18895370921E+03  0.00000000000E+00 0. -1.
</event>
<event>
 8    1  0.7192024E-009  0.1268118E+03  0.7561462E-02  0.1232265E+00
         -1   -1    0    0    0  501 -0.00000000000E+00  0.00000000000E+00  0.28313241957E+03  0.28313241957E+03  0.00000000000E+00 0.  1.
          1   -1    0    0  501    0  0.00000000000E+00 -0.00000000000E+00 -0.12159927434E+03  0.12159927434E+03  0.00000000000E+00 0. -1.
         25    2    1    2    0    0  0.76383175422E+02  0.85320664387E+02  0.19018001507E+03  0.25481334152E+03  0.12508955043E+03 0.  0.
         23    2    1    2    0    0 -0.76383175422E+02 -0.85320664387E+02 -0.28646869839E+02  0.14991835239E+03  0.92416794866E+02 0.  0.
          5    1    3    3  502    0  0.89091907362E+02  0.74143503535E+02  0.74548861918E+02  0.13787542307E+03  0.41800000000E+01 0.  1.
         -5    1    3    3    0  502 -0.12708731940E+02  0.11177160852E+02  0.11563115315E+03  0.11693791845E+03  0.41800000000E+01 0.  1.
        -11    1    4    4    0    0 -0.18448296603E+02 -0.47664193657E+02  0.30020594289E+02  0.59274371241E+02  0.00000000000E+00 0.  1.
         11    1    4    4    0    0 -0.57934878818E+02 -0.37656470730E+02 -0.58667464129E+02  0.90643981150E+02  0.00000000000E+00 0. -1.
</event>
<event>
 8    1  0.7192024E-009  0.9561799E+02  0.7561462E-02  0.1289790E+00
         -1   -1    0    0    0  501 -0.00000000000E+00  0.00000000000E+00  0.23970070524E+03  0.23970070524E+03  0.00000000000E+00 0.  1.
          1   -1    0    0  501    0  0.00000000000E+00 -0.00000000000E+00 -0.54102373686E+02  0.54102373686E+02  0.00000000000E+00 0. -1.
         25    2    1    2    0    0 -0.22742227503E+02  0.16650481105E+02  0.79108099791E+02  0.15066562875E+03  0.12509033856E+03 0.  0.
         23    2    1    2    0    0  0.22742227503E+02 -0.16650481105E+02  0.10649023177E+03  0.14313745018E+03  0.91398647420E+02 0.  0.
          5    1    3    3  502    0 -0.23276508440E+02 -0.42305833121E+02 -0.40564573587E+01  0.48636474045E+02  0.41800000000E+01 0. -1.
         -5    1    3    3    0  502  0.53428093744E+00  0.58956314226E+02  0.83164557150E+02  0.10202915470E+03  0.41800000000E+01 0. -1.
        -11    1    4    4    0    0  0.20374087497E+02  0.30376083004E+02  0.82603231084E+02  0.90338826899E+02  0.00000000000E+00 0.  1.
         11    1    4    4    0    0  0.23681400063E+01 -0.47026564109E+02  0.23887000684E+02  0.52798623284E+02  0.00000000000E+00 0. -1.
</event>
<event>
 8    1  0.7192024E-009  0.1811570E+03  0.7561462E-02  0.1166688E+00
         -2   -1    0    0    0  501 -0.00000000000E+00  0.00000000000E+00  0.27641928210E+03  0.27641928210E+03  0.00000000000E+00 0. -1.
          2   -1    0    0  501    0  0.00000000000E+00 -0.00000000000E+00 -0.22219866346E+03  0.22219866346E+03  0.00000000000E+00 0.  1.
         25    2    1    2    0    0  0.16220677008E+03 -0.22293548841E+02 -0.12358258219E+03  0.24026525257E+03  0.12508676345E+03 0.  0.
         23    2    1    2    0    0 -0.16220677008E+03  0.22293548841E+02  0.17780320083E+03  0.25835269299E+03  0.91236490333E+02 0.  0.
          5    1    3    3  502    0  0.44496526828E+02 -0.56125665041E+02 -0.86680511109E+01  0.72267826078E+02  0.41800000000E+01 0.  1.
         -5    1    3    3    0  502  0.11771024326E+03  0.33832116200E+02 -0.11491453108E+03  0.16799742649E+03  0.41800000000E+01 0.  1.
        -11    1    4    4    0    0 -0.11232147346E+03  0.32858393654E+02  0.63397871248E+02  0.13309799966E+03  0.00000000000E+00 0.  1.
         11    1    4    4    0    0 -0.49885296625E+02 -0.10564844813E+02  0.11440532958E+03  0.12525469333E+03  0.00000000000E+00 0. -1.
</event>
<event>
 8    1  0.7192024E-009  0.9847934E+02  0.7561462E-02  0.1283527E+00
         -1   -1    0    0    0  501 -0.00000000000E+00  0.00000000000E+00  0.11579620925E+03  0.11579620925E+03  0.00000000000E+00 0.  1.
          1   -1    0    0  501    0  0.00000000000E+00 -0.00000000000E+00 -0.14498793667E+03  0.14498793667E+03  0.00000000000E+00 0. -1.
         25    2    1    2    0    0 -0.61147012751E+02  0.58893422369E+01 -0.49211791362E+02  0.14779424654E+03  0.12509075658E+03 0.  0.
         23    2    1    2    0    0  0.61147012751E+02 -0.58893422369E+01  0.20020063941E+02  0.11298989937E+03  0.92694513753E+02 0.  0.
          5    1    3    3  502    0 -0.66653472614E+00 -0.24285134954E+02  0.33058603076E+02  0.41237794383E+02  0.41800000000E+01 0.  1.
         -5    1    3    3    0  502 -0.60480478024E+02  0.30174477191E+02 -0.82270394438E+02  0.10655645216E+03  0.41800000000E+01 0.  1.
        -11    1    4    4    0    0  0.19683839531E+02 -0.44043478016E+02  0.28465459287E+02  0.56013961356E+02  0.00000000000E+00 0.  1.
         11    1    4    4    0    0  0.41463173219E+02  0.38154135779E+02 -0.84453953460E+01  0.56975938017E+02  0.00000000000E+00 0. -1.
</event>
<event>
 8    1  0.7192024E-009  0.9921687E+02  0.7561462E-02  0.1281951E+00
          1   -1    0    0  501    0  0.00000000000E+00  0.00000000000E+00  0.16351406541E+03  0.16351406541E+03  0.00000000000E+00 0. -1.
         -1   -1    0    0    0  501 -0.00000000000E+00 -0.00000000000E+00 -0.78382939526E+02  0.78382939526E+02  0.00000000000E+00 0.  1.
         25    2    1    2    0    0  0.11328998182E+02  0.25308066359E+02  0.61286712716E+02  0.14202700850E+03  0.12508703197E+03 0.  0.
         23    2    1    2    0    0 -0.11328998182E+02 -0.25308066359E+02  0.23844413163E+02  0.99869996427E+02  0.92933394023E+02 0.  0.
          5    1    3    3  502    0 -0.37341550699E+01 -0.38639750942E+02 -0.14492259560E+02  0.41646995740E+02  0.41800000000E+01 0.  1.
         -5    1    3    3    0  502  0.15063153251E+02  0.63947817302E+02  0.75778972276E+02  0.10038001276E+03  0.41800000000E+01 0.  1.
        -11    1    4    4    0    0 -0.16921446040E+02  0.31882877055E+02  0.22214386985E+02  0.42383159090E+02  0.00000000000E+00 0. -1.
         11    1    4    4    0    0  0.55924478579E+01 -0.57190943414E+02  0.16300261784E+01  0.57486837337E+02  0.00000000000E+00 0.  1.
</event>
<event>
 8    1  0.7192024E-009  0.6906953E+02  0.7561462E-02  0.1363286E+00
         -2   -1    0    0    0  501 -0.00000000000E+00  0.00000000000E+00  0.97137390940E+02  0.97137390940E+02  0.00000000000E+00 0.  1.
          2   -1    0    0  501    0  0.00000000000E+00 -0.00000000000E+00 -0.23206554961E+03  0.23206554961E+03  0.00000000000E+00 0. -1.
         25    2    1    2    0    0 -0.59370600120E+02  0.22954014515E+02 -0.16317613603E+03  0.21523305562E+03  0.12508821655E+03 0.  0.
         23    2    1    2    0    0  0.59370600120E+02 -0.22954014515E+02  0.28247977356E+02  0.11396988494E+03  0.90218797970E+02 0.  0.
          5    1    3    3  502    0 -0.58700493107E+02  0.13411797965E+02 -0.93794476188E+01  0.61082490563E+02  0.41800000000E+01 0. -1.
         -5    1    3    3    0  502 -0.67010701239E+00  0.95422165507E+01 -0.15379668841E+03  0.15415056505E+03  0.41800000000E+01 0. -1.
        -11    1    4    4    0    0  0.13226913314E+02 -0.15867128704E+02  0.55979855727E+02  0.59669600772E+02  0.00000000000E+00 0.  1.
         11    1    4    4    0    0  0.46143686805E+02 -0.70868858117E+01 -0.27731878371E+02  0.54300284166E+02  0.00000000000E+00 0. -1.
</event>
<event>
 8    1  0.7192024E-009  0.1764173E+03  0.7561462E-02  0.1171316E+00
         -2   -1    0    0    0  501 -0.00000000000E+00  0.00000000000E+00  0.16818852071E+03  0.16818852071E+03  0.00000000000E+00 0.  1.
          2   -1    0    0  501    0  0.00000000000E+00 -0.00000000000E+00 -0.30526411440E+03  0.30526411440E+03  0.00000000000E+00 0. -1.
         25    2    1    2    0    0 -0.35405221836E+02 -0.13461367362E+03  0.76008771187E+02  0.20198349878E+03  0.12508249127E+03 0.  0.
         23    2    1    2    0    0  0.35405221836E+02  0.13461367362E+03 -0.21308436487E+03  0.27146913633E+03  0.94425497455E+02 0.  0.
          5    1    3    3  502    0 -0.21853342800E+02 -0.15676412876E+03  0.76118681758E+02  0.17568177700E+03  0.41800000000E+01 0.  1.
         -5    1    3    3    0  502 -0.13551879036E+02  0.22150455140E+02 -0.10991057029E+00  0.26301721781E+02  0.41800000000E+01 0.  1.
        -11    1    4    4    0    0 -0.16084145871E+02  0.10992498924E+03 -0.14084173345E+03  0.17938393709E+03  0.00000000000E+00 0.  1.
         11    1    4    4    0    0  0.51489367707E+02  0.24688684379E+02 -0.72242631428E+02  0.92085199239E+02  0.00000000000E+00 0. -1.
</event>
<event>
 8    1  0.7192024E-009  0.9268954E+02  0.7561462E-02  0.1296466E+00
          2   -1    0    0  501    0  0.00000000000E+00  0.00000000000E+00  0.18064814753E+03  0.18064814753E+03  0.00000000000E+00 0. -1.
         -2   -1    0    0    0  501 -0.00000000000E+00 -0.00000000000E+00 -0.23079283298E+03  0.23079283298E+03  0.00000000000E+00 0.  1.
         25    2    1    2    0    0 -0.30653574171E+02 -0.81989505879E+02 -0.17590918994E+03  0.23292404546E+03  0.12509055586E+03 0.  0.
         23    2    1    2    0    0  0.30653574171E+02  0.81989505879E+02  0.12576450449E+03  0.17851693505E+03  0.91595113550E+02 0.  0.
          5    1    3    3  502    0 -0.94343692142E+01 -0.74046272786E+02 -0.19118335677E+03  0.20528128541E+03  0.41800000000E+01 0. -1.
         -5    1    3    3    0  502 -0.21219204957E+02 -0.79432330934E+01  0.15274166825E+02  0.27642760050E+02  0.41800000000E+01 0. -1.
        -11    1    4    4    0    0  0.66735231635E+01  0.21356024145E+02 -0.12514248202E+02  0.25636343085E+02  0.00000000000E+00 0.  1.
         11    1    4    4    0    0  0.23980051007E+02  0.60633481734E+02  0.13827875269E+03  0.15288059196E+03  0.00000000000E+00 0. -1.
</event>
<event>
 8    1  0.7192024E-009  0.1395386E+03  0.7561462E-02  0.1213951E+00
         -2   -1    0    0    0  501 -0.00000000000E+00  0.00000000000E+00  0.20127299922E+02  0.20127299922E+02  0.00000000000E+00 0. -1.
          2   -1    0    0  501    0  0.00000000000E+00 -0.00000000000E+00 -0.14134757235E+04  0.14134757235E+04  0.00000000000E+00 0.  1.
         25    2    1    2    0    0 -0.65770423344E+02  0.10753389452E+03 -0.63957328941E+03  0.66376990707E+03  0.12508880824E+03 0.  0.
         23    2    1    2    0    0  0.65770423344E+02 -0.10753389452E+03 -0.75377513416E+03  0.76983311634E+03  0.92610944762E+02 0.  0.
          5    1    3    3  502    0 -0.60962182903E+02  0.93421382724E+02 -0.24886411382E+03  0.27275403212E+03  0.41800000000E+01 0. -1.
         -5    1    3    3    0  502 -0.48082404409E+01  0.14112511792E+02 -0.39070917560E+03  0.39101587495E+03  0.41800000000E+01 0. -1.
        -11    1    4    4    0    0  0.83359551995E+02 -0.10519379481E+03 -0.71041581468E+03  0.72298352618E+03  0.00000000000E+00 0.  1.
         11    1    4    4    0    0 -0.17589128652E+02 -0.23400997078E+01 -0.43359319479E+02  0.46849590170E+02  0.00000000000E+00 0. -1.
</event>
<event>
 8    1  0.7192024E-009  0.1152498E+03  0.7561462E-02  0.1251146E+00
         -2   -1    0    0    0  501 -0.00000000000E+00  0.00000000000E+00  0.34969850982E+02  0.34969850982E+02  0.00000000000E+00 0.  1.
          2   -1    0    0  501    0  0.00000000000E+00 -0.00000000000E+00 -0.39984492285E+03  0.39984492285E+03  0.00000000000E+00 0. -1.
         25    2    1    2    0    0  0.36858153285E+02  0.20902507037E+02 -0.23988058277E+03  0.27383250562E+03  0.12508440703E+03 0.  0.
         23    2    1    2    0    0 -0.36858153285E+02 -0.20902507037E+02 -0.12499448910E+03  0.16098226821E+03  0.92174997194E+02 0.  0.
          5    1    3    3  502    0 -0.45997944814E+02  0.16230198775E+02 -0.86795983414E+02  0.99650616738E+02  0.41800000000E+01 0. -1.
         -5    1    3    3    0  502  0.82856098098E+02  0.46723082618E+01 -0.15308459935E+03  0.17418188889E+03  0.41800000000E+01 0. -1.
        -11    1    4    4    0    0 -0.43005804357E+01  0.34188646121E+02 -0.26259997858E+02  0.43323734871E+02  0.00000000000E+00 0.  1.
         11    1    4    4    0    0 -0.32557572849E+02 -0.55091153158E+02 -0.98734491240E+02  0.11765853333E+03  0.00000000000E+00 0. -1.
</event>
<event>
 8    1  0.7192024E-009  0.1552580E+03  0.7561462E-02  0.1194157E+00
          2   -1    0    0  501    0  0.00000000000E+00  0.00000000000E+00  0.99241917039E+03  0.99241917039E+03  0.00000000000E+00 0. -1.
         -2   -1    0    0    0  501 -0.00000000000E+00 -0.00000000000E+00 -0.27703152599E+02  0.27703152599E+02  0.00000000000E+00 0.  1.
         25    2    1    2    0    0 -0.40248685812E+02 -0.11830424645E+03  0.57615555473E+03  0.60267616689E+03  0.12508991747E+03 0.  0.
         23    2    1    2    0    0  0.40248685812E+02  0.11830424645E+03  0.38856046306E+03  0.41744615610E+03  0.87556886367E+02 0.  0.
          5    1    3    3  502    0  0.43455746649E+01 -0.12973275437E+03  0.39992861716E+03  0.42048762503E+03  0.41800000000E+01 0. -1.
         -5    1    3    3    0  502 -0.44594260477E+02  0.11428507922E+02  0.17622693757E+03  0.18218854186E+03  0.41800000000E+01 0. -1.
        -11    1    4    4    0    0  0.33817398854E+02  0.28053238955E+02  0.23614139606E+03  0.24019442045E+03  0.00000000000E+00 0. -1.
         11    1    4    4    0    0  0.64312869584E+01  0.90251007496E+02  0.15241906700E+03  0.17725173565E+03  0.00000000000E+00 0.  1.
</event>
<event>
 8    1  0.7192024E-009  0.1077272E+03  0.7561462E-02  0.1264838E+00
         -2   -1    0    0    0  501 -0.00000000000E+00  0.00000000000E+00  0.16706777078E+03  0.16706777078E+03  0.00000000000E+00 0.  1.
          2   -1    0    0  501    0  0.00000000000E+00 -0.00000000000E+00 -0.11377869617E+03  0.11377869617E+03  0.00000000000E+00 0. -1.
         25    2    1    2    0    0  0.38288942537E+02 -0.12582495236E+02 -0.48007774448E+02  0.13992016533E+03  0.12509414036E+03 0.  0.
         23    2    1    2    0    0 -0.38288942537E+02  0.12582495236E+02  0.10129684906E+03  0.14092630161E+03  0.89301783573E+02 0.  0.
          5    1    3    3  502    0 -0.35474485063E+02  0.15737040675E+02  0.11753536177E+02  0.40764096364E+02  0.41800000000E+01 0. -1.
         -5    1    3    3    0  502  0.73763427601E+02 -0.28319535911E+02 -0.59761310626E+02  0.99156068969E+02  0.41800000000E+01 0. -1.
        -11    1    4    4    0    0  0.26806365688E+02  0.17507103870E+02  0.25792270754E+02  0.41113515515E+02  0.00000000000E+00 0. -1.
         11    1    4    4    0    0 -0.65095308225E+02 -0.49246086342E+01  0.75504578310E+02  0.99812786099E+02  0.00000000000E+00 0.  1.
</event>
<event>
 8    1  0.7192024E-009  0.1444528E+03  0.7561462E-02  0.1207460E+00
         -1   -1    0    0    0  501 -0.00000000000E+00  0.00000000000E+00  0.13326631628E+03  0.13326631628E+03  0.00000000000E+00 0.  1.
          1   -1    0    0  501    0  0.00000000000E+00 -0.00000000000E+00 -0.33712358403E+03  0.33712358403E+03  0.00000000000E+00 0. -1.
         25    2    1    2    0    0 -0.89525934500E+02 -0.49454999036E+02  0.60781255919E+02  0.17263625304E+03  0.12509286516E+03 0.  0.
         23    2    1    2    0    0  0.89525934500E+02  0.49454999036E+02 -0.26463852367E+03  0.29775364727E+03  0.90349302014E+02 0.  0.
          5    1    3    3  502    0 -0.11651541572E+03 -0.52065253992E+02  0.29543361449E+02  0.13106073165E+03  0.41800000000E+01 0. -1.
         -5    1    3    3    0  502  0.26989481225E+02  0.26102549565E+01  0.31237894470E+02  0.41575521387E+02  0.41800000000E+01 0. -1.
        -11    1    4    4    0    0  0.36522844841E+02  0.68363088710E+02 -0.12346551334E+03  0.14577778664E+03  0.00000000000E+00 0.  1.
         11    1    4    4    0    0  0.53003089659E+02 -0.18908089675E+02 -0.14117301033E+03  0.15197586063E+03  0.00000000000E+00 0. -1.
</event>
<event>
 8    1  0.7192024E-009  0.1238753E+03  0.7561462E-02  0.1236837E+00
         -2   -1    0    0    0  501 -0.00000000000E+00  0.00000000000E+00  0.17151200120E+02  0.17151200120E+02  0.00000000000E+00 0.  1.
          2   -1    0    0  501    0  0.00000000000E+00 -0.00000000000E+00 -0.93963956019E+03  0.93963956019E+03  0.00000000000E+00 0. -1.
         25    2    1    2    0    0  0.27767063240E+01 -0.66812441015E+02 -0.52512338147E+03  0.54394203050E+03  0.12508698737E+03 0.  0.
         23    2    1    2    0    0 -0.27767063240E+01  0.66812441015E+02 -0.39736497860E+03  0.41284872980E+03  0.89852852558E+02 0.  0.
          5    1    3    3  502    0 -0.60737509163E+02 -0.39377632312E+02 -0.27314556875E+03  0.28260505493E+03  0.41800000000E+01 0. -1.
         -5    1    3    3    0  502  0.63514215487E+02 -0.27434808703E+02 -0.25197781272E+03  0.26133697557E+03  0.41800000000E+01 0. -1.
        -11    1    4    4    0    0 -0.38059056485E+02  0.10501728346E+02 -0.88361137680E+02  0.96780518344E+02  0.00000000000E+00 0.  1.
         11    1    4    4    0    0  0.35282350161E+02  0.56310712669E+02 -0.30900384092E+03  0.31606821146E+03  0.00000000000E+00 0. -1.
</event>
<event>
 8    1  0.7192024E-009  0.1230236E+03  0.7561462E-02  0.1238191E+00
          1   -1    0    0  501    0  0.00000000000E+00  0.00000000000E+00  0.64280523546E+03  0.64280523546E+03  0.00000000000E+00 0. -1.
         -1   -1    0    0    0  501 -0.00000000000E+00 -0.00000000000E+00 -0.36155197211E+02  0.36155197211E+02  0.00000000000E+00 0.  1.
         25    2    1    2    0    0 -0.10177452932E+03 -0.11337724829E+02  0.30285785142E+03  0.34330314984E+03  0.12509027021E+03 0.  0.
         23    2    1    2    0    0  0.10177452932E+03  0.11337724829E+02  0.30379218682E+03  0.33565728283E+03  0.99446065358E+02 0.  0.
          5    1    3    3  502    0 -0.10372627424E+03 -0.32117997479E+01  0.11401103829E+03  0.15422530557E+03  0.41800000000E+01 0. -1.
         -5    1    3    3    0  502  0.19517449144E+01 -0.81259250815E+01  0.18884681312E+03  0.18907784427E+03  0.41800000000E+01 0. -1.
        -11    1    4    4    0    0 -0.15159472765E+02 -0.13658842525E+01  0.76994542381E+01  0.17057457310E+02  0.00000000000E+00 0.  1.
         11    1    4    4    0    0  0.11693400209E+03  0.12703609082E+02  0.29609273259E+03  0.31859982552E+03  0.00000000000E+00 0. -1.
</event>
<event>
 8    1  0.7192024E-009  0.2059293E+03  0.7561462E-02  0.1144831E+00
          2   -1    0    0  501    0  0.00000000000E+00  0.00000000000E+00  0.28072148995E+03  0.28072148995E+03  0.00000000000E+00 0. -1.
         -2   -1    0    0    0  501 -0.00000000000E+00 -0.00000000000E+00 -0.17458410240E+03  0.17458410240E+03  0.00000000000E+00 0.  1.
         25    2    1    2    0    0 -0.23916437926E+02 -0.18908624992E+03  0.82693495433E+02  0.24251616791E+03  0.12510104555E+03 0.  0.
         23    2    1    2    0    0  0.23916437926E+02  0.18908624992E+03  0.23443892120E+02  0.21278942444E+03  0.91673972126E+02 0.  0.
          5    1    3    3  502    0  0.40666394411E+02 -0.72071033036E+02  0.69500725113E+02  0.10814718040E+03  0.41800000000E+01 0.  1.
         -5    1    3    3    0  502 -0.64582832336E+02 -0.11701521688E+03  0.13192770321E+02  0.13436898751E+03  0.41800000000E+01 0.  1.
        -11    1    4    4    0    0 -0.12430544238E+02  0.50504824376E+02 -0.29803346811E+02  0.59945768795E+02  0.00000000000E+00 0.  1.
         11    1    4    4    0    0  0.36346982164E+02  0.13858142554E+03  0.53247238931E+02  0.15284365565E+03  0.00000000000E+00 0. -1.
</event>
<event>
 8    1  0.7192024E-009  0.1185219E+03  0.7561462E-02  0.1245556E+00
         -2   -1    0    0    0  501 -0.00000000000E+00  0.00000000000E+00  0.42030062544E+02  0.42030062544E+02  0.00000000000E+00 0. -1.
          2   -1    0    0  501    0  0.00000000000E+00 -0.00000000000E+00 -0.38158548576E+03  0.38158548576E+03  0.00000000000E+00 0.  1.
         25    2    1    2    0    0  0.39155321938E+02 -0.52738228350E+02 -0.18595136949E+03  0.23353768160E+03  0.12508987546E+03 0.  0.
         23    2    1    2    0    0 -0.39155321938E+02  0.52738228350E+02 -0.15360405372E+03  0.19007786671E+03  0.90669345026E+02 0.  0.
          5    1    3    3  502    0  0.64185682618E+02 -0.70568816297E+02 -0.17723818381E+03  0.20132214455E+03  0.41800000000E+01 0. -1.
         -5    1    3    3    0  502 -0.25030360680E+02  0.17830587947E+02 -0.87131856855E+01  0.32215537045E+02  0.41800000000E+01 0. -1.
        -11    1    4    4    0    0 -0.62560262190E+02  0.12205252402E+02 -0.10316961513E+03  0.12127128299E+03  0.00000000000E+00 0. -1.
         11    1    4    4    0    0  0.23404940252E+02  0.40532975948E+02 -0.50434438593E+02  0.68806583723E+02  0.00000000000E+00 0.  1.
</event>
<event>
 8    1  0.7192024E-009  0.1486975E+03  0.7561462E-02  0.1202083E+00
         -2   -1    0    0    0  501 -0.00000000000E+00  0.00000000000E+00  0.50341704514E+02  0.50341704514E+02  0.00000000000E+00 0.  1.
          2   -1    0    0  501    0  0.00000000000E+00 -0.00000000000E+00 -0.49027548819E+03  0.49027548819E+03  0.00000000000E+00 0. -1.
         25    2    1    2    0    0  0.10787983621E+03 -0.35044356493E+02 -0.25959038821E+03  0.30967945523E+03  0.12509208352E+03 0.  0.
         23    2    1    2    0    0 -0.10787983621E+03  0.35044356493E+02 -0.18034339546E+03  0.23093773747E+03  0.89119763900E+02 0.  0.
          5    1    3    3  502    0  0.75135190110E+02 -0.75421244682E+02 -0.11898874709E+03  0.15971679710E+03  0.41800000000E+01 0. -1.
         -5    1    3    3    0  502  0.32744646101E+02  0.40376888189E+02 -0.14060164112E+03  0.14996265813E+03  0.41800000000E+01 0. -1.
        -11    1    4    4    0    0 -0.39019107985E+02  0.54606411079E+02 -0.11919484208E+03  0.13679094011E+03  0.00000000000E+00 0. -1.
         11    1    4    4    0    0 -0.68860728225E+02 -0.19562054586E+02 -0.61148553383E+02  0.94146797355E+02  0.00000000000E+00 0.  1.
</event>
<event>
 8    1  0.7192024E-009  0.1133558E+03  0.7561462E-02  0.1254479E+00
         -1   -1    0    0    0  501 -0.00000000000E+00  0.00000000000E+00  0.20389942955E+02  0.20389942955E+02  0.00000000000E+00 0.  1.
          1   -1    0    0  501    0  0.00000000000E+00 -0.00000000000E+00 -0.72423974110E+03  0.72423974110E+03  0.00000000000E+00 0. -1.
         25    2    1    2    0    0 -0.36519766970E+02 -0.21526326633E+02 -0.27737151705E+03  0.30721261945E+03  0.12509020331E+03 0.  0.
         23    2    1    2    0    0  0.36519766970E+02  0.21526326633E+02 -0.42647828109E+03  0.43741706460E+03  0.87480786678E+02 0.  0.
          5    1    3    3  502    0 -0.82213758065E+02 -0.23996000615E+02 -0.16923516923E+03  0.18971801434E+03  0.41800000000E+01 0. -1.
         -5    1    3    3    0  502  0.45693991094E+02  0.24696739817E+01 -0.10813634782E+03  0.11749460512E+03  0.41800000000E+01 0. -1.
        -11    1    4    4    0    0  0.18349506810E+02  0.54422943667E+02 -0.30105862060E+03  0.30648793489E+03  0.00000000000E+00 0. -1.
         11    1    4    4    0    0  0.18170260160E+02 -0.32896617034E+02 -0.12541966050E+03  0.13092912971E+03  0.00000000000E+00 0.  1.
</event>
<event>
 8    1  0.7192024E-009  0.1672669E+03  0.7561462E-02  0.1180728E+00
          2   -1    0    0  501    0  0.00000000000E+00  0.00000000000E+00  0.11539136726E+04  0.11539136726E+04  0.00000000000E+00 0. -1.
         -2   -1    0    0    0  501 -0.00000000000E+00 -0.00000000000E+00 -0.39628399637E+02  0.39628399637E+02  0.00000000000E+00 0.  1.
         25    2    1    2    0    0  0.11298447210E+03  0.72205296617E+02  0.93205210105E+03  0.94991959400E+03  0.12508804979E+03 0.  0.
         23    2    1    2    0    0 -0.11298447210E+03 -0.72205296617E+02  0.18223317196E+03  0.24362247828E+03  0.90354231590E+02 0.  0.
          5    1    3    3  502    0  0.10497655734E+03  0.10370269405E+03  0.68660650591E+03  0.70229644218E+03  0.41800000000E+01 0.  1.
         -5    1    3    3    0  502  0.80079147656E+01 -0.31497397429E+02  0.24544559514E+03  0.24762315182E+03  0.41800000000E+01 0.  1.
        -11    1    4    4    0    0  0.46266524075E+01  0.97532122749E+01  0.40954918586E+02  0.42353706078E+02  0.00000000000E+00 0. -1.
         11    1    4    4    0    0 -0.11761112451E+03 -0.81958508892E+02  0.14127825338E+03  0.20126877221E+03  0.00000000000E+00 0.  1.
</event>
<event>
 8    1  0.7192024E-009  0.2634933E+03  0.7561462E-02  0.1105062E+00
         -2   -1    0    0    0  501 -0.00000000000E+00  0.00000000000E+00  0.15337955895E+03  0.15337955895E+03  0.00000000000E+00 0.  1.
          2   -1    0    0  501    0  0.00000000000E+00 -0.00000000000E+00 -0.45760035031E+03  0.45760035031E+03  0.00000000000E+00 0. -1.
         25    2    1    2    0    0 -0.42639025565E+02 -0.23791139023E+03 -0.13834333388E+03  0.30529697611E+03  0.12508976574E+03 0.  0.
         23    2    1    2    0    0  0.42639025565E+02  0.23791139023E+03 -0.16587745748E+03  0.30568293314E+03  0.86641841013E+02 0.  0.
          5    1    3    3  502    0 -0.72772773104E+02 -0.22915738176E+03 -0.12090868166E+03  0.26915676439E+03  0.41800000000E+01 0.  1.
         -5    1    3    3    0  502  0.30133747539E+02 -0.87540084721E+01 -0.17434652219E+02  0.36140211718E+02  0.41800000000E+01 0.  1.
        -11    1    4    4    0    0 -0.10264963036E+02  0.16203324533E+03 -0.87460972025E+02  0.18441682051E+03  0.00000000000E+00 0.  1.
         11    1    4    4    0    0  0.52903988602E+02  0.75878144900E+02 -0.78416485454E+02  0.12126611264E+03  0.00000000000E+00 0. -1.
</event>
<event>
 8    1  0.7192024E-009  0.1154594E+03  0.7561462E-02  0.1250781E+00
          2   -1    0    0  501    0  0.00000000000E+00  0.00000000000E+00  0.15158664299E+04  0.15158664299E+04  0.00000000000E+00 0. -1.
         -2   -1    0    0    0  501 -0.00000000000E+00 -0.00000000000E+00 -0.12377822747E+02  0.12377822747E+02  0.00000000000E+00 0.  1.
         25    2    1    2    0    0  0.44926070065E+02 -0.47200632049E+02  0.11128158471E+04  0.11217182177E+04  0.12508556644E+03 0.  0.
         23    2    1    2    0    0 -0.44926070065E+02  0.47200632049E+02  0.39067276010E+03  0.40652603499E+03  0.91607642717E+02 0.  0.
          5    1    3    3  502    0  0.25618103828E+02  0.31615873729E+02  0.68714867871E+03  0.68836518634E+03  0.41800000000E+01 0.  1.
         -5    1    3    3    0  502  0.19307966237E+02 -0.78816505778E+02  0.42566716839E+03  0.43335303136E+03  0.41800000000E+01 0.  1.
        -11    1    4    4    0    0  0.26351756942E+02  0.87253330588E+01  0.60521230846E+02  0.66583525846E+02  0.00000000000E+00 0.  1.
         11    1    4    4    0    0 -0.71277827007E+02  0.38475298990E+02  0.33015152925E+03  0.33994250914E+03  0.00000000000E+00 0. -1.
</event>
<event>
 8    1  0.7192024E-009  0.8942825E+02  0.7561462E-02  0.1304242E+00
          2   -1    0    0  501    0  0.00000000000E+00  0.00000000000E+00  0.27327692684E+03  0.27327692684E+03  0.00000000000E+00 0.  1.
         -2   -1    0    0    0  501 -0.00000000000E+00 -0.00000000000E+00 -0.52692043375E+02  0.52692043375E+02  0.00000000000E+00 0. -1.
         25    2    1    2    0    0 -0.21561122796E+02 -0.38560223204E+02  0.88616827270E+02  0.15953695725E+03  0.12508927142E+03 0.  0.
         23    2    1    2    0    0  0.21561122796E+02  0.38560223204E+02  0.13196805620E+03  0.16643201297E+03  0.91281291920E+02 0.  0.
          5    1    3    3  502    0  0.25089181107E+02 -0.22667686435E+02  0.10262408834E+03  0.10813171100E+03  0.41800000000E+01 0.  1.
         -5    1    3    3    0  502 -0.46650303903E+02 -0.15892536769E+02 -0.14007261068E+02  0.51405246248E+02  0.41800000000E+01 0.  1.
        -11    1    4    4    0    0 -0.18191192395E+02  0.50616486377E+02  0.10165552971E+03  0.11500780362E+03  0.00000000000E+00 0.  1.
         11    1    4    4    0    0  0.39752315192E+02 -0.12056263173E+02  0.30312526494E+02  0.51424209350E+02  0.00000000000E+00 0. -1.
</event>
<event>
 8    1  0.7192024E-009  0.1042181E+03  0.7561462E-02  0.1271668E+00
          2   -1    0    0  501    0  0.00000000000E+00  0.00000000000E+00  0.82899733879E+03  0.82899733879E+03  0.00000000000E+00 0.  1.
         -2   -1    0    0    0  501 -0.00000000000E+00 -0.00000000000E+00 -0.23831857026E+02  0.23831857026E+02  0.00000000000E+00 0. -1.
         25    2    1    2    0    0 -0.47662813751E+02  0.72888348415E+02  0.37429689762E+03  0.40413588758E+03  0.12507275050E+03 0.  0.
         23    2    1    2    0    0  0.47662813751E+02 -0.72888348415E+02  0.43086858415E+03  0.44869330824E+03  0.89963842170E+02 0.  0.
          5    1    3    3  502    0 -0.28827565616E+01  0.20549687367E+02 -0.22783632611E+01  0.21289980635E+02  0.41800000000E+01 0. -1.
         -5    1    3    3    0  502 -0.44780057190E+02  0.52338661048E+02  0.37657526088E+03  0.38284590695E+03  0.41800000000E+01 0. -1.
        -11    1    4    4    0    0 -0.21493780084E+02 -0.66477419612E+01  0.36602978452E+02  0.42964556172E+02  0.00000000000E+00 0. -1.
         11    1    4    4    0    0  0.69156593835E+02 -0.66240606453E+02  0.39426560570E+03  0.40572875206E+03  0.00000000000E+00 0.  1.
</event>
<event>
 8    1  0.7192024E-009  0.1179393E+03  0.7561462E-02  0.1246536E+00
         -1   -1    0    0    0  501 -0.00000000000E+00  0.00000000000E+00  0.75843198424E+02  0.75843198424E+02  0.00000000000E+00 0.  1.
          1   -1    0    0  501    0  0.00000000000E+00 -0.00000000000E+00 -0.23242798114E+03  0.23242798114E+03  0.00000000000E+00 0. -1.
         25    2    1    2    0    0 -0.31998963604E+02  0.68139763685E+02 -0.67041285494E+02  0.16065242830E+03  0.12509079779E+03 0.  0.
         23    2    1    2    0    0  0.31998963604E+02 -0.68139763685E+02 -0.89543497218E+02  0.14761875126E+03  0.90034975220E+02 0.  0.
          5    1    3    3  502    0  0.19274732989E+02 -0.14128787630E+02  0.19119917609E+02  0.30889830383E+02  0.41800000000E+01 0.  1.
         -5    1    3    3    0  502 -0.51273696593E+02  0.82268551315E+02 -0.86161203103E+02  0.12976259792E+03  0.41800000000E+01 0.  1.
        -11    1    4    4    0    0  0.45603778624E+02 -0.82837425023E+02 -0.60218174654E+02  0.11210696753E+03  0.00000000000E+00 0.  1.
         11    1    4    4    0    0 -0.13604815020E+02  0.14697661337E+02 -0.29325322565E+02  0.35511783735E+02  0.00000000000E+00 0. -1.
</event>
<event>
 8    1  0.7192024E-009  0.1183386E+03  0.7561462E-02  0.1245863E+00
         -2   -1    0    0    0  501 -0.00000000000E+00  0.00000000000E+00  0.36278147873E+02  0.36278147873E+02  0.00000000000E+00 0.  1.
          2   -1    0    0  501    0  0.00000000000E+00 -0.00000000000E+00 -0.80069829424E+03  0.80069829424E+03  0.00000000000E+00 0. -1.
         25    2    1    2    0    0  0.68686064108E+02 -0.68879387350E+02 -0.62261039284E+03  0.64245884188E+03  0.12509003494E+03 0.  0.
         23    2    1    2    0    0 -0.68686064108E+02  0.68879387350E+02 -0.14180975353E+03  0.19451760023E+03  0.90911744009E+02 0.  0.
          5    1    3    3  502    0 -0.11444351654E+02 -0.15666661615E+02 -0.39271670053E+03  0.39321787440E+03  0.41800000000E+01 0.  1.
         -5    1    3    3    0  502  0.80130415762E+02 -0.53212725734E+02 -0.22989369230E+03  0.24924096748E+03  0.41800000000E+01 0.  1.
        -11    1    4    4    0    0 -0.58295335336E+02  0.83973750896E+02 -0.14341908046E+03  0.17612203043E+03  0.00000000000E+00 0. -1.
         11    1    4    4    0    0 -0.10390728772E+02 -0.15094363546E+02  0.16093269289E+01  0.18395569805E+02  0.00000000000E+00 0.  1.
</event>
<event>
 8    1  0.7192024E-009  0.1437038E+03  0.7561462E-02  0.1208430E+00
          1   -1    0    0  501    0  0.00000000000E+00  0.00000000000E+00  0.80481737049E+03  0.80481737049E+03  0.00000000000E+00 0. -1.
         -1   -1    0    0    0  501 -0.00000000000E+00 -0.00000000000E+00 -0.29590611044E+02  0.29590611044E+02  0.00000000000E+00 0.  1.
         25    2    1    2    0    0  0.97299790794E+02 -0.35859680428E+02  0.49803143960E+03  0.52386400124E+03  0.12508001838E+03 0.  0.
         23    2    1    2    0    0 -0.97299790794E+02  0.35859680428E+02  0.27719531985E+03  0.31054398030E+03  0.94059302477E+02 0.  0.
          5    1    3    3  502    0  0.61357043442E+02  0.37910934537E+02  0.15322859660E+03  0.16940602396E+03  0.41800000000E+01 0.  1.
         -5    1    3    3    0  502  0.35942747353E+02 -0.73770614964E+02  0.34480284300E+03  0.35445797728E+03  0.41800000000E+01 0.  1.
        -11    1    4    4    0    0 -0.11205094476E+03  0.37484393501E+02  0.20302427211E+03  0.23490285022E+03  0.00000000000E+00 0.  1.
         11    1    4    4    0    0  0.14751153963E+02 -0.16247130731E+01  0.74171047747E+02  0.75641130080E+02  0.00000000000E+00 0. -1.
</event>
<event>
 8    1  0.7192024E-009  0.1014512E+03  0.7561462E-02  0.1277274E+00
          1   -1    0    0  501    0  0.00000000000E+00  0.00000000000E+00  0.20830320014E+03  0.20830320014E+03  0.00000000000E+00 0. -1.
         -1   -1    0    0    0  501 -0.00000000000E+00 -0.00000000000E+00 -0.58012467576E+02  0.58012467576E+02  0.00000000000E+00 0.  1.
         25    2    1    2    0    0 -0.54638781428E+01  0.18312490648E+02  0.10087319121E+03  0.16182276648E+03  0.12508399485E+03 0.  0.
         23    2    1    2    0    0  0.54638781428E+01 -0.18312490648E+02  0.49417541347E+02  0.10449290124E+03  0.90063709327E+02 0.  0.
          5    1    3    3  502    0 -0.12303889979E+02  0.66018566792E+02  0.24877838181E+02  0.71737131964E+02  0.41800000000E+01 0.  1.
         -5    1    3    3    0  502  0.68400118360E+01 -0.47706076144E+02  0.75995353032E+02  0.90085634512E+02  0.41800000000E+01 0.  1.
        -11    1    4    4    0    0 -0.14380322487E+02  0.30952950010E+02  0.35460102468E+01  0.34314034706E+02  0.00000000000E+00 0.  1.
         11    1    4    4    0    0  0.19844200630E+02 -0.49265440658E+02  0.45871531100E+02  0.70178866529E+02  0.00000000000E+00 0. -1.
</event>
<event>
 8    1  0.7192024E-009  0.1473248E+03  0.7561462E-02  0.1203799E+00
         -2   -1    0    0    0  501 -0.00000000000E+00  0.00000000000E+00  0.50107873539E+02  0.50107873539E+02  0.00000000000E+00 0.  1.
          2   -1    0    0  501    0  0.00000000000E+00 -0.00000000000E+00 -0.65592633265E+03  0.65592633265E+03  0.00000000000E+00 0. -1.
         25    2    1    2    0    0 -0.78432740522E+02  0.94614350984E+02 -0.46665331918E+03  0.49851432888E+03  0.12509054958E+03 0.  0.
         23    2    1    2    0    0  0.78432740522E+02 -0.94614350984E+02 -0.13916513994E+03  0.20751987732E+03  0.92703792324E+02 0.  0.
          5    1    3    3  502    0 -0.10226105797E+03  0.82113110568E+02 -0.44433896397E+03  0.46330818491E+03  0.41800000000E+01 0. -1.
         -5    1    3    3    0  502  0.23828317447E+02  0.12501240416E+02 -0.22314355210E+02  0.35206143963E+02  0.41800000000E+01 0. -1.
        -11    1    4    4    0    0  0.31816448779E+02 -0.12413510796E+01 -0.83229463140E+02  0.89112125438E+02  0.00000000000E+00 0. -1.
         11    1    4    4    0    0  0.46616291743E+02 -0.93372999904E+02 -0.55935676795E+02  0.11840775188E+03  0.00000000000E+00 0.  1.
</event>
<event>
 8    1  0.7192024E-009  0.7773671E+02  0.7561462E-02  0.1335600E+00
          4   -1    0    0  501    0  0.00000000000E+00  0.00000000000E+00  0.14718464073E+03  0.14718464073E+03  0.00000000000E+00 0. -1.
         -4   -1    0    0    0  501 -0.00000000000E+00 -0.00000000000E+00 -0.11558883743E+03  0.11558883743E+03  0.00000000000E+00 0.  1.
         25    2    1    2    0    0 -0.10980893695E+02 -0.66970310724E+02  0.41713152631E+02  0.14830158961E+03  0.12509105417E+03 0.  0.
         23    2    1    2    0    0  0.10980893695E+02  0.66970310724E+02 -0.10117349330E+02  0.11447188855E+03  0.91628870812E+02 0.  0.
          5    1    3    3  502    0  0.21036557029E+02 -0.22816244396E+02  0.77056406012E+02  0.83176197601E+02  0.41800000000E+01 0.  1.
         -5    1    3    3    0  502 -0.32017450725E+02 -0.44154066329E+02 -0.35343253380E+02  0.65125392005E+02  0.41800000000E+01 0.  1.
        -11    1    4    4    0    0  0.12617029310E+02  0.31255246329E+02 -0.50387055079E+02  0.60621243563E+02  0.00000000000E+00 0.  1.
         11    1    4    4    0    0 -0.16361356143E+01  0.35715064396E+02  0.40269705749E+02  0.53850644988E+02  0.00000000000E+00 0. -1.
</event>
<event>
 8    1  0.7192024E-009  0.1266171E+03  0.7561462E-02  0.1232563E+00
         -3   -1    0    0    0  501 -0.00000000000E+00  0.00000000000E+00  0.32821702402E+03  0.32821702402E+03  0.00000000000E+00 0.  1.
          3   -1    0    0  501    0  0.00000000000E+00 -0.00000000000E+00 -0.50487852718E+02  0.50487852718E+02  0.00000000000E+00 0. -1.
         25    2    1    2    0    0 -0.11182011183E+02 -0.67006877255E+02  0.17354387600E+03  0.22446001831E+03  0.12509941626E+03 0.  0.
         23    2    1    2    0    0  0.11182011183E+02  0.67006877255E+02  0.10418529531E+03  0.15424485843E+03  0.91224676605E+02 0.  0.
          5    1    3    3  502    0  0.95910784041E+01  0.35143826847E+02  0.32303321263E+02  0.48867722629E+02  0.41800000000E+01 0.  1.
         -5    1    3    3    0  502 -0.20773089587E+02 -0.10215070410E+03  0.14124055473E+03  0.17559229568E+03  0.41800000000E+01 0.  1.
        -11    1    4    4    0    0 -0.33828167636E+02  0.56764795451E+02  0.73384504186E+02  0.98751569015E+02  0.00000000000E+00 0. -1.
         11    1    4    4    0    0  0.45010178819E+02  0.10242081804E+02  0.30800791121E+02  0.55493289420E+02  0.00000000000E+00 0.  1.
</event>
<event>
 8    1  0.7192024E-009  0.1164473E+03  0.7561462E-02  0.1249076E+00
          1   -1    0    0  501    0  0.00000000000E+00  0.00000000000E+00  0.19081674505E+02  0.19081674505E+02  0.00000000000E+00 0. -1.
         -1   -1    0    0    0  501 -0.00000000000E+00 -0.00000000000E+00 -0.99771777470E+03  0.99771777470E+03  0.00000000000E+00 0.  1.
         25    2    1    2    0    0  0.64503256517E+01 -0.83619607089E+02 -0.63491464934E+03  0.65253151835E+03  0.12508766966E+03 0.  0.
         23    2    1    2    0    0 -0.64503256517E+01  0.83619607089E+02 -0.34372145085E+03  0.36426793085E+03  0.86676665155E+02 0.  0.
          5    1    3    3  502    0  0.52341874389E+02  0.10104717977E+01 -0.17904614767E+03  0.18658962528E+03  0.41800000000E+01 0. -1.
         -5    1    3    3    0  502 -0.45891548738E+02 -0.84630078887E+02 -0.45586850168E+03  0.46594189307E+03  0.41800000000E+01 0. -1.
        -11    1    4    4    0    0 -0.34177960780E+01  0.17856607523E+02 -0.45161539762E+01  0.18733270109E+02  0.00000000000E+00 0. -1.
         11    1    4    4    0    0 -0.30325295737E+01  0.65762999566E+02 -0.33920529688E+03  0.34553466075E+03  0.00000000000E+00 0.  1.
</event>
<event>
 8    1  0.7192024E-009  0.1063313E+03  0.7561462E-02  0.1267519E+00
         -1   -1    0    0    0  501 -0.00000000000E+00  0.00000000000E+00  0.23198371662E+02  0.23198371662E+02  0.00000000000E+00 0.  1.
          1   -1    0    0  501    0  0.00000000000E+00 -0.00000000000E+00 -0.58098764315E+03  0.58098764315E+03  0.00000000000E+00 0. -1.
         25    2    1    2    0    0  0.31874776342E+02 -0.21849949915E+02 -0.34962460557E+03  0.37333380495E+03  0.12508934177E+03 0.  0.
         23    2    1    2    0    0 -0.31874776342E+02  0.21849949915E+02 -0.20816466592E+03  0.23085220986E+03  0.92015177992E+02 0.  0.
          5    1    3    3  502    0  0.52958973664E+02  0.38902350496E+02 -0.19504283733E+03  0.20585729659E+03  0.41800000000E+01 0. -1.
         -5    1    3    3    0  502 -0.21084197322E+02 -0.60752300410E+02 -0.15458176824E+03  0.16747650836E+03  0.41800000000E+01 0. -1.
        -11    1    4    4    0    0  0.22780267414E+01  0.42436566921E+02 -0.41195905152E+02  0.59187449845E+02  0.00000000000E+00 0.  1.
         11    1    4    4    0    0 -0.34152803084E+02 -0.20586617006E+02 -0.16696876077E+03  0.17166476002E+03  0.00000000000E+00 0. -1.
</event>
<event>
 8    1  0.7192024E-009  0.2239122E+03  0.7561462E-02  0.1131000E+00
         -1   -1    0    0    0  501 -0.00000000000E+00  0.00000000000E+00  0.32700178176E+03  0.32700178176E+03  0.00000000000E+00 0.  1.
          1   -1    0    0  501    0  0.00000000000E+00 -0.00000000000E+00 -0.23221871627E+03  0.23221871627E+03  0.00000000000E+00 0. -1.
         25    2    1    2    0    0 -0.19129015107E+03 -0.46824961792E+02  0.20978353245E+03  0.31375308362E+03  0.12508944021E+03 0.  0.
         23    2    1    2    0    0  0.19129015107E+03  0.46824961792E+02 -0.11500046696E+03  0.24546741442E+03  0.90800028618E+02 0.  0.
          5    1    3    3  502    0 -0.17281587353E+02 -0.55283301235E+02  0.65263289134E+02  0.87359406852E+02  0.41800000000E+01 0. -1.
         -5    1    3    3    0  502 -0.17400856371E+03  0.84583394437E+01  0.14452024332E+03  0.22639367677E+03  0.41800000000E+01 0. -1.
        -11    1    4    4    0    0  0.11240065388E+03  0.71036896518E+02 -0.84206512005E+02  0.15738768797E+03  0.00000000000E+00 0. -1.
         11    1    4    4    0    0  0.78889497185E+02 -0.24211934726E+02 -0.30793954954E+02  0.88079726447E+02  0.00000000000E+00 0.  1.
</event>
<event>
 8    1  0.7192024E-009  0.1239109E+03  0.7561462E-02  0.1236781E+00
         -2   -1    0    0    0  501 -0.00000000000E+00  0.00000000000E+00  0.15980570866E+02  0.15980570866E+02  0.00000000000E+00 0. -1.
          2   -1    0    0  501    0  0.00000000000E+00 -0.00000000000E+00 -0.10335799793E+04  0.10335799793E+04  0.00000000000E+00 0.  1.
         25    2    1    2    0    0 -0.41908989913E+02 -0.55268454956E+02 -0.58854731362E+03  0.60567828829E+03  0.12508910017E+03 0.  0.
         23    2    1    2    0    0  0.41908989913E+02  0.55268454956E+02 -0.42905209479E+03  0.44388226185E+03  0.90193108380E+02 0.  0.
          5    1    3    3  502    0 -0.71118289418E+02 -0.72371601537E+02 -0.51052773127E+03  0.52053001507E+03  0.41800000000E+01 0. -1.
         -5    1    3    3    0  502  0.29209299505E+02  0.17103146581E+02 -0.78019582357E+02  0.85148273216E+02  0.41800000000E+01 0. -1.
        -11    1    4    4    0    0  0.62698002034E+02  0.11548147949E+02 -0.27996850754E+03  0.28713544607E+03  0.00000000000E+00 0.  1.
         11    1    4    4    0    0 -0.20789012121E+02  0.43720307008E+02 -0.14908358725E+03  0.15674681578E+03  0.00000000000E+00 0. -1.
</event>
<event>
 8    1  0.7192024E-009  0.1170980E+03  0.7561462E-02  0.1247963E+00
          4   -1    0    0  501    0  0.00000000000E+00  0.00000000000E+00  0.28240115024E+03  0.28240115024E+03  0.00000000000E+00 0.  1.
         -4   -1    0    0    0  501 -0.00000000000E+00 -0.00000000000E+00 -0.85694988418E+02  0.85694988418E+02  0.00000000000E+00 0. -1.
         25    2    1    2    0    0 -0.36236806062E+02 -0.87091842087E+02  0.17631793601E+03  0.23586961252E+03  0.12509342301E+03 0.  0.
         23    2    1    2    0    0  0.36236806062E+02  0.87091842087E+02  0.20388225812E+02  0.13222652614E+03  0.90388491470E+02 0.  0.
          5    1    3    3  502    0 -0.42526514549E+02 -0.45893202161E+02  0.18300848299E+03  0.19345352850E+03  0.41800000000E+01 0.  1.
         -5    1    3    3    0  502  0.62897084862E+01 -0.41198639926E+02 -0.66905469807E+01  0.42416084019E+02  0.41800000000E+01 0.  1.
        -11    1    4    4    0    0  0.44532343435E+02  0.10269380331E+03  0.23258871388E+02  0.11432463404E+03  0.00000000000E+00 0.  1.
         11    1    4    4    0    0 -0.82955373726E+01 -0.15601961227E+02 -0.28706455755E+01  0.17901892092E+02  0.00000000000E+00 0. -1.
</event>
<event>
 8    1  0.7192024E-009  0.7002948E+02  0.7561462E-02  0.1359993E+00
          1   -1    0    0  501    0  0.00000000000E+00  0.00000000000E+00  0.90304622357E+03  0.90304622357E+03  0.00000000000E+00 0. -1.
         -1   -1    0    0    0  501 -0.00000000000E+00 -0.00000000000E+00 -0.13985012039E+02  0.13985012039E+02  0.00000000000E+00 0.  1.
         25    2    1    2    0    0  0.18994948505E+02 -0.13268086118E+01  0.60487190537E+03  0.61796404318E+03  0.12508784217E+03 0.  0.
         23    2    1    2    0    0 -0.18994948505E+02  0.13268086118E+01  0.28418930615E+03  0.29906719243E+03  0.91186925412E+02 0.  0.
          5    1    3    3  502    0  0.11727423962E+02 -0.25651477526E+02  0.58437106260E+03  0.58506627144E+03  0.41800000000E+01 0. -1.
         -5    1    3    3    0  502  0.72675245431E+01  0.24324668915E+02  0.20500842774E+02  0.32897771737E+02  0.41800000000E+01 0. -1.
        -11    1    4    4    0    0 -0.12496571043E+01  0.41698524964E+02  0.80597543671E+02  0.90754022902E+02  0.00000000000E+00 0.  1.
         11    1    4    4    0    0 -0.17745291401E+02 -0.40371716352E+02  0.20359176248E+03  0.20831316953E+03  0.00000000000E+00 0. -1.
</event>
<event>
 8    1  0.7192024E-009  0.1012069E+03  0.7561462E-02  0.1277778E+00
         -2   -1    0    0    0  501 -0.00000000000E+00  0.00000000000E+00  0.13367467679E+03  0.13367467679E+03  0.00000000000E+00 0.  1.
          2   -1    0    0  501    0  0.00000000000E+00 -0.00000000000E+00 -0.11907871063E+03  0.11907871063E+03  0.00000000000E+00 0. -1.
         25    2    1    2    0    0 -0.63168310291E+02  0.85721561659E-01  0.19652038388E+02  0.14150308033E+03  0.12508667538E+03 0.  0.
         23    2    1    2    0    0  0.63168310291E+02 -0.85721561659E-01 -0.50560722283E+01  0.11125030709E+03  0.91437542555E+02 0.  0.
          5    1    3    3  502    0 -0.16051067224E+02  0.55982585455E+02 -0.15306270951E+02  0.60360922489E+02  0.41800000000E+01 0.  1.
         -5    1    3    3    0  502 -0.47117243067E+02 -0.55896863894E+02  0.34958309339E+02  0.81142157842E+02  0.41800000000E+01 0.  1.
        -11    1    4    4    0    0  0.27517152309E+02  0.15843615258E+02  0.40361643421E+02  0.51354416317E+02  0.00000000000E+00 0.  1.
         11    1    4    4    0    0  0.35651157982E+02 -0.15929336819E+02 -0.45417715649E+02  0.59895890775E+02  0.00000000000E+00 0. -1.
</event>
<event>
 8    1  0.7192024E-009  0.1528177E+03  0.7561462E-02  0.1197053E+00
          3   -1    0    0  501    0  0.00000000000E+00  0.00000000000E+00  0.11592965700E+03  0.11592965700E+03  0.00000000000E+00 0. -1.
         -3   -1    0    0    0  501 -0.00000000000E+00 -0.00000000000E+00 -0.27370699980E+03  0.27370699980E+03  0.00000000000E+00 0.  1.
         25    2    1    2    0    0 -0.13274875446E+03  0.38702965380E+02 -0.51167017663E+02  0.19335523548E+03  0.12509209428E+03 0.  0.
         23    2    1    2    0    0  0.13274875446E+03 -0.38702965380E+02 -0.10661032514E+03  0.19628142133E+03  0.89668743680E+02 0.  0.
          5    1    3    3  502    0 -0.71654709519E+02 -0.10882976465E+01 -0.86350977832E+02  0.11229223286E+03  0.41800000000E+01 0.  1.
         -5    1    3    3    0  502 -0.61094044940E+02  0.39791263026E+02  0.35183960169E+02  0.81063002618E+02  0.41800000000E+01 0.  1.
        -11    1    4    4    0    0  0.67275515766E+02 -0.61840803550E+02 -0.81486136502E+02  0.12243475996E+03  0.00000000000E+00 0.  1.
         11    1    4    4    0    0  0.65473238693E+02  0.23137838170E+02 -0.25124188634E+02  0.73846661364E+02  0.00000000000E+00 0. -1.
</event>
<event>
 8    1  0.7192024E-009  0.1478680E+03  0.7561462E-02  0.1203118E+00
         -2   -1    0    0    0  501 -0.00000000000E+00  0.00000000000E+00  0.32274429934E+02  0.32274429934E+02  0.00000000000E+00 0.  1.
          2   -1    0    0  501    0  0.00000000000E+00 -0.00000000000E+00 -0.79389610623E+03  0.79389610623E+03  0.00000000000E+00 0. -1.
         25    2    1    2    0    0  0.42502085907E+02 -0.99948288984E+02 -0.29179099955E+03  0.33553755941E+03  0.12508948230E+03 0.  0.
         23    2    1    2    0    0 -0.42502085907E+02  0.99948288984E+02 -0.46983067674E+03  0.49063297675E+03  0.90464165757E+02 0.  0.
          5    1    3    3  502    0 -0.22477546179E+02  0.12407163675E+02 -0.15576557403E+02  0.30319619608E+02  0.41800000000E+01 0.  1.
         -5    1    3    3    0  502  0.64979632086E+02 -0.11235545266E+03 -0.27621444215E+03  0.30521793981E+03  0.41800000000E+01 0.  1.
        -11    1    4    4    0    0 -0.44974462765E+02  0.54163975889E+01 -0.12064288996E+03  0.12886716634E+03  0.00000000000E+00 0.  1.
         11    1    4    4    0    0  0.24723768573E+01  0.94531891395E+02 -0.34918778679E+03  0.36176581041E+03  0.00000000000E+00 0. -1.
</event>
<event>
 8    1  0.7192024E-009  0.1169428E+03  0.7561462E-02  0.1248227E+00
         -2   -1    0    0    0  501 -0.00000000000E+00  0.00000000000E+00  0.68707371623E+03  0.68707371623E+03  0.00000000000E+00 0.  1.
          2   -1    0    0  501    0  0.00000000000E+00 -0.00000000000E+00 -0.47128714862E+02  0.47128714862E+02  0.00000000000E+00 0. -1.
         25    2    1    2    0    0 -0.29812631062E+02  0.75102093602E+02  0.57983216711E+03  0.59864889684E+03  0.12508414064E+03 0.  0.
         23    2    1    2    0    0  0.29812631062E+02 -0.75102093602E+02  0.60112834261E+02  0.13555353425E+03  0.90730867798E+02 0.  0.
          5    1    3    3  502    0  0.17465881134E+01  0.91746254363E+02  0.52580743689E+03  0.53377088610E+03  0.41800000000E+01 0.  1.
         -5    1    3    3    0  502 -0.31559219175E+02 -0.16644160761E+02  0.54024730219E+02  0.64878010741E+02  0.41800000000E+01 0.  1.
        -11    1    4    4    0    0  0.47153688715E+02 -0.25604472832E+02  0.63333732242E+02  0.83007355265E+02  0.00000000000E+00 0.  1.
         11    1    4    4    0    0 -0.17341057653E+02 -0.49497620770E+02 -0.32208979814E+01  0.52546178988E+02  0.00000000000E+00 0. -1.
</event>
<event>
 8    1  0.7192024E-009  0.1164134E+03  0.7561462E-02  0.1249134E+00
          1   -1    0    0  501    0  0.00000000000E+00  0.00000000000E+00  0.10597682765E+04  0.10597682765E+04  0.00000000000E+00 0. -1.
         -1   -1    0    0    0  501 -0.00000000000E+00 -0.00000000000E+00 -0.12818491269E+02  0.12818491269E+02  0.00000000000E+00 0.  1.
         25    2    1    2    0    0 -0.42704931144E+02 -0.52734111036E+01  0.58510092092E+03  0.59986845667E+03  0.12509019804E+03 0.  0.
         23    2    1    2    0    0  0.42704931144E+02  0.52734111036E+01  0.46184886430E+03  0.47271831108E+03  0.91141144204E+02 0.  0.
          5    1    3    3  502    0 -0.52843631435E+02 -0.57814021715E+02  0.33213667946E+03  0.34127284793E+03  0.41800000000E+01 0. -1.
         -5    1    3    3    0  502  0.10138700292E+02  0.52540610611E+02  0.25296424145E+03  0.25859560874E+03  0.41800000000E+01 0. -1.
        -11    1    4    4    0    0  0.57993541214E+02  0.34681065082E+02  0.31810072673E+03  0.32519855388E+03  0.00000000000E+00 0.  1.
         11    1    4    4    0    0 -0.15288610071E+02 -0.29407653978E+02  0.14374813757E+03  0.14751975720E+03  0.00000000000E+00 0. -1.
</event>
<event>
 8    1  0.7192024E-009  0.2245701E+03  0.7561462E-02  0.1130521E+00
         -1   -1    0    0    0  501 -0.00000000000E+00  0.00000000000E+00  0.23095542666E+03  0.23095542666E+03  0.00000000000E+00 0.  1.
          1   -1    0    0  501    0  0.00000000000E+00 -0.00000000000E+00 -0.23600221613E+03  0.23600221613E+03  0.00000000000E+00 0. -1.
         25    2    1    2    0    0  0.92537016833E+02 -0.18071900671E+03 -0.35639473089E+02  0.24112406876E+03  0.12509270811E+03 0.  0.
         23    2    1    2    0    0 -0.92537016833E+02  0.18071900671E+03  0.30592683611E+02  0.22583357403E+03  0.94034206545E+02 0.  0.
          5    1    3    3  502    0 -0.24664829391E+02 -0.27312838103E+01 -0.10700053465E+01  0.25187914395E+02  0.41800000000E+01 0.  1.
         -5    1    3    3    0  502  0.11720184622E+03 -0.17798772290E+03 -0.34569467743E+02  0.21593615436E+03  0.41800000000E+01 0.  1.
        -11    1    4    4    0    0 -0.79973430340E+02  0.94960365298E+02  0.55001695095E+02  0.13578809595E+03  0.00000000000E+00 0.  1.
         11    1    4    4    0    0 -0.12563586493E+02  0.85758641410E+02 -0.24409011484E+02  0.90045478086E+02  0.00000000000E+00 0. -1.
</event>
<event>
 8    1  0.7192024E-009  0.3102100E+03  0.7561462E-02  0.1080245E+00
          2   -1    0    0  501    0  0.00000000000E+00  0.00000000000E+00  0.93837873741E+03  0.93837873741E+03  0.00000000000E+00 0. -1.
         -2   -1    0    0    0  501 -0.00000000000E+00 -0.00000000000E+00 -0.11293373861E+03  0.11293373861E+03  0.00000000000E+00 0.  1.
         25    2    1    2    0    0  0.24963611610E+03  0.17132451548E+03  0.50122326964E+03  0.59878523923E+03  0.12509483055E+03 0.  0.
         23    2    1    2    0    0 -0.24963611610E+03 -0.17132451548E+03  0.32422172916E+03  0.45252723679E+03  0.89391779918E+02 0.  0.
          5    1    3    3  502    0  0.16702108685E+03  0.13897704243E+03  0.44050247866E+03  0.49119300471E+03  0.41800000000E+01 0. -1.
         -5    1    3    3    0  502  0.82615029255E+02  0.32347473050E+02  0.60720790973E+02  0.10759223452E+03  0.41800000000E+01 0. -1.
        -11    1    4    4    0    0 -0.14860948656E+03 -0.14975199611E+03  0.19705612363E+03  0.28868937579E+03  0.00000000000E+00 0.  1.
         11    1    4    4    0    0 -0.10102662954E+03 -0.21572519363E+02  0.12716560553E+03  0.16383786100E+03  0.00000000000E+00 0. -1.
</event>
<event>
 8    1  0.7192024E-009  0.6077222E+02  0.7561462E-02  0.1394619E+00
          2   -1    0    0  501    0  0.00000000000E+00  0.00000000000E+00  0.50594514113E+03  0.50594514113E+03  0.00000000000E+00 0. -1.
         -2   -1    0    0    0  501 -0.00000000000E+00 -0.00000000000E+00 -0.30700794418E+02  0.30700794418E+02  0.00000000000E+00 0.  1.
         25    2    1    2    0    0 -0.14048795770E+02  0.14714143375E+02  0.37634891799E+03  0.39711397262E+03  0.12508846668E+03 0.  0.
         23    2    1    2    0    0  0.14048795770E+02 -0.14714143375E+02  0.98895428721E+02  0.13953196293E+03  0.96306740052E+02 0.  0.
          5    1    3    3  502    0 -0.26048160564E+02  0.14012743440E+02  0.38201678586E+03  0.38318293377E+03  0.41800000000E+01 0. -1.
         -5    1    3    3    0  502  0.11999364794E+02  0.70139993451E+00 -0.56678678714E+01  0.13931038853E+02  0.41800000000E+01 0. -1.
        -11    1    4    4    0    0 -0.28686328410E+02 -0.21269816412E+02  0.87963575662E+02  0.94936300597E+02  0.00000000000E+00 0. -1.
         11    1    4    4    0    0  0.42735124180E+02  0.65556730368E+01  0.10931853059E+02  0.44595662333E+02  0.00000000000E+00 0.  1.
</event>
<event>
 8    1  0.7192024E-009  0.1080036E+03  0.7561462E-02  0.1264312E+00
         -1   -1    0    0    0  501 -0.00000000000E+00  0.00000000000E+00  0.20621562996E+03  0.20621562996E+03  0.00000000000E+00 0.  1.
          1   -1    0    0  501    0  0.00000000000E+00 -0.00000000000E+00 -0.84145812215E+02  0.84145812215E+02  0.00000000000E+00 0. -1.
         25    2    1    2    0    0  0.60867031449E+02  0.44471575482E+02  0.52695541979E+02  0.15526234817E+03  0.12508820916E+03 0.  0.
         23    2    1    2    0    0 -0.60867031449E+02 -0.44471575482E+02  0.69374275771E+02  0.13509909401E+03  0.88070758599E+02 0.  0.
          5    1    3    3  502    0  0.14816112243E+02 -0.17986887011E+02 -0.32330865034E+02  0.40072465861E+02  0.41800000000E+01 0. -1.
         -5    1    3    3    0  502  0.46050919207E+02  0.62458462494E+02  0.85026407013E+02  0.11518988231E+03  0.41800000000E+01 0. -1.
        -11    1    4    4    0    0 -0.43349629041E+02  0.20050320387E+02  0.39014662077E+02  0.61671302423E+02  0.00000000000E+00 0.  1.
         11    1    4    4    0    0 -0.17517402408E+02 -0.64521895869E+02  0.30359613694E+02  0.73427791587E+02  0.00000000000E+00 0. -1.
</event>
<event>
 8    1  0.7192024E-009  0.1093732E+03  0.7561462E-02  0.1261735E+00
          2   -1    0    0  501    0  0.00000000000E+00  0.00000000000E+00  0.15331850696E+03  0.15331850696E+03  0.00000000000E+00 0. -1.
         -2   -1    0    0    0  501 -0.00000000000E+00 -0.00000000000E+00 -0.97060241825E+02  0.97060241825E+02  0.00000000000E+00 0.  1.
         25    2    1    2    0    0 -0.16379228491E+02  0.21246008608E+02 -0.18586437947E+02  0.12927769135E+03  0.12509034254E+03 0.  0.
         23    2    1    2    0    0  0.16379228491E+02 -0.21246008608E+02  0.74844703078E+02  0.12110105743E+03  0.91345851161E+02 0.  0.
          5    1    3    3  502    0 -0.13360298669E+02 -0.51455981179E+02  0.25591991679E+01  0.53387615418E+02  0.41800000000E+01 0. -1.
         -5    1    3    3    0  502 -0.30189298218E+01  0.72701989787E+02 -0.21145637115E+02  0.75890075933E+02  0.41800000000E+01 0. -1.
        -11    1    4    4    0    0 -0.32197464611E+02  0.11233451322E+02  0.14363526090E+02  0.37002405837E+02  0.00000000000E+00 0.  1.
         11    1    4    4    0    0  0.48576693102E+02 -0.32479459930E+02  0.60481176988E+02  0.84098651594E+02  0.00000000000E+00 0. -1.
</event>
<event>
 8    1  0.7192024E-009  0.8674654E+02  0.7561462E-02  0.1310927E+00
          2   -1    0    0  501    0  0.00000000000E+00  0.00000000000E+00  0.52937832415E+02  0.52937832415E+02  0.00000000000E+00 0. -1.
         -2   -1    0    0    0  501 -0.00000000000E+00 -0.00000000000E+00 -0.21823320792E+03  0.21823320792E+03  0.00000000000E+00 0.  1.
         25    2    1    2    0    0  0.65345615966E+01  0.57106854579E+01 -0.93306812686E+02  0.15630934740E+03  0.12510450978E+03 0.  0.
         23    2    1    2    0    0 -0.65345615966E+01 -0.57106854579E+01 -0.71988562820E+02  0.11486169294E+03  0.89081664241E+02 0.  0.
          5    1    3    3  502    0 -0.59069870674E+02 -0.17489684711E+01 -0.43599121088E+02  0.73557217673E+02  0.41800000000E+01 0.  1.
         -5    1    3    3    0  502  0.65604432270E+02  0.74596539289E+01 -0.49707691598E+02  0.82752129726E+02  0.41800000000E+01 0.  1.
        -11    1    4    4    0    0 -0.26975387670E+02 -0.60549416071E+01  0.10728841246E+02  0.29655385552E+02  0.00000000000E+00 0. -1.
         11    1    4    4    0    0  0.20440826073E+02  0.34425614925E+00 -0.82717404065E+02  0.85206307385E+02  0.00000000000E+00 0.  1.
</event>
<event>
 8    1  0.7192024E-009  0.1185441E+03  0.7561462E-02  0.1245518E+00
          1   -1    0    0  501    0  0.00000000000E+00  0.00000000000E+00  0.55174658254E+02  0.55174658254E+02  0.00000000000E+00 0. -1.
         -1   -1    0    0    0  501 -0.00000000000E+00 -0.00000000000E+00 -0.30041475302E+03  0.30041475302E+03  0.00000000000E+00 0.  1.
         25    2    1    2    0    0  0.45583401823E+02  0.42135742236E+02 -0.18091248968E+03  0.22854078163E+03  0.12509313589E+03 0.  0.
         23    2    1    2    0    0 -0.45583401823E+02 -0.42135742236E+02 -0.64327605080E+02  0.12704862964E+03  0.90277606434E+02 0.  0.
          5    1    3    3  502    0 -0.21161943061E+02  0.64446162970E+02 -0.10369801936E+03  0.12398341573E+03  0.41800000000E+01 0. -1.
         -5    1    3    3    0  502  0.66745344884E+02 -0.22310420734E+02 -0.77214470322E+02  0.10455736590E+03  0.41800000000E+01 0. -1.
        -11    1    4    4    0    0 -0.20050500471E+02 -0.62710188197E+02 -0.14525807994E+02  0.67420986129E+02  0.00000000000E+00 0. -1.
         11    1    4    4    0    0 -0.25532901352E+02  0.20574445961E+02 -0.49801797087E+02  0.59627643515E+02  0.00000000000E+00 0.  1.
</event>
<event>
 8    1  0.7192024E-009  0.1201230E+03  0.7561462E-02  0.1242894E+00
          2   -1    0    0  501    0  0.00000000000E+00  0.00000000000E+00  0.44287020770E+03  0.44287020770E+03  0.00000000000E+00 0. -1.
         -2   -1    0    0    0  501 -0.00000000000E+00 -0.00000000000E+00 -0.36856621119E+02  0.36856621119E+02  0.00000000000E+00 0.  1.
         25    2    1    2    0    0 -0.60715415621E+02  0.22273144661E+02  0.18313507483E+03  0.23101733824E+03  0.12509236694E+03 0.  0.
         23    2    1    2    0    0  0.60715415621E+02 -0.22273144661E+02  0.22287851175E+03  0.24870949058E+03  0.89437827775E+02 0.  0.
          5    1    3    3  502    0 -0.73879042000E+02 -0.33811730589E+02  0.12438862933E+03  0.14863158977E+03  0.41800000000E+01 0.  1.
         -5    1    3    3    0  502  0.13163626379E+02  0.56084875250E+02  0.58746445503E+02  0.82385748467E+02  0.41800000000E+01 0.  1.
        -11    1    4    4    0    0  0.80123815639E+01  0.27496809384E+02  0.25162046248E+02  0.38123501360E+02  0.00000000000E+00 0.  1.
         11    1    4    4    0    0  0.52703034057E+02 -0.49769954044E+02  0.19771646550E+03  0.21058598922E+03  0.00000000000E+00 0. -1.
</event>
<event>
 8    1  0.7192024E-009  0.1018549E+03  0.7561462E-02  0.1276443E+00
          1   -1    0    0  501    0  0.00000000000E+00  0.00000000000E+00  0.87048972159E+02  0.87048972159E+02  0.00000000000E+00 0. -1.
         -1   -1    0    0    0  501 -0.00000000000E+00 -0.00000000000E+00 -0.20984609729E+03  0.20984609729E+03  0.00000000000E+00 0.  1.
         25    2    1    2    0    0  0.59699952231E+02 -0.47560188037E+02 -0.42195292714E+02  0.15249631330E+03  0.12509447254E+03 0.  0.
         23    2    1    2    0    0 -0.59699952231E+02  0.47560188037E+02 -0.80601832417E+02  0.14439875615E+03  0.92348739068E+02 0.  0.
          5    1    3    3  502    0  0.46814378344E+02 -0.52935164626E+02 -0.83046430589E+02  0.10912332339E+03  0.41800000000E+01 0.  1.
         -5    1    3    3    0  502  0.12885573888E+02  0.53749765896E+01  0.40851137875E+02  0.43372989907E+02  0.41800000000E+01 0.  1.
        -11    1    4    4    0    0  0.22950293258E+02 -0.76518426501E-01 -0.25190919532E+02  0.34077914293E+02  0.00000000000E+00 0.  1.
         11    1    4    4    0    0 -0.82650245490E+02  0.47636706463E+02 -0.55410912885E+02  0.11032084186E+03  0.00000000000E+00 0. -1.
</event>
<event>
 8    1  0.7192024E-009  0.1907096E+03  0.7561462E-02  0.1157823E+00
          1   -1    0    0  501    0  0.00000000000E+00  0.00000000000E+00  0.11664995592E+04  0.11664995592E+04  0.00000000000E+00 0. -1.
         -1   -1    0    0    0  501 -0.00000000000E+00 -0.00000000000E+00 -0.49627728664E+02  0.49627728664E+02  0.00000000000E+00 0.  1.
         25    2    1    2    0    0 -0.98863589655E+02  0.13106620901E+03  0.22401404913E+03  0.30459641892E+03  0.12507727094E+03 0.  0.
         23    2    1    2    0    0  0.98863589655E+02 -0.13106620901E+03  0.89285778143E+03  0.91153086897E+03  0.82104486648E+02 0.  0.
          5    1    3    3  502    0 -0.23691846694E+02  0.12873415730E+03  0.14681638150E+03  0.19673919063E+03  0.41800000000E+01 0.  1.
         -5    1    3    3    0  502 -0.75171742961E+02  0.23320517098E+01  0.77197667633E+02  0.10785722828E+03  0.41800000000E+01 0.  1.
        -11    1    4    4    0    0  0.34339742846E+01 -0.49428835371E+02  0.14575412741E+03  0.15394566444E+03  0.00000000000E+00 0.  1.
         11    1    4    4    0    0  0.95429615370E+02 -0.81637373637E+02  0.74710365402E+03  0.75758520453E+03  0.00000000000E+00 0. -1.
</event>
<event>
 8    1  0.7192024E-009  0.1379330E+03  0.7561462E-02  0.1216138E+00
         -2   -1    0    0    0  501 -0.00000000000E+00  0.00000000000E+00  0.81947057115E+02  0.81947057115E+02  0.00000000000E+00 0.  1.
          2   -1    0    0  501    0  0.00000000000E+00 -0.00000000000E+00 -0.32849020697E+03  0.32849020697E+03  0.00000000000E+00 0. -1.
         25    2    1    2    0    0  0.45674935826E+02 -0.10776876162E+03 -0.17405289432E+03  0.24422075265E+03  0.12509620401E+03 0.  0.
         23    2    1    2    0    0 -0.45674935826E+02  0.10776876162E+03 -0.72490255528E+02  0.16621651143E+03  0.93127792753E+02 0.  0.
          5    1    3    3  502    0  0.26643183091E+02 -0.12885476407E+02 -0.13746604715E+03  0.14067793439E+03  0.41800000000E+01 0.  1.
         -5    1    3    3    0  502  0.19031752735E+02 -0.94883285213E+02 -0.36586847176E+02  0.10354281825E+03  0.41800000000E+01 0.  1.
        -11    1    4    4    0    0  0.27615068701E+02  0.16915466694E+02 -0.10473958787E+02  0.34035699575E+02  0.00000000000E+00 0.  1.
         11    1    4    4    0    0 -0.73290004528E+02  0.90853294926E+02 -0.62016296741E+02  0.13218081186E+03  0.00000000000E+00 0. -1.
</event>
<event>
 8    1  0.7192024E-009  0.8508295E+02  0.7561462E-02  0.1315216E+00
          3   -1    0    0  501    0  0.00000000000E+00  0.00000000000E+00  0.60003679727E+02  0.60003679727E+02  0.00000000000E+00 0. -1.
         -3   -1    0    0    0  501 -0.00000000000E+00 -0.00000000000E+00 -0.22003802414E+03  0.22003802414E+03  0.00000000000E+00 0.  1.
         25    2    1    2    0    0 -0.18756054210E+02  0.22812829221E+02 -0.59344237706E+02  0.14156387467E+03  0.12508548003E+03 0.  0.
         23    2    1    2    0    0  0.18756054210E+02 -0.22812829221E+02 -0.10069010671E+03  0.13847782920E+03  0.90362585423E+02 0.  0.
          5    1    3    3  502    0 -0.40771905525E+02  0.59575210744E+02 -0.66115085241E+02  0.97980768070E+02  0.41800000000E+01 0. -1.
         -5    1    3    3    0  502  0.22015851315E+02 -0.36762381523E+02  0.67708475345E+01  0.43583106598E+02  0.41800000000E+01 0. -1.
        -11    1    4    4    0    0  0.11775629693E+02 -0.37086348075E+02 -0.11226679369E+03  0.11881875118E+03  0.00000000000E+00 0.  1.
         11    1    4    4    0    0  0.69804245163E+01  0.14273518854E+02  0.11576686981E+02  0.19659078014E+02  0.00000000000E+00 0. -1.
</event>
<event>
 8    1  0.7192024E-009  0.1572830E+03  0.7561462E-02  0.1191799E+00
         -2   -1    0    0    0  501 -0.00000000000E+00  0.00000000000E+00  0.32095602684E+02  0.32095602684E+02  0.00000000000E+00 0.  1.
          2   -1    0    0  501    0  0.00000000000E+00 -0.00000000000E+00 -0.80554825271E+03  0.80554825271E+03  0.00000000000E+00 0. -1.
         25    2    1    2    0    0  0.62921831651E+02 -0.99764077723E+02 -0.39486462873E+03  0.43067024737E+03  0.12508700507E+03 0.  0.
         23    2    1    2    0    0 -0.62921831651E+02  0.99764077723E+02 -0.37858802129E+03  0.40697360803E+03  0.91578379893E+02 0.  0.
          5    1    3    3  502    0  0.77546365647E+01 -0.11433555147E+03 -0.26779253057E+03  0.29131265772E+03  0.41800000000E+01 0. -1.
         -5    1    3    3    0  502  0.55167195087E+02  0.14571473743E+02 -0.12707209816E+03  0.13935758965E+03  0.41800000000E+01 0. -1.
        -11    1    4    4    0    0 -0.13616788366E+01  0.77050954020E+02 -0.14329638735E+03  0.16270389765E+03  0.00000000000E+00 0.  1.
         11    1    4    4    0    0 -0.61560152815E+02  0.22713123704E+02 -0.23529163394E+03  0.24426971037E+03  0.00000000000E+00 0. -1.
</event>
<event>
 8    1  0.7192024E-009  0.2693912E+03  0.7561462E-02  0.1101629E+00
         -2   -1    0    0    0  501 -0.00000000000E+00  0.00000000000E+00  0.64068705863E+02  0.64068705863E+02  0.00000000000E+00 0.  1.
          2   -1    0    0  501    0  0.00000000000E+00 -0.00000000000E+00 -0.12307105613E+04  0.12307105613E+04  0.00000000000E+00 0. -1.
         25    2    1    2    0    0  0.17357069607E+03  0.19273960183E+03 -0.59975399291E+03  0.66530260862E+03  0.12508944152E+03 0.  0.
         23    2    1    2    0    0 -0.17357069607E+03 -0.19273960183E+03 -0.56688786256E+03  0.62947665857E+03  0.87199050029E+02 0.  0.
          5    1    3    3  502    0  0.18261720498E+03  0.18796530207E+03 -0.49628552080E+03  0.56124574733E+03  0.41800000000E+01 0.  1.
         -5    1    3    3    0  502 -0.90465089118E+01  0.47742997617E+01 -0.10346847211E+03  0.10405686129E+03  0.41800000000E+01 0.  1.
        -11    1    4    4    0    0 -0.11779607049E+03 -0.88250810948E+02 -0.23717030741E+03  0.27913056904E+03  0.00000000000E+00 0. -1.
         11    1    4    4    0    0 -0.55774625579E+02 -0.10448879088E+03 -0.32971755515E+03  0.35034608953E+03  0.00000000000E+00 0.  1.
</event>
<event>
 8    1  0.7192024E-009  0.9395379E+02  0.7561462E-02  0.1293550E+00
          1   -1    0    0  501    0  0.00000000000E+00  0.00000000000E+00  0.22972797347E+03  0.22972797347E+03  0.00000000000E+00 0. -1.
         -1   -1    0    0    0  501 -0.00000000000E+00 -0.00000000000E+00 -0.70736857040E+02  0.70736857040E+02  0.00000000000E+00 0.  1.
         25    2    1    2    0    0  0.21501330226E+02  0.43948557019E+02  0.14203841491E+03  0.19549027140E+03  0.12509097504E+03 0.  0.
         23    2    1    2    0    0 -0.21501330226E+02 -0.43948557019E+02  0.16952701515E+02  0.10497455911E+03  0.91315284074E+02 0.  0.
          5    1    3    3  502    0 -0.37006386248E+02 -0.24113223516E+02  0.43402350056E+02  0.62065743868E+02  0.41800000000E+01 0.  1.
         -5    1    3    3    0  502  0.58507716475E+02  0.68061780535E+02  0.98636064855E+02  0.13342452753E+03  0.41800000000E+01 0.  1.
        -11    1    4    4    0    0 -0.25220454623E+02 -0.29693040545E+02 -0.34139820644E+02  0.51800341136E+02  0.00000000000E+00 0.  1.
         11    1    4    4    0    0  0.37191243966E+01 -0.14255516474E+02  0.51092522160E+02  0.53174217971E+02  0.00000000000E+00 0. -1.
</event>
<event>
 8    1  0.7192024E-009  0.9516291E+02  0.7561462E-02  0.1290810E+00
         -2   -1    0    0    0  501 -0.00000000000E+00  0.00000000000E+00  0.37741454064E+02  0.37741454064E+02  0.00000000000E+00 0.  1.
          2   -1    0    0  501    0  0.00000000000E+00 -0.00000000000E+00 -0.37210171481E+03  0.37210171481E+03  0.00000000000E+00 0. -1.
         25    2    1    2    0    0  0.41480657964E+02 -0.19101841812E+01 -0.14893885496E+03  0.19889190105E+03  0.12510360506E+03 0.  0.
         23    2    1    2    0    0 -0.41480657964E+02  0.19101841812E+01 -0.18542140579E+03  0.21095126783E+03  0.91624482994E+02 0.  0.
          5    1    3    3  502    0  0.66814313263E+02 -0.15322898631E+02 -0.15478779256E+03  0.16933894061E+03  0.41800000000E+01 0. -1.
         -5    1    3    3    0  502 -0.25333655299E+02  0.13412714450E+02  0.58489376067E+01  0.29552960441E+02  0.41800000000E+01 0. -1.
        -11    1    4    4    0    0 -0.27141460147E+02 -0.40026463906E+02 -0.13711512885E+03  0.14539372487E+03  0.00000000000E+00 0. -1.
         11    1    4    4    0    0 -0.14339197818E+02  0.41936648087E+02 -0.48306276939E+02  0.65557542957E+02  0.00000000000E+00 0.  1.
</event>
<event>
 8    1  0.7192024E-009  0.4231422E+03  0.7561462E-02  0.1036048E+00
         -1   -1    0    0    0  501 -0.00000000000E+00  0.00000000000E+00  0.31575693668E+03  0.31575693668E+03  0.00000000000E+00 0.  1.
          1   -1    0    0  501    0  0.00000000000E+00 -0.00000000000E+00 -0.58321765167E+03  0.58321765167E+03  0.00000000000E+00 0. -1.
         25    2    1    2    0    0 -0.10609493341E+02 -0.40860327727E+03 -0.20909164520E+03  0.47585292620E+03  0.12508993462E+03 0.  0.
         23    2    1    2    0    0  0.10609493341E+02  0.40860327727E+03 -0.58369069786E+02  0.42312166215E+03  0.92497530401E+02 0.  0.
          5    1    3    3  502    0  0.25730234917E+02 -0.11572109314E+02 -0.10232605369E+02  0.30300780773E+02  0.41800000000E+01 0.  1.
         -5    1    3    3    0  502 -0.36339728258E+02 -0.39703116795E+03 -0.19885903983E+03  0.44555214543E+03  0.41800000000E+01 0.  1.
        -11    1    4    4    0    0  0.51732338656E+02  0.23877975137E+03 -0.36323794808E+02  0.24700490399E+03  0.00000000000E+00 0.  1.
         11    1    4    4    0    0 -0.41122845315E+02  0.16982352590E+03 -0.22045274978E+02  0.17611675816E+03  0.00000000000E+00 0. -1.
</event>
<event>
 8    1  0.7192024E-009  0.1963551E+03  0.7561462E-02  0.1152851E+00
          2   -1    0    0  501    0  0.00000000000E+00  0.00000000000E+00  0.70413080559E+03  0.70413080559E+03  0.00000000000E+00 0. -1.
         -2   -1    0    0    0  501 -0.00000000000E+00 -0.00000000000E+00 -0.83793081711E+02  0.83793081711E+02  0.00000000000E+00 0.  1.
         25    2    1    2    0    0 -0.78155686952E+02  0.15405643081E+03  0.53270262842E+03  0.57381339664E+03  0.12509208030E+03 0.  0.
         23    2    1    2    0    0  0.78155686952E+02 -0.15405643081E+03  0.87635095459E+02  0.21411049067E+03  0.91223335718E+02 0.  0.
          5    1    3    3  502    0 -0.24487929721E+02 -0.12033154872E+02  0.15847397146E+03  0.16085996254E+03  0.41800000000E+01 0.  1.
         -5    1    3    3    0  502 -0.53667757231E+02  0.16608958568E+03  0.37422865696E+03  0.41295343409E+03  0.41800000000E+01 0.  1.
        -11    1    4    4    0    0  0.70096289927E+02 -0.49898578195E+02  0.16203926644E+02  0.87555269436E+02  0.00000000000E+00 0.  1.
         11    1    4    4    0    0  0.80593970253E+01 -0.10415785262E+03  0.71431168815E+02  0.12655522123E+03  0.00000000000E+00 0. -1.
</event>
<event>
 8    1  0.7192024E-009  0.1114208E+03  0.7561462E-02  0.1257961E+00
         -1   -1    0    0    0  501 -0.00000000000E+00  0.00000000000E+00  0.39927363872E+02  0.39927363872E+02  0.00000000000E+00 0.  1.
          1   -1    0    0  501    0  0.00000000000E+00 -0.00000000000E+00 -0.36496646029E+03  0.36496646029E+03  0.00000000000E+00 0. -1.
         25    2    1    2    0    0  0.55136415297E+02  0.19166402983E+02 -0.15153092880E+03  0.20496868640E+03  0.12507263779E+03 0.  0.
         23    2    1    2    0    0 -0.55136415297E+02 -0.19166402983E+02 -0.17350816761E+03  0.19992513777E+03  0.80359201005E+02 0.  0.
          5    1    3    3  502    0  0.85028804733E+02 -0.45787508657E+01 -0.55984694666E+02  0.10199324012E+03  0.41800000000E+01 0.  1.
         -5    1    3    3    0  502 -0.29892389436E+02  0.23745153849E+02 -0.95546234139E+02  0.10297544628E+03  0.41800000000E+01 0.  1.
        -11    1    4    4    0    0 -0.13433064241E+02 -0.47107196390E+02 -0.90989007909E+02  0.10333699593E+03  0.00000000000E+00 0. -1.
         11    1    4    4    0    0 -0.41703351056E+02  0.27940793407E+02 -0.82519159706E+02  0.96588141840E+02  0.00000000000E+00 0.  1.
</event>
<event>
 8    1  0.7192024E-009  0.1112721E+03  0.7561462E-02  0.1258232E+00
         -1   -1    0    0    0  501 -0.00000000000E+00  0.00000000000E+00  0.25936964841E+02  0.25936964841E+02  0.00000000000E+00 0.  1.
          1   -1    0    0  501    0  0.00000000000E+00 -0.00000000000E+00 -0.75251211018E+03  0.75251211018E+03  0.00000000000E+00 0. -1.
         25    2    1    2    0    0  0.87290660993E+02  0.20873046178E+02 -0.40835197103E+03  0.43640982569E+03  0.12508741008E+03 0.  0.
         23    2    1    2    0    0 -0.87290660993E+02 -0.20873046178E+02 -0.31822317430E+03  0.34203924932E+03  0.87575772124E+02 0.  0.
          5    1    3    3  502    0  0.44536007164E+02  0.32501404466E+02 -0.37919428998E+03  0.38320435694E+03  0.41800000000E+01 0. -1.
         -5    1    3    3    0  502  0.42754653829E+02 -0.11628358287E+02 -0.29157681056E+02  0.53205468751E+02  0.41800000000E+01 0. -1.
        -11    1    4    4    0    0  0.16610335445E+02 -0.65859741871E+01 -0.25851408792E+02  0.31425684338E+02  0.00000000000E+00 0.  1.
         11    1    4    4    0    0 -0.10390099644E+03 -0.14287071991E+02 -0.29237176551E+03  0.31061356499E+03  0.00000000000E+00 0. -1.
</event>
<event>
 8    1  0.7192024E-009  0.1403305E+03  0.7561462E-02  0.1212885E+00
         -2   -1    0    0    0  501 -0.00000000000E+00  0.00000000000E+00  0.62583865841E+02  0.62583865841E+02  0.00000000000E+00 0.  1.
          2   -1    0    0  501    0  0.00000000000E+00 -0.00000000000E+00 -0.66944622833E+03  0.66944622833E+03  0.00000000000E+00 0. -1.
         25    2    1    2    0    0 -0.38836482400E+01 -0.12073780761E+03 -0.91075489978E+02  0.19630410735E+03  0.12509139370E+03 0.  0.
         23    2    1    2    0    0  0.38836482400E+01  0.12073780761E+03 -0.51578687251E+03  0.53572598682E+03  0.79834417327E+02 0.  0.
          5    1    3    3  502    0  0.27937651688E+02 -0.85207377322E+02 -0.11243613659E+03  0.14387552517E+03  0.41800000000E+01 0. -1.
         -5    1    3    3    0  502 -0.31821299928E+02 -0.35530430290E+02  0.21360646611E+02  0.52428582180E+02  0.41800000000E+01 0. -1.
        -11    1    4    4    0    0 -0.32014807057E+02  0.24547907228E+02 -0.18608812476E+03  0.19041097079E+03  0.00000000000E+00 0.  1.
         11    1    4    4    0    0  0.35898455297E+02  0.96189900385E+02 -0.32969874775E+03  0.34531501603E+03  0.00000000000E+00 0. -1.
</event>
<event>
 8    1  0.7192024E-009  0.1120992E+03  0.7561462E-02  0.1256731E+00
         -1   -1    0    0    0  501 -0.00000000000E+00  0.00000000000E+00  0.25449320856E+03  0.25449320856E+03  0.00000000000E+00 0.  1.
          1   -1    0    0  501    0  0.00000000000E+00 -0.00000000000E+00 -0.87133423920E+02  0.87133423920E+02  0.00000000000E+00 0. -1.
         25    2    1    2    0    0  0.47484966214E+02  0.87761918414E+02  0.13158795786E+03  0.20716978218E+03  0.12508777580E+03 0.  0.
         23    2    1    2    0    0 -0.47484966214E+02 -0.87761918414E+02  0.35771826784E+02  0.13445685031E+03  0.82716652872E+02 0.  0.
          5    1    3    3  502    0  0.33675599339E+02  0.79320263058E+02  0.12808379547E+02  0.87219705968E+02  0.41800000000E+01 0.  1.
         -5    1    3    3    0  502  0.13809366876E+02  0.84416553562E+01  0.11877957831E+03  0.11995007621E+03  0.41800000000E+01 0.  1.
        -11    1    4    4    0    0 -0.65043272180E+02 -0.60814546564E+02  0.46623441708E+02  0.10051259447E+03  0.00000000000E+00 0.  1.
         11    1    4    4    0    0  0.17558305965E+02 -0.26947371850E+02 -0.10851614924E+02  0.33944255839E+02  0.00000000000E+00 0. -1.
</event>
<event>
 8    1  0.7192024E-009  0.1222758E+03  0.7561462E-02  0.1239389E+00
         -2   -1    0    0    0  501 -0.00000000000E+00  0.00000000000E+00  0.96027769685E+02  0.96027769685E+02  0.00000000000E+00 0.  1.
          2   -1    0    0  501    0  0.00000000000E+00 -0.00000000000E+00 -0.23530822782E+03  0.23530822782E+03  0.00000000000E+00 0. -1.
         25    2    1    2    0    0  0.42931353861E+02  0.88305369387E+02 -0.39876957372E+02  0.16394834581E+03  0.12509176214E+03 0.  0.
         23    2    1    2    0    0 -0.42931353861E+02 -0.88305369387E+02 -0.99403500766E+02  0.16738765170E+03  0.92177169466E+02 0.  0.
          5    1    3    3  502    0  0.57017914387E+02  0.12332937371E+02  0.24382590090E+02  0.63365029825E+02  0.41800000000E+01 0. -1.
         -5    1    3    3    0  502 -0.14086560526E+02  0.75972432016E+02 -0.64259547461E+02  0.10058331598E+03  0.41800000000E+01 0. -1.
        -11    1    4    4    0    0 -0.52613137742E+02 -0.80866782376E+02 -0.11335240678E+03  0.14885008188E+03  0.00000000000E+00 0. -1.
         11    1    4    4    0    0  0.96817838807E+01 -0.74385870108E+01  0.13948906011E+02  0.18537569817E+02  0.00000000000E+00 0.  1.
</event>
<event>
 8    1  0.7192024E-009  0.3637863E+03  0.7561462E-02  0.1057095E+00
          2   -1    0    0  501    0  0.00000000000E+00  0.00000000000E+00  0.11191799144E+04  0.11191799144E+04  0.00000000000E+00 0. -1.
         -2   -1    0    0    0  501 -0.00000000000E+00 -0.00000000000E+00 -0.12665424715E+03  0.12665424715E+03  0.00000000000E+00 0.  1.
         25    2    1    2    0    0  0.20594176304E+03 -0.29241121583E+03  0.43750644280E+03  0.57876975395E+03  0.12508481798E+03 0.  0.
         23    2    1    2    0    0 -0.20594176304E+03  0.29241121583E+03  0.55501922447E+03  0.66706440762E+03  0.94932899913E+02 0.  0.
          5    1    3    3  502    0  0.21036303090E+03 -0.25174278653E+03  0.42264596745E+03  0.53504590601E+03  0.41800000000E+01 0.  1.
         -5    1    3    3    0  502 -0.44212678598E+01 -0.40668429292E+02  0.14860475350E+02  0.43723847934E+02  0.41800000000E+01 0.  1.
        -11    1    4    4    0    0 -0.13362507600E+03  0.17065127349E+03  0.25066882680E+03  0.33137950873E+03  0.00000000000E+00 0.  1.
         11    1    4    4    0    0 -0.72316687040E+02  0.12175994233E+03  0.30435039767E+03  0.33568489889E+03  0.00000000000E+00 0. -1.
</event>
<event>
 8    1  0.7192024E-009  0.1104093E+03  0.7561462E-02  0.1259814E+00
          1   -1    0    0  501    0  0.00000000000E+00  0.00000000000E+00  0.29240552535E+02  0.29240552535E+02  0.00000000000E+00 0. -1.
         -1   -1    0    0    0  501 -0.00000000000E+00 -0.00000000000E+00 -0.59552511374E+03  0.59552511374E+03  0.00000000000E+00 0.  1.
         25    2    1    2    0    0 -0.16242222397E+02  0.58343828066E+02 -0.41748117906E+03  0.44000522402E+03  0.12508497203E+03 0.  0.
         23    2    1    2    0    0  0.16242222397E+02 -0.58343828066E+02 -0.14880338215E+03  0.18476044226E+03  0.91247807784E+02 0.  0.
          5    1    3    3  502    0 -0.31883737721E+02  0.78893384947E+02 -0.39895096251E+03  0.40794617514E+03  0.41800000000E+01 0.  1.
         -5    1    3    3    0  502  0.15641515324E+02 -0.20549556882E+02 -0.18530216551E+02  0.32059048880E+02  0.41800000000E+01 0.  1.
        -11    1    4    4    0    0  0.51256779113E+02 -0.14335447265E+02 -0.69430736836E+02  0.87483653735E+02  0.00000000000E+00 0.  1.
         11    1    4    4    0    0 -0.35014556716E+02 -0.44008380801E+02 -0.79372645310E+02  0.97276788528E+02  0.00000000000E+00 0. -1.
</event>
<event>
 8    1  0.7192024E-009  0.1038591E+03  0.7561462E-02  0.1272384E+00
          2   -1    0    0  501    0  0.00000000000E+00  0.00000000000E+00  0.78206253630E+02  0.78206253630E+02  0.00000000000E+00 0. -1.
         -2   -1    0    0    0  501 -0.00000000000E+00 -0.00000000000E+00 -0.17208553114E+03  0.17208553114E+03  0.00000000000E+00 0.  1.
         25    2    1    2    0    0 -0.54643832409E+01 -0.14227863026E+02 -0.86826873330E+02  0.15303817733E+03  0.12509790653E+03 0.  0.
         23    2    1    2    0    0  0.54643832409E+01  0.14227863026E+02 -0.70524041811E+01  0.97253607438E+02  0.95792672917E+02 0.  0.
          5    1    3    3  502    0  0.52020837115E+02 -0.22060622956E+02 -0.11411834259E+02  0.57797412922E+02  0.41800000000E+01 0. -1.
         -5    1    3    3    0  502 -0.57485220356E+02  0.78327599308E+01 -0.75415039071E+02  0.95240764411E+02  0.41800000000E+01 0. -1.
        -11    1    4    4    0    0  0.75142619473E+01  0.53269210706E+02 -0.17874337570E+02  0.56688313482E+02  0.00000000000E+00 0.  1.
         11    1    4    4    0    0 -0.20498787063E+01 -0.39041347681E+02  0.10821933389E+02  0.40565293956E+02  0.00000000000E+00 0. -1.
</event>
<event>
 8    1  0.7192024E-009  0.9174206E+02  0.7561462E-02  0.1298687E+00
          1   -1    0    0  501    0  0.00000000000E+00  0.00000000000E+00  0.11152134059E+03  0.11152134059E+03  0.00000000000E+00 0. -1.
         -1   -1    0    0    0  501 -0.00000000000E+00 -0.00000000000E+00 -0.12137766339E+03  0.12137766339E+03  0.00000000000E+00 0.  1.
         25    2    1    2    0    0 -0.39535528096E+01 -0.24025399057E+02 -0.26219572568E+02  0.13010721654E+03  0.12509025314E+03 0.  0.
         23    2    1    2    0    0  0.39535528096E+01  0.24025399057E+02  0.16363249774E+02  0.10279178744E+03  0.98516725702E+02 0.  0.
          5    1    3    3  502    0  0.50316038837E+01  0.30551243925E+02  0.35388714222E+02  0.47207298560E+02  0.41800000000E+01 0.  1.
         -5    1    3    3    0  502 -0.89851566933E+01 -0.54576642982E+02 -0.61608286791E+02  0.82899917981E+02  0.41800000000E+01 0.  1.
        -11    1    4    4    0    0  0.75767456438E+01 -0.35923127669E+02  0.21447422245E+02  0.42519055693E+02  0.00000000000E+00 0. -1.
         11    1    4    4    0    0 -0.36231928343E+01  0.59948526726E+02 -0.50841724711E+01  0.60272731751E+02  0.00000000000E+00 0.  1.
</event>
<event>
 8    1  0.7192024E-009  0.1965225E+03  0.7561462E-02  0.1152707E+00
          1   -1    0    0  501    0  0.00000000000E+00  0.00000000000E+00  0.27367881469E+03  0.27367881469E+03  0.00000000000E+00 0. -1.
         -1   -1    0    0    0  501 -0.00000000000E+00 -0.00000000000E+00 -0.15531073099E+03  0.15531073099E+03  0.00000000000E+00 0.  1.
         25    2    1    2    0    0  0.10412291501E+03  0.13701384732E+03  0.37327671314E+02  0.21600092480E+03  0.12509463890E+03 0.  0.
         23    2    1    2    0    0 -0.10412291501E+03 -0.13701384732E+03  0.81040412383E+02  0.21298862088E+03  0.95823944806E+02 0.  0.
          5    1    3    3  502    0 -0.27406315298E+01  0.98313453864E+02  0.25264546579E+02  0.10163078267E+03  0.41800000000E+01 0.  1.
         -5    1    3    3    0  502  0.10686354654E+03  0.38700393458E+02  0.12063124735E+02  0.11437014213E+03  0.41800000000E+01 0.  1.
        -11    1    4    4    0    0 -0.49350580574E+02 -0.10833531101E+03  0.91675468899E+02  0.15025448750E+03  0.00000000000E+00 0. -1.
         11    1    4    4    0    0 -0.54772334437E+02 -0.28678536307E+02 -0.10635056516E+02  0.62734133384E+02  0.00000000000E+00 0.  1.
</event>
<event>
 8    1  0.7192024E-009  0.1123318E+03  0.7561462E-02  0.1256312E+00
         -2   -1    0    0    0  501 -0.00000000000E+00  0.00000000000E+00  0.21216108948E+03  0.21216108948E+03  0.00000000000E+00 0.  1.
          2   -1    0    0  501    0  0.00000000000E+00 -0.00000000000E+00 -0.76534201417E+02  0.76534201417E+02  0.00000000000E+00 0. -1.
         25    2    1    2    0    0 -0.29141979725E+02  0.47365577449E+02  0.32915401026E+02  0.14079125406E+03  0.12508397454E+03 0.  0.
         23    2    1    2    0    0  0.29141979725E+02 -0.47365577449E+02  0.10271148704E+03  0.14790403684E+03  0.90736991540E+02 0.  0.
          5    1    3    3  502    0  0.35147176947E+02 -0.16851790722E+02  0.30713637623E+02  0.49800671019E+02  0.41800000000E+01 0.  1.
         -5    1    3    3    0  502 -0.64289156672E+02  0.64217368171E+02  0.22017634033E+01  0.90990583043E+02  0.41800000000E+01 0.  1.
        -11    1    4    4    0    0 -0.25052852761E+02 -0.26383083399E+02  0.87458798865E+01  0.37419285617E+02  0.00000000000E+00 0. -1.
         11    1    4    4    0    0  0.54194832486E+02 -0.20982494050E+02  0.93965607151E+02  0.11048475122E+03  0.00000000000E+00 0.  1.
</event>
<event>
 8    1  0.7192024E-009  0.1138790E+03  0.7561462E-02  0.1253551E+00
          2   -1    0    0  501    0  0.00000000000E+00  0.00000000000E+00  0.62131942392E+02  0.62131942392E+02  0.00000000000E+00 0. -1.
         -2   -1    0    0    0  501 -0.00000000000E+00 -0.00000000000E+00 -0.36144903488E+03  0.36144903488E+03  0.00000000000E+00 0.  1.
         25    2    1    2    0    0 -0.69799506992E+02 -0.29100388040E+02 -0.62611895600E+02  0.15901662690E+03  0.12508890598E+03 0.  0.
         23    2    1    2    0    0  0.69799506992E+02  0.29100388040E+02 -0.23670519689E+03  0.26456435037E+03  0.90808267762E+02 0.  0.
          5    1    3    3  502    0  0.26365406191E+02 -0.40362913450E+02 -0.29132601180E+02  0.56484336566E+02  0.41800000000E+01 0.  1.
         -5    1    3    3    0  502 -0.96164913182E+02  0.11262525410E+02 -0.33479294420E+02  0.10253229033E+03  0.41800000000E+01 0.  1.
        -11    1    4    4    0    0  0.23347377330E+02  0.27361881886E+02 -0.16619164943E+02  0.39622837505E+02  0.00000000000E+00 0. -1.
         11    1    4    4    0    0  0.46452129662E+02  0.17385061536E+01 -0.22008603195E+03  0.22494151287E+03  0.00000000000E+00 0.  1.
</event>
<event>
 8    1  0.7192024E-009  0.1223232E+03  0.7561462E-02  0.1239313E+00
          2   -1    0    0  501    0  0.00000000000E+00  0.00000000000E+00  0.20386910508E+03  0.20386910508E+03  0.00000000000E+00 0. -1.
         -2   -1    0    0    0  501 -0.00000000000E+00 -0.00000000000E+00 -0.15871905427E+03  0.15871905427E+03  0.00000000000E+00 0.  1.
         25    2    1    2    0    0  0.72849471577E+02  0.83354762063E+02  0.11361056166E+03  0.20201134906E+03  0.12508462559E+03 0.  0.
         23    2    1    2    0    0 -0.72849471577E+02 -0.83354762063E+02 -0.68460510842E+02  0.16057681030E+03  0.94037272363E+02 0.  0.
          5    1    3    3  502    0  0.48669526952E+02  0.93935896254E+02  0.13226392350E+03  0.16942223384E+03  0.41800000000E+01 0.  1.
         -5    1    3    3    0  502  0.24179944625E+02 -0.10581134191E+02 -0.18653361843E+02  0.32589115220E+02  0.41800000000E+01 0.  1.
        -11    1    4    4    0    0 -0.22889765109E+02 -0.39083321594E+02 -0.80861025598E+02  0.92681998437E+02  0.00000000000E+00 0.  1.
         11    1    4    4    0    0 -0.49959706468E+02 -0.44271440469E+02  0.12400514756E+02  0.67894811862E+02  0.00000000000E+00 0. -1.
</event>
<event>
 8    1  0.7192024E-009  0.9739092E+02  0.7561462E-02  0.1285880E+00
         -3   -1    0    0    0  501 -0.00000000000E+00  0.00000000000E+00  0.17171518235E+03  0.17171518235E+03  0.00000000000E+00 0.  1.
          3   -1    0    0  501    0  0.00000000000E+00 -0.00000000000E+00 -0.85521545679E+02  0.85521545679E+02  0.00000000000E+00 0. -1.
         25    2    1    2    0    0 -0.43043082649E+02 -0.14464462087E+02  0.45038773758E+02  0.14049199750E+03  0.12509029776E+03 0.  0.
         23    2    1    2    0    0  0.43043082649E+02  0.14464462087E+02  0.41154862911E+02  0.11674473053E+03  0.99366401451E+02 0.  0.
          5    1    3    3  502    0  0.24010676802E+02  0.84746709155E+01 -0.28384827023E+02  0.38360180562E+02  0.41800000000E+01 0. -1.
         -5    1    3    3    0  502 -0.67053759451E+02 -0.22939133003E+02  0.73423600781E+02  0.10213181694E+03  0.41800000000E+01 0. -1.
        -11    1    4    4    0    0 -0.45172466165E+00  0.44898900444E+02 -0.65468202953E+01  0.45375942659E+02  0.00000000000E+00 0. -1.
         11    1    4    4    0    0  0.43494807311E+02 -0.30434438356E+02  0.47701683206E+02  0.71368787868E+02  0.00000000000E+00 0.  1.
</event>
<event>
 8    1  0.7192024E-009  0.1709381E+03  0.7561462E-02  0.1176873E+00
          2   -1    0    0  501    0  0.00000000000E+00  0.00000000000E+00  0.63181235864E+03  0.63181235864E+03  0.00000000000E+00 0. -1.
         -2   -1    0    0    0  501 -0.00000000000E+00 -0.00000000000E+00 -0.75993133030E+02  0.75993133030E+02  0.00000000000E+00 0.  1.
         25    2    1    2    0    0  0.12977288528E+03  0.42026187341E+02  0.49987724965E+03  0.53304013596E+03  0.12508924672E+03 0.  0.
         23    2    1    2    0    0 -0.12977288528E+03 -0.42026187341E+02  0.55941975952E+02  0.17476535571E+03  0.93841476473E+02 0.  0.
          5    1    3    3  502    0  0.46266142969E+02 -0.42856221003E+02  0.21897864050E+03  0.22791737332E+03  0.41800000000E+01 0.  1.
         -5    1    3    3    0  502  0.83506742310E+02  0.84882408345E+02  0.28089860915E+03  0.30512276264E+03  0.41800000000E+01 0.  1.
        -11    1    4    4    0    0 -0.40931377711E+02 -0.56236862933E+02  0.14327064831E+01  0.69570216916E+02  0.00000000000E+00 0.  1.
         11    1    4    4    0    0 -0.88841507567E+02  0.14210675591E+02  0.54509269469E+02  0.10519513879E+03  0.00000000000E+00 0. -1.
</event>
<event>
 8    1  0.7192024E-009  0.1107238E+03  0.7561462E-02  0.1259235E+00
          2   -1    0    0  501    0  0.00000000000E+00  0.00000000000E+00  0.61667782578E+02  0.61667782578E+02  0.00000000000E+00 0. -1.
         -2   -1    0    0    0  501 -0.00000000000E+00 -0.00000000000E+00 -0.34344076801E+03  0.34344076801E+03  0.00000000000E+00 0.  1.
         25    2    1    2    0    0  0.88234211814E+02 -0.45243596136E+02 -0.17902848799E+03  0.23985523326E+03  0.12508826597E+03 0.  0.
         23    2    1    2    0    0 -0.88234211814E+02  0.45243596136E+02 -0.10274449745E+03  0.16525331733E+03  0.83186345086E+02 0.  0.
          5    1    3    3  502    0  0.94048681730E+02 -0.41008420759E+02 -0.56807968565E+02  0.11735187600E+03  0.41800000000E+01 0.  1.
         -5    1    3    3    0  502 -0.58144699160E+01 -0.42351753770E+01 -0.12222051943E+03  0.12250335726E+03  0.41800000000E+01 0.  1.
        -11    1    4    4    0    0 -0.20545178547E+02  0.36909452390E+02 -0.37241646161E+00  0.42243943131E+02  0.00000000000E+00 0. -1.
         11    1    4    4    0    0 -0.67689033267E+02  0.83341437454E+01 -0.10237208098E+03  0.12300937420E+03  0.00000000000E+00 0.  1.
</event>
<event>
 8    1  0.7192024E-009  0.1207040E+03  0.7561462E-02  0.1241940E+00
         -1   -1    0    0    0  501 -0.00000000000E+00  0.00000000000E+00  0.13833405442E+02  0.13833405442E+02  0.00000000000E+00 0.  1.
          1   -1    0    0  501    0  0.00000000000E+00 -0.00000000000E+00 -0.19394254982E+04  0.19394254982E+04  0.00000000000E+00 0. -1.
         25    2    1    2    0    0  0.11018286651E+03 -0.47654514452E+01 -0.13342397521E+04  0.13446209668E+04  0.12508738812E+03 0.  0.
         23    2    1    2    0    0 -0.11018286651E+03  0.47654514452E+01 -0.59135234064E+03  0.60863793683E+03  0.92625988610E+02 0.  0.
          5    1    3    3  502    0  0.36891753247E+02 -0.78038347279E+01 -0.10609168327E+04  0.10615949791E+04  0.41800000000E+01 0. -1.
         -5    1    3    3    0  502  0.73291113259E+02  0.30383832827E+01 -0.27332291940E+03  0.28302598772E+03  0.41800000000E+01 0. -1.
        -11    1    4    4    0    0  0.62617420044E+01 -0.10831634149E+02 -0.11467672259E+02  0.16971777111E+02  0.00000000000E+00 0.  1.
         11    1    4    4    0    0 -0.11644460851E+03  0.15597085594E+02 -0.57988466838E+03  0.59166615972E+03  0.00000000000E+00 0. -1.
</event>
<event>
 8    1  0.7192024E-009  0.1210976E+03  0.7561462E-02  0.1241297E+00
          2   -1    0    0  501    0  0.00000000000E+00  0.00000000000E+00  0.39122947661E+03  0.39122947661E+03  0.00000000000E+00 0. -1.
         -2   -1    0    0    0  501 -0.00000000000E+00 -0.00000000000E+00 -0.80116748851E+02  0.80116748851E+02  0.00000000000E+00 0.  1.
         25    2    1    2    0    0 -0.83639247586E+02 -0.25204460141E+02  0.30935657828E+03  0.34493412528E+03  0.12508904712E+03 0.  0.
         23    2    1    2    0    0  0.83639247586E+02  0.25204460141E+02  0.17561494760E+01  0.12641210018E+03  0.91357246361E+02 0.  0.
          5    1    3    3  502    0 -0.92548042665E+02  0.25062533323E+02  0.15505887786E+03  0.18235678979E+03  0.41800000000E+01 0.  1.
         -5    1    3    3    0  502  0.89087950788E+01 -0.50266993463E+02  0.15429770042E+03  0.16257733549E+03  0.41800000000E+01 0.  1.
        -11    1    4    4    0    0  0.28999564638E+02  0.27972188928E+02  0.42223029734E+02  0.58362679364E+02  0.00000000000E+00 0. -1.
         11    1    4    4    0    0  0.54639682948E+02 -0.27677287871E+01 -0.40466880258E+02  0.68049420814E+02  0.00000000000E+00 0.  1.
</event>
<event>
 8    1  0.7192024E-009  0.2106005E+03  0.7561462E-02  0.1141091E+00
         -1   -1    0    0    0  501 -0.00000000000E+00  0.00000000000E+00  0.38417570793E+03  0.38417570793E+03  0.00000000000E+00 0.  1.
          1   -1    0    0  501    0  0.00000000000E+00 -0.00000000000E+00 -0.15346844833E+03  0.15346844833E+03  0.00000000000E+00 0. -1.
         25    2    1    2    0    0 -0.17221142245E+03  0.68974680749E+02  0.24771301224E+03  0.33380043054E+03  0.12508681139E+03 0.  0.
         23    2    1    2    0    0  0.17221142245E+03 -0.68974680749E+02 -0.17005752643E+02  0.20384372572E+03  0.82757406223E+02 0.  0.
          5    1    3    3  502    0 -0.63521814108E+02 -0.35523581795E+02  0.82153288343E+02  0.10983433396E+03  0.41800000000E+01 0. -1.
         -5    1    3    3    0  502 -0.10868960834E+03  0.10449826254E+03  0.16555972390E+03  0.22396609658E+03  0.41800000000E+01 0. -1.
        -11    1    4    4    0    0  0.26759359948E+02 -0.41597463430E+02 -0.25395783980E+02  0.55599983387E+02  0.00000000000E+00 0. -1.
         11    1    4    4    0    0  0.14545206250E+03 -0.27377217319E+02  0.83900313367E+01  0.14824374233E+03  0.00000000000E+00 0.  1.
</event>
<event>
 8    1  0.7192024E-009  0.9595505E+02  0.7561462E-02  0.1289039E+00
          2   -1    0    0  501    0  0.00000000000E+00  0.00000000000E+00  0.25286417305E+02  0.25286417305E+02  0.00000000000E+00 0. -1.
         -2   -1    0    0    0  501 -0.00000000000E+00 -0.00000000000E+00 -0.60517277973E+03  0.60517277973E+03  0.00000000000E+00 0.  1.
         25    2    1    2    0    0 -0.11597334804E+02  0.35488558504E+01 -0.46114722962E+03  0.47796586282E+03  0.12508999196E+03 0.  0.
         23    2    1    2    0    0  0.11597334804E+02 -0.35488558504E+01 -0.11873913281E+03  0.15249333421E+03  0.94911236248E+02 0.  0.
          5    1    3    3  502    0  0.54243343249E+01  0.48440298729E+02 -0.38329760225E+03  0.38640705252E+03  0.41800000000E+01 0. -1.
         -5    1    3    3    0  502 -0.17021669129E+02 -0.44891442879E+02 -0.77849627364E+02  0.91558810304E+02  0.41800000000E+01 0. -1.
        -11    1    4    4    0    0 -0.33376498232E+02  0.24845760424E+02 -0.62531764051E+02  0.75110078955E+02  0.00000000000E+00 0.  1.
         11    1    4    4    0    0  0.44973833036E+02 -0.28394616274E+02 -0.56207368754E+02  0.77383255253E+02  0.00000000000E+00 0. -1.
</event>
<event>
 8    1  0.7192024E-009  0.1000898E+03  0.7561462E-02  0.1280107E+00
         -2   -1    0    0    0  501 -0.00000000000E+00  0.00000000000E+00  0.59824663068E+02  0.59824663068E+02  0.00000000000E+00 0.  1.
          2   -1    0    0  501    0  0.00000000000E+00 -0.00000000000E+00 -0.22985905914E+03  0.22985905914E+03  0.00000000000E+00 0. -1.
         25    2    1    2    0    0  0.21065167500E+01 -0.28658732823E+02 -0.71394621612E+02  0.14685422478E+03  0.12507282263E+03 0.  0.
         23    2    1    2    0    0 -0.21065167500E+01  0.28658732823E+02 -0.98639774458E+02  0.14282949743E+03  0.99220460845E+02 0.  0.
          5    1    3    3  502    0  0.52416757540E+02  0.22839047591E+01  0.18549017245E+01  0.52665413246E+02  0.41800000000E+01 0. -1.
         -5    1    3    3    0  502 -0.50310240790E+02 -0.30942637582E+02 -0.73249523337E+02  0.94188811533E+02  0.41800000000E+01 0. -1.
        -11    1    4    4    0    0  0.15223050312E+02 -0.26476315222E+02 -0.24839591045E+01  0.30641582553E+02  0.00000000000E+00 0.  1.
         11    1    4    4    0    0 -0.17329567062E+02  0.55135048045E+02 -0.96155815353E+02  0.11218791487E+03  0.00000000000E+00 0. -1.
</event>
<event>
 8    1  0.7192024E-009  0.1782715E+03  0.7561462E-02  0.1169486E+00
         -1   -1    0    0    0  501 -0.00000000000E+00  0.00000000000E+00  0.79697595608E+02  0.79697595608E+02  0.00000000000E+00 0.  1.
          1   -1    0    0  501    0  0.00000000000E+00 -0.00000000000E+00 -0.40724120766E+03  0.40724120766E+03  0.00000000000E+00 0. -1.
         25    2    1    2    0    0 -0.11569192725E+03 -0.85833865410E+02 -0.19454259519E+03  0.27248301822E+03  0.12509236346E+03 0.  0.
         23    2    1    2    0    0  0.11569192725E+03  0.85833865410E+02 -0.13300101687E+03  0.21445578505E+03  0.86890383648E+02 0.  0.
          5    1    3    3  502    0 -0.90539038685E+02  0.89019019126E+01 -0.11136249652E+03  0.14385979082E+03  0.41800000000E+01 0.  1.
         -5    1    3    3    0  502 -0.25152888563E+02 -0.94735767323E+02 -0.83180098669E+02  0.12862322740E+03  0.41800000000E+01 0.  1.
        -11    1    4    4    0    0  0.64321659178E+02 -0.33877936792E+01 -0.40755811273E+02  0.76221972803E+02  0.00000000000E+00 0.  1.
         11    1    4    4    0    0  0.51370268070E+02  0.89221659090E+02 -0.92245205592E+02  0.13823381224E+03  0.00000000000E+00 0. -1.
</event>
<event>
 8    1  0.7192024E-009  0.9958833E+02  0.7561462E-02  0.1281164E+00
         -1   -1    0    0    0  501 -0.00000000000E+00  0.00000000000E+00  0.23879203748E+02  0.23879203748E+02  0.00000000000E+00 0.  1.
          1   -1    0    0  501    0  0.00000000000E+00 -0.00000000000E+00 -0.66337620324E+03  0.66337620324E+03  0.00000000000E+00 0. -1.
         25    2    1    2    0    0  0.61811473955E+01  0.36830628080E+02 -0.50793881127E+03  0.52444535054E+03  0.12508552259E+03 0.  0.
         23    2    1    2    0    0 -0.61811473955E+01 -0.36830628080E+02 -0.13155818822E+03  0.16281005644E+03  0.88345095188E+02 0.  0.
          5    1    3    3  502    0  0.49929603071E+02  0.61360161286E+02 -0.34123379920E+03  0.35030845376E+03  0.41800000000E+01 0. -1.
         -5    1    3    3    0  502 -0.43748455676E+02 -0.24529533206E+02 -0.16670501207E+03  0.17413689679E+03  0.41800000000E+01 0. -1.
        -11    1    4    4    0    0  0.10153590276E+02 -0.48501553742E+02 -0.27177857065E+02  0.56516652639E+02  0.00000000000E+00 0.  1.
         11    1    4    4    0    0 -0.16334737672E+02  0.11670925661E+02 -0.10438033115E+03  0.10629340381E+03  0.00000000000E+00 0. -1.
</event>
<event>
 8    1  0.7192024E-009  0.1152864E+03  0.7561462E-02  0.1251082E+00
         -2   -1    0    0    0  501 -0.00000000000E+00  0.00000000000E+00  0.76463394833E+03  0.76463394833E+03  0.00000000000E+00 0. -1.
          2   -1    0    0  501    0  0.00000000000E+00 -0.00000000000E+00 -0.19526615702E+02  0.19526615702E+02  0.00000000000E+00 0.  1.
         25    2    1    2    0    0 -0.44783744799E+02  0.23198473067E+02  0.38405648415E+03  0.40705138667E+03  0.12509074874E+03 0.  0.
         23    2    1    2    0    0  0.44783744799E+02 -0.23198473067E+02  0.36105084847E+03  0.37710917735E+03  0.96487633991E+02 0.  0.
          5    1    3    3  502    0 -0.82163375329E+02  0.20715902458E+02  0.17331250976E+03  0.19296286508E+03  0.41800000000E+01 0.  1.
         -5    1    3    3    0  502  0.37379630530E+02  0.24825706085E+01  0.21074397439E+03  0.21408852159E+03  0.41800000000E+01 0.  1.
        -11    1    4    4    0    0  0.42770716798E+02 -0.58618469274E+02  0.21965125399E+03  0.23132689540E+03  0.00000000000E+00 0.  1.
         11    1    4    4    0    0  0.20130280013E+01  0.35419996208E+02  0.14139959448E+03  0.14578228196E+03  0.00000000000E+00 0. -1.
</event>
<event>
 8    1  0.7192024E-009  0.9442703E+02  0.7561462E-02  0.1292472E+00
         -4   -1    0    0    0  501 -0.00000000000E+00  0.00000000000E+00  0.44913186389E+03  0.44913186389E+03  0.00000000000E+00 0.  1.
          4   -1    0    0  501    0  0.00000000000E+00 -0.00000000000E+00 -0.28158039068E+02  0.28158039068E+02  0.00000000000E+00 0. -1.
         25    2    1    2    0    0  0.17229957586E+02 -0.14011010274E+02  0.21264653219E+03  0.24770551900E+03  0.12508515757E+03 0.  0.
         23    2    1    2    0    0 -0.17229957586E+02  0.14011010274E+02  0.20832729263E+03  0.22958438396E+03  0.93891153222E+02 0.  0.
          5    1    3    3  502    0  0.33185602372E+02 -0.65184165668E+02  0.12423433385E+03  0.14422864405E+03  0.41800000000E+01 0.  1.
         -5    1    3    3    0  502 -0.15955644786E+02  0.51173155394E+02  0.88412198338E+02  0.10347687495E+03  0.41800000000E+01 0.  1.
        -11    1    4    4    0    0 -0.23052121352E+02  0.33958586869E+02  0.20434524774E+03  0.20842640474E+03  0.00000000000E+00 0.  1.
         11    1    4    4    0    0  0.58221637658E+01 -0.19947576595E+02  0.39820448976E+01  0.21157979216E+02  0.00000000000E+00 0. -1.
</event>
<event>
 8    1  0.7192024E-009  0.6836718E+02  0.7561462E-02  0.1365735E+00
         -1   -1    0    0    0  501 -0.00000000000E+00  0.00000000000E+00  0.99701177936E+02  0.99701177936E+02  0.00000000000E+00 0.  1.
          1   -1    0    0  501    0  0.00000000000E+00 -0.00000000000E+00 -0.13243342517E+03  0.13243342517E+03  0.00000000000E+00 0. -1.
         25    2    1    2    0    0 -0.38714362983E+02 -0.23411530270E+02 -0.23061302654E+02  0.13500569335E+03  0.12509121434E+03 0.  0.
         23    2    1    2    0    0  0.38714362983E+02  0.23411530270E+02 -0.96709445850E+01  0.97128909761E+02  0.85402554361E+02 0.  0.
          5    1    3    3  502    0  0.24944194215E+01  0.10480350821E+02  0.46116476900E+02  0.47542209911E+02  0.41800000000E+01 0.  1.
         -5    1    3    3    0  502 -0.41208782404E+02 -0.33891881091E+02 -0.69177779554E+02  0.87463483438E+02  0.41800000000E+01 0.  1.
        -11    1    4    4    0    0  0.29420435668E+02  0.41765108198E+02  0.24952098709E+02  0.56855022009E+02  0.00000000000E+00 0.  1.
         11    1    4    4    0    0  0.92939273151E+01 -0.18353577928E+02 -0.34623043294E+02  0.40273887752E+02  0.00000000000E+00 0. -1.
</event>
<event>
 8    1  0.7192024E-009  0.1414725E+03  0.7561462E-02  0.1211361E+00
          1   -1    0    0  501    0  0.00000000000E+00  0.00000000000E+00  0.44163076196E+02  0.44163076196E+02  0.00000000000E+00 0. -1.
         -1   -1    0    0    0  501 -0.00000000000E+00 -0.00000000000E+00 -0.52032113497E+03  0.52032113497E+03  0.00000000000E+00 0.  1.
         25    2    1    2    0    0  0.37114463797E+02  0.92058275484E+02 -0.18856405897E+03  0.24709651323E+03  0.12509225799E+03 0.  0.
         23    2    1    2    0    0 -0.37114463797E+02 -0.92058275484E+02 -0.28759399980E+03  0.31738769793E+03  0.90401507559E+02 0.  0.
          5    1    3    3  502    0 -0.37824269623E+02  0.14153636546E+02 -0.16445543412E+02  0.43805582956E+02  0.41800000000E+01 0. -1.
         -5    1    3    3    0  502  0.74938733420E+02  0.77904638937E+02 -0.17211851556E+03  0.20329093028E+03  0.41800000000E+01 0. -1.
        -11    1    4    4    0    0 -0.82050226291E+01 -0.10294728269E+03 -0.22616283547E+03  0.24862641364E+03  0.00000000000E+00 0.  1.
         11    1    4    4    0    0 -0.28909441168E+02  0.10889007211E+02 -0.61431164323E+02  0.68761284287E+02  0.00000000000E+00 0. -1.
</event>
<event>
 8    1  0.7192024E-009  0.2148236E+03  0.7561462E-02  0.1137802E+00
         -1   -1    0    0    0  501 -0.00000000000E+00  0.00000000000E+00  0.21529800905E+02  0.21529800905E+02  0.00000000000E+00 0.  1.
          1   -1    0    0  501    0  0.00000000000E+00 -0.00000000000E+00 -0.21464936927E+04  0.21464936927E+04  0.00000000000E+00 0. -1.
         25    2    1    2    0    0  0.24070633629E+02 -0.18349654265E+03 -0.11451543867E+04  0.11667372939E+04  0.12508783728E+03 0.  0.
         23    2    1    2    0    0 -0.24070633629E+02  0.18349654265E+03 -0.97980950507E+03  0.10012861997E+04  0.91087929365E+02 0.  0.
          5    1    3    3  502    0 -0.46972188018E+02 -0.11631162737E+03 -0.64320795121E+03  0.65533863155E+03  0.41800000000E+01 0.  1.
         -5    1    3    3    0  502  0.71042821647E+02 -0.67184915280E+02 -0.50194643547E+03  0.51139866233E+03  0.41800000000E+01 0.  1.
        -11    1    4    4    0    0  0.32627632180E+02  0.10122665007E+03 -0.50543097465E+03  0.51649962943E+03  0.00000000000E+00 0. -1.
         11    1    4    4    0    0 -0.56698265809E+02  0.82269892580E+02 -0.47437853042E+03  0.48478657025E+03  0.00000000000E+00 0.  1.
</event>
<event>
 8    1  0.7192024E-009  0.1977246E+03  0.7561462E-02  0.1151673E+00
          2   -1    0    0  501    0  0.00000000000E+00  0.00000000000E+00  0.39697674729E+03  0.39697674729E+03  0.00000000000E+00 0. -1.
         -2   -1    0    0    0  501 -0.00000000000E+00 -0.00000000000E+00 -0.16991622015E+03  0.16991622015E+03  0.00000000000E+00 0.  1.
         25    2    1    2    0    0  0.93667643678E+02 -0.16356292454E+03  0.27132700145E+03  0.35325698815E+03  0.12508277343E+03 0.  0.
         23    2    1    2    0    0 -0.93667643678E+02  0.16356292454E+03 -0.44266474314E+02  0.21363597929E+03  0.90301457027E+02 0.  0.
          5    1    3    3  502    0  0.93595555139E+02 -0.16366307694E+03  0.17635918233E+03  0.25819714230E+03  0.41800000000E+01 0.  1.
         -5    1    3    3    0  502  0.72088538837E-01  0.10015240133E+00  0.94967819113E+02  0.95059845857E+02  0.41800000000E+01 0.  1.
        -11    1    4    4    0    0 -0.61188901418E+00  0.72445394135E+02  0.88438203829E+01  0.72985770521E+02  0.00000000000E+00 0.  1.
         11    1    4    4    0    0 -0.93055754664E+02  0.91117530406E+02 -0.53110294696E+02  0.14065020877E+03  0.00000000000E+00 0. -1.
</event>
<event>
 8    1  0.7192024E-009  0.1423866E+03  0.7561462E-02  0.1210153E+00
          2   -1    0    0  501    0  0.00000000000E+00  0.00000000000E+00  0.17676520737E+03  0.17676520737E+03  0.00000000000E+00 0.  1.
         -2   -1    0    0    0  501 -0.00000000000E+00 -0.00000000000E+00 -0.15208308286E+03  0.15208308286E+03  0.00000000000E+00 0. -1.
         25    2    1    2    0    0  0.94066512437E+02 -0.60318904071E+02 -0.42912157549E+02  0.17313614404E+03  0.12509113541E+03 0.  0.
         23    2    1    2    0    0 -0.94066512437E+02  0.60318904071E+02  0.67594282059E+02  0.15571214618E+03  0.84796264957E+02 0.  0.
          5    1    3    3  502    0  0.28367422195E+02 -0.75384055018E+02  0.17494073120E+02  0.82528670093E+02  0.41800000000E+01 0. -1.
         -5    1    3    3    0  502  0.65699090242E+02  0.15065150947E+02 -0.60406230669E+02  0.90607473949E+02  0.41800000000E+01 0. -1.
        -11    1    4    4    0    0 -0.24152057389E+02  0.62118527690E+02  0.50759642445E+02  0.83776933936E+02  0.00000000000E+00 0. -1.
         11    1    4    4    0    0 -0.69914455048E+02 -0.17996236190E+01  0.16834639614E+02  0.71935212245E+02  0.00000000000E+00 0.  1.
</event>
<event>
 8    1  0.7192024E-009  0.1216514E+03  0.7561462E-02  0.1240397E+00
         -1   -1    0    0    0  501 -0.00000000000E+00  0.00000000000E+00  0.29180209038E+02  0.29180209038E+02  0.00000000000E+00 0.  1.
          1   -1    0    0  501    0  0.00000000000E+00 -0.00000000000E+00 -0.67824069646E+03  0.67824069646E+03  0.00000000000E+00 0. -1.
         25    2    1    2    0    0 -0.84953943412E+02  0.31490048148E+02 -0.35685917331E+03  0.38885060766E+03  0.12509008702E+03 0.  0.
         23    2    1    2    0    0  0.84953943412E+02 -0.31490048148E+02 -0.29220131412E+03  0.31857029784E+03  0.88862990384E+02 0.  0.
          5    1    3    3  502    0 -0.10444960430E+03  0.95650174694E+01 -0.17103395921E+03  0.20067709635E+03  0.41800000000E+01 0. -1.
         -5    1    3    3    0  502  0.19495660888E+02  0.21925030679E+02 -0.18582521410E+03  0.18817351131E+03  0.41800000000E+01 0. -1.
        -11    1    4    4    0    0  0.13415035935E+02 -0.34580853525E+02 -0.32955349560E+02  0.49617070493E+02  0.00000000000E+00 0.  1.
         11    1    4    4    0    0  0.71538907477E+02  0.30908053773E+01 -0.25924596456E+03  0.26895322735E+03  0.00000000000E+00 0. -1.
</event>
<event>
 8    1  0.7192024E-009  0.1941780E+03  0.7561462E-02  0.1154746E+00
          2   -1    0    0  501    0  0.00000000000E+00  0.00000000000E+00  0.44116692218E+02  0.44116692218E+02  0.00000000000E+00 0. -1.
         -2   -1    0    0    0  501 -0.00000000000E+00 -0.00000000000E+00 -0.93090684120E+03  0.93090684120E+03  0.00000000000E+00 0.  1.
         25    2    1    2    0    0 -0.88522504150E+02  0.14647502074E+03 -0.47207351107E+03  0.51748757564E+03  0.12509526626E+03 0.  0.
         23    2    1    2    0    0  0.88522504150E+02 -0.14647502074E+03 -0.41471663791E+03  0.45753595778E+03  0.89766906266E+02 0.  0.
          5    1    3    3  502    0 -0.11697168246E+02  0.12895171147E+03 -0.24580288182E+03  0.27785229303E+03  0.41800000000E+01 0. -1.
         -5    1    3    3    0  502 -0.76825335903E+02  0.17523309273E+02 -0.22627062925E+03  0.23963528260E+03  0.41800000000E+01 0. -1.
        -11    1    4    4    0    0  0.83158724708E+02 -0.87623011111E+02 -0.34819843822E+03  0.36855843220E+03  0.00000000000E+00 0.  1.
         11    1    4    4    0    0  0.53637794417E+01 -0.58852009630E+02 -0.66518199691E+02  0.88977525575E+02  0.00000000000E+00 0. -1.
</event>
<event>
 8    1  0.7192024E-009  0.1152877E+03  0.7561462E-02  0.1251080E+00
         -3   -1    0    0    0  501 -0.00000000000E+00  0.00000000000E+00  0.18598232711E+03  0.18598232711E+03  0.00000000000E+00 0.  1.
          3   -1    0    0  501    0  0.00000000000E+00 -0.00000000000E+00 -0.11757665800E+03  0.11757665800E+03  0.00000000000E+00 0. -1.
         25    2    1    2    0    0  0.95840507057E+02 -0.41858353810E+00  0.80274490253E+01  0.15777989763E+03  0.12507788835E+03 0.  0.
         23    2    1    2    0    0 -0.95840507057E+02  0.41858353810E+00  0.60378220077E+02  0.14577908748E+03  0.91762927594E+02 0.  0.
          5    1    3    3  502    0  0.90602975793E+02  0.27558134142E+01 -0.47044300724E+02  0.10221121446E+03  0.41800000000E+01 0. -1.
         -5    1    3    3    0  502  0.52375312644E+01 -0.31743969523E+01  0.55071749749E+02  0.55568683178E+02  0.41800000000E+01 0. -1.
        -11    1    4    4    0    0 -0.85733160022E+02 -0.37207772721E+02  0.38339059961E+02  0.10101720941E+03  0.00000000000E+00 0.  1.
         11    1    4    4    0    0 -0.10107347035E+02  0.37626356259E+02  0.22039160116E+02  0.44761878066E+02  0.00000000000E+00 0. -1.
</event>
<event>
 8    1  0.7192024E-009  0.1692066E+03  0.7561462E-02  0.1178678E+00
          2   -1    0    0  501    0  0.00000000000E+00  0.00000000000E+00  0.14084744430E+04  0.14084744430E+04  0.00000000000E+00 0. -1.
         -2   -1    0    0    0  501 -0.00000000000E+00 -0.00000000000E+00 -0.27452056618E+02  0.27452056618E+02  0.00000000000E+00 0.  1.
         25    2    1    2    0    0  0.30106369389E+02 -0.15874083418E+03  0.79648437453E+03  0.82227838064E+03  0.12509728409E+03 0.  0.
         23    2    1    2    0    0 -0.30106369389E+02  0.15874083418E+03  0.58453801190E+03  0.61364811902E+03  0.93671130613E+02 0.  0.
          5    1    3    3  502    0  0.23689109427E+01 -0.12289383980E+03  0.30754494800E+03  0.33122481043E+03  0.41800000000E+01 0. -1.
         -5    1    3    3    0  502  0.27737458446E+02 -0.35846994377E+02  0.48893942653E+03  0.49105357021E+03  0.41800000000E+01 0. -1.
        -11    1    4    4    0    0 -0.36872685340E+02  0.56648885462E+02  0.36797972501E+03  0.37413603030E+03  0.00000000000E+00 0. -1.
         11    1    4    4    0    0  0.67663159516E+01  0.10209194872E+03  0.21655828689E+03  0.23951208872E+03  0.00000000000E+00 0.  1.
</event>
<event>
 8    1  0.7192024E-009  0.9466200E+02  0.7561462E-02  0.1291939E+00
          1   -1    0    0  501    0  0.00000000000E+00  0.00000000000E+00  0.16826617713E+03  0.16826617713E+03  0.00000000000E+00 0. -1.
         -1   -1    0    0    0  501 -0.00000000000E+00 -0.00000000000E+00 -0.81312339646E+02  0.81312339646E+02  0.00000000000E+00 0.  1.
         25    2    1    2    0    0  0.29313880208E+02 -0.27581708509E+02  0.25170123355E+02  0.13379162644E+03  0.12508641005E+03 0.  0.
         23    2    1    2    0    0 -0.29313880208E+02  0.27581708509E+02  0.61783714133E+02  0.11578689034E+03  0.89271061525E+02 0.  0.
          5    1    3    3  502    0 -0.25461138337E+02 -0.61553864725E+02  0.10614006441E+02  0.67581634789E+02  0.41800000000E+01 0. -1.
         -5    1    3    3    0  502  0.54775018545E+02  0.33972156216E+02  0.14556116914E+02  0.66209991649E+02  0.41800000000E+01 0. -1.
        -11    1    4    4    0    0 -0.32358335599E+02  0.22062018359E+01 -0.14358675069E+02  0.35469716083E+02  0.00000000000E+00 0.  1.
         11    1    4    4    0    0  0.30444553908E+01  0.25375506673E+02  0.76142389202E+02  0.80317174259E+02  0.00000000000E+00 0. -1.
</event>
<event>
 8    1  0.7192024E-009  0.1474791E+03  0.7561462E-02  0.1203605E+00
         -2   -1    0    0    0  501 -0.00000000000E+00  0.00000000000E+00  0.36366676863E+03  0.36366676863E+03  0.00000000000E+00 0. -1.
          2   -1    0    0  501    0  0.00000000000E+00 -0.00000000000E+00 -0.68302441714E+02  0.68302441714E+02  0.00000000000E+00 0.  1.
         25    2    1    2    0    0 -0.25667122834E+02  0.11005413334E+03  0.17795935276E+03  0.24512768956E+03  0.12508932606E+03 0.  0.
         23    2    1    2    0    0  0.25667122834E+02 -0.11005413334E+03  0.11740497415E+03  0.18684152078E+03  0.91406304333E+02 0.  0.
          5    1    3    3  502    0 -0.47580162660E+02  0.12903385127E+03  0.15886081069E+03  0.21016145276E+03  0.41800000000E+01 0.  1.
         -5    1    3    3    0  502  0.21913039826E+02 -0.18979717925E+02  0.19098542074E+02  0.34966236805E+02  0.41800000000E+01 0.  1.
        -11    1    4    4    0    0 -0.11455971608E+02 -0.78573669245E+02  0.26471534926E+02  0.83700674702E+02  0.00000000000E+00 0.  1.
         11    1    4    4    0    0  0.37123094441E+02 -0.31480464099E+02  0.90933439225E+02  0.10314084608E+03  0.00000000000E+00 0. -1.
</event>
<event>
 8    1  0.7192024E-009  0.1092775E+03  0.7561462E-02  0.1261914E+00
          2   -1    0    0  501    0  0.00000000000E+00  0.00000000000E+00  0.18871327133E+03  0.18871327133E+03  0.00000000000E+00 0. -1.
         -2   -1    0    0    0  501 -0.00000000000E+00 -0.00000000000E+00 -0.72949755961E+02  0.72949755961E+02  0.00000000000E+00 0.  1.
         25    2    1    2    0    0  0.85173104371E+01  0.25852592776E+02  0.95267319543E+02  0.15958410005E+03  0.12510124574E+03 0.  0.
         23    2    1    2    0    0 -0.85173104371E+01 -0.25852592776E+02  0.20496195831E+02  0.10207892724E+03  0.96224280786E+02 0.  0.
          5    1    3    3  502    0 -0.42888460630E+02 -0.24380614431E+02  0.64445279542E+02  0.81268080268E+02  0.41800000000E+01 0.  1.
         -5    1    3    3    0  502  0.51405771067E+02  0.50233207208E+02  0.30822040001E+02  0.78316019786E+02  0.41800000000E+01 0.  1.
        -11    1    4    4    0    0 -0.25456283010E+02  0.29614973535E+02 -0.37220011874E+01  0.39229100104E+02  0.00000000000E+00 0. -1.
         11    1    4    4    0    0  0.16938972572E+02 -0.55467566311E+02  0.24218197018E+02  0.62849827137E+02  0.00000000000E+00 0.  1.
</event>
<event>
 8    1  0.7192024E-009  0.2038377E+03  0.7561462E-02  0.1146541E+00
          1   -1    0    0  501    0  0.00000000000E+00  0.00000000000E+00  0.24675384433E+02  0.24675384433E+02  0.00000000000E+00 0. -1.
         -1   -1    0    0    0  501 -0.00000000000E+00 -0.00000000000E+00 -0.19230730889E+04  0.19230730889E+04  0.00000000000E+00 0.  1.
         25    2    1    2    0    0 -0.91788868557E+02 -0.16074268155E+03 -0.83945354866E+03  0.86867298891E+03  0.12508834976E+03 0.  0.
         23    2    1    2    0    0  0.91788868557E+02  0.16074268155E+03 -0.10589441558E+04  0.10790754844E+04  0.93689753417E+02 0.  0.
          5    1    3    3  502    0 -0.68778809280E+02 -0.44909531679E+02 -0.16978256858E+03  0.18865572781E+03  0.41800000000E+01 0.  1.
         -5    1    3    3    0  502 -0.23010059277E+02 -0.11583314987E+03 -0.66967098008E+03  0.68001726110E+03  0.41800000000E+01 0.  1.
        -11    1    4    4    0    0 -0.11169791197E+02  0.67287131912E+02 -0.32618734827E+03  0.33324241706E+03  0.00000000000E+00 0. -1.
         11    1    4    4    0    0  0.10295865975E+03  0.93455549642E+02 -0.73275680749E+03  0.74583306731E+03  0.00000000000E+00 0.  1.
</event>
<event>
 8    1  0.7192024E-009  0.2193388E+03  0.7561462E-02  0.1134377E+00
          1   -1    0    0  501    0  0.00000000000E+00  0.00000000000E+00  0.50240672115E+03  0.50240672115E+03  0.00000000000E+00 0. -1.
         -1   -1    0    0    0  501 -0.00000000000E+00 -0.00000000000E+00 -0.12685804701E+03  0.12685804701E+03  0.00000000000E+00 0.  1.
         25    2    1    2    0    0  0.22061860384E+01 -0.20099053890E+03  0.32505604694E+03  0.40213323490E+03  0.12509053112E+03 0.  0.
         23    2    1    2    0    0 -0.22061860384E+01  0.20099053890E+03  0.50492627204E+02  0.22713153325E+03  0.92936343867E+02 0.  0.
          5    1    3    3  502    0  0.47970354908E+02 -0.58247447416E+02  0.17194044835E+03  0.18781616080E+03  0.41800000000E+01 0. -1.
         -5    1    3    3    0  502 -0.45764168869E+02 -0.14274309148E+03  0.15311559859E+03  0.21431707410E+03  0.41800000000E+01 0. -1.
        -11    1    4    4    0    0  0.18062503047E+02  0.91690945851E+01 -0.12990504236E+02  0.24064070980E+02  0.00000000000E+00 0.  1.
         11    1    4    4    0    0 -0.20268689085E+02  0.19182144431E+03  0.63483131440E+02  0.20306746227E+03  0.00000000000E+00 0. -1.
</event>
<event>
 8    1  0.7192024E-009  0.1800012E+03  0.7561462E-02  0.1167802E+00
          1   -1    0    0  501    0  0.00000000000E+00  0.00000000000E+00  0.39200841757E+03  0.39200841757E+03  0.00000000000E+00 0. -1.
         -1   -1    0    0    0  501 -0.00000000000E+00 -0.00000000000E+00 -0.12486945195E+03  0.12486945195E+03  0.00000000000E+00 0.  1.
         25    2    1    2    0    0 -0.15153247194E+03 -0.46595082883E+02  0.10069635100E+02  0.20219882914E+03  0.12509906936E+03 0.  0.
         23    2    1    2    0    0  0.15153247194E+03  0.46595082883E+02  0.25706933051E+03  0.31467904038E+03  0.88346284387E+02 0.  0.
          5    1    3    3  502    0 -0.67047869223E+02  0.39551416878E+02  0.21664614341E+02  0.80910810520E+02  0.41800000000E+01 0. -1.
         -5    1    3    3    0  502 -0.84484602717E+02 -0.86146499761E+02 -0.11594979240E+02  0.12128801862E+03  0.41800000000E+01 0. -1.
        -11    1    4    4    0    0  0.20822740167E+02 -0.39081981624E+01 -0.79424018635E+00  0.21201210777E+02  0.00000000000E+00 0.  1.
         11    1    4    4    0    0  0.13070973177E+03  0.50503281045E+02  0.25786357070E+03  0.29347782961E+03  0.00000000000E+00 0. -1.
</event>
<event>
 8    1  0.7192024E-009  0.3411160E+03  0.7561462E-02  0.1066322E+00
          1   -1    0    0  501    0  0.00000000000E+00  0.00000000000E+00  0.16724989125E+03  0.16724989125E+03  0.00000000000E+00 0. -1.
         -1   -1    0    0    0  501 -0.00000000000E+00 -0.00000000000E+00 -0.73918436863E+03  0.73918436863E+03  0.00000000000E+00 0.  1.
         25    2    1    2    0    0  0.20045330611E+03  0.26736291865E+03 -0.31327558088E+03  0.47481928509E+03  0.12508919104E+03 0.  0.
         23    2    1    2    0    0 -0.20045330611E+03 -0.26736291865E+03 -0.25865889650E+03  0.43161497480E+03  0.87878345048E+02 0.  0.
          5    1    3    3  502    0  0.13166722938E+03  0.21849981580E+03 -0.29188250228E+03  0.38767421418E+03  0.41800000000E+01 0. -1.
         -5    1    3    3    0  502  0.68786076732E+02  0.48863102851E+02 -0.21393078598E+02  0.87145070912E+02  0.41800000000E+01 0. -1.
        -11    1    4    4    0    0 -0.10083717561E+03 -0.19486793308E+03 -0.19187958187E+03  0.29147799449E+03  0.00000000000E+00 0. -1.
         11    1    4    4    0    0 -0.99616130501E+02 -0.72494985569E+02 -0.66779314627E+02  0.14013698031E+03  0.00000000000E+00 0.  1.
</event>
<event>
 8    1  0.7192024E-009  0.8953307E+02  0.7561462E-02  0.1303986E+00
         -2   -1    0    0    0  501 -0.00000000000E+00  0.00000000000E+00  0.64367596515E+02  0.64367596515E+02  0.00000000000E+00 0.  1.
          2   -1    0    0  501    0  0.00000000000E+00 -0.00000000000E+00 -0.19692689790E+03  0.19692689790E+03  0.00000000000E+00 0. -1.
         25    2    1    2    0    0  0.17309072169E+02  0.16758708467E+02 -0.64952846873E+02  0.14299095373E+03  0.12508829778E+03 0.  0.
         23    2    1    2    0    0 -0.17309072169E+02 -0.16758708467E+02 -0.67606454509E+02  0.11830354068E+03  0.94045928984E+02 0.  0.
          5    1    3    3  502    0  0.63474580659E+02 -0.19263966338E+02 -0.21165285499E+02  0.69753598467E+02  0.41800000000E+01 0. -1.
         -5    1    3    3    0  502 -0.46165508490E+02  0.36022674805E+02 -0.43787561374E+02  0.73237355259E+02  0.41800000000E+01 0. -1.
        -11    1    4    4    0    0  0.15027526673E+00 -0.31222709314E+02  0.13552308363E+02  0.34037409148E+02  0.00000000000E+00 0.  1.
         11    1    4    4    0    0 -0.17459347435E+02  0.14464000847E+02 -0.81158762871E+02  0.84266131537E+02  0.00000000000E+00 0. -1.
</event>
<event>
 8    1  0.7192024E-009  0.1486210E+03  0.7561462E-02  0.1202178E+00
         -2   -1    0    0    0  501 -0.00000000000E+00  0.00000000000E+00  0.18110227667E+03  0.18110227667E+03  0.00000000000E+00 0.  1.
          2   -1    0    0  501    0  0.00000000000E+00 -0.00000000000E+00 -0.13378938944E+03  0.13378938944E+03  0.00000000000E+00 0. -1.
         25    2    1    2    0    0  0.10076920233E+03 -0.74901115705E+01 -0.21019551474E+02  0.16216962579E+03  0.12508649837E+03 0.  0.
         23    2    1    2    0    0 -0.10076920233E+03  0.74901115705E+01  0.68332438699E+02  0.15272204032E+03  0.91892140646E+02 0.  0.
          5    1    3    3  502    0  0.53677683930E+02 -0.66205856981E+02 -0.13774403541E+02  0.86439087475E+02  0.41800000000E+01 0.  1.
         -5    1    3    3    0  502  0.47091518401E+02  0.58715745410E+02 -0.72451479322E+01  0.75730538312E+02  0.41800000000E+01 0.  1.
        -11    1    4    4    0    0 -0.98043349148E+02  0.38546361890E+02  0.50844446750E+02  0.11697639972E+03  0.00000000000E+00 0. -1.
         11    1    4    4    0    0 -0.27258531831E+01 -0.31056250320E+02  0.17487991949E+02  0.35745640600E+02  0.00000000000E+00 0.  1.
</event>
<event>
 8    1  0.7192024E-009  0.1718134E+03  0.7561462E-02  0.1175970E+00
         -2   -1    0    0    0  501 -0.00000000000E+00  0.00000000000E+00  0.30239263757E+02  0.30239263757E+02  0.00000000000E+00 0. -1.
          2   -1    0    0  501    0  0.00000000000E+00 -0.00000000000E+00 -0.19546082218E+04  0.19546082218E+04  0.00000000000E+00 0.  1.
         25    2    1    2    0    0 -0.56563926516E+02 -0.15155272065E+03 -0.15716883250E+04  0.15849350062E+04  0.12508828031E+03 0.  0.
         23    2    1    2    0    0  0.56563926516E+02  0.15155272065E+03 -0.35268063302E+03  0.39991247938E+03  0.96843468223E+02 0.  0.
          5    1    3    3  502    0 -0.30641859069E+02 -0.43765516356E+01 -0.68655526092E+03  0.68726536099E+03  0.41800000000E+01 0.  1.
         -5    1    3    3    0  502 -0.25922067446E+02 -0.14717616901E+03 -0.88513306410E+03  0.89766964517E+03  0.41800000000E+01 0.  1.
        -11    1    4    4    0    0  0.23279917030E+01  0.26290348511E+02 -0.56354546036E+01  0.26988151452E+02  0.00000000000E+00 0. -1.
         11    1    4    4    0    0  0.54235934813E+02  0.12526237214E+03 -0.34704517842E+03  0.37292432793E+03  0.00000000000E+00 0.  1.
</event>
<event>
 8    1  0.7192024E-009  0.9372993E+02  0.7561462E-02  0.1294062E+00
         -2   -1    0    0    0  501 -0.00000000000E+00  0.00000000000E+00  0.21960849279E+02  0.21960849279E+02  0.00000000000E+00 0.  1.
          2   -1    0    0  501    0  0.00000000000E+00 -0.00000000000E+00 -0.59843895877E+03  0.59843895877E+03  0.00000000000E+00 0. -1.
         25    2    1    2    0    0 -0.13651169971E+02 -0.31414200626E+02 -0.34763076530E+03  0.37103758776E+03  0.12509410898E+03 0.  0.
         23    2    1    2    0    0  0.13651169971E+02  0.31414200626E+02 -0.22884734419E+03  0.24936222029E+03  0.92936556441E+02 0.  0.
          5    1    3    3  502    0  0.27350686909E+02 -0.51276970713E+02 -0.76964221682E+02  0.96531609429E+02  0.41800000000E+01 0. -1.
         -5    1    3    3    0  502 -0.41001856880E+02  0.19862770086E+02 -0.27066654362E+03  0.27450597833E+03  0.41800000000E+01 0. -1.
        -11    1    4    4    0    0  0.31913898442E+02  0.48747241851E+02 -0.83309854957E+02  0.10166278786E+03  0.00000000000E+00 0.  1.
         11    1    4    4    0    0 -0.18262728471E+02 -0.17333041224E+02 -0.14553748923E+03  0.14769943243E+03  0.00000000000E+00 0. -1.
</event>
<event>
 8    1  0.7192024E-009  0.1838440E+03  0.7561462E-02  0.1164134E+00
         -4   -1    0    0    0  501 -0.00000000000E+00  0.00000000000E+00  0.57966213444E+03  0.57966213444E+03  0.00000000000E+00 0.  1.
          4   -1    0    0  501    0  0.00000000000E+00 -0.00000000000E+00 -0.73550365797E+02  0.73550365797E+02  0.00000000000E+00 0. -1.
         25    2    1    2    0    0 -0.10628624075E+03  0.11704874286E+03  0.14351835748E+03  0.24747136381E+03  0.12508950314E+03 0.  0.
         23    2    1    2    0    0  0.10628624075E+03 -0.11704874286E+03  0.36259341116E+03  0.40574113642E+03  0.90303459428E+02 0.  0.
          5    1    3    3  502    0 -0.65400104896E+02 -0.87929229777E+01  0.28118493478E+02  0.71851313770E+02  0.41800000000E+01 0. -1.
         -5    1    3    3    0  502 -0.40886135855E+02  0.12584166584E+03  0.11539986400E+03  0.17562005004E+03  0.41800000000E+01 0. -1.
        -11    1    4    4    0    0  0.94334377656E+02 -0.62074683369E+02  0.16246962132E+03  0.19786009951E+03  0.00000000000E+00 0.  1.
         11    1    4    4    0    0  0.11951863095E+02 -0.54974059495E+02  0.20012378984E+03  0.20788103691E+03  0.00000000000E+00 0. -1.
</event>
<event>
 8    1  0.7192024E-009  0.1431749E+03  0.7561462E-02  0.1209120E+00
         -1   -1    0    0    0  501 -0.00000000000E+00  0.00000000000E+00  0.38730402416E+03  0.38730402416E+03  0.00000000000E+00 0.  1.
          1   -1    0    0  501    0  0.00000000000E+00 -0.00000000000E+00 -0.10706623727E+03  0.10706623727E+03  0.00000000000E+00 0. -1.
         25    2    1    2    0    0 -0.96365659281E+02 -0.85281464089E+02  0.28516566998E+03  0.33693661980E+03  0.12509019955E+03 0.  0.
         23    2    1    2    0    0  0.96365659281E+02  0.85281464089E+02 -0.49278830851E+01  0.15743364162E+03  0.90563784582E+02 0.  0.
          5    1    3    3  502    0 -0.15410100498E+02 -0.20989499330E+02  0.20329648562E+03  0.20499991158E+03  0.41800000000E+01 0. -1.
         -5    1    3    3    0  502 -0.80955558783E+02 -0.64291964759E+02  0.81869184359E+02  0.13193670823E+03  0.41800000000E+01 0. -1.
        -11    1    4    4    0    0 -0.91775625418E+01  0.41072965206E+02  0.58876941871E+01  0.42495659400E+02  0.00000000000E+00 0.  1.
         11    1    4    4    0    0  0.10554322182E+03  0.44208498883E+02 -0.10815577272E+02  0.11493798222E+03  0.00000000000E+00 0. -1.
</event>
<event>
 8    1  0.7192024E-009  0.5796417E+02  0.7561462E-02  0.1406579E+00
          3   -1    0    0  501    0  0.00000000000E+00  0.00000000000E+00  0.13591346282E+03  0.13591346282E+03  0.00000000000E+00 0. -1.
         -3   -1    0    0    0  501 -0.00000000000E+00 -0.00000000000E+00 -0.11021154874E+03  0.11021154874E+03  0.00000000000E+00 0.  1.
         25    2    1    2    0    0  0.12651121448E+02  0.18377845422E+02  0.65760790997E+02  0.14307438428E+03  0.12509197308E+03 0.  0.
         23    2    1    2    0    0 -0.12651121448E+02 -0.18377845422E+02 -0.40058876919E+02  0.10305062728E+03  0.92287171844E+02 0.  0.
          5    1    3    3  502    0  0.21608808931E+01  0.27066481175E+02 -0.33200283352E+02  0.43092865118E+02  0.41800000000E+01 0.  1.
         -5    1    3    3    0  502  0.10490240554E+02 -0.86886357527E+01  0.98961074348E+02  0.99981519164E+02  0.41800000000E+01 0.  1.
        -11    1    4    4    0    0  0.29289190210E+02 -0.26250151498E+01 -0.49207689801E+02  0.57324899505E+02  0.00000000000E+00 0. -1.
         11    1    4    4    0    0 -0.41940311658E+02 -0.15752830273E+02  0.91488128825E+01  0.45725727777E+02  0.00000000000E+00 0.  1.
</event>
<event>
 8    1  0.7192024E-009  0.5875989E+02  0.7561462E-02  0.1403111E+00
         -2   -1    0    0    0  501 -0.00000000000E+00  0.00000000000E+00  0.26601005963E+02  0.26601005963E+02  0.00000000000E+00 0.  1.
          2   -1    0    0  501    0  0.00000000000E+00 -0.00000000000E+00 -0.59836328889E+03  0.59836328889E+03  0.00000000000E+00 0. -1.
         25    2    1    2    0    0  0.59778769091E+01 -0.14659191752E+02 -0.46772888293E+03  0.48442445448E+03  0.12508444050E+03 0.  0.
         23    2    1    2    0    0 -0.59778769091E+01  0.14659191752E+02 -0.10403340000E+03  0.14053984038E+03  0.93155093809E+02 0.  0.
          5    1    3    3  502    0  0.13944597201E+02 -0.10021304173E+02 -0.47278144008E+03  0.47311165787E+03  0.41800000000E+01 0. -1.
         -5    1    3    3    0  502 -0.79667202921E+01 -0.46378875786E+01  0.50525571489E+01  0.11312796610E+02  0.41800000000E+01 0. -1.
        -11    1    4    4    0    0 -0.40725340710E+02 -0.15636964095E+02 -0.72750582221E+02  0.84827561768E+02  0.00000000000E+00 0.  1.
         11    1    4    4    0    0  0.34747463801E+02  0.30296155847E+02 -0.31282817781E+02  0.55712278611E+02  0.00000000000E+00 0. -1.
</event>
<event>
 8    1  0.7192024E-009  0.1047814E+03  0.7561462E-02  0.1270551E+00
          1   -1    0    0  501    0  0.00000000000E+00  0.00000000000E+00  0.38797915643E+02  0.38797915643E+02  0.00000000000E+00 0. -1.
         -1   -1    0    0    0  501 -0.00000000000E+00 -0.00000000000E+00 -0.47279111189E+03  0.47279111189E+03  0.00000000000E+00 0.  1.
         25    2    1    2    0    0  0.81672989308E+02  0.13311147982E+02 -0.23224365495E+03  0.27646595680E+03  0.12509454889E+03 0.  0.
         23    2    1    2    0    0 -0.81672989308E+02 -0.13311147982E+02 -0.20174954130E+03  0.23512307074E+03  0.87933595022E+02 0.  0.
          5    1    3    3  502    0  0.75900204414E+02  0.21353024151E+02 -0.49039557479E+02  0.92946991711E+02  0.41800000000E+01 0.  1.
         -5    1    3    3    0  502  0.57727848941E+01 -0.80418761689E+01 -0.18320409747E+03  0.18351896509E+03  0.41800000000E+01 0.  1.
        -11    1    4    4    0    0 -0.72041118825E+01 -0.40082726799E+02 -0.82512365128E+02  0.92015295547E+02  0.00000000000E+00 0.  1.
         11    1    4    4    0    0 -0.74468877425E+02  0.26771578817E+02 -0.11923717618E+03  0.14310777519E+03  0.00000000000E+00 0. -1.
</event>
<event>
 8    1  0.7192024E-009  0.9021879E+02  0.7561462E-02  0.1302323E+00
          2   -1    0    0  501    0  0.00000000000E+00  0.00000000000E+00  0.55659370118E+03  0.55659370118E+03  0.00000000000E+00 0. -1.
         -2   -1    0    0    0  501 -0.00000000000E+00 -0.00000000000E+00 -0.21459611820E+02  0.21459611820E+02  0.00000000000E+00 0.  1.
         25    2    1    2    0    0 -0.10035809321E+02 -0.14733205931E+00  0.35442336666E+03  0.37598420240E+03  0.12508980151E+03 0.  0.
         23    2    1    2    0    0  0.10035809321E+02  0.14733205931E+00  0.18071072270E+03  0.20206911060E+03  0.89860007711E+02 0.  0.
          5    1    3    3  502    0 -0.58853700794E+02 -0.10495799106E+02  0.99218084473E+02  0.11591212440E+03  0.41800000000E+01 0.  1.
         -5    1    3    3    0  502  0.48817891473E+02  0.10348467046E+02  0.25520528219E+03  0.26007207800E+03  0.41800000000E+01 0.  1.
        -11    1    4    4    0    0  0.28045551908E+02 -0.26291349720E+02  0.15857328054E+03  0.16316639775E+03  0.00000000000E+00 0. -1.
         11    1    4    4    0    0 -0.18009742587E+02  0.26438681780E+02  0.22137442159E+02  0.38902712857E+02  0.00000000000E+00 0.  1.
</event>
<event>
 8    1  0.7192024E-009  0.3023971E+03  0.7561462E-02  0.1084048E+00
         -1   -1    0    0    0  501 -0.00000000000E+00  0.00000000000E+00  0.25649904348E+03  0.25649904348E+03  0.00000000000E+00 0.  1.
          1   -1    0    0  501    0  0.00000000000E+00 -0.00000000000E+00 -0.39052851135E+03  0.39052851135E+03  0.00000000000E+00 0. -1.
         25    2    1    2    0    0 -0.66263142030E+02 -0.28323472179E+03 -0.74270244706E+01  0.31672576892E+03  0.12508932963E+03 0.  0.
         23    2    1    2    0    0  0.66263142030E+02  0.28323472179E+03 -0.12660244340E+03  0.33030178591E+03  0.91969448614E+02 0.  0.
          5    1    3    3  502    0 -0.14411399080E+02  0.85236789025E-02 -0.23960140884E+02  0.28270996574E+02  0.41800000000E+01 0.  1.
         -5    1    3    3    0  502 -0.51851742950E+02 -0.28324324547E+03  0.16533116413E+02  0.28845477235E+03  0.41800000000E+01 0.  1.
        -11    1    4    4    0    0  0.77024445387E+02  0.15460704429E+03 -0.96119503582E+02  0.19767413159E+03  0.00000000000E+00 0. -1.
         11    1    4    4    0    0 -0.10761303357E+02  0.12862767750E+03 -0.30482939816E+02  0.13262765432E+03  0.00000000000E+00 0.  1.
</event>
<event>
 8    1  0.7192024E-009  0.1010437E+03  0.7561462E-02  0.1278116E+00
         -2   -1    0    0    0  501 -0.00000000000E+00  0.00000000000E+00  0.44045583713E+03  0.44045583713E+03  0.00000000000E+00 0.  1.
          2   -1    0    0  501    0  0.00000000000E+00 -0.00000000000E+00 -0.29876316473E+02  0.29876316473E+02  0.00000000000E+00 0. -1.
         25    2    1    2    0    0 -0.14397230092E+02 -0.21950646894E+02  0.17167690280E+03  0.21403666871E+03  0.12509846308E+03 0.  0.
         23    2    1    2    0    0  0.14397230092E+02  0.21950646894E+02  0.23890261787E+03  0.25629548490E+03  0.89015749291E+02 0.  0.
          5    1    3    3  502    0  0.40642082194E+02 -0.49419188778E+02  0.68394990569E+02  0.93751705048E+02  0.41800000000E+01 0.  1.
         -5    1    3    3    0  502 -0.55039312285E+02  0.27468541884E+02  0.10328191223E+03  0.12028496366E+03  0.41800000000E+01 0.  1.
        -11    1    4    4    0    0  0.38949165356E+02 -0.56660920112E+01  0.49094726471E+02  0.62924035534E+02  0.00000000000E+00 0. -1.
         11    1    4    4    0    0 -0.24551935264E+02  0.27616738906E+02  0.18980789139E+03  0.19337144936E+03  0.00000000000E+00 0.  1.
</event>
<event>
 8    1  0.7192024E-009  0.3724507E+03  0.7561462E-02  0.1053760E+00
         -2   -1    0    0    0  501 -0.00000000000E+00  0.00000000000E+00  0.13416216104E+04  0.13416216104E+04  0.00000000000E+00 0.  1.
          2   -1    0    0  501    0  0.00000000000E+00 -0.00000000000E+00 -0.10936669660E+03  0.10936669660E+03  0.00000000000E+00 0. -1.
         25    2    1    2    0    0  0.31864533300E+03 -0.16924220798E+03  0.75208167199E+03  0.84347642001E+03  0.12509139289E+03 0.  0.
         23    2    1    2    0    0 -0.31864533300E+03  0.16924220798E+03  0.48017324181E+03  0.60751188698E+03  0.91250082027E+02 0.  0.
          5    1    3    3  502    0  0.22094071602E+03 -0.17686237385E+03  0.53486965031E+03  0.60514305292E+03  0.41800000000E+01 0.  1.
         -5    1    3    3    0  502  0.97704616976E+02  0.76201658729E+01  0.21721202168E+03  0.23833336709E+03  0.41800000000E+01 0.  1.
        -11    1    4    4    0    0 -0.23259051419E+03  0.99404934676E+02  0.38898240924E+03  0.46399030488E+03  0.00000000000E+00 0.  1.
         11    1    4    4    0    0 -0.86054818813E+02  0.69837273303E+02  0.91190832570E+02  0.14352158210E+03  0.00000000000E+00 0. -1.
</event>
<event>
 8    1  0.7192024E-009  0.1230332E+03  0.7561462E-02  0.1238175E+00
         -2   -1    0    0    0  501 -0.00000000000E+00  0.00000000000E+00  0.10230593532E+03  0.10230593532E+03  0.00000000000E+00 0.  1.
          2   -1    0    0  501    0  0.00000000000E+00 -0.00000000000E+00 -0.68298301866E+03  0.68298301866E+03  0.00000000000E+00 0. -1.
         25    2    1    2    0    0  0.67471235514E+02  0.34285655274E+02 -0.63624820082E+03  0.65283083360E+03  0.12509376668E+03 0.  0.
         23    2    1    2    0    0 -0.67471235514E+02 -0.34285655274E+02  0.55571117479E+02  0.13245812039E+03  0.93429817399E+02 0.  0.
          5    1    3    3  502    0 -0.13551874354E+02  0.46826811257E+02 -0.39452853088E+03  0.39755079880E+03  0.41800000000E+01 0.  1.
         -5    1    3    3    0  502  0.81023109868E+02 -0.12541155983E+02 -0.24171966995E+03  0.25528003480E+03  0.41800000000E+01 0.  1.
        -11    1    4    4    0    0 -0.16572136522E+02 -0.56961348406E+02  0.47825952880E+02  0.76200739432E+02  0.00000000000E+00 0.  1.
         11    1    4    4    0    0 -0.50899098992E+02  0.22675693132E+02  0.77451645985E+01  0.56257380955E+02  0.00000000000E+00 0. -1.
</event>
<event>
 8    1  0.7192024E-009  0.1261223E+03  0.7561462E-02  0.1233326E+00
          1   -1    0    0  501    0  0.00000000000E+00  0.00000000000E+00  0.46490519179E+02  0.46490519179E+02  0.00000000000E+00 0. -1.
         -1   -1    0    0    0  501 -0.00000000000E+00 -0.00000000000E+00 -0.42386234184E+03  0.42386234184E+03  0.00000000000E+00 0.  1.
         25    2    1    2    0    0  0.39177105205E+02 -0.77333259397E+02 -0.18293260236E+03  0.23796299141E+03  0.12508704846E+03 0.  0.
         23    2    1    2    0    0 -0.39177105205E+02  0.77333259397E+02 -0.19443922030E+03  0.23238986961E+03  0.93183488480E+02 0.  0.
          5    1    3    3  502    0 -0.34874409842E+02 -0.27866655374E+02 -0.14036703275E+02  0.46981660064E+02  0.41800000000E+01 0. -1.
         -5    1    3    3    0  502  0.74051515047E+02 -0.49466604023E+02 -0.16889589908E+03  0.19098133134E+03  0.41800000000E+01 0. -1.
        -11    1    4    4    0    0 -0.56908197834E+02  0.23483182715E+02 -0.57752169283E+02  0.84411586338E+02  0.00000000000E+00 0.  1.
         11    1    4    4    0    0  0.17731092629E+02  0.53850076682E+02 -0.13668705102E+03  0.14797828328E+03  0.00000000000E+00 0. -1.
</event>
<event>
 8    1  0.7192024E-009  0.1065193E+03  0.7561462E-02  0.1267155E+00
         -2   -1    0    0    0  501 -0.00000000000E+00  0.00000000000E+00  0.19952884156E+02  0.19952884156E+02  0.00000000000E+00 0. -1.
          2   -1    0    0  501    0  0.00000000000E+00 -0.00000000000E+00 -0.15709024057E+04  0.15709024057E+04  0.00000000000E+00 0.  1.
         25    2    1    2    0    0 -0.55867635744E+00 -0.44690578696E+02 -0.14165480901E+04  0.14227625486E+04  0.12508884133E+03 0.  0.
         23    2    1    2    0    0  0.55867635744E+00  0.44690578696E+02 -0.13440143141E+03  0.16809274121E+03  0.90519969834E+02 0.  0.
          5    1    3    3  502    0 -0.39781094088E+02 -0.71167284851E+02 -0.10461033591E+04  0.10492840551E+04  0.41800000000E+01 0. -1.
         -5    1    3    3    0  502  0.39222417730E+02  0.26476706155E+02 -0.37044473095E+03  0.37347849350E+03  0.41800000000E+01 0. -1.
        -11    1    4    4    0    0  0.34126564334E+02  0.98641694122E+01 -0.13724314950E+02  0.38082555748E+02  0.00000000000E+00 0. -1.
         11    1    4    4    0    0 -0.33567887976E+02  0.34826409284E+02 -0.12067711646E+03  0.13001018546E+03  0.00000000000E+00 0.  1.
</event>
<event>
 8    1  0.7192024E-009  0.1134576E+03  0.7561462E-02  0.1254298E+00
          1   -1    0    0  501    0  0.00000000000E+00  0.00000000000E+00  0.25052189097E+03  0.25052189097E+03  0.00000000000E+00 0. -1.
         -1   -1    0    0    0  501 -0.00000000000E+00 -0.00000000000E+00 -0.58683716814E+02  0.58683716814E+02  0.00000000000E+00 0.  1.
         25    2    1    2    0    0 -0.27085568145E+02  0.91177150601E+01  0.15770850518E+03  0.20331872220E+03  0.12509903862E+03 0.  0.
         23    2    1    2    0    0  0.27085568145E+02 -0.91177150601E+01  0.34129668984E+02  0.10588688559E+03  0.96075165909E+02 0.  0.
          5    1    3    3  502    0 -0.37517767398E+02  0.62477420823E+02  0.78949459677E+02  0.10752441847E+03  0.41800000000E+01 0. -1.
         -5    1    3    3    0  502  0.10432199252E+02 -0.53359705763E+02  0.78759045499E+02  0.95794303736E+02  0.41800000000E+01 0. -1.
        -11    1    4    4    0    0  0.56688892038E+02  0.17757858752E+02  0.13603870883E+02  0.60942902220E+02  0.00000000000E+00 0.  1.
         11    1    4    4    0    0 -0.29603323893E+02 -0.26875573812E+02  0.20525798100E+02  0.44943983366E+02  0.00000000000E+00 0. -1.
</event>
<event>
 8    1  0.7192024E-009  0.1022867E+03  0.7561462E-02  0.1275560E+00
          1   -1    0    0  501    0  0.00000000000E+00  0.00000000000E+00  0.71893656470E+02  0.71893656470E+02  0.00000000000E+00 0. -1.
         -1   -1    0    0    0  501 -0.00000000000E+00 -0.00000000000E+00 -0.25244350480E+03  0.25244350480E+03  0.00000000000E+00 0.  1.
         25    2    1    2    0    0 -0.68975677394E+02  0.24489629210E+02 -0.79388238343E+02  0.16524188363E+03  0.12507998125E+03 0.  0.
         23    2    1    2    0    0  0.68975677394E+02 -0.24489629210E+02 -0.10116160998E+03  0.15909527763E+03  0.98591328316E+02 0.  0.
          5    1    3    3  502    0  0.13121313005E+02  0.23689157904E+02 -0.78376670187E+02  0.83028428185E+02  0.41800000000E+01 0.  1.
         -5    1    3    3    0  502 -0.82096990399E+02  0.80047130551E+00 -0.10115681556E+01  0.82213455450E+02  0.41800000000E+01 0.  1.
        -11    1    4    4    0    0  0.18095014417E+02 -0.38200475804E+02 -0.97505031056E+02  0.10627293625E+03  0.00000000000E+00 0.  1.
         11    1    4    4    0    0  0.50880662977E+02  0.13710846594E+02 -0.36565789268E+01  0.52822341378E+02  0.00000000000E+00 0. -1.
</event>
<event>
 8    1  0.7192024E-009  0.9903157E+02  0.7561462E-02  0.1282346E+00
          1   -1    0    0  501    0  0.00000000000E+00  0.00000000000E+00  0.22346765347E+02  0.22346765347E+02  0.00000000000E+00 0. -1.
         -1   -1    0    0    0  501 -0.00000000000E+00 -0.00000000000E+00 -0.66448783561E+03  0.66448783561E+03  0.00000000000E+00 0.  1.
         25    2    1    2    0    0  0.45106300359E+02 -0.35810556817E+02 -0.37175462405E+03  0.39644108465E+03  0.12508820404E+03 0.  0.
         23    2    1    2    0    0 -0.45106300359E+02  0.35810556817E+02 -0.27038644622E+03  0.29039351630E+03  0.88896511190E+02 0.  0.
          5    1    3    3  502    0  0.56549059767E+02 -0.54792255425E+02 -0.11943854135E+03  0.14311891899E+03  0.41800000000E+01 0. -1.
         -5    1    3    3    0  502 -0.11442759408E+02  0.18981698609E+02 -0.25231608270E+03  0.25332216566E+03  0.41800000000E+01 0. -1.
        -11    1    4    4    0    0  0.14377203205E+02  0.34259383547E+02 -0.51112986777E+02  0.63189767766E+02  0.00000000000E+00 0. -1.
         11    1    4    4    0    0 -0.59483503564E+02  0.15511732695E+01 -0.21927345944E+03  0.22720374854E+03  0.00000000000E+00 0.  1.
</event>
<event>
 8    1  0.7192024E-009  0.1217355E+03  0.7561462E-02  0.1240261E+00
         -1   -1    0    0    0  501 -0.00000000000E+00  0.00000000000E+00  0.64009220808E+03  0.64009220808E+03  0.00000000000E+00 0.  1.
          1   -1    0    0  501    0  0.00000000000E+00 -0.00000000000E+00 -0.30428661532E+02  0.30428661532E+02  0.00000000000E+00 0. -1.
         25    2    1    2    0    0  0.77243864079E+02 -0.13292965598E+02  0.41901371509E+03  0.44425595252E+03  0.12509012927E+03 0.  0.
         23    2    1    2    0    0 -0.77243864079E+02  0.13292965598E+02  0.19064983146E+03  0.22626491709E+03  0.93301323684E+02 0.  0.
          5    1    3    3  502    0 -0.30141838537E+02 -0.25094462281E+02  0.10641645078E+03  0.11349095058E+03  0.41800000000E+01 0. -1.
         -5    1    3    3    0  502  0.10738570262E+03  0.11801496683E+02  0.31259726431E+03  0.33076500194E+03  0.41800000000E+01 0. -1.
        -11    1    4    4    0    0 -0.36237392120E+02  0.34251603044E+02  0.16741605985E+03  0.17468388018E+03  0.00000000000E+00 0.  1.
         11    1    4    4    0    0 -0.41006471960E+02 -0.20958637445E+02  0.23233771605E+02  0.51581036914E+02  0.00000000000E+00 0. -1.
</event>
<event>
 8    1  0.7192024E-009  0.1332483E+03  0.7561462E-02  0.1222714E+00
         -2   -1    0    0    0  501 -0.00000000000E+00  0.00000000000E+00  0.21858126653E+03  0.21858126653E+03  0.00000000000E+00 0.  1.
          2   -1    0    0  501    0  0.00000000000E+00 -0.00000000000E+00 -0.10607218515E+03  0.10607218515E+03  0.00000000000E+00 0. -1.
         25    2    1    2    0    0  0.10326291097E+03  0.52513285339E+01  0.89841946817E+02  0.18550133366E+03  0.12509342168E+03 0.  0.
         23    2    1    2    0    0 -0.10326291097E+03 -0.52513285339E+01  0.22667134572E+02  0.13915211802E+03  0.90325565187E+02 0.  0.
          5    1    3    3  502    0  0.13179947349E+03 -0.41377319813E+01  0.74472065094E+02  0.15149845846E+03  0.41800000000E+01 0.  1.
         -5    1    3    3    0  502 -0.28536562513E+02  0.93890605152E+01  0.15369881723E+02  0.34002875196E+02  0.41800000000E+01 0.  1.
        -11    1    4    4    0    0 -0.64466199558E+02 -0.96706719495E+01  0.57426487184E+02  0.86874704096E+02  0.00000000000E+00 0.  1.
         11    1    4    4    0    0 -0.38796711414E+02  0.44193434156E+01 -0.34759352612E+02  0.52277413926E+02  0.00000000000E+00 0. -1.
</event>
<event>
 8    1  0.7192024E-009  0.6091626E+02  0.7561462E-02  0.1394026E+00
          2   -1    0    0  501    0  0.00000000000E+00  0.00000000000E+00  0.27182958331E+02  0.27182958331E+02  0.00000000000E+00 0. -1.
         -2   -1    0    0    0  501 -0.00000000000E+00 -0.00000000000E+00 -0.47542328861E+03  0.47542328861E+03  0.00000000000E+00 0.  1.
         25    2    1    2    0    0  0.21886642797E+02  0.40526371377E+01 -0.19094854950E+03  0.22935785837E+03  0.12509288404E+03 0.  0.
         23    2    1    2    0    0 -0.21886642797E+02 -0.40526371377E+01 -0.25729178078E+03  0.27324838857E+03  0.89275822039E+02 0.  0.
          5    1    3    3  502    0  0.23067490023E+01  0.98523888024E+01 -0.20430719880E+03  0.20460032878E+03  0.41800000000E+01 0.  1.
         -5    1    3    3    0  502  0.19579893795E+02 -0.57997516646E+01  0.13358649296E+02  0.24757529590E+02  0.41800000000E+01 0.  1.
        -11    1    4    4    0    0  0.19742710456E+02  0.30233831193E+02 -0.13183936441E+03  0.13669483229E+03  0.00000000000E+00 0.  1.
         11    1    4    4    0    0 -0.41629353252E+02 -0.34286468330E+02 -0.12545241637E+03  0.13655355629E+03  0.00000000000E+00 0. -1.
</event>
<event>
 8    1  0.7192024E-009  0.1113942E+03  0.7561462E-02  0.1258010E+00
         -2   -1    0    0    0  501 -0.00000000000E+00  0.00000000000E+00  0.31794965593E+02  0.31794965593E+02  0.00000000000E+00 0.  1.
          2   -1    0    0  501    0  0.00000000000E+00 -0.00000000000E+00 -0.51280896764E+03  0.51280896764E+03  0.00000000000E+00 0. -1.
         25    2    1    2    0    0  0.16151807923E+02  0.66158353882E+02 -0.25529064591E+03  0.29233364987E+03  0.12509132772E+03 0.  0.
         23    2    1    2    0    0 -0.16151807923E+02 -0.66158353882E+02 -0.22572335614E+03  0.25227028336E+03  0.89729892863E+02 0.  0.
          5    1    3    3  502    0  0.43426852752E+02 -0.20787932465E+02 -0.11787345153E+03  0.12739565397E+03  0.41800000000E+01 0. -1.
         -5    1    3    3    0  502 -0.27275044829E+02  0.86946286347E+02 -0.13741719438E+03  0.16493799590E+03  0.41800000000E+01 0. -1.
        -11    1    4    4    0    0  0.17159575376E+01 -0.65332129961E+02 -0.22507522247E+03  0.23437168661E+03  0.00000000000E+00 0. -1.
         11    1    4    4    0    0 -0.17867765460E+02 -0.82622392018E+00 -0.64813367406E+00  0.17898596754E+02  0.00000000000E+00 0.  1.
</event>
<event>
 8    1  0.7192024E-009  0.1625537E+03  0.7561462E-02  0.1185843E+00
         -2   -1    0    0    0  501 -0.00000000000E+00  0.00000000000E+00  0.16755138348E+03  0.16755138348E+03  0.00000000000E+00 0.  1.
          2   -1    0    0  501    0  0.00000000000E+00 -0.00000000000E+00 -0.26284520854E+03  0.26284520854E+03  0.00000000000E+00 0. -1.
         25    2    1    2    0    0  0.93170873132E+02  0.10087226441E+03 -0.17124189892E+03  0.25264166637E+03  0.12509195943E+03 0.  0.
         23    2    1    2    0    0 -0.93170873132E+02 -0.10087226441E+03  0.75948073860E+02  0.17775492565E+03  0.83502564887E+02 0.  0.
          5    1    3    3  502    0  0.10238710598E+03  0.36414669079E+02 -0.14739805214E+03  0.18317424974E+03  0.41800000000E+01 0. -1.
         -5    1    3    3    0  502 -0.92162328468E+01  0.64457595333E+02 -0.23843846780E+02  0.69467416631E+02  0.41800000000E+01 0. -1.
        -11    1    4    4    0    0 -0.60591635180E+02 -0.10185617674E+03  0.31488787866E+02  0.12262777318E+03  0.00000000000E+00 0. -1.
         11    1    4    4    0    0 -0.32579237951E+02  0.98391232277E+00  0.44459285994E+02  0.55127152476E+02  0.00000000000E+00 0.  1.
</event>
<event>
 8    1  0.7192024E-009  0.1272064E+03  0.7561462E-02  0.1231661E+00
         -1   -1    0    0    0  501 -0.00000000000E+00  0.00000000000E+00  0.22711863953E+02  0.22711863953E+02  0.00000000000E+00 0.  1.
          1   -1    0    0  501    0  0.00000000000E+00 -0.00000000000E+00 -0.96156426153E+03  0.96156426153E+03  0.00000000000E+00 0. -1.
         25    2    1    2    0    0 -0.88144112124E+02 -0.42916379091E+02 -0.57980201830E+03  0.60118956533E+03  0.12508921994E+03 0.  0.
         23    2    1    2    0    0  0.88144112124E+02  0.42916379091E+02 -0.35905037928E+03  0.38308656015E+03  0.90702467501E+02 0.  0.
          5    1    3    3  502    0 -0.67522231436E+02  0.22455791403E+02 -0.43649770241E+03  0.44227958455E+03  0.41800000000E+01 0.  1.
         -5    1    3    3    0  502 -0.20621880687E+02 -0.65372170495E+02 -0.14330431589E+03  0.15890998078E+03  0.41800000000E+01 0.  1.
        -11    1    4    4    0    0  0.73369458952E+02  0.57862576506E+02 -0.34589192296E+03  0.35829091202E+03  0.00000000000E+00 0. -1.
         11    1    4    4    0    0  0.14774653172E+02 -0.14946197414E+02 -0.13158456318E+02  0.24795648130E+02  0.00000000000E+00 0.  1.
</event>
<event>
 8    1  0.7192024E-009  0.1676032E+03  0.7561462E-02  0.1180371E+00
          1   -1    0    0  501    0  0.00000000000E+00  0.00000000000E+00  0.56892033910E+03  0.56892033910E+03  0.00000000000E+00 0. -1.
         -1   -1    0    0    0  501 -0.00000000000E+00 -0.00000000000E+00 -0.11127183946E+03  0.11127183946E+03  0.00000000000E+00 0.  1.
         25    2    1    2    0    0 -0.14669105627E+03 -0.57995459821E+02  0.45506267662E+03  0.49760535226E+03  0.12508919856E+03 0.  0.
         23    2    1    2    0    0  0.14669105627E+03  0.57995459821E+02  0.25858230186E+01  0.18258682630E+03  0.91921288648E+02 0.  0.
          5    1    3    3  502    0 -0.12203053003E+03 -0.40341492868E+02  0.44812971592E+03  0.46621518743E+03  0.41800000000E+01 0.  1.
         -5    1    3    3    0  502 -0.24660526243E+02 -0.17653966953E+02  0.69329607035E+01  0.31390164827E+02  0.41800000000E+01 0.  1.
        -11    1    4    4    0    0  0.17112151242E+02  0.42103194530E+02  0.22185862928E+02  0.50573878867E+02  0.00000000000E+00 0. -1.
         11    1    4    4    0    0  0.12957890503E+03  0.15892265291E+02 -0.19600039909E+02  0.13201294743E+03  0.00000000000E+00 0.  1.
</event>
<event>
 8    1  0.7192024E-009  0.1340535E+03  0.7561462E-02  0.1221562E+00
          3   -1    0    0  501    0  0.00000000000E+00  0.00000000000E+00  0.42178763526E+03  0.42178763526E+03  0.00000000000E+00 0. -1.
         -3   -1    0    0    0  501 -0.00000000000E+00 -0.00000000000E+00 -0.49272370468E+02  0.49272370468E+02  0.00000000000E+00 0.  1.
         25    2    1    2    0    0  0.21274345929E+02 -0.77210971056E+02  0.11939939307E+03  0.19057395596E+03  0.12509230903E+03 0.  0.
         23    2    1    2    0    0 -0.21274345929E+02  0.77210971056E+02  0.25311587173E+03  0.28048604977E+03  0.90502197494E+02 0.  0.
          5    1    3    3  502    0 -0.39906754684E+02  0.93371046012E+01  0.45009834921E+02  0.61017114250E+02  0.41800000000E+01 0.  1.
         -5    1    3    3    0  502  0.61181100614E+02 -0.86548075657E+02  0.74389558148E+02  0.12955684171E+03  0.41800000000E+01 0.  1.
        -11    1    4    4    0    0 -0.56376345874E+02  0.36863945976E+02  0.14304701263E+03  0.15811290494E+03  0.00000000000E+00 0.  1.
         11    1    4    4    0    0  0.35101999944E+02  0.40347025080E+02  0.11006885910E+03  0.12237314483E+03  0.00000000000E+00 0. -1.
</event>
<event>
 8    1  0.7192024E-009  0.1071664E+03  0.7561462E-02  0.1265909E+00
         -2   -1    0    0    0  501 -0.00000000000E+00  0.00000000000E+00  0.25443929314E+03  0.25443929314E+03  0.00000000000E+00 0.  1.
          2   -1    0    0  501    0  0.00000000000E+00 -0.00000000000E+00 -0.64172929977E+02  0.64172929977E+02  0.00000000000E+00 0. -1.
         25    2    1    2    0    0  0.65737680687E+02 -0.15558472256E+02  0.84512474415E+02  0.16539123438E+03  0.12509353843E+03 0.  0.
         23    2    1    2    0    0 -0.65737680687E+02  0.15558472256E+02  0.10575388874E+03  0.15322098873E+03  0.87916310677E+02 0.  0.
          5    1    3    3  502    0  0.92456121570E+02 -0.97555672031E+01  0.19983958630E+02  0.95184749355E+02  0.41800000000E+01 0. -1.
         -5    1    3    3    0  502 -0.26718440883E+02 -0.58029050525E+01  0.64528515785E+02  0.70206485025E+02  0.41800000000E+01 0. -1.
        -11    1    4    4    0    0  0.18407046587E+00 -0.19121930103E+02 -0.49843830668E+01  0.19761734928E+02  0.00000000000E+00 0. -1.
         11    1    4    4    0    0 -0.65921751153E+02  0.34680402359E+02  0.11073827181E+03  0.13345925381E+03  0.00000000000E+00 0.  1.
</event>
<event>
 8    1  0.7192024E-009  0.9203019E+02  0.7561462E-02  0.1298008E+00
         -2   -1    0    0    0  501 -0.00000000000E+00  0.00000000000E+00  0.26222463101E+02  0.26222463101E+02  0.00000000000E+00 0.  1.
          2   -1    0    0  501    0  0.00000000000E+00 -0.00000000000E+00 -0.47360423259E+03  0.47360423259E+03  0.00000000000E+00 0. -1.
         25    2    1    2    0    0 -0.65013502586E+01  0.36551334673E+00 -0.18971064654E+03  0.22733323220E+03  0.12509143814E+03 0.  0.
         23    2    1    2    0    0  0.65013502586E+01 -0.36551334673E+00 -0.25767112295E+03  0.27249346350E+03  0.88407459462E+02 0.  0.
          5    1    3    3  502    0  0.11056849622E+02  0.45391180276E+02 -0.16756983377E+03  0.17401073173E+03  0.41800000000E+01 0.  1.
         -5    1    3    3    0  502 -0.17558199880E+02 -0.45025666929E+02 -0.22140812773E+02  0.53322500464E+02  0.41800000000E+01 0.  1.
        -11    1    4    4    0    0  0.20870632207E+02 -0.40749141259E+02 -0.13285111318E+03  0.14051866095E+03  0.00000000000E+00 0.  1.
         11    1    4    4    0    0 -0.14369281949E+02  0.40383627912E+02 -0.12482000977E+03  0.13197480255E+03  0.00000000000E+00 0. -1.
</event>
<event>
 8    1  0.7192024E-009  0.9433079E+02  0.7561462E-02  0.1292690E+00
         -2   -1    0    0    0  501 -0.00000000000E+00  0.00000000000E+00  0.73931317373E+02  0.73931317373E+02  0.00000000000E+00 0.  1.
          2   -1    0    0  501    0  0.00000000000E+00 -0.00000000000E+00 -0.34747135740E+03  0.34747135740E+03  0.00000000000E+00 0. -1.
         25    2    1    2    0    0 -0.32692732069E+02  0.87864662826E+02 -0.24022710261E+03  0.28661196228E+03  0.12509333471E+03 0.  0.
         23    2    1    2    0    0  0.32692732069E+02 -0.87864662826E+02 -0.33312937419E+02  0.13479071250E+03  0.90938279469E+02 0.  0.
          5    1    3    3  502    0 -0.11707767232E+02  0.29042434802E+02 -0.21786610225E+03  0.22014460190E+03  0.41800000000E+01 0.  1.
         -5    1    3    3    0  502 -0.20984964837E+02  0.58822228025E+02 -0.22361000355E+02  0.66467360380E+02  0.41800000000E+01 0.  1.
        -11    1    4    4    0    0  0.21790142590E+02 -0.72017978104E+02  0.20215987267E+02  0.77910754235E+02  0.00000000000E+00 0.  1.
         11    1    4    4    0    0  0.10902589479E+02 -0.15846684723E+02 -0.53528924686E+02  0.56879958264E+02  0.00000000000E+00 0. -1.
</event>
<event>
 8    1  0.7192024E-009  0.1068585E+03  0.7561462E-02  0.1266501E+00
         -3   -1    0    0    0  501 -0.00000000000E+00  0.00000000000E+00  0.64826978354E+03  0.64826978354E+03  0.00000000000E+00 0.  1.
          3   -1    0    0  501    0  0.00000000000E+00 -0.00000000000E+00 -0.32219919080E+02  0.32219919080E+02  0.00000000000E+00 0. -1.
         25    2    1    2    0    0 -0.58811859618E+02  0.39146581006E+02  0.48690633216E+03  0.50765825560E+03  0.12509132079E+03 0.  0.
         23    2    1    2    0    0  0.58811859618E+02 -0.39146581006E+02  0.12914353230E+03  0.17283144703E+03  0.90561401880E+02 0.  0.
          5    1    3    3  502    0 -0.29288007451E+02 -0.42006641111E+02  0.25580594870E+03  0.26091473908E+03  0.41800000000E+01 0. -1.
         -5    1    3    3    0  502 -0.29523852167E+02  0.81153222117E+02  0.23110038347E+03  0.24674351652E+03  0.41800000000E+01 0. -1.
        -11    1    4    4    0    0  0.18070781734E+02 -0.28541321103E+02  0.12618534159E+03  0.13062886586E+03  0.00000000000E+00 0.  1.
         11    1    4    4    0    0  0.40741077884E+02 -0.10605259903E+02  0.29581907038E+01  0.42202581165E+02  0.00000000000E+00 0. -1.
</event>
<event>
 8    1  0.7192024E-009  0.1275360E+03  0.7561462E-02  0.1231158E+00
          1   -1    0    0  501    0  0.00000000000E+00  0.00000000000E+00  0.16427176274E+03  0.16427176274E+03  0.00000000000E+00 0. -1.
         -1   -1    0    0    0  501 -0.00000000000E+00 -0.00000000000E+00 -0.11226653241E+03  0.11226653241E+03  0.00000000000E+00 0.  1.
         25    2    1    2    0    0 -0.22563561505E+02  0.78986575842E+02  0.35932740109E+02  0.15390525312E+03  0.12509065375E+03 0.  0.
         23    2    1    2    0    0  0.22563561505E+02 -0.78986575842E+02  0.16072490220E+02  0.12263304203E+03  0.89624464205E+02 0.  0.
          5    1    3    3  502    0 -0.94465596121E+01 -0.25815706238E+02 -0.20061636578E+02  0.34287458921E+02  0.41800000000E+01 0. -1.
         -5    1    3    3    0  502 -0.13117001893E+02  0.10480228208E+03  0.55994376687E+02  0.11961779420E+03  0.41800000000E+01 0. -1.
        -11    1    4    4    0    0 -0.13946225038E+02 -0.83607417867E+02  0.11984534305E+02  0.85605645711E+02  0.00000000000E+00 0.  1.
         11    1    4    4    0    0  0.36509786543E+02  0.46208420241E+01  0.40879559150E+01  0.37027396317E+02  0.00000000000E+00 0. -1.
</event>
<event>
 8    1  0.7192024E-009  0.1191390E+03  0.7561462E-02  0.1244524E+00
          4   -1    0    0  501    0  0.00000000000E+00  0.00000000000E+00  0.39085898422E+02  0.39085898422E+02  0.00000000000E+00 0. -1.
         -4   -1    0    0    0  501 -0.00000000000E+00 -0.00000000000E+00 -0.48863326892E+03  0.48863326892E+03  0.00000000000E+00 0.  1.
         25    2    1    2    0    0 -0.78034411243E+02 -0.28584968402E+02 -0.27851943682E+03  0.31642515257E+03  0.12508129652E+03 0.  0.
         23    2    1    2    0    0  0.78034411243E+02  0.28584968402E+02 -0.17102793368E+03  0.21129401477E+03  0.92131084991E+02 0.  0.
          5    1    3    3  502    0 -0.75466958946E+01  0.45581761040E+02 -0.10762666914E+03  0.11719906940E+03  0.41800000000E+01 0.  1.
         -5    1    3    3    0  502 -0.70487715348E+02 -0.74166729442E+02 -0.17089276768E+03  0.19922608317E+03  0.41800000000E+01 0.  1.
        -11    1    4    4    0    0  0.49630280723E+02  0.63710504806E+00 -0.16333509625E+03  0.17071005926E+03  0.00000000000E+00 0.  1.
         11    1    4    4    0    0  0.28404130520E+02  0.27947863354E+02 -0.76928374316E+01  0.40583955505E+02  0.00000000000E+00 0. -1.
</event>
<event>
 8    1  0.7192024E-009  0.3349949E+03  0.7561462E-02  0.1068948E+00
         -2   -1    0    0    0  501 -0.00000000000E+00  0.00000000000E+00  0.54187047258E+02  0.54187047258E+02  0.00000000000E+00 0.  1.
          2   -1    0    0  501    0  0.00000000000E+00 -0.00000000000E+00 -0.22883549408E+04  0.22883549408E+04  0.00000000000E+00 0. -1.
         25    2    1    2    0    0 -0.33068308082E+03  0.36891835597E+02 -0.11895472492E+04  0.12415251009E+04  0.12509840383E+03 0.  0.
         23    2    1    2    0    0  0.33068308082E+03 -0.36891835597E+02 -0.10446206443E+04  0.11010168871E+04  0.10145731973E+03 0.  0.
          5    1    3    3  502    0 -0.18564460502E+03  0.17133277331E+02 -0.87373976834E+03  0.89341822443E+03  0.41800000000E+01 0. -1.
         -5    1    3    3    0  502 -0.14503847579E+03  0.19758558266E+02 -0.31580748084E+03  0.34810687646E+03  0.41800000000E+01 0. -1.
        -11    1    4    4    0    0  0.24980368110E+03 -0.42112496566E+01 -0.87914824299E+03  0.91395910569E+03  0.00000000000E+00 0.  1.
         11    1    4    4    0    0  0.80879399712E+02 -0.32680585941E+02 -0.16547240135E+03  0.18705778145E+03  0.00000000000E+00 0. -1.
</event>
<event>
 8    1  0.7192024E-009  0.1455972E+03  0.7561462E-02  0.1205990E+00
          2   -1    0    0  501    0  0.00000000000E+00  0.00000000000E+00  0.26962856417E+03  0.26962856417E+03  0.00000000000E+00 0. -1.
         -2   -1    0    0    0  501 -0.00000000000E+00 -0.00000000000E+00 -0.99773846261E+02  0.99773846261E+02  0.00000000000E+00 0.  1.
         25    2    1    2    0    0 -0.45044133011E+02  0.10502696139E+03  0.14066300398E+03  0.22021003545E+03  0.12508693971E+03 0.  0.
         23    2    1    2    0    0  0.45044133011E+02 -0.10502696139E+03  0.29191713922E+02  0.14919237498E+03  0.91359575590E+02 0.  0.
          5    1    3    3  502    0  0.25086878824E+02  0.79586875010E+02  0.34513330710E+02  0.90399472121E+02  0.41800000000E+01 0. -1.
         -5    1    3    3    0  502 -0.70131011835E+02  0.25440086379E+02  0.10614967327E+03  0.12981056333E+03  0.41800000000E+01 0. -1.
        -11    1    4    4    0    0 -0.18213750792E+02 -0.23810420980E+02 -0.19035121426E+02  0.35510740810E+02  0.00000000000E+00 0.  1.
         11    1    4    4    0    0  0.63257883802E+02 -0.81216540410E+02  0.48226835348E+02  0.11368163417E+03  0.00000000000E+00 0. -1.
</event>
<event>
 8    1  0.7192024E-009  0.9859429E+02  0.7561462E-02  0.1283280E+00
          1   -1    0    0  501    0  0.00000000000E+00  0.00000000000E+00  0.68495377409E+02  0.68495377409E+02  0.00000000000E+00 0. -1.
         -1   -1    0    0    0  501 -0.00000000000E+00 -0.00000000000E+00 -0.22074681438E+03  0.22074681438E+03  0.00000000000E+00 0.  1.
         25    2    1    2    0    0  0.56951696542E+02  0.35928705163E+02 -0.94543589650E+02  0.17064732676E+03  0.12509057595E+03 0.  0.
         23    2    1    2    0    0 -0.56951696542E+02 -0.35928705163E+02 -0.57707847322E+02  0.11859486503E+03  0.78741213955E+02 0.  0.
          5    1    3    3  502    0  0.33346738904E+02 -0.25080416457E+02 -0.96342078391E+02  0.10507283547E+03  0.41800000000E+01 0. -1.
         -5    1    3    3    0  502  0.23604957639E+02  0.61009121621E+02  0.17984887408E+01  0.65574491289E+02  0.41800000000E+01 0. -1.
        -11    1    4    4    0    0 -0.55074332228E+02 -0.50673902893E+02 -0.19120965307E+02  0.77244014778E+02  0.00000000000E+00 0. -1.
         11    1    4    4    0    0 -0.18773643140E+01  0.14745197730E+02 -0.38586882015E+02  0.41350850251E+02  0.00000000000E+00 0.  1.
</event>
<event>
 8    1  0.7192024E-009  0.1737542E+03  0.7561462E-02  0.1173988E+00
         -2   -1    0    0    0  501 -0.00000000000E+00  0.00000000000E+00  0.21284737486E+03  0.21284737486E+03  0.00000000000E+00 0. -1.
          2   -1    0    0  501    0  0.00000000000E+00 -0.00000000000E+00 -0.17929753226E+03  0.17929753226E+03  0.00000000000E+00 0.  1.
         25    2    1    2    0    0  0.29617336102E+02 -0.15797967154E+03  0.40505863879E+02  0.20766049576E+03  0.12508954102E+03 0.  0.
         23    2    1    2    0    0 -0.29617336102E+02  0.15797967154E+03 -0.69560212789E+01  0.18448441136E+03  0.90284819236E+02 0.  0.
          5    1    3    3  502    0  0.58371109000E+02 -0.14062478129E+03 -0.32413323261E+01  0.15234990684E+03  0.41800000000E+01 0.  1.
         -5    1    3    3    0  502 -0.28753772898E+02 -0.17354890259E+02  0.43747196205E+02  0.55310588928E+02  0.41800000000E+01 0.  1.
        -11    1    4    4    0    0 -0.21373398137E+02  0.75778517232E+02  0.41197002801E+02  0.88861683878E+02  0.00000000000E+00 0. -1.
         11    1    4    4    0    0 -0.82439379650E+01  0.82201154312E+02 -0.48153024080E+02  0.95622727484E+02  0.00000000000E+00 0.  1.
</event>
<event>
 8    1  0.7192024E-009  0.9602226E+02  0.7561462E-02  0.1288890E+00
          2   -1    0    0  501    0  0.00000000000E+00  0.00000000000E+00  0.64673727292E+03  0.64673727292E+03  0.00000000000E+00 0. -1.
         -2   -1    0    0    0  501 -0.00000000000E+00 -0.00000000000E+00 -0.30874668872E+02  0.30874668872E+02  0.00000000000E+00 0.  1.
         25    2    1    2    0    0  0.42355436085E+02  0.19776083521E+02  0.52201762223E+03  0.53882675253E+03  0.12508714914E+03 0.  0.
         23    2    1    2    0    0 -0.42355436085E+02 -0.19776083521E+02  0.93844981824E+02  0.13878518927E+03  0.90936085800E+02 0.  0.
          5    1    3    3  502    0 -0.24226349235E+02 -0.69886360693E+01  0.36772005114E+03  0.36860719668E+03  0.41800000000E+01 0. -1.
         -5    1    3    3    0  502  0.66581785319E+02  0.26764719590E+02  0.15429757108E+03  0.17021955585E+03  0.41800000000E+01 0. -1.
        -11    1    4    4    0    0 -0.64604093460E+02 -0.28623811780E+02  0.90174675047E+02  0.11456213822E+03  0.00000000000E+00 0.  1.
         11    1    4    4    0    0  0.22248657375E+02  0.88477282594E+01  0.36703067765E+01  0.24223051050E+02  0.00000000000E+00 0. -1.
</event>
<event>
 8    1  0.7192024E-009  0.7944186E+02  0.7561462E-02  0.1330643E+00
         -1   -1    0    0    0  501 -0.00000000000E+00  0.00000000000E+00  0.88336829670E+02  0.88336829670E+02  0.00000000000E+00 0.  1.
          1   -1    0    0  501    0  0.00000000000E+00 -0.00000000000E+00 -0.18870773810E+03  0.18870773810E+03  0.00000000000E+00 0. -1.
         25    2    1    2    0    0  0.90028070858E+01 -0.69166384820E+02 -0.50011736532E+02  0.15170120613E+03  0.12508814023E+03 0.  0.
         23    2    1    2    0    0 -0.90028070858E+01  0.69166384820E+02 -0.50359171895E+02  0.12534336164E+03  0.91158503653E+02 0.  0.
          5    1    3    3  502    0  0.14293695387E+02 -0.51532282278E+02  0.35372966897E+02  0.64254221898E+02  0.41800000000E+01 0. -1.
         -5    1    3    3    0  502 -0.52908883015E+01 -0.17634102542E+02 -0.85384703429E+02  0.87446984231E+02  0.41800000000E+01 0. -1.
        -11    1    4    4    0    0  0.12468256194E+02  0.62717442089E+02 -0.70518770208E+02  0.95193654759E+02  0.00000000000E+00 0. -1.
         11    1    4    4    0    0 -0.21471063280E+02  0.64489427311E+01  0.20159598313E+02  0.30149706879E+02  0.00000000000E+00 0.  1.
</event>
<event>
 8    1  0.7192024E-009  0.8072591E+02  0.7561462E-02  0.1327004E+00
          1   -1    0    0  501    0  0.00000000000E+00  0.00000000000E+00  0.89760732978E+03  0.89760732978E+03  0.00000000000E+00 0. -1.
         -1   -1    0    0    0  501 -0.00000000000E+00 -0.00000000000E+00 -0.19505478839E+02  0.19505478839E+02  0.00000000000E+00 0.  1.
         25    2    1    2    0    0  0.12063171322E+02  0.31235075247E+02  0.72154311682E+03  0.73307154825E+03  0.12509306696E+03 0.  0.
         23    2    1    2    0    0 -0.12063171322E+02 -0.31235075247E+02  0.15655873413E+03  0.18404126037E+03  0.90771131202E+02 0.  0.
          5    1    3    3  502    0  0.42192531122E+02  0.50900262148E+01  0.83660036299E+02  0.93928654430E+02  0.41800000000E+01 0.  1.
         -5    1    3    3    0  502 -0.30129359801E+02  0.26145049032E+02  0.63788308052E+03  0.63914289382E+03  0.41800000000E+01 0.  1.
        -11    1    4    4    0    0 -0.42098558854E+02 -0.19433005108E+02  0.34515544672E+02  0.57803574017E+02  0.00000000000E+00 0.  1.
         11    1    4    4    0    0  0.30035387533E+02 -0.11802070138E+02  0.12204318946E+03  0.12623768636E+03  0.00000000000E+00 0. -1.
</event>
<event>
 8    1  0.7192024E-009  0.1054706E+03  0.7561462E-02  0.1269195E+00
         -3   -1    0    0    0  501 -0.00000000000E+00  0.00000000000E+00  0.11693314419E+03  0.11693314419E+03  0.00000000000E+00 0.  1.
          3   -1    0    0  501    0  0.00000000000E+00 -0.00000000000E+00 -0.10570521805E+03  0.10570521805E+03  0.00000000000E+00 0. -1.
         25    2    1    2    0    0 -0.20414209597E+02 -0.11195624520E+02 -0.20777723280E+02  0.12892406680E+03  0.12509044429E+03 0.  0.
         23    2    1    2    0    0  0.20414209597E+02  0.11195624520E+02  0.32005649416E+02  0.93714295442E+02  0.84946604487E+02 0.  0.
          5    1    3    3  502    0  0.32552244231E+02 -0.50482906186E+02 -0.20733113277E+01  0.60249011953E+02  0.41800000000E+01 0.  1.
         -5    1    3    3    0  502 -0.52966453828E+02  0.39287281666E+02 -0.18704411952E+02  0.68675054847E+02  0.41800000000E+01 0.  1.
        -11    1    4    4    0    0  0.67277943803E+01 -0.35426485726E+02  0.26632856123E+02  0.44828653040E+02  0.00000000000E+00 0.  1.
         11    1    4    4    0    0  0.13686415217E+02  0.46622110246E+02  0.53727932922E+01  0.48885642402E+02  0.00000000000E+00 0. -1.
</event>
<event>
 8    1  0.7192024E-009  0.9963762E+02  0.7561462E-02  0.1281060E+00
         -2   -1    0    0    0  501 -0.00000000000E+00  0.00000000000E+00  0.28404093512E+02  0.28404093512E+02  0.00000000000E+00 0.  1.
          2   -1    0    0  501    0  0.00000000000E+00 -0.00000000000E+00 -0.52134423685E+03  0.52134423685E+03  0.00000000000E+00 0. -1.
         25    2    1    2    0    0 -0.30987672089E+02 -0.33692787465E+02 -0.33862781090E+03  0.36388300648E+03  0.12508640351E+03 0.  0.
         23    2    1    2    0    0  0.30987672089E+02  0.33692787465E+02 -0.15431233245E+03  0.18586532389E+03  0.92941825515E+02 0.  0.
          5    1    3    3  502    0  0.31301287771E+02 -0.22308169475E+02 -0.25991792026E+03  0.26277789617E+03  0.41800000000E+01 0.  1.
         -5    1    3    3    0  502 -0.62288959860E+02 -0.11384617990E+02 -0.78709890633E+02  0.10110511031E+03  0.41800000000E+01 0.  1.
        -11    1    4    4    0    0 -0.29007715830E+02  0.14541319155E+01 -0.19978281221E+02  0.35251862332E+02  0.00000000000E+00 0. -1.
         11    1    4    4    0    0  0.59995387919E+02  0.32238655550E+02 -0.13433405122E+03  0.15061346156E+03  0.00000000000E+00 0.  1.
</event>
<event>
 8    1  0.7192024E-009  0.2242152E+03  0.7561462E-02  0.1130779E+00
          2   -1    0    0  501    0  0.00000000000E+00  0.00000000000E+00  0.90917388440E+03  0.90917388440E+03  0.00000000000E+00 0. -1.
         -2   -1    0    0    0  501 -0.00000000000E+00 -0.00000000000E+00 -0.67223898141E+02  0.67223898141E+02  0.00000000000E+00 0.  1.
         25    2    1    2    0    0 -0.10501651619E+03  0.18351427260E+03  0.30006811549E+03  0.38780669176E+03  0.12508876576E+03 0.  0.
         23    2    1    2    0    0  0.10501651619E+03 -0.18351427260E+03  0.54188187077E+03  0.58859109078E+03  0.89986406501E+02 0.  0.
          5    1    3    3  502    0 -0.11847863057E+03  0.17610354328E+03  0.30457232045E+03  0.37125653482E+03  0.41800000000E+01 0.  1.
         -5    1    3    3    0  502  0.13462114375E+02  0.74107293153E+01 -0.45042049652E+01  0.16550156942E+02  0.41800000000E+01 0.  1.
        -11    1    4    4    0    0  0.80340230457E+01 -0.71919749291E+02  0.10624714787E+03  0.12855136054E+03  0.00000000000E+00 0.  1.
         11    1    4    4    0    0  0.96982493149E+02 -0.11159452331E+03  0.43563472290E+03  0.46003973024E+03  0.00000000000E+00 0. -1.
</event>
<event>
 8    1  0.7192024E-009  0.1691170E+03  0.7561462E-02  0.1178772E+00
          2   -1    0    0  501    0  0.00000000000E+00  0.00000000000E+00  0.27430951071E+03  0.27430951071E+03  0.00000000000E+00 0.  1.
         -2   -1    0    0    0  501 -0.00000000000E+00 -0.00000000000E+00 -0.12800622391E+03  0.12800622391E+03  0.00000000000E+00 0. -1.
         25    2    1    2    0    0 -0.43943135065E+02 -0.14684360074E+03  0.85209632153E+02  0.21541187447E+03  0.12509017569E+03 0.  0.
         23    2    1    2    0    0  0.43943135065E+02  0.14684360074E+03  0.61093654639E+02  0.18690386015E+03  0.87787106703E+02 0.  0.
          5    1    3    3  502    0 -0.34709788775E+02 -0.93523390969E+01  0.67267772445E+02  0.76384954625E+02  0.41800000000E+01 0. -1.
         -5    1    3    3    0  502 -0.92333462899E+01 -0.13749126164E+03  0.17941859708E+02  0.13902691985E+03  0.41800000000E+01 0. -1.
        -11    1    4    4    0    0  0.46537173866E+02  0.53943006157E+02  0.61271683165E+02  0.93966885777E+02  0.00000000000E+00 0. -1.
         11    1    4    4    0    0 -0.25940388006E+01  0.92900594583E+02 -0.17802852593E+00  0.92936974371E+02  0.00000000000E+00 0.  1.
</event>
<event>
 8    1  0.7192024E-009  0.1443950E+03  0.7561462E-02  0.1207535E+00
         -2   -1    0    0    0  501 -0.00000000000E+00  0.00000000000E+00  0.15685335461E+04  0.15685335461E+04  0.00000000000E+00 0.  1.
          2   -1    0    0  501    0  0.00000000000E+00 -0.00000000000E+00 -0.28449639686E+02  0.28449639686E+02  0.00000000000E+00 0. -1.
         25    2    1    2    0    0 -0.10046440514E+03 -0.52947868738E+02  0.13355275728E+04  0.13461715902E+04  0.12508988383E+03 0.  0.
         23    2    1    2    0    0  0.10046440514E+03  0.52947868738E+02  0.20455633358E+03  0.25081159556E+03  0.90369183648E+02 0.  0.
          5    1    3    3  502    0 -0.23063565991E+02  0.39935743501E+02  0.46010411424E+03  0.46242843774E+03  0.41800000000E+01 0.  1.
         -5    1    3    3    0  502 -0.77400839152E+02 -0.92883612240E+02  0.87542345859E+03  0.88374315249E+03  0.41800000000E+01 0.  1.
        -11    1    4    4    0    0  0.48322462959E+02  0.16356704502E+01  0.15521580642E+03  0.16257208372E+03  0.00000000000E+00 0.  1.
         11    1    4    4    0    0  0.52141942183E+02  0.51312198288E+02  0.49340527161E+02  0.88239511832E+02  0.00000000000E+00 0. -1.
</event>
<event>
 8    1  0.7192024E-009  0.1065807E+03  0.7561462E-02  0.1267036E+00
          2   -1    0    0  501    0  0.00000000000E+00  0.00000000000E+00  0.14974375592E+02  0.14974375592E+02  0.00000000000E+00 0. -1.
         -2   -1    0    0    0  501 -0.00000000000E+00 -0.00000000000E+00 -0.78812272569E+03  0.78812272569E+03  0.00000000000E+00 0.  1.
         25    2    1    2    0    0 -0.23645366549E+02  0.11635489407E+02 -0.47647707465E+03  0.49332793580E+03  0.12509021387E+03 0.  0.
         23    2    1    2    0    0  0.23645366549E+02 -0.11635489407E+02 -0.29667127545E+03  0.30976916548E+03  0.85138723455E+02 0.  0.
          5    1    3    3  502    0  0.50290888761E+02  0.13355905024E+02 -0.23582390482E+03  0.24153248265E+03  0.41800000000E+01 0. -1.
         -5    1    3    3    0  502 -0.73936255310E+02 -0.17204156175E+01 -0.24065316983E+03  0.25179545315E+03  0.41800000000E+01 0. -1.
        -11    1    4    4    0    0 -0.27508660394E+02 -0.21344173856E+02 -0.15419255554E+03  0.15807480615E+03  0.00000000000E+00 0.  1.
         11    1    4    4    0    0  0.51154026942E+02  0.97086844495E+01 -0.14247871991E+03  0.15169435933E+03  0.00000000000E+00 0. -1.
</event>
<event>
 8    1  0.7192024E-009  0.1046018E+03  0.7561462E-02  0.1270906E+00
          2   -1    0    0  501    0  0.00000000000E+00  0.00000000000E+00  0.81396256903E+02  0.81396256903E+02  0.00000000000E+00 0. -1.
         -2   -1    0    0    0  501 -0.00000000000E+00 -0.00000000000E+00 -0.18619739381E+03  0.18619739381E+03  0.00000000000E+00 0.  1.
         25    2    1    2    0    0 -0.34998413040E+02  0.14179504772E+02 -0.10167844481E+02  0.13106192308E+03  0.12509154787E+03 0.  0.
         23    2    1    2    0    0  0.34998413040E+02 -0.14179504772E+02 -0.94633292422E+02  0.13653172763E+03  0.90881820764E+02 0.  0.
          5    1    3    3  502    0 -0.14917246171E+02 -0.55231020062E+02  0.32346555128E+01  0.57453678791E+02  0.41800000000E+01 0. -1.
         -5    1    3    3    0  502 -0.20081166869E+02  0.69410524834E+02 -0.13402499994E+02  0.73608244284E+02  0.41800000000E+01 0. -1.
        -11    1    4    4    0    0  0.16314733160E+02  0.28519019311E+02 -0.81857338732E+02  0.88205038886E+02  0.00000000000E+00 0.  1.
         11    1    4    4    0    0  0.18683679880E+02 -0.42698524083E+02 -0.12775953690E+02  0.48326688749E+02  0.00000000000E+00 0. -1.
</event>
<event>
 8    1  0.7192024E-009  0.1145574E+03  0.7561462E-02  0.1252356E+00
         -3   -1    0    0    0  501 -0.00000000000E+00  0.00000000000E+00  0.75059840362E+02  0.75059840362E+02  0.00000000000E+00 0.  1.
          3   -1    0    0  501    0  0.00000000000E+00 -0.00000000000E+00 -0.21474961810E+03  0.21474961810E+03  0.00000000000E+00 0. -1.
         25    2    1    2    0    0 -0.46153948564E+02  0.36912502417E+02 -0.81131747119E+02  0.16038161972E+03  0.12508870353E+03 0.  0.
         23    2    1    2    0    0  0.46153948564E+02 -0.36912502417E+02 -0.58558030621E+02  0.12942783874E+03  0.99145361407E+02 0.  0.
          5    1    3    3  502    0 -0.77977568123E+02  0.19666313982E+01 -0.81556453168E+02  0.11293049288E+03  0.41800000000E+01 0. -1.
         -5    1    3    3    0  502  0.31823619559E+02  0.34945871019E+02  0.42470604881E+00  0.47451126839E+02  0.41800000000E+01 0. -1.
        -11    1    4    4    0    0  0.33367160649E+02 -0.64792065724E+02 -0.65491175158E+02  0.97982004542E+02  0.00000000000E+00 0. -1.
         11    1    4    4    0    0  0.12786787916E+02  0.27879563307E+02  0.69331445373E+01  0.31445834200E+02  0.00000000000E+00 0.  1.
</event>
<event>
 8    1  0.7192024E-009  0.1478971E+03  0.7561462E-02  0.1203081E+00
         -1   -1    0    0    0  501 -0.00000000000E+00  0.00000000000E+00  0.89399747679E+02  0.89399747679E+02  0.00000000000E+00 0.  1.
          1   -1    0    0  501    0  0.00000000000E+00 -0.00000000000E+00 -0.34905014345E+03  0.34905014345E+03  0.00000000000E+00 0. -1.
         25    2    1    2    0    0  0.82960737037E+02  0.64091638677E+02 -0.24252513623E+02  0.16500405579E+03  0.12509169425E+03 0.  0.
         23    2    1    2    0    0 -0.82960737037E+02 -0.64091638677E+02 -0.23539788215E+03  0.27344583534E+03  0.91489015229E+02 0.  0.
          5    1    3    3  502    0  0.61121220868E+02  0.10215564889E+03 -0.18560605065E+02  0.12055516870E+03  0.41800000000E+01 0.  1.
         -5    1    3    3    0  502  0.21839516169E+02 -0.38064010214E+02 -0.56919085575E+01  0.44448887085E+02  0.41800000000E+01 0.  1.
        -11    1    4    4    0    0 -0.68520721576E+02 -0.16887000462E+01 -0.79889322811E+02  0.10526274219E+03  0.00000000000E+00 0.  1.
         11    1    4    4    0    0 -0.14440015461E+02 -0.62402938631E+02 -0.15550855934E+03  0.16818309316E+03  0.00000000000E+00 0. -1.
</event>
<event>
 8    1  0.7192024E-009  0.1538393E+03  0.7561462E-02  0.1195833E+00
          2   -1    0    0  501    0  0.00000000000E+00  0.00000000000E+00  0.87831838328E+03  0.87831838328E+03  0.00000000000E+00 0.  1.
         -2   -1    0    0    0  501 -0.00000000000E+00 -0.00000000000E+00 -0.36352222611E+02  0.36352222611E+02  0.00000000000E+00 0. -1.
         25    2    1    2    0    0  0.40840668046E+02 -0.13663122968E+03  0.43612375027E+03  0.47559075202E+03  0.12508630926E+03 0.  0.
         23    2    1    2    0    0 -0.40840668046E+02  0.13663122968E+03  0.40584241039E+03  0.43907985387E+03  0.88017060323E+02 0.  0.
          5    1    3    3  502    0  0.62348497381E+02 -0.12597015321E+03  0.42702403082E+03  0.44958070457E+03  0.41800000000E+01 0.  1.
         -5    1    3    3    0  502 -0.21507829335E+02 -0.10661076467E+02  0.90997194554E+01  0.26010047449E+02  0.41800000000E+01 0.  1.
        -11    1    4    4    0    0 -0.35057502544E+02  0.12272404423E+03  0.40426657460E+03  0.42393594193E+03  0.00000000000E+00 0.  1.
         11    1    4    4    0    0 -0.57831655020E+01  0.13907185448E+02  0.15758357874E+01  0.15143911937E+02  0.00000000000E+00 0. -1.
</event>
<event>
 8    1  0.7192024E-009  0.1154181E+03  0.7561462E-02  0.1250853E+00
          2   -1    0    0  501    0  0.00000000000E+00  0.00000000000E+00  0.45448164936E+03  0.45448164936E+03  0.00000000000E+00 0. -1.
         -2   -1    0    0    0  501 -0.00000000000E+00 -0.00000000000E+00 -0.45952588293E+02  0.45952588293E+02  0.00000000000E+00 0.  1.
         25    2    1    2    0    0 -0.49495873014E+02  0.81380288473E+02  0.24515950939E+03  0.29124702495E+03  0.12509616981E+03 0.  0.
         23    2    1    2    0    0  0.49495873014E+02 -0.81380288473E+02  0.16336955167E+03  0.20918721270E+03  0.89426432024E+02 0.  0.
          5    1    3    3  502    0  0.14438553433E+02 -0.11925540848E+02 -0.21102779727E+01  0.19303264566E+02  0.41800000000E+01 0. -1.
         -5    1    3    3    0  502 -0.63934426447E+02  0.93305829321E+02  0.24726978736E+03  0.27194376039E+03  0.41800000000E+01 0. -1.
        -11    1    4    4    0    0  0.63871658074E+01 -0.33213502906E+02  0.35458220596E+00  0.33823932221E+02  0.00000000000E+00 0.  1.
         11    1    4    4    0    0  0.43108707207E+02 -0.48166785567E+02  0.16301496947E+03  0.17536328047E+03  0.00000000000E+00 0. -1.
</event>
<event>
 8    1  0.7192024E-009  0.1420198E+03  0.7561462E-02  0.1210637E+00
         -1   -1    0    0    0  501 -0.00000000000E+00  0.00000000000E+00  0.25753138203E+02  0.25753138203E+02  0.00000000000E+00 0.  1.
          1   -1    0    0  501    0  0.00000000000E+00 -0.00000000000E+00 -0.10740534048E+04  0.10740534048E+04  0.00000000000E+00 0. -1.
         25    2    1    2    0    0  0.12570838218E+03 -0.23763784419E+01 -0.60291902391E+03  0.62846165744E+03  0.12507781959E+03 0.  0.
         23    2    1    2    0    0 -0.12570838218E+03  0.23763784419E+01 -0.44538124264E+03  0.47134488552E+03  0.89405286661E+02 0.  0.
          5    1    3    3  502    0  0.83412187366E+02  0.13982422880E+02 -0.55836829624E+03  0.56475280238E+03  0.41800000000E+01 0. -1.
         -5    1    3    3    0  502  0.42296194817E+02 -0.16358801322E+02 -0.44550727666E+02  0.63708855054E+02  0.41800000000E+01 0. -1.
        -11    1    4    4    0    0 -0.62013439406E+02 -0.43130609557E+02 -0.20058143918E+03  0.21433345490E+03  0.00000000000E+00 0.  1.
         11    1    4    4    0    0 -0.63694942777E+02  0.45506987999E+02 -0.24479980346E+03  0.25701143062E+03  0.00000000000E+00 0. -1.
</event>
<event>
 8    1  0.7192024E-009  0.2026126E+03  0.7561462E-02  0.1147553E+00
         -2   -1    0    0    0  501 -0.00000000000E+00  0.00000000000E+00  0.77175813905E+03  0.77175813905E+03  0.00000000000E+00 0.  1.
          2   -1    0    0  501    0  0.00000000000E+00 -0.00000000000E+00 -0.73910679376E+02  0.73910679376E+02  0.00000000000E+00 0. -1.
         25    2    1    2    0    0  0.18275356158E+03  0.21992059043E-01  0.16806819036E+03  0.27801699043E+03  0.12509062957E+03 0.  0.
         23    2    1    2    0    0 -0.18275356158E+03 -0.21992059043E-01  0.52977926931E+03  0.56765182799E+03  0.90352968278E+02 0.  0.
          5    1    3    3  502    0  0.18438842184E+03  0.33407664598E+02  0.14783830646E+03  0.23872326954E+03  0.41800000000E+01 0. -1.
         -5    1    3    3    0  502 -0.16348602647E+01 -0.33385672539E+02  0.20229883899E+02  0.39293720892E+02  0.41800000000E+01 0. -1.
        -11    1    4    4    0    0 -0.66942268779E+02  0.10714576726E+02  0.32638259303E+03  0.33334916610E+03  0.00000000000E+00 0.  1.
         11    1    4    4    0    0 -0.11581129280E+03 -0.10736568785E+02  0.20339667628E+03  0.23430266189E+03  0.00000000000E+00 0. -1.
</event>
<event>
 8    1  0.7192024E-009  0.9716396E+02  0.7561462E-02  0.1286375E+00
          2   -1    0    0  501    0  0.00000000000E+00  0.00000000000E+00  0.33277173434E+03  0.33277173434E+03  0.00000000000E+00 0. -1.
         -2   -1    0    0    0  501 -0.00000000000E+00 -0.00000000000E+00 -0.55170159918E+02  0.55170159918E+02  0.00000000000E+00 0.  1.
         25    2    1    2    0    0 -0.78176026460E+02  0.12856651975E+02  0.17161016417E+03  0.22665878795E+03  0.12508946037E+03 0.  0.
         23    2    1    2    0    0  0.78176026460E+02 -0.12856651975E+02  0.10599141026E+03  0.16128310631E+03  0.92202368298E+02 0.  0.
          5    1    3    3  502    0 -0.88324984945E+01  0.19191996641E+02 -0.15784555948E+02  0.26701505036E+02  0.41800000000E+01 0. -1.
         -5    1    3    3    0  502 -0.69343527965E+02 -0.63353446657E+01  0.18739472012E+03  0.19995728292E+03  0.41800000000E+01 0. -1.
        -11    1    4    4    0    0  0.80887085899E+01  0.22947066199E+02 -0.53712410281E+01  0.24916767126E+02  0.00000000000E+00 0.  1.
         11    1    4    4    0    0  0.70087317870E+02 -0.35803718175E+02  0.11136265128E+03  0.13636633918E+03  0.00000000000E+00 0. -1.
</event>
<event>
 8    1  0.7192024E-009  0.1162083E+03  0.7561462E-02  0.1249487E+00
         -1   -1    0    0    0  501 -0.00000000000E+00  0.00000000000E+00  0.18237781445E+03  0.18237781445E+03  0.00000000000E+00 0.  1.
          1   -1    0    0  501    0  0.00000000000E+00 -0.00000000000E+00 -0.83454694181E+02  0.83454694181E+02  0.00000000000E+00 0. -1.
         25    2    1    2    0    0  0.19157552812E+02 -0.46115834398E+02  0.89284597161E+02  0.16159374955E+03  0.12508844308E+03 0.  0.
         23    2    1    2    0    0 -0.19157552812E+02  0.46115834398E+02  0.96385231056E+01  0.10423875908E+03  0.90989756317E+02 0.  0.
          5    1    3    3  502    0  0.68146842337E+02 -0.82582925579E+01  0.27620194559E+02  0.74111666180E+02  0.41800000000E+01 0. -1.
         -5    1    3    3    0  502 -0.48989289525E+02 -0.37857541840E+02  0.61664402602E+02  0.87482083369E+02  0.41800000000E+01 0. -1.
        -11    1    4    4    0    0  0.89270988161E+01  0.66367929912E+02 -0.38570358421E+01  0.67076612463E+02  0.00000000000E+00 0.  1.
         11    1    4    4    0    0 -0.28084651628E+02 -0.20252095514E+02  0.13495558948E+02  0.37162146615E+02  0.00000000000E+00 0. -1.
</event>
<event>
 8    1  0.7192024E-009  0.3014237E+03  0.7561462E-02  0.1084531E+00
          2   -1    0    0  501    0  0.00000000000E+00  0.00000000000E+00  0.43401378663E+03  0.43401378663E+03  0.00000000000E+00 0. -1.
         -2   -1    0    0    0  501 -0.00000000000E+00 -0.00000000000E+00 -0.23869785897E+03  0.23869785897E+03  0.00000000000E+00 0.  1.
         25    2    1    2    0    0  0.28330432298E+03  0.62014834960E+02  0.81828231157E+01  0.31594486816E+03  0.12508805680E+03 0.  0.
         23    2    1    2    0    0 -0.28330432298E+03 -0.62014834960E+02  0.18713310454E+03  0.35676677743E+03  0.90313650631E+02 0.  0.
          5    1    3    3  502    0  0.22481923775E+02 -0.28643481622E+02 -0.13202947287E+02  0.38957363272E+02  0.41800000000E+01 0.  1.
         -5    1    3    3    0  502  0.26082239920E+03  0.90658316581E+02  0.21385770403E+02  0.27698750489E+03  0.41800000000E+01 0.  1.
        -11    1    4    4    0    0 -0.99243099224E+02 -0.23486736905E+02  0.17427508594E+02  0.10346273537E+03  0.00000000000E+00 0.  1.
         11    1    4    4    0    0 -0.18406122375E+03 -0.38528098055E+02  0.16970559595E+03  0.25330404206E+03  0.00000000000E+00 0. -1.
</event>
<event>
 8    1  0.7192024E-009  0.8396678E+02  0.7561462E-02  0.1318157E+00
         -1   -1    0    0    0  501 -0.00000000000E+00  0.00000000000E+00  0.16156521528E+02  0.16156521528E+02  0.00000000000E+00 0.  1.
          1   -1    0    0  501    0  0.00000000000E+00 -0.00000000000E+00 -0.80099392696E+03  0.80099392696E+03  0.00000000000E+00 0. -1.
         25    2    1    2    0    0  0.33501315368E+02 -0.15978935863E+01 -0.47714639092E+03  0.49441106468E+03  0.12509488845E+03 0.  0.
         23    2    1    2    0    0 -0.33501315368E+02  0.15978935863E+01 -0.30769101451E+03  0.32273938381E+03  0.91444289341E+02 0.  0.
          5    1    3    3  502    0  0.29086333484E+02 -0.29864091467E+02 -0.45706628012E+02  0.62003604725E+02  0.41800000000E+01 0. -1.
         -5    1    3    3    0  502  0.44149818846E+01  0.28266197881E+02 -0.43143976291E+03  0.43240745996E+03  0.41800000000E+01 0. -1.
        -11    1    4    4    0    0 -0.56258419596E+02  0.27520972655E+02 -0.18651473945E+03  0.19674898156E+03  0.00000000000E+00 0.  1.
         11    1    4    4    0    0  0.22757104228E+02 -0.25923079069E+02 -0.12117627506E+03  0.12599040225E+03  0.00000000000E+00 0. -1.
</event>
<event>
 8    1  0.7192024E-009  0.1618091E+03  0.7561462E-02  0.1186669E+00
         -3   -1    0    0    0  501 -0.00000000000E+00  0.00000000000E+00  0.14224991296E+03  0.14224991296E+03  0.00000000000E+00 0.  1.
          3   -1    0    0  501    0  0.00000000000E+00 -0.00000000000E+00 -0.76522065407E+03  0.76522065407E+03  0.00000000000E+00 0. -1.
         25    2    1    2    0    0  0.33629751229E+02 -0.12687217107E+03 -0.70415421641E+03  0.72712551997E+03  0.12510337067E+03 0.  0.
         23    2    1    2    0    0 -0.33629751229E+02  0.12687217107E+03  0.81183475293E+02  0.18034504706E+03  0.93306330861E+02 0.  0.
          5    1    3    3  502    0 -0.27390184162E+01  0.24341186555E+02 -0.74506109521E+02  0.78540615866E+02  0.41800000000E+01 0.  1.
         -5    1    3    3    0  502  0.36368769646E+02 -0.15121335763E+03 -0.62964810688E+03  0.64858490411E+03  0.41800000000E+01 0.  1.
        -11    1    4    4    0    0  0.61508152524E+01  0.85759706503E+02  0.87640730484E+02  0.12277400958E+03  0.00000000000E+00 0.  1.
         11    1    4    4    0    0 -0.39780566482E+02  0.41112464570E+02 -0.64572551905E+01  0.57571037486E+02  0.00000000000E+00 0. -1.
</event>
<event>
 8    1  0.7192024E-009  0.1534790E+03  0.7561462E-02  0.1196262E+00
          1   -1    0    0  501    0  0.00000000000E+00  0.00000000000E+00  0.76347227431E+02  0.76347227431E+02  0.00000000000E+00 0. -1.
         -1   -1    0    0    0  501 -0.00000000000E+00 -0.00000000000E+00 -0.41963465365E+03  0.41963465365E+03  0.00000000000E+00 0.  1.
         25    2    1    2    0    0  0.95713788600E+02 -0.84122878632E+02 -0.26809869597E+03  0.32212274816E+03  0.12509342932E+03 0.  0.
         23    2    1    2    0    0 -0.95713788600E+02  0.84122878632E+02 -0.75188730245E+02  0.17385913292E+03  0.91300957868E+02 0.  0.
          5    1    3    3  502    0 -0.15900452298E+02 -0.62697140202E+02 -0.94953487034E+02  0.11496692078E+03  0.41800000000E+01 0. -1.
         -5    1    3    3    0  502  0.11161424090E+03 -0.21425738430E+02 -0.17314520894E+03  0.20715582738E+03  0.41800000000E+01 0. -1.
        -11    1    4    4    0    0 -0.13585423022E+02  0.53130077860E+01  0.20497554192E+02  0.25158328606E+02  0.00000000000E+00 0. -1.
         11    1    4    4    0    0 -0.82128365579E+02  0.78809870846E+02 -0.95686284437E+02  0.14870080432E+03  0.00000000000E+00 0.  1.
</event>
<event>
 8    1  0.7192024E-009  0.1374733E+03  0.7561462E-02  0.1216770E+00
         -1   -1    0    0    0  501 -0.00000000000E+00  0.00000000000E+00  0.26105150251E+02  0.26105150251E+02  0.00000000000E+00 0.  1.
          1   -1    0    0  501    0  0.00000000000E+00 -0.00000000000E+00 -0.88101026882E+03  0.88101026882E+03  0.00000000000E+00 0. -1.
         25    2    1    2    0    0 -0.25717460817E+02  0.82831789349E+02 -0.28325601919E+03  0.32156702332E+03  0.12509550336E+03 0.  0.
         23    2    1    2    0    0  0.25717460817E+02 -0.82831789349E+02 -0.57164909938E+03  0.58554839575E+03  0.92529659181E+02 0.  0.
          5    1    3    3  502    0 -0.74209968942E+02  0.55366451679E+02 -0.20901186312E+03  0.22863944276E+03  0.41800000000E+01 0.  1.
         -5    1    3    3    0  502  0.48492508125E+02  0.27465337670E+02 -0.74244156063E+02  0.92927580551E+02  0.41800000000E+01 0.  1.
        -11    1    4    4    0    0  0.46979684794E+02 -0.68498049301E+01 -0.19147573270E+03  0.19727383715E+03  0.00000000000E+00 0. -1.
         11    1    4    4    0    0 -0.21262223977E+02 -0.75981984419E+02 -0.38017336668E+03  0.38827455860E+03  0.00000000000E+00 0.  1.
</event>
<event>
 8    1  0.7192024E-009  0.1387722E+03  0.7561462E-02  0.1214991E+00
         -1   -1    0    0    0  501 -0.00000000000E+00  0.00000000000E+00  0.53898237357E+02  0.53898237357E+02  0.00000000000E+00 0.  1.
          1   -1    0    0  501    0  0.00000000000E+00 -0.00000000000E+00 -0.48431485493E+03  0.48431485493E+03  0.00000000000E+00 0. -1.
         25    2    1    2    0    0  0.10982016998E+03 -0.40080046664E+02 -0.27715658267E+03  0.32577743938E+03  0.12509312058E+03 0.  0.
         23    2    1    2    0    0 -0.10982016998E+03  0.40080046664E+02 -0.15326003490E+03  0.21243565290E+03  0.89293832107E+02 0.  0.
          5    1    3    3  502    0  0.58116669335E+02  0.12950909371E+02 -0.23059130443E+03  0.23819129999E+03  0.41800000000E+01 0. -1.
         -5    1    3    3    0  502  0.51703500644E+02 -0.53030956035E+02 -0.46565278238E+02  0.87586139396E+02  0.41800000000E+01 0. -1.
        -11    1    4    4    0    0 -0.64864483504E+02 -0.20688243732E+02 -0.95594215309E+02  0.11736123146E+03  0.00000000000E+00 0.  1.
         11    1    4    4    0    0 -0.44955686475E+02  0.60768290396E+02 -0.57665819590E+02  0.95074421445E+02  0.00000000000E+00 0. -1.
</event>
<event>
 8    1  0.7192024E-009  0.2601634E+03  0.7561462E-02  0.1107045E+00
          1   -1    0    0  501    0  0.00000000000E+00  0.00000000000E+00  0.47600417826E+02  0.47600417826E+02  0.00000000000E+00 0. -1.
         -1   -1    0    0    0  501 -0.00000000000E+00 -0.00000000000E+00 -0.14869385480E+04  0.14869385480E+04  0.00000000000E+00 0.  1.
         25    2    1    2    0    0 -0.22255626528E+02  0.23920186589E+03 -0.63667996923E+03  0.69189947081E+03  0.12510255366E+03 0.  0.
         23    2    1    2    0    0  0.22255626528E+02 -0.23920186589E+03 -0.80265816096E+03  0.84263949503E+03  0.89823992749E+02 0.  0.
          5    1    3    3  502    0  0.46347471012E+02  0.89383804087E+02 -0.17862823859E+03  0.20509283880E+03  0.41800000000E+01 0. -1.
         -5    1    3    3    0  502 -0.68603097541E+02  0.14981806181E+03 -0.45805173064E+03  0.48680663202E+03  0.41800000000E+01 0. -1.
        -11    1    4    4    0    0 -0.28419802821E+02 -0.14497484718E+03 -0.51322573563E+03  0.53406558326E+03  0.00000000000E+00 0.  1.
         11    1    4    4    0    0  0.50675429350E+02 -0.94227018715E+02 -0.28943242533E+03  0.30857391177E+03  0.00000000000E+00 0. -1.
</event>
<event>
 8    1  0.7192024E-009  0.1138106E+03  0.7561462E-02  0.1253672E+00
          2   -1    0    0  501    0  0.00000000000E+00  0.00000000000E+00  0.13626570180E+04  0.13626570180E+04  0.00000000000E+00 0. -1.
         -2   -1    0    0    0  501 -0.00000000000E+00 -0.00000000000E+00 -0.97294878307E+01  0.97294878307E+01  0.00000000000E+00 0.  1.
         25    2    1    2    0    0 -0.38671657235E+02  0.77006972782E+01  0.87146921073E+03  0.88128364226E+03  0.12508986790E+03 0.  0.
         23    2    1    2    0    0  0.38671657235E+02 -0.77006972782E+01  0.48145831942E+03  0.49110286355E+03  0.88459659951E+02 0.  0.
          5    1    3    3  502    0 -0.49210637456E+02 -0.51115745190E+02  0.44976551924E+03  0.45534712137E+03  0.41800000000E+01 0.  1.
         -5    1    3    3    0  502  0.10538980221E+02  0.58816442468E+02  0.42170369150E+03  0.42593652089E+03  0.41800000000E+01 0.  1.
        -11    1    4    4    0    0  0.12867561800E+02 -0.47500177933E+02  0.22917215133E+03  0.23439649314E+03  0.00000000000E+00 0.  1.
         11    1    4    4    0    0  0.25804095434E+02  0.39799480655E+02  0.25228616809E+03  0.25670637041E+03  0.00000000000E+00 0. -1.
</event>
<event>
 8    1  0.7192024E-009  0.1040951E+03  0.7561462E-02  0.1271913E+00
          2   -1    0    0  501    0  0.00000000000E+00  0.00000000000E+00  0.19107912504E+02  0.19107912504E+02  0.00000000000E+00 0. -1.
         -2   -1    0    0    0  501 -0.00000000000E+00 -0.00000000000E+00 -0.64376567611E+03  0.64376567611E+03  0.00000000000E+00 0.  1.
         25    2    1    2    0    0  0.11340914164E+02 -0.14365526982E+02 -0.42734371784E+03  0.44565098295E+03  0.12508861149E+03 0.  0.
         23    2    1    2    0    0 -0.11340914164E+02  0.14365526982E+02 -0.19731404576E+03  0.21722260566E+03  0.88982262593E+02 0.  0.
          5    1    3    3  502    0 -0.29801175190E+01  0.54787549245E+02 -0.20961906946E+03  0.21672144180E+03  0.41800000000E+01 0.  1.
         -5    1    3    3    0  502  0.14321031683E+02 -0.69153076226E+02 -0.21772464838E+03  0.22892954115E+03  0.41800000000E+01 0.  1.
        -11    1    4    4    0    0 -0.46145759519E+02  0.52744504146E+01 -0.15435379583E+03  0.16119040057E+03  0.00000000000E+00 0.  1.
         11    1    4    4    0    0  0.34804845354E+02  0.90910765671E+01 -0.42960249932E+02  0.56032205092E+02  0.00000000000E+00 0. -1.
</event>
<event>
 8    1  0.7192024E-009  0.1245976E+03  0.7561462E-02  0.1235700E+00
         -1   -1    0    0    0  501 -0.00000000000E+00  0.00000000000E+00  0.16035286614E+03  0.16035286614E+03  0.00000000000E+00 0.  1.
          1   -1    0    0  501    0  0.00000000000E+00 -0.00000000000E+00 -0.11687844462E+03  0.11687844462E+03  0.00000000000E+00 0. -1.
         25    2    1    2    0    0 -0.46587448523E+01 -0.82197949500E+02  0.16729835991E+02  0.15068353647E+03  0.12508970360E+03 0.  0.
         23    2    1    2    0    0  0.46587448523E+01  0.82197949500E+02  0.26744585524E+02  0.12654777428E+03  0.92308501859E+02 0.  0.
          5    1    3    3  502    0 -0.38968948636E+02 -0.92424357487E+02  0.39684608767E+02  0.10794990221E+03  0.41800000000E+01 0. -1.
         -5    1    3    3    0  502  0.34310203784E+02  0.10226407987E+02 -0.22954772776E+02  0.42733634262E+02  0.41800000000E+01 0. -1.
        -11    1    4    4    0    0 -0.36229781499E+02  0.41032842608E+02  0.39045425260E+02  0.67237165866E+02  0.00000000000E+00 0. -1.
         11    1    4    4    0    0  0.40888526351E+02  0.41165106892E+02 -0.12300839736E+02  0.59310608417E+02  0.00000000000E+00 0.  1.
</event>
<event>
 8    1  0.7192024E-009  0.1101830E+03  0.7561462E-02  0.1260231E+00
          1   -1    0    0  501    0  0.00000000000E+00  0.00000000000E+00  0.74942278669E+02  0.74942278669E+02  0.00000000000E+00 0. -1.
         -1   -1    0    0    0  501 -0.00000000000E+00 -0.00000000000E+00 -0.25090613685E+03  0.25090613685E+03  0.00000000000E+00 0.  1.
         25    2    1    2    0    0  0.63333867549E+02 -0.37370768500E+02 -0.50247123691E+02  0.15355872221E+03  0.12509098533E+03 0.  0.
         23    2    1    2    0    0 -0.63333867549E+02  0.37370768500E+02 -0.12571673449E+03  0.17228969331E+03  0.92039600032E+02 0.  0.
          5    1    3    3  502    0  0.84115853352E+02 -0.55103495091E+01  0.70102111756E+01  0.84690354808E+02  0.41800000000E+01 0.  1.
         -5    1    3    3    0  502 -0.20781985802E+02 -0.31860418991E+02 -0.57257334867E+02  0.68868367399E+02  0.41800000000E+01 0.  1.
        -11    1    4    4    0    0  0.60464697455E+01 -0.11391076331E+02 -0.69174364561E+02  0.70366249927E+02  0.00000000000E+00 0.  1.
         11    1    4    4    0    0 -0.69380337295E+02  0.48761844832E+02 -0.56542369930E+02  0.10192344339E+03  0.00000000000E+00 0. -1.
</event>
<event>
 8    1  0.7192024E-009  0.1161232E+03  0.7561462E-02  0.1249633E+00
         -1   -1    0    0    0  501 -0.00000000000E+00  0.00000000000E+00  0.31096431704E+02  0.31096431704E+02  0.00000000000E+00 0.  1.
          1   -1    0    0  501    0  0.00000000000E+00 -0.00000000000E+00 -0.46437863688E+03  0.46437863688E+03  0.00000000000E+00 0. -1.
         25    2    1    2    0    0 -0.51384678069E+02  0.69491666023E+01 -0.24282244142E+03  0.27802117124E+03  0.12507740620E+03 0.  0.
         23    2    1    2    0    0  0.51384678069E+02 -0.69491666023E+01 -0.19045976376E+03  0.21745389735E+03  0.91228284021E+02 0.  0.
          5    1    3    3  502    0 -0.26998727831E+02 -0.54587659097E+02 -0.16408722829E+03  0.17507379792E+03  0.41800000000E+01 0. -1.
         -5    1    3    3    0  502 -0.24385950238E+02  0.61536825699E+02 -0.78735213133E+02  0.10294737332E+03  0.41800000000E+01 0. -1.
        -11    1    4    4    0    0 -0.25553191445E+02 -0.11032525981E+02 -0.53710677820E+02  0.60493959487E+02  0.00000000000E+00 0. -1.
         11    1    4    4    0    0  0.76937869514E+02  0.40833593790E+01 -0.13674908594E+03  0.15695993786E+03  0.00000000000E+00 0.  1.
</event>
<event>
 8    1  0.7192024E-009  0.1695112E+03  0.7561462E-02  0.1178359E+00
         -1   -1    0    0    0  501 -0.00000000000E+00  0.00000000000E+00  0.55225312186E+02  0.55225312186E+02  0.00000000000E+00 0.  1.
          1   -1    0    0  501    0  0.00000000000E+00 -0.00000000000E+00 -0.58869025021E+03  0.58869025021E+03  0.00000000000E+00 0. -1.
         25    2    1    2    0    0 -0.13839912236E+03 -0.27999854834E+01 -0.21584958678E+03  0.28530713577E+03  0.12508781165E+03 0.  0.
         23    2    1    2    0    0  0.13839912236E+03  0.27999854834E+01 -0.31761535124E+03  0.35860842662E+03  0.92511271255E+02 0.  0.
          5    1    3    3  502    0 -0.33514496759E+02 -0.48124049704E+02 -0.27351439719E+02  0.64843807011E+02  0.41800000000E+01 0.  1.
         -5    1    3    3    0  502 -0.10488462560E+03  0.45324064221E+02 -0.18849814706E+03  0.22046332876E+03  0.41800000000E+01 0.  1.
        -11    1    4    4    0    0  0.13752413761E+02 -0.33380769069E+02 -0.82343801169E+02  0.89910545649E+02  0.00000000000E+00 0. -1.
         11    1    4    4    0    0  0.12464670860E+03  0.36180754552E+02 -0.23527155007E+03  0.26869788097E+03  0.00000000000E+00 0.  1.
</event>
<event>
 8    1  0.7192024E-009  0.8904946E+02  0.7561462E-02  0.1305170E+00
         -4   -1    0    0    0  501 -0.00000000000E+00  0.00000000000E+00  0.41131883133E+03  0.41131883133E+03  0.00000000000E+00 0.  1.
          4   -1    0    0  501    0  0.00000000000E+00 -0.00000000000E+00 -0.48407635164E+02  0.48407635164E+02  0.00000000000E+00 0. -1.
         25    2    1    2    0    0  0.19845164020E+02 -0.64834450821E+02  0.10109803523E+03  0.17454097197E+03  0.12508557718E+03 0.  0.
         23    2    1    2    0    0 -0.19845164020E+02  0.64834450821E+02  0.26181316094E+03  0.28518549453E+03  0.90483691914E+02 0.  0.
          5    1    3    3  502    0  0.49692796262E+02 -0.18861048601E+02  0.10670543508E+03  0.11928384396E+03  0.41800000000E+01 0.  1.
         -5    1    3    3    0  502 -0.29847632242E+02 -0.45973402220E+02 -0.56073998493E+01  0.55257128004E+02  0.41800000000E+01 0.  1.
        -11    1    4    4    0    0 -0.15068146241E+02  0.21732218456E+02  0.79058835630E+01  0.27601473603E+02  0.00000000000E+00 0. -1.
         11    1    4    4    0    0 -0.47770177794E+01  0.43102232366E+02  0.25390727737E+03  0.25758402093E+03  0.00000000000E+00 0.  1.
</event>
<event>
 8    1  0.7192024E-009  0.9856207E+02  0.7561462E-02  0.1283349E+00
          1   -1    0    0  501    0  0.00000000000E+00  0.00000000000E+00  0.11029267523E+03  0.11029267523E+03  0.00000000000E+00 0. -1.
         -1   -1    0    0    0  501 -0.00000000000E+00 -0.00000000000E+00 -0.18043243919E+03  0.18043243919E+03  0.00000000000E+00 0.  1.
         25    2    1    2    0    0  0.54514659849E+02 -0.57647236872E+02  0.43223867796E+01  0.14819361370E+03  0.12509041553E+03 0.  0.
         23    2    1    2    0    0 -0.54514659849E+02  0.57647236872E+02 -0.74462150738E+02  0.14253150072E+03  0.92062830428E+02 0.  0.
          5    1    3    3  502    0  0.46604231030E+02 -0.54284315219E+02 -0.53596168821E+02  0.89491692022E+02  0.41800000000E+01 0. -1.
         -5    1    3    3    0  502  0.79104288190E+01 -0.33629216534E+01  0.57918555600E+02  0.58701921680E+02  0.41800000000E+01 0. -1.
        -11    1    4    4    0    0 -0.55561210035E+02 -0.26194530675E+01 -0.57306077073E+02  0.79861730913E+02  0.00000000000E+00 0.  1.
         11    1    4    4    0    0  0.10465501864E+01  0.60266689940E+02 -0.17156073665E+02  0.62669769803E+02  0.00000000000E+00 0. -1.
</event>
<event>
 8    1  0.7192024E-009  0.1064257E+03  0.7561462E-02  0.1267336E+00
          1   -1    0    0  501    0  0.00000000000E+00  0.00000000000E+00  0.71391563094E+02  0.71391563094E+02  0.00000000000E+00 0. -1.
         -1   -1    0    0    0  501 -0.00000000000E+00 -0.00000000000E+00 -0.24096004937E+03  0.24096004937E+03  0.00000000000E+00 0.  1.
         25    2    1    2    0    0  0.60000817558E+02  0.22829519346E+02 -0.13586008837E+03  0.19551702387E+03  0.12509059897E+03 0.  0.
         23    2    1    2    0    0 -0.60000817558E+02 -0.22829519346E+02 -0.33708397906E+02  0.11683458859E+03  0.91612116782E+02 0.  0.
          5    1    3    3  502    0  0.94879910415E+01 -0.49199492238E+02 -0.33194855591E+02  0.60249338986E+02  0.41800000000E+01 0.  1.
         -5    1    3    3    0  502  0.50512826517E+02  0.72029011584E+02 -0.10266523278E+03  0.13526768488E+03  0.41800000000E+01 0.  1.
        -11    1    4    4    0    0 -0.56853121191E+02 -0.57656803244E+01 -0.61575855378E+02  0.84006585601E+02  0.00000000000E+00 0.  1.
         11    1    4    4    0    0 -0.31476963667E+01 -0.17063839021E+02  0.27867457472E+02  0.32828002993E+02  0.00000000000E+00 0. -1.
</event>
<event>
 8    1  0.7192024E-009  0.1687037E+03  0.7561462E-02  0.1179207E+00
         -1   -1    0    0    0  501 -0.00000000000E+00  0.00000000000E+00  0.89643276691E+02  0.89643276691E+02  0.00000000000E+00 0.  1.
          1   -1    0    0  501    0  0.00000000000E+00 -0.00000000000E+00 -0.32816013987E+03  0.32816013987E+03  0.00000000000E+00 0. -1.
         25    2    1    2    0    0  0.13173587374E+03  0.14570612841E+02 -0.15147045519E+03  0.23697673212E+03  0.12509208441E+03 0.  0.
         23    2    1    2    0    0 -0.13173587374E+03 -0.14570612841E+02 -0.87046407987E+02  0.18082668444E+03  0.86917026364E+02 0.  0.
          5    1    3    3  502    0  0.27326802960E+02  0.61093998164E+02 -0.66931756595E+02  0.94744726569E+02  0.41800000000E+01 0. -1.
         -5    1    3    3    0  502  0.10440907078E+03 -0.46523385323E+02 -0.84538698599E+02  0.14223200556E+03  0.41800000000E+01 0. -1.
        -11    1    4    4    0    0 -0.64139181831E+02  0.34130564550E+02 -0.24594193075E+02  0.76704657065E+02  0.00000000000E+00 0.  1.
         11    1    4    4    0    0 -0.67596691913E+02 -0.48701177392E+02 -0.62452214912E+02  0.10412202737E+03  0.00000000000E+00 0. -1.
</event>
<event>
 8    1  0.7192024E-009  0.8454116E+02  0.7561462E-02  0.1316637E+00
         -2   -1    0    0    0  501 -0.00000000000E+00  0.00000000000E+00  0.20391542934E+02  0.20391542934E+02  0.00000000000E+00 0.  1.
          2   -1    0    0  501    0  0.00000000000E+00 -0.00000000000E+00 -0.66332355489E+03  0.66332355489E+03  0.00000000000E+00 0. -1.
         25    2    1    2    0    0  0.37742017879E+02 -0.66289638377E+01 -0.30666494537E+03  0.33340299727E+03  0.12508303961E+03 0.  0.
         23    2    1    2    0    0 -0.37742017879E+02  0.66289638377E+01 -0.33626706659E+03  0.35031210055E+03  0.90413630856E+02 0.  0.
          5    1    3    3  502    0  0.35587646291E+02  0.21904189557E+02 -0.30102453593E+03  0.30393999033E+03  0.41800000000E+01 0.  1.
         -5    1    3    3    0  502  0.21543715880E+01 -0.28533153395E+02 -0.56404094357E+01  0.29463006944E+02  0.41800000000E+01 0.  1.
        -11    1    4    4    0    0 -0.54062944779E+02 -0.27264610844E+02 -0.21170525900E+03  0.22019372764E+03  0.00000000000E+00 0.  1.
         11    1    4    4    0    0  0.16320926901E+02  0.33893574682E+02 -0.12456180759E+03  0.13011837292E+03  0.00000000000E+00 0. -1.
</event>
<event>
 8    1  0.7192024E-009  0.1287684E+03  0.7561462E-02  0.1229295E+00
         -2   -1    0    0    0  501 -0.00000000000E+00  0.00000000000E+00  0.46796376173E+03  0.46796376173E+03  0.00000000000E+00 0. -1.
          2   -1    0    0  501    0  0.00000000000E+00 -0.00000000000E+00 -0.67090232727E+02  0.67090232727E+02  0.00000000000E+00 0.  1.
         25    2    1    2    0    0 -0.10035656840E+03  0.33436316199E+02  0.34858809737E+03  0.38516265859E+03  0.12508870405E+03 0.  0.
         23    2    1    2    0    0  0.10035656840E+03 -0.33436316199E+02  0.52285431634E+02  0.14989133587E+03  0.92434940063E+02 0.  0.
          5    1    3    3  502    0 -0.96513304570E+02 -0.79711057392E+01  0.32042214584E+03  0.33476287194E+03  0.41800000000E+01 0.  1.
         -5    1    3    3    0  502 -0.38432638341E+01  0.41407421939E+02  0.28165951528E+02  0.50399786646E+02  0.41800000000E+01 0.  1.
        -11    1    4    4    0    0  0.74893241684E+02  0.23013864143E+01 -0.79695520560E+01  0.75351229515E+02  0.00000000000E+00 0.  1.
         11    1    4    4    0    0  0.25463326720E+02 -0.35737702614E+02  0.60254983690E+02  0.74540106354E+02  0.00000000000E+00 0. -1.
</event>
<event>
 8    1  0.7192024E-009  0.1154260E+03  0.7561462E-02  0.1250839E+00
          1   -1    0    0  501    0  0.00000000000E+00  0.00000000000E+00  0.13650437989E+04  0.13650437989E+04  0.00000000000E+00 0. -1.
         -1   -1    0    0    0  501 -0.00000000000E+00 -0.00000000000E+00 -0.23612796630E+02  0.23612796630E+02  0.00000000000E+00 0.  1.
         25    2    1    2    0    0  0.50871891960E+02 -0.42906683647E+02  0.12012007034E+04  0.12095291654E+04  0.12509492079E+03 0.  0.
         23    2    1    2    0    0 -0.50871891960E+02  0.42906683647E+02  0.14023029882E+03  0.17912743008E+03  0.89404511110E+02 0.  0.
          5    1    3    3  502    0  0.56416062880E+02  0.23896551256E+02  0.83243691101E+03  0.83469904787E+03  0.41800000000E+01 0. -1.
         -5    1    3    3    0  502 -0.55441709203E+01 -0.66803234903E+02  0.36876379242E+03  0.37483011755E+03  0.41800000000E+01 0. -1.
        -11    1    4    4    0    0  0.17565523322E+02  0.26680060171E+02  0.14541588059E+02  0.35097450101E+02  0.00000000000E+00 0.  1.
         11    1    4    4    0    0 -0.68437415282E+02  0.16226623476E+02  0.12568871076E+03  0.14402997998E+03  0.00000000000E+00 0. -1.
</event>
<event>
 8    1  0.7192024E-009  0.1503345E+03  0.7561462E-02  0.1200063E+00
          1   -1    0    0  501    0  0.00000000000E+00  0.00000000000E+00  0.15151160286E+04  0.15151160286E+04  0.00000000000E+00 0. -1.
         -1   -1    0    0    0  501 -0.00000000000E+00 -0.00000000000E+00 -0.18040983936E+02  0.18040983936E+02  0.00000000000E+00 0.  1.
         25    2    1    2    0    0 -0.90538218734E+02 -0.73627260001E+02  0.98506189670E+03  0.99980642523E+03  0.12509118733E+03 0.  0.
         23    2    1    2    0    0  0.90538218734E+02  0.73627260001E+02  0.51201314798E+03  0.53335058732E+03  0.93205379778E+02 0.  0.
          5    1    3    3  502    0 -0.76877218475E+02  0.38087511424E+00  0.26938757182E+03  0.28017385324E+03  0.41800000000E+01 0.  1.
         -5    1    3    3    0  502 -0.13661000259E+02 -0.74008135115E+02  0.71567432487E+03  0.71963257199E+03  0.41800000000E+01 0.  1.
        -11    1    4    4    0    0  0.25619062556E+02 -0.21288341592E+02  0.90582523656E+02  0.96512814931E+02  0.00000000000E+00 0.  1.
         11    1    4    4    0    0  0.64919156178E+02  0.94915601593E+02  0.42143062433E+03  0.43683777239E+03  0.00000000000E+00 0. -1.
</event>
<event>
 8    1  0.7192024E-009  0.1133214E+03  0.7561462E-02  0.1254540E+00
          2   -1    0    0  501    0  0.00000000000E+00  0.00000000000E+00  0.21980026207E+03  0.21980026207E+03  0.00000000000E+00 0. -1.
         -2   -1    0    0    0  501 -0.00000000000E+00 -0.00000000000E+00 -0.65173396167E+02  0.65173396167E+02  0.00000000000E+00 0.  1.
         25    2    1    2    0    0 -0.33322393237E+02  0.41617100624E+02  0.97506232414E+02  0.16732387994E+03  0.12508976970E+03 0.  0.
         23    2    1    2    0    0  0.33322393237E+02 -0.41617100624E+02  0.57120633487E+02  0.11764977829E+03  0.87956458587E+02 0.  0.
          5    1    3    3  502    0 -0.68201937165E+01  0.83341173275E+02  0.44845278089E+02  0.94978089958E+02  0.41800000000E+01 0.  1.
         -5    1    3    3    0  502 -0.26502199521E+02 -0.41724072650E+02  0.52660954325E+02  0.72345789984E+02  0.41800000000E+01 0.  1.
        -11    1    4    4    0    0 -0.12109924052E+02  0.15919105664E+02 -0.60287394543E+01  0.20890521418E+02  0.00000000000E+00 0.  1.
         11    1    4    4    0    0  0.45432317289E+02 -0.57536206289E+02  0.63149372941E+02  0.96759256876E+02  0.00000000000E+00 0. -1.
</event>
<event>
 8    1  0.7192024E-009  0.1569318E+03  0.7561462E-02  0.1192205E+00
          1   -1    0    0  501    0  0.00000000000E+00  0.00000000000E+00  0.37360678273E+02  0.37360678273E+02  0.00000000000E+00 0. -1.
         -1   -1    0    0    0  501 -0.00000000000E+00 -0.00000000000E+00 -0.85502403242E+03  0.85502403242E+03  0.00000000000E+00 0.  1.
         25    2    1    2    0    0 -0.11680529987E+03 -0.74872128988E+02 -0.36104632475E+03  0.40651374621E+03  0.12509861495E+03 0.  0.
         23    2    1    2    0    0  0.11680529987E+03  0.74872128988E+02 -0.45661702939E+03  0.48587096448E+03  0.91225921854E+02 0.  0.
          5    1    3    3  502    0 -0.39293745619E+01 -0.60053850570E+02 -0.20241848257E+03  0.21121699609E+03  0.41800000000E+01 0.  1.
         -5    1    3    3    0  502 -0.11287592531E+03 -0.14818278419E+02 -0.15862784218E+03  0.19529675011E+03  0.41800000000E+01 0.  1.
        -11    1    4    4    0    0  0.30131068332E+02  0.11527728139E+02 -0.24204777354E+02  0.40331638221E+02  0.00000000000E+00 0. -1.
         11    1    4    4    0    0  0.86674231542E+02  0.63344400850E+02 -0.43241225204E+03  0.44553932626E+03  0.00000000000E+00 0.  1.
</event>
<event>
 8    1  0.7192024E-009  0.1459938E+03  0.7561462E-02  0.1205484E+00
          3   -1    0    0  501    0  0.00000000000E+00  0.00000000000E+00  0.41257909814E+03  0.41257909814E+03  0.00000000000E+00 0. -1.
         -3   -1    0    0    0  501 -0.00000000000E+00 -0.00000000000E+00 -0.56230883303E+02  0.56230883303E+02  0.00000000000E+00 0.  1.
         25    2    1    2    0    0 -0.85914412743E+02 -0.58465873864E+02  0.21955622851E+03  0.27322417991E+03  0.12508785028E+03 0.  0.
         23    2    1    2    0    0  0.85914412743E+02  0.58465873864E+02  0.13679198633E+03  0.19558580154E+03  0.93499804885E+02 0.  0.
          5    1    3    3  502    0 -0.25059782504E+02  0.34472562339E+02  0.26239974206E+02  0.50223091300E+02  0.41800000000E+01 0. -1.
         -5    1    3    3    0  502 -0.60854630239E+02 -0.92938436203E+02  0.19331625430E+03  0.22300108861E+03  0.41800000000E+01 0. -1.
        -11    1    4    4    0    0  0.54859977909E+02  0.82259380692E+02  0.83132366175E+02  0.12917899672E+03  0.00000000000E+00 0.  1.
         11    1    4    4    0    0  0.31054434834E+02 -0.23793506828E+02  0.53659620159E+02  0.66406804815E+02  0.00000000000E+00 0. -1.
</event>
<event>
 8    1  0.7192024E-009  0.7790207E+02  0.7561462E-02  0.1335113E+00
         -4   -1    0    0    0  501 -0.00000000000E+00  0.00000000000E+00  0.64988901358E+02  0.64988901358E+02  0.00000000000E+00 0.  1.
          4   -1    0    0  501    0  0.00000000000E+00 -0.00000000000E+00 -0.20792772702E+03  0.20792772702E+03  0.00000000000E+00 0. -1.
         25    2    1    2    0    0  0.40984505042E+01  0.26775082017E+02 -0.10417999063E+03  0.16502978227E+03  0.12509059227E+03 0.  0.
         23    2    1    2    0    0 -0.40984505042E+01 -0.26775082017E+02 -0.38758835035E+02  0.10788684611E+03  0.96972274165E+02 0.  0.
          5    1    3    3  502    0 -0.10577807027E+01  0.50568307154E+02 -0.12359625616E+03  0.13361055170E+03  0.41800000000E+01 0.  1.
         -5    1    3    3    0  502  0.51562312068E+01 -0.23793225137E+02  0.19416265529E+02  0.31419230572E+02  0.41800000000E+01 0.  1.
        -11    1    4    4    0    0 -0.39869329456E+02 -0.11872049598E+02 -0.52310089168E+02  0.66834530160E+02  0.00000000000E+00 0. -1.
         11    1    4    4    0    0  0.35770878952E+02 -0.14903032418E+02  0.13551254134E+02  0.41052315950E+02  0.00000000000E+00 0.  1.
</event>
<event>
 8    1  0.7192024E-009  0.3055029E+03  0.7561462E-02  0.1082522E+00
          1   -1    0    0  501    0  0.00000000000E+00  0.00000000000E+00  0.18793763789E+03  0.18793763789E+03  0.00000000000E+00 0. -1.
         -1   -1    0    0    0  501 -0.00000000000E+00 -0.00000000000E+00 -0.56970634188E+03  0.56970634188E+03  0.00000000000E+00 0.  1.
         25    2    1    2    0    0  0.21239288491E+03  0.21047412173E+03 -0.10759217956E+03  0.34151525934E+03  0.12508597754E+03 0.  0.
         23    2    1    2    0    0 -0.21239288491E+03 -0.21047412173E+03 -0.27417652443E+03  0.41612872044E+03  0.92629649384E+02 0.  0.
          5    1    3    3  502    0  0.14126151047E+03  0.13566727888E+03 -0.13089498057E+03  0.23560855935E+03  0.41800000000E+01 0. -1.
         -5    1    3    3    0  502  0.71131374445E+02  0.74806842851E+02  0.23302801014E+02  0.10590669999E+03  0.41800000000E+01 0. -1.
        -11    1    4    4    0    0 -0.92578396793E+02 -0.34283802169E+02 -0.10444866712E+03  0.14372078036E+03  0.00000000000E+00 0. -1.
         11    1    4    4    0    0 -0.11981448812E+03 -0.17619031956E+03 -0.16972785730E+03  0.27240794008E+03  0.00000000000E+00 0.  1.
</event>
<event>
 8    1  0.7192024E-009  0.9708317E+02  0.7561462E-02  0.1286552E+00
         -1   -1    0    0    0  501 -0.00000000000E+00  0.00000000000E+00  0.22316767987E+03  0.22316767987E+03  0.00000000000E+00 0.  1.
          1   -1    0    0  501    0  0.00000000000E+00 -0.00000000000E+00 -0.71831707372E+02  0.71831707372E+02  0.00000000000E+00 0. -1.
         25    2    1    2    0    0  0.44276422141E+01 -0.61490113685E+02  0.57927374245E+02  0.15101067256E+03  0.12509198393E+03 0.  0.
         23    2    1    2    0    0 -0.44276422141E+01  0.61490113685E+02  0.93408598249E+02  0.14398871467E+03  0.90592194089E+02 0.  0.
          5    1    3    3  502    0  0.58049368481E+02 -0.40129768506E+02  0.22870155533E+01  0.70730688824E+02  0.41800000000E+01 0. -1.
         -5    1    3    3    0  502 -0.53621726266E+02 -0.21360345180E+02  0.55640358692E+02  0.80279983740E+02  0.41800000000E+01 0. -1.
        -11    1    4    4    0    0 -0.13637490735E+02  0.35635507162E+02  0.10682808846E+03  0.11343769659E+03  0.00000000000E+00 0.  1.
         11    1    4    4    0    0  0.92098485209E+01  0.25854606523E+02 -0.13419490211E+02  0.30551018081E+02  0.00000000000E+00 0. -1.
</event>
<event>
 8    1  0.7192024E-009  0.2420199E+03  0.7561462E-02  0.1118455E+00
         -1   -1    0    0    0  501 -0.00000000000E+00  0.00000000000E+00  0.76511617573E+02  0.76511617573E+02  0.00000000000E+00 0.  1.
          1   -1    0    0  501    0  0.00000000000E+00 -0.00000000000E+00 -0.97345031302E+03  0.97345031302E+03  0.00000000000E+00 0. -1.
         25    2    1    2    0    0  0.20210305835E+03 -0.82112265483E+02 -0.22390272435E+03  0.33670100909E+03  0.12508824569E+03 0.  0.
         23    2    1    2    0    0 -0.20210305835E+03  0.82112265483E+02 -0.67303597109E+03  0.71326092151E+03  0.90419319966E+02 0.  0.
          5    1    3    3  502    0  0.21503377822E+03 -0.60946733666E+02 -0.18398789804E+03  0.28952210476E+03  0.41800000000E+01 0.  1.
         -5    1    3    3    0  502 -0.12930719870E+02 -0.21165531817E+02 -0.39914826315E+02  0.47178904324E+02  0.41800000000E+01 0.  1.
        -11    1    4    4    0    0 -0.10927112345E+03 -0.31248138998E+01 -0.28353683675E+03  0.30388004323E+03  0.00000000000E+00 0.  1.
         11    1    4    4    0    0 -0.92831934900E+02  0.85237079383E+02 -0.38949913435E+03  0.40938087827E+03  0.00000000000E+00 0. -1.
</event>
<event>
 8    1  0.7192024E-009  0.1501419E+03  0.7561462E-02  0.1200299E+00
          1   -1    0    0  501    0  0.00000000000E+00  0.00000000000E+00  0.93138787728E+02  0.93138787728E+02  0.00000000000E+00 0. -1.
         -1   -1    0    0    0  501 -0.00000000000E+00 -0.00000000000E+00 -0.45267966047E+03  0.45267966047E+03  0.00000000000E+00 0.  1.
         25    2    1    2    0    0 -0.70207711156E+02  0.79881877230E+02 -0.47217359277E+01  0.16425885145E+03  0.12509371877E+03 0.  0.
         23    2    1    2    0    0  0.70207711156E+02 -0.79881877230E+02 -0.35481913681E+03  0.38155959674E+03  0.91547086261E+02 0.  0.
          5    1    3    3  502    0  0.23757888339E+02  0.59379699462E+02  0.15387679848E+02  0.65913876063E+02  0.41800000000E+01 0.  1.
         -5    1    3    3    0  502 -0.93965599494E+02  0.20502177768E+02 -0.20109415776E+02  0.98344975390E+02  0.41800000000E+01 0.  1.
        -11    1    4    4    0    0 -0.17907395046E+02 -0.38737439871E+02 -0.95336446831E+02  0.10445239174E+03  0.00000000000E+00 0. -1.
         11    1    4    4    0    0  0.88115106202E+02 -0.41144437359E+02 -0.25948268998E+03  0.27710720501E+03  0.00000000000E+00 0.  1.
</event>
<event>
 8    1  0.7192024E-009  0.2046839E+03  0.7561462E-02  0.1145846E+00
         -2   -1    0    0    0  501 -0.00000000000E+00  0.00000000000E+00  0.12083055221E+03  0.12083055221E+03  0.00000000000E+00 0. -1.
          2   -1    0    0  501    0  0.00000000000E+00 -0.00000000000E+00 -0.63997225828E+03  0.63997225828E+03  0.00000000000E+00 0.  1.
         25    2    1    2    0    0 -0.30232996894E+02 -0.18476939068E+03 -0.27561911016E+02  0.22685633514E+03  0.12510146292E+03 0.  0.
         23    2    1    2    0    0  0.30232996894E+02  0.18476939068E+03 -0.49157979506E+03  0.53394647534E+03  0.91620858928E+02 0.  0.
          5    1    3    3  502    0  0.60287432878E+01  0.10241054377E+02 -0.25507214736E+02  0.28448468218E+02  0.41800000000E+01 0. -1.
         -5    1    3    3    0  502 -0.36261740182E+02 -0.19501044505E+03 -0.20546962799E+01  0.19840786693E+03  0.41800000000E+01 0. -1.
        -11    1    4    4    0    0  0.44129262228E+02  0.17707060088E+03 -0.48201577834E+03  0.51540333725E+03  0.00000000000E+00 0.  1.
         11    1    4    4    0    0 -0.13896265334E+02  0.76987897949E+01 -0.95640167190E+01  0.18543138093E+02  0.00000000000E+00 0. -1.
</event>
<event>
 8    1  0.7192024E-009  0.1309091E+03  0.7561462E-02  0.1226113E+00
         -1   -1    0    0    0  501 -0.00000000000E+00  0.00000000000E+00  0.20109927921E+03  0.20109927921E+03  0.00000000000E+00 0.  1.
          1   -1    0    0  501    0  0.00000000000E+00 -0.00000000000E+00 -0.12117341559E+03  0.12117341559E+03  0.00000000000E+00 0. -1.
         25    2    1    2    0    0  0.46201337847E+02 -0.86963904129E+02  0.97858203045E+02  0.18686138245E+03  0.12507463415E+03 0.  0.
         23    2    1    2    0    0 -0.46201337847E+02  0.86963904129E+02 -0.17932339428E+02  0.13541131235E+03  0.91199618837E+02 0.  0.
          5    1    3    3  502    0  0.30565862489E+02  0.75117182387E+01 -0.17995176112E+02  0.36496528929E+02  0.41800000000E+01 0. -1.
         -5    1    3    3    0  502  0.15635475359E+02 -0.94475622368E+02  0.11585337916E+03  0.15036485352E+03  0.41800000000E+01 0. -1.
        -11    1    4    4    0    0 -0.74104409913E+02  0.59148146058E+02 -0.13146239522E+02  0.95722465306E+02  0.00000000000E+00 0.  1.
         11    1    4    4    0    0  0.27903072065E+02  0.27815758071E+02 -0.47860999055E+01  0.39688847049E+02  0.00000000000E+00 0. -1.
</event>
<event>
 8    1  0.7192024E-009  0.9144751E+02  0.7561462E-02  0.1299384E+00
         -1   -1    0    0    0  501 -0.00000000000E+00  0.00000000000E+00  0.11351613357E+03  0.11351613357E+03  0.00000000000E+00 0.  1.
          1   -1    0    0  501    0  0.00000000000E+00 -0.00000000000E+00 -0.11964663364E+03  0.11964663364E+03  0.00000000000E+00 0. -1.
         25    2    1    2    0    0  0.43430182926E+02  0.14392685844E+02 -0.23909911743E+00  0.13319092148E+03  0.12508570743E+03 0.  0.
         23    2    1    2    0    0 -0.43430182926E+02 -0.14392685844E+02 -0.58914009500E+01  0.99971845734E+02  0.88692339802E+02 0.  0.
          5    1    3    3  502    0 -0.23963310351E+02  0.26370254336E+02  0.39958510021E+02  0.53700889004E+02  0.41800000000E+01 0.  1.
         -5    1    3    3    0  502  0.67393493276E+02 -0.11977568492E+02 -0.40197609138E+02  0.79490032478E+02  0.41800000000E+01 0.  1.
        -11    1    4    4    0    0  0.12718975232E+02  0.11001772985E+02  0.25706339307E+02  0.30718515920E+02  0.00000000000E+00 0.  1.
         11    1    4    4    0    0 -0.56149158158E+02 -0.25394458828E+02 -0.31597740257E+02  0.69253329814E+02  0.00000000000E+00 0. -1.
</event>
<event>
 8    1  0.7192024E-009  0.1102902E+03  0.7561462E-02  0.1260033E+00
          2   -1    0    0  501    0  0.00000000000E+00  0.00000000000E+00  0.30020498749E+03  0.30020498749E+03  0.00000000000E+00 0. -1.
         -2   -1    0    0    0  501 -0.00000000000E+00 -0.00000000000E+00 -0.55907450724E+02  0.55907450724E+02  0.00000000000E+00 0.  1.
         25    2    1    2    0    0  0.12046828095E+02 -0.69693081300E+02  0.13619046291E+03  0.19798325463E+03  0.12508906938E+03 0.  0.
         23    2    1    2    0    0 -0.12046828095E+02  0.69693081300E+02  0.10810707386E+03  0.15812918358E+03  0.91189076290E+02 0.  0.
          5    1    3    3  502    0  0.43884098900E+02 -0.54378992314E+02  0.14527941270E+03  0.16126521353E+03  0.41800000000E+01 0.  1.
         -5    1    3    3    0  502 -0.31837270805E+02 -0.15314088986E+02 -0.90889497894E+01  0.36718041098E+02  0.41800000000E+01 0.  1.
        -11    1    4    4    0    0  0.24906377664E+02  0.73735977703E+02  0.79184353593E+02  0.11102920296E+03  0.00000000000E+00 0.  1.
         11    1    4    4    0    0 -0.36953205759E+02 -0.40428964032E+01  0.28922720264E+02  0.47099980623E+02  0.00000000000E+00 0. -1.
</event>
<event>
 8    1  0.7192024E-009  0.6218890E+02  0.7561462E-02  0.1388869E+00
          4   -1    0    0  501    0  0.00000000000E+00  0.00000000000E+00  0.55421148750E+03  0.55421148750E+03  0.00000000000E+00 0. -1.
         -4   -1    0    0    0  501 -0.00000000000E+00 -0.00000000000E+00 -0.37214452933E+02  0.37214452933E+02  0.00000000000E+00 0.  1.
         25    2    1    2    0    0  0.30961841318E+02 -0.87684570281E+00  0.46286003539E+03  0.48046441601E+03  0.12508892120E+03 0.  0.
         23    2    1    2    0    0 -0.30961841318E+02  0.87684570281E+00  0.54136999175E+02  0.11096152443E+03  0.91772766917E+02 0.  0.
          5    1    3    3  502    0  0.17923811322E+02  0.27642864703E+02  0.44043825193E+03  0.44168848427E+03  0.41800000000E+01 0. -1.
         -5    1    3    3    0  502  0.13038029996E+02 -0.28519710406E+02  0.22421783467E+02  0.38775931731E+02  0.41800000000E+01 0. -1.
        -11    1    4    4    0    0 -0.10667570862E+02 -0.24686540858E+02 -0.17605590316E+02  0.32143104673E+02  0.00000000000E+00 0.  1.
         11    1    4    4    0    0 -0.20294270456E+02  0.25563386561E+02  0.71742589491E+02  0.78818419755E+02  0.00000000000E+00 0. -1.
</event>
<event>
 8    1  0.7192024E-009  0.1415316E+03  0.7561462E-02  0.1211283E+00
         -1   -1    0    0    0  501 -0.00000000000E+00  0.00000000000E+00  0.46105990230E+03  0.46105990230E+03  0.00000000000E+00 0.  1.
          1   -1    0    0  501    0  0.00000000000E+00 -0.00000000000E+00 -0.55662492864E+02  0.55662492864E+02  0.00000000000E+00 0. -1.
         25    2    1    2    0    0  0.46756333679E+02  0.10449261306E+03  0.26190859172E+03  0.31200927862E+03  0.12509523813E+03 0.  0.
         23    2    1    2    0    0 -0.46756333679E+02 -0.10449261306E+03  0.14348881772E+03  0.20471311655E+03  0.90628683942E+02 0.  0.
          5    1    3    3  502    0 -0.28385973098E+02  0.55674509719E+02  0.44531607138E+02  0.76850185006E+02  0.41800000000E+01 0.  1.
         -5    1    3    3    0  502  0.75142306776E+02  0.48818103346E+02  0.21737698459E+03  0.23515909361E+03  0.41800000000E+01 0.  1.
        -11    1    4    4    0    0  0.15711613435E+02 -0.16191052440E+02  0.71017875852E+02  0.74515392144E+02  0.00000000000E+00 0.  1.
         11    1    4    4    0    0 -0.62467947114E+02 -0.88301560624E+02  0.72470941864E+02  0.13019772440E+03  0.00000000000E+00 0. -1.
</event>
<event>
 8    1  0.7192024E-009  0.4634859E+02  0.7561462E-02  0.1466094E+00
         -2   -1    0    0    0  501 -0.00000000000E+00  0.00000000000E+00  0.14048868724E+02  0.14048868724E+02  0.00000000000E+00 0.  1.
          2   -1    0    0  501    0  0.00000000000E+00 -0.00000000000E+00 -0.11573336241E+04  0.11573336241E+04  0.00000000000E+00 0. -1.
         25    2    1    2    0    0  0.29962387243E+02 -0.93669806746E+01 -0.92341372351E+03  0.93237561308E+03  0.12508354851E+03 0.  0.
         23    2    1    2    0    0 -0.29962387243E+02  0.93669806746E+01 -0.21987103181E+03  0.23900687970E+03  0.88292315276E+02 0.  0.
          5    1    3    3  502    0  0.14281535730E+02 -0.13995666155E+02 -0.91147503713E+03  0.91170393037E+03  0.41800000000E+01 0. -1.
         -5    1    3    3    0  502  0.15680851513E+02  0.46286854808E+01 -0.11938686382E+02  0.20671682708E+02  0.41800000000E+01 0. -1.
        -11    1    4    4    0    0 -0.39871585669E+02  0.16534075435E+02 -0.22237357235E+03  0.22652400463E+03  0.00000000000E+00 0. -1.
         11    1    4    4    0    0  0.99091984263E+01 -0.71670947600E+01  0.25025405399E+01  0.12482875066E+02  0.00000000000E+00 0.  1.
</event>
<event>
 8    1  0.7192024E-009  0.8868233E+02  0.7561462E-02  0.1306074E+00
          1   -1    0    0  501    0  0.00000000000E+00  0.00000000000E+00  0.29327057267E+03  0.29327057267E+03  0.00000000000E+00 0. -1.
         -1   -1    0    0    0  501 -0.00000000000E+00 -0.00000000000E+00 -0.66226454757E+02  0.66226454757E+02  0.00000000000E+00 0.  1.
         25    2    1    2    0    0  0.73441771655E+01 -0.35334012552E+02  0.22163768526E+02  0.13206522996E+03  0.12509021924E+03 0.  0.
         23    2    1    2    0    0 -0.73441771655E+01  0.35334012552E+02  0.20488034938E+03  0.22743179746E+03  0.91906667607E+02 0.  0.
          5    1    3    3  502    0  0.40497822321E+02 -0.40508674887E+02  0.58810099763E+02  0.82201743218E+02  0.41800000000E+01 0. -1.
         -5    1    3    3    0  502 -0.33153645156E+02  0.51746623351E+01 -0.36646331237E+02  0.49863486747E+02  0.41800000000E+01 0. -1.
        -11    1    4    4    0    0 -0.54215764850E+01 -0.25086975624E+02  0.12302507006E+03  0.12567385448E+03  0.00000000000E+00 0. -1.
         11    1    4    4    0    0 -0.19226006806E+01  0.60420988175E+02  0.81855279325E+02  0.10175794298E+03  0.00000000000E+00 0.  1.
</event>
<event>
 8    1  0.7192024E-009  0.1249739E+03  0.7561462E-02  0.1235110E+00
         -3   -1    0    0    0  501 -0.00000000000E+00  0.00000000000E+00  0.93677667087E+02  0.93677667087E+02  0.00000000000E+00 0.  1.
          3   -1    0    0  501    0  0.00000000000E+00 -0.00000000000E+00 -0.23144288133E+03  0.23144288133E+03  0.00000000000E+00 0. -1.
         25    2    1    2    0    0  0.64343863761E+02 -0.31014533851E+02 -0.14986384947E+03  0.20786386970E+03  0.12508469464E+03 0.  0.
         23    2    1    2    0    0 -0.64343863761E+02  0.31014533851E+02  0.12098635235E+02  0.11725667871E+03  0.92199336302E+02 0.  0.
          5    1    3    3  502    0  0.37579775734E+02  0.47471521598E+02 -0.56461070442E+02  0.82892157545E+02  0.41800000000E+01 0. -1.
         -5    1    3    3    0  502  0.26764088027E+02 -0.78486055449E+02 -0.93402779033E+02  0.12497171215E+03  0.41800000000E+01 0. -1.
        -11    1    4    4    0    0 -0.51307305232E+02 -0.18871196876E+02 -0.17998376046E+02  0.57554349809E+02  0.00000000000E+00 0. -1.
         11    1    4    4    0    0 -0.13036558530E+02  0.49885730727E+02  0.30097011282E+02  0.59702328904E+02  0.00000000000E+00 0.  1.
</event>
<event>
 8    1  0.7192024E-009  0.1671627E+03  0.7561462E-02  0.1180839E+00
          2   -1    0    0  501    0  0.00000000000E+00  0.00000000000E+00  0.18607608401E+04  0.18607608401E+04  0.00000000000E+00 0. -1.
         -2   -1    0    0    0  501 -0.00000000000E+00 -0.00000000000E+00 -0.18500391616E+02  0.18500391616E+02  0.00000000000E+00 0.  1.
         25    2    1    2    0    0  0.65830625119E+02  0.11806270416E+03  0.12890563132E+04  0.13021471330E+04  0.12509398129E+03 0.  0.
         23    2    1    2    0    0 -0.65830625119E+02 -0.11806270416E+03  0.55320413529E+03  0.57711409869E+03  0.93559576121E+02 0.  0.
          5    1    3    3  502    0  0.76266063976E+02  0.13950055452E+03  0.10695457022E+04  0.10813058766E+04  0.41800000000E+01 0.  1.
         -5    1    3    3    0  502 -0.10435438857E+02 -0.21437850362E+02  0.21951061103E+03  0.22084125649E+03  0.41800000000E+01 0.  1.
        -11    1    4    4    0    0 -0.58020241844E+02 -0.35233959022E+02  0.36620244499E+03  0.37244061412E+03  0.00000000000E+00 0.  1.
         11    1    4    4    0    0 -0.78103832756E+01 -0.82828745140E+02  0.18700169030E+03  0.20467348456E+03  0.00000000000E+00 0. -1.
</event>
<event>
 8    1  0.7192024E-009  0.1267975E+03  0.7561462E-02  0.1232286E+00
          3   -1    0    0  501    0  0.00000000000E+00  0.00000000000E+00  0.96256927617E+02  0.96256927617E+02  0.00000000000E+00 0. -1.
         -3   -1    0    0    0  501 -0.00000000000E+00 -0.00000000000E+00 -0.20608427801E+03  0.20608427801E+03  0.00000000000E+00 0.  1.
         25    2    1    2    0    0 -0.73011845933E+02 -0.52745575032E+02 -0.42653332739E+02  0.15992820165E+03  0.12507956491E+03 0.  0.
         23    2    1    2    0    0  0.73011845933E+02  0.52745575032E+02 -0.67174017659E+02  0.14241300398E+03  0.87500226983E+02 0.  0.
          5    1    3    3  502    0  0.31001037925E+02 -0.36619067626E+02 -0.20185437681E+02  0.52220156650E+02  0.41800000000E+01 0. -1.
         -5    1    3    3    0  502 -0.10401288386E+03 -0.16126507406E+02 -0.22467895058E+02  0.10770804500E+03  0.41800000000E+01 0. -1.
        -11    1    4    4    0    0  0.13072514456E+02  0.35339538571E+02 -0.70469337771E+02  0.79910582444E+02  0.00000000000E+00 0.  1.
         11    1    4    4    0    0  0.59939331477E+02  0.17406036461E+02  0.32953201121E+01  0.62502421536E+02  0.00000000000E+00 0. -1.
</event>
<event>
 8    1  0.7192024E-009  0.1114007E+03  0.7561462E-02  0.1257998E+00
         -2   -1    0    0    0  501 -0.00000000000E+00  0.00000000000E+00  0.19037777114E+02  0.19037777114E+02  0.00000000000E+00 0.  1.
          2   -1    0    0  501    0  0.00000000000E+00 -0.00000000000E+00 -0.71514555800E+03  0.71514555800E+03  0.00000000000E+00 0. -1.
         25    2    1    2    0    0 -0.91786209445E+01 -0.44810840293E+02 -0.40779659155E+03  0.42899849431E+03  0.12509752016E+03 0.  0.
         23    2    1    2    0    0  0.91786209445E+01  0.44810840293E+02 -0.28831118934E+03  0.30518484081E+03  0.89006666437E+02 0.  0.
          5    1    3    3  502    0 -0.61587499097E+02 -0.44721346110E+02 -0.18512588593E+03  0.20020510704E+03  0.41800000000E+01 0. -1.
         -5    1    3    3    0  502  0.52408878152E+02 -0.89494182869E-01 -0.22267070562E+03  0.22879338727E+03  0.41800000000E+01 0. -1.
        -11    1    4    4    0    0  0.42568742358E+02  0.63054498262E+01 -0.18560344112E+03  0.19052688492E+03  0.00000000000E+00 0. -1.
         11    1    4    4    0    0 -0.33390121413E+02  0.38505390467E+02 -0.10270774822E+03  0.11465795588E+03  0.00000000000E+00 0.  1.
</event>
<event>
 8    1  0.7192024E-009  0.1767873E+03  0.7561462E-02  0.1170949E+00
          1   -1    0    0  501    0  0.00000000000E+00  0.00000000000E+00  0.11554462508E+04  0.11554462508E+04  0.00000000000E+00 0. -1.
         -1   -1    0    0    0  501 -0.00000000000E+00 -0.00000000000E+00 -0.31830665435E+02  0.31830665435E+02  0.00000000000E+00 0.  1.
         25    2    1    2    0    0  0.14177429863E+03 -0.67932231244E+02  0.63243976731E+03  0.66358355683E+03  0.12509331649E+03 0.  0.
         23    2    1    2    0    0 -0.14177429863E+03  0.67932231244E+02  0.49117581803E+03  0.52369335938E+03  0.91029174689E+02 0.  0.
          5    1    3    3  502    0  0.42638124664E+02  0.31408435567E+02  0.26411746956E+03  0.26940677354E+03  0.41800000000E+01 0. -1.
         -5    1    3    3    0  502  0.99136173967E+02 -0.99340666810E+02  0.36832229774E+03  0.39417678329E+03  0.41800000000E+01 0. -1.
        -11    1    4    4    0    0 -0.89311914694E+02  0.26395409427E+02  0.15422869357E+03  0.18016610576E+03  0.00000000000E+00 0.  1.
         11    1    4    4    0    0 -0.52462383937E+02  0.41536821817E+02  0.33694712446E+03  0.34352725362E+03  0.00000000000E+00 0. -1.
</event>
<event>
 8    1  0.7192024E-009  0.1009223E+03  0.7561462E-02  0.1278368E+00
          2   -1    0    0  501    0  0.00000000000E+00  0.00000000000E+00  0.13174008835E+03  0.13174008835E+03  0.00000000000E+00 0. -1.
         -2   -1    0    0    0  501 -0.00000000000E+00 -0.00000000000E+00 -0.13909762825E+03  0.13909762825E+03  0.00000000000E+00 0.  1.
         25    2    1    2    0    0  0.31655692821E+01  0.79073375936E+02 -0.17744153183E+02  0.14907824447E+03  0.12508736304E+03 0.  0.
         23    2    1    2    0    0 -0.31655692821E+01 -0.79073375936E+02  0.10386613285E+02  0.12175947212E+03  0.91950354563E+02 0.  0.
          5    1    3    3  502    0  0.11073652419E+02  0.54555533807E+02  0.50958453335E+02  0.75585503988E+02  0.41800000000E+01 0. -1.
         -5    1    3    3    0  502 -0.79080831368E+01  0.24517842129E+02 -0.68702606519E+02  0.73492740485E+02  0.41800000000E+01 0. -1.
        -11    1    4    4    0    0 -0.37934862961E+02 -0.76092801490E+02 -0.10666784854E+01  0.85031206445E+02  0.00000000000E+00 0.  1.
         11    1    4    4    0    0  0.34769293679E+02 -0.29805744452E+01  0.11453291770E+02  0.36728265673E+02  0.00000000000E+00 0. -1.
</event>
<event>
 8    1  0.7192024E-009  0.2523771E+03  0.7561462E-02  0.1111812E+00
          2   -1    0    0  501    0  0.00000000000E+00  0.00000000000E+00  0.44407349562E+03  0.44407349562E+03  0.00000000000E+00 0.  1.
         -2   -1    0    0    0  501 -0.00000000000E+00 -0.00000000000E+00 -0.16159882980E+03  0.16159882980E+03  0.00000000000E+00 0. -1.
         25    2    1    2    0    0  0.18015155429E+03 -0.16338232528E+03  0.11624039050E+03  0.29717228988E+03  0.12510465522E+03 0.  0.
         23    2    1    2    0    0 -0.18015155429E+03  0.16338232528E+03  0.16623427531E+03  0.30850003555E+03  0.91597330296E+02 0.  0.
          5    1    3    3  502    0  0.57715256313E+02 -0.71228665011E+02  0.11067324092E+03  0.14377277972E+03  0.41800000000E+01 0. -1.
         -5    1    3    3    0  502  0.12243629798E+03 -0.92153660269E+02  0.55671495803E+01  0.15339951016E+03  0.41800000000E+01 0. -1.
        -11    1    4    4    0    0 -0.11312217869E+03  0.41327486607E+02  0.71108426382E+02  0.13986063335E+03  0.00000000000E+00 0. -1.
         11    1    4    4    0    0 -0.67029375603E+02  0.12205483867E+03  0.95125848928E+02  0.16863940219E+03  0.00000000000E+00 0.  1.
</event>
<event>
 8    1  0.7192024E-009  0.1138529E+03  0.7561462E-02  0.1253597E+00
         -2   -1    0    0    0  501 -0.00000000000E+00  0.00000000000E+00  0.11661676452E+03  0.11661676452E+03  0.00000000000E+00 0.  1.
          2   -1    0    0  501    0  0.00000000000E+00 -0.00000000000E+00 -0.12663299214E+03  0.12663299214E+03  0.00000000000E+00 0. -1.
         25    2    1    2    0    0  0.51877222720E+02 -0.23004415305E+02 -0.97379468015E+01  0.13770661024E+03  0.12509130080E+03 0.  0.
         23    2    1    2    0    0 -0.51877222720E+02  0.23004415305E+02 -0.27828081138E+00  0.10554314642E+03  0.88987802288E+02 0.  0.
          5    1    3    3  502    0 -0.29723478572E+02  0.14676734968E+02 -0.30638697587E+02  0.45333143698E+02  0.41800000000E+01 0. -1.
         -5    1    3    3    0  502  0.81600701292E+02 -0.37681150273E+02  0.20900750786E+02  0.92373466540E+02  0.41800000000E+01 0. -1.
        -11    1    4    4    0    0 -0.36672596673E+02 -0.31119604959E+02  0.78703120174E+01  0.48736546562E+02  0.00000000000E+00 0.  1.
         11    1    4    4    0    0 -0.15204626047E+02  0.54124020264E+02 -0.81485928288E+01  0.56806599861E+02  0.00000000000E+00 0. -1.
</event>
<event>
 8    1  0.7192024E-009  0.1288733E+03  0.7561462E-02  0.1229137E+00
         -2   -1    0    0    0  501 -0.00000000000E+00  0.00000000000E+00  0.40528141543E+02  0.40528141543E+02  0.00000000000E+00 0.  1.
          2   -1    0    0  501    0  0.00000000000E+00 -0.00000000000E+00 -0.11945401808E+04  0.11945401808E+04  0.00000000000E+00 0. -1.
         25    2    1    2    0    0 -0.31635118130E+02  0.85004713815E+02 -0.10707534892E+04  0.10818446030E+04  0.12509247948E+03 0.  0.
         23    2    1    2    0    0  0.31635118130E+02 -0.85004713815E+02 -0.83258550060E+02  0.15322371931E+03  0.91208222931E+02 0.  0.
          5    1    3    3  502    0 -0.65367332516E+02  0.96830427807E+02 -0.87939245724E+03  0.88712884418E+03  0.41800000000E+01 0. -1.
         -5    1    3    3    0  502  0.33732214386E+02 -0.11825713992E+02 -0.19136103195E+03  0.19471575886E+03  0.41800000000E+01 0. -1.
        -11    1    4    4    0    0  0.45351695800E+02 -0.75813278679E+02 -0.97391525821E+02  0.13148969099E+03  0.00000000000E+00 0. -1.
         11    1    4    4    0    0 -0.13716577670E+02 -0.91914351361E+01  0.14132975761E+02  0.21734028313E+02  0.00000000000E+00 0.  1.
</event>
<event>
 8    1  0.7192024E-009  0.1213860E+03  0.7561462E-02  0.1240828E+00
         -2   -1    0    0    0  501 -0.00000000000E+00  0.00000000000E+00  0.45680904818E+03  0.45680904818E+03  0.00000000000E+00 0.  1.
          2   -1    0    0  501    0  0.00000000000E+00 -0.00000000000E+00 -0.42710219406E+02  0.42710219406E+02  0.00000000000E+00 0. -1.
         25    2    1    2    0    0  0.44549365146E+02 -0.71906499458E+02  0.26504763853E+03  0.30504359107E+03  0.12508457605E+03 0.  0.
         23    2    1    2    0    0 -0.44549365146E+02  0.71906499458E+02  0.14905119025E+03  0.19447567652E+03  0.91920296141E+02 0.  0.
          5    1    3    3  502    0  0.68537205762E+02 -0.27737790984E+02  0.23487135196E+03  0.24626968550E+03  0.41800000000E+01 0.  1.
         -5    1    3    3    0  502 -0.23987840616E+02 -0.44168708474E+02  0.30176286565E+02  0.58773905575E+02  0.41800000000E+01 0.  1.
        -11    1    4    4    0    0 -0.65302546475E+02  0.72428847617E+02  0.93214955372E+02  0.13490510905E+03  0.00000000000E+00 0. -1.
         11    1    4    4    0    0  0.20753181329E+02 -0.52234815946E+00  0.55836234875E+02  0.59570567463E+02  0.00000000000E+00 0.  1.
</event>
<event>
 8    1  0.7192024E-009  0.1559734E+03  0.7561462E-02  0.1193319E+00
         -2   -1    0    0    0  501 -0.00000000000E+00  0.00000000000E+00  0.25883886828E+02  0.25883886828E+02  0.00000000000E+00 0.  1.
          2   -1    0    0  501    0  0.00000000000E+00 -0.00000000000E+00 -0.11503977225E+04  0.11503977225E+04  0.00000000000E+00 0. -1.
         25    2    1    2    0    0  0.10112897319E+03 -0.75593320840E+02 -0.75865287795E+03  0.77919367441E+03  0.12508866315E+03 0.  0.
         23    2    1    2    0    0 -0.10112897319E+03  0.75593320840E+02 -0.36586095772E+03  0.39708793491E+03  0.88787207964E+02 0.  0.
          5    1    3    3  502    0  0.11237542751E+03 -0.12131942188E+02 -0.47485533544E+03  0.48813981883E+03  0.41800000000E+01 0. -1.
         -5    1    3    3    0  502 -0.11246454328E+02 -0.63461378652E+02 -0.28379754250E+03  0.29105385558E+03  0.41800000000E+01 0. -1.
        -11    1    4    4    0    0 -0.36975777089E+02  0.25852600397E+01 -0.30727560380E+02  0.48146387484E+02  0.00000000000E+00 0.  1.
         11    1    4    4    0    0 -0.64153196096E+02  0.73008060800E+02 -0.33513339734E+03  0.34894154743E+03  0.00000000000E+00 0. -1.
</event>
<event>
 8    1  0.7192024E-009  0.2261840E+03  0.7561462E-02  0.1129355E+00
          2   -1    0    0  501    0  0.00000000000E+00  0.00000000000E+00  0.56100127649E+03  0.56100127649E+03  0.00000000000E+00 0.  1.
         -2   -1    0    0    0  501 -0.00000000000E+00 -0.00000000000E+00 -0.10287517138E+03  0.10287517138E+03  0.00000000000E+00 0. -1.
         25    2    1    2    0    0  0.61769858805E+02 -0.20433294044E+03  0.25300836199E+03  0.35387553335E+03  0.12508875193E+03 0.  0.
         23    2    1    2    0    0 -0.61769858805E+02  0.20433294044E+03  0.20511774312E+03  0.31000091453E+03  0.91977238815E+02 0.  0.
          5    1    3    3  502    0 -0.86281304112E+01 -0.67911509894E+02  0.14340088143E+02  0.70068026506E+02  0.41800000000E+01 0.  1.
         -5    1    3    3    0  502  0.70397989216E+02 -0.13642143054E+03  0.23866827385E+03  0.28380750684E+03  0.41800000000E+01 0.  1.
        -11    1    4    4    0    0 -0.56812399625E+02  0.49653349850E+02  0.47785544400E+02  0.89311601464E+02  0.00000000000E+00 0. -1.
         11    1    4    4    0    0 -0.49574591798E+01  0.15467959059E+03  0.15733219872E+03  0.22068931306E+03  0.00000000000E+00 0.  1.
</event>
<event>
 8    1  0.7192024E-009  0.1090207E+03  0.7561462E-02  0.1262394E+00
          2   -1    0    0  501    0  0.00000000000E+00  0.00000000000E+00  0.78013801666E+02  0.78013801666E+02  0.00000000000E+00 0. -1.
         -2   -1    0    0    0  501 -0.00000000000E+00 -0.00000000000E+00 -0.19644276682E+03  0.19644276682E+03  0.00000000000E+00 0.  1.
         25    2    1    2    0    0 -0.39637526749E+02 -0.11850436640E+02 -0.14043065519E+02  0.13249964263E+03  0.12508949290E+03 0.  0.
         23    2    1    2    0    0  0.39637526749E+02  0.11850436640E+02 -0.10438589963E+03  0.14195692585E+03  0.86854973258E+02 0.  0.
          5    1    3    3  502    0  0.91896328371E+01 -0.58705760207E+02  0.10318719094E+02  0.60454644130E+02  0.41800000000E+01 0. -1.
         -5    1    3    3    0  502 -0.48827159586E+02  0.46855323567E+02 -0.24361784613E+02  0.72044998504E+02  0.41800000000E+01 0. -1.
        -11    1    4    4    0    0 -0.23020576421E+02  0.15751172431E+02 -0.12247898836E+02  0.30464034493E+02  0.00000000000E+00 0. -1.
         11    1    4    4    0    0  0.62658103170E+02 -0.39007357914E+01 -0.92138000796E+02  0.11149289136E+03  0.00000000000E+00 0.  1.
</event>
<event>
 8    1  0.7192024E-009  0.1132638E+03  0.7561462E-02  0.1254642E+00
         -1   -1    0    0    0  501 -0.00000000000E+00  0.00000000000E+00  0.75721726519E+02  0.75721726519E+02  0.00000000000E+00 0.  1.
          1   -1    0    0  501    0  0.00000000000E+00 -0.00000000000E+00 -0.22141461416E+03  0.22141461416E+03  0.00000000000E+00 0. -1.
         25    2    1    2    0    0 -0.33119519858E+02 -0.62529036639E+02 -0.75272748252E+02  0.16224614133E+03  0.12510411955E+03 0.  0.
         23    2    1    2    0    0  0.33119519858E+02  0.62529036639E+02 -0.70420139385E+02  0.13489019935E+03  0.90717070224E+02 0.  0.
          5    1    3    3  502    0 -0.48586234006E+02 -0.83102649283E+02 -0.16243505034E+02  0.97713849113E+02  0.41800000000E+01 0. -1.
         -5    1    3    3    0  502  0.15466714148E+02  0.20573612644E+02 -0.59029243217E+02  0.64532292215E+02  0.41800000000E+01 0. -1.
        -11    1    4    4    0    0 -0.13261875362E+02  0.55650032904E+02 -0.66671954127E+02  0.87851880842E+02  0.00000000000E+00 0.  1.
         11    1    4    4    0    0  0.46381395220E+02  0.68790037344E+01 -0.37481852579E+01  0.47038318504E+02  0.00000000000E+00 0. -1.
</event>
<event>
 8    1  0.7192024E-009  0.1175875E+03  0.7561462E-02  0.1247131E+00
         -1   -1    0    0    0  501 -0.00000000000E+00  0.00000000000E+00  0.28628896209E+02  0.28628896209E+02  0.00000000000E+00 0.  1.
          1   -1    0    0  501    0  0.00000000000E+00 -0.00000000000E+00 -0.79566570453E+03  0.79566570453E+03  0.00000000000E+00 0. -1.
         25    2    1    2    0    0  0.67369124255E+02  0.10297967967E+02 -0.63505045622E+03  0.65083134997E+03  0.12509083545E+03 0.  0.
         23    2    1    2    0    0 -0.67369124255E+02 -0.10297967967E+02 -0.13198635211E+03  0.17346325077E+03  0.89579323393E+02 0.  0.
          5    1    3    3  502    0  0.16838852618E+02  0.58759625331E+02 -0.17388842188E+03  0.18436620132E+03  0.41800000000E+01 0.  1.
         -5    1    3    3    0  502  0.50530271637E+02 -0.48461657364E+02 -0.46116203434E+03  0.46646514865E+03  0.41800000000E+01 0.  1.
        -11    1    4    4    0    0  0.13099684379E+02 -0.18734233781E+02 -0.63398590493E+02  0.67394024384E+02  0.00000000000E+00 0. -1.
         11    1    4    4    0    0 -0.80468808633E+02  0.84362658140E+01 -0.68587761615E+02  0.10606922639E+03  0.00000000000E+00 0.  1.
</event>
<event>
 8    1  0.7192024E-009  0.2845562E+03  0.7561462E-02  0.1093226E+00
         -1   -1    0    0    0  501 -0.00000000000E+00  0.00000000000E+00  0.98171252036E+02  0.98171252036E+02  0.00000000000E+00 0.  1.
          1   -1    0    0  501    0  0.00000000000E+00 -0.00000000000E+00 -0.92599456668E+03  0.92599456668E+03  0.00000000000E+00 0. -1.
         25    2    1    2    0    0 -0.98943186006E+02  0.25274685761E+03 -0.54892338304E+03  0.62500780148E+03  0.12508854212E+03 0.  0.
         23    2    1    2    0    0  0.98943186006E+02 -0.25274685761E+03 -0.27889993160E+03  0.39915801723E+03  0.88719911984E+02 0.  0.
          5    1    3    3  502    0 -0.11260321918E+03  0.13431648312E+03 -0.27360567162E+03  0.32495836434E+03  0.41800000000E+01 0.  1.
         -5    1    3    3    0  502  0.13660033178E+02  0.11843037449E+03 -0.27531771142E+03  0.30004943714E+03  0.41800000000E+01 0.  1.
        -11    1    4    4    0    0  0.35968514365E+02 -0.14776777494E+03 -0.98680343334E+02  0.18129219370E+03  0.00000000000E+00 0.  1.
         11    1    4    4    0    0  0.62974671642E+02 -0.10497908267E+03 -0.18021958827E+03  0.21786582353E+03  0.00000000000E+00 0. -1.
</event>
<event>
 8    1  0.7192024E-009  0.8632407E+02  0.7561462E-02  0.1312006E+00
          2   -1    0    0  501    0  0.00000000000E+00  0.00000000000E+00  0.42406909436E+03  0.42406909436E+03  0.00000000000E+00 0. -1.
         -2   -1    0    0    0  501 -0.00000000000E+00 -0.00000000000E+00 -0.40250915227E+02  0.40250915227E+02  0.00000000000E+00 0.  1.
         25    2    1    2    0    0 -0.12867130123E+02  0.66373281612E+02  0.26618500970E+03  0.30178142907E+03  0.12508635413E+03 0.  0.
         23    2    1    2    0    0  0.12867130123E+02 -0.66373281612E+02  0.11763316943E+03  0.16253858052E+03  0.89500011493E+02 0.  0.
          5    1    3    3  502    0  0.92845636352E+01  0.56580327902E+02  0.27074746819E+03  0.27678367104E+03  0.41800000000E+01 0.  1.
         -5    1    3    3    0  502 -0.22151693758E+02  0.97929537106E+01 -0.45624584838E+01  0.24997758022E+02  0.41800000000E+01 0.  1.
        -11    1    4    4    0    0  0.27394174097E+02 -0.54259587279E+01  0.89686430193E+02  0.93933687053E+02  0.00000000000E+00 0.  1.
         11    1    4    4    0    0 -0.14527043974E+02 -0.60947322885E+02  0.27946739235E+02  0.68604893465E+02  0.00000000000E+00 0. -1.
</event>
<event>
 8    1  0.7192024E-009  0.9246437E+02  0.7561462E-02  0.1296991E+00
         -2   -1    0    0    0  501 -0.00000000000E+00  0.00000000000E+00  0.48873994999E+02  0.48873994999E+02  0.00000000000E+00 0. -1.
          2   -1    0    0  501    0  0.00000000000E+00 -0.00000000000E+00 -0.31628704615E+03  0.31628704615E+03  0.00000000000E+00 0.  1.
         25    2    1    2    0    0 -0.12040396129E+02 -0.39255996563E+02 -0.87739914691E+02  0.15821450825E+03  0.12509010187E+03 0.  0.
         23    2    1    2    0    0  0.12040396129E+02  0.39255996563E+02 -0.17967313646E+03  0.20694653290E+03  0.94119217528E+02 0.  0.
          5    1    3    3  502    0 -0.35620988144E+02  0.86128322008E+01 -0.97106679043E+02  0.10387596060E+03  0.41800000000E+01 0.  1.
         -5    1    3    3    0  502  0.23580592014E+02 -0.47868828764E+02  0.93667643512E+01  0.54338547656E+02  0.41800000000E+01 0.  1.
        -11    1    4    4    0    0  0.46349934409E+02  0.60000033559E+01 -0.12943374604E+03  0.13761326635E+03  0.00000000000E+00 0.  1.
         11    1    4    4    0    0 -0.34309538280E+02  0.33255993207E+02 -0.50239390419E+02  0.69333266552E+02  0.00000000000E+00 0. -1.
</event>
<event>
 8    1  0.7192024E-009  0.1389056E+03  0.7561462E-02  0.1214809E+00
          1   -1    0    0  501    0  0.00000000000E+00  0.00000000000E+00  0.21343175329E+03  0.21343175329E+03  0.00000000000E+00 0. -1.
         -1   -1    0    0    0  501 -0.00000000000E+00 -0.00000000000E+00 -0.11939770561E+03  0.11939770561E+03  0.00000000000E+00 0.  1.
         25    2    1    2    0    0 -0.10019246072E+03 -0.43960460355E+02  0.78063247786E+01  0.16637212631E+03  0.12509074485E+03 0.  0.
         23    2    1    2    0    0  0.10019246072E+03  0.43960460355E+02  0.86227722894E+02  0.16645733259E+03  0.91114061024E+02 0.  0.
          5    1    3    3  502    0 -0.95467338315E+02 -0.81565324557E+02 -0.61028579903E+01  0.12578406946E+03  0.41800000000E+01 0.  1.
         -5    1    3    3    0  502 -0.47251224079E+01  0.37604864201E+02  0.13909182769E+02  0.40588056848E+02  0.41800000000E+01 0.  1.
        -11    1    4    4    0    0  0.79628480058E+02  0.19297245218E+02  0.85187820761E+01  0.82375045721E+02  0.00000000000E+00 0.  1.
         11    1    4    4    0    0  0.20563980665E+02  0.24663215137E+02  0.77708940818E+02  0.84082286867E+02  0.00000000000E+00 0. -1.
</event>
<event>
 8    1  0.7192024E-009  0.1255449E+03  0.7561462E-02  0.1234220E+00
          2   -1    0    0  501    0  0.00000000000E+00  0.00000000000E+00  0.61169277733E+03  0.61169277733E+03  0.00000000000E+00 0. -1.
         -2   -1    0    0    0  501 -0.00000000000E+00 -0.00000000000E+00 -0.53780830437E+02  0.53780830437E+02  0.00000000000E+00 0.  1.
         25    2    1    2    0    0  0.11283908531E+03 -0.24468550638E+02  0.45745600874E+03  0.48810315480E+03  0.12508925073E+03 0.  0.
         23    2    1    2    0    0 -0.11283908531E+03  0.24468550638E+02  0.10045593815E+03  0.17737045296E+03  0.89652177494E+02 0.  0.
          5    1    3    3  502    0  0.64051964957E+02 -0.28682553311E+02  0.76145997948E+02  0.10363893324E+03  0.41800000000E+01 0.  1.
         -5    1    3    3    0  502  0.48787120358E+02  0.42140026733E+01  0.38131001079E+03  0.38446422156E+03  0.41800000000E+01 0.  1.
        -11    1    4    4    0    0 -0.32953536428E+02 -0.21618061667E+02 -0.20718573356E+01  0.39466045484E+02  0.00000000000E+00 0.  1.
         11    1    4    4    0    0 -0.79885548887E+02  0.46086612305E+02  0.10252779548E+03  0.13790440748E+03  0.00000000000E+00 0. -1.
</event>
<event>
 8    1  0.7192024E-009  0.1084108E+03  0.7561462E-02  0.1263541E+00
         -2   -1    0    0    0  501 -0.00000000000E+00  0.00000000000E+00  0.15839810955E+02  0.15839810955E+02  0.00000000000E+00 0.  1.
          2   -1    0    0  501    0  0.00000000000E+00 -0.00000000000E+00 -0.12374682511E+04  0.12374682511E+04  0.00000000000E+00 0. -1.
         25    2    1    2    0    0 -0.70973017040E+02 -0.12804443286E+02 -0.88883284347E+03  0.90048457162E+03  0.12509003627E+03 0.  0.
         23    2    1    2    0    0  0.70973017040E+02  0.12804443286E+02 -0.33279559669E+03  0.35282349046E+03  0.92360074290E+02 0.  0.
          5    1    3    3  502    0 -0.65326921350E+02  0.18818940547E+02 -0.83415373950E+03  0.83692992102E+03  0.41800000000E+01 0.  1.
         -5    1    3    3    0  502 -0.56460956905E+01 -0.31623383833E+02 -0.54679103972E+02  0.63554650599E+02  0.41800000000E+01 0.  1.
        -11    1    4    4    0    0  0.25476972028E+02  0.50936538976E+02 -0.14159764148E+03  0.15262207959E+03  0.00000000000E+00 0.  1.
         11    1    4    4    0    0  0.45496045012E+02 -0.38132095690E+02 -0.19119795522E+03  0.20020141087E+03  0.00000000000E+00 0. -1.
</event>
<event>
 8    1  0.7192024E-009  0.5419243E+02  0.7561462E-02  0.1423957E+00
          1   -1    0    0  501    0  0.00000000000E+00  0.00000000000E+00  0.17107717694E+03  0.17107717694E+03  0.00000000000E+00 0. -1.
         -1   -1    0    0    0  501 -0.00000000000E+00 -0.00000000000E+00 -0.14997631016E+03  0.14997631016E+03  0.00000000000E+00 0.  1.
         25    2    1    2    0    0 -0.45026135616E+02  0.72516762580E+00  0.12112259412E+03  0.17984851058E+03  0.12508767003E+03 0.  0.
         23    2    1    2    0    0  0.45026135616E+02 -0.72516762580E+00 -0.10002172734E+03  0.14120497652E+03  0.88919180714E+02 0.  0.
          5    1    3    3  502    0 -0.31740807480E+02  0.11455598843E+02  0.14570830230E+03  0.14962316452E+03  0.41800000000E+01 0.  1.
         -5    1    3    3    0  502 -0.13285328136E+02 -0.10730431217E+02 -0.24585708172E+02  0.30225346055E+02  0.41800000000E+01 0.  1.
        -11    1    4    4    0    0  0.25109161557E+02 -0.17626897041E+02 -0.10926943036E+03  0.11349443116E+03  0.00000000000E+00 0.  1.
         11    1    4    4    0    0  0.19916974059E+02  0.16901729416E+02  0.92477030250E+01  0.27710545360E+02  0.00000000000E+00 0. -1.
</event>
<event>
 8    1  0.7192024E-009  0.1065931E+03  0.7561462E-02  0.1267012E+00
          2   -1    0    0  501    0  0.00000000000E+00  0.00000000000E+00  0.35866455395E+03  0.35866455395E+03  0.00000000000E+00 0. -1.
         -2   -1    0    0    0  501 -0.00000000000E+00 -0.00000000000E+00 -0.40690079121E+02  0.40690079121E+02  0.00000000000E+00 0.  1.
         25    2    1    2    0    0 -0.45947805306E+02 -0.34602608954E+01  0.16113833127E+03  0.20913318035E+03  0.12509177071E+03 0.  0.
         23    2    1    2    0    0  0.45947805306E+02  0.34602608954E+01  0.15683614355E+03  0.19022145272E+03  0.97280270006E+02 0.  0.
          5    1    3    3  502    0 -0.47718960145E+01  0.57543758604E+02  0.87642310727E+02  0.10503667062E+03  0.41800000000E+01 0. -1.
         -5    1    3    3    0  502 -0.41175909292E+02 -0.61004019499E+02  0.73496020547E+02  0.10409650973E+03  0.41800000000E+01 0. -1.
        -11    1    4    4    0    0 -0.14917032652E+01  0.28085614152E+02  0.12474786463E+03  0.12787907034E+03  0.00000000000E+00 0. -1.
         11    1    4    4    0    0  0.47439508572E+02 -0.24625353256E+02  0.32088278918E+02  0.62342382377E+02  0.00000000000E+00 0.  1.
</event>
<event>
 8    1  0.7192024E-009  0.1018435E+03  0.7561462E-02  0.1276466E+00
          1   -1    0    0  501    0  0.00000000000E+00  0.00000000000E+00  0.79418119509E+02  0.79418119509E+02  0.00000000000E+00 0. -1.
         -1   -1    0    0    0  501 -0.00000000000E+00 -0.00000000000E+00 -0.23169413279E+03  0.23169413279E+03  0.00000000000E+00 0.  1.
         25    2    1    2    0    0  0.60701568588E+02  0.19924763877E+02 -0.27479078938E+02  0.14312332801E+03  0.12509000999E+03 0.  0.
         23    2    1    2    0    0 -0.60701568588E+02 -0.19924763877E+02 -0.12479693434E+03  0.16798892428E+03  0.92543650328E+02 0.  0.
          5    1    3    3  502    0  0.60579274042E+02 -0.29624292357E+02 -0.54250925103E+02  0.86649191662E+02  0.41800000000E+01 0. -1.
         -5    1    3    3    0  502  0.12229454602E+00  0.49549056234E+02  0.26771846166E+02  0.56474136353E+02  0.41800000000E+01 0. -1.
        -11    1    4    4    0    0 -0.32711043144E+02 -0.40205925519E+02 -0.12288664295E+03  0.13337037080E+03  0.00000000000E+00 0.  1.
         11    1    4    4    0    0 -0.27990525443E+02  0.20281161642E+02 -0.19102913864E+01  0.34618553484E+02  0.00000000000E+00 0. -1.
</event>
<event>
 8    1  0.7192024E-009  0.9757658E+02  0.7561462E-02  0.1285476E+00
          2   -1    0    0  501    0  0.00000000000E+00  0.00000000000E+00  0.17425042299E+04  0.17425042299E+04  0.00000000000E+00 0. -1.
         -2   -1    0    0    0  501 -0.00000000000E+00 -0.00000000000E+00 -0.10889006212E+02  0.10889006212E+02  0.00000000000E+00 0.  1.
         25    2    1    2    0    0  0.86184410366E+01 -0.26531038541E+02  0.14710378161E+04  0.14766102043E+04  0.12508902975E+03 0.  0.
         23    2    1    2    0    0 -0.86184410366E+01  0.26531038541E+02  0.26057740754E+03  0.27678303182E+03  0.89051040693E+02 0.  0.
          5    1    3    3  502    0 -0.32806083545E+02  0.22358739485E+02  0.10447874868E+04  0.10455498636E+04  0.41800000000E+01 0.  1.
         -5    1    3    3    0  502  0.41424524581E+02 -0.48889778026E+02  0.42625032935E+03  0.43106034067E+03  0.41800000000E+01 0.  1.
        -11    1    4    4    0    0 -0.90186333498E+01  0.58426836362E+02  0.19657042684E+03  0.20526802884E+03  0.00000000000E+00 0.  1.
         11    1    4    4    0    0  0.40019231317E+00 -0.31895797821E+02  0.64006980699E+02  0.71515002977E+02  0.00000000000E+00 0. -1.
</event>
<event>
 8    1  0.7192024E-009  0.1746106E+03  0.7561462E-02  0.1173123E+00
         -1   -1    0    0    0  501 -0.00000000000E+00  0.00000000000E+00  0.34250503177E+02  0.34250503177E+02  0.00000000000E+00 0.  1.
          1   -1    0    0  501    0  0.00000000000E+00 -0.00000000000E+00 -0.10785876622E+04  0.10785876622E+04  0.00000000000E+00 0. -1.
         25    2    1    2    0    0 -0.13154222815E+03 -0.75782180859E+02 -0.42359125759E+03  0.46703556456E+03  0.12508544413E+03 0.  0.
         23    2    1    2    0    0  0.13154222815E+03  0.75782180859E+02 -0.62074590142E+03  0.64580260081E+03  0.93216030576E+02 0.  0.
          5    1    3    3  502    0  0.50588897482E+01  0.11791614281E+02 -0.90926543838E-01  0.13495006502E+02  0.41800000000E+01 0. -1.
         -5    1    3    3    0  502 -0.13660111790E+03 -0.87573795140E+02 -0.42350033105E+03  0.45354055806E+03  0.41800000000E+01 0. -1.
        -11    1    4    4    0    0  0.62712248550E+02  0.83193719504E+02 -0.29714579690E+03  0.31488036728E+03  0.00000000000E+00 0.  1.
         11    1    4    4    0    0  0.68829979597E+02 -0.74115386452E+01 -0.32360010452E+03  0.33092223352E+03  0.00000000000E+00 0. -1.
</event>
<event>
 8    1  0.7192024E-009  0.1097340E+03  0.7561462E-02  0.1261063E+00
         -2   -1    0    0    0  501 -0.00000000000E+00  0.00000000000E+00  0.24110859507E+02  0.24110859507E+02  0.00000000000E+00 0.  1.
          2   -1    0    0  501    0  0.00000000000E+00 -0.00000000000E+00 -0.57686560530E+03  0.57686560530E+03  0.00000000000E+00 0. -1.
         25    2    1    2    0    0 -0.47325978523E+01 -0.25804213703E+02 -0.21606328003E+03  0.25103528427E+03  0.12508844090E+03 0.  0.
         23    2    1    2    0    0  0.47325978523E+01  0.25804213703E+02 -0.33669146577E+03  0.34994118054E+03  0.91702954088E+02 0.  0.
          5    1    3    3  502    0  0.28373237842E+02  0.40969171650E+02 -0.11491001897E+03  0.12532078244E+03  0.41800000000E+01 0. -1.
         -5    1    3    3    0  502 -0.33105835695E+02 -0.66773385353E+02 -0.10115326106E+03  0.12571450183E+03  0.41800000000E+01 0. -1.
        -11    1    4    4    0    0 -0.18388741371E+02 -0.29560005578E+02 -0.10572856980E+03  0.11131248902E+03  0.00000000000E+00 0.  1.
         11    1    4    4    0    0  0.23121339223E+02  0.55364219280E+02 -0.23096289596E+03  0.23862869152E+03  0.00000000000E+00 0. -1.
</event>
<event>
 8    1  0.7192024E-009  0.1355410E+03  0.7561462E-02  0.1219458E+00
          1   -1    0    0  501    0  0.00000000000E+00  0.00000000000E+00  0.10547366262E+04  0.10547366262E+04  0.00000000000E+00 0. -1.
         -1   -1    0    0    0  501 -0.00000000000E+00 -0.00000000000E+00 -0.18413615141E+02  0.18413615141E+02  0.00000000000E+00 0.  1.
         25    2    1    2    0    0  0.75471469414E+02  0.39768960431E+02  0.51344768955E+03  0.53530795887E+03  0.12509423657E+03 0.  0.
         23    2    1    2    0    0 -0.75471469414E+02 -0.39768960431E+02  0.52287532149E+03  0.53784228244E+03  0.92726512140E+02 0.  0.
          5    1    3    3  502    0  0.72510261643E+02 -0.30054539070E+02  0.32216721887E+03  0.33161755484E+03  0.41800000000E+01 0.  1.
         -5    1    3    3    0  502  0.29612077713E+01  0.69823499500E+02  0.19128047068E+03  0.20369040404E+03  0.41800000000E+01 0.  1.
        -11    1    4    4    0    0  0.55608701343E+01 -0.41050112853E+02  0.24155339919E+03  0.24507974152E+03  0.00000000000E+00 0. -1.
         11    1    4    4    0    0 -0.81032339549E+02  0.12811524220E+01  0.28132192230E+03  0.29276254093E+03  0.00000000000E+00 0.  1.
</event>
<event>
 8    1  0.7192024E-009  0.1289861E+03  0.7561462E-02  0.1228968E+00
          2   -1    0    0  501    0  0.00000000000E+00  0.00000000000E+00  0.46934846184E+02  0.46934846184E+02  0.00000000000E+00 0. -1.
         -2   -1    0    0    0  501 -0.00000000000E+00 -0.00000000000E+00 -0.40939725365E+03  0.40939725365E+03  0.00000000000E+00 0.  1.
         25    2    1    2    0    0 -0.30551565428E+02 -0.74273504953E+02 -0.15930108425E+03  0.21788664952E+03  0.12509118636E+03 0.  0.
         23    2    1    2    0    0  0.30551565428E+02  0.74273504953E+02 -0.20316132321E+03  0.23844545032E+03  0.95560231480E+02 0.  0.
          5    1    3    3  502    0 -0.78121622054E+02 -0.30888142148E+02 -0.92090626426E+02  0.12472057181E+03  0.41800000000E+01 0.  1.
         -5    1    3    3    0  502  0.47570056626E+02 -0.43385362805E+02 -0.67210457829E+02  0.93166077703E+02  0.41800000000E+01 0.  1.
        -11    1    4    4    0    0 -0.19024172928E+02  0.51279303021E+02 -0.15912430098E+03  0.16826178781E+03  0.00000000000E+00 0.  1.
         11    1    4    4    0    0  0.49575738356E+02  0.22994201932E+02 -0.44037022223E+02  0.70183662503E+02  0.00000000000E+00 0. -1.
</event>
<event>
 8    1  0.7192024E-009  0.1023533E+03  0.7561462E-02  0.1275424E+00
          2   -1    0    0  501    0  0.00000000000E+00  0.00000000000E+00  0.20941575539E+03  0.20941575539E+03  0.00000000000E+00 0. -1.
         -2   -1    0    0    0  501 -0.00000000000E+00 -0.00000000000E+00 -0.67735986897E+02  0.67735986897E+02  0.00000000000E+00 0.  1.
         25    2    1    2    0    0 -0.32275215900E+02  0.35196780300E+02  0.63663968920E+02  0.14824926660E+03  0.12507694114E+03 0.  0.
         23    2    1    2    0    0  0.32275215900E+02 -0.35196780300E+02  0.78015799577E+02  0.12890247569E+03  0.90823346948E+02 0.  0.
          5    1    3    3  502    0 -0.71340277229E+01  0.68153884055E+02  0.78259051235E+02  0.10410474419E+03  0.41800000000E+01 0. -1.
         -5    1    3    3    0  502 -0.25141188177E+02 -0.32957103755E+02 -0.14595082315E+02  0.44144522408E+02  0.41800000000E+01 0. -1.
        -11    1    4    4    0    0  0.59898195939E+02 -0.25732405526E+02  0.27921586907E+02  0.70919430245E+02  0.00000000000E+00 0.  1.
         11    1    4    4    0    0 -0.27622980039E+02 -0.94643747738E+01  0.50094212670E+02  0.57983045445E+02  0.00000000000E+00 0. -1.
</event>
<event>
 8    1  0.7192024E-009  0.1109263E+03  0.7561462E-02  0.1258864E+00
          1   -1    0    0  501    0  0.00000000000E+00  0.00000000000E+00  0.71182165999E+03  0.71182165999E+03  0.00000000000E+00 0. -1.
         -1   -1    0    0    0  501 -0.00000000000E+00 -0.00000000000E+00 -0.26490238624E+02  0.26490238624E+02  0.00000000000E+00 0.  1.
         25    2    1    2    0    0 -0.27785584144E+02 -0.72244425358E+02  0.29000204593E+03  0.32517769972E+03  0.12509218227E+03 0.  0.
         23    2    1    2    0    0  0.27785584144E+02  0.72244425358E+02  0.39532937543E+03  0.41313419890E+03  0.91669272587E+02 0.  0.
          5    1    3    3  502    0 -0.38208104930E+02 -0.84037618266E+02  0.10670246277E+03  0.14115618487E+03  0.41800000000E+01 0. -1.
         -5    1    3    3    0  502  0.10422520787E+02  0.11793192909E+02  0.18329958316E+03  0.18402151484E+03  0.41800000000E+01 0. -1.
        -11    1    4    4    0    0  0.52929666575E+02  0.22687327127E+02  0.13215768615E+03  0.14415935080E+03  0.00000000000E+00 0.  1.
         11    1    4    4    0    0 -0.25144082431E+02  0.49557098231E+02  0.26317168928E+03  0.26897484809E+03  0.00000000000E+00 0. -1.
</event>
<event>
 8    1  0.7192024E-009  0.2151462E+03  0.7561462E-02  0.1137554E+00
          1   -1    0    0  501    0  0.00000000000E+00  0.00000000000E+00  0.15654315492E+03  0.15654315492E+03  0.00000000000E+00 0. -1.
         -1   -1    0    0    0  501 -0.00000000000E+00 -0.00000000000E+00 -0.33178970658E+03  0.33178970658E+03  0.00000000000E+00 0.  1.
         25    2    1    2    0    0  0.18319838146E+03  0.69377052039E+02 -0.13497935774E+03  0.26878029103E+03  0.12509434643E+03 0.  0.
         23    2    1    2    0    0 -0.18319838146E+03 -0.69377052039E+02 -0.40267193911E+02  0.21955257048E+03  0.90592836231E+02 0.  0.
          5    1    3    3  502    0  0.19859461809E+03  0.78795074163E+02 -0.12102782388E+03  0.24558846186E+03  0.41800000000E+01 0. -1.
         -5    1    3    3    0  502 -0.15396236625E+02 -0.94180221238E+01 -0.13951533866E+02  0.23191829168E+02  0.41800000000E+01 0. -1.
        -11    1    4    4    0    0 -0.16600790691E+03 -0.52833695963E+02 -0.64289107774E+02  0.18569629497E+03  0.00000000000E+00 0.  1.
         11    1    4    4    0    0 -0.17190474551E+02 -0.16543356076E+02  0.24021913863E+02  0.33856275507E+02  0.00000000000E+00 0. -1.
</event>
<event>
 8    1  0.7192024E-009  0.1381221E+03  0.7561462E-02  0.1215878E+00
          1   -1    0    0  501    0  0.00000000000E+00  0.00000000000E+00  0.36379682616E+03  0.36379682616E+03  0.00000000000E+00 0. -1.
         -1   -1    0    0    0  501 -0.00000000000E+00 -0.00000000000E+00 -0.68133392469E+02  0.68133392469E+02  0.00000000000E+00 0.  1.
         25    2    1    2    0    0 -0.41827011973E+02  0.10243060846E+03  0.12173727820E+03  0.20666399598E+03  0.12509402005E+03 0.  0.
         23    2    1    2    0    0  0.41827011973E+02 -0.10243060846E+03  0.17392615549E+03  0.22526622265E+03  0.90846216338E+02 0.  0.
          5    1    3    3  502    0  0.37684561948E+02  0.37824345937E+01  0.42896302513E+02  0.57375937378E+02  0.41800000000E+01 0. -1.
         -5    1    3    3    0  502 -0.79511573921E+02  0.98648173863E+02  0.78840975686E+02  0.14928805860E+03  0.41800000000E+01 0. -1.
        -11    1    4    4    0    0  0.24502907083E+02 -0.75230228037E+02  0.42241233205E+02  0.89690029818E+02  0.00000000000E+00 0.  1.
         11    1    4    4    0    0  0.17324104890E+02 -0.27200380419E+02  0.13168492228E+03  0.13557619283E+03  0.00000000000E+00 0. -1.
</event>
<event>
 8    1  0.7192024E-009  0.2329286E+03  0.7561462E-02  0.1124595E+00
          2   -1    0    0  501    0  0.00000000000E+00  0.00000000000E+00  0.92112875738E+03  0.92112875738E+03  0.00000000000E+00 0. -1.
         -2   -1    0    0    0  501 -0.00000000000E+00 -0.00000000000E+00 -0.68077117369E+02  0.68077117369E+02  0.00000000000E+00 0.  1.
         25    2    1    2    0    0 -0.22193102658E+03 -0.29774835716E+02  0.48640616851E+03  0.54988782872E+03  0.12508294052E+03 0.  0.
         23    2    1    2    0    0  0.22193102658E+03  0.29774835716E+02  0.36664547150E+03  0.43931804603E+03  0.91823321620E+02 0.  0.
          5    1    3    3  502    0 -0.86423385388E+02 -0.96407446042E+01  0.33291201226E+03  0.34410728822E+03  0.41800000000E+01 0.  1.
         -5    1    3    3    0  502 -0.13550764119E+03 -0.20134091112E+02  0.15349415625E+03  0.20578054050E+03  0.41800000000E+01 0.  1.
        -11    1    4    4    0    0  0.14876124226E+03  0.62784014891E+02  0.23486011060E+03  0.28501054590E+03  0.00000000000E+00 0. -1.
         11    1    4    4    0    0  0.73169784316E+02 -0.33009179176E+02  0.13178536090E+03  0.15430750012E+03  0.00000000000E+00 0.  1.
</event>
<event>
 8    1  0.7192024E-009  0.1664226E+03  0.7561462E-02  0.1181631E+00
         -2   -1    0    0    0  501 -0.00000000000E+00  0.00000000000E+00  0.12355471343E+02  0.12355471343E+02  0.00000000000E+00 0.  1.
          2   -1    0    0  501    0  0.00000000000E+00 -0.00000000000E+00 -0.24061462797E+04  0.24061462797E+04  0.00000000000E+00 0. -1.
         25    2    1    2    0    0  0.12736866672E+03  0.11738049248E+01 -0.15586066241E+04  0.15687978534E+04  0.12509172990E+03 0.  0.
         23    2    1    2    0    0 -0.12736866672E+03 -0.11738049248E+01 -0.83518418418E+03  0.84970389762E+03  0.90774098985E+02 0.  0.
          5    1    3    3  502    0  0.11598630395E+03  0.50734717494E+02 -0.11767409907E+04  0.11835386203E+04  0.41800000000E+01 0.  1.
         -5    1    3    3    0  502  0.11382362774E+02 -0.49560912569E+02 -0.38186563349E+03  0.38525923308E+03  0.41800000000E+01 0.  1.
        -11    1    4    4    0    0 -0.88025710430E+02  0.41324306658E+02 -0.57371094613E+03  0.58189386810E+03  0.00000000000E+00 0. -1.
         11    1    4    4    0    0 -0.39342956293E+02 -0.42498111583E+02 -0.26147323804E+03  0.26781002952E+03  0.00000000000E+00 0.  1.
</event>
<event>
 8    1  0.7192024E-009  0.2802844E+03  0.7561462E-02  0.1095534E+00
          1   -1    0    0  501    0  0.00000000000E+00  0.00000000000E+00  0.17027796528E+04  0.17027796528E+04  0.00000000000E+00 0. -1.
         -1   -1    0    0    0  501 -0.00000000000E+00 -0.00000000000E+00 -0.57658523373E+02  0.57658523373E+02  0.00000000000E+00 0.  1.
         25    2    1    2    0    0 -0.26405187751E+03 -0.66100192000E+02  0.11478356207E+04  0.11862828426E+04  0.12509093095E+03 0.  0.
         23    2    1    2    0    0  0.26405187751E+03  0.66100192000E+02  0.49728550877E+03  0.57415533366E+03  0.90933165204E+02 0.  0.
          5    1    3    3  502    0 -0.73208823850E+02  0.22919787169E+02  0.47734347708E+03  0.48348641764E+03  0.41800000000E+01 0.  1.
         -5    1    3    3    0  502 -0.19084305366E+03 -0.89019979169E+02  0.67049214362E+03  0.70279642492E+03  0.41800000000E+01 0.  1.
        -11    1    4    4    0    0  0.97907482573E+02  0.13434138809E+02  0.27148390814E+03  0.28891151518E+03  0.00000000000E+00 0. -1.
         11    1    4    4    0    0  0.16614439494E+03  0.52666053191E+02  0.22580160064E+03  0.28524381848E+03  0.00000000000E+00 0.  1.
</event>
<event>
 8    1  0.7192024E-009  0.1913057E+03  0.7561462E-02  0.1157289E+00
          1   -1    0    0  501    0  0.00000000000E+00  0.00000000000E+00  0.84979802153E+03  0.84979802153E+03  0.00000000000E+00 0. -1.
         -1   -1    0    0    0  501 -0.00000000000E+00 -0.00000000000E+00 -0.51033747757E+02  0.51033747757E+02  0.00000000000E+00 0.  1.
         25    2    1    2    0    0  0.65759361670E+02 -0.16487546688E+03  0.44235599412E+03  0.49278246013E+03  0.12509002461E+03 0.  0.
         23    2    1    2    0    0 -0.65759361670E+02  0.16487546688E+03  0.35640827966E+03  0.40804930916E+03  0.89270172331E+02 0.  0.
          5    1    3    3  502    0 -0.10482179548E+02 -0.32740562015E+02  0.22233305687E+03  0.22501395750E+03  0.41800000000E+01 0. -1.
         -5    1    3    3    0  502  0.76241541218E+02 -0.13213490487E+03  0.22002293725E+03  0.26776850264E+03  0.41800000000E+01 0. -1.
        -11    1    4    4    0    0 -0.23587838104E+02  0.14812944604E+03  0.30204047043E+03  0.33723458404E+03  0.00000000000E+00 0.  1.
         11    1    4    4    0    0 -0.42171523565E+02  0.16746020837E+02  0.54367809224E+02  0.70814725117E+02  0.00000000000E+00 0. -1.
</event>
<event>
 8    1  0.7192024E-009  0.1114970E+03  0.7561462E-02  0.1257823E+00
          1   -1    0    0  501    0  0.00000000000E+00  0.00000000000E+00  0.92145610798E+02  0.92145610798E+02  0.00000000000E+00 0. -1.
         -1   -1    0    0    0  501 -0.00000000000E+00 -0.00000000000E+00 -0.14566211558E+03  0.14566211558E+03  0.00000000000E+00 0.  1.
         25    2    1    2    0    0  0.31888476487E+01  0.40719313294E+02 -0.29949203440E+02  0.13495481423E+03  0.12509043078E+03 0.  0.
         23    2    1    2    0    0 -0.31888476487E+01 -0.40719313294E+02 -0.23567301337E+02  0.10285291214E+03  0.91406086335E+02 0.  0.
          5    1    3    3  502    0 -0.42140573803E+02  0.64658575070E+02 -0.31584490068E+02  0.83496177777E+02  0.41800000000E+01 0. -1.
         -5    1    3    3    0  502  0.45329421451E+02 -0.23939261776E+02  0.16352866280E+01  0.51458636456E+02  0.41800000000E+01 0. -1.
        -11    1    4    4    0    0  0.36942705052E+02  0.21654657008E+00 -0.26479280676E+02  0.45452861891E+02  0.00000000000E+00 0.  1.
         11    1    4    4    0    0 -0.40131552701E+02 -0.40935859864E+02  0.29119793383E+01  0.57400050250E+02  0.00000000000E+00 0. -1.
</event>
<event>
 8    1  0.7192024E-009  0.1056148E+03  0.7561462E-02  0.1268913E+00
         -2   -1    0    0    0  501 -0.00000000000E+00  0.00000000000E+00  0.50296242698E+02  0.50296242698E+02  0.00000000000E+00 0.  1.
          2   -1    0    0  501    0  0.00000000000E+00 -0.00000000000E+00 -0.27609671483E+03  0.27609671483E+03  0.00000000000E+00 0. -1.
         25    2    1    2    0    0  0.68266646824E+01  0.43153500423E+02 -0.10708142855E+03  0.17036641141E+03  0.12509777714E+03 0.  0.
         23    2    1    2    0    0 -0.68266646824E+01 -0.43153500423E+02 -0.11871904358E+03  0.15602654612E+03  0.91330410246E+02 0.  0.
          5    1    3    3  502    0  0.36670012159E+02  0.65192438260E+02 -0.22994809012E+02  0.78364388848E+02  0.41800000000E+01 0. -1.
         -5    1    3    3    0  502 -0.29843347476E+02 -0.22038937837E+02 -0.84086619540E+02  0.92002022561E+02  0.41800000000E+01 0. -1.
        -11    1    4    4    0    0 -0.47951783230E+02 -0.22911199863E+02 -0.47193692735E+02  0.71074195233E+02  0.00000000000E+00 0.  1.
         11    1    4    4    0    0  0.41125118547E+02 -0.20242300560E+02 -0.71525350843E+02  0.84952350884E+02  0.00000000000E+00 0. -1.
</event>
<event>
 8    1  0.7192024E-009  0.1009771E+03  0.7561462E-02  0.1278255E+00
          2   -1    0    0  501    0  0.00000000000E+00  0.00000000000E+00  0.27296907947E+03  0.27296907947E+03  0.00000000000E+00 0. -1.
         -2   -1    0    0    0  501 -0.00000000000E+00 -0.00000000000E+00 -0.44759654038E+02  0.44759654038E+02  0.00000000000E+00 0.  1.
         25    2    1    2    0    0  0.20209153672E+02 -0.34104482313E+00  0.12333957387E+03  0.17682769278E+03  0.12508739443E+03 0.  0.
         23    2    1    2    0    0 -0.20209153672E+02  0.34104482313E+00  0.10486985156E+03  0.14090104073E+03  0.91906970948E+02 0.  0.
          5    1    3    3  502    0  0.57777328951E+02 -0.31203451853E+02  0.10653577162E+03  0.12521668492E+03  0.41800000000E+01 0.  1.
         -5    1    3    3    0  502 -0.37568175279E+02  0.30862407030E+02  0.16803802247E+02  0.51611007851E+02  0.41800000000E+01 0.  1.
        -11    1    4    4    0    0 -0.19653573430E+02  0.41645128112E+02  0.28728155034E+02  0.54276021738E+02  0.00000000000E+00 0.  1.
         11    1    4    4    0    0 -0.55558024255E+00 -0.41304083288E+02  0.76141696523E+02  0.86625018990E+02  0.00000000000E+00 0. -1.
</event>
<event>
 8    1  0.7192024E-009  0.6045562E+02  0.7561462E-02  0.1395930E+00
          1   -1    0    0  501    0  0.00000000000E+00  0.00000000000E+00  0.78867137374E+03  0.78867137374E+03  0.00000000000E+00 0. -1.
         -1   -1    0    0    0  501 -0.00000000000E+00 -0.00000000000E+00 -0.15692389457E+02  0.15692389457E+02  0.00000000000E+00 0.  1.
         25    2    1    2    0    0  0.22387903814E+02  0.10975863612E+02  0.41187271532E+03  0.43117284868E+03  0.12509677852E+03 0.  0.
         23    2    1    2    0    0 -0.22387903814E+02 -0.10975863612E+02  0.36110626897E+03  0.37319091452E+03  0.90840703282E+02 0.  0.
          5    1    3    3  502    0  0.17525950860E+02  0.11392935999E+02  0.21786623225E+01  0.21428413701E+02  0.41800000000E+01 0.  1.
         -5    1    3    3    0  502  0.48619529541E+01 -0.41707238775E+00  0.40969405299E+03  0.40974443498E+03  0.41800000000E+01 0.  1.
        -11    1    4    4    0    0  0.75231574855E+01 -0.46285441188E+02  0.20926585615E+03  0.21445544646E+03  0.00000000000E+00 0.  1.
         11    1    4    4    0    0 -0.29911061299E+02  0.35309577576E+02  0.15184041282E+03  0.15873546806E+03  0.00000000000E+00 0. -1.
</event>
<event>
 8    1  0.7192024E-009  0.1950728E+03  0.7561462E-02  0.1153964E+00
         -2   -1    0    0    0  501 -0.00000000000E+00  0.00000000000E+00  0.24175558609E+03  0.24175558609E+03  0.00000000000E+00 0.  1.
          2   -1    0    0  501    0  0.00000000000E+00 -0.00000000000E+00 -0.20787086019E+03  0.20787086019E+03  0.00000000000E+00 0. -1.
         25    2    1    2    0    0  0.14355877673E+03 -0.12727191404E+03 -0.21558812846E+02  0.23004215215E+03  0.12508935556E+03 0.  0.
         23    2    1    2    0    0 -0.14355877673E+03  0.12727191404E+03  0.55443538751E+02  0.21958429413E+03  0.91301773042E+02 0.  0.
          5    1    3    3  502    0  0.81052586859E+02 -0.93128840188E+02 -0.71706902431E+02  0.14283506211E+03  0.41800000000E+01 0. -1.
         -5    1    3    3    0  502  0.62506189869E+02 -0.34143073855E+02  0.50148089585E+02  0.87207090040E+02  0.41800000000E+01 0. -1.
        -11    1    4    4    0    0 -0.44492562367E+02  0.63191695255E+02  0.65315361254E+02  0.10118732564E+03  0.00000000000E+00 0.  1.
         11    1    4    4    0    0 -0.99066214361E+02  0.64080218788E+02 -0.98718225031E+01  0.11839696849E+03  0.00000000000E+00 0. -1.
</event>
<event>
 8    1  0.7192024E-009  0.1393635E+03  0.7561462E-02  0.1214188E+00
          1   -1    0    0  501    0  0.00000000000E+00  0.00000000000E+00  0.63075386325E+03  0.63075386325E+03  0.00000000000E+00 0. -1.
         -1   -1    0    0    0  501 -0.00000000000E+00 -0.00000000000E+00 -0.44133696456E+02  0.44133696456E+02  0.00000000000E+00 0.  1.
         25    2    1    2    0    0  0.10712958566E+03 -0.55562994024E+02  0.38791591192E+03  0.42507621640E+03  0.12508813132E+03 0.  0.
         23    2    1    2    0    0 -0.10712958566E+03  0.55562994024E+02  0.19870425487E+03  0.24981134330E+03  0.91423913236E+02 0.  0.
          5    1    3    3  502    0  0.30658220758E+02 -0.40684529357E+02  0.31102380259E+02  0.59832999982E+02  0.41800000000E+01 0.  1.
         -5    1    3    3    0  502  0.76471364904E+02 -0.14878464667E+02  0.35681353167E+03  0.36524321642E+03  0.41800000000E+01 0.  1.
        -11    1    4    4    0    0  0.94775511761E+01  0.28298622579E+02  0.25581883804E+02  0.39307363116E+02  0.00000000000E+00 0.  1.
         11    1    4    4    0    0 -0.11660713684E+03  0.27264371445E+02  0.17312237106E+03  0.21050398019E+03  0.00000000000E+00 0. -1.
</event>
<event>
 8    1  0.7192024E-009  0.1577149E+03  0.7561462E-02  0.1191301E+00
         -2   -1    0    0    0  501 -0.00000000000E+00  0.00000000000E+00  0.15049267559E+03  0.15049267559E+03  0.00000000000E+00 0.  1.
          2   -1    0    0  501    0  0.00000000000E+00 -0.00000000000E+00 -0.29421652455E+03  0.29421652455E+03  0.00000000000E+00 0. -1.
         25    2    1    2    0    0 -0.10352387147E+03 -0.11140967177E+03  0.22750031243E+02  0.19822757825E+03  0.12508917591E+03 0.  0.
         23    2    1    2    0    0  0.10352387147E+03  0.11140967177E+03 -0.16647388020E+03  0.24648162190E+03  0.99550641465E+02 0.  0.
          5    1    3    3  502    0 -0.89380349561E+02 -0.55146192331E+02  0.67435573311E+02  0.12487985572E+03  0.41800000000E+01 0.  1.
         -5    1    3    3    0  502 -0.14143521905E+02 -0.56263479441E+02 -0.44685542068E+02  0.73347722532E+02  0.41800000000E+01 0.  1.
        -11    1    4    4    0    0  0.48664156594E+02  0.48864625526E+02 -0.14499248729E+03  0.16055769411E+03  0.00000000000E+00 0.  1.
         11    1    4    4    0    0  0.54859714872E+02  0.62545046247E+02 -0.21481392906E+02  0.85923927791E+02  0.00000000000E+00 0. -1.
</event>
<event>
 8    1  0.7192024E-009  0.2265770E+03  0.7561462E-02  0.1129072E+00
          1   -1    0    0  501    0  0.00000000000E+00  0.00000000000E+00  0.75954217797E+03  0.75954217797E+03  0.00000000000E+00 0. -1.
         -1   -1    0    0    0  501 -0.00000000000E+00 -0.00000000000E+00 -0.10440317241E+03  0.10440317241E+03  0.00000000000E+00 0.  1.
         25    2    1    2    0    0 -0.72881933857E+02  0.20289762615E+03  0.11357583450E+03  0.27390471876E+03  0.12508038135E+03 0.  0.
         23    2    1    2    0    0  0.72881933857E+02 -0.20289762615E+03  0.54156317105E+03  0.59004063163E+03  0.91531719918E+02 0.  0.
          5    1    3    3  502    0 -0.69022427054E+02  0.57247185595E+02  0.10747765380E+01  0.89777298019E+02  0.41800000000E+01 0.  1.
         -5    1    3    3    0  502 -0.38595068028E+01  0.14565044055E+03  0.11250105797E+03  0.18412742074E+03  0.41800000000E+01 0.  1.
        -11    1    4    4    0    0  0.52319290998E+02 -0.17690188767E+03  0.35009520160E+03  0.39572495026E+03  0.00000000000E+00 0. -1.
         11    1    4    4    0    0  0.20562642858E+02 -0.25995738475E+02  0.19146796945E+03  0.19431568137E+03  0.00000000000E+00 0.  1.
</event>
<event>
 8    1  0.7192024E-009  0.6212309E+02  0.7561462E-02  0.1389132E+00
          2   -1    0    0  501    0  0.00000000000E+00  0.00000000000E+00  0.61253775523E+02  0.61253775523E+02  0.00000000000E+00 0. -1.
         -2   -1    0    0    0  501 -0.00000000000E+00 -0.00000000000E+00 -0.20236035350E+03  0.20236035350E+03  0.00000000000E+00 0.  1.
         25    2    1    2    0    0 -0.19315462854E+02 -0.94388967652E+01 -0.69248226137E+02  0.14458638770E+03  0.12509087420E+03 0.  0.
         23    2    1    2    0    0  0.19315462854E+02  0.94388967652E+01 -0.71858351837E+02  0.11902774132E+03  0.92421862117E+02 0.  0.
          5    1    3    3  502    0 -0.84761659492E+01  0.14885102750E+02  0.33772155556E+02  0.38097802614E+02  0.41800000000E+01 0.  1.
         -5    1    3    3    0  502 -0.10839296905E+02 -0.24323999515E+02 -0.10302038169E+03  0.10648858509E+03  0.41800000000E+01 0.  1.
        -11    1    4    4    0    0  0.19932861630E+02  0.42315903496E+02 -0.83551070001E+01  0.47515918116E+02  0.00000000000E+00 0. -1.
         11    1    4    4    0    0 -0.61739877650E+00 -0.32877006731E+02 -0.63503244837E+02  0.71511823202E+02  0.00000000000E+00 0.  1.
</event>
<event>
 8    1  0.7192024E-009  0.7565869E+02  0.7561462E-02  0.1341843E+00
         -2   -1    0    0    0  501 -0.00000000000E+00  0.00000000000E+00  0.95569375639E+02  0.95569375639E+02  0.00000000000E+00 0.  1.
          2   -1    0    0  501    0  0.00000000000E+00 -0.00000000000E+00 -0.17695546818E+03  0.17695546818E+03  0.00000000000E+00 0. -1.
         25    2    1    2    0    0 -0.37224954710E+02 -0.27976886991E+02  0.12898260565E+02  0.13410096191E+03  0.12509316288E+03 0.  0.
         23    2    1    2    0    0  0.37224954710E+02  0.27976886991E+02 -0.94284353102E+02  0.13842388191E+03  0.90017933676E+02 0.  0.
          5    1    3    3  502    0 -0.38304611284E+02 -0.12059060262E+02 -0.52741205320E+02  0.66421166194E+02  0.41800000000E+01 0.  1.
         -5    1    3    3    0  502  0.10796565740E+01 -0.15917826729E+02  0.65639465885E+02  0.67679795713E+02  0.41800000000E+01 0.  1.
        -11    1    4    4    0    0 -0.26171528881E+02  0.31308260553E+01 -0.51924912971E+02  0.58231843375E+02  0.00000000000E+00 0.  1.
         11    1    4    4    0    0  0.63396483590E+02  0.24846060936E+02 -0.42359440131E+02  0.80192038532E+02  0.00000000000E+00 0. -1.
</event>
<event>
 8    1  0.7192024E-009  0.1241208E+03  0.7561462E-02  0.1236450E+00
          1   -1    0    0  501    0  0.00000000000E+00  0.00000000000E+00  0.66066531614E+03  0.66066531614E+03  0.00000000000E+00 0. -1.
         -1   -1    0    0    0  501 -0.00000000000E+00 -0.00000000000E+00 -0.28617471245E+02  0.28617471245E+02  0.00000000000E+00 0.  1.
         25    2    1    2    0    0 -0.69620937387E+02  0.44218547855E+02  0.36684406818E+03  0.39626238465E+03  0.12508777811E+03 0.  0.
         23    2    1    2    0    0  0.69620937387E+02 -0.44218547855E+02  0.26520377672E+03  0.29302040274E+03  0.93410697134E+02 0.  0.
          5    1    3    3  502    0 -0.10039888377E+03  0.27988728983E+02  0.19775238849E+03  0.22357724474E+03  0.41800000000E+01 0. -1.
         -5    1    3    3    0  502  0.30777946385E+02  0.16229818872E+02  0.16909167969E+03  0.17268513991E+03  0.41800000000E+01 0. -1.
        -11    1    4    4    0    0 -0.24947445441E+01 -0.36244495343E+02  0.16708686438E+03  0.17099095719E+03  0.00000000000E+00 0. -1.
         11    1    4    4    0    0  0.72115681931E+02 -0.79740525114E+01  0.98116912334E+02  0.12202944554E+03  0.00000000000E+00 0.  1.
</event>
<event>
 8    1  0.7192024E-009  0.1538830E+03  0.7561462E-02  0.1195781E+00
         -2   -1    0    0    0  501 -0.00000000000E+00  0.00000000000E+00  0.22178889217E+02  0.22178889217E+02  0.00000000000E+00 0. -1.
          2   -1    0    0  501    0  0.00000000000E+00 -0.00000000000E+00 -0.15691406558E+04  0.15691406558E+04  0.00000000000E+00 0.  1.
         25    2    1    2    0    0  0.11447362498E+03 -0.72951313464E+01 -0.12226713308E+04  0.12343947105E+04  0.12509072100E+03 0.  0.
         23    2    1    2    0    0 -0.11447362498E+03  0.72951313464E+01 -0.32429043584E+03  0.35692483454E+03  0.95255556135E+02 0.  0.
          5    1    3    3  502    0  0.73679052575E+02  0.55107018199E+02 -0.55911095081E+03  0.56664619822E+03  0.41800000000E+01 0.  1.
         -5    1    3    3    0  502  0.40794572409E+02 -0.62402149546E+02 -0.66356037995E+03  0.66774851228E+03  0.41800000000E+01 0.  1.
        -11    1    4    4    0    0 -0.83330531543E+02  0.42870801708E+02 -0.26505382495E+03  0.28113237673E+03  0.00000000000E+00 0.  1.
         11    1    4    4    0    0 -0.31143093440E+02 -0.35575670361E+02 -0.59236610894E+02  0.75792457810E+02  0.00000000000E+00 0. -1.
</event>
<event>
 8    1  0.7192024E-009  0.1234553E+03  0.7561462E-02  0.1237503E+00
         -1   -1    0    0    0  501 -0.00000000000E+00  0.00000000000E+00  0.11516201364E+03  0.11516201364E+03  0.00000000000E+00 0.  1.
          1   -1    0    0  501    0  0.00000000000E+00 -0.00000000000E+00 -0.15254714053E+03  0.15254714053E+03  0.00000000000E+00 0. -1.
         25    2    1    2    0    0  0.53848409913E+02 -0.30298738630E+02  0.27213858315E+02  0.14214757299E+03  0.12509066156E+03 0.  0.
         23    2    1    2    0    0 -0.53848409913E+02  0.30298738630E+02 -0.64598985205E+02  0.12556158118E+03  0.88176056653E+02 0.  0.
          5    1    3    3  502    0  0.17762228807E+02  0.48981992648E+02  0.11856513872E+02  0.53598336701E+02  0.41800000000E+01 0. -1.
         -5    1    3    3    0  502  0.36086181107E+02 -0.79280731278E+02  0.15357344443E+02  0.88549236288E+02  0.41800000000E+01 0. -1.
        -11    1    4    4    0    0 -0.42641180606E+02 -0.26057778857E+02 -0.25909743179E+02  0.56290255942E+02  0.00000000000E+00 0.  1.
         11    1    4    4    0    0 -0.11207229307E+02  0.56356517487E+02 -0.38689242027E+02  0.69271325241E+02  0.00000000000E+00 0. -1.
</event>
<event>
 8    1  0.7192024E-009  0.1576942E+03  0.7561462E-02  0.1191325E+00
          1   -1    0    0  501    0  0.00000000000E+00  0.00000000000E+00  0.97655105729E+03  0.97655105729E+03  0.00000000000E+00 0. -1.
         -1   -1    0    0    0  501 -0.00000000000E+00 -0.00000000000E+00 -0.31560453995E+02  0.31560453995E+02  0.00000000000E+00 0.  1.
         25    2    1    2    0    0  0.30079764164E+02  0.13354394024E+03  0.45243940284E+03  0.48896502757E+03  0.12508640517E+03 0.  0.
         23    2    1    2    0    0 -0.30079764164E+02 -0.13354394024E+03  0.49255120045E+03  0.51914648371E+03  0.90374832202E+02 0.  0.
          5    1    3    3  502    0 -0.26121198981E+02  0.25642527689E+02  0.24985313807E+02  0.44515104947E+02  0.41800000000E+01 0.  1.
         -5    1    3    3    0  502  0.56200963145E+02  0.10790141255E+03  0.42745408903E+03  0.44444992262E+03  0.41800000000E+01 0.  1.
        -11    1    4    4    0    0 -0.52196722798E+02 -0.12004851895E+03  0.45548505628E+03  0.47392275876E+03  0.00000000000E+00 0. -1.
         11    1    4    4    0    0  0.22116958634E+02 -0.13495421287E+02  0.37066144174E+02  0.45223724956E+02  0.00000000000E+00 0.  1.
</event>
<event>
 8    1  0.7192024E-009  0.2132694E+03  0.7561462E-02  0.1139003E+00
         -2   -1    0    0    0  501 -0.00000000000E+00  0.00000000000E+00  0.69806580338E+03  0.69806580338E+03  0.00000000000E+00 0.  1.
          2   -1    0    0  501    0  0.00000000000E+00 -0.00000000000E+00 -0.77065098536E+02  0.77065098536E+02  0.00000000000E+00 0. -1.
         25    2    1    2    0    0  0.19980835211E+03 -0.26400891215E+02  0.25818683036E+03  0.35061137881E+03  0.12509002739E+03 0.  0.
         23    2    1    2    0    0 -0.19980835211E+03  0.26400891215E+02  0.36281387449E+03  0.42451952310E+03  0.89233028340E+02 0.  0.
          5    1    3    3  502    0  0.88832242962E+02 -0.37817373730E+02  0.38191919673E+02  0.10391061675E+03  0.41800000000E+01 0.  1.
         -5    1    3    3    0  502  0.11097610915E+03  0.11416482514E+02  0.21999491068E+03  0.24670076206E+03  0.41800000000E+01 0.  1.
        -11    1    4    4    0    0 -0.13821021145E+03 -0.21964096071E+02  0.20321058720E+03  0.24673675611E+03  0.00000000000E+00 0. -1.
         11    1    4    4    0    0 -0.61598140663E+02  0.48364987286E+02  0.15960328728E+03  0.17778276699E+03  0.00000000000E+00 0.  1.
</event>
<event>
 8    1  0.7192024E-009  0.1185452E+03  0.7561462E-02  0.1245516E+00
          1   -1    0    0  501    0  0.00000000000E+00  0.00000000000E+00  0.61789976461E+03  0.61789976461E+03  0.00000000000E+00 0. -1.
         -1   -1    0    0    0  501 -0.00000000000E+00 -0.00000000000E+00 -0.32509052456E+02  0.32509052456E+02  0.00000000000E+00 0.  1.
         25    2    1    2    0    0 -0.46682195397E+02  0.68958841392E+02  0.25962887773E+03  0.29998226983E+03  0.12509060272E+03 0.  0.
         23    2    1    2    0    0  0.46682195397E+02 -0.68958841392E+02  0.32576183443E+03  0.35042654724E+03  0.98708880377E+02 0.  0.
          5    1    3    3  502    0 -0.19995992022E+02 -0.34263370041E+02  0.43947971381E+02  0.59352462561E+02  0.41800000000E+01 0.  1.
         -5    1    3    3    0  502 -0.26686203375E+02  0.10322221143E+03  0.21568090634E+03  0.24062980727E+03  0.41800000000E+01 0.  1.
        -11    1    4    4    0    0  0.28353995676E+01 -0.34810683765E+02  0.21245232451E+02  0.40880106370E+02  0.00000000000E+00 0.  1.
         11    1    4    4    0    0  0.43846795830E+02 -0.34148157627E+02  0.30451660198E+03  0.30954644087E+03  0.00000000000E+00 0. -1.
</event>
<event>
 8    1  0.7192024E-009  0.1390573E+03  0.7561462E-02  0.1214603E+00
          2   -1    0    0  501    0  0.00000000000E+00  0.00000000000E+00  0.51202600013E+03  0.51202600013E+03  0.00000000000E+00 0. -1.
         -2   -1    0    0    0  501 -0.00000000000E+00 -0.00000000000E+00 -0.60485382823E+02  0.60485382823E+02  0.00000000000E+00 0.  1.
         25    2    1    2    0    0 -0.53379121107E+01  0.13012535915E+03  0.16254945819E+03  0.24296967817E+03  0.12510330032E+03 0.  0.
         23    2    1    2    0    0  0.53379121107E+01 -0.13012535915E+03  0.28899115911E+03  0.32954170478E+03  0.90115163800E+02 0.  0.
          5    1    3    3  502    0 -0.27935597132E+01  0.43310908467E+02  0.14865104618E+03  0.15491366854E+03  0.41800000000E+01 0. -1.
         -5    1    3    3    0  502 -0.25443523974E+01  0.86814450681E+02  0.13898412010E+02  0.88056009633E+02  0.41800000000E+01 0. -1.
        -11    1    4    4    0    0  0.37434618187E+02 -0.72833528712E+02  0.98763066183E+02  0.12829737638E+03  0.00000000000E+00 0.  1.
         11    1    4    4    0    0 -0.32096706076E+02 -0.57291830436E+02  0.19022809293E+03  0.20124432840E+03  0.00000000000E+00 0. -1.
</event>
<event>
 8    1  0.7192024E-009  0.1692593E+03  0.7561462E-02  0.1178622E+00
          2   -1    0    0  501    0  0.00000000000E+00  0.00000000000E+00  0.11492487783E+04  0.11492487783E+04  0.00000000000E+00 0. -1.
         -2   -1    0    0    0  501 -0.00000000000E+00 -0.00000000000E+00 -0.27477559761E+02  0.27477559761E+02  0.00000000000E+00 0.  1.
         25    2    1    2    0    0  0.99477951386E+02  0.98853604066E+02  0.59275832218E+03  0.62183589905E+03  0.12509819736E+03 0.  0.
         23    2    1    2    0    0 -0.99477951386E+02 -0.98853604066E+02  0.52901289633E+03  0.55489043898E+03  0.91547020394E+02 0.  0.
          5    1    3    3  502    0  0.76346792437E+02  0.12374317396E+03  0.53747694305E+03  0.55681248417E+03  0.41800000000E+01 0.  1.
         -5    1    3    3    0  502  0.23131158949E+02 -0.24889569896E+02  0.55281379132E+02  0.65023414880E+02  0.41800000000E+01 0.  1.
        -11    1    4    4    0    0 -0.53686048648E+02 -0.44132661042E+01  0.10415224187E+03  0.11725765742E+03  0.00000000000E+00 0. -1.
         11    1    4    4    0    0 -0.45791902738E+02 -0.94440337961E+02  0.42486065446E+03  0.43763278156E+03  0.00000000000E+00 0.  1.
</event>
<event>
 8    1  0.7192024E-009  0.1087045E+03  0.7561462E-02  0.1262988E+00
         -1   -1    0    0    0  501 -0.00000000000E+00  0.00000000000E+00  0.65641254807E+02  0.65641254807E+02  0.00000000000E+00 0.  1.
          1   -1    0    0  501    0  0.00000000000E+00 -0.00000000000E+00 -0.27088335683E+03  0.27088335683E+03  0.00000000000E+00 0. -1.
         25    2    1    2    0    0 -0.49065638180E+02 -0.47212893267E+02 -0.13170985442E+03  0.19398787587E+03  0.12508923252E+03 0.  0.
         23    2    1    2    0    0  0.49065638180E+02  0.47212893267E+02 -0.73532247609E+02  0.14253673577E+03  0.10135697049E+03 0.  0.
          5    1    3    3  502    0  0.22963840976E+02  0.25500406181E+02 -0.58960753815E+02  0.68348018247E+02  0.41800000000E+01 0. -1.
         -5    1    3    3    0  502 -0.72029479156E+02 -0.72713299448E+02 -0.72749100603E+02  0.12563985762E+03  0.41800000000E+01 0. -1.
        -11    1    4    4    0    0  0.47164474389E+02  0.17005152139E+02  0.12216084766E+02  0.51603251551E+02  0.00000000000E+00 0.  1.
         11    1    4    4    0    0  0.19011637904E+01  0.30207741128E+02 -0.85748332375E+02  0.90933484223E+02  0.00000000000E+00 0. -1.
</event>
<event>
 8    1  0.7192024E-009  0.8288801E+02  0.7561462E-02  0.1321050E+00
         -2   -1    0    0    0  501 -0.00000000000E+00  0.00000000000E+00  0.25041757895E+02  0.25041757895E+02  0.00000000000E+00 0.  1.
          2   -1    0    0  501    0  0.00000000000E+00 -0.00000000000E+00 -0.72077302791E+03  0.72077302791E+03  0.00000000000E+00 0. -1.
         25    2    1    2    0    0  0.36566229296E+02  0.28515865823E+02 -0.56165291435E+03  0.57727908269E+03  0.12508756687E+03 0.  0.
         23    2    1    2    0    0 -0.36566229296E+02 -0.28515865823E+02 -0.13407835566E+03  0.16853570311E+03  0.90978206391E+02 0.  0.
          5    1    3    3  502    0  0.27432486077E+01 -0.12670206526E+02 -0.47677457876E+03  0.47696910895E+03  0.41800000000E+01 0.  1.
         -5    1    3    3    0  502  0.33822980688E+02  0.41186072349E+02 -0.84878335591E+02  0.10030997374E+03  0.41800000000E+01 0.  1.
        -11    1    4    4    0    0 -0.48657695926E+02 -0.52657570806E+02 -0.11483702837E+03  0.13538070107E+03  0.00000000000E+00 0. -1.
         11    1    4    4    0    0  0.12091466631E+02  0.24141704983E+02 -0.19241327289E+02  0.33155002045E+02  0.00000000000E+00 0.  1.
</event>
<event>
 8    1  0.7192024E-009  0.1453709E+03  0.7561462E-02  0.1206279E+00
         -2   -1    0    0    0  501 -0.00000000000E+00  0.00000000000E+00  0.49846347437E+02  0.49846347437E+02  0.00000000000E+00 0.  1.
          2   -1    0    0  501    0  0.00000000000E+00 -0.00000000000E+00 -0.65255675273E+03  0.65255675273E+03  0.00000000000E+00 0. -1.
         25    2    1    2    0    0  0.79613860818E+02  0.98532770354E+02 -0.44999402196E+03  0.48393054859E+03  0.12508829839E+03 0.  0.
         23    2    1    2    0    0 -0.79613860818E+02 -0.98532770354E+02 -0.15271638333E+03  0.21847255157E+03  0.91437893589E+02 0.  0.
          5    1    3    3  502    0  0.37852440504E+00  0.29330681753E+02 -0.96292055628E+01  0.31154873978E+02  0.41800000000E+01 0.  1.
         -5    1    3    3    0  502  0.79235336413E+02  0.69202088601E+02 -0.44036481640E+03  0.45277567462E+03  0.41800000000E+01 0.  1.
        -11    1    4    4    0    0 -0.62328998198E+02 -0.11572936014E+03 -0.13425353914E+03  0.18788880112E+03  0.00000000000E+00 0. -1.
         11    1    4    4    0    0 -0.17284862620E+02  0.17196589785E+02 -0.18462844188E+02  0.30583750449E+02  0.00000000000E+00 0.  1.
</event>
<event>
 8    1  0.7192024E-009  0.1869599E+03  0.7561462E-02  0.1161232E+00
          2   -1    0    0  501    0  0.00000000000E+00  0.00000000000E+00  0.35833309396E+03  0.35833309396E+03  0.00000000000E+00 0. -1.
         -2   -1    0    0    0  501 -0.00000000000E+00 -0.00000000000E+00 -0.11802580142E+03  0.11802580142E+03  0.00000000000E+00 0.  1.
         25    2    1    2    0    0 -0.17188771480E+03  0.31110700432E+02  0.10529097897E+03  0.23925973317E+03  0.12508304234E+03 0.  0.
         23    2    1    2    0    0  0.17188771480E+03 -0.31110700432E+02  0.13501631356E+03  0.23709916221E+03  0.86448514239E+02 0.  0.
          5    1    3    3  502    0 -0.11122096013E+03 -0.39529373622E+01 -0.15993791450E+01  0.11138113888E+03  0.41800000000E+01 0. -1.
         -5    1    3    3    0  502 -0.60666754673E+02  0.35063637794E+02  0.10689035812E+03  0.12787859428E+03  0.41800000000E+01 0. -1.
        -11    1    4    4    0    0  0.60348365537E+02 -0.51053449677E+02  0.36991853780E+02  0.87274149626E+02  0.00000000000E+00 0.  1.
         11    1    4    4    0    0  0.11153934926E+03  0.19942749244E+02  0.98024459783E+02  0.14982501259E+03  0.00000000000E+00 0. -1.
</event>
<event>
 8    1  0.7192024E-009  0.5624251E+02  0.7561462E-02  0.1414313E+00
         -2   -1    0    0    0  501 -0.00000000000E+00  0.00000000000E+00  0.50418449392E+02  0.50418449392E+02  0.00000000000E+00 0.  1.
          2   -1    0    0  501    0  0.00000000000E+00 -0.00000000000E+00 -0.24964934565E+03  0.24964934565E+03  0.00000000000E+00 0. -1.
         25    2    1    2    0    0 -0.66351674154E+01 -0.10253426782E+02 -0.81143977147E+02  0.14960855649E+03  0.12509683026E+03 0.  0.
         23    2    1    2    0    0  0.66351674154E+01  0.10253426782E+02 -0.11808691911E+03  0.15045923855E+03  0.92435403354E+02 0.  0.
          5    1    3    3  502    0  0.11780932041E+02 -0.98319389758E+01  0.31555714152E+02  0.35336848748E+02  0.41800000000E+01 0.  1.
         -5    1    3    3    0  502 -0.18416099456E+02 -0.42148780586E+00 -0.11269969130E+03  0.11427170774E+03  0.41800000000E+01 0.  1.
        -11    1    4    4    0    0 -0.19405401870E+02 -0.26378551176E+02 -0.93843250585E+02  0.99392923612E+02  0.00000000000E+00 0. -1.
         11    1    4    4    0    0  0.26040569285E+02  0.36631977958E+02 -0.24243668522E+02  0.51066314937E+02  0.00000000000E+00 0.  1.
</event>
<event>
 8    1  0.7192024E-009  0.9330348E+02  0.7561462E-02  0.1295043E+00
         -1   -1    0    0    0  501 -0.00000000000E+00  0.00000000000E+00  0.16790689162E+03  0.16790689162E+03  0.00000000000E+00 0.  1.
          1   -1    0    0  501    0  0.00000000000E+00 -0.00000000000E+00 -0.11060493232E+03  0.11060493232E+03  0.00000000000E+00 0. -1.
         25    2    1    2    0    0 -0.46426006979E+02 -0.49428778923E+02 -0.15532336689E+02  0.14314418012E+03  0.12510165670E+03 0.  0.
         23    2    1    2    0    0  0.46426006979E+02  0.49428778923E+02  0.72834295994E+02  0.13536764383E+03  0.91765930564E+02 0.  0.
          5    1    3    3  502    0 -0.73120678141E+01 -0.26587348443E+02  0.53581123067E+02  0.60404988056E+02  0.41800000000E+01 0. -1.
         -5    1    3    3    0  502 -0.39113939164E+02 -0.22841430481E+02 -0.69113459756E+02  0.82739192061E+02  0.41800000000E+01 0. -1.
        -11    1    4    4    0    0  0.34938404840E+02  0.76347774166E+02  0.61074951773E+02  0.10382593360E+03  0.00000000000E+00 0.  1.
         11    1    4    4    0    0  0.11487602138E+02 -0.26918995243E+02  0.11759344220E+02  0.31541710230E+02  0.00000000000E+00 0. -1.
</event>
<event>
 8    1  0.7192024E-009  0.1793406E+03  0.7561462E-02  0.1168443E+00
         -1   -1    0    0    0  501 -0.00000000000E+00  0.00000000000E+00  0.46211469611E+02  0.46211469611E+02  0.00000000000E+00 0.  1.
          1   -1    0    0  501    0  0.00000000000E+00 -0.00000000000E+00 -0.80743685578E+03  0.80743685578E+03  0.00000000000E+00 0. -1.
         25    2    1    2    0    0  0.84982700650E+02 -0.11631800922E+03 -0.25000672879E+03  0.31448974898E+03  0.12509396107E+03 0.  0.
         23    2    1    2    0    0 -0.84982700650E+02  0.11631800922E+03 -0.51121865738E+03  0.53915857641E+03  0.92712006683E+02 0.  0.
          5    1    3    3  502    0  0.11578525411E+03 -0.77607183291E+02 -0.16488876385E+03  0.21595109819E+03  0.41800000000E+01 0.  1.
         -5    1    3    3    0  502 -0.30802553456E+02 -0.38710825931E+02 -0.85117964942E+02  0.98538650790E+02  0.41800000000E+01 0.  1.
        -11    1    4    4    0    0 -0.90711458982E+02  0.51099689729E+02 -0.27548627312E+03  0.29450370754E+03  0.00000000000E+00 0. -1.
         11    1    4    4    0    0  0.57287583315E+01  0.65218319493E+02 -0.23573238426E+03  0.24465486886E+03  0.00000000000E+00 0.  1.
</event>
<event>
 8    1  0.7192024E-009  0.1257500E+03  0.7561462E-02  0.1233902E+00
         -1   -1    0    0    0  501 -0.00000000000E+00  0.00000000000E+00  0.67104122709E+02  0.67104122709E+02  0.00000000000E+00 0.  1.
          1   -1    0    0  501    0  0.00000000000E+00 -0.00000000000E+00 -0.50138213593E+03  0.50138213593E+03  0.00000000000E+00 0. -1.
         25    2    1    2    0    0  0.26223105533E+01 -0.75728848443E+02 -0.32805499708E+02  0.14987426983E+03  0.12507741981E+03 0.  0.
         23    2    1    2    0    0 -0.26223105533E+01  0.75728848443E+02 -0.40147251351E+03  0.41861198881E+03  0.91181593912E+02 0.  0.
          5    1    3    3  502    0 -0.60920852785E+02 -0.35959254573E+02 -0.20692623367E+02  0.73824625670E+02  0.41800000000E+01 0. -1.
         -5    1    3    3    0  502  0.63543163339E+02 -0.39769593870E+02 -0.12112876342E+02  0.76049644161E+02  0.41800000000E+01 0. -1.
        -11    1    4    4    0    0 -0.28705412293E+02  0.74049512758E+02 -0.36618884708E+03  0.37470201862E+03  0.00000000000E+00 0. -1.
         11    1    4    4    0    0  0.26083101740E+02  0.16793356852E+01 -0.35283666435E+02  0.43909970187E+02  0.00000000000E+00 0.  1.
</event>
<event>
 8    1  0.7192024E-009  0.1275724E+03  0.7561462E-02  0.1231103E+00
          3   -1    0    0  501    0  0.00000000000E+00  0.00000000000E+00  0.47935208368E+02  0.47935208368E+02  0.00000000000E+00 0. -1.
         -3   -1    0    0    0  501 -0.00000000000E+00 -0.00000000000E+00 -0.38822990265E+03  0.38822990265E+03  0.00000000000E+00 0.  1.
         25    2    1    2    0    0  0.39142146344E+01 -0.77924058893E+02 -0.14381205394E+03  0.20595498401E+03  0.12509224017E+03 0.  0.
         23    2    1    2    0    0 -0.39142146344E+01  0.77924058893E+02 -0.19648264035E+03  0.23021012701E+03  0.91125158923E+02 0.  0.
          5    1    3    3  502    0 -0.51379401102E+02 -0.74035393695E+02 -0.73772148008E+02  0.11653705247E+03  0.41800000000E+01 0.  1.
         -5    1    3    3    0  502  0.55293615736E+02 -0.38886651982E+01 -0.70039905930E+02  0.89417931540E+02  0.41800000000E+01 0.  1.
        -11    1    4    4    0    0  0.16071723030E+02 -0.10164257785E+02 -0.83089335109E+02  0.85237609225E+02  0.00000000000E+00 0.  1.
         11    1    4    4    0    0 -0.19985937664E+02  0.88088316679E+02 -0.11339330524E+03  0.14497251778E+03  0.00000000000E+00 0. -1.
</event>
<event>
 8    1  0.7192024E-009  0.8398993E+02  0.7561462E-02  0.1318095E+00
         -1   -1    0    0    0  501 -0.00000000000E+00  0.00000000000E+00  0.46383471851E+02  0.46383471851E+02  0.00000000000E+00 0.  1.
          1   -1    0    0  501    0  0.00000000000E+00 -0.00000000000E+00 -0.35213467668E+03  0.35213467668E+03  0.00000000000E+00 0. -1.
         25    2    1    2    0    0 -0.29339473946E+02 -0.55024464173E+02 -0.21118924792E+03  0.25324952383E+03  0.12508367798E+03 0.  0.
         23    2    1    2    0    0  0.29339473946E+02  0.55024464173E+02 -0.94561956909E+02  0.14526862470E+03  0.90953357483E+02 0.  0.
          5    1    3    3  502    0 -0.52670327676E+02 -0.61391342623E+02 -0.21374230555E+03  0.22857450853E+03  0.41800000000E+01 0.  1.
         -5    1    3    3    0  502  0.23330853731E+02  0.63668784502E+01  0.25530576341E+01  0.24675015305E+02  0.41800000000E+01 0.  1.
        -11    1    4    4    0    0  0.14287278383E+02  0.23413468816E+02 -0.10516782509E+03  0.10868573172E+03  0.00000000000E+00 0. -1.
         11    1    4    4    0    0  0.15052195563E+02  0.31610995357E+02  0.10605868179E+02  0.36582892977E+02  0.00000000000E+00 0.  1.
</event>
<event>
 8    1  0.7192024E-009  0.1295277E+03  0.7561462E-02  0.1228158E+00
          1   -1    0    0  501    0  0.00000000000E+00  0.00000000000E+00  0.11923638896E+04  0.11923638896E+04  0.00000000000E+00 0. -1.
         -1   -1    0    0    0  501 -0.00000000000E+00 -0.00000000000E+00 -0.14583339261E+02  0.14583339261E+02  0.00000000000E+00 0.  1.
         25    2    1    2    0    0 -0.59603176959E+02 -0.31505332342E+02  0.60669010114E+03  0.62310909983E+03  0.12508775644E+03 0.  0.
         23    2    1    2    0    0  0.59603176959E+02  0.31505332342E+02  0.57109044924E+03  0.58383812907E+03  0.10088377008E+03 0.  0.
          5    1    3    3  502    0  0.37209493207E+02 -0.91542760481E+01  0.24426673485E+03  0.24728942013E+03  0.41800000000E+01 0. -1.
         -5    1    3    3    0  502 -0.96812670166E+02 -0.22351056294E+02  0.36242336628E+03  0.37581967970E+03  0.41800000000E+01 0. -1.
        -11    1    4    4    0    0 -0.14340454268E+02  0.43813733762E+02  0.23686227186E+03  0.24130691603E+03  0.00000000000E+00 0.  1.
         11    1    4    4    0    0  0.73943631228E+02 -0.12308401420E+02  0.33422817739E+03  0.34253121303E+03  0.00000000000E+00 0. -1.
</event>
<event>
 8    1  0.7192024E-009  0.1828533E+03  0.7561462E-02  0.1165070E+00
          2   -1    0    0  501    0  0.00000000000E+00  0.00000000000E+00  0.83282368926E+03  0.83282368926E+03  0.00000000000E+00 0. -1.
         -2   -1    0    0    0  501 -0.00000000000E+00 -0.00000000000E+00 -0.59400266496E+02  0.59400266496E+02  0.00000000000E+00 0.  1.
         25    2    1    2    0    0  0.58196087119E+02  0.14073829500E+03  0.64443053637E+03  0.67389315031E+03  0.12508880684E+03 0.  0.
         23    2    1    2    0    0 -0.58196087119E+02 -0.14073829500E+03  0.12899288639E+03  0.21833080544E+03  0.88516233710E+02 0.  0.
          5    1    3    3  502    0  0.35408379676E+02 -0.14040102880E+02  0.17192733651E+03  0.17614584661E+03  0.41800000000E+01 0.  1.
         -5    1    3    3    0  502  0.22787707443E+02  0.15477839788E+03  0.47250319986E+03  0.49774730370E+03  0.41800000000E+01 0.  1.
        -11    1    4    4    0    0  0.19347389123E+02 -0.29934680407E+02  0.72674934941E+01  0.36376132541E+02  0.00000000000E+00 0.  1.
         11    1    4    4    0    0 -0.77543476243E+02 -0.11080361459E+03  0.12172539290E+03  0.18195467290E+03  0.00000000000E+00 0. -1.
</event>
<event>
 8    1  0.7192024E-009  0.8753529E+02  0.7561462E-02  0.1308933E+00
          1   -1    0    0  501    0  0.00000000000E+00  0.00000000000E+00  0.17521295725E+03  0.17521295725E+03  0.00000000000E+00 0. -1.
         -1   -1    0    0    0  501 -0.00000000000E+00 -0.00000000000E+00 -0.10384787365E+03  0.10384787365E+03  0.00000000000E+00 0.  1.
         25    2    1    2    0    0  0.43932093170E+02 -0.68503604082E+01 -0.29460198220E+02  0.13598730965E+03  0.12509072251E+03 0.  0.
         23    2    1    2    0    0 -0.43932093170E+02  0.68503604082E+01  0.10082528182E+03  0.14307352125E+03  0.91254253482E+02 0.  0.
          5    1    3    3  502    0 -0.40324778639E+02  0.14460425806E+02  0.29332030775E+01  0.43142412625E+02  0.41800000000E+01 0. -1.
         -5    1    3    3    0  502  0.84256871809E+02 -0.21310786214E+02 -0.32393401297E+02  0.92844897026E+02  0.41800000000E+01 0. -1.
        -11    1    4    4    0    0 -0.17320459891E+02  0.62035961752E+01 -0.15304832040E+02  0.23931586244E+02  0.00000000000E+00 0.  1.
         11    1    4    4    0    0 -0.26611633278E+02  0.64676423299E+00  0.11613011386E+03  0.11914193500E+03  0.00000000000E+00 0. -1.
</event>
<event>
 8    1  0.7192024E-009  0.1399276E+03  0.7561462E-02  0.1213426E+00
         -2   -1    0    0    0  501 -0.00000000000E+00  0.00000000000E+00  0.29119677583E+02  0.29119677583E+02  0.00000000000E+00 0.  1.
          2   -1    0    0  501    0  0.00000000000E+00 -0.00000000000E+00 -0.78528909511E+03  0.78528909511E+03  0.00000000000E+00 0. -1.
         25    2    1    2    0    0  0.47148366540E+02  0.75792607104E+02 -0.55539408027E+03  0.57626020062E+03  0.12508295908E+03 0.  0.
         23    2    1    2    0    0 -0.47148366540E+02 -0.75792607104E+02 -0.20077533725E+03  0.23814857208E+03  0.91850522994E+02 0.  0.
          5    1    3    3  502    0  0.73064061448E+02  0.95391740129E+02 -0.45725858943E+03  0.47280104819E+03  0.41800000000E+01 0.  1.
         -5    1    3    3    0  502 -0.25915694908E+02 -0.19599133025E+02 -0.98135490845E+02  0.10345915243E+03  0.41800000000E+01 0.  1.
        -11    1    4    4    0    0 -0.43666387183E+02  0.68050979662E+01 -0.54916984093E+02  0.70490693497E+02  0.00000000000E+00 0.  1.
         11    1    4    4    0    0 -0.34819793568E+01 -0.82597705070E+02 -0.14585835316E+03  0.16765787858E+03  0.00000000000E+00 0. -1.
</event>
<event>
 8    1  0.7192024E-009  0.1386855E+03  0.7561462E-02  0.1215109E+00
         -2   -1    0    0    0  501 -0.00000000000E+00  0.00000000000E+00  0.29871935228E+03  0.29871935228E+03  0.00000000000E+00 0.  1.
          2   -1    0    0  501    0  0.00000000000E+00 -0.00000000000E+00 -0.97028364068E+02  0.97028364068E+02  0.00000000000E+00 0. -1.
         25    2    1    2    0    0  0.10649618740E+03  0.48290818320E+02  0.18045506352E+03  0.24876524687E+03  0.12508667809E+03 0.  0.
         23    2    1    2    0    0 -0.10649618740E+03 -0.48290818320E+02  0.21235924689E+02  0.14698246948E+03  0.86483760155E+02 0.  0.
          5    1    3    3  502    0  0.34892172428E+02  0.69077236794E+02  0.14856198309E+03  0.16756271530E+03  0.41800000000E+01 0. -1.
         -5    1    3    3    0  502  0.71604014974E+02 -0.20786418474E+02  0.31893080428E+02  0.81202531565E+02  0.41800000000E+01 0. -1.
        -11    1    4    4    0    0 -0.95014978269E+01  0.85387391798E+01 -0.22891706013E+02  0.26214857084E+02  0.00000000000E+00 0. -1.
         11    1    4    4    0    0 -0.96994689575E+02 -0.56829557500E+02  0.44127630702E+02  0.12076761239E+03  0.00000000000E+00 0.  1.
</event>
<event>
 8    1  0.7192024E-009  0.9718545E+02  0.7561462E-02  0.1286328E+00
          1   -1    0    0  501    0  0.00000000000E+00  0.00000000000E+00  0.11648007971E+03  0.11648007971E+03  0.00000000000E+00 0. -1.
         -1   -1    0    0    0  501 -0.00000000000E+00 -0.00000000000E+00 -0.14529851496E+03  0.14529851496E+03  0.00000000000E+00 0.  1.
         25    2    1    2    0    0 -0.62860964560E+02 -0.30392414358E+02  0.89092696044E+00  0.14325847663E+03  0.12508795969E+03 0.  0.
         23    2    1    2    0    0  0.62860964560E+02  0.30392414358E+02 -0.29709362216E+02  0.11852011804E+03  0.91044892559E+02 0.  0.
          5    1    3    3  502    0  0.10373144420E+02  0.99807823468E+01 -0.45242045045E+02  0.47660604080E+02  0.41800000000E+01 0.  1.
         -5    1    3    3    0  502 -0.73234108980E+02 -0.40373196704E+02  0.46132972005E+02  0.95597872551E+02  0.41800000000E+01 0.  1.
        -11    1    4    4    0    0  0.56093061547E+02 -0.80055313971E+01  0.15575181804E+02  0.58763137892E+02  0.00000000000E+00 0. -1.
         11    1    4    4    0    0  0.67679030123E+01  0.38397945755E+02 -0.45284544020E+02  0.59756980148E+02  0.00000000000E+00 0.  1.
</event>
<event>
 8    1  0.7192024E-009  0.1568599E+03  0.7561462E-02  0.1192288E+00
          1   -1    0    0  501    0  0.00000000000E+00  0.00000000000E+00  0.97053304136E+03  0.97053304136E+03  0.00000000000E+00 0. -1.
         -1   -1    0    0    0  501 -0.00000000000E+00 -0.00000000000E+00 -0.29592057821E+02  0.29592057821E+02  0.00000000000E+00 0.  1.
         25    2    1    2    0    0  0.12003339752E+03 -0.16855978084E+02  0.64013652848E+03  0.66341138295E+03  0.12509095654E+03 0.  0.
         23    2    1    2    0    0 -0.12003339752E+03  0.16855978084E+02  0.30080445506E+03  0.33671371623E+03  0.90557528680E+02 0.  0.
          5    1    3    3  502    0 -0.18930573532E+02  0.16184700213E+02  0.17518201365E+03  0.17699299829E+03  0.41800000000E+01 0.  1.
         -5    1    3    3    0  502  0.13896397106E+03 -0.33040678297E+02  0.46495451483E+03  0.48641838466E+03  0.41800000000E+01 0.  1.
        -11    1    4    4    0    0 -0.10511638188E+03  0.44505196092E+02  0.26797294827E+03  0.29127249651E+03  0.00000000000E+00 0.  1.
         11    1    4    4    0    0 -0.14917015646E+02 -0.27649218008E+02  0.32831506783E+02  0.45441219723E+02  0.00000000000E+00 0. -1.
</event>
<event>
 8    1  0.7192024E-009  0.9745216E+02  0.7561462E-02  0.1285747E+00
         -1   -1    0    0    0  501 -0.00000000000E+00  0.00000000000E+00  0.97461701624E+02  0.97461701624E+02  0.00000000000E+00 0.  1.
          1   -1    0    0  501    0  0.00000000000E+00 -0.00000000000E+00 -0.15950551135E+03  0.15950551135E+03  0.00000000000E+00 0. -1.
         25    2    1    2    0    0 -0.16604407599E+02 -0.21380910698E+01  0.24025593433E+02  0.12847140104E+03  0.12508954377E+03 0.  0.
         23    2    1    2    0    0  0.16604407599E+02  0.21380910698E+01 -0.86069403163E+02  0.12849581194E+03  0.93930579369E+02 0.  0.
          5    1    3    3  502    0 -0.16633230863E+02 -0.59978716765E+02 -0.68762809883E+01  0.62760389370E+02  0.41800000000E+01 0. -1.
         -5    1    3    3    0  502  0.28823263791E-01  0.57840625695E+02  0.30901874421E+02  0.65711011667E+02  0.41800000000E+01 0. -1.
        -11    1    4    4    0    0  0.15943740085E+02  0.36673090793E+02 -0.85001331899E+02  0.93937984121E+02  0.00000000000E+00 0. -1.
         11    1    4    4    0    0  0.66066751422E+00 -0.34534999723E+02 -0.10680712638E+01  0.34557827820E+02  0.00000000000E+00 0.  1.
</event>
<event>
 8    1  0.7192024E-009  0.1437525E+03  0.7561462E-02  0.1208367E+00
         -1   -1    0    0    0  501 -0.00000000000E+00  0.00000000000E+00  0.12111028566E+03  0.12111028566E+03  0.00000000000E+00 0.  1.
          1   -1    0    0  501    0  0.00000000000E+00 -0.00000000000E+00 -0.18374291668E+03  0.18374291668E+03  0.00000000000E+00 0. -1.
         25    2    1    2    0    0 -0.61366839623E+02  0.79399140740E+02 -0.12845733698E+02  0.16088146928E+03  0.12509085389E+03 0.  0.
         23    2    1    2    0    0  0.61366839623E+02 -0.79399140740E+02 -0.49786897321E+02  0.14397173305E+03  0.90437891493E+02 0.  0.
          5    1    3    3  502    0 -0.18687833582E+02  0.10401108502E+03  0.10354517952E+02  0.10626490188E+03  0.41800000000E+01 0.  1.
         -5    1    3    3    0  502 -0.42679006040E+02 -0.24611944275E+02 -0.23200251649E+02  0.54616567397E+02  0.41800000000E+01 0.  1.
        -11    1    4    4    0    0  0.48346451670E+02 -0.98186305099E+02 -0.51686760843E+02  0.12103491705E+03  0.00000000000E+00 0.  1.
         11    1    4    4    0    0  0.13020387953E+02  0.18787164359E+02  0.18998635219E+01  0.22936816006E+02  0.00000000000E+00 0. -1.
</event>
<event>
 8    1  0.7192024E-009  0.1033888E+03  0.7561462E-02  0.1273327E+00
          2   -1    0    0  501    0  0.00000000000E+00  0.00000000000E+00  0.10720690383E+04  0.10720690383E+04  0.00000000000E+00 0. -1.
         -2   -1    0    0    0  501 -0.00000000000E+00 -0.00000000000E+00 -0.16395155157E+02  0.16395155157E+02  0.00000000000E+00 0.  1.
         25    2    1    2    0    0 -0.47979092917E+02 -0.20432751130E+02  0.81608260479E+03  0.82726095643E+03  0.12510148486E+03 0.  0.
         23    2    1    2    0    0  0.47979092917E+02  0.20432751130E+02  0.23959127837E+03  0.26120323705E+03  0.90020329352E+02 0.  0.
          5    1    3    3  502    0  0.29374668001E+02 -0.44810685346E+02  0.28825455724E+03  0.29322181163E+03  0.41800000000E+01 0.  1.
         -5    1    3    3    0  502 -0.77353760918E+02  0.24377934216E+02  0.52782804755E+03  0.53403914480E+03  0.41800000000E+01 0.  1.
        -11    1    4    4    0    0  0.57421965608E+01 -0.15398554202E+02  0.12178161192E+01  0.16479422592E+02  0.00000000000E+00 0.  1.
         11    1    4    4    0    0  0.42236896356E+02  0.35831305332E+02  0.23837346225E+03  0.24472381446E+03  0.00000000000E+00 0. -1.
</event>
<event>
 8    1  0.7192024E-009  0.1022955E+03  0.7561462E-02  0.1275542E+00
         -1   -1    0    0    0  501 -0.00000000000E+00  0.00000000000E+00  0.49581264621E+03  0.49581264621E+03  0.00000000000E+00 0.  1.
          1   -1    0    0  501    0  0.00000000000E+00 -0.00000000000E+00 -0.26223848767E+02  0.26223848767E+02  0.00000000000E+00 0. -1.
         25    2    1    2    0    0  0.11502539283E+02 -0.16561293017E+01  0.32261705797E+03  0.34621139468E+03  0.12508202325E+03 0.  0.
         23    2    1    2    0    0 -0.11502539283E+02  0.16561293017E+01  0.14697173947E+03  0.17582510029E+03  0.95805649707E+02 0.  0.
          5    1    3    3  502    0 -0.30649108725E+01 -0.53725190768E+02  0.24896349581E+03  0.25474709900E+03  0.41800000000E+01 0.  1.
         -5    1    3    3    0  502  0.14567450155E+02  0.52069061467E+02  0.73653562162E+02  0.91464295685E+02  0.41800000000E+01 0.  1.
        -11    1    4    4    0    0 -0.97420666524E+01  0.48520617544E+02  0.79862857265E+02  0.93953361622E+02  0.00000000000E+00 0. -1.
         11    1    4    4    0    0 -0.17604726301E+01 -0.46864488243E+02  0.67108882204E+02  0.81871738670E+02  0.00000000000E+00 0.  1.
</event>
<event>
 8    1  0.7192024E-009  0.1170700E+03  0.7561462E-02  0.1248010E+00
          2   -1    0    0  501    0  0.00000000000E+00  0.00000000000E+00  0.16014849386E+04  0.16014849386E+04  0.00000000000E+00 0.  1.
         -2   -1    0    0    0  501 -0.00000000000E+00 -0.00000000000E+00 -0.36955014934E+02  0.36955014934E+02  0.00000000000E+00 0. -1.
         25    2    1    2    0    0 -0.30410029962E+02  0.76231813072E+02  0.14845107034E+04  0.14920307478E+04  0.12509062595E+03 0.  0.
         23    2    1    2    0    0  0.30410029962E+02 -0.76231813072E+02  0.80019220288E+02  0.14640920573E+03  0.91085238436E+02 0.  0.
          5    1    3    3  502    0 -0.48296192835E+02  0.10214847997E+03  0.12897392287E+04  0.12946859019E+04  0.41800000000E+01 0. -1.
         -5    1    3    3    0  502  0.17886162873E+02 -0.25916666900E+02  0.19477147473E+03  0.19734484593E+03  0.41800000000E+01 0. -1.
        -11    1    4    4    0    0  0.19504522308E+02 -0.95100697557E+01 -0.17410365222E+02  0.27820651221E+02  0.00000000000E+00 0. -1.
         11    1    4    4    0    0  0.10905507654E+02 -0.66721743316E+02  0.97429585510E+02  0.11858855451E+03  0.00000000000E+00 0.  1.
</event>
<event>
 8    1  0.7192024E-009  0.1027285E+03  0.7561462E-02  0.1274661E+00
         -3   -1    0    0    0  501 -0.00000000000E+00  0.00000000000E+00  0.29121851403E+03  0.29121851403E+03  0.00000000000E+00 0.  1.
          3   -1    0    0  501    0  0.00000000000E+00 -0.00000000000E+00 -0.41785431285E+02  0.41785431285E+02  0.00000000000E+00 0. -1.
         25    2    1    2    0    0 -0.54799779903E+01 -0.67019815746E+01  0.17576249217E+03  0.21590417401E+03  0.12508881639E+03 0.  0.
         23    2    1    2    0    0  0.54799779903E+01  0.67019815746E+01  0.73670590577E+02  0.11709977130E+03  0.90609347242E+02 0.  0.
          5    1    3    3  502    0  0.46150768978E+02  0.32024278256E+02  0.54003211329E+02  0.78033756214E+02  0.41800000000E+01 0.  1.
         -5    1    3    3    0  502 -0.51630746968E+02 -0.38726259830E+02  0.12175928084E+03  0.13787041779E+03  0.41800000000E+01 0.  1.
        -11    1    4    4    0    0  0.23460866862E+02 -0.33219551740E+02  0.57492255236E+02  0.70422370763E+02  0.00000000000E+00 0.  1.
         11    1    4    4    0    0 -0.17980888872E+02  0.39921533315E+02  0.16178335341E+02  0.46677400541E+02  0.00000000000E+00 0. -1.
</event>
<event>
 8    1  0.7192024E-009  0.3766723E+03  0.7561462E-02  0.1052171E+00
          2   -1    0    0  501    0  0.00000000000E+00  0.00000000000E+00  0.20123946528E+04  0.20123946528E+04  0.00000000000E+00 0.  1.
         -2   -1    0    0    0  501 -0.00000000000E+00 -0.00000000000E+00 -0.87327007192E+02  0.87327007192E+02  0.00000000000E+00 0. -1.
         25    2    1    2    0    0 -0.29759395927E+03  0.20761254954E+03  0.52306300770E+03  0.64877339834E+03  0.12508747758E+03 0.  0.
         23    2    1    2    0    0  0.29759395927E+03 -0.20761254954E+03  0.14020046380E+04  0.14509482617E+04  0.89267675936E+02 0.  0.
          5    1    3    3  502    0 -0.20119469951E+03  0.65659910921E+02  0.30510575635E+03  0.37134556140E+03  0.41800000000E+01 0. -1.
         -5    1    3    3    0  502 -0.96399259757E+02  0.14195263862E+03  0.21795725135E+03  0.27742783694E+03  0.41800000000E+01 0. -1.
        -11    1    4    4    0    0  0.26643696188E+03 -0.15325220050E+03  0.12320517596E+04  0.12698135414E+04  0.00000000000E+00 0.  1.
         11    1    4    4    0    0  0.31156997383E+02 -0.54360349039E+02  0.16995287836E+03  0.18113472029E+03  0.00000000000E+00 0. -1.
</event>
<event>
 8    1  0.7192024E-009  0.1182781E+03  0.7561462E-02  0.1245965E+00
          3   -1    0    0  501    0  0.00000000000E+00  0.00000000000E+00  0.49061432329E+03  0.49061432329E+03  0.00000000000E+00 0. -1.
         -3   -1    0    0    0  501 -0.00000000000E+00 -0.00000000000E+00 -0.31531682389E+02  0.31531682389E+02  0.00000000000E+00 0.  1.
         25    2    1    2    0    0 -0.23786841612E+02 -0.57754726585E+02  0.26225932108E+03  0.29720175362E+03  0.12509000193E+03 0.  0.
         23    2    1    2    0    0  0.23786841612E+02  0.57754726585E+02  0.19682331981E+03  0.22494425206E+03  0.89213648247E+02 0.  0.
          5    1    3    3  502    0  0.20059071325E+00  0.37112515444E+02  0.10994503928E+03  0.11611530089E+03  0.41800000000E+01 0. -1.
         -5    1    3    3    0  502 -0.23987432326E+02 -0.94867242029E+02  0.15231428181E+03  0.18108645273E+03  0.41800000000E+01 0. -1.
        -11    1    4    4    0    0  0.43060577712E+02  0.29387279277E+01  0.44863476578E+02  0.62254164563E+02  0.00000000000E+00 0.  1.
         11    1    4    4    0    0 -0.19273736100E+02  0.54815998657E+02  0.15195984324E+03  0.16269008749E+03  0.00000000000E+00 0. -1.
</event>
<event>
 8    1  0.7192024E-009  0.7118967E+02  0.7561462E-02  0.1356094E+00
          1   -1    0    0  501    0  0.00000000000E+00  0.00000000000E+00  0.14176236015E+03  0.14176236015E+03  0.00000000000E+00 0. -1.
         -1   -1    0    0    0  501 -0.00000000000E+00 -0.00000000000E+00 -0.92683493898E+02  0.92683493898E+02  0.00000000000E+00 0.  1.
         25    2    1    2    0    0 -0.23905918144E+02  0.58557815856E+01  0.53105448985E+01  0.12759755017E+03  0.12508856791E+03 0.  0.
         23    2    1    2    0    0  0.23905918144E+02 -0.58557815856E+01  0.43768321351E+02  0.10684830387E+03  0.94313896040E+02 0.  0.
          5    1    3    3  502    0  0.21712847939E+02  0.55476355360E+01 -0.50491798911E+02  0.55399622588E+02  0.41800000000E+01 0.  1.
         -5    1    3    3    0  502 -0.45618766083E+02  0.30814604954E+00  0.55802343809E+02  0.72197927585E+02  0.41800000000E+01 0.  1.
        -11    1    4    4    0    0 -0.15134691321E+02 -0.25815266491E+02  0.54078166744E+02  0.61805622590E+02  0.00000000000E+00 0. -1.
         11    1    4    4    0    0  0.39040609465E+02  0.19959484906E+02 -0.10309845392E+02  0.45042681283E+02  0.00000000000E+00 0.  1.
</event>
<event>
 8    1  0.7192024E-009  0.1110103E+03  0.7561462E-02  0.1258710E+00
          3   -1    0    0  501    0  0.00000000000E+00  0.00000000000E+00  0.11577368315E+03  0.11577368315E+03  0.00000000000E+00 0. -1.
         -3   -1    0    0    0  501 -0.00000000000E+00 -0.00000000000E+00 -0.15078644548E+03  0.15078644548E+03  0.00000000000E+00 0.  1.
         25    2    1    2    0    0  0.71303217804E+02 -0.59147220468E+01 -0.32083325969E+02  0.14763396625E+03  0.12508922967E+03 0.  0.
         23    2    1    2    0    0 -0.71303217804E+02  0.59147220468E+01 -0.29294363669E+01  0.11892616238E+03  0.94951133198E+02 0.  0.
          5    1    3    3  502    0  0.83658841473E+02 -0.40134312380E+02  0.81389687431E+01  0.93237760585E+02  0.41800000000E+01 0.  1.
         -5    1    3    3    0  502 -0.12355623669E+02  0.34219590333E+02 -0.40222294712E+02  0.54396205664E+02  0.41800000000E+01 0.  1.
        -11    1    4    4    0    0 -0.62708835739E+02 -0.19514573694E+02 -0.37134270335E+02  0.75446475726E+02  0.00000000000E+00 0.  1.
         11    1    4    4    0    0 -0.85943820655E+01  0.25429295740E+02  0.34204833969E+02  0.43479686657E+02  0.00000000000E+00 0. -1.
</event>
<event>
 8    1  0.7192024E-009  0.1429838E+03  0.7561462E-02  0.1209370E+00
          1   -1    0    0  501    0  0.00000000000E+00  0.00000000000E+00  0.30949308167E+02  0.30949308167E+02  0.00000000000E+00 0. -1.
         -1   -1    0    0    0  501 -0.00000000000E+00 -0.00000000000E+00 -0.82230666611E+03  0.82230666611E+03  0.00000000000E+00 0.  1.
         25    2    1    2    0    0 -0.99564595127E+02  0.40506286721E+02 -0.30530203581E+03  0.34700221953E+03  0.12508932577E+03 0.  0.
         23    2    1    2    0    0  0.99564595127E+02 -0.40506286721E+02 -0.48605532214E+03  0.50625375475E+03  0.92136964107E+02 0.  0.
          5    1    3    3  502    0  0.41766218783E+01 -0.33289504547E+02 -0.98258014855E+02  0.10391219932E+03  0.41800000000E+01 0. -1.
         -5    1    3    3    0  502 -0.10374121701E+03  0.73795791268E+02 -0.20704402095E+03  0.24309002021E+03  0.41800000000E+01 0. -1.
        -11    1    4    4    0    0  0.83802481401E+02 -0.57475170598E+02 -0.46127455914E+03  0.47233512471E+03  0.00000000000E+00 0. -1.
         11    1    4    4    0    0  0.15762113727E+02  0.16968883877E+02 -0.24780762995E+02  0.33918630040E+02  0.00000000000E+00 0.  1.
</event>
<event>
 8    1  0.7192024E-009  0.2461203E+03  0.7561462E-02  0.1115782E+00
          2   -1    0    0  501    0  0.00000000000E+00  0.00000000000E+00  0.18085416054E+04  0.18085416054E+04  0.00000000000E+00 0. -1.
         -2   -1    0    0    0  501 -0.00000000000E+00 -0.00000000000E+00 -0.42147791068E+02  0.42147791068E+02  0.00000000000E+00 0.  1.
         25    2    1    2    0    0  0.57579489432E+02  0.22920265908E+03  0.12066804153E+04  0.12359512921E+04  0.12509482479E+03 0.  0.
         23    2    1    2    0    0 -0.57579489432E+02 -0.22920265908E+03  0.55971339903E+03  0.61473810439E+03  0.93672789021E+02 0.  0.
          5    1    3    3  502    0  0.50433455058E+02  0.14345659239E+03  0.46419453621E+03  0.48848476653E+03  0.41800000000E+01 0. -1.
         -5    1    3    3    0  502  0.71460343744E+01  0.85746066688E+02  0.74248587912E+03  0.74746652557E+03  0.41800000000E+01 0. -1.
        -11    1    4    4    0    0 -0.74247371917E+02 -0.10465858585E+03  0.26950676766E+03  0.29849621379E+03  0.00000000000E+00 0. -1.
         11    1    4    4    0    0  0.16667882485E+02 -0.12454407323E+03  0.29020663136E+03  0.31624189060E+03  0.00000000000E+00 0.  1.
</event>
<event>
 8    1  0.7192024E-009  0.8887044E+02  0.7561462E-02  0.1305610E+00
         -1   -1    0    0    0  501 -0.00000000000E+00  0.00000000000E+00  0.15190610720E+03  0.15190610720E+03  0.00000000000E+00 0.  1.
          1   -1    0    0  501    0  0.00000000000E+00 -0.00000000000E+00 -0.87575360546E+02  0.87575360546E+02  0.00000000000E+00 0. -1.
         25    2    1    2    0    0  0.16590916513E+02  0.28772866384E+02  0.62319821111E+02  0.14364619966E+03  0.12508930499E+03 0.  0.
         23    2    1    2    0    0 -0.16590916513E+02 -0.28772866384E+02  0.20109255402E+01  0.95835268079E+02  0.89873346636E+02 0.  0.
          5    1    3    3  502    0  0.24030976032E+02  0.59881754980E+02 -0.90838468934E+01  0.65293958855E+02  0.41800000000E+01 0.  1.
         -5    1    3    3    0  502 -0.74400595189E+01 -0.31108888596E+02  0.71403668004E+02  0.78352240809E+02  0.41800000000E+01 0.  1.
        -11    1    4    4    0    0 -0.20472856552E+02  0.21913453320E+02  0.25938944210E+02  0.39650550041E+02  0.00000000000E+00 0.  1.
         11    1    4    4    0    0  0.38819400389E+01 -0.50686319704E+02 -0.23928018670E+02  0.56184718038E+02  0.00000000000E+00 0. -1.
</event>
<event>
 8    1  0.7192024E-009  0.1342455E+03  0.7561462E-02  0.1221289E+00
         -3   -1    0    0    0  501 -0.00000000000E+00  0.00000000000E+00  0.40572663153E+02  0.40572663153E+02  0.00000000000E+00 0.  1.
          3   -1    0    0  501    0  0.00000000000E+00 -0.00000000000E+00 -0.63599384636E+03  0.63599384636E+03  0.00000000000E+00 0. -1.
         25    2    1    2    0    0  0.47089460254E+01 -0.11183470379E+03 -0.42272513641E+03  0.45483325641E+03  0.12509026757E+03 0.  0.
         23    2    1    2    0    0 -0.47089460254E+01  0.11183470379E+03 -0.17269604679E+03  0.22173325310E+03  0.82538087017E+02 0.  0.
          5    1    3    3  502    0 -0.39542611171E+02 -0.33083738325E+02 -0.28777310880E+03  0.29238499686E+03  0.41800000000E+01 0.  1.
         -5    1    3    3    0  502  0.44251557196E+02 -0.78750965461E+02 -0.13495202761E+03  0.16244825955E+03  0.41800000000E+01 0.  1.
        -11    1    4    4    0    0 -0.16213373379E+02  0.25089760380E+01 -0.67907420974E+02  0.69861192807E+02  0.00000000000E+00 0. -1.
         11    1    4    4    0    0  0.11504427354E+02  0.10932572775E+03 -0.10478862582E+03  0.15187206029E+03  0.00000000000E+00 0.  1.
</event>
<event>
 8    1  0.7192024E-009  0.7760131E+02  0.7561462E-02  0.1336000E+00
          2   -1    0    0  501    0  0.00000000000E+00  0.00000000000E+00  0.22457066585E+03  0.22457066585E+03  0.00000000000E+00 0. -1.
         -2   -1    0    0    0  501 -0.00000000000E+00 -0.00000000000E+00 -0.53525017508E+02  0.53525017508E+02  0.00000000000E+00 0.  1.
         25    2    1    2    0    0  0.48566486918E+01  0.84700760430E+01  0.89869194899E+02  0.15433478011E+03  0.12508965958E+03 0.  0.
         23    2    1    2    0    0 -0.48566486918E+01 -0.84700760430E+01  0.81176453441E+02  0.12376090325E+03  0.92907563500E+02 0.  0.
          5    1    3    3  502    0 -0.26681308764E+02  0.34240211798E+02 -0.11423766378E+02  0.45080585396E+02  0.41800000000E+01 0.  1.
         -5    1    3    3    0  502  0.31537957456E+02 -0.25770135755E+02  0.10129296128E+03  0.10925419471E+03  0.41800000000E+01 0.  1.
        -11    1    4    4    0    0 -0.36323945735E+02 -0.13566159083E+02  0.24805564062E+01  0.38853865523E+02  0.00000000000E+00 0.  1.
         11    1    4    4    0    0  0.31467297043E+02  0.50960830404E+01  0.78695897034E+02  0.84907037727E+02  0.00000000000E+00 0. -1.
</event>
<event>
 8    1  0.7192024E-009  0.1204479E+03  0.7561462E-02  0.1242360E+00
         -2   -1    0    0    0  501 -0.00000000000E+00  0.00000000000E+00  0.26579462635E+03  0.26579462635E+03  0.00000000000E+00 0.  1.
          2   -1    0    0  501    0  0.00000000000E+00 -0.00000000000E+00 -0.92522610874E+02  0.92522610874E+02  0.00000000000E+00 0. -1.
         25    2    1    2    0    0 -0.96886305724E+02 -0.25768401286E+02  0.31319516981E+02  0.16334023126E+03  0.12509257477E+03 0.  0.
         23    2    1    2    0    0  0.96886305724E+02  0.25768401286E+02  0.14195249849E+03  0.19497700596E+03  0.88399967665E+02 0.  0.
          5    1    3    3  502    0 -0.73194899627E+02 -0.54510255934E+02  0.65660115885E+02  0.11250593118E+03  0.41800000000E+01 0. -1.
         -5    1    3    3    0  502 -0.23691406098E+02  0.28741854648E+02 -0.34340598904E+02  0.50834300079E+02  0.41800000000E+01 0. -1.
        -11    1    4    4    0    0  0.31405115953E+02  0.33737025552E+02  0.11468223318E+03  0.12359806959E+03  0.00000000000E+00 0. -1.
         11    1    4    4    0    0  0.65481189771E+02 -0.79686242654E+01  0.27270265319E+02  0.71378936369E+02  0.00000000000E+00 0.  1.
</event>
<event>
 8    1  0.7192024E-009  0.1039221E+03  0.7561462E-02  0.1272258E+00
          2   -1    0    0  501    0  0.00000000000E+00  0.00000000000E+00  0.13630127064E+04  0.13630127064E+04  0.00000000000E+00 0. -1.
         -2   -1    0    0    0  501 -0.00000000000E+00 -0.00000000000E+00 -0.10724035601E+02  0.10724035601E+02  0.00000000000E+00 0.  1.
         25    2    1    2    0    0  0.32929330354E+02 -0.17509376743E+02  0.99737750701E+03  0.10058843343E+04  0.12510189255E+03 0.  0.
         23    2    1    2    0    0 -0.32929330354E+02  0.17509376743E+02  0.35491116378E+03  0.36785240765E+03  0.89233068778E+02 0.  0.
          5    1    3    3  502    0 -0.35035810766E+02  0.19325614504E+02  0.16173681954E+03  0.16666510914E+03  0.41800000000E+01 0. -1.
         -5    1    3    3    0  502  0.67965141120E+02 -0.36834991247E+02  0.83564068747E+03  0.83921922520E+03  0.41800000000E+01 0. -1.
        -11    1    4    4    0    0 -0.93811379357E+01 -0.33085486196E+02  0.76080478807E+02  0.83491882248E+02  0.00000000000E+00 0.  1.
         11    1    4    4    0    0 -0.23548192419E+02  0.50594862939E+02  0.27883068497E+03  0.28436052540E+03  0.00000000000E+00 0. -1.
</event>
<event>
 8    1  0.7192024E-009  0.2018439E+03  0.7561462E-02  0.1148193E+00
         -2   -1    0    0    0  501 -0.00000000000E+00  0.00000000000E+00  0.18461588874E+03  0.18461588874E+03  0.00000000000E+00 0.  1.
          2   -1    0    0  501    0  0.00000000000E+00 -0.00000000000E+00 -0.22720701115E+03  0.22720701115E+03  0.00000000000E+00 0. -1.
         25    2    1    2    0    0 -0.85909079046E+02 -0.14739721763E+03 -0.56257987349E+02  0.21890722767E+03  0.12509637708E+03 0.  0.
         23    2    1    2    0    0  0.85909079046E+02  0.14739721763E+03  0.13666864937E+02  0.19291567223E+03  0.89013278611E+02 0.  0.
          5    1    3    3  502    0  0.20044414204E+00 -0.12143055723E+03 -0.33622877751E+02  0.12606899189E+03  0.41800000000E+01 0.  1.
         -5    1    3    3    0  502 -0.86109523188E+02 -0.25966660393E+02 -0.22635109598E+02  0.92838235776E+02  0.41800000000E+01 0.  1.
        -11    1    4    4    0    0  0.26652533715E+02 -0.63318951493E+01 -0.16950534445E+01  0.27446742171E+02  0.00000000000E+00 0.  1.
         11    1    4    4    0    0  0.59256545331E+02  0.15372911277E+03  0.15361918382E+02  0.16546893006E+03  0.00000000000E+00 0. -1.
</event>
<event>
 8    1  0.7192024E-009  0.1662663E+03  0.7561462E-02  0.1181798E+00
          2   -1    0    0  501    0  0.00000000000E+00  0.00000000000E+00  0.36080443905E+03  0.36080443905E+03  0.00000000000E+00 0. -1.
         -2   -1    0    0    0  501 -0.00000000000E+00 -0.00000000000E+00 -0.11138325598E+03  0.11138325598E+03  0.00000000000E+00 0.  1.
         25    2    1    2    0    0 -0.87011391348E+00  0.15739137795E+03  0.20044321543E+03  0.28389085671E+03  0.12507490939E+03 0.  0.
         23    2    1    2    0    0  0.87011391348E+00 -0.15739137795E+03  0.48977967640E+02  0.18829683832E+03  0.91016784477E+02 0.  0.
          5    1    3    3  502    0 -0.60290899509E+01  0.94767974505E+02  0.19941302909E+03  0.22090800685E+03  0.41800000000E+01 0.  1.
         -5    1    3    3    0  502  0.51589760374E+01  0.62623403446E+02  0.10301863420E+01  0.62982849862E+02  0.41800000000E+01 0.  1.
        -11    1    4    4    0    0  0.34358079584E+02 -0.41515505441E+02 -0.87189747763E+01  0.54589699998E+02  0.00000000000E+00 0.  1.
         11    1    4    4    0    0 -0.33487965670E+02 -0.11587587251E+03  0.57696942416E+02  0.13370713832E+03  0.00000000000E+00 0. -1.
</event>
<event>
 8    1  0.7192024E-009  0.6622887E+02  0.7561462E-02  0.1373408E+00
          1   -1    0    0  501    0  0.00000000000E+00  0.00000000000E+00  0.39911102342E+03  0.39911102342E+03  0.00000000000E+00 0. -1.
         -1   -1    0    0    0  501 -0.00000000000E+00 -0.00000000000E+00 -0.31415893323E+02  0.31415893323E+02  0.00000000000E+00 0.  1.
         25    2    1    2    0    0  0.21030339673E+02  0.26750416443E+02  0.23808570574E+03  0.27108999131E+03  0.12508844929E+03 0.  0.
         23    2    1    2    0    0 -0.21030339673E+02 -0.26750416443E+02  0.12960942435E+03  0.15943692543E+03  0.86392536377E+02 0.  0.
          5    1    3    3  502    0 -0.10799120424E+02 -0.13783338446E+02 -0.79502534289E+01  0.19679439785E+02  0.41800000000E+01 0. -1.
         -5    1    3    3    0  502  0.31829460097E+02  0.40533754889E+02  0.24603595917E+03  0.25141055153E+03  0.41800000000E+01 0. -1.
        -11    1    4    4    0    0 -0.33156250273E+02  0.24302690501E+00  0.77699841161E+01  0.34055376190E+02  0.00000000000E+00 0.  1.
         11    1    4    4    0    0  0.12125910600E+02 -0.26993443348E+02  0.12183944024E+03  0.12538154924E+03  0.00000000000E+00 0. -1.
</event>
<event>
 8    1  0.7192024E-009  0.1065226E+03  0.7561462E-02  0.1267148E+00
          2   -1    0    0  501    0  0.00000000000E+00  0.00000000000E+00  0.45452653513E+03  0.45452653513E+03  0.00000000000E+00 0. -1.
         -2   -1    0    0    0  501 -0.00000000000E+00 -0.00000000000E+00 -0.29879668764E+02  0.29879668764E+02  0.00000000000E+00 0.  1.
         25    2    1    2    0    0  0.10986326673E+02  0.42973249767E+02  0.26365270873E+03  0.29517115340E+03  0.12508340980E+03 0.  0.
         23    2    1    2    0    0 -0.10986326673E+02 -0.42973249767E+02  0.16099415763E+03  0.18923505049E+03  0.89013403345E+02 0.  0.
          5    1    3    3  502    0  0.14729263419E+02 -0.34042974249E+02  0.16871057868E+03  0.17279064516E+03  0.41800000000E+01 0.  1.
         -5    1    3    3    0  502 -0.37429367456E+01  0.77016224016E+02  0.94942130052E+02  0.12238050824E+03  0.41800000000E+01 0.  1.
        -11    1    4    4    0    0 -0.49366768899E+02 -0.30997859790E+02  0.10785987105E+03  0.12260382118E+03  0.00000000000E+00 0. -1.
         11    1    4    4    0    0  0.38380442226E+02 -0.11975389976E+02  0.53134286576E+02  0.66631229318E+02  0.00000000000E+00 0.  1.
</event>
<event>
 8    1  0.7192024E-009  0.1322285E+03  0.7561462E-02  0.1224186E+00
         -3   -1    0    0    0  501 -0.00000000000E+00  0.00000000000E+00  0.69998597720E+03  0.69998597720E+03  0.00000000000E+00 0.  1.
          3   -1    0    0  501    0  0.00000000000E+00 -0.00000000000E+00 -0.40425137714E+02  0.40425137714E+02  0.00000000000E+00 0. -1.
         25    2    1    2    0    0 -0.92479227574E+02 -0.71686231196E+02  0.46246202658E+03  0.49316309138E+03  0.12508950951E+03 0.  0.
         23    2    1    2    0    0  0.92479227574E+02  0.71686231196E+02  0.19709881290E+03  0.24724802354E+03  0.92694766947E+02 0.  0.
          5    1    3    3  502    0 -0.25395168845E+02 -0.11135557210E+01  0.31715295229E+03  0.31819745781E+03  0.41800000000E+01 0. -1.
         -5    1    3    3    0  502 -0.67084058729E+02 -0.70572675475E+02  0.14530907429E+03  0.17496563357E+03  0.41800000000E+01 0. -1.
        -11    1    4    4    0    0  0.74358507598E+02  0.89136760269E+02  0.18708491326E+03  0.22017110267E+03  0.00000000000E+00 0.  1.
         11    1    4    4    0    0  0.18120719976E+02 -0.17450529073E+02  0.10013899644E+02  0.27076920863E+02  0.00000000000E+00 0. -1.
</event>
<event>
 8    1  0.7192024E-009  0.1159822E+03  0.7561462E-02  0.1249876E+00
         -1   -1    0    0    0  501 -0.00000000000E+00  0.00000000000E+00  0.88177498650E+02  0.88177498650E+02  0.00000000000E+00 0.  1.
          1   -1    0    0  501    0  0.00000000000E+00 -0.00000000000E+00 -0.17898907959E+03  0.17898907959E+03  0.00000000000E+00 0. -1.
         25    2    1    2    0    0 -0.57719515957E+02  0.18788339123E+02 -0.69457340859E+02  0.15542087780E+03  0.12508710104E+03 0.  0.
         23    2    1    2    0    0  0.57719515957E+02 -0.18788339123E+02 -0.21354240082E+02  0.11174570044E+03  0.91359475639E+02 0.  0.
          5    1    3    3  502    0 -0.23538012566E+02  0.71390309270E+02 -0.46499858169E+02  0.88489115166E+02  0.41800000000E+01 0.  1.
         -5    1    3    3    0  502 -0.34181503391E+02 -0.52601970147E+02 -0.22957482691E+02  0.66931762631E+02  0.41800000000E+01 0.  1.
        -11    1    4    4    0    0  0.48514374851E+02  0.21074780332E+02  0.17108780993E+02  0.55592277524E+02  0.00000000000E+00 0.  1.
         11    1    4    4    0    0  0.92051411061E+01 -0.39863119455E+02 -0.38463021075E+02  0.56153422921E+02  0.00000000000E+00 0. -1.
</event>
<event>
 8    1  0.7192024E-009  0.1139857E+03  0.7561462E-02  0.1253362E+00
          2   -1    0    0  501    0  0.00000000000E+00  0.00000000000E+00  0.36680755700E+02  0.36680755700E+02  0.00000000000E+00 0.  1.
         -2   -1    0    0    0  501 -0.00000000000E+00 -0.00000000000E+00 -0.44575118278E+03  0.44575118278E+03  0.00000000000E+00 0. -1.
         25    2    1    2    0    0  0.28853059073E+02  0.43328378357E+02 -0.15002583852E+03  0.20215001578E+03  0.12508808604E+03 0.  0.
         23    2    1    2    0    0 -0.28853059073E+02 -0.43328378357E+02 -0.25904458856E+03  0.28028192269E+03  0.93509410959E+02 0.  0.
          5    1    3    3  502    0  0.76623200976E+02  0.32144407967E+02 -0.11403640134E+03  0.14116001956E+03  0.41800000000E+01 0. -1.
         -5    1    3    3    0  502 -0.47770141903E+02  0.11183970390E+02 -0.35989437176E+02  0.60989996223E+02  0.41800000000E+01 0. -1.
        -11    1    4    4    0    0 -0.30697520653E+02  0.17058635798E+02 -0.16357238400E+03  0.16729990925E+03  0.00000000000E+00 0. -1.
         11    1    4    4    0    0  0.18444615801E+01 -0.60387014155E+02 -0.95472204562E+02  0.11298201344E+03  0.00000000000E+00 0.  1.
</event>
<event>
 8    1  0.7192024E-009  0.1131907E+03  0.7561462E-02  0.1254773E+00
          2   -1    0    0  501    0  0.00000000000E+00  0.00000000000E+00  0.40633916340E+03  0.40633916340E+03  0.00000000000E+00 0. -1.
         -2   -1    0    0    0  501 -0.00000000000E+00 -0.00000000000E+00 -0.45994841528E+02  0.45994841528E+02  0.00000000000E+00 0.  1.
         25    2    1    2    0    0  0.79177040684E+02 -0.16023939223E+02  0.16536303389E+03  0.22252796064E+03  0.12509192575E+03 0.  0.
         23    2    1    2    0    0 -0.79177040684E+02  0.16023939223E+02  0.19498128798E+03  0.22980604429E+03  0.90924941187E+02 0.  0.
          5    1    3    3  502    0  0.49688047587E+02  0.43988936039E+02  0.33127642098E+02  0.74288906560E+02  0.41800000000E+01 0. -1.
         -5    1    3    3    0  502  0.29488993097E+02 -0.60012875262E+02  0.13223539179E+03  0.14823905408E+03  0.41800000000E+01 0. -1.
        -11    1    4    4    0    0 -0.94724416741E+01 -0.14074536644E+02 -0.34788141734E+01  0.17318252830E+02  0.00000000000E+00 0.  1.
         11    1    4    4    0    0 -0.69704599010E+02  0.30098475867E+02  0.19846010215E+03  0.21248779146E+03  0.00000000000E+00 0. -1.
</event>
<event>
 8    1  0.7192024E-009  0.2131745E+03  0.7561462E-02  0.1139077E+00
          2   -1    0    0  501    0  0.00000000000E+00  0.00000000000E+00  0.12799066087E+04  0.12799066087E+04  0.00000000000E+00 0. -1.
         -2   -1    0    0    0  501 -0.00000000000E+00 -0.00000000000E+00 -0.60865970458E+02  0.60865970458E+02  0.00000000000E+00 0.  1.
         25    2    1    2    0    0  0.17697239260E+03  0.58065800839E+02  0.19742867451E+03  0.29885646970E+03  0.12508494311E+03 0.  0.
         23    2    1    2    0    0 -0.17697239260E+03 -0.58065800839E+02  0.10216119637E+04  0.10419161094E+04  0.84895875789E+02 0.  0.
          5    1    3    3  502    0  0.72239637720E+02  0.89320762677E+02  0.10358113188E+03  0.15473618576E+03  0.41800000000E+01 0. -1.
         -5    1    3    3    0  502  0.10473275488E+03 -0.31254961837E+02  0.93847542625E+02  0.14412028394E+03  0.41800000000E+01 0. -1.
        -11    1    4    4    0    0 -0.26226187762E+00  0.11943088628E+02  0.30760582783E+02  0.32998781802E+02  0.00000000000E+00 0.  1.
         11    1    4    4    0    0 -0.17671013073E+03 -0.70008889467E+02  0.99085138090E+03  0.10089173276E+04  0.00000000000E+00 0. -1.
</event>
<event>
 8    1  0.7192024E-009  0.1094471E+03  0.7561462E-02  0.1261597E+00
         -2   -1    0    0    0  501 -0.00000000000E+00  0.00000000000E+00  0.28883036674E+02  0.28883036674E+02  0.00000000000E+00 0.  1.
          2   -1    0    0  501    0  0.00000000000E+00 -0.00000000000E+00 -0.13900290077E+04  0.13900290077E+04  0.00000000000E+00 0. -1.
         25    2    1    2    0    0  0.23581707974E+02  0.69795412734E+02 -0.12487583956E+04  0.12571678183E+04  0.12508355769E+03 0.  0.
         23    2    1    2    0    0 -0.23581707974E+02 -0.69795412734E+02 -0.11238757546E+03  0.16174422603E+03  0.90015170640E+02 0.  0.
          5    1    3    3  502    0 -0.34582986075E+02  0.78449191834E+02 -0.78424892253E+03  0.78893225534E+03  0.41800000000E+01 0. -1.
         -5    1    3    3    0  502  0.58164694049E+02 -0.86537791004E+01 -0.46450947303E+03  0.46823556300E+03  0.41800000000E+01 0. -1.
        -11    1    4    4    0    0 -0.52453059882E+01 -0.27660375115E+02  0.10885871498E+02  0.30184628285E+02  0.00000000000E+00 0.  1.
         11    1    4    4    0    0 -0.18336401986E+02 -0.42135037619E+02 -0.12327344696E+03  0.13155959774E+03  0.00000000000E+00 0. -1.
</event>
<event>
 8    1  0.7192024E-009  0.9197044E+02  0.7561462E-02  0.1298149E+00
          2   -1    0    0  501    0  0.00000000000E+00  0.00000000000E+00  0.97089531150E+02  0.97089531150E+02  0.00000000000E+00 0. -1.
         -2   -1    0    0    0  501 -0.00000000000E+00 -0.00000000000E+00 -0.15908525891E+03  0.15908525891E+03  0.00000000000E+00 0.  1.
         25    2    1    2    0    0 -0.38769379830E+02 -0.38316423772E+02 -0.60490718414E+02  0.14925942717E+03  0.12509211183E+03 0.  0.
         23    2    1    2    0    0  0.38769379830E+02  0.38316423772E+02 -0.15050093500E+01  0.10691536289E+03  0.91964213837E+02 0.  0.
          5    1    3    3  502    0 -0.45808286645E+02  0.28381839184E+02 -0.61730635257E+02  0.82049202617E+02  0.41800000000E+01 0.  1.
         -5    1    3    3    0  502  0.70389068151E+01 -0.66698262956E+02  0.12399168434E+01  0.67210224552E+02  0.41800000000E+01 0.  1.
        -11    1    4    4    0    0  0.98215317113E+01  0.31440526731E+02 -0.44047158565E+02  0.55001103479E+02  0.00000000000E+00 0.  1.
         11    1    4    4    0    0  0.28947848118E+02  0.68758970416E+01  0.42542149215E+02  0.51914259415E+02  0.00000000000E+00 0. -1.
</event>
<event>
 8    1  0.7192024E-009  0.8517119E+02  0.7561462E-02  0.1314985E+00
         -1   -1    0    0    0  501 -0.00000000000E+00  0.00000000000E+00  0.28420794599E+03  0.28420794599E+03  0.00000000000E+00 0.  1.
          1   -1    0    0  501    0  0.00000000000E+00 -0.00000000000E+00 -0.42059096874E+02  0.42059096874E+02  0.00000000000E+00 0. -1.
         25    2    1    2    0    0  0.27811837601E+01 -0.18723379080E+02  0.12214128170E+03  0.17585097807E+03  0.12508706523E+03 0.  0.
         23    2    1    2    0    0 -0.27811837601E+01  0.18723379080E+02  0.12000756742E+03  0.15041606479E+03  0.88684138394E+02 0.  0.
          5    1    3    3  502    0 -0.32452785466E+02  0.29013627860E+02  0.10532145037E+03  0.11403970447E+03  0.41800000000E+01 0. -1.
         -5    1    3    3    0  502  0.35233969226E+02 -0.47737006939E+02  0.16819831324E+02  0.61811273606E+02  0.41800000000E+01 0. -1.
        -11    1    4    4    0    0 -0.32892851107E+02  0.16861699085E+02  0.12913583815E+02  0.39153763509E+02  0.00000000000E+00 0. -1.
         11    1    4    4    0    0  0.30111667347E+02  0.18616799950E+01  0.10709398360E+03  0.11126230128E+03  0.00000000000E+00 0.  1.
</event>
<event>
 8    1  0.7192024E-009  0.2176121E+03  0.7561462E-02  0.1135676E+00
          1   -1    0    0  501    0  0.00000000000E+00  0.00000000000E+00  0.82837718343E+03  0.82837718343E+03  0.00000000000E+00 0. -1.
         -1   -1    0    0    0  501 -0.00000000000E+00 -0.00000000000E+00 -0.84576063394E+02  0.84576063394E+02  0.00000000000E+00 0.  1.
         25    2    1    2    0    0 -0.16855263298E+03 -0.10470982757E+03  0.14621621906E+03  0.27641226466E+03  0.12510163572E+03 0.  0.
         23    2    1    2    0    0  0.16855263298E+03  0.10470982757E+03  0.59758490097E+03  0.63654098217E+03  0.93287566333E+02 0.  0.
          5    1    3    3  502    0  0.51152430460E+01  0.19548201977E+02  0.87406895623E+01  0.22409149158E+02  0.41800000000E+01 0. -1.
         -5    1    3    3    0  502 -0.17366787603E+03 -0.12425802955E+03  0.13747552950E+03  0.25400311550E+03  0.41800000000E+01 0. -1.
        -11    1    4    4    0    0  0.36491242843E+02  0.80995957791E+01  0.37120634200E+02  0.52679746956E+02  0.00000000000E+00 0.  1.
         11    1    4    4    0    0  0.13206139014E+03  0.96610231790E+02  0.56046426677E+03  0.58386123521E+03  0.00000000000E+00 0. -1.
</event>
<event>
 8    1  0.7192024E-009  0.1857185E+03  0.7561462E-02  0.1162381E+00
         -1   -1    0    0    0  501 -0.00000000000E+00  0.00000000000E+00  0.21878802560E+03  0.21878802560E+03  0.00000000000E+00 0.  1.
          1   -1    0    0  501    0  0.00000000000E+00 -0.00000000000E+00 -0.27048152706E+03  0.27048152706E+03  0.00000000000E+00 0. -1.
         25    2    1    2    0    0  0.29523525170E+02  0.17130857658E+03  0.10451563603E+03  0.23830497234E+03  0.12508986658E+03 0.  0.
         23    2    1    2    0    0 -0.29523525170E+02 -0.17130857658E+03 -0.15620913749E+03  0.25096458032E+03  0.91453042565E+02 0.  0.
          5    1    3    3  502    0  0.42618256122E+02  0.17345788784E+03  0.12171347744E+03  0.21618417518E+03  0.41800000000E+01 0.  1.
         -5    1    3    3    0  502 -0.13094730952E+02 -0.21493112598E+01 -0.17197841415E+02  0.22120797158E+02  0.41800000000E+01 0.  1.
        -11    1    4    4    0    0 -0.21924151941E+02 -0.29036977753E+02  0.39584635597E+01  0.36598961039E+02  0.00000000000E+00 0.  1.
         11    1    4    4    0    0 -0.75993732291E+01 -0.14227159882E+03 -0.16016760105E+03  0.21436561928E+03  0.00000000000E+00 0. -1.
</event>
<event>
 8    1  0.7192024E-009  0.1050759E+03  0.7561462E-02  0.1269970E+00
          1   -1    0    0  501    0  0.00000000000E+00  0.00000000000E+00  0.29867083465E+03  0.29867083465E+03  0.00000000000E+00 0. -1.
         -1   -1    0    0    0  501 -0.00000000000E+00 -0.00000000000E+00 -0.56295174902E+02  0.56295174902E+02  0.00000000000E+00 0.  1.
         25    2    1    2    0    0 -0.59162967427E+02 -0.14001562719E+02  0.84584568049E+02  0.16278303212E+03  0.12508983140E+03 0.  0.
         23    2    1    2    0    0  0.59162967427E+02  0.14001562719E+02  0.15779109170E+03  0.19218297743E+03  0.91323423730E+02 0.  0.
          5    1    3    3  502    0  0.56316275018E+01 -0.34675261359E+02 -0.17950305437E+02  0.39670831147E+02  0.41800000000E+01 0.  1.
         -5    1    3    3    0  502 -0.64794594928E+02  0.20673698640E+02  0.10253487349E+03  0.12311220097E+03  0.41800000000E+01 0.  1.
        -11    1    4    4    0    0 -0.23244815672E+02  0.16289189233E+01  0.18022871933E+02  0.29458424011E+02  0.00000000000E+00 0.  1.
         11    1    4    4    0    0  0.82407783099E+02  0.12372643796E+02  0.13976821976E+03  0.16272455342E+03  0.00000000000E+00 0. -1.
</event>
<event>
 8    1  0.7192024E-009  0.1336151E+03  0.7561462E-02  0.1222188E+00
          2   -1    0    0  501    0  0.00000000000E+00  0.00000000000E+00  0.16208262406E+03  0.16208262406E+03  0.00000000000E+00 0. -1.
         -2   -1    0    0    0  501 -0.00000000000E+00 -0.00000000000E+00 -0.33329796100E+03  0.33329796100E+03  0.00000000000E+00 0.  1.
         25    2    1    2    0    0  0.10560758357E+03 -0.22306841879E+02 -0.27481139968E+03  0.32065615673E+03  0.12509399887E+03 0.  0.
         23    2    1    2    0    0 -0.10560758357E+03  0.22306841879E+02  0.10359606275E+03  0.17472442833E+03  0.90254776797E+02 0.  0.
          5    1    3    3  502    0  0.48486085142E+02  0.44760717578E+02 -0.17703691658E+03  0.18898138671E+03  0.41800000000E+01 0.  1.
         -5    1    3    3    0  502  0.57121498433E+02 -0.67067559457E+02 -0.97774483101E+02  0.13167477002E+03  0.41800000000E+01 0.  1.
        -11    1    4    4    0    0 -0.21659637908E+02 -0.88134595509E+01  0.78258600508E+02  0.81677570587E+02  0.00000000000E+00 0. -1.
         11    1    4    4    0    0 -0.83947945666E+02  0.31120301430E+02  0.25337462240E+02  0.93046857741E+02  0.00000000000E+00 0.  1.
</event>
<event>
 8    1  0.7192024E-009  0.1324045E+03  0.7561462E-02  0.1223931E+00
          2   -1    0    0  501    0  0.00000000000E+00  0.00000000000E+00  0.57046683368E+03  0.57046683368E+03  0.00000000000E+00 0.  1.
         -2   -1    0    0    0  501 -0.00000000000E+00 -0.00000000000E+00 -0.34239713367E+02  0.34239713367E+02  0.00000000000E+00 0. -1.
         25    2    1    2    0    0  0.17638632508E+02 -0.84799975139E+02  0.32176770013E+03  0.35592807309E+03  0.12509269853E+03 0.  0.
         23    2    1    2    0    0 -0.17638632508E+02  0.84799975139E+02  0.21445942018E+03  0.24877847396E+03  0.91628211049E+02 0.  0.
          5    1    3    3  502    0 -0.29127290685E+02 -0.98677613785E+02  0.20895852751E+03  0.23295237527E+03  0.41800000000E+01 0. -1.
         -5    1    3    3    0  502  0.46765923194E+02  0.13877638646E+02  0.11280917263E+03  0.12297569783E+03  0.41800000000E+01 0. -1.
        -11    1    4    4    0    0 -0.43336827169E+02  0.72316161879E+02  0.19938278325E+03  0.21647448375E+03  0.00000000000E+00 0.  1.
         11    1    4    4    0    0  0.25698194660E+02  0.12483813260E+02  0.15076636934E+02  0.32303990211E+02  0.00000000000E+00 0. -1.
</event>
<event>
 8    1  0.7192024E-009  0.1808944E+03  0.7561462E-02  0.1166940E+00
         -1   -1    0    0    0  501 -0.00000000000E+00  0.00000000000E+00  0.11381487414E+03  0.11381487414E+03  0.00000000000E+00 0.  1.
          1   -1    0    0  501    0  0.00000000000E+00 -0.00000000000E+00 -0.32311798213E+03  0.32311798213E+03  0.00000000000E+00 0. -1.
         25    2    1    2    0    0  0.15004824048E+03 -0.76452584010E+01 -0.16305220538E+03  0.25457099992E+03  0.12508975927E+03 0.  0.
         23    2    1    2    0    0 -0.15004824048E+03  0.76452584010E+01 -0.46250902611E+02  0.18236185635E+03  0.92432549538E+02 0.  0.
          5    1    3    3  502    0  0.85395915350E+02 -0.60070987764E+02 -0.54910220393E+02  0.11804063128E+03  0.41800000000E+01 0. -1.
         -5    1    3    3    0  502  0.64652325127E+02  0.52425729363E+02 -0.10814198498E+03  0.13653036864E+03  0.41800000000E+01 0. -1.
        -11    1    4    4    0    0 -0.33158013526E+01 -0.23684746566E+02  0.37539841067E+01  0.24208555413E+02  0.00000000000E+00 0.  1.
         11    1    4    4    0    0 -0.14673243912E+03  0.31330004967E+02 -0.50004886717E+02  0.15815330094E+03  0.00000000000E+00 0. -1.
</event>
<event>
 8    1  0.7192024E-009  0.1817083E+03  0.7561462E-02  0.1166160E+00
          1   -1    0    0  501    0  0.00000000000E+00  0.00000000000E+00  0.21869918519E+03  0.21869918519E+03  0.00000000000E+00 0. -1.
         -1   -1    0    0    0  501 -0.00000000000E+00 -0.00000000000E+00 -0.16540876592E+03  0.16540876592E+03  0.00000000000E+00 0.  1.
         25    2    1    2    0    0  0.87219291711E+02  0.13100545879E+03  0.33605503232E+02  0.20383094645E+03  0.12509232512E+03 0.  0.
         23    2    1    2    0    0 -0.87219291711E+02 -0.13100545879E+03  0.19684916033E+02  0.18027700466E+03  0.85689365780E+02 0.  0.
          5    1    3    3  502    0  0.11367342755E+03  0.72374577595E+02  0.10025738872E+02  0.13519510144E+03  0.41800000000E+01 0.  1.
         -5    1    3    3    0  502 -0.26454135842E+02  0.58630881199E+02  0.23579764360E+02  0.68635845013E+02  0.41800000000E+01 0.  1.
        -11    1    4    4    0    0 -0.30846161571E+02 -0.13229933982E+02 -0.25453045758E+02  0.42123323411E+02  0.00000000000E+00 0.  1.
         11    1    4    4    0    0 -0.56373130140E+02 -0.11777552481E+03  0.45137961791E+02  0.13815368124E+03  0.00000000000E+00 0. -1.
</event>
<event>
 8    1  0.7192024E-009  0.1755450E+03  0.7561462E-02  0.1172186E+00
          1   -1    0    0  501    0  0.00000000000E+00  0.00000000000E+00  0.80430092974E+03  0.80430092974E+03  0.00000000000E+00 0.  1.
         -1   -1    0    0    0  501 -0.00000000000E+00 -0.00000000000E+00 -0.59392153649E+02  0.59392153649E+02  0.00000000000E+00 0. -1.
         25    2    1    2    0    0 -0.14616901662E+03 -0.58337171780E+02  0.17920668040E+03  0.26931586891E+03  0.12508955160E+03 0.  0.
         23    2    1    2    0    0  0.14616901662E+03  0.58337171780E+02  0.56570209569E+03  0.59437721447E+03  0.92178115534E+02 0.  0.
          5    1    3    3  502    0 -0.17962872302E+02 -0.50497219935E+02  0.11212760707E+03  0.12434913217E+03  0.41800000000E+01 0. -1.
         -5    1    3    3    0  502 -0.12820614432E+03 -0.78399518452E+01  0.67079073322E+02  0.14496673675E+03  0.41800000000E+01 0. -1.
        -11    1    4    4    0    0  0.36532761244E+02  0.45620303760E+02  0.31615375255E+03  0.32151057527E+03  0.00000000000E+00 0.  1.
         11    1    4    4    0    0  0.10963625537E+03  0.12716868020E+02  0.24954834314E+03  0.27286663920E+03  0.00000000000E+00 0. -1.
</event>
<event>
 8    1  0.7192024E-009  0.7979827E+02  0.7561462E-02  0.1329625E+00
          2   -1    0    0  501    0  0.00000000000E+00  0.00000000000E+00  0.41212077236E+02  0.41212077236E+02  0.00000000000E+00 0. -1.
         -2   -1    0    0    0  501 -0.00000000000E+00 -0.00000000000E+00 -0.35360576722E+03  0.35360576722E+03  0.00000000000E+00 0.  1.
         25    2    1    2    0    0  0.29522540325E+01 -0.48441186593E+02 -0.21633172065E+03  0.25456232443E+03  0.12508916539E+03 0.  0.
         23    2    1    2    0    0 -0.29522540325E+01  0.48441186593E+02 -0.96061969330E+02  0.14025552002E+03  0.89935780328E+02 0.  0.
          5    1    3    3  502    0  0.12227268791E+02 -0.19319156919E+01 -0.20526975497E+03  0.20568515529E+03  0.41800000000E+01 0. -1.
         -5    1    3    3    0  502 -0.92750147587E+01 -0.46509270901E+02 -0.11061965680E+02  0.48877169141E+02  0.41800000000E+01 0. -1.
        -11    1    4    4    0    0  0.41506042405E+02  0.19376670645E+02 -0.62265019117E+02  0.77299026689E+02  0.00000000000E+00 0.  1.
         11    1    4    4    0    0 -0.44458296437E+02  0.29064515947E+02 -0.33796950213E+02  0.62956493335E+02  0.00000000000E+00 0. -1.
</event>
<event>
 8    1  0.7192024E-009  0.1102477E+03  0.7561462E-02  0.1260112E+00
          2   -1    0    0  501    0  0.00000000000E+00  0.00000000000E+00  0.31160854434E+03  0.31160854434E+03  0.00000000000E+00 0. -1.
         -2   -1    0    0    0  501 -0.00000000000E+00 -0.00000000000E+00 -0.78939946668E+02  0.78939946668E+02  0.00000000000E+00 0.  1.
         25    2    1    2    0    0 -0.27403909193E+02 -0.21345090337E+02 -0.83752412035E+01  0.13008091623E+03  0.12507722807E+03 0.  0.
         23    2    1    2    0    0  0.27403909193E+02  0.21345090337E+02  0.24104383887E+03  0.26046757477E+03  0.92383105213E+02 0.  0.
          5    1    3    3  502    0  0.42465966935E+02  0.18984956028E+02  0.87161959359E+01  0.47510329137E+02  0.41800000000E+01 0.  1.
         -5    1    3    3    0  502 -0.69869876128E+02 -0.40330046366E+02 -0.17091437139E+02  0.82570587096E+02  0.41800000000E+01 0.  1.
        -11    1    4    4    0    0 -0.25879065816E+02 -0.13653309792E+02  0.40005692113E+02  0.49564042583E+02  0.00000000000E+00 0.  1.
         11    1    4    4    0    0  0.53282975008E+02  0.34998400129E+02  0.20103814676E+03  0.21090353219E+03  0.00000000000E+00 0. -1.
</event>
<event>
 8    1  0.7192024E-009  0.7868438E+02  0.7561462E-02  0.1332827E+00
          2   -1    0    0  501    0  0.00000000000E+00  0.00000000000E+00  0.19863923956E+03  0.19863923956E+03  0.00000000000E+00 0. -1.
         -2   -1    0    0    0  501 -0.00000000000E+00 -0.00000000000E+00 -0.72831397604E+02  0.72831397604E+02  0.00000000000E+00 0.  1.
         25    2    1    2    0    0 -0.50720083284E+01 -0.20531502520E+02  0.11949103127E+03  0.17427765489E+03  0.12508927443E+03 0.  0.
         23    2    1    2    0    0  0.50720083284E+01  0.20531502520E+02  0.63168106875E+01  0.97192982271E+02  0.94653609764E+02 0.  0.
          5    1    3    3  502    0 -0.36050781775E+02 -0.42453853686E+02  0.12383821773E+03  0.13585052495E+03  0.41800000000E+01 0.  1.
         -5    1    3    3    0  502  0.30978773446E+02  0.21922351166E+02 -0.43471864657E+01  0.38427129935E+02  0.41800000000E+01 0.  1.
        -11    1    4    4    0    0  0.32467903346E+02  0.12451172773E+02  0.40018435310E+02  0.53015767615E+02  0.00000000000E+00 0. -1.
         11    1    4    4    0    0 -0.27395895017E+02  0.80803297472E+01 -0.33701624623E+02  0.44177214657E+02  0.00000000000E+00 0.  1.
</event>
<event>
 8    1  0.7192024E-009  0.1541514E+03  0.7561462E-02  0.1195463E+00
          2   -1    0    0  501    0  0.00000000000E+00  0.00000000000E+00  0.28447733377E+03  0.28447733377E+03  0.00000000000E+00 0. -1.
         -2   -1    0    0    0  501 -0.00000000000E+00 -0.00000000000E+00 -0.13821609272E+03  0.13821609272E+03  0.00000000000E+00 0.  1.
         25    2    1    2    0    0 -0.12384321713E+03  0.62079449940E+02  0.17258571362E+03  0.25421447376E+03  0.12509264402E+03 0.  0.
         23    2    1    2    0    0  0.12384321713E+03 -0.62079449940E+02 -0.26324472573E+02  0.16847895272E+03  0.92201839034E+02 0.  0.
          5    1    3    3  502    0  0.15342849322E+02  0.15511357453E+02 -0.60076485305E+01  0.23012376588E+02  0.41800000000E+01 0.  1.
         -5    1    3    3    0  502 -0.13918606645E+03  0.46568092487E+02  0.17859336215E+03  0.23120209717E+03  0.41800000000E+01 0.  1.
        -11    1    4    4    0    0  0.27912904505E+02 -0.75589646989E+01 -0.47991565066E+02  0.56030870979E+02  0.00000000000E+00 0.  1.
         11    1    4    4    0    0  0.95930312624E+02 -0.54520485241E+02  0.21667092493E+02  0.11244808175E+03  0.00000000000E+00 0. -1.
</event>
<event>
 8    1  0.7192024E-009  0.1199658E+03  0.7561462E-02  0.1243153E+00
          2   -1    0    0  501    0  0.00000000000E+00  0.00000000000E+00  0.33222146381E+03  0.33222146381E+03  0.00000000000E+00 0. -1.
         -2   -1    0    0    0  501 -0.00000000000E+00 -0.00000000000E+00 -0.44301582279E+02  0.44301582279E+02  0.00000000000E+00 0.  1.
         25    2    1    2    0    0 -0.50703329622E+02 -0.86488141861E+01  0.17315617347E+03  0.21972336500E+03  0.12509862948E+03 0.  0.
         23    2    1    2    0    0  0.50703329622E+02  0.86488141861E+01  0.11476370806E+03  0.15679968108E+03  0.93647219275E+02 0.  0.
          5    1    3    3  502    0 -0.63810131821E+02 -0.56576524655E+02  0.10773730389E+03  0.13746794214E+03  0.41800000000E+01 0. -1.
         -5    1    3    3    0  502  0.13106802199E+02  0.47927710469E+02  0.65418869571E+02  0.82255422864E+02  0.41800000000E+01 0. -1.
        -11    1    4    4    0    0  0.76183107868E+02 -0.39025753165E+01  0.96587973945E+02  0.12307856324E+03  0.00000000000E+00 0. -1.
         11    1    4    4    0    0 -0.25479778245E+02  0.12551389503E+02  0.18175734117E+02  0.33721117843E+02  0.00000000000E+00 0.  1.
</event>
<event>
 8    1  0.7192024E-009  0.9904070E+02  0.7561462E-02  0.1282326E+00
          2   -1    0    0  501    0  0.00000000000E+00  0.00000000000E+00  0.92529095666E+02  0.92529095666E+02  0.00000000000E+00 0. -1.
         -2   -1    0    0    0  501 -0.00000000000E+00 -0.00000000000E+00 -0.17381326158E+03  0.17381326158E+03  0.00000000000E+00 0.  1.
         25    2    1    2    0    0 -0.28000351270E+02  0.55846656332E+02 -0.40502709125E+02  0.14556949999E+03  0.12508853340E+03 0.  0.
         23    2    1    2    0    0  0.28000351270E+02 -0.55846656332E+02 -0.40781456793E+02  0.12077285726E+03  0.94974139307E+02 0.  0.
          5    1    3    3  502    0 -0.27501701278E+02 -0.27561277576E+02  0.18506024038E+02  0.43311810404E+02  0.41800000000E+01 0.  1.
         -5    1    3    3    0  502 -0.49864999184E+00  0.83407933908E+02 -0.59008733164E+02  0.10225768959E+03  0.41800000000E+01 0.  1.
        -11    1    4    4    0    0  0.21577727646E+01 -0.48491167314E+02 -0.67328683368E+02  0.83001210201E+02  0.00000000000E+00 0.  1.
         11    1    4    4    0    0  0.25842578505E+02 -0.73554890184E+01  0.26547226575E+02  0.37771647056E+02  0.00000000000E+00 0. -1.
</event>
<event>
 8    1  0.7192024E-009  0.1109206E+03  0.7561462E-02  0.1258874E+00
          2   -1    0    0  501    0  0.00000000000E+00  0.00000000000E+00  0.94053562234E+03  0.94053562234E+03  0.00000000000E+00 0. -1.
         -2   -1    0    0    0  501 -0.00000000000E+00 -0.00000000000E+00 -0.43384844895E+02  0.43384844895E+02  0.00000000000E+00 0.  1.
         25    2    1    2    0    0 -0.32348345912E+01 -0.41254223571E+02  0.87235423151E+03  0.88224823715E+03  0.12509065353E+03 0.  0.
         23    2    1    2    0    0  0.32348345912E+01  0.41254223571E+02  0.24796545937E+02  0.10167223009E+03  0.89498595317E+02 0.  0.
          5    1    3    3  502    0 -0.14950823557E+01  0.44917874195E+02  0.32991276898E+03  0.33298612318E+03  0.41800000000E+01 0. -1.
         -5    1    3    3    0  502 -0.17397522356E+01 -0.86172097766E+02  0.54244146253E+03  0.54926211397E+03  0.41800000000E+01 0. -1.
        -11    1    4    4    0    0 -0.15377762323E+02 -0.20664203603E+02  0.26551798899E+02  0.36993011629E+02  0.00000000000E+00 0. -1.
         11    1    4    4    0    0  0.18612596914E+02  0.61918427174E+02 -0.17552529623E+01  0.64679218460E+02  0.00000000000E+00 0.  1.
</event>
<event>
 8    1  0.7192024E-009  0.1011368E+03  0.7561462E-02  0.1277923E+00
         -4   -1    0    0    0  501 -0.00000000000E+00  0.00000000000E+00  0.86490430818E+02  0.86490430818E+02  0.00000000000E+00 0.  1.
          4   -1    0    0  501    0  0.00000000000E+00 -0.00000000000E+00 -0.16974876046E+03  0.16974876046E+03  0.00000000000E+00 0. -1.
         25    2    1    2    0    0  0.49088077511E+02 -0.19557107192E+02 -0.53932650365E+02  0.14611087385E+03  0.12509011507E+03 0.  0.
         23    2    1    2    0    0 -0.49088077511E+02  0.19557107192E+02 -0.29325679279E+02  0.11012831742E+03  0.92065905948E+02 0.  0.
          5    1    3    3  502    0  0.16137611435E+02 -0.57152979259E+02 -0.71424183105E+02  0.92982642860E+02  0.41800000000E+01 0. -1.
         -5    1    3    3    0  502  0.32950466075E+02  0.37595872067E+02  0.17491532740E+02  0.53128230995E+02  0.41800000000E+01 0. -1.
        -11    1    4    4    0    0 -0.29261358757E+02  0.49002614284E+02 -0.43646041883E+02  0.71850263012E+02  0.00000000000E+00 0. -1.
         11    1    4    4    0    0 -0.19826718754E+02 -0.29445507092E+02  0.14320362604E+02  0.38278054412E+02  0.00000000000E+00 0.  1.
</event>
<event>
 8    1  0.7192024E-009  0.9739114E+02  0.7561462E-02  0.1285880E+00
          1   -1    0    0  501    0  0.00000000000E+00  0.00000000000E+00  0.15751749188E+03  0.15751749188E+03  0.00000000000E+00 0. -1.
         -1   -1    0    0    0  501 -0.00000000000E+00 -0.00000000000E+00 -0.13306407552E+03  0.13306407552E+03  0.00000000000E+00 0.  1.
         25    2    1    2    0    0  0.38694629595E+02 -0.73041833645E+02  0.62471863995E+02  0.16243208915E+03  0.12509622685E+03 0.  0.
         23    2    1    2    0    0 -0.38694629595E+02  0.73041833645E+02 -0.38018447639E+02  0.12814947825E+03  0.90246897974E+02 0.  0.
          5    1    3    3  502    0 -0.22450494765E+02 -0.24507544951E+02  0.76034533817E+02  0.83086504365E+02  0.41800000000E+01 0. -1.
         -5    1    3    3    0  502  0.61145124360E+02 -0.48534288694E+02 -0.13562669823E+02  0.79345584785E+02  0.41800000000E+01 0. -1.
        -11    1    4    4    0    0 -0.25573553358E+02  0.39140971240E+02 -0.66971053071E+02  0.81677072735E+02  0.00000000000E+00 0.  1.
         11    1    4    4    0    0 -0.13121076237E+02  0.33900862405E+02  0.28952605432E+02  0.46472405519E+02  0.00000000000E+00 0. -1.
</event>
<event>
 8    1  0.7192024E-009  0.7384192E+02  0.7561462E-02  0.1347495E+00
         -3   -1    0    0    0  501 -0.00000000000E+00  0.00000000000E+00  0.14436467938E+03  0.14436467938E+03  0.00000000000E+00 0.  1.
          3   -1    0    0  501    0  0.00000000000E+00 -0.00000000000E+00 -0.95975795005E+02  0.95975795005E+02  0.00000000000E+00 0. -1.
         25    2    1    2    0    0 -0.35993927530E+02  0.23280834000E+02  0.25553043851E+02  0.13467755030E+03  0.12509006537E+03 0.  0.
         23    2    1    2    0    0  0.35993927530E+02 -0.23280834000E+02  0.22835840521E+02  0.10566292408E+03  0.93838253723E+02 0.  0.
          5    1    3    3  502    0 -0.27016347586E+02 -0.21963361293E+02  0.64989580222E+02  0.73847073155E+02  0.41800000000E+01 0.  1.
         -5    1    3    3    0  502 -0.89775799438E+01  0.45244195292E+02 -0.39436536370E+02  0.60830477149E+02  0.41800000000E+01 0.  1.
        -11    1    4    4    0    0  0.35768630528E+02 -0.37648870052E+02  0.51788194944E+02  0.73340640041E+02  0.00000000000E+00 0.  1.
         11    1    4    4    0    0  0.22529700177E+00  0.14368036052E+02 -0.28952354424E+02  0.32322284038E+02  0.00000000000E+00 0. -1.
</event>
<event>
 8    1  0.7192024E-009  0.1496586E+03  0.7561462E-02  0.1200893E+00
         -1   -1    0    0    0  501 -0.00000000000E+00  0.00000000000E+00  0.63996728370E+02  0.63996728370E+02  0.00000000000E+00 0.  1.
          1   -1    0    0  501    0  0.00000000000E+00 -0.00000000000E+00 -0.45298751415E+03  0.45298751415E+03  0.00000000000E+00 0. -1.
         25    2    1    2    0    0 -0.85809905673E+02 -0.91324202438E+02 -0.15142989792E+03  0.23298035787E+03  0.12508150664E+03 0.  0.
         23    2    1    2    0    0  0.85809905673E+02  0.91324202438E+02 -0.23756088786E+03  0.28400388465E+03  0.92301577431E+02 0.  0.
          5    1    3    3  502    0  0.16790577512E+02 -0.22481856485E+02  0.96158831185E+01  0.29954882279E+02  0.41800000000E+01 0.  1.
         -5    1    3    3    0  502 -0.10260048319E+03 -0.68842345953E+02 -0.16104578104E+03  0.20302547559E+03  0.41800000000E+01 0.  1.
        -11    1    4    4    0    0 -0.12694949682E+02  0.26545130696E+02 -0.92546854889E+02  0.97111925431E+02  0.00000000000E+00 0. -1.
         11    1    4    4    0    0  0.98504855355E+02  0.64779071741E+02 -0.14501403297E+03  0.18689195922E+03  0.00000000000E+00 0.  1.
</event>
<event>
 8    1  0.7192024E-009  0.1030549E+03  0.7561462E-02  0.1274000E+00
          2   -1    0    0  501    0  0.00000000000E+00  0.00000000000E+00  0.34467205961E+03  0.34467205961E+03  0.00000000000E+00 0. -1.
         -2   -1    0    0    0  501 -0.00000000000E+00 -0.00000000000E+00 -0.42881276056E+02  0.42881276056E+02  0.00000000000E+00 0.  1.
         25    2    1    2    0    0  0.42385059505E+01  0.37713264835E+02  0.11161243339E+03  0.17188283641E+03  0.12508444703E+03 0.  0.
         23    2    1    2    0    0 -0.42385059505E+01 -0.37713264835E+02  0.19017835017E+03  0.21567049926E+03  0.94370038146E+02 0.  0.
          5    1    3    3  502    0  0.58546337630E+02  0.38172529894E+02  0.36101207300E+02  0.78775537173E+02  0.41800000000E+01 0. -1.
         -5    1    3    3    0  502 -0.54307831680E+02 -0.45926505904E+00  0.75511226090E+02  0.93107299240E+02  0.41800000000E+01 0. -1.
        -11    1    4    4    0    0 -0.37815876377E+00 -0.59497861139E+02  0.18297122661E+03  0.19240220438E+03  0.00000000000E+00 0. -1.
         11    1    4    4    0    0 -0.38603471867E+01  0.21784596303E+02  0.72071235631E+01  0.23268294878E+02  0.00000000000E+00 0.  1.
</event>
<event>
 8    1  0.7192024E-009  0.1402345E+03  0.7561462E-02  0.1213014E+00
         -1   -1    0    0    0  501 -0.00000000000E+00  0.00000000000E+00  0.24852242970E+02  0.24852242970E+02  0.00000000000E+00 0.  1.
          1   -1    0    0  501    0  0.00000000000E+00 -0.00000000000E+00 -0.96332811942E+03  0.96332811942E+03  0.00000000000E+00 0. -1.
         25    2    1    2    0    0 -0.68630803998E+02 -0.84889069734E+02 -0.45105269832E+03  0.48063639203E+03  0.12508582358E+03 0.  0.
         23    2    1    2    0    0  0.68630803998E+02  0.84889069734E+02 -0.48742317812E+03  0.50754397036E+03  0.90017697464E+02 0.  0.
          5    1    3    3  502    0  0.22115966074E+02  0.50547029174E+00 -0.19010463309E+03  0.19143305717E+03  0.41800000000E+01 0. -1.
         -5    1    3    3    0  502 -0.90746770072E+02 -0.85394540025E+02 -0.26094806524E+03  0.28920333486E+03  0.41800000000E+01 0. -1.
        -11    1    4    4    0    0  0.42894202729E+02  0.96074664886E+02 -0.44031076083E+03  0.45270721218E+03  0.00000000000E+00 0.  1.
         11    1    4    4    0    0  0.25736601269E+02 -0.11185595152E+02 -0.47112417295E+02  0.54836758176E+02  0.00000000000E+00 0. -1.
</event>
<event>
 8    1  0.7192024E-009  0.1666914E+03  0.7561462E-02  0.1181343E+00
          1   -1    0    0  501    0  0.00000000000E+00  0.00000000000E+00  0.44805379936E+03  0.44805379936E+03  0.00000000000E+00 0. -1.
         -1   -1    0    0    0  501 -0.00000000000E+00 -0.00000000000E+00 -0.77530812075E+02  0.77530812075E+02  0.00000000000E+00 0.  1.
         25    2    1    2    0    0 -0.92038714562E+02  0.11991324688E+03  0.20787090305E+03  0.28584479056E+03  0.12508645089E+03 0.  0.
         23    2    1    2    0    0  0.92038714562E+02 -0.11991324688E+03  0.16265208423E+03  0.23973982088E+03  0.90383457856E+02 0.  0.
          5    1    3    3  502    0  0.73579545681E+01  0.64425715525E+02  0.23452586244E+02  0.69081897179E+02  0.41800000000E+01 0.  1.
         -5    1    3    3    0  502 -0.99396669131E+02  0.55487531360E+02  0.18441831681E+03  0.21676289338E+03  0.41800000000E+01 0.  1.
        -11    1    4    4    0    0  0.73028805998E+02 -0.70326889674E+02  0.45528486508E+02  0.11113919651E+03  0.00000000000E+00 0.  1.
         11    1    4    4    0    0  0.19009908565E+02 -0.49586357210E+02  0.11712359773E+03  0.12860062437E+03  0.00000000000E+00 0. -1.
</event>
<event>
 8    1  0.7192024E-009  0.1561302E+03  0.7561462E-02  0.1193136E+00
         -2   -1    0    0    0  501 -0.00000000000E+00  0.00000000000E+00  0.47756804582E+02  0.47756804582E+02  0.00000000000E+00 0.  1.
          2   -1    0    0  501    0  0.00000000000E+00 -0.00000000000E+00 -0.59248222761E+03  0.59248222761E+03  0.00000000000E+00 0. -1.
         25    2    1    2    0    0  0.11031082808E+03 -0.38906528835E+02 -0.39244872340E+03  0.42818825402E+03  0.12508790351E+03 0.  0.
         23    2    1    2    0    0 -0.11031082808E+03  0.38906528835E+02 -0.15227669963E+03  0.21205077817E+03  0.89973009822E+02 0.  0.
          5    1    3    3  502    0  0.11122885353E+03 -0.74241346812E+02 -0.28166780851E+03  0.31182986096E+03  0.41800000000E+01 0.  1.
         -5    1    3    3    0  502 -0.91802544935E+00  0.35334817977E+02 -0.11078091489E+03  0.11635839307E+03  0.41800000000E+01 0.  1.
        -11    1    4    4    0    0 -0.72635003993E+01 -0.22002218249E+02 -0.47995520583E+02  0.53295647495E+02  0.00000000000E+00 0. -1.
         11    1    4    4    0    0 -0.10304732768E+03  0.60908747084E+02 -0.10428117904E+03  0.15875513068E+03  0.00000000000E+00 0.  1.
</event>
<event>
 8    1  0.7192024E-009  0.1064979E+03  0.7561462E-02  0.1267196E+00
         -3   -1    0    0    0  501 -0.00000000000E+00  0.00000000000E+00  0.46002040869E+02  0.46002040869E+02  0.00000000000E+00 0.  1.
          3   -1    0    0  501    0  0.00000000000E+00 -0.00000000000E+00 -0.28098817186E+03  0.28098817186E+03  0.00000000000E+00 0. -1.
         25    2    1    2    0    0 -0.71643401650E+01 -0.21133466078E+02 -0.98325576844E+02  0.16066565190E+03  0.12509029331E+03 0.  0.
         23    2    1    2    0    0  0.71643401650E+01  0.21133466078E+02 -0.13666055414E+03  0.16632456083E+03  0.92140117846E+02 0.  0.
          5    1    3    3  502    0  0.41364237376E+02 -0.47263596019E+02 -0.22533088622E+02  0.66858508248E+02  0.41800000000E+01 0.  1.
         -5    1    3    3    0  502 -0.48528577541E+02  0.26130129942E+02 -0.75792488222E+02  0.93807143650E+02  0.41800000000E+01 0.  1.
        -11    1    4    4    0    0 -0.21843660821E+02 -0.29328234907E+02 -0.54762210126E+02  0.65849757317E+02  0.00000000000E+00 0.  1.
         11    1    4    4    0    0  0.29008000986E+02  0.50461700984E+02 -0.81898344017E+02  0.10047480351E+03  0.00000000000E+00 0. -1.
</event>
<event>
 8    1  0.7192024E-009  0.1039629E+03  0.7561462E-02  0.1272177E+00
         -1   -1    0    0    0  501 -0.00000000000E+00  0.00000000000E+00  0.39945217722E+03  0.39945217722E+03  0.00000000000E+00 0.  1.
          1   -1    0    0  501    0  0.00000000000E+00 -0.00000000000E+00 -0.39209508237E+02  0.39209508237E+02  0.00000000000E+00 0. -1.
         25    2    1    2    0    0  0.25753697372E+02 -0.63463371662E+02  0.19268182173E+03  0.23971690506E+03  0.12508819959E+03 0.  0.
         23    2    1    2    0    0 -0.25753697372E+02  0.63463371662E+02  0.16756084725E+03  0.19894478040E+03  0.82532027986E+02 0.  0.
          5    1    3    3  502    0 -0.38174716762E+02  0.25194980999E+01  0.18399565771E+02  0.42657628756E+02  0.41800000000E+01 0. -1.
         -5    1    3    3    0  502  0.63928414134E+02 -0.65982869762E+02  0.17428225596E+03  0.19705927630E+03  0.41800000000E+01 0. -1.
        -11    1    4    4    0    0 -0.29707378207E+02  0.25057799060E+02  0.15138141825E+02  0.41708331921E+02  0.00000000000E+00 0. -1.
         11    1    4    4    0    0  0.39536808356E+01  0.38405572602E+02  0.15242270543E+03  0.15723644848E+03  0.00000000000E+00 0.  1.
</event>
<event>
 8    1  0.7192024E-009  0.1066642E+03  0.7561462E-02  0.1266875E+00
         -1   -1    0    0    0  501 -0.00000000000E+00  0.00000000000E+00  0.26880975338E+02  0.26880975338E+02  0.00000000000E+00 0.  1.
          1   -1    0    0  501    0  0.00000000000E+00 -0.00000000000E+00 -0.13556909928E+04  0.13556909928E+04  0.00000000000E+00 0. -1.
         25    2    1    2    0    0 -0.77820521781E+02  0.28544774367E+02 -0.11792777165E+04  0.11887875306E+04  0.12509605335E+03 0.  0.
         23    2    1    2    0    0  0.77820521781E+02 -0.28544774367E+02 -0.14953230099E+03  0.19378443755E+03  0.91223140941E+02 0.  0.
          5    1    3    3  502    0  0.11173862466E+01  0.19888227145E+02 -0.84261107094E+03  0.84285685582E+03  0.41800000000E+01 0.  1.
         -5    1    3    3    0  502 -0.78937908027E+02  0.86565472224E+01 -0.33666664555E+03  0.34593067479E+03  0.41800000000E+01 0.  1.
        -11    1    4    4    0    0  0.37745383824E+02 -0.54069062423E+02 -0.47611445033E+02  0.81332817543E+02  0.00000000000E+00 0.  1.
         11    1    4    4    0    0  0.40075137956E+02  0.25524288057E+02 -0.10192085596E+03  0.11245162001E+03  0.00000000000E+00 0. -1.
</event>
<event>
 8    1  0.7192024E-009  0.7813158E+02  0.7561462E-02  0.1334439E+00
          1   -1    0    0  501    0  0.00000000000E+00  0.00000000000E+00  0.89343465102E+02  0.89343465102E+02  0.00000000000E+00 0. -1.
         -1   -1    0    0    0  501 -0.00000000000E+00 -0.00000000000E+00 -0.14163271643E+03  0.14163271643E+03  0.00000000000E+00 0.  1.
         25    2    1    2    0    0  0.23478329636E+01  0.26979655347E+02 -0.45807629553E+02  0.13593787798E+03  0.12508938253E+03 0.  0.
         23    2    1    2    0    0 -0.23478329636E+01 -0.26979655347E+02 -0.64816217803E+01  0.95038303557E+02  0.90867230616E+02 0.  0.
          5    1    3    3  502    0  0.14236161745E+02  0.45067676865E+02  0.30569933375E+02  0.56442510803E+02  0.41800000000E+01 0. -1.
         -5    1    3    3    0  502 -0.11888328782E+02 -0.18088021518E+02 -0.76377562928E+02  0.79495367176E+02  0.41800000000E+01 0. -1.
        -11    1    4    4    0    0  0.39589117489E+02 -0.65674385511E+01  0.16074164166E+02  0.43229714622E+02  0.00000000000E+00 0. -1.
         11    1    4    4    0    0 -0.41936950452E+02 -0.20412216795E+02 -0.22555785946E+02  0.51808588935E+02  0.00000000000E+00 0.  1.
</event>
<event>
 8    1  0.7192024E-009  0.6315824E+02  0.7561462E-02  0.1385036E+00
         -1   -1    0    0    0  501 -0.00000000000E+00  0.00000000000E+00  0.43348349142E+02  0.43348349142E+02  0.00000000000E+00 0.  1.
          1   -1    0    0  501    0  0.00000000000E+00 -0.00000000000E+00 -0.28470793287E+03  0.28470793287E+03  0.00000000000E+00 0. -1.
         25    2    1    2    0    0 -0.13385875676E+02 -0.13248772054E+02 -0.16791765355E+03  0.21023237375E+03  0.12508637404E+03 0.  0.
         23    2    1    2    0    0  0.13385875676E+02  0.13248772054E+02 -0.73441930178E+02  0.11782390826E+03  0.90188938463E+02 0.  0.
          5    1    3    3  502    0  0.20297385796E+02 -0.11608313174E+02  0.12362480197E+02  0.26777604851E+02  0.41800000000E+01 0.  1.
         -5    1    3    3    0  502 -0.33683261472E+02 -0.16404588792E+01 -0.18028013375E+03  0.18345476890E+03  0.41800000000E+01 0.  1.
        -11    1    4    4    0    0 -0.26896224983E+02  0.33712095256E+01 -0.71316224656E+02  0.76294009406E+02  0.00000000000E+00 0. -1.
         11    1    4    4    0    0  0.40282100659E+02  0.98775625280E+01 -0.21257055217E+01  0.41529898855E+02  0.00000000000E+00 0.  1.
</event>
<event>
 8    1  0.7192024E-009  0.2989248E+03  0.7561462E-02  0.1085779E+00
          1   -1    0    0  501    0  0.00000000000E+00  0.00000000000E+00  0.50628408395E+03  0.50628408395E+03  0.00000000000E+00 0. -1.
         -1   -1    0    0    0  501 -0.00000000000E+00 -0.00000000000E+00 -0.19049045294E+03  0.19049045294E+03  0.00000000000E+00 0.  1.
         25    2    1    2    0    0  0.63232903137E+02 -0.27510364753E+03  0.23902983937E+03  0.39046553609E+03  0.12509058252E+03 0.  0.
         23    2    1    2    0    0 -0.63232903137E+02  0.27510364753E+03  0.76763791635E+02  0.30630900081E+03  0.90841110433E+02 0.  0.
          5    1    3    3  502    0  0.94933196700E+02 -0.14407138564E+03  0.11636958427E+03  0.20815433826E+03  0.41800000000E+01 0.  1.
         -5    1    3    3    0  502 -0.31700293563E+02 -0.13103226190E+03  0.12266025510E+03  0.18231119782E+03  0.41800000000E+01 0.  1.
        -11    1    4    4    0    0 -0.53688239438E+01  0.17254968968E+03  0.14847022535E+02  0.17327046418E+03  0.00000000000E+00 0.  1.
         11    1    4    4    0    0 -0.57864079193E+02  0.10255395785E+03  0.61916769100E+02  0.13303853663E+03  0.00000000000E+00 0. -1.
</event>
<event>
 8    1  0.7192024E-009  0.1604656E+03  0.7561462E-02  0.1188172E+00
          2   -1    0    0  501    0  0.00000000000E+00  0.00000000000E+00  0.90315483615E+03  0.90315483615E+03  0.00000000000E+00 0. -1.
         -2   -1    0    0    0  501 -0.00000000000E+00 -0.00000000000E+00 -0.37784369888E+02  0.37784369888E+02  0.00000000000E+00 0.  1.
         25    2    1    2    0    0 -0.14468927210E+02 -0.11606301260E+03  0.22362802503E+03  0.28166906430E+03  0.12509194801E+03 0.  0.
         23    2    1    2    0    0  0.14468927210E+02  0.11606301260E+03  0.64174244123E+03  0.65927014173E+03  0.95518512122E+02 0.  0.
          5    1    3    3  502    0  0.32365933634E+02  0.11520465409E+02  0.55946927603E+02  0.65786061529E+02  0.41800000000E+01 0.  1.
         -5    1    3    3    0  502 -0.46834860844E+02 -0.12758347801E+03  0.16768109743E+03  0.21588300278E+03  0.41800000000E+01 0.  1.
        -11    1    4    4    0    0  0.32006494781E+02 -0.95951253971E+00  0.16351966770E+03  0.16662538251E+03  0.00000000000E+00 0.  1.
         11    1    4    4    0    0 -0.17537567572E+02  0.11702252514E+03  0.47822277353E+03  0.49264475922E+03  0.00000000000E+00 0. -1.
</event>
<event>
 8    1  0.7192024E-009  0.1624621E+03  0.7561462E-02  0.1185945E+00
          2   -1    0    0  501    0  0.00000000000E+00  0.00000000000E+00  0.95996971626E+03  0.95996971626E+03  0.00000000000E+00 0. -1.
         -2   -1    0    0    0  501 -0.00000000000E+00 -0.00000000000E+00 -0.39033647432E+02  0.39033647432E+02  0.00000000000E+00 0.  1.
         25    2    1    2    0    0 -0.15549183003E+03 -0.27524527653E+02  0.55266254209E+03  0.58823312142E+03  0.12508801250E+03 0.  0.
         23    2    1    2    0    0  0.15549183003E+03  0.27524527653E+02  0.36827352674E+03  0.41077024228E+03  0.90396308637E+02 0.  0.
          5    1    3    3  502    0 -0.24631261631E+02 -0.49412477847E+01  0.31440977310E+03  0.31543952321E+03  0.41800000000E+01 0.  1.
         -5    1    3    3    0  502 -0.13086056840E+03 -0.22583279868E+02  0.23825276899E+03  0.27279359821E+03  0.41800000000E+01 0.  1.
        -11    1    4    4    0    0  0.65351402865E+02  0.38406135080E+02  0.87941924226E+02  0.11610176185E+03  0.00000000000E+00 0.  1.
         11    1    4    4    0    0  0.90140427169E+02 -0.10881607428E+02  0.28033160251E+03  0.29466848043E+03  0.00000000000E+00 0. -1.
</event>
<event>
 8    1  0.7192024E-009  0.1284310E+03  0.7561462E-02  0.1229803E+00
          2   -1    0    0  501    0  0.00000000000E+00  0.00000000000E+00  0.33809982945E+03  0.33809982945E+03  0.00000000000E+00 0. -1.
         -2   -1    0    0    0  501 -0.00000000000E+00 -0.00000000000E+00 -0.72127415938E+02  0.72127415938E+02  0.00000000000E+00 0.  1.
         25    2    1    2    0    0 -0.67902581749E+02  0.85837043589E+02  0.16778731299E+03  0.23617795932E+03  0.12509471374E+03 0.  0.
         23    2    1    2    0    0  0.67902581749E+02 -0.85837043589E+02  0.98185100518E+02  0.17404928607E+03  0.93134748389E+02 0.  0.
          5    1    3    3  502    0  0.56913025796E+01  0.57928596318E+02  0.91923692637E+01  0.59076943464E+02  0.41800000000E+01 0.  1.
         -5    1    3    3    0  502 -0.73593884328E+02  0.27908447272E+02  0.15859494373E+03  0.17710101585E+03  0.41800000000E+01 0.  1.
        -11    1    4    4    0    0  0.38825556281E+02 -0.12489407399E+02 -0.81977012468E+01  0.41600618065E+02  0.00000000000E+00 0.  1.
         11    1    4    4    0    0  0.29077025468E+02 -0.73347636190E+02  0.10638280176E+03  0.13244866800E+03  0.00000000000E+00 0. -1.
</event>
<event>
 8    1  0.7192024E-009  0.1060393E+03  0.7561462E-02  0.1268085E+00
         -1   -1    0    0    0  501 -0.00000000000E+00  0.00000000000E+00  0.24462758165E+03  0.24462758165E+03  0.00000000000E+00 0.  1.
          1   -1    0    0  501    0  0.00000000000E+00 -0.00000000000E+00 -0.68724420291E+02  0.68724420291E+02  0.00000000000E+00 0. -1.
         25    2    1    2    0    0  0.57201343161E+02  0.57612598685E+01  0.14796487782E+03  0.20210302795E+03  0.12508734174E+03 0.  0.
         23    2    1    2    0    0 -0.57201343161E+02 -0.57612598685E+01  0.27938283545E+02  0.11124897400E+03  0.91052736110E+02 0.  0.
          5    1    3    3  502    0  0.60471466321E+02  0.45473614228E+02  0.37402002115E+02  0.84504615212E+02  0.41800000000E+01 0.  1.
         -5    1    3    3    0  502 -0.32701231598E+01 -0.39712354359E+02  0.11056287570E+03  0.11759841274E+03  0.41800000000E+01 0.  1.
        -11    1    4    4    0    0  0.75319602835E+01 -0.27060483865E+02 -0.13841106398E+02  0.31314157166E+02  0.00000000000E+00 0. -1.
         11    1    4    4    0    0 -0.64733303444E+02  0.21299223996E+02  0.41779389943E+02  0.79934816830E+02  0.00000000000E+00 0.  1.
</event>
<event>
 8    1  0.7192024E-009  0.7324059E+02  0.7561462E-02  0.1349408E+00
          4   -1    0    0  501    0  0.00000000000E+00  0.00000000000E+00  0.91854516218E+02  0.91854516218E+02  0.00000000000E+00 0. -1.
         -4   -1    0    0    0  501 -0.00000000000E+00 -0.00000000000E+00 -0.15980578475E+03  0.15980578475E+03  0.00000000000E+00 0.  1.
         25    2    1    2    0    0  0.40025639230E+02 -0.71366402382E+01 -0.19666706267E+01  0.13154504370E+03  0.12508895754E+03 0.  0.
         23    2    1    2    0    0 -0.40025639230E+02  0.71366402382E+01 -0.65984597906E+02  0.12011525727E+03  0.91764505334E+02 0.  0.
          5    1    3    3  502    0  0.31704188030E+02  0.37067787038E+01  0.59924760067E+02  0.68024591260E+02  0.41800000000E+01 0. -1.
         -5    1    3    3    0  502  0.83214512004E+01 -0.10843418942E+02 -0.61891430694E+02  0.63520452436E+02  0.41800000000E+01 0. -1.
        -11    1    4    4    0    0 -0.62191828785E+02  0.29212789892E+02 -0.40451651037E+02  0.79734225603E+02  0.00000000000E+00 0. -1.
         11    1    4    4    0    0  0.22166189555E+02 -0.22076149654E+02 -0.25532946869E+02  0.40381031670E+02  0.00000000000E+00 0.  1.
</event>
<event>
 8    1  0.7192024E-009  0.1112774E+03  0.7561462E-02  0.1258222E+00
         -1   -1    0    0    0  501 -0.00000000000E+00  0.00000000000E+00  0.38259273691E+03  0.38259273691E+03  0.00000000000E+00 0.  1.
          1   -1    0    0  501    0  0.00000000000E+00 -0.00000000000E+00 -0.53407242906E+02  0.53407242906E+02  0.00000000000E+00 0. -1.
         25    2    1    2    0    0 -0.36138645095E+02 -0.84722404175E+02  0.17529772611E+03  0.23422269014E+03  0.12508832224E+03 0.  0.
         23    2    1    2    0    0  0.36138645095E+02  0.84722404175E+02  0.15388776790E+03  0.20177728967E+03  0.92459407751E+02 0.  0.
          5    1    3    3  502    0 -0.30463817142E+01 -0.57927824500E+02  0.47068946833E+01  0.58348440857E+02  0.41800000000E+01 0.  1.
         -5    1    3    3    0  502 -0.33092263381E+02 -0.26794579674E+02  0.17059083142E+03  0.17587424928E+03  0.41800000000E+01 0.  1.
        -11    1    4    4    0    0  0.16813041718E+02 -0.13465314947E+02  0.63043424966E+02  0.66621817071E+02  0.00000000000E+00 0.  1.
         11    1    4    4    0    0  0.19325603377E+02  0.98187719121E+02  0.90844342932E+02  0.13515547260E+03  0.00000000000E+00 0. -1.
</event>
<event>
 8    1  0.7192024E-009  0.1062433E+03  0.7561462E-02  0.1267689E+00
          1   -1    0    0  501    0  0.00000000000E+00  0.00000000000E+00  0.20155515176E+03  0.20155515176E+03  0.00000000000E+00 0. -1.
         -1   -1    0    0    0  501 -0.00000000000E+00 -0.00000000000E+00 -0.74966943941E+02  0.74966943941E+02  0.00000000000E+00 0.  1.
         25    2    1    2    0    0 -0.20283686217E+01  0.47837565243E+02  0.33195765282E+02  0.13797989482E+03  0.12507575950E+03 0.  0.
         23    2    1    2    0    0  0.20283686217E+01 -0.47837565243E+02  0.93392442533E+02  0.13854220088E+03  0.90439184946E+02 0.  0.
          5    1    3    3  502    0 -0.39183136769E+01  0.84876912339E+02 -0.41636667599E+01  0.85171896487E+02  0.41800000000E+01 0. -1.
         -5    1    3    3    0  502  0.18899450552E+01 -0.37039347096E+02  0.37359432042E+02  0.52807998334E+02  0.41800000000E+01 0. -1.
        -11    1    4    4    0    0 -0.22319515210E+02  0.12108370521E+02  0.57502947158E+00  0.25398898692E+02  0.00000000000E+00 0.  1.
         11    1    4    4    0    0  0.24347883832E+02 -0.59945935764E+02  0.92817413062E+02  0.11314330218E+03  0.00000000000E+00 0. -1.
</event>
<event>
 8    1  0.7192024E-009  0.1834622E+03  0.7561462E-02  0.1164494E+00
          1   -1    0    0  501    0  0.00000000000E+00  0.00000000000E+00  0.58078535097E+03  0.58078535097E+03  0.00000000000E+00 0. -1.
         -1   -1    0    0    0  501 -0.00000000000E+00 -0.00000000000E+00 -0.70964872921E+02  0.70964872921E+02  0.00000000000E+00 0.  1.
         25    2    1    2    0    0  0.15164048476E+03  0.77047598245E+02  0.23038115829E+03  0.31249724804E+03  0.12509149821E+03 0.  0.
         23    2    1    2    0    0 -0.15164048476E+03 -0.77047598245E+02  0.27943931976E+03  0.33925297585E+03  0.89861444363E+02 0.  0.
          5    1    3    3  502    0  0.63462236528E+02  0.80051403116E+02  0.54919835150E+02  0.11605749997E+03  0.41800000000E+01 0.  1.
         -5    1    3    3    0  502  0.88178248229E+02 -0.30038048708E+01  0.17546132314E+03  0.19643974807E+03  0.41800000000E+01 0.  1.
        -11    1    4    4    0    0 -0.56910530974E+02 -0.45973911709E+01  0.34204767966E+02  0.66557574272E+02  0.00000000000E+00 0.  1.
         11    1    4    4    0    0 -0.94729953783E+02 -0.72450207074E+02  0.24523455179E+03  0.27269540158E+03  0.00000000000E+00 0. -1.
</event>
<event>
 8    1  0.7192024E-009  0.1282594E+03  0.7561462E-02  0.1230062E+00
          3   -1    0    0  501    0  0.00000000000E+00  0.00000000000E+00  0.53162960445E+03  0.53162960445E+03  0.00000000000E+00 0. -1.
         -3   -1    0    0    0  501 -0.00000000000E+00 -0.00000000000E+00 -0.41223209480E+02  0.41223209480E+02  0.00000000000E+00 0.  1.
         25    2    1    2    0    0  0.61726115714E+02  0.69261894290E+02  0.34629058015E+03  0.37970135255E+03  0.12509447577E+03 0.  0.
         23    2    1    2    0    0 -0.61726115714E+02 -0.69261894290E+02  0.14411581482E+03  0.19315146137E+03  0.89055014396E+02 0.  0.
          5    1    3    3  502    0  0.37185663096E+02 -0.18287974269E+02  0.32077406703E+02  0.52570485670E+02  0.41800000000E+01 0.  1.
         -5    1    3    3    0  502  0.24540452619E+02  0.87549868560E+02  0.31421317345E+03  0.32713086688E+03  0.41800000000E+01 0.  1.
        -11    1    4    4    0    0 -0.72926169529E+02 -0.23323872835E+02  0.62532015323E+02  0.98855865717E+02  0.00000000000E+00 0.  1.
         11    1    4    4    0    0  0.11200053815E+02 -0.45938021456E+02  0.81583799492E+02  0.94295595657E+02  0.00000000000E+00 0. -1.
</event>
<event>
 8    1  0.7192024E-009  0.9706289E+02  0.7561462E-02  0.1286596E+00
         -2   -1    0    0    0  501 -0.00000000000E+00  0.00000000000E+00  0.17335380198E+03  0.17335380198E+03  0.00000000000E+00 0.  1.
          2   -1    0    0  501    0  0.00000000000E+00 -0.00000000000E+00 -0.71418078555E+02  0.71418078555E+02  0.00000000000E+00 0. -1.
         25    2    1    2    0    0 -0.22485687623E+02 -0.17750359726E+02  0.50532244929E+02  0.13791930453E+03  0.12509014895E+03 0.  0.
         23    2    1    2    0    0  0.22485687623E+02  0.17750359726E+02  0.51403478500E+02  0.10685257601E+03  0.89187857806E+02 0.  0.
          5    1    3    3  502    0 -0.30920343184E+02  0.50394015168E+02  0.18972598632E+02  0.62233883747E+02  0.41800000000E+01 0. -1.
         -5    1    3    3    0  502  0.84346555610E+01 -0.68144374895E+02  0.31559646297E+02  0.75685420780E+02  0.41800000000E+01 0. -1.
        -11    1    4    4    0    0 -0.12955445342E+02  0.26552973386E+02 -0.13420548918E+02  0.32450194035E+02  0.00000000000E+00 0. -1.
         11    1    4    4    0    0  0.35441132965E+02 -0.88026136601E+01  0.64824027417E+02  0.74402381976E+02  0.00000000000E+00 0.  1.
</event>
<event>
 8    1  0.7192024E-009  0.1510499E+03  0.7561462E-02  0.1199189E+00
         -3   -1    0    0    0  501 -0.00000000000E+00  0.00000000000E+00  0.19904699159E+03  0.19904699159E+03  0.00000000000E+00 0.  1.
          3   -1    0    0  501    0  0.00000000000E+00 -0.00000000000E+00 -0.18457115177E+03  0.18457115177E+03  0.00000000000E+00 0. -1.
         25    2    1    2    0    0 -0.56105966457E+02  0.13365602449E+03 -0.55786547775E+02  0.19942606703E+03  0.12508718936E+03 0.  0.
         23    2    1    2    0    0  0.56105966457E+02 -0.13365602449E+03  0.70262387594E+02  0.18419207634E+03  0.89320241388E+02 0.  0.
          5    1    3    3  502    0 -0.24237548814E+02  0.14265841915E+02  0.35684728209E+02  0.45627242361E+02  0.41800000000E+01 0. -1.
         -5    1    3    3    0  502 -0.31868417642E+02  0.11939018257E+03 -0.91471275985E+02  0.15379882467E+03  0.41800000000E+01 0. -1.
        -11    1    4    4    0    0 -0.56421399223E+01 -0.18737088260E+02  0.48017328711E+02  0.51851480943E+02  0.00000000000E+00 0. -1.
         11    1    4    4    0    0  0.61748106379E+02 -0.11491893623E+03  0.22245058883E+02  0.13234059540E+03  0.00000000000E+00 0.  1.
</event>
<event>
 8    1  0.7192024E-009  0.1631943E+03  0.7561462E-02  0.1185137E+00
         -2   -1    0    0    0  501 -0.00000000000E+00  0.00000000000E+00  0.20790446856E+03  0.20790446856E+03  0.00000000000E+00 0.  1.
          2   -1    0    0  501    0  0.00000000000E+00 -0.00000000000E+00 -0.14128144508E+03  0.14128144508E+03  0.00000000000E+00 0. -1.
         25    2    1    2    0    0  0.24600938867E+02 -0.12405454620E+03  0.76962337659E+02  0.19381750983E+03  0.12508912452E+03 0.  0.
         23    2    1    2    0    0 -0.24600938867E+02  0.12405454620E+03 -0.10339314171E+02  0.15536840381E+03  0.89653236759E+02 0.  0.
          5    1    3    3  502    0 -0.28968310543E+02  0.11456361514E+02  0.73712357469E+01  0.32283412943E+02  0.41800000000E+01 0. -1.
         -5    1    3    3    0  502  0.53569249409E+02 -0.13551090771E+03  0.69591101912E+02  0.16153409688E+03  0.41800000000E+01 0. -1.
        -11    1    4    4    0    0  0.94497575825E+01  0.11298320849E+03 -0.25947491802E+02  0.11630896633E+03  0.00000000000E+00 0. -1.
         11    1    4    4    0    0 -0.34050696449E+02  0.11071337706E+02  0.15608177631E+02  0.39059437480E+02  0.00000000000E+00 0.  1.
</event>
<event>
 8    1  0.7192024E-009  0.1077646E+03  0.7561462E-02  0.1264766E+00
          1   -1    0    0  501    0  0.00000000000E+00  0.00000000000E+00  0.32026496677E+03  0.32026496677E+03  0.00000000000E+00 0. -1.
         -1   -1    0    0    0  501 -0.00000000000E+00 -0.00000000000E+00 -0.50095103628E+02  0.50095103628E+02  0.00000000000E+00 0.  1.
         25    2    1    2    0    0 -0.91890800011E+00  0.65105851494E+02  0.13843094422E+03  0.19760908174E+03  0.12508639646E+03 0.  0.
         23    2    1    2    0    0  0.91890800011E+00 -0.65105851494E+02  0.13173891892E+03  0.17275098865E+03  0.90819298789E+02 0.  0.
          5    1    3    3  502    0  0.21758651090E+02  0.93204837042E+02  0.12782971174E+03  0.15974507238E+03  0.41800000000E+01 0.  1.
         -5    1    3    3    0  502 -0.22677559090E+02 -0.28098985548E+02  0.10601232482E+02  0.37864009366E+02  0.41800000000E+01 0.  1.
        -11    1    4    4    0    0 -0.23139483765E+02 -0.49662800140E+02  0.13329953065E+03  0.14412006903E+03  0.00000000000E+00 0. -1.
         11    1    4    4    0    0  0.24058391765E+02 -0.15443051354E+02 -0.15606117307E+01  0.28630919622E+02  0.00000000000E+00 0.  1.
</event>
<event>
 8    1  0.7192024E-009  0.1030479E+03  0.7561462E-02  0.1274014E+00
         -1   -1    0    0    0  501 -0.00000000000E+00  0.00000000000E+00  0.20821679038E+02  0.20821679038E+02  0.00000000000E+00 0.  1.
          1   -1    0    0  501    0  0.00000000000E+00 -0.00000000000E+00 -0.71275861997E+03  0.71275861997E+03  0.00000000000E+00 0. -1.
         25    2    1    2    0    0 -0.53112453679E+02 -0.97215553374E-01 -0.36411878021E+03  0.38865708613E+03  0.12510356635E+03 0.  0.
         23    2    1    2    0    0  0.53112453679E+02  0.97215553374E-01 -0.32781816071E+03  0.34492321287E+03  0.93200504802E+02 0.  0.
          5    1    3    3  502    0  0.15325762824E+02  0.41968213449E+02 -0.65526766569E+02  0.79419389844E+02  0.41800000000E+01 0. -1.
         -5    1    3    3    0  502 -0.68438216503E+02 -0.42065429002E+02 -0.29859201364E+03  0.30923769629E+03  0.41800000000E+01 0. -1.
        -11    1    4    4    0    0  0.12441753861E+02  0.28551432018E+02 -0.30856326681E+02  0.43841697112E+02  0.00000000000E+00 0.  1.
         11    1    4    4    0    0  0.40670699818E+02 -0.28454216465E+02 -0.29696183403E+03  0.30108151576E+03  0.00000000000E+00 0. -1.
</event>
<event>
 8    1  0.7192024E-009  0.9139388E+02  0.7561462E-02  0.1299511E+00
         -2   -1    0    0    0  501 -0.00000000000E+00  0.00000000000E+00  0.11737660857E+03  0.11737660857E+03  0.00000000000E+00 0.  1.
          2   -1    0    0  501    0  0.00000000000E+00 -0.00000000000E+00 -0.12800288781E+03  0.12800288781E+03  0.00000000000E+00 0. -1.
         25    2    1    2    0    0  0.27402654190E+02  0.21630625126E+02  0.43322626760E+02  0.13690719895E+03  0.12509173328E+03 0.  0.
         23    2    1    2    0    0 -0.27402654190E+02 -0.21630625126E+02 -0.53948906001E+02  0.10847229743E+03  0.87389733100E+02 0.  0.
          5    1    3    3  502    0 -0.44263611836E+02  0.30505973956E+02  0.27936547419E+01  0.53992209499E+02  0.41800000000E+01 0.  1.
         -5    1    3    3    0  502  0.71666266027E+02 -0.88753488301E+01  0.40528972018E+02  0.82914989453E+02  0.41800000000E+01 0.  1.
        -11    1    4    4    0    0  0.10964501590E+02 -0.13362775614E+02  0.18968651112E+02  0.25663082282E+02  0.00000000000E+00 0.  1.
         11    1    4    4    0    0 -0.38367155781E+02 -0.82678495126E+01 -0.72917557113E+02  0.82809215149E+02  0.00000000000E+00 0. -1.
</event>
<event>
 8    1  0.7192024E-009  0.8137286E+02  0.7561462E-02  0.1325200E+00
         -1   -1    0    0    0  501 -0.00000000000E+00  0.00000000000E+00  0.78409301292E+02  0.78409301292E+02  0.00000000000E+00 0.  1.
          1   -1    0    0  501    0  0.00000000000E+00 -0.00000000000E+00 -0.15440049129E+03  0.15440049129E+03  0.00000000000E+00 0. -1.
         25    2    1    2    0    0 -0.12417765202E+02  0.33920820634E+00 -0.25552413664E+02  0.12828401865E+03  0.12509815203E+03 0.  0.
         23    2    1    2    0    0  0.12417765202E+02 -0.33920820634E+00 -0.50438776334E+02  0.10452577394E+03  0.90704196727E+02 0.  0.
          5    1    3    3  502    0 -0.46651629715E+02 -0.16339688167E+02 -0.59241741725E+02  0.77268469165E+02  0.41800000000E+01 0.  1.
         -5    1    3    3    0  502  0.34233864513E+02  0.16678896374E+02  0.33689328061E+02  0.51015549482E+02  0.41800000000E+01 0.  1.
        -11    1    4    4    0    0  0.23998164896E+02 -0.32641597437E+02 -0.56656474089E+02  0.69651574697E+02  0.00000000000E+00 0. -1.
         11    1    4    4    0    0 -0.11580399694E+02  0.32302389231E+02  0.62176977545E+01  0.34874199238E+02  0.00000000000E+00 0.  1.
</event>
<event>
 8    1  0.7192024E-009  0.8192337E+02  0.7561462E-02  0.1323680E+00
          2   -1    0    0  501    0  0.00000000000E+00  0.00000000000E+00  0.21129145675E+03  0.21129145675E+03  0.00000000000E+00 0. -1.
         -2   -1    0    0    0  501 -0.00000000000E+00 -0.00000000000E+00 -0.67122195371E+02  0.67122195371E+02  0.00000000000E+00 0.  1.
         25    2    1    2    0    0 -0.31183001231E+02  0.18528317369E+02  0.72906827719E+02  0.14925910315E+03  0.12508875343E+03 0.  0.
         23    2    1    2    0    0  0.31183001231E+02 -0.18528317369E+02  0.71262433664E+02  0.12915454897E+03  0.10142428190E+03 0.  0.
          5    1    3    3  502    0  0.35654520685E+02 -0.12334256432E+02 -0.90405454919E+01  0.39020284337E+02  0.41800000000E+01 0.  1.
         -5    1    3    3    0  502 -0.66837521916E+02  0.30862573800E+02  0.81947373211E+02  0.11023881881E+03  0.41800000000E+01 0.  1.
        -11    1    4    4    0    0  0.92044788934E+01  0.11631050543E+02 -0.23229120690E+02  0.27560765890E+02  0.00000000000E+00 0.  1.
         11    1    4    4    0    0  0.21978522338E+02 -0.30159367912E+02  0.94491554354E+02  0.10159378308E+03  0.00000000000E+00 0. -1.
</event>
<event>
 8    1  0.7192024E-009  0.8881860E+02  0.7561462E-02  0.1305738E+00
          2   -1    0    0  501    0  0.00000000000E+00  0.00000000000E+00  0.42004742535E+02  0.42004742535E+02  0.00000000000E+00 0. -1.
         -2   -1    0    0    0  501 -0.00000000000E+00 -0.00000000000E+00 -0.33396199677E+03  0.33396199677E+03  0.00000000000E+00 0.  1.
         25    2    1    2    0    0  0.34875502001E+02  0.24017316461E+02 -0.19375245367E+03  0.23448253556E+03  0.12509561963E+03 0.  0.
         23    2    1    2    0    0 -0.34875502001E+02 -0.24017316461E+02 -0.98204800560E+02  0.14148420374E+03  0.92630799008E+02 0.  0.
          5    1    3    3  502    0  0.59775809688E+02 -0.27050817272E+02 -0.14610117237E+03  0.16021210662E+03  0.41800000000E+01 0.  1.
         -5    1    3    3    0  502 -0.24900307687E+02  0.51068133733E+02 -0.47651281299E+02  0.74270428943E+02  0.41800000000E+01 0.  1.
        -11    1    4    4    0    0 -0.40491713803E+02 -0.12948787141E+02 -0.11384156551E+03  0.12152017122E+03  0.00000000000E+00 0.  1.
         11    1    4    4    0    0  0.56162118022E+01 -0.11068529320E+02  0.15636764951E+02  0.19964032520E+02  0.00000000000E+00 0. -1.
</event>
