<event>
 7    1  0.2380582E-009  0.1125675E+03  0.7561462E-02  0.1255888E+00
          4   -1    0    0  501    0  0.00000000000E+00  0.00000000000E+00  0.43158613412E+02  0.43158613412E+02  0.00000000000E+00 0. -1.
         -4   -1    0    0    0  501 -0.00000000000E+00 -0.00000000000E+00 -0.32099088357E+03  0.32099088357E+03  0.00000000000E+00 0.  1.
         25    2    1    2    0    0  0.23753824419E+02 -0.37105018069E+02 -0.15301509413E+03  0.20248998873E+03  0.12509016735E+03 0.  0.
          5    1    3    3  502    0  0.60670041765E+02  0.14552008757E+02 -0.44688184519E+02  0.76857798318E+02  0.41800000000E+01 0. -1.
         -5    1    3    3    0  502 -0.36916217346E+02 -0.51657026827E+02 -0.10832690961E+03  0.12563219042E+03  0.41800000000E+01 0. -1.
        -11    1    1    2    0    0  0.33102862424E+02  0.23256439441E+02 -0.30506318869E+02  0.50668500739E+02  0.00000000000E+00 0. -1.
         11    1    1    2    0    0 -0.56856686843E+02  0.13848578628E+02 -0.94310857160E+02  0.11099100751E+03  0.00000000000E+00 0.  1.
</event>
<event>
 7    1  0.2380582E-009  0.1939162E+03  0.7561462E-02  0.1154976E+00
          1   -1    0    0  501    0  0.00000000000E+00  0.00000000000E+00  0.86661568644E+03  0.86661568644E+03  0.00000000000E+00 0. -1.
         -1   -1    0    0    0  501 -0.00000000000E+00 -0.00000000000E+00 -0.17876896947E+03  0.17876896947E+03  0.00000000000E+00 0.  1.
         25    2    1    2    0    0  0.16049548463E+03  0.92978823165E+01 -0.10649798364E+03  0.22985922933E+03  0.12509273994E+03 0.  0.
          5    1    3    3  502    0 -0.19801021390E+02 -0.85128353726E+01 -0.65948819262E+01  0.22924085190E+02  0.41800000000E+01 0. -1.
         -5    1    3    3    0  502  0.18029650602E+03  0.17810717689E+02 -0.99903101709E+02  0.20693514414E+03  0.41800000000E+01 0. -1.
        -11    1    1    2    0    0 -0.15603182536E+03  0.17934713061E+02  0.67693451900E+03  0.69491577006E+03  0.00000000000E+00 0. -1.
         11    1    1    2    0    0 -0.44636592729E+01 -0.27232595377E+02  0.11741018160E+03  0.12060965653E+03  0.00000000000E+00 0.  1.
</event>
<event>
 7    1  0.2380582E-009  0.8981522E+02  0.7561462E-02  0.1303300E+00
         -1   -1    0    0    0  501 -0.00000000000E+00  0.00000000000E+00  0.25026771657E+02  0.25026771657E+02  0.00000000000E+00 0.  1.
          1   -1    0    0  501    0  0.00000000000E+00 -0.00000000000E+00 -0.48698323362E+03  0.48698323362E+03  0.00000000000E+00 0. -1.
         25    2    1    2    0    0  0.10201267121E+02  0.20120169909E+02 -0.24251452332E+03  0.27380702172E+03  0.12509238199E+03 0.  0.
          5    1    3    3  502    0 -0.49979020803E+02  0.15390919100E+02 -0.17705637488E+03  0.18466514343E+03  0.41800000000E+01 0. -1.
         -5    1    3    3    0  502  0.60180287924E+02  0.47292508085E+01 -0.65458148441E+02  0.89141878291E+02  0.41800000000E+01 0. -1.
        -11    1    1    2    0    0 -0.32933947802E+02  0.43940457819E+01 -0.19227431013E+03  0.19512396801E+03  0.00000000000E+00 0. -1.
         11    1    1    2    0    0  0.22732680680E+02 -0.24514215691E+02 -0.27167628515E+02  0.43079015553E+02  0.00000000000E+00 0.  1.
</event>
<event>
 7    1  0.2380582E-009  0.1030751E+03  0.7561462E-02  0.1273959E+00
         -1   -1    0    0    0  501 -0.00000000000E+00  0.00000000000E+00  0.16069842765E+03  0.16069842765E+03  0.00000000000E+00 0.  1.
          1   -1    0    0  501    0  0.00000000000E+00 -0.00000000000E+00 -0.76065583582E+02  0.76065583582E+02  0.00000000000E+00 0. -1.
         25    2    1    2    0    0  0.14038885549E+02 -0.16766845092E+02  0.71330094371E+02  0.14564922910E+03  0.12508996031E+03 0.  0.
          5    1    3    3  502    0  0.64292288226E+02 -0.31226495150E+02  0.56295342704E+02  0.91078155091E+02  0.41800000000E+01 0. -1.
         -5    1    3    3    0  502 -0.50253402677E+02  0.14459650058E+02  0.15034751667E+02  0.54571074005E+02  0.41800000000E+01 0. -1.
        -11    1    1    2    0    0  0.27321656887E+02  0.28116887020E+02 -0.12392697415E+02  0.41117042939E+02  0.00000000000E+00 0. -1.
         11    1    1    2    0    0 -0.41360542437E+02 -0.11350041929E+02  0.25695447108E+02  0.49997739194E+02  0.00000000000E+00 0.  1.
</event>
<event>
 7    1  0.2380582E-009  0.1117613E+03  0.7561462E-02  0.1257343E+00
         -2   -1    0    0    0  501 -0.00000000000E+00  0.00000000000E+00  0.10712487086E+03  0.10712487086E+03  0.00000000000E+00 0.  1.
          2   -1    0    0  501    0  0.00000000000E+00 -0.00000000000E+00 -0.20007571722E+03  0.20007571722E+03  0.00000000000E+00 0. -1.
         25    2    1    2    0    0  0.60801952580E+02 -0.66467428288E+02 -0.91742577112E+02  0.17937801432E+03  0.12507987490E+03 0.  0.
          5    1    3    3  502    0  0.13739353410E+02  0.13820803556E+02  0.23744349747E+02  0.31000822376E+02  0.41800000000E+01 0. -1.
         -5    1    3    3    0  502  0.47062599169E+02 -0.80288231844E+02 -0.11548692686E+03  0.14837719194E+03  0.41800000000E+01 0. -1.
        -11    1    1    2    0    0 -0.71537992355E+02  0.40208322454E+02  0.28379395335E+02  0.86831927448E+02  0.00000000000E+00 0.  1.
         11    1    1    2    0    0  0.10736039775E+02  0.26259105834E+02 -0.29587664587E+02  0.40990646311E+02  0.00000000000E+00 0. -1.
</event>
<event>
 7    1  0.2380582E-009  0.2215572E+03  0.7561462E-02  0.1132727E+00
          3   -1    0    0  501    0  0.00000000000E+00  0.00000000000E+00  0.30827470622E+03  0.30827470622E+03  0.00000000000E+00 0. -1.
         -3   -1    0    0    0  501 -0.00000000000E+00 -0.00000000000E+00 -0.18796228348E+03  0.18796228348E+03  0.00000000000E+00 0.  1.
         25    2    1    2    0    0 -0.20127007508E+03  0.15241554444E+02 -0.12797866506E+02  0.23780971160E+03  0.12509086874E+03 0.  0.
          5    1    3    3  502    0 -0.40054413385E+02  0.56047101969E+02  0.10584693289E+02  0.69822215682E+02  0.41800000000E+01 0. -1.
         -5    1    3    3    0  502 -0.16121566169E+03 -0.40805547525E+02 -0.23382559795E+02  0.16798749592E+03  0.41800000000E+01 0. -1.
        -11    1    1    2    0    0  0.15529324742E+03 -0.32464023022E+02  0.13639455904E+03  0.20922089098E+03  0.00000000000E+00 0. -1.
         11    1    1    2    0    0  0.45976827652E+02  0.17222468578E+02 -0.32842697912E+01  0.49206387115E+02  0.00000000000E+00 0.  1.
</event>
<event>
 7    1  0.2380582E-009  0.1734584E+03  0.7561462E-02  0.1174289E+00
          2   -1    0    0  501    0  0.00000000000E+00  0.00000000000E+00  0.10871431207E+04  0.10871431207E+04  0.00000000000E+00 0. -1.
         -2   -1    0    0    0  501 -0.00000000000E+00 -0.00000000000E+00 -0.48317197774E+02  0.48317197774E+02  0.00000000000E+00 0.  1.
         25    2    1    2    0    0  0.14731018427E+03  0.23442706103E+02  0.87243117290E+03  0.89388785091E+03  0.12509791245E+03 0.  0.
          5    1    3    3  502    0  0.26837092330E+02 -0.47459044867E+02  0.23000472575E+03  0.23641539022E+03  0.41800000000E+01 0. -1.
         -5    1    3    3    0  502  0.12047309194E+03  0.70901750970E+02  0.64242644714E+03  0.65747246068E+03  0.41800000000E+01 0. -1.
        -11    1    1    2    0    0 -0.47962907227E+02  0.70146116293E+01  0.38157494941E+01  0.48623093178E+02  0.00000000000E+00 0.  1.
         11    1    1    2    0    0 -0.99347277047E+02 -0.30457317732E+02  0.16257900050E+03  0.19294937436E+03  0.00000000000E+00 0. -1.
</event>
<event>
 7    1  0.2380582E-009  0.1064893E+03  0.7561462E-02  0.1267213E+00
         -2   -1    0    0    0  501 -0.00000000000E+00  0.00000000000E+00  0.17166676091E+03  0.17166676091E+03  0.00000000000E+00 0.  1.
          2   -1    0    0  501    0  0.00000000000E+00 -0.00000000000E+00 -0.13097322244E+03  0.13097322244E+03  0.00000000000E+00 0. -1.
         25    2    1    2    0    0 -0.44030997917E+02  0.87876171938E+02  0.53716066457E+02  0.16790952163E+03  0.12508893351E+03 0.  0.
          5    1    3    3  502    0  0.14020471607E+02  0.17551152233E+02  0.71364875598E+02  0.74933533467E+02  0.41800000000E+01 0.  1.
         -5    1    3    3    0  502 -0.58051469524E+02  0.70325019705E+02 -0.17648809141E+02  0.92975988161E+02  0.41800000000E+01 0.  1.
        -11    1    1    2    0    0  0.36024624689E+01 -0.15779863539E+02  0.35406031054E+02  0.38930307784E+02  0.00000000000E+00 0.  1.
         11    1    1    2    0    0  0.40428535448E+02 -0.72096308398E+02 -0.48428559040E+02  0.95800153934E+02  0.00000000000E+00 0. -1.
</event>
<event>
 7    1  0.2380582E-009  0.1072836E+03  0.7561462E-02  0.1265685E+00
          2   -1    0    0  501    0  0.00000000000E+00  0.00000000000E+00  0.44384974038E+03  0.44384974038E+03  0.00000000000E+00 0. -1.
         -2   -1    0    0    0  501 -0.00000000000E+00 -0.00000000000E+00 -0.36151556958E+02  0.36151556958E+02  0.00000000000E+00 0.  1.
         25    2    1    2    0    0 -0.54423288152E+02 -0.13909210611E+02  0.30148786345E+03  0.33120586006E+03  0.12508808695E+03 0.  0.
          5    1    3    3  502    0  0.26914366474E+02 -0.93470506664E+01  0.13343510019E+02  0.31737550922E+02  0.41800000000E+01 0.  1.
         -5    1    3    3    0  502 -0.81337654627E+02 -0.45621599446E+01  0.28814435343E+03  0.29946830914E+03  0.41800000000E+01 0.  1.
        -11    1    1    2    0    0 -0.99434232390E+01  0.35062175344E+02  0.36147452673E+02  0.51330947198E+02  0.00000000000E+00 0.  1.
         11    1    1    2    0    0  0.64366711391E+02 -0.21152964733E+02  0.70062867298E+02  0.97464490079E+02  0.00000000000E+00 0. -1.
</event>
<event>
 7    1  0.2380582E-009  0.1309696E+03  0.7561462E-02  0.1226024E+00
          2   -1    0    0  501    0  0.00000000000E+00  0.00000000000E+00  0.64192486201E+03  0.64192486201E+03  0.00000000000E+00 0. -1.
         -2   -1    0    0    0  501 -0.00000000000E+00 -0.00000000000E+00 -0.37569080518E+02  0.37569080518E+02  0.00000000000E+00 0.  1.
         25    2    1    2    0    0 -0.90432268765E+02  0.34237877895E+02  0.44204963237E+03  0.46947301305E+03  0.12508718953E+03 0.  0.
          5    1    3    3  502    0  0.15494213034E+02  0.18280452033E+02  0.23556690680E+03  0.23681952103E+03  0.41800000000E+01 0.  1.
         -5    1    3    3    0  502 -0.10592648180E+03  0.15957425862E+02  0.20648272557E+03  0.23265349201E+03  0.41800000000E+01 0.  1.
        -11    1    1    2    0    0  0.87579617661E+02  0.81214319655E+01  0.87862625371E+02  0.12432211398E+03  0.00000000000E+00 0.  1.
         11    1    1    2    0    0  0.28526511040E+01 -0.42359309861E+02  0.74443523751E+02  0.85698815503E+02  0.00000000000E+00 0. -1.
</event>
<event>
 7    1  0.2380582E-009  0.1609471E+03  0.7561462E-02  0.1187632E+00
          1   -1    0    0  501    0  0.00000000000E+00  0.00000000000E+00  0.65025108927E+03  0.65025108927E+03  0.00000000000E+00 0. -1.
         -1   -1    0    0    0  501 -0.00000000000E+00 -0.00000000000E+00 -0.48957272533E+02  0.48957272533E+02  0.00000000000E+00 0.  1.
         25    2    1    2    0    0  0.11523569605E+03  0.70141811835E+02  0.40732414599E+03  0.44694677331E+03  0.12509723762E+03 0.  0.
          5    1    3    3  502    0  0.94431759503E+02 -0.90045132795E+01  0.15624103485E+03  0.18283099254E+03  0.41800000000E+01 0.  1.
         -5    1    3    3    0  502  0.20803936544E+02  0.79146325114E+02  0.25108311114E+03  0.26411578077E+03  0.41800000000E+01 0.  1.
        -11    1    1    2    0    0 -0.10942907547E+03 -0.78606497635E+02  0.19939646367E+03  0.24065048047E+03  0.00000000000E+00 0.  1.
         11    1    1    2    0    0 -0.58066205774E+01  0.84646858001E+01 -0.54267929122E+01  0.11611108024E+02  0.00000000000E+00 0. -1.
</event>
<event>
 7    1  0.2380582E-009  0.9505459E+02  0.7561462E-02  0.1291053E+00
         -2   -1    0    0    0  501 -0.00000000000E+00  0.00000000000E+00  0.32215159780E+02  0.32215159780E+02  0.00000000000E+00 0. -1.
          2   -1    0    0  501    0  0.00000000000E+00 -0.00000000000E+00 -0.67744764779E+03  0.67744764779E+03  0.00000000000E+00 0.  1.
         25    2    1    2    0    0 -0.28724138387E+02 -0.41870076998E+02 -0.55839442393E+03  0.57448315983E+03  0.12509352013E+03 0.  0.
          5    1    3    3  502    0 -0.26761900228E+02  0.15367674331E+02 -0.30894713665E+02  0.43867077069E+02  0.41800000000E+01 0.  1.
         -5    1    3    3    0  502 -0.19622381593E+01 -0.57237751329E+02 -0.52749971026E+03  0.53061608276E+03  0.41800000000E+01 0.  1.
        -11    1    1    2    0    0 -0.31563090309E+02  0.87316581714E+01 -0.41171446596E+02  0.52607590128E+02  0.00000000000E+00 0.  1.
         11    1    1    2    0    0  0.60287228696E+02  0.33138418827E+02 -0.45666617488E+02  0.82572057616E+02  0.00000000000E+00 0. -1.
</event>
<event>
 7    1  0.2380582E-009  0.2538449E+03  0.7561462E-02  0.1110899E+00
          2   -1    0    0  501    0  0.00000000000E+00  0.00000000000E+00  0.30521010370E+03  0.30521010370E+03  0.00000000000E+00 0. -1.
         -2   -1    0    0    0  501 -0.00000000000E+00 -0.00000000000E+00 -0.24305198575E+03  0.24305198575E+03  0.00000000000E+00 0.  1.
         25    2    1    2    0    0  0.81123373798E+02  0.23789198904E+03  0.30135751760E+02  0.28236288127E+03  0.12508810080E+03 0.  0.
          5    1    3    3  502    0  0.46562829460E+02  0.88522042386E+02  0.72079559022E+02  0.12335795193E+03  0.41800000000E+01 0.  1.
         -5    1    3    3    0  502  0.34560544338E+02  0.14936994665E+03 -0.41943807262E+02  0.15900492934E+03  0.41800000000E+01 0.  1.
        -11    1    1    2    0    0  0.16056076278E+01 -0.35837826105E+02  0.31230333473E+02  0.47563236692E+02  0.00000000000E+00 0. -1.
         11    1    1    2    0    0 -0.82728981426E+02 -0.20205416293E+03  0.79203272299E+00  0.21833597148E+03  0.00000000000E+00 0.  1.
</event>
<event>
 7    1  0.2495605E-009  0.1323685E+03  0.7561462E-02  0.1223983E+00
         -2   -1    0    0    0  501 -0.00000000000E+00  0.00000000000E+00  0.29693833141E+03  0.29693833141E+03  0.00000000000E+00 0.  1.
          2   -1    0    0  501    0  0.00000000000E+00 -0.00000000000E+00 -0.75853790108E+02  0.75853790108E+02  0.00000000000E+00 0. -1.
         25    2    1    2    0    0  0.97617066263E+02  0.23871954692E+02  0.88995724353E+02  0.18349150383E+03  0.12509968496E+03 0.  0.
          5    1    3    3  502    0  0.46564895582E+02  0.60220958192E+02  0.20936411445E+01  0.76267352382E+02  0.41800000000E+01 0.  1.
         -5    1    3    3    0  502  0.51052170681E+02 -0.36349003500E+02  0.86902083209E+02  0.10722415144E+03  0.41800000000E+01 0.  1.
        -11    1    1    2    0    0 -0.23213589679E+02 -0.43000022529E+02  0.88180440288E+02  0.10081499260E+03  0.00000000000E+00 0. -1.
         11    1    1    2    0    0 -0.74403476585E+02  0.19128067837E+02  0.43908376658E+02  0.88485625091E+02  0.00000000000E+00 0.  1.
</event>
<event>
 7    1  0.2380582E-009  0.1254346E+03  0.7561462E-02  0.1234392E+00
          2   -1    0    0  501    0  0.00000000000E+00  0.00000000000E+00  0.93730119994E+03  0.93730119994E+03  0.00000000000E+00 0. -1.
         -2   -1    0    0    0  501 -0.00000000000E+00 -0.00000000000E+00 -0.19574301412E+02  0.19574301412E+02  0.00000000000E+00 0.  1.
         25    2    1    2    0    0 -0.62048063743E+02 -0.50521555557E+02  0.53359096763E+03  0.55386728461E+03  0.12508900207E+03 0.  0.
          5    1    3    3  502    0 -0.51231520337E+02  0.29919248217E+02  0.14236823245E+03  0.15429198327E+03  0.41800000000E+01 0.  1.
         -5    1    3    3    0  502 -0.10816543405E+02 -0.80440803774E+02  0.39122273518E+03  0.39957530134E+03  0.41800000000E+01 0.  1.
        -11    1    1    2    0    0  0.41457119494E+02  0.70272172740E+02  0.34535724150E+03  0.35486405182E+03  0.00000000000E+00 0. -1.
         11    1    1    2    0    0  0.20590944248E+02 -0.19750617183E+02  0.38778689398E+02  0.48144164917E+02  0.00000000000E+00 0.  1.
</event>
<event>
 7    1  0.2380582E-009  0.1787426E+03  0.7561462E-02  0.1169025E+00
         -3   -1    0    0    0  501 -0.00000000000E+00  0.00000000000E+00  0.81941650470E+02  0.81941650470E+02  0.00000000000E+00 0.  1.
          3   -1    0    0  501    0  0.00000000000E+00 -0.00000000000E+00 -0.40391327046E+03  0.40391327046E+03  0.00000000000E+00 0. -1.
         25    2    1    2    0    0 -0.13346701412E+03 -0.55746019998E+02 -0.18950796488E+03  0.26922392571E+03  0.12508873177E+03 0.  0.
          5    1    3    3  502    0 -0.15173521942E+03 -0.24705622305E+02 -0.16440611497E+03  0.22512393837E+03  0.41800000000E+01 0.  1.
         -5    1    3    3    0  502  0.18268205308E+02 -0.31040397692E+02 -0.25101849916E+02  0.44099987339E+02  0.41800000000E+01 0.  1.
        -11    1    1    2    0    0  0.13847423139E+03  0.67948100436E+02 -0.10629104896E+03  0.18732283417E+03  0.00000000000E+00 0.  1.
         11    1    1    2    0    0 -0.50072172742E+01 -0.12202080438E+02 -0.26172606143E+02  0.29308161051E+02  0.00000000000E+00 0. -1.
</event>
<event>
 7    1  0.2380582E-009  0.1143495E+03  0.7561462E-02  0.1252721E+00
          2   -1    0    0  501    0  0.00000000000E+00  0.00000000000E+00  0.11332847965E+03  0.11332847965E+03  0.00000000000E+00 0. -1.
         -2   -1    0    0    0  501 -0.00000000000E+00 -0.00000000000E+00 -0.14219926221E+03  0.14219926221E+03  0.00000000000E+00 0.  1.
         25    2    1    2    0    0  0.15568198234E+01 -0.49684294638E+02 -0.59112028116E+02  0.14701276613E+03  0.12509024229E+03 0.  0.
          5    1    3    3  502    0  0.19337751223E+02 -0.87579918717E+02 -0.25996608687E+02  0.93474525129E+02  0.41800000000E+01 0. -1.
         -5    1    3    3    0  502 -0.17780931400E+02  0.37895624080E+02 -0.33115419429E+02  0.53538241004E+02  0.41800000000E+01 0. -1.
        -11    1    1    2    0    0 -0.12302722339E+02  0.71486662986E+02  0.39391152559E+02  0.82543096996E+02  0.00000000000E+00 0. -1.
         11    1    1    2    0    0  0.10745902515E+02 -0.21802368349E+02 -0.91499070015E+01  0.25971878727E+02  0.00000000000E+00 0.  1.
</event>
<event>
 7    1  0.2380582E-009  0.1158235E+03  0.7561462E-02  0.1250150E+00
         -2   -1    0    0    0  501 -0.00000000000E+00  0.00000000000E+00  0.30352097115E+02  0.30352097115E+02  0.00000000000E+00 0.  1.
          2   -1    0    0  501    0  0.00000000000E+00 -0.00000000000E+00 -0.82269625478E+03  0.82269625478E+03  0.00000000000E+00 0. -1.
         25    2    1    2    0    0 -0.24148442438E+02 -0.71436367226E+02 -0.61954831894E+03  0.63653279121E+03  0.12509025922E+03 0.  0.
          5    1    3    3  502    0 -0.21130426431E+02  0.34134788011E+02 -0.17249612510E+03  0.17715548044E+03  0.41800000000E+01 0.  1.
         -5    1    3    3    0  502 -0.30180160076E+01 -0.10557115524E+03 -0.44705219383E+03  0.45937731077E+03  0.41800000000E+01 0.  1.
        -11    1    1    2    0    0  0.29192608447E+02  0.23745888287E+02 -0.16336178307E+03  0.16763993488E+03  0.00000000000E+00 0. -1.
         11    1    1    2    0    0 -0.50441660083E+01  0.47690478939E+02 -0.94340556613E+01  0.48875625811E+02  0.00000000000E+00 0.  1.
</event>
<event>
 7    1  0.2380582E-009  0.1737121E+03  0.7561462E-02  0.1174031E+00
          1   -1    0    0  501    0  0.00000000000E+00  0.00000000000E+00  0.22354517076E+03  0.22354517076E+03  0.00000000000E+00 0. -1.
         -1   -1    0    0    0  501 -0.00000000000E+00 -0.00000000000E+00 -0.15769399448E+03  0.15769399448E+03  0.00000000000E+00 0.  1.
         25    2    1    2    0    0  0.14590698156E+03  0.39998651066E+02  0.48959001230E+02  0.20231959436E+03  0.12508994806E+03 0.  0.
          5    1    3    3  502    0 -0.29335744101E+01  0.46526017031E+02  0.58595351314E+01  0.47170781968E+02  0.41800000000E+01 0. -1.
         -5    1    3    3    0  502  0.14884055597E+03 -0.65273659647E+01  0.43099466098E+02  0.15514881239E+03  0.41800000000E+01 0. -1.
        -11    1    1    2    0    0 -0.27038911251E+02 -0.11219786792E+02  0.44759423433E+02  0.53482635718E+02  0.00000000000E+00 0. -1.
         11    1    1    2    0    0 -0.11886807031E+03 -0.28778864273E+02 -0.27867248383E+02  0.12543693515E+03  0.00000000000E+00 0.  1.
</event>
<event>
 7    1  0.2519046E-009  0.1069938E+03  0.7561462E-02  0.1266240E+00
          1   -1    0    0  501    0  0.00000000000E+00  0.00000000000E+00  0.35018940326E+03  0.35018940326E+03  0.00000000000E+00 0. -1.
         -1   -1    0    0    0  501 -0.00000000000E+00 -0.00000000000E+00 -0.49712916750E+02  0.49712916750E+02  0.00000000000E+00 0.  1.
         25    2    1    2    0    0 -0.28958711379E+02  0.68568759251E+02  0.14522664494E+03  0.20561917437E+03  0.12509270466E+03 0.  0.
          5    1    3    3  502    0 -0.78261652288E+01  0.84010058064E+02  0.33641487188E+02  0.90929427461E+02  0.41800000000E+01 0. -1.
         -5    1    3    3    0  502 -0.21132546151E+02 -0.15441298813E+02  0.11158515775E+03  0.11468974691E+03  0.41800000000E+01 0. -1.
        -11    1    1    2    0    0 -0.17639856405E+02 -0.49690185525E+02  0.33268178964E+02  0.62346217231E+02  0.00000000000E+00 0.  1.
         11    1    1    2    0    0  0.46598567784E+02 -0.18878573726E+02  0.12198166261E+03  0.13193692841E+03  0.00000000000E+00 0. -1.
</event>
<event>
 7    1  0.2380582E-009  0.1349118E+03  0.7561462E-02  0.1220344E+00
         -1   -1    0    0    0  501 -0.00000000000E+00  0.00000000000E+00  0.44635074227E+02  0.44635074227E+02  0.00000000000E+00 0.  1.
          1   -1    0    0  501    0  0.00000000000E+00 -0.00000000000E+00 -0.52306980536E+03  0.52306980536E+03  0.00000000000E+00 0. -1.
         25    2    1    2    0    0 -0.72826861520E+02 -0.64505297360E+02 -0.33736914311E+03  0.37273273564E+03  0.12508824225E+03 0.  0.
          5    1    3    3  502    0  0.25536680123E+01 -0.62057049562E+02 -0.24811782453E+03  0.25580759541E+03  0.41800000000E+01 0.  1.
         -5    1    3    3    0  502 -0.75380529533E+02 -0.24482477982E+01 -0.89251318586E+02  0.11692514024E+03  0.41800000000E+01 0.  1.
        -11    1    1    2    0    0  0.39347876158E+01 -0.21491532413E+02 -0.39373373777E+02  0.45029224750E+02  0.00000000000E+00 0. -1.
         11    1    1    2    0    0  0.68892073905E+02  0.85996829773E+02 -0.10169221424E+03  0.14994291919E+03  0.00000000000E+00 0.  1.
</event>
<event>
 7    1  0.2380582E-009  0.8159191E+02  0.7561462E-02  0.1324594E+00
         -1   -1    0    0    0  501 -0.00000000000E+00  0.00000000000E+00  0.78781955685E+02  0.78781955685E+02  0.00000000000E+00 0.  1.
          1   -1    0    0  501    0  0.00000000000E+00 -0.00000000000E+00 -0.23355395744E+03  0.23355395744E+03  0.00000000000E+00 0. -1.
         25    2    1    2    0    0  0.11174890803E+02  0.43247635056E+02 -0.58194040102E+01  0.13295173709E+03  0.12508822011E+03 0.  0.
          5    1    3    3  502    0 -0.10910474580E+02  0.66444774499E+02 -0.45808672985E+02  0.81546633496E+02  0.41800000000E+01 0.  1.
         -5    1    3    3    0  502  0.22085365383E+02 -0.23197139443E+02  0.39989268975E+02  0.51405103595E+02  0.41800000000E+01 0.  1.
        -11    1    1    2    0    0 -0.28255198249E+02 -0.33225499812E+02 -0.15306536088E+03  0.15915808106E+03  0.00000000000E+00 0. -1.
         11    1    1    2    0    0  0.17080307446E+02 -0.10022135243E+02  0.41127631341E+01  0.20226094974E+02  0.00000000000E+00 0.  1.
</event>
<event>
 7    1  0.2380582E-009  0.2883508E+03  0.7561462E-02  0.1091213E+00
          1   -1    0    0  501    0  0.00000000000E+00  0.00000000000E+00  0.17639818436E+04  0.17639818436E+04  0.00000000000E+00 0. -1.
         -1   -1    0    0    0  501 -0.00000000000E+00 -0.00000000000E+00 -0.55168940847E+02  0.55168940847E+02  0.00000000000E+00 0.  1.
         25    2    1    2    0    0  0.18762664363E+03 -0.21460871967E+03  0.94818093930E+03  0.99797593545E+03  0.12509282209E+03 0.  0.
          5    1    3    3  502    0  0.16963858151E+02 -0.16593072019E+02  0.27114504189E+03  0.27221353505E+03  0.41800000000E+01 0. -1.
         -5    1    3    3    0  502  0.17066278548E+03 -0.19801564765E+03  0.67703589741E+03  0.72576240040E+03  0.41800000000E+01 0. -1.
        -11    1    1    2    0    0 -0.21305927287E+02  0.61543576161E+02  0.31308383930E+03  0.31978593579E+03  0.00000000000E+00 0.  1.
         11    1    1    2    0    0 -0.16632071634E+03  0.15306514351E+03  0.44754812418E+03  0.50138891322E+03  0.00000000000E+00 0. -1.
</event>
<event>
 7    1  0.2380582E-009  0.1052542E+03  0.7561462E-02  0.1269620E+00
          1   -1    0    0  501    0  0.00000000000E+00  0.00000000000E+00  0.40936376483E+03  0.40936376483E+03  0.00000000000E+00 0. -1.
         -1   -1    0    0    0  501 -0.00000000000E+00 -0.00000000000E+00 -0.36473412062E+02  0.36473412062E+02  0.00000000000E+00 0.  1.
         25    2    1    2    0    0  0.17957057409E+02 -0.40429218003E+02  0.27450995775E+03  0.30489395743E+03  0.12509049042E+03 0.  0.
          5    1    3    3  502    0  0.35106615829E+02 -0.69915168609E+02  0.10001708472E+03  0.12704918305E+03  0.41800000000E+01 0. -1.
         -5    1    3    3    0  502 -0.17149558420E+02  0.29485950605E+02  0.17449287303E+03  0.17784477438E+03  0.41800000000E+01 0. -1.
        -11    1    1    2    0    0 -0.22692703736E+01  0.66947394947E+02  0.82532214617E+02  0.10629520087E+03  0.00000000000E+00 0.  1.
         11    1    1    2    0    0 -0.15687787035E+02 -0.26518176943E+02  0.15848180401E+02  0.34648018594E+02  0.00000000000E+00 0. -1.
</event>
<event>
 7    1  0.2380582E-009  0.2641023E+03  0.7561462E-02  0.1104703E+00
         -1   -1    0    0    0  501 -0.00000000000E+00  0.00000000000E+00  0.19442577413E+03  0.19442577413E+03  0.00000000000E+00 0.  1.
          1   -1    0    0  501    0  0.00000000000E+00 -0.00000000000E+00 -0.63023038252E+03  0.63023038252E+03  0.00000000000E+00 0. -1.
         25    2    1    2    0    0  0.23089900524E+03 -0.70555443676E+02  0.48089702999E+02  0.27613896547E+03  0.12509071693E+03 0.  0.
          5    1    3    3  502    0  0.18673761490E+03  0.12042973364E+01  0.42680798584E+02  0.19160247942E+03  0.41800000000E+01 0. -1.
         -5    1    3    3    0  502  0.44161390341E+02 -0.71759741012E+02  0.54089044151E+01  0.84536486052E+02  0.41800000000E+01 0. -1.
        -11    1    1    2    0    0 -0.66415629415E+02  0.64313430649E+02 -0.14887496277E+03  0.17524556408E+03  0.00000000000E+00 0.  1.
         11    1    1    2    0    0 -0.16448337583E+03  0.62420130268E+01 -0.33501934862E+03  0.37327162710E+03  0.00000000000E+00 0. -1.
</event>
<event>
 7    1  0.2380582E-009  0.1185804E+03  0.7561462E-02  0.1245458E+00
          3   -1    0    0  501    0  0.00000000000E+00  0.00000000000E+00  0.63783464939E+02  0.63783464939E+02  0.00000000000E+00 0. -1.
         -3   -1    0    0    0  501 -0.00000000000E+00 -0.00000000000E+00 -0.48638276114E+03  0.48638276114E+03  0.00000000000E+00 0.  1.
         25    2    1    2    0    0 -0.67892182816E+02 -0.51628319757E+02 -0.39536249418E+03  0.42336094491E+03  0.12509258964E+03 0.  0.
          5    1    3    3  502    0 -0.89092508337E+01  0.40437351846E+02 -0.12253376114E+03  0.12940845874E+03  0.41800000000E+01 0. -1.
         -5    1    3    3    0  502 -0.58982931982E+02 -0.92065671603E+02 -0.27282873304E+03  0.29395248617E+03  0.41800000000E+01 0. -1.
        -11    1    1    2    0    0  0.31884618833E+02  0.16849708201E+02  0.32721790007E+02  0.48695555504E+02  0.00000000000E+00 0. -1.
         11    1    1    2    0    0  0.36007563982E+02  0.34778611556E+02 -0.59958592036E+02  0.78109725673E+02  0.00000000000E+00 0.  1.
</event>
<event>
 7    1  0.2380582E-009  0.1091024E+03  0.7561462E-02  0.1262241E+00
         -1   -1    0    0    0  501 -0.00000000000E+00  0.00000000000E+00  0.14515777758E+02  0.14515777758E+02  0.00000000000E+00 0.  1.
          1   -1    0    0  501    0  0.00000000000E+00 -0.00000000000E+00 -0.11661069594E+04  0.11661069594E+04  0.00000000000E+00 0. -1.
         25    2    1    2    0    0 -0.26068572751E+01  0.43667984995E+02 -0.87850719453E+03  0.88844636798E+03  0.12509344228E+03 0.  0.
          5    1    3    3  502    0  0.28271717711E+02 -0.25820589790E+02 -0.54479972896E+03  0.54615950962E+03  0.41800000000E+01 0.  1.
         -5    1    3    3    0  502 -0.30878574986E+02  0.69488574785E+02 -0.33370746558E+03  0.34228685835E+03  0.41800000000E+01 0.  1.
        -11    1    1    2    0    0  0.34187464589E+02  0.14665567247E+02 -0.86854219624E+02  0.94485538916E+02  0.00000000000E+00 0. -1.
         11    1    1    2    0    0 -0.31580607314E+02 -0.58333552242E+02 -0.18622976750E+03  0.19769083029E+03  0.00000000000E+00 0.  1.
</event>
<event>
 7    1  0.2380582E-009  0.8022168E+02  0.7561462E-02  0.1328424E+00
         -2   -1    0    0    0  501 -0.00000000000E+00  0.00000000000E+00  0.14175964144E+03  0.14175964144E+03  0.00000000000E+00 0.  1.
          2   -1    0    0  501    0  0.00000000000E+00 -0.00000000000E+00 -0.11959342571E+03  0.11959342571E+03  0.00000000000E+00 0. -1.
         25    2    1    2    0    0 -0.27958593295E+02  0.11917645387E+02  0.87293636403E+02  0.15554477509E+03  0.12510109868E+03 0.  0.
          5    1    3    3  502    0  0.27809286876E+02 -0.14928837513E+02 -0.15555620725E+02  0.35435524014E+02  0.41800000000E+01 0. -1.
         -5    1    3    3    0  502 -0.55767880171E+02  0.26846482901E+02  0.10284925713E+03  0.12010925108E+03  0.41800000000E+01 0. -1.
        -11    1    1    2    0    0  0.46290094070E+02 -0.35696239600E+01 -0.10520223998E+02  0.47604518033E+02  0.00000000000E+00 0.  1.
         11    1    1    2    0    0 -0.18331500775E+02 -0.83480214273E+01 -0.54607196669E+02  0.58203774022E+02  0.00000000000E+00 0. -1.
</event>
<event>
 7    1  0.2380582E-009  0.2055353E+03  0.7561462E-02  0.1145151E+00
         -2   -1    0    0    0  501 -0.00000000000E+00  0.00000000000E+00  0.68073641032E+02  0.68073641032E+02  0.00000000000E+00 0.  1.
          2   -1    0    0  501    0  0.00000000000E+00 -0.00000000000E+00 -0.10943761037E+04  0.10943761037E+04  0.00000000000E+00 0. -1.
         25    2    1    2    0    0  0.18491318334E+03  0.88202797795E+01 -0.88471170473E+03  0.91248672650E+03  0.12508614169E+03 0.  0.
          5    1    3    3  502    0  0.10017714061E+03 -0.41354145897E+02 -0.63190197301E+03  0.64114210654E+03  0.41800000000E+01 0. -1.
         -5    1    3    3    0  502  0.84736042725E+02  0.50174425677E+02 -0.25280973172E+03  0.27134461996E+03  0.41800000000E+01 0. -1.
        -11    1    1    2    0    0 -0.16802440087E+03  0.21446457961E+02 -0.10369366408E+03  0.19860645966E+03  0.00000000000E+00 0.  1.
         11    1    1    2    0    0 -0.16888782465E+02 -0.30266737740E+02 -0.37897093889E+02  0.51356558606E+02  0.00000000000E+00 0. -1.
</event>
<event>
 7    1  0.2380582E-009  0.9170189E+02  0.7561462E-02  0.1298782E+00
         -2   -1    0    0    0  501 -0.00000000000E+00  0.00000000000E+00  0.97192368839E+02  0.97192368839E+02  0.00000000000E+00 0.  1.
          2   -1    0    0  501    0  0.00000000000E+00 -0.00000000000E+00 -0.15302768965E+03  0.15302768965E+03  0.00000000000E+00 0. -1.
         25    2    1    2    0    0 -0.15211810096E+00  0.43969847742E+02 -0.48464771302E+01  0.13267927940E+03  0.12508769800E+03 0.  0.
          5    1    3    3  502    0 -0.41571192707E+01  0.81209928874E+02 -0.30653799895E+02  0.87002655341E+02  0.41800000000E+01 0.  1.
         -5    1    3    3    0  502  0.40050011698E+01 -0.37240081132E+02  0.25807322765E+02  0.45676624059E+02  0.41800000000E+01 0.  1.
        -11    1    1    2    0    0 -0.13078223205E+02 -0.48558866302E+02  0.13077564708E+02  0.51961775542E+02  0.00000000000E+00 0.  1.
         11    1    1    2    0    0  0.13230341306E+02  0.45890185604E+01 -0.64066408385E+02  0.65579003544E+02  0.00000000000E+00 0. -1.
</event>
<event>
 7    1  0.2380582E-009  0.7467139E+02  0.7561462E-02  0.1344892E+00
         -1   -1    0    0    0  501 -0.00000000000E+00  0.00000000000E+00  0.31757903821E+03  0.31757903821E+03  0.00000000000E+00 0.  1.
          1   -1    0    0  501    0  0.00000000000E+00 -0.00000000000E+00 -0.39191088538E+02  0.39191088538E+02  0.00000000000E+00 0. -1.
         25    2    1    2    0    0 -0.30874777291E+01  0.21382110600E+02  0.17063398883E+03  0.21267375169E+03  0.12508972516E+03 0.  0.
          5    1    3    3  502    0  0.24434649136E+02  0.23938024683E+02  0.17994038871E+03  0.18321052643E+03  0.41800000000E+01 0. -1.
         -5    1    3    3    0  502 -0.27522126865E+02 -0.25559140827E+01 -0.93063998820E+01  0.29463225260E+02  0.41800000000E+01 0. -1.
        -11    1    1    2    0    0 -0.26839084829E+02 -0.42524273123E+02  0.31075319222E+02  0.59112822161E+02  0.00000000000E+00 0. -1.
         11    1    1    2    0    0  0.29926562558E+02  0.21142162523E+02  0.76678641624E+02  0.84983552903E+02  0.00000000000E+00 0.  1.
</event>
<event>
 7    1  0.2380582E-009  0.9817716E+02  0.7561462E-02  0.1284176E+00
         -2   -1    0    0    0  501 -0.00000000000E+00  0.00000000000E+00  0.39287549226E+02  0.39287549226E+02  0.00000000000E+00 0.  1.
          2   -1    0    0  501    0  0.00000000000E+00 -0.00000000000E+00 -0.63685399086E+03  0.63685399086E+03  0.00000000000E+00 0. -1.
         25    2    1    2    0    0 -0.82024820743E+02  0.69555591136E+01 -0.49357832192E+03  0.51579426611E+03  0.12509082327E+03 0.  0.
          5    1    3    3  502    0 -0.96016662154E+02  0.13614629829E+02 -0.20552300015E+03  0.22729217661E+03  0.41800000000E+01 0.  1.
         -5    1    3    3    0  502  0.13991841411E+02 -0.66590707157E+01 -0.28805532177E+03  0.28850208950E+03  0.41800000000E+01 0.  1.
        -11    1    1    2    0    0  0.55683597242E+02  0.10927654728E+01 -0.31149576450E+01  0.55781359784E+02  0.00000000000E+00 0.  1.
         11    1    1    2    0    0  0.26341223501E+02 -0.80483245865E+01 -0.10087316208E+03  0.10456591419E+03  0.00000000000E+00 0. -1.
</event>
<event>
 7    1  0.2380582E-009  0.8979474E+02  0.7561462E-02  0.1303350E+00
         -1   -1    0    0    0  501 -0.00000000000E+00  0.00000000000E+00  0.18888264703E+03  0.18888264703E+03  0.00000000000E+00 0.  1.
          1   -1    0    0  501    0  0.00000000000E+00 -0.00000000000E+00 -0.94739271219E+02  0.94739271219E+02  0.00000000000E+00 0. -1.
         25    2    1    2    0    0  0.35659765512E+02  0.13854374295E+02  0.16708445486E+02  0.13187251003E+03  0.12509046402E+03 0.  0.
          5    1    3    3  502    0  0.16243240653E+02  0.27013821186E+02 -0.50996706615E+02  0.60097636289E+02  0.41800000000E+01 0. -1.
         -5    1    3    3    0  502  0.19416524858E+02 -0.13159446891E+02  0.67705152101E+02  0.71774873744E+02  0.41800000000E+01 0. -1.
        -11    1    1    2    0    0  0.39252424235E+02 -0.27360289467E+02  0.53902177176E+02  0.72074842714E+02  0.00000000000E+00 0.  1.
         11    1    1    2    0    0 -0.74912189747E+02  0.13505915171E+02  0.23532753152E+02  0.79674565504E+02  0.00000000000E+00 0. -1.
</event>
<event>
 7    1  0.2380582E-009  0.1007593E+03  0.7561462E-02  0.1278707E+00
         -4   -1    0    0    0  501 -0.00000000000E+00  0.00000000000E+00  0.25933953017E+03  0.25933953017E+03  0.00000000000E+00 0.  1.
          4   -1    0    0  501    0  0.00000000000E+00 -0.00000000000E+00 -0.46988436760E+02  0.46988436760E+02  0.00000000000E+00 0. -1.
         25    2    1    2    0    0  0.94173714393E+01 -0.57762776103E+01  0.93347084497E+02  0.15646655701E+03  0.12508418369E+03 0.  0.
          5    1    3    3  502    0 -0.10155945328E+01  0.55095023056E+02  0.16264826506E+02  0.57606509867E+02  0.41800000000E+01 0. -1.
         -5    1    3    3    0  502  0.10432965972E+02 -0.60871300666E+02  0.77082257990E+02  0.98860047141E+02  0.41800000000E+01 0. -1.
        -11    1    1    2    0    0  0.37241366760E+02  0.58432146236E+01  0.82208895801E+02  0.90439842459E+02  0.00000000000E+00 0.  1.
         11    1    1    2    0    0 -0.46658738199E+02 -0.66937013225E-01  0.36795113116E+02  0.59421567466E+02  0.00000000000E+00 0. -1.
</event>
<event>
 7    1  0.2380582E-009  0.1117734E+03  0.7561462E-02  0.1257321E+00
          2   -1    0    0  501    0  0.00000000000E+00  0.00000000000E+00  0.15840502971E+03  0.15840502971E+03  0.00000000000E+00 0. -1.
         -2   -1    0    0    0  501 -0.00000000000E+00 -0.00000000000E+00 -0.95916935207E+02  0.95916935207E+02  0.00000000000E+00 0.  1.
         25    2    1    2    0    0  0.50644123836E+02  0.16790767641E+01  0.40261609823E+02  0.14083736415E+03  0.12508604773E+03 0.  0.
          5    1    3    3  502    0 -0.25055472584E+02 -0.21620389864E+02 -0.22039240003E+02  0.39980225915E+02  0.41800000000E+01 0. -1.
         -5    1    3    3    0  502  0.75699596420E+02  0.23299466628E+02  0.62300849826E+02  0.10085713823E+03  0.41800000000E+01 0. -1.
        -11    1    1    2    0    0  0.46095855197E+01 -0.42139993063E+02  0.13255741691E+02  0.44415560131E+02  0.00000000000E+00 0.  1.
         11    1    1    2    0    0 -0.55253709355E+02  0.40460916299E+02  0.89707429911E+01  0.69069040641E+02  0.00000000000E+00 0. -1.
</event>
<event>
 7    1  0.2380582E-009  0.1061384E+03  0.7561462E-02  0.1267893E+00
         -2   -1    0    0    0  501 -0.00000000000E+00  0.00000000000E+00  0.12068890811E+03  0.12068890811E+03  0.00000000000E+00 0.  1.
          2   -1    0    0  501    0  0.00000000000E+00 -0.00000000000E+00 -0.15059204968E+03  0.15059204968E+03  0.00000000000E+00 0. -1.
         25    2    1    2    0    0  0.96695050542E+01  0.76264757132E+02 -0.32544395969E+02  0.15038684606E+03  0.12508898133E+03 0.  0.
          5    1    3    3  502    0  0.67674807495E+01  0.83264583982E+02 -0.71772237385E+02  0.11021577111E+03  0.41800000000E+01 0.  1.
         -5    1    3    3    0  502  0.29020243047E+01 -0.69998268503E+01  0.39227841416E+02  0.40171074956E+02  0.41800000000E+01 0.  1.
        -11    1    1    2    0    0  0.57507280357E+01 -0.95304744398E+02  0.80039253233E+01  0.95812984498E+02  0.00000000000E+00 0.  1.
         11    1    1    2    0    0 -0.15420233090E+02  0.19039987267E+02 -0.53626709186E+01  0.25081127229E+02  0.00000000000E+00 0. -1.
</event>
<event>
 7    1  0.2380582E-009  0.9953188E+02  0.7561462E-02  0.1281283E+00
          1   -1    0    0  501    0  0.00000000000E+00  0.00000000000E+00  0.66716815024E+03  0.66716815024E+03  0.00000000000E+00 0. -1.
         -1   -1    0    0    0  501 -0.00000000000E+00 -0.00000000000E+00 -0.33022006951E+02  0.33022006951E+02  0.00000000000E+00 0.  1.
         25    2    1    2    0    0  0.59484412687E+02  0.68074895600E+02  0.45078354600E+03  0.47647196746E+03  0.12508854332E+03 0.  0.
          5    1    3    3  502    0  0.21659088909E+02  0.11545723475E+02  0.48549592697E+01  0.25366570372E+02  0.41800000000E+01 0.  1.
         -5    1    3    3    0  502  0.37825323778E+02  0.56529172125E+02  0.44592858673E+03  0.45110539709E+03  0.41800000000E+01 0.  1.
        -11    1    1    2    0    0 -0.57091554695E+02 -0.24081754571E+02  0.16451678223E+03  0.17579860112E+03  0.00000000000E+00 0. -1.
         11    1    1    2    0    0 -0.23928579920E+01 -0.43993141029E+02  0.18845815057E+02  0.47919588606E+02  0.00000000000E+00 0.  1.
</event>
<event>
 7    1  0.2380582E-009  0.1547620E+03  0.7561462E-02  0.1194741E+00
         -2   -1    0    0    0  501 -0.00000000000E+00  0.00000000000E+00  0.22764470520E+03  0.22764470520E+03  0.00000000000E+00 0. -1.
          2   -1    0    0  501    0  0.00000000000E+00 -0.00000000000E+00 -0.52023802141E+03  0.52023802141E+03  0.00000000000E+00 0.  1.
         25    2    1    2    0    0 -0.12086682611E+03 -0.58691975632E+02  0.17473604880E+03  0.25344328919E+03  0.12508907398E+03 0.  0.
          5    1    3    3  502    0 -0.76027909877E+02  0.21029123368E+02  0.12857961928E+03  0.15090612315E+03  0.41800000000E+01 0. -1.
         -5    1    3    3    0  502 -0.44838916232E+02 -0.79721099000E+02  0.46156429520E+02  0.10253716605E+03  0.41800000000E+01 0. -1.
        -11    1    1    2    0    0  0.69632027214E+02  0.52820959563E+02 -0.40103841552E+03  0.41045156073E+03  0.00000000000E+00 0.  1.
         11    1    1    2    0    0  0.51234798895E+02  0.58710160696E+01 -0.66290949488E+02  0.83987876694E+02  0.00000000000E+00 0. -1.
</event>
<event>
 7    1  0.2380582E-009  0.1076165E+03  0.7561462E-02  0.1265048E+00
         -2   -1    0    0    0  501 -0.00000000000E+00  0.00000000000E+00  0.26631067469E+02  0.26631067469E+02  0.00000000000E+00 0. -1.
          2   -1    0    0  501    0  0.00000000000E+00 -0.00000000000E+00 -0.68846801319E+03  0.68846801319E+03  0.00000000000E+00 0.  1.
         25    2    1    2    0    0  0.57888659978E+02  0.34166003475E+02 -0.24705724875E+03  0.28497010727E+03  0.12510901299E+03 0.  0.
          5    1    3    3  502    0  0.25003175969E+02  0.59633246453E+02 -0.23144833667E+03  0.24034784758E+03  0.41800000000E+01 0. -1.
         -5    1    3    3    0  502  0.32885484009E+02 -0.25467242978E+02 -0.15608912082E+02  0.44622259690E+02  0.41800000000E+01 0. -1.
        -11    1    1    2    0    0  0.14916442659E+02 -0.32554392538E+02 -0.82056641618E+02  0.89529778112E+02  0.00000000000E+00 0. -1.
         11    1    1    2    0    0 -0.72805102637E+02 -0.16116109367E+01 -0.33272305535E+03  0.34059919528E+03  0.00000000000E+00 0.  1.
</event>
<event>
 7    1  0.2380582E-009  0.1563162E+03  0.7561462E-02  0.1192920E+00
         -3   -1    0    0    0  501 -0.00000000000E+00  0.00000000000E+00  0.68901510510E+02  0.68901510510E+02  0.00000000000E+00 0.  1.
          3   -1    0    0  501    0  0.00000000000E+00 -0.00000000000E+00 -0.41067862079E+03  0.41067862079E+03  0.00000000000E+00 0. -1.
         25    2    1    2    0    0 -0.51693368416E+02 -0.10908413783E+03 -0.12169265287E+03  0.21219814054E+03  0.12508955041E+03 0.  0.
          5    1    3    3  502    0 -0.86769905516E+02 -0.10023484213E+03 -0.73023966948E+02  0.15141338194E+03  0.41800000000E+01 0. -1.
         -5    1    3    3    0  502  0.35076537100E+02 -0.88492956952E+01 -0.48668685923E+02  0.60784758606E+02  0.41800000000E+01 0. -1.
        -11    1    1    2    0    0 -0.68181870382E+01 -0.92938030947E+01 -0.98759546483E+00  0.11568828603E+02  0.00000000000E+00 0.  1.
         11    1    1    2    0    0  0.58511555454E+02  0.11837794092E+03 -0.21909686194E+03  0.25581316215E+03  0.00000000000E+00 0. -1.
</event>
<event>
 7    1  0.2380582E-009  0.2087708E+03  0.7561462E-02  0.1142543E+00
          2   -1    0    0  501    0  0.00000000000E+00  0.00000000000E+00  0.10750974408E+04  0.10750974408E+04  0.00000000000E+00 0. -1.
         -2   -1    0    0    0  501 -0.00000000000E+00 -0.00000000000E+00 -0.60160231668E+02  0.60160231668E+02  0.00000000000E+00 0.  1.
         25    2    1    2    0    0 -0.40890577083E+02  0.19578101955E+03  0.27014814805E+03  0.35864718378E+03  0.12508210752E+03 0.  0.
          5    1    3    3  502    0 -0.22895282819E+02  0.12825831802E+03  0.25592888290E+03  0.28721325809E+03  0.41800000000E+01 0. -1.
         -5    1    3    3    0  502 -0.17995294264E+02  0.67522701532E+02  0.14219265150E+02  0.71433925688E+02  0.41800000000E+01 0. -1.
        -11    1    1    2    0    0 -0.26155470329E+02 -0.68517193675E+02  0.19564526731E+03  0.20893966852E+03  0.00000000000E+00 0.  1.
         11    1    1    2    0    0  0.67046047412E+02 -0.12726382588E+03  0.54914379380E+03  0.56767082021E+03  0.00000000000E+00 0. -1.
</event>
<event>
 7    1  0.2380582E-009  0.8729766E+02  0.7561462E-02  0.1309531E+00
         -1   -1    0    0    0  501 -0.00000000000E+00  0.00000000000E+00  0.18510288547E+02  0.18510288547E+02  0.00000000000E+00 0.  1.
          1   -1    0    0  501    0  0.00000000000E+00 -0.00000000000E+00 -0.84077090656E+03  0.84077090656E+03  0.00000000000E+00 0. -1.
         25    2    1    2    0    0  0.56331288530E+02  0.62772510778E+01 -0.71908168177E+03  0.73207806657E+03  0.12508881865E+03 0.  0.
          5    1    3    3  502    0  0.35692567336E+02 -0.47829789003E+02 -0.55125920709E+03  0.55449601792E+03  0.41800000000E+01 0. -1.
         -5    1    3    3    0  502  0.20638721194E+02  0.54107040081E+02 -0.16782247467E+03  0.17758204866E+03  0.41800000000E+01 0. -1.
        -11    1    1    2    0    0 -0.41417567541E+02 -0.54229919760E+01 -0.27376802882E+02  0.49943098413E+02  0.00000000000E+00 0.  1.
         11    1    1    2    0    0 -0.14913720989E+02 -0.85425910177E+00 -0.75802133362E+02  0.77260030123E+02  0.00000000000E+00 0. -1.
</event>
<event>
 7    1  0.2380582E-009  0.2095142E+03  0.7561462E-02  0.1141951E+00
         -1   -1    0    0    0  501 -0.00000000000E+00  0.00000000000E+00  0.98838533676E+02  0.98838533676E+02  0.00000000000E+00 0.  1.
          1   -1    0    0  501    0  0.00000000000E+00 -0.00000000000E+00 -0.54354829477E+03  0.54354829477E+03  0.00000000000E+00 0. -1.
         25    2    1    2    0    0  0.16828058688E+03  0.11171577211E+03 -0.27294549782E+03  0.36186272903E+03  0.12508645098E+03 0.  0.
          5    1    3    3  502    0  0.25067538241E+01  0.91552395231E+01  0.12460986524E+02  0.16212674382E+02  0.41800000000E+01 0.  1.
         -5    1    3    3    0  502  0.16577383306E+03  0.10256053259E+03 -0.28540648434E+03  0.34565005465E+03  0.41800000000E+01 0.  1.
        -11    1    1    2    0    0 -0.38150538982E+02 -0.65089048754E+02 -0.26407373202E+02  0.79933705355E+02  0.00000000000E+00 0.  1.
         11    1    1    2    0    0 -0.13013004790E+03 -0.46626723360E+02 -0.14535689007E+03  0.20059039406E+03  0.00000000000E+00 0. -1.
</event>
<event>
 7    1  0.2380582E-009  0.8576615E+02  0.7561462E-02  0.1313441E+00
          2   -1    0    0  501    0  0.00000000000E+00  0.00000000000E+00  0.56988281475E+03  0.56988281475E+03  0.00000000000E+00 0. -1.
         -2   -1    0    0    0  501 -0.00000000000E+00 -0.00000000000E+00 -0.27019812169E+02  0.27019812169E+02  0.00000000000E+00 0.  1.
         25    2    1    2    0    0 -0.20126688411E+02 -0.50559329484E+02  0.24673113517E+03  0.28193153497E+03  0.12509119858E+03 0.  0.
          5    1    3    3  502    0  0.10354297204E+02 -0.53557083068E+02  0.24493164438E+03  0.25096723976E+03  0.41800000000E+01 0.  1.
         -5    1    3    3    0  502 -0.30480985615E+02  0.29977535842E+01  0.17994907985E+01  0.30964295208E+02  0.41800000000E+01 0.  1.
        -11    1    1    2    0    0 -0.80095971433E+01 -0.13639742932E+02  0.67095142896E+01  0.17181787324E+02  0.00000000000E+00 0.  1.
         11    1    1    2    0    0  0.28136285554E+02  0.64199072416E+02  0.28942235312E+03  0.29778930462E+03  0.00000000000E+00 0. -1.
</event>
<event>
 7    1  0.2380582E-009  0.8867086E+02  0.7561462E-02  0.1306103E+00
          2   -1    0    0  501    0  0.00000000000E+00  0.00000000000E+00  0.11845180000E+03  0.11845180000E+03  0.00000000000E+00 0. -1.
         -2   -1    0    0    0  501 -0.00000000000E+00 -0.00000000000E+00 -0.15022353577E+03  0.15022353577E+03  0.00000000000E+00 0.  1.
         25    2    1    2    0    0 -0.25217092203E+02  0.33717293854E+02 -0.82119344680E+02  0.15545161117E+03  0.12509539960E+03 0.  0.
          5    1    3    3  502    0 -0.47851554721E+02  0.71346558855E+02 -0.41542016216E+02  0.95516041904E+02  0.41800000000E+01 0.  1.
         -5    1    3    3    0  502  0.22634462517E+02 -0.37629265001E+02 -0.40577328465E+02  0.59935569267E+02  0.41800000000E+01 0.  1.
        -11    1    1    2    0    0 -0.46772638952E+00 -0.16028421648E+02  0.72960394569E+02  0.74701728522E+02  0.00000000000E+00 0. -1.
         11    1    1    2    0    0  0.25684818593E+02 -0.17688872206E+02 -0.22612785666E+02  0.38521996076E+02  0.00000000000E+00 0.  1.
</event>
<event>
 7    1  0.2380582E-009  0.7936946E+02  0.7561462E-02  0.1330850E+00
          3   -1    0    0  501    0  0.00000000000E+00  0.00000000000E+00  0.16638257557E+02  0.16638257557E+02  0.00000000000E+00 0. -1.
         -3   -1    0    0    0  501 -0.00000000000E+00 -0.00000000000E+00 -0.79568109077E+03  0.79568109077E+03  0.00000000000E+00 0.  1.
         25    2    1    2    0    0  0.30410718241E+02 -0.22323930981E+02 -0.39571861437E+03  0.41673046997E+03  0.12509153915E+03 0.  0.
          5    1    3    3  502    0  0.32953935684E+02  0.52732850766E+01 -0.38539834217E+03  0.38686318507E+03  0.41800000000E+01 0. -1.
         -5    1    3    3    0  502 -0.25432174425E+01 -0.27597216058E+02 -0.10320272191E+02  0.29867284898E+02  0.41800000000E+01 0. -1.
        -11    1    1    2    0    0  0.29035752419E+02 -0.83106112684E+01 -0.14154672841E+03  0.14473291783E+03  0.00000000000E+00 0.  1.
         11    1    1    2    0    0 -0.59446470660E+02  0.30634542250E+02 -0.24177749043E+03  0.25085596053E+03  0.00000000000E+00 0. -1.
</event>
<event>
 7    1  0.2380582E-009  0.7594560E+02  0.7561462E-02  0.1340968E+00
         -2   -1    0    0    0  501 -0.00000000000E+00  0.00000000000E+00  0.59923638795E+03  0.59923638795E+03  0.00000000000E+00 0.  1.
          2   -1    0    0  501    0  0.00000000000E+00 -0.00000000000E+00 -0.21176802713E+02  0.21176802713E+02  0.00000000000E+00 0. -1.
         25    2    1    2    0    0 -0.13749260141E+02  0.66024120435E+00  0.40506682777E+03  0.42416405530E+03  0.12508610145E+03 0.  0.
          5    1    3    3  502    0  0.13549879611E+01  0.29063392938E+02  0.15464564153E+02  0.33213580745E+02  0.41800000000E+01 0. -1.
         -5    1    3    3    0  502 -0.15104248102E+02 -0.28403151734E+02  0.38960226362E+03  0.39095047456E+03  0.41800000000E+01 0. -1.
        -11    1    1    2    0    0  0.41274764630E+02  0.28345155910E+02  0.11862916084E+03  0.12876308423E+03  0.00000000000E+00 0.  1.
         11    1    1    2    0    0 -0.27525504488E+02 -0.29005397114E+02  0.54363596621E+02  0.67486051126E+02  0.00000000000E+00 0. -1.
</event>
<event>
 7    1  0.2380582E-009  0.2255919E+03  0.7561462E-02  0.1129781E+00
         -1   -1    0    0    0  501 -0.00000000000E+00  0.00000000000E+00  0.56710531198E+02  0.56710531198E+02  0.00000000000E+00 0.  1.
          1   -1    0    0  501    0  0.00000000000E+00 -0.00000000000E+00 -0.95833866948E+03  0.95833866948E+03  0.00000000000E+00 0. -1.
         25    2    1    2    0    0 -0.24584242086E+02  0.19546826795E+03 -0.59210754054E+03  0.63643985010E+03  0.12510841097E+03 0.  0.
          5    1    3    3  502    0 -0.17149141304E+02 -0.14728694050E+02 -0.60647672911E+02  0.64858616278E+02  0.41800000000E+01 0.  1.
         -5    1    3    3    0  502 -0.74351007824E+01  0.21019696200E+03 -0.53145986763E+03  0.57158123382E+03  0.41800000000E+01 0.  1.
        -11    1    1    2    0    0  0.48141736921E+02 -0.46250033167E+02 -0.10275939777E+03  0.12254054934E+03  0.00000000000E+00 0.  1.
         11    1    1    2    0    0 -0.23557494835E+02 -0.14921823478E+03 -0.20676119997E+03  0.25606880124E+03  0.00000000000E+00 0. -1.
</event>
<event>
 7    1  0.2380582E-009  0.1021781E+03  0.7561462E-02  0.1275781E+00
         -2   -1    0    0    0  501 -0.00000000000E+00  0.00000000000E+00  0.89555875691E+02  0.89555875691E+02  0.00000000000E+00 0.  1.
          2   -1    0    0  501    0  0.00000000000E+00 -0.00000000000E+00 -0.14256228180E+03  0.14256228180E+03  0.00000000000E+00 0. -1.
         25    2    1    2    0    0  0.57925810568E+00  0.30339111127E+02 -0.22655826258E+02  0.13069751468E+03  0.12509099359E+03 0.  0.
          5    1    3    3  502    0 -0.54676492970E+02  0.33229888934E+02  0.12060710086E+02  0.65243218267E+02  0.41800000000E+01 0. -1.
         -5    1    3    3    0  502  0.55255751076E+02 -0.28907778064E+01 -0.34716536344E+02  0.65454296414E+02  0.41800000000E+01 0. -1.
        -11    1    1    2    0    0 -0.39022009115E+02 -0.66267868364E+01 -0.38848809498E+02  0.55460449859E+02  0.00000000000E+00 0. -1.
         11    1    1    2    0    0  0.38442751010E+02 -0.23712324291E+02  0.84982296515E+01  0.45960192947E+02  0.00000000000E+00 0.  1.
</event>
<event>
 7    1  0.2380582E-009  0.1740114E+03  0.7561462E-02  0.1173728E+00
          3   -1    0    0  501    0  0.00000000000E+00  0.00000000000E+00  0.11782561305E+04  0.11782561305E+04  0.00000000000E+00 0. -1.
         -3   -1    0    0    0  501 -0.00000000000E+00 -0.00000000000E+00 -0.28976794884E+02  0.28976794884E+02  0.00000000000E+00 0.  1.
         25    2    1    2    0    0 -0.26382421756E+02 -0.14672320132E+03  0.63491695419E+03  0.66407015309E+03  0.12508357016E+03 0.  0.
          5    1    3    3  502    0  0.46076060432E+02 -0.48683183645E+02  0.30546633990E+03  0.31276223065E+03  0.41800000000E+01 0.  1.
         -5    1    3    3    0  502 -0.72458482187E+02 -0.98040017679E+02  0.32945061430E+03  0.35130792244E+03  0.41800000000E+01 0.  1.
        -11    1    1    2    0    0 -0.17035289872E+02  0.51031076462E+02  0.29578921022E+03  0.30064202758E+03  0.00000000000E+00 0.  1.
         11    1    1    2    0    0  0.43417711627E+02  0.95692124862E+02  0.21857317119E+03  0.24252074469E+03  0.00000000000E+00 0. -1.
</event>
<event>
 7    1  0.2380582E-009  0.1045206E+03  0.7561462E-02  0.1271067E+00
          3   -1    0    0  501    0  0.00000000000E+00  0.00000000000E+00  0.52543471656E+02  0.52543471656E+02  0.00000000000E+00 0.  1.
         -3   -1    0    0    0  501 -0.00000000000E+00 -0.00000000000E+00 -0.29652798993E+03  0.29652798993E+03  0.00000000000E+00 0. -1.
         25    2    1    2    0    0 -0.82242788077E+01 -0.30152016126E+01 -0.50400691093E+02  0.13514466430E+03  0.12508845040E+03 0.  0.
          5    1    3    3  502    0 -0.59359136706E+02  0.19183750954E+02 -0.48641662386E+02  0.79214942598E+02  0.41800000000E+01 0. -1.
         -5    1    3    3    0  502  0.51134857898E+02 -0.22198952567E+02 -0.17590287070E+01  0.55929721699E+02  0.41800000000E+01 0. -1.
        -11    1    1    2    0    0  0.47758487387E+02 -0.10383218062E+02 -0.93958986874E+02  0.10591022401E+03  0.00000000000E+00 0.  1.
         11    1    1    2    0    0 -0.39534208580E+02  0.13398419675E+02 -0.99624840310E+02  0.10801657329E+03  0.00000000000E+00 0. -1.
</event>
<event>
 7    1  0.2380582E-009  0.1249613E+03  0.7561462E-02  0.1235130E+00
         -1   -1    0    0    0  501 -0.00000000000E+00  0.00000000000E+00  0.22154196684E+03  0.22154196684E+03  0.00000000000E+00 0.  1.
          1   -1    0    0  501    0  0.00000000000E+00 -0.00000000000E+00 -0.86244866458E+02  0.86244866458E+02  0.00000000000E+00 0. -1.
         25    2    1    2    0    0 -0.44429063057E+02  0.71230111869E+02  0.60525790908E+02  0.16235241581E+03  0.12508902858E+03 0.  0.
          5    1    3    3  502    0 -0.67756484333E+02  0.14294854336E+02 -0.83811514296E+01  0.69878466847E+02  0.41800000000E+01 0. -1.
         -5    1    3    3    0  502  0.23327421275E+02  0.56935257533E+02  0.68906942337E+02  0.92473948958E+02  0.41800000000E+01 0. -1.
        -11    1    1    2    0    0  0.69793769288E+02 -0.53209843478E+02  0.73195045925E+02  0.11428023636E+03  0.00000000000E+00 0.  1.
         11    1    1    2    0    0 -0.25364706231E+02 -0.18020268390E+02  0.15762635458E+01  0.31154181129E+02  0.00000000000E+00 0. -1.
</event>
<event>
 7    1  0.2380582E-009  0.1225578E+03  0.7561462E-02  0.1238936E+00
          2   -1    0    0  501    0  0.00000000000E+00  0.00000000000E+00  0.35593706370E+03  0.35593706370E+03  0.00000000000E+00 0. -1.
         -2   -1    0    0    0  501 -0.00000000000E+00 -0.00000000000E+00 -0.54325277871E+02  0.54325277871E+02  0.00000000000E+00 0.  1.
         25    2    1    2    0    0 -0.67312853225E+02  0.51917533959E+02  0.12996717713E+03  0.19941183094E+03  0.12508861118E+03 0.  0.
          5    1    3    3  502    0 -0.39770177803E+01 -0.31145546256E+02 -0.11806017764E+01  0.31697443786E+02  0.41800000000E+01 0.  1.
         -5    1    3    3    0  502 -0.63335835445E+02  0.83063080216E+02  0.13114777891E+03  0.16771438716E+03  0.41800000000E+01 0.  1.
        -11    1    1    2    0    0  0.42062797379E+02  0.89497263651E+01  0.24189435233E+02  0.49340706342E+02  0.00000000000E+00 0. -1.
         11    1    1    2    0    0  0.25250055846E+02 -0.60867260324E+02  0.14745517346E+03  0.16150980428E+03  0.00000000000E+00 0.  1.
</event>
<event>
 7    1  0.2380582E-009  0.9096027E+02  0.7561462E-02  0.1300543E+00
         -2   -1    0    0    0  501 -0.00000000000E+00  0.00000000000E+00  0.27818298299E+02  0.27818298299E+02  0.00000000000E+00 0.  1.
          2   -1    0    0  501    0  0.00000000000E+00 -0.00000000000E+00 -0.60563756432E+03  0.60563756432E+03  0.00000000000E+00 0. -1.
         25    2    1    2    0    0  0.23925745095E+02  0.66742960852E+02 -0.36283569034E+03  0.39028909596E+03  0.12509506839E+03 0.  0.
          5    1    3    3  502    0 -0.30615101927E+02  0.29922461086E+02 -0.33780264577E+02  0.54692017867E+02  0.41800000000E+01 0.  1.
         -5    1    3    3    0  502  0.54540847022E+02  0.36820499766E+02 -0.32905542577E+03  0.33559707809E+03  0.41800000000E+01 0.  1.
        -11    1    1    2    0    0 -0.97973653082E+01 -0.50497633092E+02 -0.21557696916E+03  0.22162903453E+03  0.00000000000E+00 0. -1.
         11    1    1    2    0    0 -0.14128379786E+02 -0.16245327760E+02  0.59339348318E+00  0.21537732129E+02  0.00000000000E+00 0.  1.
</event>
<event>
 7    1  0.2380582E-009  0.1342440E+03  0.7561462E-02  0.1221291E+00
         -2   -1    0    0    0  501 -0.00000000000E+00  0.00000000000E+00  0.48797233506E+03  0.48797233506E+03  0.00000000000E+00 0.  1.
          2   -1    0    0  501    0  0.00000000000E+00 -0.00000000000E+00 -0.68185977233E+02  0.68185977233E+02  0.00000000000E+00 0. -1.
         25    2    1    2    0    0 -0.10492970826E+03 -0.40204607358E+01  0.38412223553E+03  0.41740068946E+03  0.12508811274E+03 0.  0.
          5    1    3    3  502    0 -0.12085031188E+03 -0.35780108609E+02  0.32041689949E+03  0.34433918733E+03  0.41800000000E+01 0.  1.
         -5    1    3    3    0  502  0.15920603616E+02  0.31759647873E+02  0.63705336040E+02  0.73061502123E+02  0.41800000000E+01 0.  1.
        -11    1    1    2    0    0  0.74269432994E+02 -0.55914617365E+01  0.62238186502E+02  0.97060831342E+02  0.00000000000E+00 0.  1.
         11    1    1    2    0    0  0.30660275270E+02  0.96119224722E+01 -0.26574064201E+02  0.41696791500E+02  0.00000000000E+00 0. -1.
</event>
<event>
 7    1  0.2380582E-009  0.1988568E+03  0.7561462E-02  0.1150707E+00
          2   -1    0    0  501    0  0.00000000000E+00  0.00000000000E+00  0.57264529276E+02  0.57264529276E+02  0.00000000000E+00 0. -1.
         -2   -1    0    0    0  501 -0.00000000000E+00 -0.00000000000E+00 -0.77287752609E+03  0.77287752609E+03  0.00000000000E+00 0.  1.
         25    2    1    2    0    0 -0.13446382619E+03 -0.11847147718E+03 -0.40215982987E+03  0.45770466691E+03  0.12508006191E+03 0.  0.
          5    1    3    3  502    0 -0.14631237907E+03 -0.59162257609E+02 -0.29451935945E+03  0.33416554354E+03  0.41800000000E+01 0.  1.
         -5    1    3    3    0  502  0.11848552878E+02 -0.59309219573E+02 -0.10764047042E+03  0.12353912337E+03  0.41800000000E+01 0.  1.
        -11    1    1    2    0    0  0.58702922511E+02  0.52326837345E+02 -0.22554397319E+03  0.23886024127E+03  0.00000000000E+00 0. -1.
         11    1    1    2    0    0  0.75760903676E+02  0.66144639837E+02 -0.87909193759E+02  0.13357714719E+03  0.00000000000E+00 0.  1.
</event>
<event>
 7    1  0.2380582E-009  0.1161530E+03  0.7561462E-02  0.1249582E+00
          1   -1    0    0  501    0  0.00000000000E+00  0.00000000000E+00  0.53772544744E+03  0.53772544744E+03  0.00000000000E+00 0. -1.
         -1   -1    0    0    0  501 -0.00000000000E+00 -0.00000000000E+00 -0.37211726749E+02  0.37211726749E+02  0.00000000000E+00 0.  1.
         25    2    1    2    0    0  0.36587846461E+02 -0.59338176678E+02  0.15635976630E+03  0.21202190159E+03  0.12508085592E+03 0.  0.
          5    1    3    3  502    0  0.44833548911E+02  0.27126453091E+02  0.36735746945E+02  0.64131732152E+02  0.41800000000E+01 0. -1.
         -5    1    3    3    0  502 -0.82457024508E+01 -0.86464629769E+02  0.11962401935E+03  0.14789016944E+03  0.41800000000E+01 0. -1.
        -11    1    1    2    0    0  0.14384468579E+02  0.31669434046E+02  0.38826965435E+02  0.52128679573E+02  0.00000000000E+00 0.  1.
         11    1    1    2    0    0 -0.50972315040E+02  0.27668742632E+02  0.30532698896E+03  0.31078659303E+03  0.00000000000E+00 0. -1.
</event>
<event>
 7    1  0.2380582E-009  0.1110701E+03  0.7561462E-02  0.1258601E+00
          3   -1    0    0  501    0  0.00000000000E+00  0.00000000000E+00  0.10747477534E+03  0.10747477534E+03  0.00000000000E+00 0. -1.
         -3   -1    0    0    0  501 -0.00000000000E+00 -0.00000000000E+00 -0.27292758088E+03  0.27292758088E+03  0.00000000000E+00 0.  1.
         25    2    1    2    0    0 -0.36376257049E+02  0.54146914110E+02 -0.21467766362E+03  0.25688233533E+03  0.12508762755E+03 0.  0.
          5    1    3    3  502    0 -0.53862227111E+02 -0.41504590244E+01 -0.29035074184E+02  0.61472544704E+02  0.41800000000E+01 0. -1.
         -5    1    3    3    0  502  0.17485970062E+02  0.58297373134E+02 -0.18564258943E+03  0.19540979063E+03  0.41800000000E+01 0. -1.
        -11    1    1    2    0    0 -0.15877244192E+02  0.13936471339E+02  0.28061809733E+02  0.35125165936E+02  0.00000000000E+00 0.  1.
         11    1    1    2    0    0  0.52253501242E+02 -0.68083385449E+02  0.21163048345E+02  0.88394854949E+02  0.00000000000E+00 0. -1.
</event>
<event>
 7    1  0.2380582E-009  0.8335361E+02  0.7561462E-02  0.1319795E+00
         -4   -1    0    0    0  501 -0.00000000000E+00  0.00000000000E+00  0.16145443215E+03  0.16145443215E+03  0.00000000000E+00 0.  1.
          4   -1    0    0  501    0  0.00000000000E+00 -0.00000000000E+00 -0.12731113193E+03  0.12731113193E+03  0.00000000000E+00 0. -1.
         25    2    1    2    0    0 -0.38634034607E+02  0.58613975903E+01  0.10529964657E+03  0.16811601456E+03  0.12509210276E+03 0.  0.
          5    1    3    3  502    0 -0.22611911492E+02  0.32705939471E+02 -0.15790220871E+02  0.42985817349E+02  0.41800000000E+01 0.  1.
         -5    1    3    3    0  502 -0.16022123115E+02 -0.26844541881E+02  0.12108986744E+03  0.12513019721E+03  0.41800000000E+01 0.  1.
        -11    1    1    2    0    0  0.59508168045E+02  0.19238209584E+02 -0.58501012713E+02  0.85637020385E+02  0.00000000000E+00 0.  1.
         11    1    1    2    0    0 -0.20874133438E+02 -0.25099607174E+02 -0.12655333640E+02  0.35012529138E+02  0.00000000000E+00 0. -1.
</event>
<event>
 7    1  0.2380582E-009  0.8606990E+02  0.7561462E-02  0.1312658E+00
         -1   -1    0    0    0  501 -0.00000000000E+00  0.00000000000E+00  0.80405318295E+02  0.80405318295E+02  0.00000000000E+00 0.  1.
          1   -1    0    0  501    0  0.00000000000E+00 -0.00000000000E+00 -0.19801789472E+03  0.19801789472E+03  0.00000000000E+00 0. -1.
         25    2    1    2    0    0 -0.46956460118E+02  0.14580825887E+02 -0.19087844591E+02  0.13575346766E+03  0.12508856279E+03 0.  0.
          5    1    3    3  502    0  0.24323351646E+02  0.61400124902E+01  0.36768453815E+02  0.44707010464E+02  0.41800000000E+01 0. -1.
         -5    1    3    3    0  502 -0.71279811765E+02  0.84408133967E+01 -0.55856298406E+02  0.91046457194E+02  0.41800000000E+01 0. -1.
        -11    1    1    2    0    0  0.23403321955E+02 -0.36022243492E+02 -0.10195443784E+03  0.11063464602E+03  0.00000000000E+00 0. -1.
         11    1    1    2    0    0  0.23553138163E+02  0.21441417605E+02  0.34297060063E+01  0.32035099337E+02  0.00000000000E+00 0.  1.
</event>
<event>
 7    1  0.2380582E-009  0.3280533E+03  0.7561462E-02  0.1072002E+00
          2   -1    0    0  501    0  0.00000000000E+00  0.00000000000E+00  0.79732303675E+03  0.79732303675E+03  0.00000000000E+00 0. -1.
         -2   -1    0    0    0  501 -0.00000000000E+00 -0.00000000000E+00 -0.16132775715E+03  0.16132775715E+03  0.00000000000E+00 0.  1.
         25    2    1    2    0    0 -0.11007150249E+03 -0.30304923199E+03  0.17032790883E+03  0.38550959308E+03  0.12510586381E+03 0.  0.
          5    1    3    3  502    0 -0.10365217290E+03 -0.21984731491E+03  0.66087789304E+02  0.25191602394E+03  0.41800000000E+01 0. -1.
         -5    1    3    3    0  502 -0.64193295874E+01 -0.83201917080E+02  0.10424011952E+03  0.13359356914E+03  0.41800000000E+01 0. -1.
        -11    1    1    2    0    0  0.89011601177E+02  0.14592252385E+03  0.19362508232E+03  0.25827721660E+03  0.00000000000E+00 0.  1.
         11    1    1    2    0    0  0.21059901313E+02  0.15712670813E+03  0.27204228845E+03  0.31486398422E+03  0.00000000000E+00 0. -1.
</event>
<event>
 7    1  0.2574422E-009  0.1356495E+03  0.7561462E-02  0.1219306E+00
         -2   -1    0    0    0  501 -0.00000000000E+00  0.00000000000E+00  0.60091428534E+02  0.60091428534E+02  0.00000000000E+00 0. -1.
          2   -1    0    0  501    0  0.00000000000E+00 -0.00000000000E+00 -0.57659606297E+03  0.57659606297E+03  0.00000000000E+00 0.  1.
         25    2    1    2    0    0  0.10456982771E+03  0.85613232935E+02 -0.15704387109E+03  0.24202327663E+03  0.12509202398E+03 0.  0.
          5    1    3    3  502    0  0.55899326822E+02  0.37675959772E+02  0.33644736018E+01  0.67623995493E+02  0.41800000000E+01 0.  1.
         -5    1    3    3    0  502  0.48670500889E+02  0.47937273163E+02 -0.16040834469E+03  0.17439928114E+03  0.41800000000E+01 0.  1.
        -11    1    1    2    0    0 -0.38761297770E+02 -0.27539921248E+02 -0.36368026397E+02  0.59862499206E+02  0.00000000000E+00 0. -1.
         11    1    1    2    0    0 -0.65808529941E+02 -0.58073311687E+02 -0.32309273695E+03  0.33480171567E+03  0.00000000000E+00 0.  1.
</event>
<event>
 7    1  0.2380582E-009  0.1412195E+03  0.7561462E-02  0.1211697E+00
         -2   -1    0    0    0  501 -0.00000000000E+00  0.00000000000E+00  0.22244507580E+03  0.22244507580E+03  0.00000000000E+00 0.  1.
          2   -1    0    0  501    0  0.00000000000E+00 -0.00000000000E+00 -0.13730512237E+03  0.13730512237E+03  0.00000000000E+00 0. -1.
         25    2    1    2    0    0 -0.80842780601E+02  0.47900069473E+02 -0.57271309145E+02  0.16660798555E+03  0.12509295011E+03 0.  0.
          5    1    3    3  502    0  0.29675908653E+02 -0.49638951032E+01 -0.26283268772E+02  0.40169421533E+02  0.41800000000E+01 0. -1.
         -5    1    3    3    0  502 -0.11051868925E+03  0.52863964576E+02 -0.30988040373E+02  0.12643856402E+03  0.41800000000E+01 0. -1.
        -11    1    1    2    0    0 -0.19678053745E+02 -0.59675490623E+01  0.14604650322E+02  0.25221682181E+02  0.00000000000E+00 0. -1.
         11    1    1    2    0    0  0.10052083435E+03 -0.41932520411E+02  0.12780661225E+03  0.16792053043E+03  0.00000000000E+00 0.  1.
</event>
<event>
 7    1  0.2380582E-009  0.9968237E+02  0.7561462E-02  0.1280965E+00
          2   -1    0    0  501    0  0.00000000000E+00  0.00000000000E+00  0.55302420211E+03  0.55302420211E+03  0.00000000000E+00 0.  1.
         -2   -1    0    0    0  501 -0.00000000000E+00 -0.00000000000E+00 -0.24376222296E+02  0.24376222296E+02  0.00000000000E+00 0. -1.
         25    2    1    2    0    0 -0.19621156223E+02 -0.37606134939E+02  0.29354745026E+03  0.32189692828E+03  0.12509322813E+03 0.  0.
          5    1    3    3  502    0  0.42733573139E+02 -0.16505275399E+02  0.43555088106E+02  0.63349037002E+02  0.41800000000E+01 0. -1.
         -5    1    3    3    0  502 -0.62354729362E+02 -0.21100859541E+02  0.24999236216E+03  0.25854789128E+03  0.41800000000E+01 0. -1.
        -11    1    1    2    0    0  0.19607898849E+02  0.60966955865E+02  0.21610378626E+03  0.22539362423E+03  0.00000000000E+00 0.  1.
         11    1    1    2    0    0  0.13257374019E-01 -0.23360820926E+02  0.18996743282E+02  0.30109871893E+02  0.00000000000E+00 0. -1.
</event>
<event>
 7    1  0.2380582E-009  0.7360341E+02  0.7561462E-02  0.1348251E+00
         -1   -1    0    0    0  501 -0.00000000000E+00  0.00000000000E+00  0.27141720152E+02  0.27141720152E+02  0.00000000000E+00 0.  1.
          1   -1    0    0  501    0  0.00000000000E+00 -0.00000000000E+00 -0.65523143878E+03  0.65523143878E+03  0.00000000000E+00 0. -1.
         25    2    1    2    0    0 -0.65734170535E+02 -0.19089467547E+02 -0.44473333235E+03  0.46703577400E+03  0.12509711563E+03 0.  0.
          5    1    3    3  502    0 -0.48725505934E+02 -0.14627637964E+02 -0.48569954824E+02  0.70460312464E+02  0.41800000000E+01 0.  1.
         -5    1    3    3    0  502 -0.17008664601E+02 -0.44618295825E+01 -0.39616337753E+03  0.39657546153E+03  0.41800000000E+01 0.  1.
        -11    1    1    2    0    0  0.60825720159E+02  0.28729852690E+02 -0.19073015746E+03  0.20224531053E+03  0.00000000000E+00 0. -1.
         11    1    1    2    0    0  0.49084503765E+01 -0.96403851429E+01  0.73737711804E+01  0.13092074405E+02  0.00000000000E+00 0.  1.
</event>
<event>
 7    1  0.2657287E-009  0.6510731E+02  0.7561462E-02  0.1377568E+00
         -1   -1    0    0    0  501 -0.00000000000E+00  0.00000000000E+00  0.14352869537E+03  0.14352869537E+03  0.00000000000E+00 0.  1.
          1   -1    0    0  501    0  0.00000000000E+00 -0.00000000000E+00 -0.11057722793E+03  0.11057722793E+03  0.00000000000E+00 0. -1.
         25    2    1    2    0    0  0.15815474360E+02  0.56410712378E+02  0.43765427803E+02  0.14490239951E+03  0.12509594323E+03 0.  0.
          5    1    3    3  502    0  0.22396632087E+02  0.31265413243E+02 -0.40864799354E+02  0.56272012762E+02  0.41800000000E+01 0. -1.
         -5    1    3    3    0  502 -0.65811577275E+01  0.25145299135E+02  0.84630227156E+02  0.88630386743E+02  0.41800000000E+01 0. -1.
        -11    1    1    2    0    0  0.64975140179E+01 -0.29679767488E+02 -0.48918617132E+02  0.57585913109E+02  0.00000000000E+00 0. -1.
         11    1    1    2    0    0 -0.22312988378E+02 -0.26730944890E+02  0.38104656774E+02  0.51617610686E+02  0.00000000000E+00 0.  1.
</event>
<event>
 7    1  0.2380582E-009  0.1893297E+03  0.7561462E-02  0.1159067E+00
          1   -1    0    0  501    0  0.00000000000E+00  0.00000000000E+00  0.86685739085E+02  0.86685739085E+02  0.00000000000E+00 0.  1.
         -1   -1    0    0    0  501 -0.00000000000E+00 -0.00000000000E+00 -0.79450986388E+03  0.79450986388E+03  0.00000000000E+00 0. -1.
         25    2    1    2    0    0 -0.66706532430E+02  0.14492885083E+03 -0.62524021050E+02  0.21215734252E+03  0.12508937408E+03 0.  0.
          5    1    3    3  502    0  0.92507266227E+01  0.12230203103E+03 -0.29657460838E+02  0.12625529740E+03  0.41800000000E+01 0.  1.
         -5    1    3    3    0  502 -0.75957259053E+02  0.22626819792E+02 -0.32866560212E+02  0.85902045127E+02  0.41800000000E+01 0.  1.
        -11    1    1    2    0    0  0.25003993837E+02  0.77549733566E+00 -0.85294939873E+02  0.88887726216E+02  0.00000000000E+00 0. -1.
         11    1    1    2    0    0  0.41702538594E+02 -0.14570434816E+03 -0.56000516387E+03  0.58015053422E+03  0.00000000000E+00 0.  1.
</event>
<event>
 7    1  0.2380582E-009  0.3335388E+03  0.7561462E-02  0.1069582E+00
         -2   -1    0    0    0  501 -0.00000000000E+00  0.00000000000E+00  0.13385447943E+03  0.13385447943E+03  0.00000000000E+00 0.  1.
          2   -1    0    0  501    0  0.00000000000E+00 -0.00000000000E+00 -0.84286655196E+03  0.84286655196E+03  0.00000000000E+00 0. -1.
         25    2    1    2    0    0  0.30201647968E+03 -0.98842186203E+02 -0.36581171549E+03  0.50044877240E+03  0.12508809232E+03 0.  0.
          5    1    3    3  502    0 -0.69084427992E+01  0.89156899089E+01 -0.26339957467E+02  0.28956551380E+02  0.41800000000E+01 0.  1.
         -5    1    3    3    0  502  0.30892492247E+03 -0.10775787611E+03 -0.33947175802E+03  0.47149222102E+03  0.41800000000E+01 0.  1.
        -11    1    1    2    0    0 -0.98349737416E+02  0.73131217497E+02 -0.15656733271E+03  0.19883202834E+03  0.00000000000E+00 0. -1.
         11    1    1    2    0    0 -0.20366674226E+03  0.25710968706E+02 -0.18663302434E+03  0.27744023066E+03  0.00000000000E+00 0.  1.
</event>
<event>
 7    1  0.2380582E-009  0.1053914E+03  0.7561462E-02  0.1269350E+00
          2   -1    0    0  501    0  0.00000000000E+00  0.00000000000E+00  0.40486367536E+02  0.40486367536E+02  0.00000000000E+00 0. -1.
         -2   -1    0    0    0  501 -0.00000000000E+00 -0.00000000000E+00 -0.49755591612E+03  0.49755591612E+03  0.00000000000E+00 0.  1.
         25    2    1    2    0    0 -0.79589298825E+02 -0.27154118728E+02 -0.18162776577E+03  0.23602601733E+03  0.12509129828E+03 0.  0.
          5    1    3    3  502    0 -0.55029758968E+02 -0.47843590372E+01 -0.42966191203E+01  0.55561657637E+02  0.41800000000E+01 0.  1.
         -5    1    3    3    0  502 -0.24559539857E+02 -0.22369759691E+02 -0.17733114665E+03  0.18046435969E+03  0.41800000000E+01 0.  1.
        -11    1    1    2    0    0  0.89453434736E+02 -0.36828323834E+01 -0.17643815917E+03  0.19785323917E+03  0.00000000000E+00 0. -1.
         11    1    1    2    0    0 -0.98641359105E+01  0.30836951111E+02 -0.99003623647E+02  0.10416302716E+03  0.00000000000E+00 0.  1.
</event>
<event>
 7    1  0.2380582E-009  0.1195344E+03  0.7561462E-02  0.1243867E+00
          1   -1    0    0  501    0  0.00000000000E+00  0.00000000000E+00  0.92018933691E+03  0.92018933691E+03  0.00000000000E+00 0. -1.
         -1   -1    0    0    0  501 -0.00000000000E+00 -0.00000000000E+00 -0.19204497344E+02  0.19204497344E+02  0.00000000000E+00 0.  1.
         25    2    1    2    0    0 -0.65320846801E+02 -0.22677131576E+02  0.61634280023E+03  0.63269793099E+03  0.12508860524E+03 0.  0.
          5    1    3    3  502    0 -0.34910841170E+02 -0.72844931075E+02  0.42073205767E+03  0.42843679530E+03  0.41800000000E+01 0.  1.
         -5    1    3    3    0  502 -0.30410005630E+02  0.50167799499E+02  0.19561074257E+03  0.20426113570E+03  0.41800000000E+01 0.  1.
        -11    1    1    2    0    0 -0.76234480795E+01  0.25253217462E+02  0.22785774685E+02  0.34857330374E+02  0.00000000000E+00 0.  1.
         11    1    1    2    0    0  0.72944294880E+02 -0.25760858869E+01  0.26185626464E+03  0.27183857288E+03  0.00000000000E+00 0. -1.
</event>
<event>
 7    1  0.2380582E-009  0.1546337E+03  0.7561462E-02  0.1194892E+00
          1   -1    0    0  501    0  0.00000000000E+00  0.00000000000E+00  0.19169831404E+03  0.19169831404E+03  0.00000000000E+00 0. -1.
         -1   -1    0    0    0  501 -0.00000000000E+00 -0.00000000000E+00 -0.14104188140E+03  0.14104188140E+03  0.00000000000E+00 0.  1.
         25    2    1    2    0    0  0.12347146640E+03  0.10886288895E+02 -0.25595364690E+02  0.17794873246E+03  0.12508762686E+03 0.  0.
          5    1    3    3  502    0  0.76501100480E+02  0.67400689175E+02 -0.85762335315E+01  0.10240261451E+03  0.41800000000E+01 0.  1.
         -5    1    3    3    0  502  0.46970365915E+02 -0.56514400280E+02 -0.17019131159E+02  0.75546117959E+02  0.41800000000E+01 0.  1.
        -11    1    1    2    0    0 -0.35202439127E+02 -0.26395395695E+02  0.16085503768E+02  0.46847327201E+02  0.00000000000E+00 0.  1.
         11    1    1    2    0    0 -0.88269027269E+02  0.15509106800E+02  0.60166293563E+02  0.10794413578E+03  0.00000000000E+00 0. -1.
</event>
<event>
 7    1  0.2380582E-009  0.1159395E+03  0.7561462E-02  0.1249950E+00
         -1   -1    0    0    0  501 -0.00000000000E+00  0.00000000000E+00  0.65575252822E+03  0.65575252822E+03  0.00000000000E+00 0.  1.
          1   -1    0    0  501    0  0.00000000000E+00 -0.00000000000E+00 -0.29479803319E+02  0.29479803319E+02  0.00000000000E+00 0. -1.
         25    2    1    2    0    0  0.82175695617E+02  0.10683871230E+02  0.40246185106E+03  0.42952422744E+03  0.12509408596E+03 0.  0.
          5    1    3    3  502    0 -0.17614378000E+02 -0.32027641794E+02  0.61367413799E+02  0.71550457913E+02  0.41800000000E+01 0.  1.
         -5    1    3    3    0  502  0.99790073617E+02  0.42711513023E+02  0.34109443726E+03  0.35797376953E+03  0.41800000000E+01 0.  1.
        -11    1    1    2    0    0 -0.63576888863E+02 -0.18610195426E+02  0.22587203775E+03  0.23538593333E+03  0.00000000000E+00 0.  1.
         11    1    1    2    0    0 -0.18598806754E+02  0.79263241961E+01 -0.20611639178E+01  0.20322170766E+02  0.00000000000E+00 0. -1.
</event>
<event>
 7    1  0.2380582E-009  0.9146530E+02  0.7561462E-02  0.1299342E+00
         -2   -1    0    0    0  501 -0.00000000000E+00  0.00000000000E+00  0.33741396072E+02  0.33741396072E+02  0.00000000000E+00 0. -1.
          2   -1    0    0  501    0  0.00000000000E+00 -0.00000000000E+00 -0.37415969898E+03  0.37415969898E+03  0.00000000000E+00 0.  1.
         25    2    1    2    0    0  0.15180527493E+02  0.25382136663E+02 -0.21188501485E+03  0.24782515890E+03  0.12508936241E+03 0.  0.
          5    1    3    3  502    0  0.37306218970E+02 -0.38093429361E+02 -0.13720639433E+03  0.14726143548E+03  0.41800000000E+01 0. -1.
         -5    1    3    3    0  502 -0.22125691477E+02  0.63475566024E+02 -0.74678620514E+02  0.10056372342E+03  0.41800000000E+01 0. -1.
        -11    1    1    2    0    0 -0.84492405994E+01  0.17106247446E+02  0.50505484903E+01  0.19736296726E+02  0.00000000000E+00 0. -1.
         11    1    1    2    0    0 -0.67312868934E+01 -0.42488384109E+02 -0.13358383655E+03  0.14033963943E+03  0.00000000000E+00 0.  1.
</event>
<event>
 7    1  0.2380582E-009  0.1046034E+03  0.7561462E-02  0.1270903E+00
         -2   -1    0    0    0  501 -0.00000000000E+00  0.00000000000E+00  0.49796416569E+02  0.49796416569E+02  0.00000000000E+00 0.  1.
          2   -1    0    0  501    0  0.00000000000E+00 -0.00000000000E+00 -0.29581478757E+03  0.29581478757E+03  0.00000000000E+00 0. -1.
         25    2    1    2    0    0 -0.46052272723E+02  0.26814451597E+02 -0.11788891435E+03  0.17995071516E+03  0.12507852383E+03 0.  0.
          5    1    3    3  502    0 -0.47048242864E+02 -0.27914927231E+02 -0.11202686578E+03  0.12474081680E+03  0.41800000000E+01 0. -1.
         -5    1    3    3    0  502  0.99597014151E+00  0.54729378828E+02 -0.58620485640E+01  0.55209898359E+02  0.41800000000E+01 0. -1.
        -11    1    1    2    0    0  0.69194039833E+02 -0.80711774661E+01 -0.11171683006E+03  0.13165716529E+03  0.00000000000E+00 0. -1.
         11    1    1    2    0    0 -0.23141767110E+02 -0.18743274131E+02 -0.16412626594E+02  0.34003323688E+02  0.00000000000E+00 0.  1.
</event>
<event>
 7    1  0.2380582E-009  0.2348546E+03  0.7561462E-02  0.1123269E+00
          3   -1    0    0  501    0  0.00000000000E+00  0.00000000000E+00  0.11202382002E+04  0.11202382002E+04  0.00000000000E+00 0. -1.
         -3   -1    0    0    0  501 -0.00000000000E+00 -0.00000000000E+00 -0.60721110313E+02  0.60721110313E+02  0.00000000000E+00 0.  1.
         25    2    1    2    0    0 -0.10648583623E+03 -0.20002882799E+03  0.38733965312E+03  0.46586709334E+03  0.12509746772E+03 0.  0.
          5    1    3    3  502    0 -0.90172132447E+02 -0.20332938421E+03  0.38951567303E+03  0.44856859441E+03  0.41800000000E+01 0. -1.
         -5    1    3    3    0  502 -0.16313703783E+02  0.33005562165E+01 -0.21760199139E+01  0.17298498927E+02  0.41800000000E+01 0. -1.
        -11    1    1    2    0    0  0.41201196320E+02  0.11956380545E+03  0.24726652857E+03  0.27772968567E+03  0.00000000000E+00 0. -1.
         11    1    1    2    0    0  0.65284639909E+02  0.80465022542E+02  0.42491090824E+03  0.43736253155E+03  0.00000000000E+00 0.  1.
</event>
<event>
 7    1  0.2380582E-009  0.1188872E+03  0.7561462E-02  0.1244944E+00
         -1   -1    0    0    0  501 -0.00000000000E+00  0.00000000000E+00  0.30469313621E+03  0.30469313621E+03  0.00000000000E+00 0.  1.
          1   -1    0    0  501    0  0.00000000000E+00 -0.00000000000E+00 -0.49923838112E+02  0.49923838112E+02  0.00000000000E+00 0. -1.
         25    2    1    2    0    0  0.52191365042E+02  0.15880915046E+02  0.10650457537E+03  0.17311122558E+03  0.12509248498E+03 0.  0.
          5    1    3    3  502    0 -0.27976611332E+02 -0.30101321042E+02  0.17923379887E+02  0.45027772060E+02  0.41800000000E+01 0.  1.
         -5    1    3    3    0  502  0.80167976374E+02  0.45982236087E+02  0.88581195485E+02  0.12808345352E+03  0.41800000000E+01 0.  1.
        -11    1    1    2    0    0 -0.58893609122E+02  0.23939819547E+02  0.10097526175E+03  0.11932131260E+03  0.00000000000E+00 0.  1.
         11    1    1    2    0    0  0.67022440795E+01 -0.39820734593E+02  0.47289460974E+02  0.62184436143E+02  0.00000000000E+00 0. -1.
</event>
<event>
 7    1  0.2380582E-009  0.9205199E+02  0.7561462E-02  0.1297957E+00
         -2   -1    0    0    0  501 -0.00000000000E+00  0.00000000000E+00  0.19662892654E+02  0.19662892654E+02  0.00000000000E+00 0.  1.
          2   -1    0    0  501    0  0.00000000000E+00 -0.00000000000E+00 -0.72085935193E+03  0.72085935193E+03  0.00000000000E+00 0. -1.
         25    2    1    2    0    0  0.30979049936E+02 -0.37486344549E+02 -0.44244002208E+03  0.46234707135E+03  0.12508682458E+03 0.  0.
          5    1    3    3  502    0  0.98064185545E+01 -0.54375187796E+02 -0.42761471721E+03  0.43118980236E+03  0.41800000000E+01 0.  1.
         -5    1    3    3    0  502  0.21172631382E+02  0.16888843247E+02 -0.14825304872E+02  0.31157268982E+02  0.41800000000E+01 0.  1.
        -11    1    1    2    0    0  0.16240854665E+02  0.49890702295E+02 -0.15154912320E+03  0.16037451256E+03  0.00000000000E+00 0. -1.
         11    1    1    2    0    0 -0.47219904601E+02 -0.12404357746E+02 -0.10720731400E+03  0.11780066068E+03  0.00000000000E+00 0.  1.
</event>
<event>
 7    1  0.2380582E-009  0.1798110E+03  0.7561462E-02  0.1167986E+00
         -1   -1    0    0    0  501 -0.00000000000E+00  0.00000000000E+00  0.57939117195E+02  0.57939117195E+02  0.00000000000E+00 0.  1.
          1   -1    0    0  501    0  0.00000000000E+00 -0.00000000000E+00 -0.69564178660E+03  0.69564178660E+03  0.00000000000E+00 0. -1.
         25    2    1    2    0    0 -0.10447843354E+03 -0.13060840189E+03 -0.37539764645E+03  0.42958524494E+03  0.12508314033E+03 0.  0.
          5    1    3    3  502    0  0.11036386098E+02 -0.85162103311E+01 -0.13752679693E+03  0.13829468511E+03  0.41800000000E+01 0. -1.
         -5    1    3    3    0  502 -0.11551481964E+03 -0.12209219156E+03 -0.23787084952E+03  0.29129055983E+03  0.41800000000E+01 0. -1.
        -11    1    1    2    0    0  0.89189849321E+02  0.67089219704E+02 -0.21844999013E+03  0.24530835862E+03  0.00000000000E+00 0. -1.
         11    1    1    2    0    0  0.15288584216E+02  0.63519182188E+02 -0.43855032822E+02  0.78687300227E+02  0.00000000000E+00 0.  1.
</event>
<event>
 7    1  0.2380582E-009  0.7821192E+02  0.7561462E-02  0.1334204E+00
          1   -1    0    0  501    0  0.00000000000E+00  0.00000000000E+00  0.25677179424E+03  0.25677179424E+03  0.00000000000E+00 0. -1.
         -1   -1    0    0    0  501 -0.00000000000E+00 -0.00000000000E+00 -0.53265325167E+02  0.53265325167E+02  0.00000000000E+00 0.  1.
         25    2    1    2    0    0  0.90937410412E+01 -0.23179261257E+02  0.67645362638E+02  0.14437577858E+03  0.12509394900E+03 0.  0.
          5    1    3    3  502    0 -0.63655591643E+01  0.35788470534E+02 -0.16701972861E+02  0.40221427922E+02  0.41800000000E+01 0. -1.
         -5    1    3    3    0  502  0.15459300206E+02 -0.58967731792E+02  0.84347335499E+02  0.10415435066E+03  0.41800000000E+01 0. -1.
        -11    1    1    2    0    0  0.22039693905E+02  0.47312732677E+01 -0.24683291286E+01  0.22676545215E+02  0.00000000000E+00 0.  1.
         11    1    1    2    0    0 -0.31133434947E+02  0.18447987990E+02  0.13832943556E+03  0.14298479561E+03  0.00000000000E+00 0. -1.
</event>
<event>
 7    1  0.2380582E-009  0.9502852E+02  0.7561462E-02  0.1291112E+00
          1   -1    0    0  501    0  0.00000000000E+00  0.00000000000E+00  0.94101120171E+03  0.94101120171E+03  0.00000000000E+00 0. -1.
         -1   -1    0    0    0  501 -0.00000000000E+00 -0.00000000000E+00 -0.15732812438E+02  0.15732812438E+02  0.00000000000E+00 0.  1.
         25    2    1    2    0    0  0.43352819914E+02 -0.16618709040E+02  0.64567169951E+03  0.65931312119E+03  0.12508477025E+03 0.  0.
          5    1    3    3  502    0 -0.24707715064E+02  0.13253341480E+02  0.39679445895E+02  0.48765285507E+02  0.41800000000E+01 0. -1.
         -5    1    3    3    0  502  0.68060534978E+02 -0.29872050520E+02  0.60599225361E+03  0.61054783569E+03  0.41800000000E+01 0. -1.
        -11    1    1    2    0    0 -0.28433099769E+02  0.46134192726E+02  0.23896742470E+03  0.24503517088E+03  0.00000000000E+00 0. -1.
         11    1    1    2    0    0 -0.14919720145E+02 -0.29515483687E+02  0.40639265061E+02  0.52395722069E+02  0.00000000000E+00 0.  1.
</event>
<event>
 7    1  0.2380582E-009  0.1099603E+03  0.7561462E-02  0.1260643E+00
          3   -1    0    0  501    0  0.00000000000E+00  0.00000000000E+00  0.11181980000E+04  0.11181980000E+04  0.00000000000E+00 0. -1.
         -3   -1    0    0    0  501 -0.00000000000E+00 -0.00000000000E+00 -0.13914581861E+02  0.13914581861E+02  0.00000000000E+00 0.  1.
         25    2    1    2    0    0  0.17061276074E+02  0.15867816842E+02  0.84588930449E+03  0.85540591573E+03  0.12509072887E+03 0.  0.
          5    1    3    3  502    0 -0.21199701602E+02 -0.47973272614E+02  0.33501860928E+03  0.33912505539E+03  0.41800000000E+01 0.  1.
         -5    1    3    3    0  502  0.38260977676E+02  0.63841089456E+02  0.51087069522E+03  0.51628086033E+03  0.41800000000E+01 0.  1.
        -11    1    1    2    0    0  0.24675964831E+02 -0.38159438537E+02  0.17520396994E+03  0.18100131788E+03  0.00000000000E+00 0. -1.
         11    1    1    2    0    0 -0.41737240905E+02  0.22291621695E+02  0.83190143721E+02  0.95705348275E+02  0.00000000000E+00 0.  1.
</event>
<event>
 7    1  0.2380582E-009  0.2473143E+03  0.7561462E-02  0.1115014E+00
         -1   -1    0    0    0  501 -0.00000000000E+00  0.00000000000E+00  0.34564233483E+03  0.34564233483E+03  0.00000000000E+00 0.  1.
          1   -1    0    0  501    0  0.00000000000E+00 -0.00000000000E+00 -0.22922684632E+03  0.22922684632E+03  0.00000000000E+00 0. -1.
         25    2    1    2    0    0 -0.19762247189E+03  0.11800300002E+03  0.18131728773E+03  0.31859450624E+03  0.12508857327E+03 0.  0.
          5    1    3    3  502    0 -0.16861478003E+03  0.37022763229E+02  0.96955769157E+02  0.19803919464E+03  0.41800000000E+01 0. -1.
         -5    1    3    3    0  502 -0.29007691865E+02  0.80980236789E+02  0.84361518575E+02  0.12055531160E+03  0.41800000000E+01 0. -1.
        -11    1    1    2    0    0  0.98150823252E+02 -0.28990629890E+02 -0.67793600451E+02  0.12275998122E+03  0.00000000000E+00 0.  1.
         11    1    1    2    0    0  0.99471648640E+02 -0.89012370128E+02  0.28918012302E+01  0.13351469370E+03  0.00000000000E+00 0. -1.
</event>
<event>
 7    1  0.2380582E-009  0.1499213E+03  0.7561462E-02  0.1200570E+00
         -1   -1    0    0    0  501 -0.00000000000E+00  0.00000000000E+00  0.16359334506E+03  0.16359334506E+03  0.00000000000E+00 0.  1.
          1   -1    0    0  501    0  0.00000000000E+00 -0.00000000000E+00 -0.25437777620E+03  0.25437777620E+03  0.00000000000E+00 0. -1.
         25    2    1    2    0    0  0.10735526670E+03  0.18073074571E+02  0.89744907936E+02  0.18855630778E+03  0.12509014107E+03 0.  0.
          5    1    3    3  502    0  0.73966375590E+01  0.54875774525E+02  0.50201224506E+02  0.74857840062E+02  0.41800000000E+01 0.  1.
         -5    1    3    3    0  502  0.99958629137E+02 -0.36802699954E+02  0.39543683430E+02  0.11369846772E+03  0.41800000000E+01 0.  1.
        -11    1    1    2    0    0 -0.50614123717E+02 -0.51211885076E+02 -0.67620829070E+02  0.98777645329E+02  0.00000000000E+00 0.  1.
         11    1    1    2    0    0 -0.56741142979E+02  0.33138810505E+02 -0.11290851001E+03  0.13063716815E+03  0.00000000000E+00 0. -1.
</event>
<event>
 7    1  0.2380582E-009  0.1004657E+03  0.7561462E-02  0.1279320E+00
         -3   -1    0    0    0  501 -0.00000000000E+00  0.00000000000E+00  0.66913065056E+02  0.66913065056E+02  0.00000000000E+00 0.  1.
          3   -1    0    0  501    0  0.00000000000E+00 -0.00000000000E+00 -0.27299255974E+03  0.27299255974E+03  0.00000000000E+00 0. -1.
         25    2    1    2    0    0 -0.23432372405E+02  0.66948404317E+02 -0.15928300146E+03  0.21459169698E+03  0.12508939581E+03 0.  0.
          5    1    3    3  502    0 -0.28841922994E+02  0.95896322644E+02 -0.15494101067E+03  0.18453224760E+03  0.41800000000E+01 0.  1.
         -5    1    3    3    0  502  0.54095505890E+01 -0.28947918327E+02 -0.43419907918E+01  0.30059449380E+02  0.41800000000E+01 0.  1.
        -11    1    1    2    0    0  0.11051512207E+02 -0.34673354685E+02  0.26000785473E+02  0.44726035957E+02  0.00000000000E+00 0.  1.
         11    1    1    2    0    0  0.12380860198E+02 -0.32275049632E+02 -0.72797278699E+02  0.80587891857E+02  0.00000000000E+00 0. -1.
</event>
<event>
 7    1  0.2380582E-009  0.8266287E+02  0.7561462E-02  0.1321660E+00
          1   -1    0    0  501    0  0.00000000000E+00  0.00000000000E+00  0.70107147575E+03  0.70107147575E+03  0.00000000000E+00 0. -1.
         -1   -1    0    0    0  501 -0.00000000000E+00 -0.00000000000E+00 -0.27450708301E+02  0.27450708301E+02  0.00000000000E+00 0.  1.
         25    2    1    2    0    0  0.18678488163E+02  0.66319572471E+02  0.49493552262E+03  0.51512750327E+03  0.12509197201E+03 0.  0.
          5    1    3    3  502    0 -0.10128634917E+02  0.24927226209E+02  0.43843310497E+03  0.43927783439E+03  0.41800000000E+01 0.  1.
         -5    1    3    3    0  502  0.28807123080E+02  0.41392346262E+02  0.56502417649E+02  0.75849668881E+02  0.41800000000E+01 0.  1.
        -11    1    1    2    0    0  0.19053778551E+02 -0.18249831396E+02  0.20225325950E+01  0.26461168930E+02  0.00000000000E+00 0. -1.
         11    1    1    2    0    0 -0.37732266714E+02 -0.48069741075E+02  0.17666271223E+03  0.18693351184E+03  0.00000000000E+00 0.  1.
</event>
<event>
 7    1  0.2380582E-009  0.1202267E+03  0.7561462E-02  0.1242724E+00
          1   -1    0    0  501    0  0.00000000000E+00  0.00000000000E+00  0.36548242671E+02  0.36548242671E+02  0.00000000000E+00 0. -1.
         -1   -1    0    0    0  501 -0.00000000000E+00 -0.00000000000E+00 -0.74999196864E+03  0.74999196864E+03  0.00000000000E+00 0.  1.
         25    2    1    2    0    0  0.63990896059E+02 -0.74201987970E+02 -0.19679631980E+03  0.25293772629E+03  0.12509169476E+03 0.  0.
          5    1    3    3  502    0  0.61509007664E+02 -0.80699843406E+02 -0.21235554097E+03  0.23538940276E+03  0.41800000000E+01 0.  1.
         -5    1    3    3    0  502  0.24818883945E+01  0.64978554366E+01  0.15559221174E+02  0.17548323533E+02  0.41800000000E+01 0.  1.
        -11    1    1    2    0    0 -0.65634010841E+02  0.91943482524E+02 -0.47600440108E+03  0.48922552796E+03  0.00000000000E+00 0.  1.
         11    1    1    2    0    0  0.16431147823E+01 -0.17741494554E+02 -0.40643005082E+02  0.44376957054E+02  0.00000000000E+00 0. -1.
</event>
<event>
 7    1  0.2380582E-009  0.1070975E+03  0.7561462E-02  0.1266041E+00
         -1   -1    0    0    0  501 -0.00000000000E+00  0.00000000000E+00  0.11979683872E+03  0.11979683872E+03  0.00000000000E+00 0.  1.
          1   -1    0    0  501    0  0.00000000000E+00 -0.00000000000E+00 -0.14635654389E+03  0.14635654389E+03  0.00000000000E+00 0. -1.
         25    2    1    2    0    0  0.41848363956E+01 -0.66028579977E+02  0.12349117376E+02  0.14204821647E+03  0.12509160192E+03 0.  0.
          5    1    3    3  502    0 -0.36661224008E+02  0.70948058195E+01 -0.30016574280E+02  0.48092086115E+02  0.41800000000E+01 0.  1.
         -5    1    3    3    0  502  0.40846060404E+02 -0.73123385796E+02  0.42365691657E+02  0.93956130350E+02  0.41800000000E+01 0.  1.
        -11    1    1    2    0    0 -0.78339340326E+01  0.78946653297E+02 -0.59748194268E+02  0.99316621507E+02  0.00000000000E+00 0. -1.
         11    1    1    2    0    0  0.36490976370E+01 -0.12918073320E+02  0.20839371721E+02  0.24788544644E+02  0.00000000000E+00 0.  1.
</event>
<event>
 7    1  0.2380582E-009  0.1324460E+03  0.7561462E-02  0.1223871E+00
         -1   -1    0    0    0  501 -0.00000000000E+00  0.00000000000E+00  0.12712154448E+03  0.12712154448E+03  0.00000000000E+00 0.  1.
          1   -1    0    0  501    0  0.00000000000E+00 -0.00000000000E+00 -0.31788259781E+03  0.31788259781E+03  0.00000000000E+00 0. -1.
         25    2    1    2    0    0  0.79784633265E+02 -0.39567840756E+02  0.58985013778E+02  0.16449673118E+03  0.12509492792E+03 0.  0.
          5    1    3    3  502    0  0.54114404795E+02  0.30626540104E+02 -0.94972032337E+01  0.63039852747E+02  0.41800000000E+01 0. -1.
         -5    1    3    3    0  502  0.25670228470E+02 -0.70194380860E+02  0.68482217011E+02  0.10145687843E+03  0.41800000000E+01 0. -1.
        -11    1    1    2    0    0 -0.69929176657E+02 -0.15620451941E+02 -0.13937562965E+03  0.15671520159E+03  0.00000000000E+00 0.  1.
         11    1    1    2    0    0 -0.98554566087E+01  0.55188292697E+02 -0.11037043745E+03  0.12379220952E+03  0.00000000000E+00 0. -1.
</event>
<event>
 7    1  0.2380582E-009  0.1192126E+03  0.7561462E-02  0.1244402E+00
          1   -1    0    0  501    0  0.00000000000E+00  0.00000000000E+00  0.23181023730E+03  0.23181023730E+03  0.00000000000E+00 0. -1.
         -1   -1    0    0    0  501 -0.00000000000E+00 -0.00000000000E+00 -0.95881754010E+02  0.95881754010E+02  0.00000000000E+00 0.  1.
         25    2    1    2    0    0 -0.90293068574E+02 -0.38864271000E+02  0.10322898456E+03  0.18965014540E+03  0.12509070550E+03 0.  0.
          5    1    3    3  502    0 -0.14770458503E+02 -0.42444542520E+02  0.10459181862E+03  0.11391499706E+03  0.41800000000E+01 0. -1.
         -5    1    3    3    0  502 -0.75522610071E+02  0.35802715204E+01 -0.13628340614E+01  0.75735148331E+02  0.41800000000E+01 0. -1.
        -11    1    1    2    0    0  0.14347511812E+02  0.39070257686E+02 -0.19423103262E+02  0.45930306674E+02  0.00000000000E+00 0.  1.
         11    1    1    2    0    0  0.75945556762E+02 -0.20598668647E+00  0.52122601991E+02  0.92111539237E+02  0.00000000000E+00 0. -1.
</event>
<event>
 7    1  0.2380582E-009  0.1669979E+03  0.7561462E-02  0.1181015E+00
         -2   -1    0    0    0  501 -0.00000000000E+00  0.00000000000E+00  0.11363979496E+03  0.11363979496E+03  0.00000000000E+00 0.  1.
          2   -1    0    0  501    0  0.00000000000E+00 -0.00000000000E+00 -0.35430831355E+03  0.35430831355E+03  0.00000000000E+00 0. -1.
         25    2    1    2    0    0  0.71136120472E+02 -0.11675194239E+03 -0.11091323954E+02  0.18563927604E+03  0.12509020606E+03 0.  0.
          5    1    3    3  502    0  0.88598758134E+02 -0.13379943424E+03 -0.10520643067E+02  0.16087319502E+03  0.41800000000E+01 0.  1.
         -5    1    3    3    0  502 -0.17462637661E+02  0.17047491846E+02 -0.57068088622E+00  0.24766081019E+02  0.41800000000E+01 0.  1.
        -11    1    1    2    0    0 -0.24148999986E+00  0.54086992801E+02 -0.31001199991E+02  0.62342084570E+02  0.00000000000E+00 0.  1.
         11    1    1    2    0    0 -0.70894630473E+02  0.62664949587E+02 -0.19857599464E+03  0.21996674790E+03  0.00000000000E+00 0. -1.
</event>
<event>
 7    1  0.2380582E-009  0.7212647E+02  0.7561462E-02  0.1353008E+00
         -3   -1    0    0    0  501 -0.00000000000E+00  0.00000000000E+00  0.30434083226E+03  0.30434083226E+03  0.00000000000E+00 0.  1.
          3   -1    0    0  501    0  0.00000000000E+00 -0.00000000000E+00 -0.43016801968E+02  0.43016801968E+02  0.00000000000E+00 0. -1.
         25    2    1    2    0    0  0.23664512627E+02  0.26190710508E+02  0.13008435344E+03  0.18389270657E+03  0.12509446848E+03 0.  0.
          5    1    3    3  502    0  0.45481943144E+02 -0.23926263647E+01  0.13923427928E+03  0.14655370599E+03  0.41800000000E+01 0. -1.
         -5    1    3    3    0  502 -0.21817430517E+02  0.28583336873E+02 -0.91499258396E+01  0.37339000576E+02  0.41800000000E+01 0. -1.
        -11    1    1    2    0    0 -0.37330432274E+02 -0.58130388705E+01  0.13357793976E+03  0.13881793323E+03  0.00000000000E+00 0.  1.
         11    1    1    2    0    0  0.13665919647E+02 -0.20377671638E+02 -0.23382629103E+01  0.24646994433E+02  0.00000000000E+00 0. -1.
</event>
<event>
 7    1  0.2380582E-009  0.9664652E+02  0.7561462E-02  0.1287510E+00
          3   -1    0    0  501    0  0.00000000000E+00  0.00000000000E+00  0.59316949353E+02  0.59316949353E+02  0.00000000000E+00 0. -1.
         -3   -1    0    0    0  501 -0.00000000000E+00 -0.00000000000E+00 -0.38079508330E+03  0.38079508330E+03  0.00000000000E+00 0.  1.
         25    2    1    2    0    0  0.60176307929E+02  0.56730368842E+01 -0.48645951428E+02  0.14720143163E+03  0.12509381080E+03 0.  0.
          5    1    3    3  502    0  0.85758115590E+02  0.12106848537E+02  0.54410049419E+01  0.86879842920E+02  0.41800000000E+01 0.  1.
         -5    1    3    3    0  502 -0.25581807661E+02 -0.64338116528E+01 -0.54086956370E+02  0.60321588714E+02  0.41800000000E+01 0.  1.
        -11    1    1    2    0    0 -0.42380989485E+02  0.21400633591E+02 -0.24686790831E+03  0.25139192418E+03  0.00000000000E+00 0.  1.
         11    1    1    2    0    0 -0.17795318445E+02 -0.27073670475E+02 -0.25964274208E+02  0.41518676842E+02  0.00000000000E+00 0. -1.
</event>
<event>
 7    1  0.2380582E-009  0.1020908E+03  0.7561462E-02  0.1275960E+00
          1   -1    0    0  501    0  0.00000000000E+00  0.00000000000E+00  0.44279334453E+02  0.44279334453E+02  0.00000000000E+00 0. -1.
         -1   -1    0    0    0  501 -0.00000000000E+00 -0.00000000000E+00 -0.42718886223E+03  0.42718886223E+03  0.00000000000E+00 0.  1.
         25    2    1    2    0    0  0.53830667537E+02  0.17507485122E+02 -0.31588174245E+03  0.34443069944E+03  0.12508788389E+03 0.  0.
          5    1    3    3  502    0  0.88603150650E+02  0.34767216108E+02 -0.18864368721E+03  0.21133667629E+03  0.41800000000E+01 0. -1.
         -5    1    3    3    0  502 -0.34772483113E+02 -0.17259730985E+02 -0.12723805524E+03  0.13309402314E+03  0.41800000000E+01 0. -1.
        -11    1    1    2    0    0  0.30634625866E+01 -0.12365012258E+02 -0.68715682803E+02  0.69886503663E+02  0.00000000000E+00 0.  1.
         11    1    1    2    0    0 -0.56894130124E+02 -0.51424728643E+01  0.16878974788E+01  0.57150993584E+02  0.00000000000E+00 0. -1.
</event>
<event>
 7    1  0.2809525E-009  0.2339443E+03  0.7561462E-02  0.1123894E+00
         -1   -1    0    0    0  501 -0.00000000000E+00  0.00000000000E+00  0.42534036704E+02  0.42534036704E+02  0.00000000000E+00 0.  1.
          1   -1    0    0  501    0  0.00000000000E+00 -0.00000000000E+00 -0.14727899335E+04  0.14727899335E+04  0.00000000000E+00 0. -1.
         25    2    1    2    0    0 -0.21843775998E+02 -0.22303895857E+03 -0.66892548089E+03  0.71647279687E+03  0.12509373320E+03 0.  0.
          5    1    3    3  502    0 -0.39922529146E+02 -0.14723122495E+03 -0.57212969677E+03  0.59213233678E+03  0.41800000000E+01 0. -1.
         -5    1    3    3    0  502  0.18078753147E+02 -0.75807733627E+02 -0.96795784114E+02  0.12434046009E+03  0.41800000000E+01 0. -1.
        -11    1    1    2    0    0  0.49288616442E+02  0.10417470462E+03 -0.29185455003E+03  0.31378466369E+03  0.00000000000E+00 0.  1.
         11    1    1    2    0    0 -0.27444840444E+02  0.11886425396E+03 -0.46947586591E+03  0.48506650967E+03  0.00000000000E+00 0. -1.
</event>
<event>
 7    1  0.2380582E-009  0.1855697E+03  0.7561462E-02  0.1162519E+00
          2   -1    0    0  501    0  0.00000000000E+00  0.00000000000E+00  0.41145014275E+03  0.41145014275E+03  0.00000000000E+00 0. -1.
         -2   -1    0    0    0  501 -0.00000000000E+00 -0.00000000000E+00 -0.97951941497E+02  0.97951941497E+02  0.00000000000E+00 0.  1.
         25    2    1    2    0    0  0.14618251175E+03 -0.80372497487E+02  0.19731338054E+03  0.28706932952E+03  0.12508862746E+03 0.  0.
          5    1    3    3  502    0  0.14694689819E+03 -0.38525606501E+02  0.19170621474E+03  0.24463515368E+03  0.41800000000E+01 0.  1.
         -5    1    3    3    0  502 -0.76438643262E+00 -0.41846890986E+02  0.56071657925E+01  0.42434175850E+02  0.41800000000E+01 0.  1.
        -11    1    1    2    0    0 -0.19312506992E+02  0.39240715983E+02  0.67345266694E+02  0.80300633019E+02  0.00000000000E+00 0. -1.
         11    1    1    2    0    0 -0.12687000476E+03  0.41131781504E+02  0.48839554020E+02  0.14203212170E+03  0.00000000000E+00 0.  1.
</event>
<event>
 7    1  0.2380582E-009  0.1404355E+03  0.7561462E-02  0.1212744E+00
          1   -1    0    0  501    0  0.00000000000E+00  0.00000000000E+00  0.43649212809E+03  0.43649212809E+03  0.00000000000E+00 0. -1.
         -1   -1    0    0    0  501 -0.00000000000E+00 -0.00000000000E+00 -0.51367438442E+02  0.51367438442E+02  0.00000000000E+00 0.  1.
         25    2    1    2    0    0 -0.33477941212E+02 -0.93724575341E+02  0.26907175417E+03  0.31297816269E+03  0.12510256936E+03 0.  0.
          5    1    3    3  502    0  0.14222087349E+02 -0.10065316327E+03  0.12599718258E+03  0.16194471113E+03  0.41800000000E+01 0.  1.
         -5    1    3    3    0  502 -0.47700028561E+02  0.69285879305E+01  0.14307457159E+03  0.15103345156E+03  0.41800000000E+01 0.  1.
        -11    1    1    2    0    0  0.41008563628E+02  0.45517238404E+01  0.39389227087E+02  0.57043244045E+02  0.00000000000E+00 0.  1.
         11    1    1    2    0    0 -0.75306224161E+01  0.89172851500E+02  0.76663708389E+02  0.11783815979E+03  0.00000000000E+00 0. -1.
</event>
<event>
 7    1  0.2380582E-009  0.1323100E+03  0.7561462E-02  0.1224068E+00
         -1   -1    0    0    0  501 -0.00000000000E+00  0.00000000000E+00  0.74831481988E+02  0.74831481988E+02  0.00000000000E+00 0.  1.
          1   -1    0    0  501    0  0.00000000000E+00 -0.00000000000E+00 -0.39011454959E+03  0.39011454959E+03  0.00000000000E+00 0. -1.
         25    2    1    2    0    0 -0.13566913889E+01 -0.10631087663E+03 -0.27018136511E+03  0.31614654771E+03  0.12508727543E+03 0.  0.
          5    1    3    3  502    0  0.55153769528E+02 -0.48013894734E+02 -0.18211377394E+03  0.19629103759E+03  0.41800000000E+01 0. -1.
         -5    1    3    3    0  502 -0.56510460917E+02 -0.58296981898E+02 -0.88067591173E+02  0.11985551012E+03  0.41800000000E+01 0. -1.
        -11    1    1    2    0    0  0.14916653973E+02  0.51798688713E+02  0.24623464089E+02  0.59261502697E+02  0.00000000000E+00 0. -1.
         11    1    1    2    0    0 -0.13559962584E+02  0.54512187920E+02 -0.69725166583E+02  0.89537981171E+02  0.00000000000E+00 0.  1.
</event>
<event>
 7    1  0.2380582E-009  0.1568111E+03  0.7561462E-02  0.1192345E+00
          1   -1    0    0  501    0  0.00000000000E+00  0.00000000000E+00  0.52172043009E+02  0.52172043009E+02  0.00000000000E+00 0. -1.
         -1   -1    0    0    0  501 -0.00000000000E+00 -0.00000000000E+00 -0.63357440082E+03  0.63357440082E+03  0.00000000000E+00 0.  1.
         25    2    1    2    0    0  0.26710052247E+02  0.13480549071E+03 -0.21494424701E+03  0.28414298359E+03  0.12510099355E+03 0.  0.
          5    1    3    3  502    0  0.53583070300E+02  0.10372421395E+03 -0.76429497977E+02  0.13960228703E+03  0.41800000000E+01 0.  1.
         -5    1    3    3    0  502 -0.26873018054E+02  0.31081276758E+02 -0.13851474903E+03  0.14454069656E+03  0.41800000000E+01 0.  1.
        -11    1    1    2    0    0 -0.51426940734E+02 -0.76572703614E+02 -0.27762523570E+03  0.29254722810E+03  0.00000000000E+00 0.  1.
         11    1    1    2    0    0  0.24716888488E+02 -0.58232787093E+02 -0.88832875108E+02  0.10905623214E+03  0.00000000000E+00 0. -1.
</event>
<event>
 7    1  0.2380582E-009  0.1306147E+03  0.7561462E-02  0.1226546E+00
          1   -1    0    0  501    0  0.00000000000E+00  0.00000000000E+00  0.10039584549E+04  0.10039584549E+04  0.00000000000E+00 0. -1.
         -1   -1    0    0    0  501 -0.00000000000E+00 -0.00000000000E+00 -0.21375868946E+02  0.21375868946E+02  0.00000000000E+00 0.  1.
         25    2    1    2    0    0  0.57923639779E+02 -0.64356649574E+02  0.67295620917E+03  0.68993693070E+03  0.12508390181E+03 0.  0.
          5    1    3    3  502    0  0.33044468733E+02 -0.92386451177E+02  0.31385645514E+03  0.32886249423E+03  0.41800000000E+01 0.  1.
         -5    1    3    3    0  502  0.24879171047E+02  0.28029801603E+02  0.35909975403E+03  0.36107443648E+03  0.41800000000E+01 0.  1.
        -11    1    1    2    0    0 -0.37011259229E+01  0.70630158723E+02  0.21279433532E+03  0.22424037727E+03  0.00000000000E+00 0. -1.
         11    1    1    2    0    0 -0.54222513857E+02 -0.62735091488E+01  0.96832041510E+02  0.11115701592E+03  0.00000000000E+00 0.  1.
</event>
<event>
 7    1  0.2380582E-009  0.1111302E+03  0.7561462E-02  0.1258491E+00
          3   -1    0    0  501    0  0.00000000000E+00  0.00000000000E+00  0.72852869650E+03  0.72852869650E+03  0.00000000000E+00 0. -1.
         -3   -1    0    0    0  501 -0.00000000000E+00 -0.00000000000E+00 -0.20069596009E+02  0.20069596009E+02  0.00000000000E+00 0.  1.
         25    2    1    2    0    0  0.43612108376E+01 -0.53764418853E+02  0.41211640575E+03  0.43404725871E+03  0.12508979978E+03 0.  0.
          5    1    3    3  502    0  0.28157884328E+02 -0.77756705731E+02  0.37347624578E+03  0.38254535717E+03  0.41800000000E+01 0. -1.
         -5    1    3    3    0  502 -0.23796673490E+02  0.23992286878E+02  0.38640159975E+02  0.51501901535E+02  0.41800000000E+01 0. -1.
        -11    1    1    2    0    0  0.45778789407E+01  0.78743547398E+02  0.21705028915E+03  0.23093793810E+03  0.00000000000E+00 0.  1.
         11    1    1    2    0    0 -0.89390897783E+01 -0.24979128545E+02  0.79292405589E+02  0.83613095703E+02  0.00000000000E+00 0. -1.
</event>
<event>
 7    1  0.2380582E-009  0.1529817E+03  0.7561462E-02  0.1196856E+00
         -2   -1    0    0    0  501 -0.00000000000E+00  0.00000000000E+00  0.17508091672E+03  0.17508091672E+03  0.00000000000E+00 0.  1.
          2   -1    0    0  501    0  0.00000000000E+00 -0.00000000000E+00 -0.17099016656E+03  0.17099016656E+03  0.00000000000E+00 0. -1.
         25    2    1    2    0    0  0.10300411972E+02  0.13029292770E+03 -0.29655173649E+02  0.18332812587E+03  0.12508967550E+03 0.  0.
          5    1    3    3  502    0 -0.13427099371E+02  0.14586217016E+03 -0.68788499157E+01  0.14669986591E+03  0.41800000000E+01 0. -1.
         -5    1    3    3    0  502  0.23727511343E+02 -0.15569242459E+02 -0.22776323733E+02  0.36628259965E+02  0.41800000000E+01 0. -1.
        -11    1    1    2    0    0 -0.77310443141E+01 -0.77739782562E+02  0.64927395032E+02  0.10158154096E+03  0.00000000000E+00 0.  1.
         11    1    1    2    0    0 -0.25693676579E+01 -0.52553145139E+02 -0.31181471220E+02  0.61161416445E+02  0.00000000000E+00 0. -1.
</event>
<event>
 7    1  0.2380582E-009  0.1415569E+03  0.7561462E-02  0.1211249E+00
          2   -1    0    0  501    0  0.00000000000E+00  0.00000000000E+00  0.89658872296E+02  0.89658872296E+02  0.00000000000E+00 0. -1.
         -2   -1    0    0    0  501 -0.00000000000E+00 -0.00000000000E+00 -0.25302144966E+03  0.25302144966E+03  0.00000000000E+00 0.  1.
         25    2    1    2    0    0 -0.83747740832E+02  0.61214261437E+02 -0.10907837199E+03  0.19572180104E+03  0.12509221506E+03 0.  0.
          5    1    3    3  502    0 -0.85509197905E+02  0.87250832990E+02 -0.52032040467E+02  0.13285080511E+03  0.41800000000E+01 0.  1.
         -5    1    3    3    0  502  0.17614570734E+01 -0.26036571553E+02 -0.57046331520E+02  0.62870995929E+02  0.41800000000E+01 0.  1.
        -11    1    1    2    0    0  0.71952146993E+02  0.15777278843E+00 -0.16134106538E+02  0.73739038120E+02  0.00000000000E+00 0. -1.
         11    1    1    2    0    0  0.11795593839E+02 -0.61372034225E+02 -0.38150098834E+02  0.73219482790E+02  0.00000000000E+00 0.  1.
</event>
<event>
 7    1  0.2380582E-009  0.1722768E+03  0.7561462E-02  0.1175494E+00
         -3   -1    0    0    0  501 -0.00000000000E+00  0.00000000000E+00  0.60659637038E+02  0.60659637038E+02  0.00000000000E+00 0.  1.
          3   -1    0    0  501    0  0.00000000000E+00 -0.00000000000E+00 -0.58681463836E+03  0.58681463836E+03  0.00000000000E+00 0. -1.
         25    2    1    2    0    0  0.14423917648E+03  0.39360213765E+02 -0.21192195364E+03  0.28794605180E+03  0.12509135803E+03 0.  0.
          5    1    3    3  502    0  0.70267145126E+02 -0.29473766774E+02 -0.15281239083E+03  0.17080771002E+03  0.41800000000E+01 0. -1.
         -5    1    3    3    0  502  0.73972031353E+02  0.68833980539E+02 -0.59109562819E+02  0.11713834178E+03  0.41800000000E+01 0. -1.
        -11    1    1    2    0    0 -0.14710886731E+03 -0.50554835952E+02 -0.25133684292E+03  0.29557912458E+03  0.00000000000E+00 0.  1.
         11    1    1    2    0    0  0.28696908344E+01  0.11194622187E+02 -0.62896204759E+02  0.63949099012E+02  0.00000000000E+00 0. -1.
</event>
<event>
 7    1  0.2380582E-009  0.1499939E+03  0.7561462E-02  0.1200480E+00
         -1   -1    0    0    0  501 -0.00000000000E+00  0.00000000000E+00  0.35270641064E+02  0.35270641064E+02  0.00000000000E+00 0.  1.
          1   -1    0    0  501    0  0.00000000000E+00 -0.00000000000E+00 -0.75805360789E+03  0.75805360789E+03  0.00000000000E+00 0. -1.
         25    2    1    2    0    0 -0.75931732215E+02 -0.94527317217E+02 -0.39760197660E+03  0.43409129045E+03  0.12508746934E+03 0.  0.
          5    1    3    3  502    0 -0.72081470001E+02 -0.21928593931E+02 -0.87452672283E+02  0.11550776527E+03  0.41800000000E+01 0.  1.
         -5    1    3    3    0  502 -0.38502622138E+01 -0.72598723286E+02 -0.31014930432E+03  0.31858352517E+03  0.41800000000E+01 0.  1.
        -11    1    1    2    0    0  0.26692283452E+02  0.98744177002E+02 -0.19973838085E+03  0.22440657582E+03  0.00000000000E+00 0.  1.
         11    1    1    2    0    0  0.49239448763E+02 -0.42168597854E+01 -0.12544260937E+03  0.13482638268E+03  0.00000000000E+00 0. -1.
</event>
<event>
 7    1  0.2380582E-009  0.9947313E+02  0.7561462E-02  0.1281408E+00
          1   -1    0    0  501    0  0.00000000000E+00  0.00000000000E+00  0.67410648209E+02  0.67410648209E+02  0.00000000000E+00 0. -1.
         -1   -1    0    0    0  501 -0.00000000000E+00 -0.00000000000E+00 -0.19489442099E+03  0.19489442099E+03  0.00000000000E+00 0.  1.
         25    2    1    2    0    0  0.38089536127E+02 -0.72401697209E+01 -0.73199142143E+02  0.15002792225E+03  0.12508808986E+03 0.  0.
          5    1    3    3  502    0  0.25807258261E+02 -0.49819016351E+02 -0.86840260757E+02  0.10347295423E+03  0.41800000000E+01 0. -1.
         -5    1    3    3    0  502  0.12282277866E+02  0.42578846630E+02  0.13641118614E+02  0.46554968016E+02  0.41800000000E+01 0. -1.
        -11    1    1    2    0    0 -0.37611869742E+01 -0.39778429689E+02 -0.19503242581E+02  0.44461741612E+02  0.00000000000E+00 0. -1.
         11    1    1    2    0    0 -0.34328349153E+02  0.47018599410E+02 -0.34781388055E+02  0.67815405337E+02  0.00000000000E+00 0.  1.
</event>
<event>
 7    1  0.2380582E-009  0.1257872E+03  0.7561462E-02  0.1233844E+00
         -1   -1    0    0    0  501 -0.00000000000E+00  0.00000000000E+00  0.43988840006E+03  0.43988840006E+03  0.00000000000E+00 0.  1.
          1   -1    0    0  501    0  0.00000000000E+00 -0.00000000000E+00 -0.91267204905E+02  0.91267204905E+02  0.00000000000E+00 0. -1.
         25    2    1    2    0    0 -0.96402861684E+02 -0.12784930277E+02  0.36455509185E+03  0.39749721141E+03  0.12508657763E+03 0.  0.
          5    1    3    3  502    0 -0.40416228946E+02  0.48203184386E+02  0.23801625144E+03  0.24622393648E+03  0.41800000000E+01 0. -1.
         -5    1    3    3    0  502 -0.55986632738E+02 -0.60988114664E+02  0.12653884041E+03  0.15127327493E+03  0.41800000000E+01 0. -1.
        -11    1    1    2    0    0  0.63290883306E+02 -0.11817421888E+02  0.30757884054E+02  0.71354290699E+02  0.00000000000E+00 0.  1.
         11    1    1    2    0    0  0.33111978378E+02  0.24602352166E+02 -0.46691780743E+02  0.62304102860E+02  0.00000000000E+00 0. -1.
</event>
<event>
 7    1  0.2380582E-009  0.1058144E+03  0.7561462E-02  0.1268523E+00
          3   -1    0    0  501    0  0.00000000000E+00  0.00000000000E+00  0.10379151021E+03  0.10379151021E+03  0.00000000000E+00 0. -1.
         -3   -1    0    0    0  501 -0.00000000000E+00 -0.00000000000E+00 -0.13003097420E+03  0.13003097420E+03  0.00000000000E+00 0.  1.
         25    2    1    2    0    0  0.29117554717E+02  0.42556158709E+01 -0.44579255341E+02  0.13601433294E+03  0.12508655603E+03 0.  0.
          5    1    3    3  502    0  0.78563214237E+01 -0.55170800864E+02  0.43385543835E+01  0.56052069617E+02  0.41800000000E+01 0.  1.
         -5    1    3    3    0  502  0.21261233293E+02  0.59426416734E+02 -0.48917809724E+02  0.79962263320E+02  0.41800000000E+01 0.  1.
        -11    1    1    2    0    0  0.30557503346E+02 -0.10909534534E+02 -0.60375636099E+01  0.33003501767E+02  0.00000000000E+00 0.  1.
         11    1    1    2    0    0 -0.59675058063E+02  0.66539186629E+01  0.24377354957E+02  0.64804649703E+02  0.00000000000E+00 0. -1.
</event>
<event>
 7    1  0.2380582E-009  0.1429124E+03  0.7561462E-02  0.1209463E+00
          1   -1    0    0  501    0  0.00000000000E+00  0.00000000000E+00  0.31016975300E+04  0.31016975300E+04  0.00000000000E+00 0. -1.
         -1   -1    0    0    0  501 -0.00000000000E+00 -0.00000000000E+00 -0.12019169800E+02  0.12019169800E+02  0.00000000000E+00 0.  1.
         25    2    1    2    0    0  0.35901279698E+02 -0.92050136856E+02  0.26285797982E+04  0.26334087716E+04  0.12509145872E+03 0.  0.
          5    1    3    3  502    0  0.27066750121E+02  0.27612705091E+02  0.73226445897E+03  0.73329651623E+03  0.41800000000E+01 0. -1.
         -5    1    3    3    0  502  0.88345295762E+01 -0.11966284195E+03  0.18963153393E+04  0.19001122554E+04  0.41800000000E+01 0. -1.
        -11    1    1    2    0    0 -0.21955055394E+02 -0.98204918871E+01  0.38616778666E+02  0.45494198672E+02  0.00000000000E+00 0.  1.
         11    1    1    2    0    0 -0.13946224304E+02  0.10187062874E+03  0.42248178334E+03  0.43481372957E+03  0.00000000000E+00 0. -1.
</event>
<event>
 7    1  0.2380582E-009  0.9122275E+02  0.7561462E-02  0.1299917E+00
          2   -1    0    0  501    0  0.00000000000E+00  0.00000000000E+00  0.16642938780E+03  0.16642938780E+03  0.00000000000E+00 0. -1.
         -2   -1    0    0    0  501 -0.00000000000E+00 -0.00000000000E+00 -0.79514666360E+02  0.79514666360E+02  0.00000000000E+00 0.  1.
         25    2    1    2    0    0 -0.95586275911E+01  0.19815552641E+02  0.32801838125E+02  0.13117783247E+03  0.12509052585E+03 0.  0.
          5    1    3    3  502    0 -0.44261163990E+02 -0.59767106750E+01  0.63671854473E+02  0.77886771408E+02  0.41800000000E+01 0.  1.
         -5    1    3    3    0  502  0.34702536399E+02  0.25792263316E+02 -0.30870016348E+02  0.53291061060E+02  0.41800000000E+01 0.  1.
        -11    1    1    2    0    0  0.23173050465E+02  0.32597980793E+02  0.44385075223E+02  0.59746577493E+02  0.00000000000E+00 0. -1.
         11    1    1    2    0    0 -0.13614422873E+02 -0.52413533434E+02  0.97278080878E+01  0.55019644196E+02  0.00000000000E+00 0.  1.
</event>
<event>
 7    1  0.2380582E-009  0.1314164E+03  0.7561462E-02  0.1225369E+00
          2   -1    0    0  501    0  0.00000000000E+00  0.00000000000E+00  0.19533067768E+02  0.19533067768E+02  0.00000000000E+00 0. -1.
         -2   -1    0    0    0  501 -0.00000000000E+00 -0.00000000000E+00 -0.14289509423E+04  0.14289509423E+04  0.00000000000E+00 0.  1.
         25    2    1    2    0    0 -0.99356279095E+02 -0.58806882431E+02 -0.98884335217E+03  0.10033885963E+04  0.12509028915E+03 0.  0.
          5    1    3    3  502    0 -0.87121157467E+02 -0.44218994418E+02 -0.97397624005E+03  0.97887312974E+03  0.41800000000E+01 0. -1.
         -5    1    3    3    0  502 -0.12235121628E+02 -0.14587888013E+02 -0.14867112120E+02  0.24515466561E+02  0.41800000000E+01 0. -1.
        -11    1    1    2    0    0  0.49840920041E+02  0.77900729567E+02 -0.25755356016E+03  0.27365393717E+03  0.00000000000E+00 0.  1.
         11    1    1    2    0    0  0.49515359054E+02 -0.19093847136E+02 -0.16302096225E+03  0.17144147664E+03  0.00000000000E+00 0. -1.
</event>
<event>
 7    1  0.2380582E-009  0.2883987E+03  0.7561462E-02  0.1091188E+00
          2   -1    0    0  501    0  0.00000000000E+00  0.00000000000E+00  0.15594894180E+04  0.15594894180E+04  0.00000000000E+00 0. -1.
         -2   -1    0    0    0  501 -0.00000000000E+00 -0.00000000000E+00 -0.62408126831E+02  0.62408126831E+02  0.00000000000E+00 0.  1.
         25    2    1    2    0    0 -0.23014445996E+03  0.16524613494E+03  0.94919610193E+03  0.99844413120E+03  0.12507871783E+03 0.  0.
          5    1    3    3  502    0 -0.85004140107E+02  0.49120895549E+02  0.54164374759E+03  0.55048522952E+03  0.41800000000E+01 0. -1.
         -5    1    3    3    0  502 -0.14514031985E+03  0.11612523939E+03  0.40755235433E+03  0.44795890168E+03  0.41800000000E+01 0. -1.
        -11    1    1    2    0    0  0.17061320720E+03 -0.79512617653E+02  0.40399035825E+03  0.44568972659E+03  0.00000000000E+00 0. -1.
         11    1    1    2    0    0  0.59531252761E+02 -0.85733517283E+02  0.14389483099E+03  0.17776368703E+03  0.00000000000E+00 0.  1.
</event>
<event>
 7    1  0.2380582E-009  0.6986303E+02  0.7561462E-02  0.1360559E+00
         -1   -1    0    0    0  501 -0.00000000000E+00  0.00000000000E+00  0.71146140380E+02  0.71146140380E+02  0.00000000000E+00 0.  1.
          1   -1    0    0  501    0  0.00000000000E+00 -0.00000000000E+00 -0.29238363682E+03  0.29238363682E+03  0.00000000000E+00 0. -1.
         25    2    1    2    0    0  0.26851729631E+01 -0.47580473472E+02 -0.21918022206E+03  0.25681970738E+03  0.12508109667E+03 0.  0.
          5    1    3    3  502    0  0.18233010640E+02 -0.37884879895E+02 -0.23085842137E+03  0.23469296947E+03  0.41800000000E+01 0. -1.
         -5    1    3    3    0  502 -0.15547837677E+02 -0.96955935769E+01  0.11678199307E+02  0.22126737905E+02  0.41800000000E+01 0. -1.
        -11    1    1    2    0    0  0.26873283722E+02  0.39960043171E+02  0.34385551062E+02  0.59172160262E+02  0.00000000000E+00 0.  1.
         11    1    1    2    0    0 -0.29558456685E+02  0.76204303014E+01 -0.36442825437E+02  0.47537909561E+02  0.00000000000E+00 0. -1.
</event>
<event>
 7    1  0.2995548E-009  0.1044393E+03  0.7561462E-02  0.1271228E+00
         -2   -1    0    0    0  501 -0.00000000000E+00  0.00000000000E+00  0.18970861366E+02  0.18970861366E+02  0.00000000000E+00 0. -1.
          2   -1    0    0  501    0  0.00000000000E+00 -0.00000000000E+00 -0.99300216478E+03  0.99300216478E+03  0.00000000000E+00 0.  1.
         25    2    1    2    0    0 -0.54822201060E+02  0.52589351528E+01 -0.76443350533E+03  0.77655560069E+03  0.12508751641E+03 0.  0.
          5    1    3    3  502    0 -0.52930846860E+02 -0.33448872399E+02 -0.17636412852E+03  0.18719583287E+03  0.41800000000E+01 0. -1.
         -5    1    3    3    0  502 -0.18913542008E+01  0.38707807552E+02 -0.58806937681E+03  0.58935976782E+03  0.41800000000E+01 0. -1.
        -11    1    1    2    0    0  0.26351885812E+02  0.43398132693E+02 -0.10274538932E+03  0.11460556196E+03  0.00000000000E+00 0. -1.
         11    1    1    2    0    0  0.28470315248E+02 -0.48657067846E+02 -0.10685240877E+03  0.12081186350E+03  0.00000000000E+00 0.  1.
</event>
<event>
 7    1  0.2380582E-009  0.1094777E+03  0.7561462E-02  0.1261540E+00
         -1   -1    0    0    0  501 -0.00000000000E+00  0.00000000000E+00  0.48799841475E+02  0.48799841475E+02  0.00000000000E+00 0.  1.
          1   -1    0    0  501    0  0.00000000000E+00 -0.00000000000E+00 -0.43601681734E+03  0.43601681734E+03  0.00000000000E+00 0. -1.
         25    2    1    2    0    0 -0.15888206400E+02 -0.43126574060E+01 -0.17588750046E+03  0.21646029829E+03  0.12509042250E+03 0.  0.
          5    1    3    3  502    0  0.34408294299E+02  0.27921205444E+02 -0.13940434096E+03  0.14633716926E+03  0.41800000000E+01 0.  1.
         -5    1    3    3    0  502 -0.50296500699E+02 -0.32233862851E+02 -0.36483159500E+02  0.70123129023E+02  0.41800000000E+01 0.  1.
        -11    1    1    2    0    0  0.10057380685E+02 -0.54520565694E+02 -0.72822369693E+01  0.55916669833E+02  0.00000000000E+00 0.  1.
         11    1    1    2    0    0  0.58308257147E+01  0.58833223100E+02 -0.20404723844E+03  0.21243969070E+03  0.00000000000E+00 0. -1.
</event>
<event>
 7    1  0.2380582E-009  0.1401953E+03  0.7561462E-02  0.1213066E+00
         -2   -1    0    0    0  501 -0.00000000000E+00  0.00000000000E+00  0.91979083369E+02  0.91979083369E+02  0.00000000000E+00 0.  1.
          2   -1    0    0  501    0  0.00000000000E+00 -0.00000000000E+00 -0.24993141632E+03  0.24993141632E+03  0.00000000000E+00 0. -1.
         25    2    1    2    0    0 -0.57806591778E+02 -0.84967711215E+02 -0.10842851770E+03  0.19484463852E+03  0.12508627306E+03 0.  0.
          5    1    3    3  502    0  0.16796953498E+02  0.11517548217E+02 -0.60089159927E+02  0.63584362107E+02  0.41800000000E+01 0.  1.
         -5    1    3    3    0  502 -0.74603545277E+02 -0.96485259432E+02 -0.48339357773E+02  0.13126027642E+03  0.41800000000E+01 0.  1.
        -11    1    1    2    0    0  0.79030021766E+01  0.87251616774E+02 -0.23342869209E+02  0.90665272381E+02  0.00000000000E+00 0.  1.
         11    1    1    2    0    0  0.49903589602E+02 -0.22839055586E+01 -0.26180946047E+02  0.56400588788E+02  0.00000000000E+00 0. -1.
</event>
<event>
 7    1  0.2380582E-009  0.1223020E+03  0.7561462E-02  0.1239347E+00
          3   -1    0    0  501    0  0.00000000000E+00  0.00000000000E+00  0.11234422001E+03  0.11234422001E+03  0.00000000000E+00 0. -1.
         -3   -1    0    0    0  501 -0.00000000000E+00 -0.00000000000E+00 -0.20751240559E+03  0.20751240559E+03  0.00000000000E+00 0.  1.
         25    2    1    2    0    0  0.18117712420E+02 -0.10157416496E+03 -0.24434769730E+02  0.16398486540E+03  0.12509362740E+03 0.  0.
          5    1    3    3  502    0  0.40434872602E+02 -0.40340388141E+01  0.29357131791E+02  0.50304731174E+02  0.41800000000E+01 0.  1.
         -5    1    3    3    0  502 -0.22317160182E+02 -0.97540126147E+02 -0.53791901521E+02  0.11368013422E+03  0.41800000000E+01 0.  1.
        -11    1    1    2    0    0 -0.31609531196E+00  0.24533383829E+02  0.22731300418E+02  0.33446955871E+02  0.00000000000E+00 0. -1.
         11    1    1    2    0    0 -0.17801617108E+02  0.77040781132E+02 -0.93464716265E+02  0.12242480433E+03  0.00000000000E+00 0.  1.
</event>
<event>
 7    1  0.2380582E-009  0.1350135E+03  0.7561462E-02  0.1220201E+00
         -1   -1    0    0    0  501 -0.00000000000E+00  0.00000000000E+00  0.47239746657E+03  0.47239746657E+03  0.00000000000E+00 0.  1.
          1   -1    0    0  501    0  0.00000000000E+00 -0.00000000000E+00 -0.51189780959E+02  0.51189780959E+02  0.00000000000E+00 0. -1.
         25    2    1    2    0    0  0.89510076726E+02  0.63189189261E+02  0.21310773132E+03  0.27030981854E+03  0.12509022893E+03 0.  0.
          5    1    3    3  502    0  0.93407530906E+02  0.81402346217E+02  0.21783814015E+03  0.25064364445E+03  0.41800000000E+01 0.  1.
         -5    1    3    3    0  502 -0.38974541794E+01 -0.18213156957E+02 -0.47304088309E+01  0.19666174084E+02  0.41800000000E+01 0.  1.
        -11    1    1    2    0    0 -0.69075283355E+02 -0.76116545078E+02  0.10330661982E+03  0.14573050780E+03  0.00000000000E+00 0. -1.
         11    1    1    2    0    0 -0.20434793371E+02  0.12927355817E+02  0.10479333448E+03  0.10754692120E+03  0.00000000000E+00 0.  1.
</event>
<event>
 7    1  0.2380582E-009  0.1063225E+03  0.7561462E-02  0.1267536E+00
         -1   -1    0    0    0  501 -0.00000000000E+00  0.00000000000E+00  0.37326156782E+02  0.37326156782E+02  0.00000000000E+00 0.  1.
          1   -1    0    0  501    0  0.00000000000E+00 -0.00000000000E+00 -0.45826072090E+03  0.45826072090E+03  0.00000000000E+00 0. -1.
         25    2    1    2    0    0  0.79428041860E+02 -0.18602375150E+02 -0.25135043493E+03  0.29236834010E+03  0.12508933989E+03 0.  0.
          5    1    3    3  502    0  0.27110682439E+02 -0.38098225553E+02 -0.14712869613E+02  0.49197609950E+02  0.41800000000E+01 0. -1.
         -5    1    3    3    0  502  0.52317359421E+02  0.19495850403E+02 -0.23663756532E+03  0.24317073015E+03  0.41800000000E+01 0. -1.
        -11    1    1    2    0    0 -0.31496870760E+02  0.45048756039E+02 -0.64616902645E+02  0.84833881178E+02  0.00000000000E+00 0.  1.
         11    1    1    2    0    0 -0.47931171101E+02 -0.26446380889E+02 -0.10496722654E+03  0.11838465641E+03  0.00000000000E+00 0. -1.
</event>
<event>
 7    1  0.2380582E-009  0.8987609E+02  0.7561462E-02  0.1303152E+00
         -2   -1    0    0    0  501 -0.00000000000E+00  0.00000000000E+00  0.97577173958E+02  0.97577173958E+02  0.00000000000E+00 0.  1.
          2   -1    0    0  501    0  0.00000000000E+00 -0.00000000000E+00 -0.14767509246E+03  0.14767509246E+03  0.00000000000E+00 0. -1.
         25    2    1    2    0    0 -0.31810383334E+02  0.36286617543E+02 -0.37094562708E+01  0.13412691626E+03  0.12509056919E+03 0.  0.
          5    1    3    3  502    0  0.73018698513E+01 -0.14770844385E+02 -0.51277554977E+02  0.54021802928E+02  0.41800000000E+01 0. -1.
         -5    1    3    3    0  502 -0.39112253186E+02  0.51057461928E+02  0.47568098707E+02  0.80105113335E+02  0.41800000000E+01 0. -1.
        -11    1    1    2    0    0  0.59285059968E+02 -0.97090420376E+01 -0.40492364828E+02  0.72447328744E+02  0.00000000000E+00 0.  1.
         11    1    1    2    0    0 -0.27474676634E+02 -0.26577575505E+02 -0.58960974047E+01  0.38678021414E+02  0.00000000000E+00 0. -1.
</event>
<event>
 7    1  0.2380582E-009  0.1780566E+03  0.7561462E-02  0.1169697E+00
         -4   -1    0    0    0  501 -0.00000000000E+00  0.00000000000E+00  0.39594161248E+03  0.39594161248E+03  0.00000000000E+00 0.  1.
          4   -1    0    0  501    0  0.00000000000E+00 -0.00000000000E+00 -0.12647006071E+03  0.12647006071E+03  0.00000000000E+00 0. -1.
         25    2    1    2    0    0 -0.16524224470E+03 -0.15095647769E+02  0.19526674452E+02  0.20871301726E+03  0.12508778734E+03 0.  0.
          5    1    3    3  502    0 -0.12186637880E+03 -0.31957990811E+02 -0.40720293675E+02  0.13247015580E+03  0.41800000000E+01 0. -1.
         -5    1    3    3    0  502 -0.43375865900E+02  0.16862343042E+02  0.60246968127E+02  0.76242861462E+02  0.41800000000E+01 0. -1.
        -11    1    1    2    0    0  0.78457010419E+02 -0.31834528710E+02  0.76271221159E+02  0.11395718003E+03  0.00000000000E+00 0.  1.
         11    1    1    2    0    0  0.86785234285E+02  0.46930176479E+02  0.17367365616E+03  0.19974147591E+03  0.00000000000E+00 0. -1.
</event>
<event>
 7    1  0.2380582E-009  0.1022040E+03  0.7561462E-02  0.1275728E+00
         -2   -1    0    0    0  501 -0.00000000000E+00  0.00000000000E+00  0.12393976341E+03  0.12393976341E+03  0.00000000000E+00 0.  1.
          2   -1    0    0  501    0  0.00000000000E+00 -0.00000000000E+00 -0.16484554892E+03  0.16484554892E+03  0.00000000000E+00 0. -1.
         25    2    1    2    0    0  0.24051653726E+02 -0.23232912070E+02  0.64168086491E+02  0.14451451382E+03  0.12509456875E+03 0.  0.
          5    1    3    3  502    0  0.56194679362E+01  0.51317203621E+02  0.33694744412E+02  0.61788688352E+02  0.41800000000E+01 0.  1.
         -5    1    3    3    0  502  0.18432185790E+02 -0.74550115691E+02  0.30473342079E+02  0.82725825471E+02  0.41800000000E+01 0.  1.
        -11    1    1    2    0    0 -0.47392406061E+02  0.86237777811E+01 -0.15566058177E+02  0.50623234415E+02  0.00000000000E+00 0.  1.
         11    1    1    2    0    0  0.23340752335E+02  0.14609134289E+02 -0.89507813826E+02  0.93647564091E+02  0.00000000000E+00 0. -1.
</event>
<event>
 7    1  0.2380582E-009  0.1413659E+03  0.7561462E-02  0.1211503E+00
          2   -1    0    0  501    0  0.00000000000E+00  0.00000000000E+00  0.65467078191E+03  0.65467078191E+03  0.00000000000E+00 0. -1.
         -2   -1    0    0    0  501 -0.00000000000E+00 -0.00000000000E+00 -0.38203658348E+02  0.38203658348E+02  0.00000000000E+00 0.  1.
         25    2    1    2    0    0 -0.49051901823E+02 -0.10615944637E+03  0.34986592751E+03  0.38952540151E+03  0.12509178253E+03 0.  0.
          5    1    3    3  502    0  0.29851522459E+02 -0.27359488445E+01  0.23994409824E+02  0.38623864540E+02  0.41800000000E+01 0. -1.
         -5    1    3    3    0  502 -0.78903424282E+02 -0.10342349752E+03  0.32587151769E+03  0.35090153697E+03  0.41800000000E+01 0. -1.
        -11    1    1    2    0    0  0.39452546331E+02  0.42718338848E+02  0.47616267776E+02  0.75157626644E+02  0.00000000000E+00 0.  1.
         11    1    1    2    0    0  0.95993554925E+01  0.63441107520E+02  0.21898492827E+03  0.22819141211E+03  0.00000000000E+00 0. -1.
</event>
<event>
 7    1  0.2380582E-009  0.8807566E+02  0.7561462E-02  0.1307580E+00
          1   -1    0    0  501    0  0.00000000000E+00  0.00000000000E+00  0.32444052330E+02  0.32444052330E+02  0.00000000000E+00 0. -1.
         -1   -1    0    0    0  501 -0.00000000000E+00 -0.00000000000E+00 -0.37383396703E+03  0.37383396703E+03  0.00000000000E+00 0.  1.
         25    2    1    2    0    0  0.14350595921E+02  0.20010586208E+02 -0.20855815062E+03  0.24444207221E+03  0.12509620823E+03 0.  0.
          5    1    3    3  502    0  0.64103561844E+02 -0.14985725563E+02 -0.96906540533E+02  0.11722708138E+03  0.41800000000E+01 0.  1.
         -5    1    3    3    0  502 -0.49752965923E+02  0.34996311771E+02 -0.11165161009E+03  0.12721499082E+03  0.41800000000E+01 0.  1.
        -11    1    1    2    0    0  0.10482953868E+02  0.69364541933E+01  0.89269519821E+01  0.15417431377E+02  0.00000000000E+00 0. -1.
         11    1    1    2    0    0 -0.24833549789E+02 -0.26947040401E+02 -0.14175871607E+03  0.14641851578E+03  0.00000000000E+00 0.  1.
</event>
<event>
 7    1  0.2380582E-009  0.1383541E+03  0.7561462E-02  0.1215561E+00
          1   -1    0    0  501    0  0.00000000000E+00  0.00000000000E+00  0.11378756891E+04  0.11378756891E+04  0.00000000000E+00 0. -1.
         -1   -1    0    0    0  501 -0.00000000000E+00 -0.00000000000E+00 -0.19859297562E+02  0.19859297562E+02  0.00000000000E+00 0.  1.
         25    2    1    2    0    0  0.51568935451E+02  0.92419908194E+02  0.81425306165E+03  0.83057592358E+03  0.12509005508E+03 0.  0.
          5    1    3    3  502    0  0.83713071077E+02  0.96656846493E+02  0.70585721662E+03  0.71735786530E+03  0.41800000000E+01 0. -1.
         -5    1    3    3    0  502 -0.32144135626E+02 -0.42369382981E+01  0.10839584503E+03  0.11321805828E+03  0.41800000000E+01 0. -1.
        -11    1    1    2    0    0 -0.25825286816E+02 -0.85654199222E+02  0.18561952111E+03  0.20605386165E+03  0.00000000000E+00 0. -1.
         11    1    1    2    0    0 -0.25743648635E+02 -0.67657089720E+01  0.11814380882E+03  0.12110520148E+03  0.00000000000E+00 0.  1.
</event>
<event>
 7    1  0.2380582E-009  0.1090251E+03  0.7561462E-02  0.1262386E+00
         -2   -1    0    0    0  501 -0.00000000000E+00  0.00000000000E+00  0.51563901107E+02  0.51563901107E+02  0.00000000000E+00 0.  1.
          2   -1    0    0  501    0  0.00000000000E+00 -0.00000000000E+00 -0.26332547635E+03  0.26332547635E+03  0.00000000000E+00 0. -1.
         25    2    1    2    0    0 -0.23371359419E+01  0.38523577665E+02 -0.86004008456E+02  0.15664123760E+03  0.12510099762E+03 0.  0.
          5    1    3    3  502    0  0.46626033693E+02 -0.17950436436E+02 -0.58117253679E+02  0.76754757256E+02  0.41800000000E+01 0. -1.
         -5    1    3    3    0  502 -0.48963169635E+02  0.56474014101E+02 -0.27886754777E+02  0.79886480342E+02  0.41800000000E+01 0. -1.
        -11    1    1    2    0    0  0.39642842513E+02 -0.30359209194E+00 -0.34710289999E+02  0.52692042686E+02  0.00000000000E+00 0. -1.
         11    1    1    2    0    0 -0.37305706571E+02 -0.38219985573E+02 -0.91047276784E+02  0.10555609717E+03  0.00000000000E+00 0.  1.
</event>
<event>
 7    1  0.2380582E-009  0.1170598E+03  0.7561462E-02  0.1248028E+00
         -2   -1    0    0    0  501 -0.00000000000E+00  0.00000000000E+00  0.42786488032E+02  0.42786488032E+02  0.00000000000E+00 0.  1.
          2   -1    0    0  501    0  0.00000000000E+00 -0.00000000000E+00 -0.82622018574E+03  0.82622018574E+03  0.00000000000E+00 0. -1.
         25    2    1    2    0    0 -0.10014999074E+03 -0.77207115498E+01 -0.68012344194E+03  0.69878843734E+03  0.12509098228E+03 0.  0.
          5    1    3    3  502    0 -0.67906882273E+02 -0.46578341098E+02 -0.20483288311E+03  0.22080504732E+03  0.41800000000E+01 0. -1.
         -5    1    3    3    0  502 -0.32243108471E+02  0.38857629548E+02 -0.47529055883E+03  0.47798339002E+03  0.41800000000E+01 0. -1.
        -11    1    1    2    0    0  0.22526962982E+02 -0.26771750055E+01 -0.87407780185E+02  0.90303661964E+02  0.00000000000E+00 0. -1.
         11    1    1    2    0    0  0.77623027762E+02  0.10397886555E+02 -0.15902475588E+02  0.79914574475E+02  0.00000000000E+00 0.  1.
</event>
<event>
 7    1  0.2380582E-009  0.1213938E+03  0.7561462E-02  0.1240815E+00
          4   -1    0    0  501    0  0.00000000000E+00  0.00000000000E+00  0.13539751754E+03  0.13539751754E+03  0.00000000000E+00 0. -1.
         -4   -1    0    0    0  501 -0.00000000000E+00 -0.00000000000E+00 -0.14605678000E+03  0.14605678000E+03  0.00000000000E+00 0.  1.
         25    2    1    2    0    0 -0.88583977325E+02 -0.39441482101E+01 -0.13161539935E+02  0.15389414473E+03  0.12508998483E+03 0.  0.
          5    1    3    3  502    0 -0.11933624239E+03  0.52556489108E+01 -0.18928477268E+02  0.12101454559E+03  0.41800000000E+01 0.  1.
         -5    1    3    3    0  502  0.30752265061E+02 -0.91997971209E+01  0.57669373330E+01  0.32879599140E+02  0.41800000000E+01 0.  1.
        -11    1    1    2    0    0  0.27361466040E+02  0.10528109333E+02  0.44311537027E+02  0.53131941652E+02  0.00000000000E+00 0. -1.
         11    1    1    2    0    0  0.61222511285E+02 -0.65839611226E+01 -0.41809259549E+02  0.74428211158E+02  0.00000000000E+00 0.  1.
</event>
<event>
 7    1  0.2380582E-009  0.7509417E+02  0.7561462E-02  0.1343580E+00
          1   -1    0    0  501    0  0.00000000000E+00  0.00000000000E+00  0.84840855791E+02  0.84840855791E+02  0.00000000000E+00 0. -1.
         -1   -1    0    0    0  501 -0.00000000000E+00 -0.00000000000E+00 -0.25420643962E+03  0.25420643962E+03  0.00000000000E+00 0.  1.
         25    2    1    2    0    0 -0.17731252055E+02 -0.59675663058E+02 -0.17833883771E+03  0.22655636759E+03  0.12508982613E+03 0.  0.
          5    1    3    3  502    0 -0.22557202882E+02 -0.69546222453E+02 -0.32289874083E+02  0.80035072485E+02  0.41800000000E+01 0.  1.
         -5    1    3    3    0  502  0.48259508267E+01  0.98705593952E+01 -0.14604896362E+03  0.14652129511E+03  0.41800000000E+01 0.  1.
        -11    1    1    2    0    0 -0.38040712990E+01  0.16740205854E+02 -0.40223561806E+02  0.43733744121E+02  0.00000000000E+00 0.  1.
         11    1    1    2    0    0  0.21535323354E+02  0.42935457204E+02  0.49196815681E+02  0.68757183700E+02  0.00000000000E+00 0. -1.
</event>
<event>
 7    1  0.2380582E-009  0.9317177E+02  0.7561462E-02  0.1295348E+00
         -1   -1    0    0    0  501 -0.00000000000E+00  0.00000000000E+00  0.27574641179E+02  0.27574641179E+02  0.00000000000E+00 0.  1.
          1   -1    0    0  501    0  0.00000000000E+00 -0.00000000000E+00 -0.41613053730E+03  0.41613053730E+03  0.00000000000E+00 0. -1.
         25    2    1    2    0    0 -0.11857268897E+02 -0.78847241574E+01 -0.24625015483E+03  0.27656696997E+03  0.12508951364E+03 0.  0.
          5    1    3    3  502    0 -0.45880286042E+02  0.42010534930E+02 -0.15492439043E+03  0.16699977498E+03  0.41800000000E+01 0.  1.
         -5    1    3    3    0  502  0.34023017145E+02 -0.49895259087E+02 -0.91325764405E+02  0.10956719500E+03  0.41800000000E+01 0.  1.
        -11    1    1    2    0    0  0.37400748239E+02  0.55295277881E+01 -0.13539110522E+03  0.14057077584E+03  0.00000000000E+00 0. -1.
         11    1    1    2    0    0 -0.25543479342E+02  0.23551963693E+01 -0.69146360690E+01  0.26567432672E+02  0.00000000000E+00 0.  1.
</event>
<event>
 7    1  0.2380582E-009  0.1352588E+03  0.7561462E-02  0.1219855E+00
         -1   -1    0    0    0  501 -0.00000000000E+00  0.00000000000E+00  0.90399298330E+02  0.90399298330E+02  0.00000000000E+00 0.  1.
          1   -1    0    0  501    0  0.00000000000E+00 -0.00000000000E+00 -0.28954995355E+03  0.28954995355E+03  0.00000000000E+00 0. -1.
         25    2    1    2    0    0 -0.42342771151E+02 -0.10031585628E+03 -0.16266617698E+03  0.23230145655E+03  0.12508996878E+03 0.  0.
          5    1    3    3  502    0 -0.82851340799E+02 -0.73744915365E+02 -0.13997413097E+03  0.17864178390E+03  0.41800000000E+01 0. -1.
         -5    1    3    3    0  502  0.40508569648E+02 -0.26570940920E+02 -0.22692046007E+02  0.53659672644E+02  0.41800000000E+01 0. -1.
        -11    1    1    2    0    0  0.30600410691E+02  0.45474453640E+02 -0.64757359954E+02  0.84840006698E+02  0.00000000000E+00 0. -1.
         11    1    1    2    0    0  0.11742360461E+02  0.54841402645E+02  0.28272881711E+02  0.62807788637E+02  0.00000000000E+00 0.  1.
</event>
<event>
 7    1  0.2412899E-009  0.1307970E+03  0.7561462E-02  0.1226278E+00
          2   -1    0    0  501    0  0.00000000000E+00  0.00000000000E+00  0.49891618745E+03  0.49891618745E+03  0.00000000000E+00 0. -1.
         -2   -1    0    0    0  501 -0.00000000000E+00 -0.00000000000E+00 -0.53243337230E+02  0.53243337230E+02  0.00000000000E+00 0.  1.
         25    2    1    2    0    0 -0.33803558257E+02  0.78842547886E+02  0.93352595711E+02  0.17810490102E+03  0.12509124963E+03 0.  0.
          5    1    3    3  502    0  0.29996115935E+02  0.63458762371E+02  0.87255794365E+02  0.11206171310E+03  0.41800000000E+01 0. -1.
         -5    1    3    3    0  502 -0.63799674193E+02  0.15383785515E+02  0.60968013469E+01  0.66043187919E+02  0.41800000000E+01 0. -1.
        -11    1    1    2    0    0  0.54890415329E+02 -0.13039167329E+02  0.16686541365E+03  0.17614495125E+03  0.00000000000E+00 0. -1.
         11    1    1    2    0    0 -0.21086857072E+02 -0.65803380557E+02  0.18545484086E+03  0.19790967241E+03  0.00000000000E+00 0.  1.
</event>
<event>
 7    1  0.2380582E-009  0.8838387E+02  0.7561462E-02  0.1306813E+00
          1   -1    0    0  501    0  0.00000000000E+00  0.00000000000E+00  0.48233002367E+02  0.48233002367E+02  0.00000000000E+00 0. -1.
         -1   -1    0    0    0  501 -0.00000000000E+00 -0.00000000000E+00 -0.28753142618E+03  0.28753142618E+03  0.00000000000E+00 0.  1.
         25    2    1    2    0    0 -0.19085023223E+02  0.41212638377E+02 -0.13834031810E+03  0.19196027784E+03  0.12509190615E+03 0.  0.
          5    1    3    3  502    0 -0.41548758795E+02  0.20593739089E+02  0.36210151670E+01  0.46701023521E+02  0.41800000000E+01 0.  1.
         -5    1    3    3    0  502  0.22463735573E+02  0.20618899287E+02 -0.14196133326E+03  0.14525925432E+03  0.41800000000E+01 0.  1.
        -11    1    1    2    0    0  0.49211586321E+02 -0.10482649924E+01 -0.32799621818E+02  0.59149761446E+02  0.00000000000E+00 0. -1.
         11    1    1    2    0    0 -0.30126563098E+02 -0.40164373384E+02 -0.68158483899E+02  0.84654389260E+02  0.00000000000E+00 0.  1.
</event>
<event>
 7    1  0.2461190E-009  0.2160432E+03  0.7561462E-02  0.1136868E+00
          1   -1    0    0  501    0  0.00000000000E+00  0.00000000000E+00  0.59829027960E+03  0.59829027960E+03  0.00000000000E+00 0. -1.
         -1   -1    0    0    0  501 -0.00000000000E+00 -0.00000000000E+00 -0.10347480247E+03  0.10347480247E+03  0.00000000000E+00 0.  1.
         25    2    1    2    0    0 -0.18640018113E+03  0.53403973499E+02  0.97598621750E+02  0.25054532692E+03  0.12510179041E+03 0.  0.
          5    1    3    3  502    0 -0.13681166579E+02 -0.24838573654E+02  0.45642814448E+02  0.53896827094E+02  0.41800000000E+01 0. -1.
         -5    1    3    3    0  502 -0.17271901455E+03  0.78242547152E+02  0.51955807302E+02  0.19664849983E+03  0.41800000000E+01 0. -1.
        -11    1    1    2    0    0  0.12545137736E+03 -0.78347448359E+02  0.26380402259E+03  0.30243831285E+03  0.00000000000E+00 0. -1.
         11    1    1    2    0    0  0.60948803773E+02  0.24943474861E+02  0.13341283279E+03  0.14878144230E+03  0.00000000000E+00 0.  1.
</event>
<event>
 7    1  0.2380582E-009  0.1220161E+03  0.7561462E-02  0.1239808E+00
          1   -1    0    0  501    0  0.00000000000E+00  0.00000000000E+00  0.24390211703E+03  0.24390211703E+03  0.00000000000E+00 0. -1.
         -1   -1    0    0    0  501 -0.00000000000E+00 -0.00000000000E+00 -0.69941214101E+02  0.69941214101E+02  0.00000000000E+00 0.  1.
         25    2    1    2    0    0  0.57605393231E+02  0.25703264875E+02  0.14266042918E+03  0.19994781318E+03  0.12509232906E+03 0.  0.
          5    1    3    3  502    0 -0.35106144107E+02 -0.11578560391E+02  0.58035986561E+02  0.68935858237E+02  0.41800000000E+01 0. -1.
         -5    1    3    3    0  502  0.92711537338E+02  0.37281825267E+02  0.84624442616E+02  0.13101195495E+03  0.41800000000E+01 0. -1.
        -11    1    1    2    0    0  0.54340339999E+01 -0.41478448048E+02  0.15313532782E+00  0.41833166607E+02  0.00000000000E+00 0.  1.
         11    1    1    2    0    0 -0.63039427231E+02  0.15775183173E+02  0.31147338425E+02  0.72062351340E+02  0.00000000000E+00 0. -1.
</event>
<event>
 7    1  0.2380582E-009  0.1294085E+03  0.7561462E-02  0.1228336E+00
          1   -1    0    0  501    0  0.00000000000E+00  0.00000000000E+00  0.14472832840E+04  0.14472832840E+04  0.00000000000E+00 0. -1.
         -1   -1    0    0    0  501 -0.00000000000E+00 -0.00000000000E+00 -0.14725014010E+02  0.14725014010E+02  0.00000000000E+00 0.  1.
         25    2    1    2    0    0  0.57446048984E+02  0.47094543951E+02  0.11145669163E+04  0.11240226437E+04  0.12509815357E+03 0.  0.
          5    1    3    3  502    0 -0.38834289141E+02  0.22771542927E+01  0.31703717760E+03  0.31944221986E+03  0.41800000000E+01 0. -1.
         -5    1    3    3    0  502  0.96280338125E+02  0.44817389658E+02  0.79752973869E+03  0.80458042384E+03  0.41800000000E+01 0. -1.
        -11    1    1    2    0    0  0.42837032539E+01  0.21039074867E+02  0.43575241053E+02  0.48577715237E+02  0.00000000000E+00 0.  1.
         11    1    1    2    0    0 -0.61729752238E+02 -0.68133618818E+02  0.27441611269E+03  0.28940793912E+03  0.00000000000E+00 0. -1.
</event>
<event>
 7    1  0.2380582E-009  0.9206443E+02  0.7561462E-02  0.1297928E+00
         -2   -1    0    0    0  501 -0.00000000000E+00  0.00000000000E+00  0.31885830470E+02  0.31885830470E+02  0.00000000000E+00 0.  1.
          2   -1    0    0  501    0  0.00000000000E+00 -0.00000000000E+00 -0.59244384355E+03  0.59244384355E+03  0.00000000000E+00 0. -1.
         25    2    1    2    0    0  0.76662323089E+02 -0.10515917789E+02 -0.37396688645E+03  0.40185383452E+03  0.12509027080E+03 0.  0.
          5    1    3    3  502    0  0.53468713859E+02 -0.33498154464E+02 -0.63387299487E+02  0.89534640505E+02  0.41800000000E+01 0. -1.
         -5    1    3    3    0  502  0.23193609230E+02  0.22982236675E+02 -0.31057958696E+03  0.31231919401E+03  0.41800000000E+01 0. -1.
        -11    1    1    2    0    0 -0.24184632265E+02  0.23707743884E+02 -0.65696719200E+01  0.34498031059E+02  0.00000000000E+00 0.  1.
         11    1    1    2    0    0 -0.52477690824E+02 -0.13191826095E+02 -0.18002145471E+03  0.18797780844E+03  0.00000000000E+00 0. -1.
</event>
<event>
 7    1  0.2380582E-009  0.9534174E+02  0.7561462E-02  0.1290408E+00
          1   -1    0    0  501    0  0.00000000000E+00  0.00000000000E+00  0.64093652754E+03  0.64093652754E+03  0.00000000000E+00 0. -1.
         -1   -1    0    0    0  501 -0.00000000000E+00 -0.00000000000E+00 -0.22079076153E+02  0.22079076153E+02  0.00000000000E+00 0.  1.
         25    2    1    2    0    0  0.96538881334E+01  0.22156447672E+02  0.46878893717E+03  0.48579317374E+03  0.12509130386E+03 0.  0.
          5    1    3    3  502    0 -0.42096086980E+02  0.10216405745E+02  0.37823761968E+03  0.38073300990E+03  0.41800000000E+01 0.  1.
         -5    1    3    3    0  502  0.51749975113E+02  0.11940041927E+02  0.90551317491E+02  0.10506016383E+03  0.41800000000E+01 0.  1.
        -11    1    1    2    0    0  0.76125523646E+01  0.34154066527E+02  0.63789140201E+02  0.72756481645E+02  0.00000000000E+00 0. -1.
         11    1    1    2    0    0 -0.17266440498E+02 -0.56310514199E+02  0.86279374011E+02  0.10446594831E+03  0.00000000000E+00 0.  1.
</event>
<event>
 7    1  0.2380582E-009  0.1975977E+03  0.7561462E-02  0.1151782E+00
          4   -1    0    0  501    0  0.00000000000E+00  0.00000000000E+00  0.15823493520E+03  0.15823493520E+03  0.00000000000E+00 0. -1.
         -4   -1    0    0    0  501 -0.00000000000E+00 -0.00000000000E+00 -0.31652719836E+03  0.31652719836E+03  0.00000000000E+00 0.  1.
         25    2    1    2    0    0  0.15645473273E+03 -0.80240570176E+02 -0.16950035523E+03  0.27439844017E+03  0.12508997181E+03 0.  0.
          5    1    3    3  502    0  0.82177842162E+02  0.92429250205E+01 -0.20429053777E+02  0.85284512331E+02  0.41800000000E+01 0.  1.
         -5    1    3    3    0  502  0.74276890569E+02 -0.89483495196E+02 -0.14907130146E+03  0.18911392784E+03  0.41800000000E+01 0.  1.
        -11    1    1    2    0    0 -0.13260586119E+03  0.99161411387E+02  0.24057372681E+02  0.16732022326E+03  0.00000000000E+00 0. -1.
         11    1    1    2    0    0 -0.23848871536E+02 -0.18920841211E+02 -0.12849280608E+02  0.33043470124E+02  0.00000000000E+00 0.  1.
</event>
<event>
 7    1  0.2380582E-009  0.1167784E+03  0.7561462E-02  0.1248508E+00
         -2   -1    0    0    0  501 -0.00000000000E+00  0.00000000000E+00  0.48623852308E+03  0.48623852308E+03  0.00000000000E+00 0.  1.
          2   -1    0    0  501    0  0.00000000000E+00 -0.00000000000E+00 -0.47599871935E+02  0.47599871935E+02  0.00000000000E+00 0. -1.
         25    2    1    2    0    0 -0.69847540910E+02  0.50044205034E+02  0.12748602512E+03  0.19820145112E+03  0.12509207488E+03 0.  0.
          5    1    3    3  502    0  0.12247256757E+02 -0.62506790595E+01 -0.17273482109E+02  0.22470244123E+02  0.41800000000E+01 0.  1.
         -5    1    3    3    0  502 -0.82094797667E+02  0.56294884093E+02  0.14475950723E+03  0.17573120700E+03  0.41800000000E+01 0.  1.
        -11    1    1    2    0    0  0.68403229867E+02 -0.70976601493E+02  0.28794652027E+03  0.30435157031E+03  0.00000000000E+00 0.  1.
         11    1    1    2    0    0  0.14443110430E+01  0.20932396460E+02  0.23206105756E+02  0.31285373584E+02  0.00000000000E+00 0. -1.
</event>
<event>
 7    1  0.2380582E-009  0.1212145E+03  0.7561462E-02  0.1241107E+00
         -1   -1    0    0    0  501 -0.00000000000E+00  0.00000000000E+00  0.14245206304E+03  0.14245206304E+03  0.00000000000E+00 0. -1.
          1   -1    0    0  501    0  0.00000000000E+00 -0.00000000000E+00 -0.11590914428E+03  0.11590914428E+03  0.00000000000E+00 0.  1.
         25    2    1    2    0    0 -0.57557131468E+02 -0.32233679703E+02  0.34833494981E+02  0.14564260340E+03  0.12508621851E+03 0.  0.
          5    1    3    3  502    0  0.30530210147E+02  0.21529068931E+02  0.37147730554E+01  0.37773886211E+02  0.41800000000E+01 0.  1.
         -5    1    3    3    0  502 -0.88087341615E+02 -0.53762748634E+02  0.31118721926E+02  0.10786871719E+03  0.41800000000E+01 0.  1.
        -11    1    1    2    0    0  0.40211109785E+02 -0.21143281357E+02 -0.27844664336E+02  0.53285054459E+02  0.00000000000E+00 0.  1.
         11    1    1    2    0    0  0.17346021683E+02  0.53376961060E+02  0.19554088111E+02  0.59433549466E+02  0.00000000000E+00 0. -1.
</event>
<event>
 7    1  0.2380582E-009  0.1132703E+03  0.7561462E-02  0.1254631E+00
         -3   -1    0    0    0  501 -0.00000000000E+00  0.00000000000E+00  0.45668091927E+03  0.45668091927E+03  0.00000000000E+00 0.  1.
          3   -1    0    0  501    0  0.00000000000E+00 -0.00000000000E+00 -0.31412159755E+02  0.31412159755E+02  0.00000000000E+00 0. -1.
         25    2    1    2    0    0 -0.30837400263E+02 -0.29608165999E+02  0.29344772606E+03  0.32185011574E+03  0.12509332646E+03 0.  0.
          5    1    3    3  502    0 -0.49004281086E+02  0.34638531698E+02  0.18393081572E+03  0.19351812528E+03  0.41800000000E+01 0.  1.
         -5    1    3    3    0  502  0.18166880823E+02 -0.64246697697E+02  0.10951691035E+03  0.12833199046E+03  0.41800000000E+01 0.  1.
        -11    1    1    2    0    0 -0.31396082944E+02  0.21593394582E+01  0.27990002698E+02  0.42116707162E+02  0.00000000000E+00 0. -1.
         11    1    1    2    0    0  0.62233483207E+02  0.27448826541E+02  0.10383103075E+03  0.12412625612E+03  0.00000000000E+00 0.  1.
</event>
<event>
 7    1  0.2380582E-009  0.9625209E+02  0.7561462E-02  0.1288381E+00
          2   -1    0    0  501    0  0.00000000000E+00  0.00000000000E+00  0.36686053348E+03  0.36686053348E+03  0.00000000000E+00 0. -1.
         -2   -1    0    0    0  501 -0.00000000000E+00 -0.00000000000E+00 -0.39763160838E+02  0.39763160838E+02  0.00000000000E+00 0.  1.
         25    2    1    2    0    0  0.20056856855E+02 -0.37004253331E+02  0.23891672719E+03  0.27295473691E+03  0.12510592952E+03 0.  0.
          5    1    3    3  502    0  0.33182334272E+02  0.33847002819E+02  0.15564326745E+03  0.16275437324E+03  0.41800000000E+01 0. -1.
         -5    1    3    3    0  502 -0.13125477417E+02 -0.70851256150E+02  0.83273459739E+02  0.11020036367E+03  0.41800000000E+01 0. -1.
        -11    1    1    2    0    0 -0.41123088767E+02  0.20315852284E+02  0.95388873527E+02  0.10584365582E+03  0.00000000000E+00 0. -1.
         11    1    1    2    0    0  0.21066231911E+02  0.16688401047E+02 -0.72082280771E+01  0.27825301588E+02  0.00000000000E+00 0.  1.
</event>
<event>
 7    1  0.2380582E-009  0.1172293E+03  0.7561462E-02  0.1247739E+00
          2   -1    0    0  501    0  0.00000000000E+00  0.00000000000E+00  0.58916473785E+03  0.58916473785E+03  0.00000000000E+00 0. -1.
         -2   -1    0    0    0  501 -0.00000000000E+00 -0.00000000000E+00 -0.32515857325E+02  0.32515857325E+02  0.00000000000E+00 0.  1.
         25    2    1    2    0    0  0.36742440066E+02  0.39670548658E+02  0.15518790625E+03  0.20653096674E+03  0.12509194477E+03 0.  0.
          5    1    3    3  502    0 -0.14866538906E+02 -0.38495128317E+02  0.36285340701E+02  0.55108867099E+02  0.41800000000E+01 0. -1.
         -5    1    3    3    0  502  0.51608978972E+02  0.78165676974E+02  0.11890256555E+03  0.15142209964E+03  0.41800000000E+01 0. -1.
        -11    1    1    2    0    0  0.46599432592E+01 -0.54907418869E+02  0.14900692778E+03  0.15886977134E+03  0.00000000000E+00 0.  1.
         11    1    1    2    0    0 -0.41402383326E+02  0.15236870212E+02  0.25245404650E+03  0.25627985709E+03  0.00000000000E+00 0. -1.
</event>
<event>
 7    1  0.2380582E-009  0.1024275E+03  0.7561462E-02  0.1275272E+00
         -1   -1    0    0    0  501 -0.00000000000E+00  0.00000000000E+00  0.10077329963E+03  0.10077329963E+03  0.00000000000E+00 0.  1.
          1   -1    0    0  501    0  0.00000000000E+00 -0.00000000000E+00 -0.12654684277E+03  0.12654684277E+03  0.00000000000E+00 0. -1.
         25    2    1    2    0    0  0.13059798314E+02  0.27676189068E+02 -0.32700249279E+01  0.12882270096E+03  0.12509222776E+03 0.  0.
          5    1    3    3  502    0  0.14183550856E+02 -0.39665875404E+02 -0.34362147735E+02  0.54523246266E+02  0.41800000000E+01 0. -1.
         -5    1    3    3    0  502 -0.11237525421E+01  0.67342064472E+02  0.31092122807E+02  0.74299454694E+02  0.41800000000E+01 0. -1.
        -11    1    1    2    0    0 -0.89831575696E+01  0.33014221811E+02 -0.18688451915E+01  0.34265559153E+02  0.00000000000E+00 0. -1.
         11    1    1    2    0    0 -0.40766407441E+01 -0.60690410879E+02 -0.20634673020E+02  0.64231882294E+02  0.00000000000E+00 0.  1.
</event>
<event>
 7    1  0.2380582E-009  0.1266613E+03  0.7561462E-02  0.1232496E+00
         -1   -1    0    0    0  501 -0.00000000000E+00  0.00000000000E+00  0.28172149621E+03  0.28172149621E+03  0.00000000000E+00 0.  1.
          1   -1    0    0  501    0  0.00000000000E+00 -0.00000000000E+00 -0.78129098597E+02  0.78129098597E+02  0.00000000000E+00 0. -1.
         25    2    1    2    0    0 -0.14750339911E+02  0.10461361313E+03  0.74929358435E+02  0.18006183725E+03  0.12508507464E+03 0.  0.
          5    1    3    3  502    0  0.34240266730E+02  0.81798132146E+02  0.87252876876E+02  0.12447436367E+03  0.41800000000E+01 0. -1.
         -5    1    3    3    0  502 -0.48990606642E+02  0.22815480986E+02 -0.12323518441E+02  0.55587473575E+02  0.41800000000E+01 0. -1.
        -11    1    1    2    0    0  0.91154656800E+01 -0.46699226420E+01  0.53859061234E+02  0.54824249826E+02  0.00000000000E+00 0.  1.
         11    1    1    2    0    0  0.56348742315E+01 -0.99943690490E+02  0.74803977941E+02  0.12496450773E+03  0.00000000000E+00 0. -1.
</event>
<event>
 7    1  0.2380582E-009  0.1123609E+03  0.7561462E-02  0.1256259E+00
         -1   -1    0    0    0  501 -0.00000000000E+00  0.00000000000E+00  0.94389269861E+02  0.94389269861E+02  0.00000000000E+00 0.  1.
          1   -1    0    0  501    0  0.00000000000E+00 -0.00000000000E+00 -0.14448967092E+03  0.14448967092E+03  0.00000000000E+00 0. -1.
         25    2    1    2    0    0  0.46284994172E+02  0.51519258318E+01 -0.35229107522E+02  0.13804611316E+03  0.12508715488E+03 0.  0.
          5    1    3    3  502    0 -0.37516074131E+02 -0.23853665955E+02 -0.10111408612E+02  0.45783907454E+02  0.41800000000E+01 0.  1.
         -5    1    3    3    0  502  0.83801068303E+02  0.29005591787E+02 -0.25117698911E+02  0.92262205708E+02  0.41800000000E+01 0.  1.
        -11    1    1    2    0    0 -0.44880728741E+02 -0.37760230314E+02  0.10383426788E+02  0.59564505854E+02  0.00000000000E+00 0.  1.
         11    1    1    2    0    0 -0.14042654310E+01  0.32608304482E+02 -0.25254720325E+02  0.41268321765E+02  0.00000000000E+00 0. -1.
</event>
<event>
 7    1  0.2380582E-009  0.9689495E+02  0.7561462E-02  0.1286964E+00
          2   -1    0    0  501    0  0.00000000000E+00  0.00000000000E+00  0.42313723914E+03  0.42313723914E+03  0.00000000000E+00 0.  1.
         -2   -1    0    0    0  501 -0.00000000000E+00 -0.00000000000E+00 -0.46817337537E+02  0.46817337537E+02  0.00000000000E+00 0. -1.
         25    2    1    2    0    0  0.13442015870E+02 -0.77304395795E+02  0.27782216679E+03  0.31462585853E+03  0.12509043566E+03 0.  0.
          5    1    3    3  502    0  0.23181121979E+02 -0.19848078666E+02  0.77331022519E-01  0.30802419110E+02  0.41800000000E+01 0. -1.
         -5    1    3    3    0  502 -0.97391061084E+01 -0.57456317129E+02  0.27774483577E+03  0.28382343942E+03  0.41800000000E+01 0. -1.
        -11    1    1    2    0    0  0.28453066896E+02  0.29169705778E+02  0.35145176930E+01  0.40899884909E+02  0.00000000000E+00 0. -1.
         11    1    1    2    0    0 -0.41895082766E+02  0.48134690017E+02  0.94983217120E+02  0.11442883324E+03  0.00000000000E+00 0.  1.
</event>
<event>
 7    1  0.2380582E-009  0.5660905E+02  0.7561462E-02  0.1412639E+00
          1   -1    0    0  501    0  0.00000000000E+00  0.00000000000E+00  0.10467622304E+03  0.10467622304E+03  0.00000000000E+00 0. -1.
         -1   -1    0    0    0  501 -0.00000000000E+00 -0.00000000000E+00 -0.13677181209E+03  0.13677181209E+03  0.00000000000E+00 0.  1.
         25    2    1    2    0    0 -0.27028649953E+02 -0.41561248147E+02 -0.41419894335E+02  0.14078524037E+03  0.12508793305E+03 0.  0.
          5    1    3    3  502    0 -0.27445322295E+02 -0.16511726029E+02 -0.84673578240E+02  0.90625438285E+02  0.41800000000E+01 0. -1.
         -5    1    3    3    0  502  0.41667234186E+00 -0.25049522117E+02  0.43253683905E+02  0.50159802088E+02  0.41800000000E+01 0. -1.
        -11    1    1    2    0    0  0.26462179550E+02  0.18124153978E+02 -0.36864830702E+02  0.48864584789E+02  0.00000000000E+00 0.  1.
         11    1    1    2    0    0  0.56647040302E+00  0.23437094169E+02  0.46189135988E+02  0.51798209961E+02  0.00000000000E+00 0. -1.
</event>
<event>
 7    1  0.2380582E-009  0.1143161E+03  0.7561462E-02  0.1252780E+00
          2   -1    0    0  501    0  0.00000000000E+00  0.00000000000E+00  0.28130679454E+03  0.28130679454E+03  0.00000000000E+00 0. -1.
         -2   -1    0    0    0  501 -0.00000000000E+00 -0.00000000000E+00 -0.51842472600E+02  0.51842472600E+02  0.00000000000E+00 0.  1.
         25    2    1    2    0    0 -0.48493219141E+02  0.10522698755E+02  0.10568976645E+03  0.17111362468E+03  0.12508887372E+03 0.  0.
          5    1    3    3  502    0 -0.80488721700E+02  0.30427202019E+02  0.10125144673E+03  0.13294200543E+03  0.41800000000E+01 0. -1.
         -5    1    3    3    0  502  0.31995502560E+02 -0.19904503264E+02  0.44383197208E+01  0.38171619250E+02  0.41800000000E+01 0. -1.
        -11    1    1    2    0    0  0.85886720365E+01  0.39589666222E+02  0.48486692749E+02  0.63182800924E+02  0.00000000000E+00 0.  1.
         11    1    1    2    0    0  0.39904547104E+02 -0.50112364977E+02  0.75287862745E+02  0.98852841537E+02  0.00000000000E+00 0. -1.
</event>
<event>
 7    1  0.2380582E-009  0.1196798E+03  0.7561462E-02  0.1243626E+00
         -2   -1    0    0    0  501 -0.00000000000E+00  0.00000000000E+00  0.83002764187E+02  0.83002764187E+02  0.00000000000E+00 0.  1.
          2   -1    0    0  501    0  0.00000000000E+00 -0.00000000000E+00 -0.22455425804E+03  0.22455425804E+03  0.00000000000E+00 0. -1.
         25    2    1    2    0    0 -0.60426458460E+02  0.54987502543E+02 -0.95405477644E+02  0.17727044716E+03  0.12509046309E+03 0.  0.
          5    1    3    3  502    0 -0.88347158253E+02  0.20437496098E+01 -0.47004367171E+02  0.10018123685E+03  0.41800000000E+01 0. -1.
         -5    1    3    3    0  502  0.27920699794E+02  0.52943752934E+02 -0.48401110473E+02  0.77089210313E+02  0.41800000000E+01 0. -1.
        -11    1    1    2    0    0  0.19346362059E+02  0.32535063650E+01  0.23516386655E+02  0.30624948488E+02  0.00000000000E+00 0.  1.
         11    1    1    2    0    0  0.41080096401E+02 -0.58241008908E+02 -0.69662402866E+02  0.99661626577E+02  0.00000000000E+00 0. -1.
</event>
<event>
 7    1  0.2380582E-009  0.2077253E+03  0.7561462E-02  0.1143380E+00
          2   -1    0    0  501    0  0.00000000000E+00  0.00000000000E+00  0.51305576537E+03  0.51305576537E+03  0.00000000000E+00 0. -1.
         -2   -1    0    0    0  501 -0.00000000000E+00 -0.00000000000E+00 -0.10697101297E+03  0.10697101297E+03  0.00000000000E+00 0.  1.
         25    2    1    2    0    0 -0.14305529549E+03  0.13604773151E+03  0.29417866321E+03  0.37571554670E+03  0.12508910155E+03 0.  0.
          5    1    3    3  502    0 -0.94774390427E+02  0.27558561598E+02  0.20362084210E+03  0.22631963931E+03  0.41800000000E+01 0.  1.
         -5    1    3    3    0  502 -0.48280905061E+02  0.10848916991E+03  0.90557821109E+02  0.14939590739E+03  0.41800000000E+01 0.  1.
        -11    1    1    2    0    0  0.13698037860E+03 -0.12609756761E+03  0.12690090180E+03  0.22531768584E+03  0.00000000000E+00 0. -1.
         11    1    1    2    0    0  0.60749168900E+01 -0.99501639029E+01 -0.14994812610E+02  0.18993545802E+02  0.00000000000E+00 0.  1.
</event>
<event>
 7    1  0.2380582E-009  0.9984621E+02  0.7561462E-02  0.1280620E+00
         -2   -1    0    0    0  501 -0.00000000000E+00  0.00000000000E+00  0.61319319215E+02  0.61319319215E+02  0.00000000000E+00 0.  1.
          2   -1    0    0  501    0  0.00000000000E+00 -0.00000000000E+00 -0.21057844620E+03  0.21057844620E+03  0.00000000000E+00 0. -1.
         25    2    1    2    0    0  0.16322810896E+02 -0.29640575779E+02 -0.69560254656E+02  0.14706335051E+03  0.12507598550E+03 0.  0.
          5    1    3    3  502    0  0.66087690342E+02  0.84204917364E+01 -0.34294243198E+02  0.75047018677E+02  0.41800000000E+01 0.  1.
         -5    1    3    3    0  502 -0.49764879446E+02 -0.38061067516E+02 -0.35266011458E+02  0.72016331834E+02  0.41800000000E+01 0.  1.
        -11    1    1    2    0    0  0.15395562884E+02  0.34762913226E+02 -0.84205330688E+02  0.92390590477E+02  0.00000000000E+00 0. -1.
         11    1    1    2    0    0 -0.31718373781E+02 -0.51223374471E+01  0.45064583629E+01  0.32443824423E+02  0.00000000000E+00 0.  1.
</event>
<event>
 7    1  0.2380582E-009  0.7494117E+02  0.7561462E-02  0.1344053E+00
         -1   -1    0    0    0  501 -0.00000000000E+00  0.00000000000E+00  0.31534480538E+03  0.31534480538E+03  0.00000000000E+00 0.  1.
          1   -1    0    0  501    0  0.00000000000E+00 -0.00000000000E+00 -0.41702594127E+02  0.41702594127E+02  0.00000000000E+00 0. -1.
         25    2    1    2    0    0 -0.52692379451E+01  0.27508232752E+02  0.12356648447E+03  0.17804913381E+03  0.12509336604E+03 0.  0.
          5    1    3    3  502    0  0.47997486632E+02  0.29135922086E+02  0.10893866843E+03  0.12262857154E+03  0.41800000000E+01 0.  1.
         -5    1    3    3    0  502 -0.53266724577E+02 -0.16276893342E+01  0.14627816039E+02  0.55420562265E+02  0.41800000000E+01 0.  1.
        -11    1    1    2    0    0  0.15278304410E+02 -0.25778168408E+02  0.16118416838E+03  0.16394595661E+03  0.00000000000E+00 0.  1.
         11    1    1    2    0    0 -0.10009066465E+02 -0.17300643446E+01 -0.11108441600E+02  0.15052309089E+02  0.00000000000E+00 0. -1.
</event>
<event>
 7    1  0.2380582E-009  0.1248786E+03  0.7561462E-02  0.1235259E+00
         -2   -1    0    0    0  501 -0.00000000000E+00  0.00000000000E+00  0.17115303178E+02  0.17115303178E+02  0.00000000000E+00 0. -1.
          2   -1    0    0  501    0  0.00000000000E+00 -0.00000000000E+00 -0.10484880668E+04  0.10484880668E+04  0.00000000000E+00 0.  1.
         25    2    1    2    0    0  0.27263979211E+02  0.72974699469E+02 -0.61096350081E+03  0.62848094020E+03  0.12507302484E+03 0.  0.
          5    1    3    3  502    0 -0.36918959952E+02 -0.37355013426E+00 -0.74864772986E+02  0.83578440868E+02  0.41800000000E+01 0.  1.
         -5    1    3    3    0  502  0.64182939163E+02  0.73348249603E+02 -0.53609872782E+03  0.54490249933E+03  0.41800000000E+01 0.  1.
        -11    1    1    2    0    0 -0.58037804107E+02 -0.50593817728E+02 -0.21874874869E+03  0.23190329052E+03  0.00000000000E+00 0. -1.
         11    1    1    2    0    0  0.30773824896E+02 -0.22380881741E+02 -0.20166051415E+03  0.20521913930E+03  0.00000000000E+00 0.  1.
</event>
<event>
 7    1  0.2380582E-009  0.1794050E+03  0.7561462E-02  0.1168380E+00
          3   -1    0    0  501    0  0.00000000000E+00  0.00000000000E+00  0.17045626477E+03  0.17045626477E+03  0.00000000000E+00 0. -1.
         -3   -1    0    0    0  501 -0.00000000000E+00 -0.00000000000E+00 -0.33901669720E+03  0.33901669720E+03  0.00000000000E+00 0.  1.
         25    2    1    2    0    0 -0.22318980743E+02 -0.14620105149E+03 -0.25113988047E+03  0.31716199376E+03  0.12509039279E+03 0.  0.
          5    1    3    3  502    0 -0.38840569814E+02 -0.15949970172E+03 -0.18396924213E+03  0.24659866010E+03  0.41800000000E+01 0.  1.
         -5    1    3    3    0  502  0.16521589071E+02  0.13298650228E+02 -0.67170638335E+02  0.70563333663E+02  0.41800000000E+01 0.  1.
        -11    1    1    2    0    0  0.57136256261E+02  0.99341673380E+02  0.46447135920E+02  0.12365539327E+03  0.00000000000E+00 0.  1.
         11    1    1    2    0    0 -0.34817275518E+02  0.46859378109E+02  0.36132312124E+02  0.68655574942E+02  0.00000000000E+00 0. -1.
</event>
<event>
 7    1  0.2579679E-009  0.6960999E+02  0.7561462E-02  0.1361424E+00
          2   -1    0    0  501    0  0.00000000000E+00  0.00000000000E+00  0.87989773122E+03  0.87989773122E+03  0.00000000000E+00 0. -1.
         -2   -1    0    0    0  501 -0.00000000000E+00 -0.00000000000E+00 -0.19476966911E+02  0.19476966911E+02  0.00000000000E+00 0.  1.
         25    2    1    2    0    0 -0.27444477465E+02 -0.60644290002E+02  0.58622117533E+03  0.60310329378E+03  0.12508951720E+03 0.  0.
          5    1    3    3  502    0 -0.19114926647E+02 -0.30127106243E+02  0.32438104211E+02  0.48401714392E+02  0.41800000000E+01 0. -1.
         -5    1    3    3    0  502 -0.83295508175E+01 -0.30517183759E+02  0.55378307112E+03  0.55470157939E+03  0.41800000000E+01 0. -1.
        -11    1    1    2    0    0  0.14751554909E+02  0.71212252774E+01 -0.23107049666E+00  0.16382112661E+02  0.00000000000E+00 0.  1.
         11    1    1    2    0    0  0.12692922556E+02  0.53523064725E+02  0.27443065948E+03  0.27988929169E+03  0.00000000000E+00 0. -1.
</event>
<event>
 7    1  0.2380582E-009  0.2122114E+03  0.7561462E-02  0.1139827E+00
         -1   -1    0    0    0  501 -0.00000000000E+00  0.00000000000E+00  0.62561331540E+03  0.62561331540E+03  0.00000000000E+00 0.  1.
          1   -1    0    0  501    0  0.00000000000E+00 -0.00000000000E+00 -0.87870605641E+02  0.87870605641E+02  0.00000000000E+00 0. -1.
         25    2    1    2    0    0 -0.30542031491E+02 -0.19013641735E+03  0.39843418079E+03  0.45987175859E+03  0.12509022757E+03 0.  0.
          5    1    3    3  502    0  0.10563087322E+02 -0.17669524995E+03  0.25832618591E+03  0.31318154622E+03  0.41800000000E+01 0. -1.
         -5    1    3    3    0  502 -0.41105118813E+02 -0.13441167404E+02  0.14010799488E+03  0.14669021236E+03  0.41800000000E+01 0. -1.
        -11    1    1    2    0    0  0.50255123906E+02  0.10339741853E+03  0.11215444588E+03  0.16060891435E+03  0.00000000000E+00 0. -1.
         11    1    1    2    0    0 -0.19713092415E+02  0.86738998822E+02  0.27154083086E+02  0.93003248102E+02  0.00000000000E+00 0.  1.
</event>
<event>
 7    1  0.2380582E-009  0.1257946E+03  0.7561462E-02  0.1233833E+00
         -1   -1    0    0    0  501 -0.00000000000E+00  0.00000000000E+00  0.20765221703E+02  0.20765221703E+02  0.00000000000E+00 0.  1.
          1   -1    0    0  501    0  0.00000000000E+00 -0.00000000000E+00 -0.11645724930E+04  0.11645724930E+04  0.00000000000E+00 0. -1.
         25    2    1    2    0    0  0.95796989478E+02 -0.13288722162E+02 -0.87044272106E+03  0.88468750702E+03  0.12509117115E+03 0.  0.
          5    1    3    3  502    0  0.24411046903E+02 -0.51302489016E+02 -0.16388773337E+03  0.17350650172E+03  0.41800000000E+01 0.  1.
         -5    1    3    3    0  502  0.71385942576E+02  0.38013766854E+02 -0.70655498770E+03  0.71118100531E+03  0.41800000000E+01 0.  1.
        -11    1    1    2    0    0 -0.12392868442E+02 -0.20250771575E+02 -0.17618450104E+02  0.29564957664E+02  0.00000000000E+00 0.  1.
         11    1    1    2    0    0 -0.83404121036E+02  0.33539493737E+02 -0.25574610017E+03  0.27108525006E+03  0.00000000000E+00 0. -1.
</event>
<event>
 7    1  0.2380582E-009  0.1467274E+03  0.7561462E-02  0.1204553E+00
         -2   -1    0    0    0  501 -0.00000000000E+00  0.00000000000E+00  0.41164910870E+02  0.41164910870E+02  0.00000000000E+00 0.  1.
          2   -1    0    0  501    0  0.00000000000E+00 -0.00000000000E+00 -0.62641839379E+03  0.62641839379E+03  0.00000000000E+00 0. -1.
         25    2    1    2    0    0 -0.10658418628E+03  0.22496743105E+02 -0.20929043317E+03  0.26705208105E+03  0.12509211152E+03 0.  0.
          5    1    3    3  502    0 -0.42078063853E+02  0.72572788104E+02 -0.11096614862E+03  0.13917015331E+03  0.41800000000E+01 0.  1.
         -5    1    3    3    0  502 -0.64506122426E+02 -0.50076044999E+02 -0.98324284543E+02  0.12788192775E+03  0.41800000000E+01 0.  1.
        -11    1    1    2    0    0  0.78766533579E+02  0.15823795977E+02 -0.15536475273E+03  0.17490787782E+03  0.00000000000E+00 0.  1.
         11    1    1    2    0    0  0.27817652700E+02 -0.38320539081E+02 -0.22059829702E+03  0.22562334579E+03  0.00000000000E+00 0. -1.
</event>
<event>
 7    1  0.2380582E-009  0.8666648E+02  0.7561462E-02  0.1311131E+00
         -3   -1    0    0    0  501 -0.00000000000E+00  0.00000000000E+00  0.13537188713E+03  0.13537188713E+03  0.00000000000E+00 0.  1.
          3   -1    0    0  501    0  0.00000000000E+00 -0.00000000000E+00 -0.13699365241E+03  0.13699365241E+03  0.00000000000E+00 0. -1.
         25    2    1    2    0    0 -0.56724380191E+02  0.17742009913E+02 -0.58625857054E+02  0.15038789344E+03  0.12508834140E+03 0.  0.
          5    1    3    3  502    0  0.16916264736E+02 -0.14820382887E+02  0.25231520312E+02  0.34057389489E+02  0.41800000000E+01 0.  1.
         -5    1    3    3    0  502 -0.73640644926E+02  0.32562392800E+02 -0.83857377366E+02  0.11633050395E+03  0.41800000000E+01 0.  1.
        -11    1    1    2    0    0  0.12233437215E+02  0.11337598400E+02  0.65995977548E+02  0.68071045064E+02  0.00000000000E+00 0.  1.
         11    1    1    2    0    0  0.44490942976E+02 -0.29079608312E+02 -0.89918857760E+01  0.53906601046E+02  0.00000000000E+00 0. -1.
</event>
<event>
 7    1  0.2380582E-009  0.1276650E+03  0.7561462E-02  0.1230962E+00
          2   -1    0    0  501    0  0.00000000000E+00  0.00000000000E+00  0.38334474341E+03  0.38334474341E+03  0.00000000000E+00 0. -1.
         -2   -1    0    0    0  501 -0.00000000000E+00 -0.00000000000E+00 -0.50043481955E+02  0.50043481955E+02  0.00000000000E+00 0.  1.
         25    2    1    2    0    0 -0.65360016586E+02 -0.44281351910E+02  0.21762355960E+03  0.26313583551E+03  0.12509070445E+03 0.  0.
          5    1    3    3  502    0  0.24342760008E+02 -0.51099987004E+02  0.10014204432E+03  0.11510725467E+03  0.41800000000E+01 0. -1.
         -5    1    3    3    0  502 -0.89702776594E+02  0.68186350946E+01  0.11748151528E+03  0.14802858084E+03  0.41800000000E+01 0. -1.
        -11    1    1    2    0    0 -0.16648548808E+02  0.11309778444E+02 -0.49321464603E+01  0.20722242508E+02  0.00000000000E+00 0.  1.
         11    1    1    2    0    0  0.82008565394E+02  0.32971573466E+02  0.12060984831E+03  0.14953014734E+03  0.00000000000E+00 0. -1.
</event>
<event>
 7    1  0.2380582E-009  0.1858230E+03  0.7561462E-02  0.1162284E+00
         -4   -1    0    0    0  501 -0.00000000000E+00  0.00000000000E+00  0.42866554495E+03  0.42866554495E+03  0.00000000000E+00 0.  1.
          4   -1    0    0  501    0  0.00000000000E+00 -0.00000000000E+00 -0.91048946157E+02  0.91048946157E+02  0.00000000000E+00 0. -1.
         25    2    1    2    0    0 -0.11160402964E+03 -0.11883817356E+03  0.14620282529E+03  0.25218921382E+03  0.12508462141E+03 0.  0.
          5    1    3    3  502    0 -0.64118266519E+02  0.12181806361E+02  0.56299731846E+02  0.86294152256E+02  0.41800000000E+01 0.  1.
         -5    1    3    3    0  502 -0.47485763125E+02 -0.13101997992E+03  0.89903093447E+02  0.16589506156E+03  0.41800000000E+01 0.  1.
        -11    1    1    2    0    0  0.11204947943E+03  0.10685272816E+03  0.19988826705E+03  0.25283969360E+03  0.00000000000E+00 0.  1.
         11    1    1    2    0    0 -0.44544978705E+00  0.11985445407E+02 -0.84744935575E+01  0.14685583685E+02  0.00000000000E+00 0. -1.
</event>
<event>
 7    1  0.2380582E-009  0.1285865E+03  0.7561462E-02  0.1229568E+00
         -1   -1    0    0    0  501 -0.00000000000E+00  0.00000000000E+00  0.30116006271E+02  0.30116006271E+02  0.00000000000E+00 0.  1.
          1   -1    0    0  501    0  0.00000000000E+00 -0.00000000000E+00 -0.93925772145E+03  0.93925772145E+03  0.00000000000E+00 0. -1.
         25    2    1    2    0    0 -0.70153103862E+02  0.54629954382E+02 -0.74764836345E+03  0.76323789045E+03  0.12509241447E+03 0.  0.
          5    1    3    3  502    0 -0.27733944762E+02  0.90833584183E+02 -0.53373098724E+03  0.54213111961E+03  0.41800000000E+01 0. -1.
         -5    1    3    3    0  502 -0.42419159101E+02 -0.36203629801E+02 -0.21391737621E+03  0.22110677084E+03  0.41800000000E+01 0. -1.
        -11    1    1    2    0    0  0.38770679485E+02 -0.62755553293E+02 -0.15692523022E+03  0.17339824952E+03  0.00000000000E+00 0. -1.
         11    1    1    2    0    0  0.31382424377E+02  0.81255989111E+01 -0.45681215113E+01  0.32737587749E+02  0.00000000000E+00 0.  1.
</event>
<event>
 7    1  0.2513291E-009  0.1047748E+03  0.7561462E-02  0.1270564E+00
         -2   -1    0    0    0  501 -0.00000000000E+00  0.00000000000E+00  0.24718449350E+03  0.24718449350E+03  0.00000000000E+00 0.  1.
          2   -1    0    0  501    0  0.00000000000E+00 -0.00000000000E+00 -0.90230872627E+02  0.90230872627E+02  0.00000000000E+00 0. -1.
         25    2    1    2    0    0  0.63203190365E+02  0.70306215743E+02  0.12951702898E+03  0.20337264552E+03  0.12509262531E+03 0.  0.
          5    1    3    3  502    0  0.70718207076E+02  0.73500525569E+02  0.34264949760E+02  0.10767985537E+03  0.41800000000E+01 0.  1.
         -5    1    3    3    0  502 -0.75150167106E+01 -0.31943098264E+01  0.95252079217E+02  0.95692790149E+02  0.41800000000E+01 0.  1.
        -11    1    1    2    0    0 -0.37167348386E+02 -0.59391013968E+02 -0.25082554524E+02  0.74416657193E+02  0.00000000000E+00 0. -1.
         11    1    1    2    0    0 -0.26035841978E+02 -0.10915201775E+02  0.52519146422E+02  0.59626063413E+02  0.00000000000E+00 0.  1.
</event>
<event>
 7    1  0.2380582E-009  0.1521260E+03  0.7561462E-02  0.1197885E+00
         -2   -1    0    0    0  501 -0.00000000000E+00  0.00000000000E+00  0.19116651439E+02  0.19116651439E+02  0.00000000000E+00 0.  1.
          2   -1    0    0  501    0  0.00000000000E+00 -0.00000000000E+00 -0.16825755100E+04  0.16825755100E+04  0.00000000000E+00 0. -1.
         25    2    1    2    0    0  0.72504281497E+02  0.88665371045E+02 -0.13040134920E+04  0.13149972275E+04  0.12509237471E+03 0.  0.
          5    1    3    3  502    0  0.67558478903E+02 -0.11966860875E+02 -0.51663279910E+03  0.52118545196E+03  0.41800000000E+01 0.  1.
         -5    1    3    3    0  502  0.49458025948E+01  0.10063223192E+03 -0.78738069293E+03  0.79381177559E+03  0.41800000000E+01 0.  1.
        -11    1    1    2    0    0 -0.60420199613E+02 -0.18087758927E+02 -0.23297438046E+03  0.24136037267E+03  0.00000000000E+00 0. -1.
         11    1    1    2    0    0 -0.12084081885E+02 -0.70577612118E+02 -0.12647098608E+03  0.14533456123E+03  0.00000000000E+00 0.  1.
</event>
<event>
 7    1  0.2380582E-009  0.9310647E+02  0.7561462E-02  0.1295499E+00
          3   -1    0    0  501    0  0.00000000000E+00  0.00000000000E+00  0.14589350085E+03  0.14589350085E+03  0.00000000000E+00 0. -1.
         -3   -1    0    0    0  501 -0.00000000000E+00 -0.00000000000E+00 -0.86482690383E+02  0.86482690383E+02  0.00000000000E+00 0.  1.
         25    2    1    2    0    0 -0.30535652134E+01 -0.13984293866E+02  0.20303231167E+02  0.12753230727E+03  0.12508950183E+03 0.  0.
          5    1    3    3  502    0  0.40281998719E+02  0.13720683180E+02 -0.32493547049E+02  0.53704744367E+02  0.41800000000E+01 0. -1.
         -5    1    3    3    0  502 -0.43335563932E+02 -0.27704977046E+02  0.52796778217E+02  0.73827562905E+02  0.41800000000E+01 0. -1.
        -11    1    1    2    0    0 -0.28581729855E+02  0.41182825113E+02  0.39482823390E+01  0.50284483682E+02  0.00000000000E+00 0.  1.
         11    1    1    2    0    0  0.31635295068E+02 -0.27198531247E+02  0.35159296959E+02  0.54559400278E+02  0.00000000000E+00 0. -1.
</event>
<event>
 7    1  0.2380582E-009  0.6866359E+02  0.7561462E-02  0.1364697E+00
          2   -1    0    0  501    0  0.00000000000E+00  0.00000000000E+00  0.25823228732E+03  0.25823228732E+03  0.00000000000E+00 0. -1.
         -2   -1    0    0    0  501 -0.00000000000E+00 -0.00000000000E+00 -0.48352400556E+02  0.48352400556E+02  0.00000000000E+00 0.  1.
         25    2    1    2    0    0 -0.28024990424E+02 -0.25714518977E+01  0.11772235344E+03  0.17406357956E+03  0.12509022654E+03 0.  0.
          5    1    3    3  502    0 -0.22251125023E+02  0.31073173682E+02 -0.11670145297E+02  0.40178593538E+02  0.41800000000E+01 0. -1.
         -5    1    3    3    0  502 -0.57738654015E+01 -0.33644625579E+02  0.12939249874E+03  0.13388498602E+03  0.41800000000E+01 0. -1.
        -11    1    1    2    0    0  0.25014541638E+02 -0.25813434888E+02 -0.10352982943E+00  0.35945395150E+02  0.00000000000E+00 0.  1.
         11    1    1    2    0    0  0.30104487865E+01  0.28384886785E+02  0.92261063150E+02  0.96575713165E+02  0.00000000000E+00 0. -1.
</event>
<event>
 7    1  0.2380582E-009  0.1325612E+03  0.7561462E-02  0.1223704E+00
         -4   -1    0    0    0  501 -0.00000000000E+00  0.00000000000E+00  0.37433066065E+02  0.37433066065E+02  0.00000000000E+00 0.  1.
          4   -1    0    0  501    0  0.00000000000E+00 -0.00000000000E+00 -0.58233135443E+03  0.58233135443E+03  0.00000000000E+00 0. -1.
         25    2    1    2    0    0  0.25839643238E+01  0.98868692787E+02 -0.32633074858E+03  0.36320866482E+03  0.12508829460E+03 0.  0.
          5    1    3    3  502    0  0.60871422547E+02  0.33975172988E+02 -0.11497706899E+03  0.13452450058E+03  0.41800000000E+01 0. -1.
         -5    1    3    3    0  502 -0.58287458223E+02  0.64893519799E+02 -0.21135367960E+03  0.22868416425E+03  0.41800000000E+01 0. -1.
        -11    1    1    2    0    0  0.18931218979E+02 -0.27268034444E+02 -0.95084312846E+01  0.34530378219E+02  0.00000000000E+00 0.  1.
         11    1    1    2    0    0 -0.21515183303E+02 -0.71600658343E+02 -0.20905910850E+03  0.22202537746E+03  0.00000000000E+00 0. -1.
</event>
<event>
 7    1  0.2380582E-009  0.1318765E+03  0.7561462E-02  0.1224698E+00
         -4   -1    0    0    0  501 -0.00000000000E+00  0.00000000000E+00  0.21908188352E+03  0.21908188352E+03  0.00000000000E+00 0.  1.
          4   -1    0    0  501    0  0.00000000000E+00 -0.00000000000E+00 -0.91832981102E+02  0.91832981102E+02  0.00000000000E+00 0. -1.
         25    2    1    2    0    0  0.45514282079E+02  0.75532864068E+02  0.52894080121E+02  0.16193251477E+03  0.12509033616E+03 0.  0.
          5    1    3    3  502    0  0.88106657173E+02  0.59748392038E+02  0.28877633307E+02  0.11038135483E+03  0.41800000000E+01 0.  1.
         -5    1    3    3    0  502 -0.42592375093E+02  0.15784472030E+02  0.24016446814E+02  0.51551159938E+02  0.41800000000E+01 0.  1.
        -11    1    1    2    0    0  0.11298829420E+02 -0.46395966987E+02  0.70326735494E+02  0.85006464602E+02  0.00000000000E+00 0.  1.
         11    1    1    2    0    0 -0.56813111500E+02 -0.29136897081E+02  0.40280867988E+01  0.63975885246E+02  0.00000000000E+00 0. -1.
</event>
<event>
 7    1  0.2380582E-009  0.9853528E+02  0.7561462E-02  0.1283407E+00
          1   -1    0    0  501    0  0.00000000000E+00  0.00000000000E+00  0.15007698044E+03  0.15007698044E+03  0.00000000000E+00 0. -1.
         -1   -1    0    0    0  501 -0.00000000000E+00 -0.00000000000E+00 -0.11693524989E+03  0.11693524989E+03  0.00000000000E+00 0.  1.
         25    2    1    2    0    0 -0.58882950381E+02  0.31484329362E+02 -0.17278823960E+02  0.14284343831E+03  0.12508886949E+03 0.  0.
          5    1    3    3  502    0  0.27694276345E+02  0.63764460988E+01 -0.40509392788E+02  0.49659997092E+02  0.41800000000E+01 0. -1.
         -5    1    3    3    0  502 -0.86577226726E+02  0.25107883263E+02  0.23230568828E+02  0.93183441220E+02  0.41800000000E+01 0. -1.
        -11    1    1    2    0    0  0.63060017016E+02 -0.20429140150E+02 -0.59683702222E+01  0.66554766595E+02  0.00000000000E+00 0.  1.
         11    1    1    2    0    0 -0.41770666354E+01 -0.11055189212E+02  0.56388924728E+02  0.57614025430E+02  0.00000000000E+00 0. -1.
</event>
<event>
 7    1  0.2380582E-009  0.9039768E+02  0.7561462E-02  0.1301892E+00
         -1   -1    0    0    0  501 -0.00000000000E+00  0.00000000000E+00  0.15714225074E+03  0.15714225074E+03  0.00000000000E+00 0.  1.
          1   -1    0    0  501    0  0.00000000000E+00 -0.00000000000E+00 -0.96729092418E+02  0.96729092418E+02  0.00000000000E+00 0. -1.
         25    2    1    2    0    0 -0.21661765656E+02 -0.14789658857E+02 -0.19927568148E+02  0.12936654623E+03  0.12510247484E+03 0.  0.
          5    1    3    3  502    0 -0.42048906219E+02  0.23855105811E+02 -0.54881158828E+02  0.73257017287E+02  0.41800000000E+01 0.  1.
         -5    1    3    3    0  502  0.20387140563E+02 -0.38644764668E+02  0.34953590680E+02  0.56109528941E+02  0.41800000000E+01 0.  1.
        -11    1    1    2    0    0 -0.37640402398E+01  0.47107531402E+02  0.65541356808E+02  0.80801961399E+02  0.00000000000E+00 0.  1.
         11    1    1    2    0    0  0.25425805896E+02 -0.32317872545E+02  0.14799369667E+02  0.43702835535E+02  0.00000000000E+00 0. -1.
</event>
<event>
 7    1  0.2380582E-009  0.1957383E+03  0.7561462E-02  0.1153385E+00
          2   -1    0    0  501    0  0.00000000000E+00  0.00000000000E+00  0.77692208268E+03  0.77692208268E+03  0.00000000000E+00 0. -1.
         -2   -1    0    0    0  501 -0.00000000000E+00 -0.00000000000E+00 -0.58574360789E+02  0.58574360789E+02  0.00000000000E+00 0.  1.
         25    2    1    2    0    0  0.17523924673E+03 -0.15963944143E+02  0.47081114563E+03  0.51795190016E+03  0.12508954762E+03 0.  0.
          5    1    3    3  502    0 -0.44550291260E+01 -0.33734297914E+02  0.94827870612E+02  0.10083475385E+03  0.41800000000E+01 0. -1.
         -5    1    3    3    0  502  0.17969427586E+03  0.17770353771E+02  0.37598327502E+03  0.41711714631E+03  0.41800000000E+01 0. -1.
        -11    1    1    2    0    0 -0.69557728375E+02  0.13550442832E+02  0.17647136168E+03  0.19016843474E+03  0.00000000000E+00 0. -1.
         11    1    1    2    0    0 -0.10568151836E+03  0.24135013105E+01  0.71065214575E+02  0.12737610856E+03  0.00000000000E+00 0.  1.
</event>
<event>
 7    1  0.2380582E-009  0.6519516E+02  0.7561462E-02  0.1377239E+00
         -1   -1    0    0    0  501 -0.00000000000E+00  0.00000000000E+00  0.16595762035E+02  0.16595762035E+02  0.00000000000E+00 0.  1.
          1   -1    0    0  501    0  0.00000000000E+00 -0.00000000000E+00 -0.73040613207E+03  0.73040613207E+03  0.00000000000E+00 0. -1.
         25    2    1    2    0    0 -0.67542670354E+01 -0.10013417008E+02 -0.48926025749E+03  0.50514275765E+03  0.12509083663E+03 0.  0.
          5    1    3    3  502    0 -0.96396030246E+01 -0.24049650419E+02 -0.14184459555E+02  0.29832514554E+02  0.41800000000E+01 0.  1.
         -5    1    3    3    0  502  0.28853359892E+01  0.14036233412E+02 -0.47507579793E+03  0.47531024310E+03  0.41800000000E+01 0.  1.
        -11    1    1    2    0    0  0.47653683258E+02  0.75202625853E+01 -0.10702659599E+03  0.11739727478E+03  0.00000000000E+00 0.  1.
         11    1    1    2    0    0 -0.40899416223E+02  0.24931544223E+01 -0.11752351656E+03  0.12446186167E+03  0.00000000000E+00 0. -1.
</event>
<event>
 7    1  0.2380582E-009  0.1226147E+03  0.7561462E-02  0.1238845E+00
         -1   -1    0    0    0  501 -0.00000000000E+00  0.00000000000E+00  0.62713338214E+02  0.62713338214E+02  0.00000000000E+00 0.  1.
          1   -1    0    0  501    0  0.00000000000E+00 -0.00000000000E+00 -0.43945791639E+03  0.43945791639E+03  0.00000000000E+00 0. -1.
         25    2    1    2    0    0  0.30006806821E+02 -0.73178949513E+02 -0.34778106587E+03  0.37796187948E+03  0.12509174814E+03 0.  0.
          5    1    3    3  502    0 -0.48567312159E+02 -0.27175947414E+02 -0.15440116329E+03  0.16417827978E+03  0.41800000000E+01 0.  1.
         -5    1    3    3    0  502  0.78574118980E+02 -0.46003002100E+02 -0.19337990259E+03  0.21378359970E+03  0.41800000000E+01 0.  1.
        -11    1    1    2    0    0 -0.45392593887E+02  0.68530108392E+02  0.92832119781E+01  0.82722677427E+02  0.00000000000E+00 0.  1.
         11    1    1    2    0    0  0.15385787066E+02  0.46488411212E+01 -0.38246724277E+02  0.41486697692E+02  0.00000000000E+00 0. -1.
</event>
<event>
 7    1  0.2380582E-009  0.1413200E+03  0.7561462E-02  0.1211564E+00
          2   -1    0    0  501    0  0.00000000000E+00  0.00000000000E+00  0.13978989233E+03  0.13978989233E+03  0.00000000000E+00 0. -1.
         -2   -1    0    0    0  501 -0.00000000000E+00 -0.00000000000E+00 -0.14894733165E+03  0.14894733165E+03  0.00000000000E+00 0.  1.
         25    2    1    2    0    0  0.92269907716E+02 -0.21275322341E+01  0.91367974633E+01  0.15572020127E+03  0.12508811995E+03 0.  0.
          5    1    3    3  502    0  0.49422821536E+02  0.58418009943E+02 -0.14016469053E+02  0.77905153739E+02  0.41800000000E+01 0.  1.
         -5    1    3    3    0  502  0.42847086180E+02 -0.60545542178E+02  0.23153266516E+02  0.77815047530E+02  0.41800000000E+01 0.  1.
        -11    1    1    2    0    0 -0.28686164382E+02  0.46178498309E+02 -0.59881929998E+01  0.54691938971E+02  0.00000000000E+00 0. -1.
         11    1    1    2    0    0 -0.63583743335E+02 -0.44050966075E+02 -0.12306043789E+02  0.78325083737E+02  0.00000000000E+00 0.  1.
</event>
<event>
 7    1  0.2380582E-009  0.2432816E+03  0.7561462E-02  0.1117626E+00
          2   -1    0    0  501    0  0.00000000000E+00  0.00000000000E+00  0.97844510239E+03  0.97844510239E+03  0.00000000000E+00 0.  1.
         -2   -1    0    0    0  501 -0.00000000000E+00 -0.00000000000E+00 -0.67294101450E+02  0.67294101450E+02  0.00000000000E+00 0. -1.
         25    2    1    2    0    0 -0.12421427563E+02  0.22382694518E+03  0.59677782891E+03  0.64965092266E+03  0.12509896475E+03 0.  0.
          5    1    3    3  502    0  0.29629388506E+02  0.91990832573E+01  0.13640320352E+03  0.13994938416E+03  0.41800000000E+01 0. -1.
         -5    1    3    3    0  502 -0.42050816069E+02  0.21462786192E+03  0.46037462540E+03  0.50970153850E+03  0.41800000000E+01 0. -1.
        -11    1    1    2    0    0  0.42656192612E+02 -0.16427008847E+03  0.18889002830E+03  0.25393632179E+03  0.00000000000E+00 0.  1.
         11    1    1    2    0    0 -0.30234765050E+02 -0.59556856704E+02  0.12548314374E+03  0.14215195940E+03  0.00000000000E+00 0. -1.
</event>
<event>
 7    1  0.2380582E-009  0.1679431E+03  0.7561462E-02  0.1180010E+00
          2   -1    0    0  501    0  0.00000000000E+00  0.00000000000E+00  0.98936804829E+02  0.98936804829E+02  0.00000000000E+00 0. -1.
         -2   -1    0    0    0  501 -0.00000000000E+00 -0.00000000000E+00 -0.34419745016E+03  0.34419745016E+03  0.00000000000E+00 0.  1.
         25    2    1    2    0    0 -0.13316467046E+03  0.59648757964E+02 -0.91175120355E+02  0.21272402332E+03  0.12509118170E+03 0.  0.
          5    1    3    3  502    0 -0.62677944491E+02  0.74414647748E+02 -0.10055173331E+03  0.13997924131E+03  0.41800000000E+01 0.  1.
         -5    1    3    3    0  502 -0.70486725971E+02 -0.14765889784E+02  0.93766129584E+01  0.72744782010E+02  0.41800000000E+01 0.  1.
        -11    1    1    2    0    0 -0.67065304804E+01 -0.19834297280E+02 -0.37965387765E+01  0.21278877000E+02  0.00000000000E+00 0.  1.
         11    1    1    2    0    0  0.13987120094E+03 -0.39814460684E+02 -0.15028898620E+03  0.20913135467E+03  0.00000000000E+00 0. -1.
</event>
<event>
 7    1  0.2380582E-009  0.1070536E+03  0.7561462E-02  0.1266125E+00
         -2   -1    0    0    0  501 -0.00000000000E+00  0.00000000000E+00  0.53253715879E+03  0.53253715879E+03  0.00000000000E+00 0.  1.
          2   -1    0    0  501    0  0.00000000000E+00 -0.00000000000E+00 -0.33181720799E+02  0.33181720799E+02  0.00000000000E+00 0. -1.
         25    2    1    2    0    0 -0.57619529434E+02  0.43131028404E+01  0.17639919655E+03  0.22383710812E+03  0.12509101247E+03 0.  0.
          5    1    3    3  502    0 -0.56289065098E+02  0.39249035728E+02  0.33149704350E+02  0.76323790220E+02  0.41800000000E+01 0. -1.
         -5    1    3    3    0  502 -0.13304643360E+01 -0.34935932887E+02  0.14324949220E+03  0.14751331790E+03  0.41800000000E+01 0. -1.
        -11    1    1    2    0    0  0.28847150371E+01 -0.43015705349E+02  0.96082902007E+02  0.10531190125E+03  0.00000000000E+00 0. -1.
         11    1    1    2    0    0  0.54734814396E+02  0.38702602508E+02  0.22687333944E+03  0.23656987022E+03  0.00000000000E+00 0.  1.
</event>
<event>
 7    1  0.2380582E-009  0.9755496E+02  0.7561462E-02  0.1285523E+00
         -2   -1    0    0    0  501 -0.00000000000E+00  0.00000000000E+00  0.12694450449E+03  0.12694450449E+03  0.00000000000E+00 0.  1.
          2   -1    0    0  501    0  0.00000000000E+00 -0.00000000000E+00 -0.12977092834E+03  0.12977092834E+03  0.00000000000E+00 0. -1.
         25    2    1    2    0    0  0.32806897372E+02  0.13558471092E+02  0.53526650737E+02  0.14061138061E+03  0.12508530435E+03 0.  0.
          5    1    3    3  502    0  0.47850050560E+02 -0.26816765898E+02 -0.17244386338E+02  0.57650737480E+02  0.41800000000E+01 0. -1.
         -5    1    3    3    0  502 -0.15043153188E+02  0.40375236991E+02  0.70771037075E+02  0.82960643130E+02  0.41800000000E+01 0. -1.
        -11    1    1    2    0    0  0.31420715932E+02 -0.74534979067E+01 -0.36204992056E+02  0.48514095586E+02  0.00000000000E+00 0.  1.
         11    1    1    2    0    0 -0.64227613304E+02 -0.61049731857E+01 -0.20148082534E+02  0.67589956637E+02  0.00000000000E+00 0. -1.
</event>
<event>
 7    1  0.2380582E-009  0.1163466E+03  0.7561462E-02  0.1249249E+00
          3   -1    0    0  501    0  0.00000000000E+00  0.00000000000E+00  0.59647574414E+03  0.59647574414E+03  0.00000000000E+00 0. -1.
         -3   -1    0    0    0  501 -0.00000000000E+00 -0.00000000000E+00 -0.29384636712E+02  0.29384636712E+02  0.00000000000E+00 0.  1.
         25    2    1    2    0    0  0.49912398120E+02  0.12995398790E+02  0.19829989296E+03  0.24006327333E+03  0.12508956701E+03 0.  0.
          5    1    3    3  502    0  0.15916005814E+02  0.68063982472E+02  0.11246556358E+03  0.13248396259E+03  0.41800000000E+01 0.  1.
         -5    1    3    3    0  502  0.33996392307E+02 -0.55068583682E+02  0.85834329382E+02  0.10757931074E+03  0.41800000000E+01 0.  1.
        -11    1    1    2    0    0 -0.67375923357E+02  0.10866561844E+02  0.33020424318E+03  0.33718309482E+03  0.00000000000E+00 0. -1.
         11    1    1    2    0    0  0.17463525237E+02 -0.23861960634E+02  0.38586971276E+02  0.48614012705E+02  0.00000000000E+00 0.  1.
</event>
<event>
 7    1  0.2380582E-009  0.9164229E+02  0.7561462E-02  0.1298923E+00
         -1   -1    0    0    0  501 -0.00000000000E+00  0.00000000000E+00  0.54231004012E+02  0.54231004012E+02  0.00000000000E+00 0.  1.
          1   -1    0    0  501    0  0.00000000000E+00 -0.00000000000E+00 -0.25462116005E+03  0.25462116005E+03  0.00000000000E+00 0. -1.
         25    2    1    2    0    0 -0.40923896365E+02  0.13522186906E+01 -0.11588276386E+03  0.17536411179E+03  0.12508862040E+03 0.  0.
          5    1    3    3  502    0  0.75407779087E+01  0.47673275169E+02 -0.92248178007E+01  0.49317077775E+02  0.41800000000E+01 0.  1.
         -5    1    3    3    0  502 -0.48464674274E+02 -0.46321056479E+02 -0.10665794606E+03  0.12604703401E+03  0.41800000000E+01 0.  1.
        -11    1    1    2    0    0  0.36624220018E+02  0.22795840778E+02  0.23802411251E+01  0.43204738126E+02  0.00000000000E+00 0.  1.
         11    1    1    2    0    0  0.42996763467E+01 -0.24148059468E+02 -0.86887633297E+02  0.90283314144E+02  0.00000000000E+00 0. -1.
</event>
<event>
 7    1  0.2380582E-009  0.1174639E+03  0.7561462E-02  0.1247340E+00
         -1   -1    0    0    0  501 -0.00000000000E+00  0.00000000000E+00  0.18218936914E+03  0.18218936914E+03  0.00000000000E+00 0.  1.
          1   -1    0    0  501    0  0.00000000000E+00 -0.00000000000E+00 -0.13066238097E+03  0.13066238097E+03  0.00000000000E+00 0. -1.
         25    2    1    2    0    0 -0.10670225365E+03  0.22836842065E+02  0.37823849090E+02  0.17024755604E+03  0.12508674785E+03 0.  0.
          5    1    3    3  502    0 -0.16715599060E+02 -0.12020287227E+02  0.66296873509E+02  0.69546001999E+02  0.41800000000E+01 0. -1.
         -5    1    3    3    0  502 -0.89986654588E+02  0.34857129292E+02 -0.28473024419E+02  0.10070155404E+03  0.41800000000E+01 0. -1.
        -11    1    1    2    0    0  0.33448203376E+02 -0.28376325961E+02  0.44919786919E+02  0.62783639915E+02  0.00000000000E+00 0.  1.
         11    1    1    2    0    0  0.73254050273E+02  0.55394838966E+01 -0.31216647841E+02  0.79820554155E+02  0.00000000000E+00 0. -1.
</event>
<event>
 7    1  0.2380582E-009  0.8543062E+02  0.7561462E-02  0.1314310E+00
          2   -1    0    0  501    0  0.00000000000E+00  0.00000000000E+00  0.51071753600E+03  0.51071753600E+03  0.00000000000E+00 0. -1.
         -2   -1    0    0    0  501 -0.00000000000E+00 -0.00000000000E+00 -0.34706372953E+02  0.34706372953E+02  0.00000000000E+00 0.  1.
         25    2    1    2    0    0  0.38865614174E+02 -0.70313435864E+02  0.29732507698E+03  0.33242287448E+03  0.12509296883E+03 0.  0.
          5    1    3    3  502    0  0.24463515689E+02 -0.70698227374E+02  0.30603659172E+03  0.31507550020E+03  0.41800000000E+01 0.  1.
         -5    1    3    3    0  502  0.14402098485E+02  0.38479150935E+00 -0.87115147442E+01  0.17347374281E+02  0.41800000000E+01 0.  1.
        -11    1    1    2    0    0 -0.97341645718E+01  0.10019536514E+02 -0.69889154907E+01  0.15620179628E+02  0.00000000000E+00 0.  1.
         11    1    1    2    0    0 -0.29131449602E+02  0.60293899350E+02  0.18567500156E+03  0.19738085484E+03  0.00000000000E+00 0. -1.
</event>
<event>
 7    1  0.2380582E-009  0.9621206E+02  0.7561462E-02  0.1288469E+00
         -2   -1    0    0    0  501 -0.00000000000E+00  0.00000000000E+00  0.23975709149E+02  0.23975709149E+02  0.00000000000E+00 0. -1.
          2   -1    0    0  501    0  0.00000000000E+00 -0.00000000000E+00 -0.67951127115E+03  0.67951127115E+03  0.00000000000E+00 0.  1.
         25    2    1    2    0    0 -0.30221174099E+02  0.54463303249E+02 -0.28322323990E+03  0.31581778503E+03  0.12508356791E+03 0.  0.
          5    1    3    3  502    0  0.15777638911E+02  0.26377489617E+00 -0.21995876287E+03  0.22056367160E+03  0.41800000000E+01 0. -1.
         -5    1    3    3    0  502 -0.45998813010E+02  0.54199528353E+02 -0.63264477027E+02  0.95254113431E+02  0.41800000000E+01 0. -1.
        -11    1    1    2    0    0  0.49492763099E+02 -0.25996292679E+01 -0.22285394331E+03  0.22829842689E+03  0.00000000000E+00 0. -1.
         11    1    1    2    0    0 -0.19271589000E+02 -0.51863673981E+02 -0.14945837879E+03  0.15937076838E+03  0.00000000000E+00 0.  1.
</event>
<event>
 7    1  0.2380582E-009  0.1680101E+03  0.7561462E-02  0.1179939E+00
         -2   -1    0    0    0  501 -0.00000000000E+00  0.00000000000E+00  0.48612267836E+03  0.48612267836E+03  0.00000000000E+00 0.  1.
          2   -1    0    0  501    0  0.00000000000E+00 -0.00000000000E+00 -0.61879181777E+02  0.61879181777E+02  0.00000000000E+00 0. -1.
         25    2    1    2    0    0  0.13057818575E+03  0.26061486967E+02  0.21956545808E+03  0.28562994711E+03  0.12508242325E+03 0.  0.
          5    1    3    3  502    0  0.49352027718E+02  0.68005694602E+02  0.66265955702E+02  0.10709363391E+03  0.41800000000E+01 0. -1.
         -5    1    3    3    0  502  0.81226158031E+02 -0.41944207635E+02  0.15329950237E+03  0.17853631320E+03  0.41800000000E+01 0. -1.
        -11    1    1    2    0    0 -0.95884649709E+02  0.24586806329E+02  0.15246404708E+03  0.18177915928E+03  0.00000000000E+00 0.  1.
         11    1    1    2    0    0 -0.34693536041E+02 -0.50648293296E+02  0.52213991421E+02  0.80592753749E+02  0.00000000000E+00 0. -1.
</event>
<event>
 7    1  0.2380582E-009  0.1472870E+03  0.7561462E-02  0.1203847E+00
         -1   -1    0    0    0  501 -0.00000000000E+00  0.00000000000E+00  0.34232904392E+02  0.34232904392E+02  0.00000000000E+00 0.  1.
          1   -1    0    0  501    0  0.00000000000E+00 -0.00000000000E+00 -0.67031980366E+03  0.67031980366E+03  0.00000000000E+00 0. -1.
         25    2    1    2    0    0 -0.18432289200E+02 -0.10088722588E+03 -0.38029324842E+03  0.41326581373E+03  0.12509075255E+03 0.  0.
          5    1    3    3  502    0  0.42559129256E+02 -0.82452123160E+02 -0.17294975986E+03  0.19631282162E+03  0.41800000000E+01 0.  1.
         -5    1    3    3    0  502 -0.60991418457E+02 -0.18435102723E+02 -0.20734348856E+03  0.21695299211E+03  0.41800000000E+01 0.  1.
        -11    1    1    2    0    0  0.49977525566E+02  0.92594526315E+02 -0.21205866213E+03  0.23672848488E+03  0.00000000000E+00 0.  1.
         11    1    1    2    0    0 -0.31545236366E+02  0.82926995678E+01 -0.43734988714E+02  0.54558409446E+02  0.00000000000E+00 0. -1.
</event>
<event>
 7    1  0.2380582E-009  0.2041120E+03  0.7561462E-02  0.1146315E+00
         -1   -1    0    0    0  501 -0.00000000000E+00  0.00000000000E+00  0.71680602652E+02  0.71680602652E+02  0.00000000000E+00 0.  1.
          1   -1    0    0  501    0  0.00000000000E+00 -0.00000000000E+00 -0.64643959888E+03  0.64643959888E+03  0.00000000000E+00 0. -1.
         25    2    1    2    0    0 -0.16611512058E+03 -0.80330278058E+02 -0.26033070038E+03  0.34273565256E+03  0.12509383325E+03 0.  0.
          5    1    3    3  502    0 -0.12703675503E+03 -0.10255157080E+03 -0.24616953451E+03  0.29541847255E+03  0.41800000000E+01 0. -1.
         -5    1    3    3    0  502 -0.39078365555E+02  0.22221292741E+02 -0.14161165868E+02  0.47317180012E+02  0.41800000000E+01 0. -1.
        -11    1    1    2    0    0  0.89543193233E+02  0.84437748094E+02 -0.15057056957E+03  0.19447162564E+03  0.00000000000E+00 0. -1.
         11    1    1    2    0    0  0.76571927351E+02 -0.41074700362E+01 -0.16385772627E+03  0.18091292333E+03  0.00000000000E+00 0.  1.
</event>
<event>
 7    1  0.2380582E-009  0.1691631E+03  0.7561462E-02  0.1178723E+00
         -2   -1    0    0    0  501 -0.00000000000E+00  0.00000000000E+00  0.63438386121E+02  0.63438386121E+02  0.00000000000E+00 0.  1.
          2   -1    0    0  501    0  0.00000000000E+00 -0.00000000000E+00 -0.51825564938E+03  0.51825564938E+03  0.00000000000E+00 0. -1.
         25    2    1    2    0    0  0.38647722019E+02  0.13899338926E+03 -0.21627318642E+03  0.28851197602E+03  0.12510899436E+03 0.  0.
          5    1    3    3  502    0  0.16598806922E+02  0.15582645294E+03 -0.15187114538E+03  0.21826525382E+03  0.41800000000E+01 0.  1.
         -5    1    3    3    0  502  0.22048915097E+02 -0.16833063684E+02 -0.64402041040E+02  0.70246722202E+02  0.41800000000E+01 0.  1.
        -11    1    1    2    0    0 -0.36574086144E+02 -0.38897212091E+02 -0.28556457352E+02  0.60548560200E+02  0.00000000000E+00 0.  1.
         11    1    1    2    0    0 -0.20736358743E+01 -0.10009617716E+03 -0.20998761949E+03  0.23263349928E+03  0.00000000000E+00 0. -1.
</event>
<event>
 7    1  0.2380582E-009  0.1798318E+03  0.7561462E-02  0.1167966E+00
         -2   -1    0    0    0  501 -0.00000000000E+00  0.00000000000E+00  0.69294883766E+02  0.69294883766E+02  0.00000000000E+00 0.  1.
          2   -1    0    0  501    0  0.00000000000E+00 -0.00000000000E+00 -0.72445069448E+03  0.72445069448E+03  0.00000000000E+00 0. -1.
         25    2    1    2    0    0 -0.14600170928E+03  0.40489370209E+02 -0.55811503526E+03  0.59168902461E+03  0.12509045147E+03 0.  0.
          5    1    3    3  502    0 -0.16064827968E+03  0.54908649067E+02 -0.53045246027E+03  0.55697406987E+03  0.41800000000E+01 0. -1.
         -5    1    3    3    0  502  0.14646570398E+02 -0.14419278858E+02 -0.27662574991E+02  0.34714954736E+02  0.41800000000E+01 0. -1.
        -11    1    1    2    0    0  0.66333988856E+02  0.19496009695E+02 -0.70750362801E+02  0.98923739861E+02  0.00000000000E+00 0.  1.
         11    1    1    2    0    0  0.79667720422E+02 -0.59985379904E+02 -0.26290412649E+02  0.10313281377E+03  0.00000000000E+00 0. -1.
</event>
<event>
 7    1  0.2380582E-009  0.1174681E+03  0.7561462E-02  0.1247333E+00
          1   -1    0    0  501    0  0.00000000000E+00  0.00000000000E+00  0.53034390001E+03  0.53034390001E+03  0.00000000000E+00 0. -1.
         -1   -1    0    0    0  501 -0.00000000000E+00 -0.00000000000E+00 -0.27009526589E+02  0.27009526589E+02  0.00000000000E+00 0.  1.
         25    2    1    2    0    0  0.39144191457E+02 -0.31465183205E+02  0.27494046739E+03  0.30620569064E+03  0.12508932367E+03 0.  0.
          5    1    3    3  502    0  0.81493478783E+02 -0.39297902892E+02  0.20240031408E+03  0.22174055064E+03  0.41800000000E+01 0. -1.
         -5    1    3    3    0  502 -0.42349287327E+02  0.78327196870E+01  0.72540153305E+02  0.84465140006E+02  0.41800000000E+01 0. -1.
        -11    1    1    2    0    0 -0.61738898968E+02  0.43472822152E+02  0.19477527588E+03  0.20889946388E+03  0.00000000000E+00 0. -1.
         11    1    1    2    0    0  0.22594707512E+02 -0.12007638948E+02  0.33618630146E+02  0.42248272077E+02  0.00000000000E+00 0.  1.
</event>
<event>
 7    1  0.2380582E-009  0.1295893E+03  0.7561462E-02  0.1228066E+00
         -3   -1    0    0    0  501 -0.00000000000E+00  0.00000000000E+00  0.28916230143E+03  0.28916230143E+03  0.00000000000E+00 0.  1.
          3   -1    0    0  501    0  0.00000000000E+00 -0.00000000000E+00 -0.86361405355E+02  0.86361405355E+02  0.00000000000E+00 0. -1.
         25    2    1    2    0    0  0.46442341853E+02  0.10349706329E+03  0.83263421804E+02  0.18827493560E+03  0.12508445442E+03 0.  0.
          5    1    3    3  502    0 -0.26281864018E+02  0.13259179024E+02  0.64196489808E+02  0.70747465737E+02  0.41800000000E+01 0.  1.
         -5    1    3    3    0  502  0.72724205870E+02  0.90237884264E+02  0.19066931996E+02  0.11752746986E+03  0.41800000000E+01 0.  1.
        -11    1    1    2    0    0 -0.34524181855E+02 -0.73787849275E+02  0.21697065171E+02  0.84304972987E+02  0.00000000000E+00 0. -1.
         11    1    1    2    0    0 -0.11918159998E+02 -0.29709214013E+02  0.97840409105E+02  0.10294379820E+03  0.00000000000E+00 0.  1.
</event>
<event>
 7    1  0.2380582E-009  0.1050749E+03  0.7561462E-02  0.1269972E+00
          2   -1    0    0  501    0  0.00000000000E+00  0.00000000000E+00  0.15788558471E+03  0.15788558471E+03  0.00000000000E+00 0. -1.
         -2   -1    0    0    0  501 -0.00000000000E+00 -0.00000000000E+00 -0.86346520429E+02  0.86346520429E+02  0.00000000000E+00 0.  1.
         25    2    1    2    0    0 -0.28099546109E+01 -0.12822556618E+02  0.61315056184E+01  0.12592829038E+03  0.12509206671E+03 0.  0.
          5    1    3    3  502    0 -0.20458939970E+02  0.50274724985E+02  0.21450391333E+02  0.58512459232E+02  0.41800000000E+01 0.  1.
         -5    1    3    3    0  502  0.17648985359E+02 -0.63097281604E+02 -0.15318885715E+02  0.67415831149E+02  0.41800000000E+01 0.  1.
        -11    1    1    2    0    0 -0.39673057558E+02 -0.11239613795E+02  0.54387298805E+02  0.68251437241E+02  0.00000000000E+00 0. -1.
         11    1    1    2    0    0  0.42483012169E+02  0.24062170414E+02  0.11020259862E+02  0.50052377520E+02  0.00000000000E+00 0.  1.
</event>
<event>
 7    1  0.2380582E-009  0.3365956E+03  0.7561462E-02  0.1068255E+00
         -1   -1    0    0    0  501 -0.00000000000E+00  0.00000000000E+00  0.11715440739E+04  0.11715440739E+04  0.00000000000E+00 0.  1.
          1   -1    0    0  501    0  0.00000000000E+00 -0.00000000000E+00 -0.34894101807E+03  0.34894101807E+03  0.00000000000E+00 0. -1.
         25    2    1    2    0    0  0.96941995820E+02  0.31638719993E+03  0.10500018320E+04  0.11079930716E+04  0.12508472611E+03 0.  0.
          5    1    3    3  502    0  0.10616319556E+02  0.27988803127E+02  0.27354092118E+03  0.27520571815E+03  0.41800000000E+01 0. -1.
         -5    1    3    3    0  502  0.86325676264E+02  0.28839839681E+03  0.77646091085E+03  0.83278735349E+03  0.41800000000E+01 0. -1.
        -11    1    1    2    0    0  0.14449920784E+02 -0.70331513559E+02 -0.67878917985E+02  0.98807234133E+02  0.00000000000E+00 0.  1.
         11    1    1    2    0    0 -0.11139191660E+03 -0.24605568638E+03 -0.15951985826E+03  0.31368478615E+03  0.00000000000E+00 0. -1.
</event>
<event>
 7    1  0.2380582E-009  0.1376005E+03  0.7561462E-02  0.1216595E+00
         -2   -1    0    0    0  501 -0.00000000000E+00  0.00000000000E+00  0.57260945336E+02  0.57260945336E+02  0.00000000000E+00 0.  1.
          2   -1    0    0  501    0  0.00000000000E+00 -0.00000000000E+00 -0.50270477368E+03  0.50270477368E+03  0.00000000000E+00 0. -1.
         25    2    1    2    0    0  0.55597517851E+02  0.10483196275E+03 -0.14598743754E+03  0.22592357084E+03  0.12509317942E+03 0.  0.
          5    1    3    3  502    0 -0.39522646021E+01  0.40594112025E+02 -0.13060756859E+03  0.13689160565E+03  0.41800000000E+01 0.  1.
         -5    1    3    3    0  502  0.59549782453E+02  0.64237850725E+02 -0.15379868950E+02  0.89031965186E+02  0.41800000000E+01 0.  1.
        -11    1    1    2    0    0 -0.37105913706E+02 -0.11807175821E+03 -0.23346474018E+03  0.26424150663E+03  0.00000000000E+00 0.  1.
         11    1    1    2    0    0 -0.18491604145E+02  0.13239795461E+02 -0.65991650632E+02  0.69800641551E+02  0.00000000000E+00 0. -1.
</event>
<event>
 7    1  0.2380582E-009  0.9892651E+02  0.7561462E-02  0.1282570E+00
         -1   -1    0    0    0  501 -0.00000000000E+00  0.00000000000E+00  0.27660703198E+02  0.27660703198E+02  0.00000000000E+00 0.  1.
          1   -1    0    0  501    0  0.00000000000E+00 -0.00000000000E+00 -0.49522052245E+03  0.49522052245E+03  0.00000000000E+00 0. -1.
         25    2    1    2    0    0  0.24398237494E+02 -0.20108396317E+02 -0.19458550067E+03  0.23347571805E+03  0.12509105585E+03 0.  0.
          5    1    3    3  502    0  0.26390403055E+02  0.46321008875E+02 -0.13060998416E+03  0.14113302093E+03  0.41800000000E+01 0.  1.
         -5    1    3    3    0  502 -0.19921655609E+01 -0.66429405192E+02 -0.63975516510E+02  0.92342697116E+02  0.41800000000E+01 0.  1.
        -11    1    1    2    0    0  0.13296980252E+02  0.34859050655E+02 -0.47875881282E+02  0.60696483464E+02  0.00000000000E+00 0.  1.
         11    1    1    2    0    0 -0.37695217746E+02 -0.14750654338E+02 -0.22509843730E+03  0.22870902414E+03  0.00000000000E+00 0. -1.
</event>
<event>
 7    1  0.2380582E-009  0.1025756E+03  0.7561462E-02  0.1274971E+00
         -2   -1    0    0    0  501 -0.00000000000E+00  0.00000000000E+00  0.46127450537E+02  0.46127450537E+02  0.00000000000E+00 0.  1.
          2   -1    0    0  501    0  0.00000000000E+00 -0.00000000000E+00 -0.32969571489E+03  0.32969571489E+03  0.00000000000E+00 0. -1.
         25    2    1    2    0    0  0.37740908406E+02 -0.18058043243E+01 -0.22650568939E+03  0.26149553320E+03  0.12508976561E+03 0.  0.
          5    1    3    3  502    0  0.11456077644E+02 -0.54226915929E+02 -0.17403537879E+03  0.18269533546E+03  0.41800000000E+01 0. -1.
         -5    1    3    3    0  502  0.26284830762E+02  0.52421111604E+02 -0.52470310596E+02  0.78800197741E+02  0.41800000000E+01 0. -1.
        -11    1    1    2    0    0  0.14470270738E+02  0.28631097337E+02 -0.43555371464E+02  0.54094351400E+02  0.00000000000E+00 0.  1.
         11    1    1    2    0    0 -0.52211179144E+02 -0.26825293013E+02 -0.13507203497E+02  0.60233280826E+02  0.00000000000E+00 0. -1.
</event>
<event>
 7    1  0.2380582E-009  0.1110430E+03  0.7561462E-02  0.1258650E+00
          3   -1    0    0  501    0  0.00000000000E+00  0.00000000000E+00  0.12127775148E+04  0.12127775148E+04  0.00000000000E+00 0. -1.
         -3   -1    0    0    0  501 -0.00000000000E+00 -0.00000000000E+00 -0.11992692546E+02  0.11992692546E+02  0.00000000000E+00 0.  1.
         25    2    1    2    0    0 -0.63498441170E+01 -0.33540610654E+02  0.87404663455E+03  0.88361238043E+03  0.12509207173E+03 0.  0.
          5    1    3    3  502    0 -0.37294278251E+02  0.36610493839E+02  0.39139991078E+03  0.39489562419E+03  0.41800000000E+01 0.  1.
         -5    1    3    3    0  502  0.30944434134E+02 -0.70151104493E+02  0.48264672377E+03  0.48871675624E+03  0.41800000000E+01 0.  1.
        -11    1    1    2    0    0 -0.38673928315E+02  0.36864406627E+01  0.85006090532E+02  0.93462816155E+02  0.00000000000E+00 0.  1.
         11    1    1    2    0    0  0.45023772432E+02  0.29854169991E+02  0.24173209715E+03  0.24769501074E+03  0.00000000000E+00 0. -1.
</event>
<event>
 7    1  0.2380582E-009  0.1297488E+03  0.7561462E-02  0.1227829E+00
         -2   -1    0    0    0  501 -0.00000000000E+00  0.00000000000E+00  0.19532528328E+02  0.19532528328E+02  0.00000000000E+00 0.  1.
          2   -1    0    0  501    0  0.00000000000E+00 -0.00000000000E+00 -0.16774939476E+04  0.16774939476E+04  0.00000000000E+00 0. -1.
         25    2    1    2    0    0  0.40960069512E+02 -0.61253420498E+02 -0.14628405205E+04  0.14700270615E+04  0.12508982448E+03 0.  0.
          5    1    3    3  502    0  0.80394049650E+01 -0.95543782856E+02 -0.10710499674E+04  0.10753412256E+04  0.41800000000E+01 0. -1.
         -5    1    3    3    0  502  0.32920664547E+02  0.34290362357E+02 -0.39179055313E+03  0.39468583586E+03  0.41800000000E+01 0. -1.
        -11    1    1    2    0    0 -0.56394535724E+02  0.75880493705E+02 -0.15397096518E+03  0.18067996874E+03  0.00000000000E+00 0.  1.
         11    1    1    2    0    0  0.15434466212E+02 -0.14627073207E+02 -0.41149933544E+02  0.46319445685E+02  0.00000000000E+00 0. -1.
</event>
<event>
 7    1  0.2380582E-009  0.1473299E+03  0.7561462E-02  0.1203793E+00
          2   -1    0    0  501    0  0.00000000000E+00  0.00000000000E+00  0.48240870833E+03  0.48240870833E+03  0.00000000000E+00 0. -1.
         -2   -1    0    0    0  501 -0.00000000000E+00 -0.00000000000E+00 -0.76806846701E+02  0.76806846701E+02  0.00000000000E+00 0.  1.
         25    2    1    2    0    0 -0.50796840299E+02  0.10921407768E+03  0.36329585087E+03  0.40266568253E+03  0.12509093844E+03 0.  0.
          5    1    3    3  502    0  0.23842058036E+02  0.39040447708E+02  0.32304725402E+02  0.56157528186E+02  0.41800000000E+01 0.  1.
         -5    1    3    3    0  502 -0.74638898335E+02  0.70173629973E+02  0.33099112547E+03  0.34650815435E+03  0.41800000000E+01 0.  1.
        -11    1    1    2    0    0  0.43961633442E+02 -0.79215421651E+01 -0.42301330045E+01  0.44869478160E+02  0.00000000000E+00 0.  1.
         11    1    1    2    0    0  0.68352068571E+01 -0.10129253552E+03  0.46536143764E+02  0.11168039434E+03  0.00000000000E+00 0. -1.
</event>
<event>
 7    1  0.2380582E-009  0.1059879E+03  0.7561462E-02  0.1268185E+00
          2   -1    0    0  501    0  0.00000000000E+00  0.00000000000E+00  0.36419992323E+03  0.36419992323E+03  0.00000000000E+00 0. -1.
         -2   -1    0    0    0  501 -0.00000000000E+00 -0.00000000000E+00 -0.77773862298E+02  0.77773862298E+02  0.00000000000E+00 0.  1.
         25    2    1    2    0    0 -0.33152607592E+02  0.44500944879E+01 -0.92487490006E+01  0.12981547031E+03  0.12509044025E+03 0.  0.
          5    1    3    3  502    0 -0.11666719849E+00  0.61730719802E+02 -0.13836296805E+02  0.63400401322E+02  0.41800000000E+01 0.  1.
         -5    1    3    3    0  502 -0.33035940393E+02 -0.57280625314E+02  0.45875478041E+01  0.66415068990E+02  0.41800000000E+01 0.  1.
        -11    1    1    2    0    0  0.18752959573E+02  0.36174309823E+02  0.59700224215E+02  0.72279810150E+02  0.00000000000E+00 0.  1.
         11    1    1    2    0    0  0.14399648018E+02 -0.40624404311E+02  0.23597458572E+03  0.23987850507E+03  0.00000000000E+00 0. -1.
</event>
<event>
 7    1  0.2380582E-009  0.9665010E+02  0.7561462E-02  0.1287502E+00
         -1   -1    0    0    0  501 -0.00000000000E+00  0.00000000000E+00  0.10736217510E+03  0.10736217510E+03  0.00000000000E+00 0.  1.
          1   -1    0    0  501    0  0.00000000000E+00 -0.00000000000E+00 -0.13004454396E+03  0.13004454396E+03  0.00000000000E+00 0. -1.
         25    2    1    2    0    0  0.31734433192E+02  0.19571254909E+02 -0.39048906660E+02  0.13623398071E+03  0.12507906347E+03 0.  0.
          5    1    3    3  502    0  0.56058429142E+01  0.70588712319E+02 -0.93659855212E+01  0.71549883762E+02  0.41800000000E+01 0. -1.
         -5    1    3    3    0  502  0.26128590278E+02 -0.51017457410E+02 -0.29682921139E+02  0.64684096947E+02  0.41800000000E+01 0. -1.
        -11    1    1    2    0    0 -0.45316536489E+02 -0.23095886012E+02  0.45877025788E+02  0.68496057734E+02  0.00000000000E+00 0.  1.
         11    1    1    2    0    0  0.13582103297E+02  0.35246311028E+01 -0.29510487995E+02  0.32676680616E+02  0.00000000000E+00 0. -1.
</event>
<event>
 7    1  0.2380582E-009  0.1093460E+03  0.7561462E-02  0.1261786E+00
         -1   -1    0    0    0  501 -0.00000000000E+00  0.00000000000E+00  0.25894775109E+03  0.25894775109E+03  0.00000000000E+00 0.  1.
          1   -1    0    0  501    0  0.00000000000E+00 -0.00000000000E+00 -0.51092380632E+02  0.51092380632E+02  0.00000000000E+00 0. -1.
         25    2    1    2    0    0 -0.30179289622E+02  0.62468121206E+01  0.16505486360E+03  0.20937636515E+03  0.12508214142E+03 0.  0.
          5    1    3    3  502    0 -0.67398993583E+02  0.39326526440E+02  0.11116783621E+03  0.13588583527E+03  0.41800000000E+01 0.  1.
         -5    1    3    3    0  502  0.37219703961E+02 -0.33079714319E+02  0.53887027388E+02  0.73490529887E+02  0.41800000000E+01 0.  1.
        -11    1    1    2    0    0  0.13403614478E+02 -0.45742386234E+02  0.17070874048E+02  0.50630401146E+02  0.00000000000E+00 0.  1.
         11    1    1    2    0    0  0.16775675144E+02  0.39495574113E+02  0.25729632807E+02  0.50033365422E+02  0.00000000000E+00 0. -1.
</event>
<event>
 7    1  0.2380582E-009  0.1212243E+03  0.7561462E-02  0.1241091E+00
          2   -1    0    0  501    0  0.00000000000E+00  0.00000000000E+00  0.25806190774E+03  0.25806190774E+03  0.00000000000E+00 0. -1.
         -2   -1    0    0    0  501 -0.00000000000E+00 -0.00000000000E+00 -0.78351359959E+02  0.78351359959E+02  0.00000000000E+00 0.  1.
         25    2    1    2    0    0 -0.88496474152E+02 -0.16805163279E+02  0.11562823446E+03  0.19270068251E+03  0.12509846115E+03 0.  0.
          5    1    3    3  502    0  0.27619897658E+02 -0.19706834022E+02  0.99308964702E+01  0.35599342108E+02  0.41800000000E+01 0. -1.
         -5    1    3    3    0  502 -0.11611637181E+03  0.29016707424E+01  0.10569733799E+03  0.15710134040E+03  0.41800000000E+01 0. -1.
        -11    1    1    2    0    0  0.58972514283E+02  0.19997465614E+01 -0.12496237568E+02  0.60315109057E+02  0.00000000000E+00 0.  1.
         11    1    1    2    0    0  0.29523959869E+02  0.14805416718E+02  0.76578550882E+02  0.83397476136E+02  0.00000000000E+00 0. -1.
</event>
<event>
 7    1  0.2380582E-009  0.8554697E+02  0.7561462E-02  0.1314008E+00
         -2   -1    0    0    0  501 -0.00000000000E+00  0.00000000000E+00  0.17647990318E+03  0.17647990318E+03  0.00000000000E+00 0. -1.
          2   -1    0    0  501    0  0.00000000000E+00 -0.00000000000E+00 -0.16779617448E+03  0.16779617448E+03  0.00000000000E+00 0.  1.
         25    2    1    2    0    0 -0.40546617068E+02  0.61458309854E+02 -0.10755978492E+03  0.18065932847E+03  0.12509010203E+03 0.  0.
          5    1    3    3  502    0 -0.23379393537E+02  0.16668542774E+02 -0.12585150939E+03  0.12915305329E+03  0.41800000000E+01 0.  1.
         -5    1    3    3    0  502 -0.17167223531E+02  0.44789767081E+02  0.18291724467E+02  0.51506275180E+02  0.41800000000E+01 0.  1.
        -11    1    1    2    0    0 -0.20157457606E+00 -0.52125821084E+02  0.10949872806E+03  0.12127288775E+03  0.00000000000E+00 0. -1.
         11    1    1    2    0    0  0.40748191644E+02 -0.93324887703E+01  0.67447855542E+01  0.42343861433E+02  0.00000000000E+00 0.  1.
</event>
<event>
 7    1  0.2380582E-009  0.9405475E+02  0.7561462E-02  0.1293319E+00
          2   -1    0    0  501    0  0.00000000000E+00  0.00000000000E+00  0.85822845642E+02  0.85822845642E+02  0.00000000000E+00 0. -1.
         -2   -1    0    0    0  501 -0.00000000000E+00 -0.00000000000E+00 -0.14638015377E+03  0.14638015377E+03  0.00000000000E+00 0.  1.
         25    2    1    2    0    0 -0.26160722429E+01  0.12018232682E+02 -0.10767005393E+02  0.12615751515E+03  0.12509399855E+03 0.  0.
          5    1    3    3  502    0  0.25565318542E+02  0.47221856170E+02 -0.44355407109E+02  0.69773660876E+02  0.41800000000E+01 0. -1.
         -5    1    3    3    0  502 -0.28181390785E+02 -0.35203623488E+02  0.33588401715E+02  0.56383854276E+02  0.41800000000E+01 0. -1.
        -11    1    1    2    0    0 -0.38624576126E+02 -0.24661467122E+02 -0.90478262648E+01  0.46710908808E+02  0.00000000000E+00 0. -1.
         11    1    1    2    0    0  0.41240648369E+02  0.12643234440E+02 -0.40742476470E+02  0.59334575450E+02  0.00000000000E+00 0.  1.
</event>
<event>
 7    1  0.2380582E-009  0.9653940E+02  0.7561462E-02  0.1287746E+00
         -2   -1    0    0    0  501 -0.00000000000E+00  0.00000000000E+00  0.27550853959E+03  0.27550853959E+03  0.00000000000E+00 0.  1.
          2   -1    0    0  501    0  0.00000000000E+00 -0.00000000000E+00 -0.55272131733E+02  0.55272131733E+02  0.00000000000E+00 0. -1.
         25    2    1    2    0    0  0.38587892156E+02 -0.59158106334E+01  0.75707210516E+02  0.15133815395E+03  0.12509049876E+03 0.  0.
          5    1    3    3  502    0 -0.44681866118E+02 -0.46220025248E+01  0.12828398490E+02  0.46902796025E+02  0.41800000000E+01 0. -1.
         -5    1    3    3    0  502  0.83269758274E+02 -0.12938081086E+01  0.62878812026E+02  0.10443535792E+03  0.41800000000E+01 0. -1.
        -11    1    1    2    0    0 -0.11815283379E+02  0.27667509545E+02  0.14167002632E+03  0.14482916959E+03  0.00000000000E+00 0.  1.
         11    1    1    2    0    0 -0.26772608777E+02 -0.21751698911E+02  0.28591710217E+01  0.34613347789E+02  0.00000000000E+00 0. -1.
</event>
<event>
 7    1  0.2380582E-009  0.1090575E+03  0.7561462E-02  0.1262325E+00
          1   -1    0    0  501    0  0.00000000000E+00  0.00000000000E+00  0.76801793167E+03  0.76801793167E+03  0.00000000000E+00 0. -1.
         -1   -1    0    0    0  501 -0.00000000000E+00 -0.00000000000E+00 -0.20545366861E+02  0.20545366861E+02  0.00000000000E+00 0.  1.
         25    2    1    2    0    0  0.29272114766E+02  0.61162098762E+01  0.59677391263E+03  0.61047715697E+03  0.12509592982E+03 0.  0.
          5    1    3    3  502    0  0.42235399994E+02  0.59669365900E+02  0.35404872546E+03  0.36154147015E+03  0.41800000000E+01 0.  1.
         -5    1    3    3    0  502 -0.12963285228E+02 -0.53553156024E+02  0.24272518717E+03  0.24893568682E+03  0.41800000000E+01 0.  1.
        -11    1    1    2    0    0 -0.43137746452E+02  0.28932087385E+02  0.57136256412E+02  0.77217113687E+02  0.00000000000E+00 0.  1.
         11    1    1    2    0    0  0.13865631686E+02 -0.35048297262E+02  0.93562395768E+02  0.10086902788E+03  0.00000000000E+00 0. -1.
</event>
<event>
 7    1  0.2380582E-009  0.1039826E+03  0.7561462E-02  0.1272137E+00
          3   -1    0    0  501    0  0.00000000000E+00  0.00000000000E+00  0.13776664040E+03  0.13776664040E+03  0.00000000000E+00 0. -1.
         -3   -1    0    0    0  501 -0.00000000000E+00 -0.00000000000E+00 -0.12404114015E+03  0.12404114015E+03  0.00000000000E+00 0.  1.
         25    2    1    2    0    0  0.10230283696E+02  0.46999600819E+02  0.63641840352E+02  0.14836959742E+03  0.12509849086E+03 0.  0.
          5    1    3    3  502    0 -0.42418794509E+02 -0.13940875464E+02  0.48972976327E+02  0.66404269039E+02  0.41800000000E+01 0.  1.
         -5    1    3    3    0  502  0.52649078205E+02  0.60940476282E+02  0.14668864025E+02  0.81965328384E+02  0.41800000000E+01 0.  1.
        -11    1    1    2    0    0 -0.16907553837E+01 -0.63698747060E+02 -0.63747504524E+02  0.90133974526E+02  0.00000000000E+00 0.  1.
         11    1    1    2    0    0 -0.85395283123E+01  0.16699146241E+02  0.13831164422E+02  0.23304208595E+02  0.00000000000E+00 0. -1.
</event>
<event>
 7    1  0.2380582E-009  0.1443089E+03  0.7561462E-02  0.1207646E+00
         -2   -1    0    0    0  501 -0.00000000000E+00  0.00000000000E+00  0.96415152843E+03  0.96415152843E+03  0.00000000000E+00 0.  1.
          2   -1    0    0  501    0  0.00000000000E+00 -0.00000000000E+00 -0.37203720424E+02  0.37203720424E+02  0.00000000000E+00 0. -1.
         25    2    1    2    0    0 -0.10885614135E+03  0.58547223412E+02  0.72886547721E+03  0.74978004342E+03  0.12509113779E+03 0.  0.
          5    1    3    3  502    0 -0.10023311943E+03  0.20841555814E+02  0.67822372982E+03  0.68591978304E+03  0.41800000000E+01 0.  1.
         -5    1    3    3    0  502 -0.86230219213E+01  0.37705667598E+02  0.50641747398E+02  0.63860260379E+02  0.41800000000E+01 0.  1.
        -11    1    1    2    0    0  0.57268685053E+02  0.13308667480E+02  0.11981694978E+03  0.13346506798E+03  0.00000000000E+00 0.  1.
         11    1    1    2    0    0  0.51587456301E+02 -0.71855890892E+02  0.78265381007E+02  0.11811013745E+03  0.00000000000E+00 0. -1.
</event>
<event>
 7    1  0.2380582E-009  0.1393557E+03  0.7561462E-02  0.1214199E+00
         -2   -1    0    0    0  501 -0.00000000000E+00  0.00000000000E+00  0.33505003875E+03  0.33505003875E+03  0.00000000000E+00 0. -1.
          2   -1    0    0  501    0  0.00000000000E+00 -0.00000000000E+00 -0.83528227172E+02  0.83528227172E+02  0.00000000000E+00 0.  1.
         25    2    1    2    0    0  0.40212840219E+02  0.10478082292E+03  0.62929015633E+02  0.17944683012E+03  0.12508001623E+03 0.  0.
          5    1    3    3  502    0 -0.26103500437E+02 -0.19949142155E+01  0.45253813851E+02  0.52447616589E+02  0.41800000000E+01 0.  1.
         -5    1    3    3    0  502  0.66316340656E+02  0.10677573714E+03  0.17675201782E+02  0.12699921353E+03  0.41800000000E+01 0.  1.
        -11    1    1    2    0    0 -0.17901847027E+01 -0.81483027428E+02  0.55362230620E+02  0.98527483980E+02  0.00000000000E+00 0.  1.
         11    1    1    2    0    0 -0.38422655516E+02 -0.23297795492E+02  0.13323056532E+03  0.14060395182E+03  0.00000000000E+00 0. -1.
</event>
<event>
 7    1  0.2380582E-009  0.1281942E+03  0.7561462E-02  0.1230160E+00
         -2   -1    0    0    0  501 -0.00000000000E+00  0.00000000000E+00  0.13667451848E+03  0.13667451848E+03  0.00000000000E+00 0.  1.
          2   -1    0    0  501    0  0.00000000000E+00 -0.00000000000E+00 -0.14259762169E+03  0.14259762169E+03  0.00000000000E+00 0. -1.
         25    2    1    2    0    0  0.66690651647E+02  0.58341302275E+02 -0.67539788511E+01  0.15344702583E+03  0.12509605484E+03 0.  0.
          5    1    3    3  502    0 -0.29755817398E+02  0.47416022025E+02 -0.16349537629E+01  0.56159000058E+02  0.41800000000E+01 0. -1.
         -5    1    3    3    0  502  0.96446469045E+02  0.10925280250E+02 -0.51190250881E+01  0.97288025767E+02  0.41800000000E+01 0. -1.
        -11    1    1    2    0    0 -0.23557378555E+02 -0.55005545969E+02 -0.35287571933E+02  0.69467783214E+02  0.00000000000E+00 0. -1.
         11    1    1    2    0    0 -0.43133273092E+02 -0.33357563055E+01  0.36118447567E+02  0.56357331133E+02  0.00000000000E+00 0.  1.
</event>
<event>
 7    1  0.2380582E-009  0.1094767E+03  0.7561462E-02  0.1261542E+00
         -1   -1    0    0    0  501 -0.00000000000E+00  0.00000000000E+00  0.32027229500E+02  0.32027229500E+02  0.00000000000E+00 0.  1.
          1   -1    0    0  501    0  0.00000000000E+00 -0.00000000000E+00 -0.38039840147E+03  0.38039840147E+03  0.00000000000E+00 0. -1.
         25    2    1    2    0    0  0.38984667994E+01  0.21418420960E+02 -0.19573443681E+03  0.23330766041E+03  0.12508616170E+03 0.  0.
          5    1    3    3  502    0 -0.10968786451E+02  0.72462223209E+02 -0.10637412725E+03  0.12924401501E+03  0.41800000000E+01 0. -1.
         -5    1    3    3    0  502  0.14867253251E+02 -0.51043802249E+02 -0.89360309565E+02  0.10406364539E+03  0.41800000000E+01 0. -1.
        -11    1    1    2    0    0 -0.46720722721E+02 -0.84859656330E+01 -0.62507937759E+02  0.78498916089E+02  0.00000000000E+00 0. -1.
         11    1    1    2    0    0  0.42822255921E+02 -0.12932455327E+02 -0.90128797398E+02  0.10061905448E+03  0.00000000000E+00 0.  1.
</event>
<event>
 7    1  0.2380582E-009  0.2307064E+03  0.7561462E-02  0.1126144E+00
         -2   -1    0    0    0  501 -0.00000000000E+00  0.00000000000E+00  0.13774205492E+03  0.13774205492E+03  0.00000000000E+00 0.  1.
          2   -1    0    0  501    0  0.00000000000E+00 -0.00000000000E+00 -0.42748418943E+03  0.42748418943E+03  0.00000000000E+00 0. -1.
         25    2    1    2    0    0 -0.86160077606E+01 -0.21027176457E+03 -0.20899763889E+03  0.32189423602E+03  0.12508971005E+03 0.  0.
          5    1    3    3  502    0  0.45197852561E+02 -0.11324630913E+03 -0.15824354996E+03  0.19981507929E+03  0.41800000000E+01 0.  1.
         -5    1    3    3    0  502 -0.53813860322E+02 -0.97025455441E+02 -0.50754088931E+02  0.12207915674E+03  0.41800000000E+01 0.  1.
        -11    1    1    2    0    0  0.48649830637E+02  0.10396077533E+03 -0.52820508804E+02  0.12635131570E+03  0.00000000000E+00 0. -1.
         11    1    1    2    0    0 -0.40033822877E+02  0.10631098923E+03 -0.27923986813E+02  0.11698069262E+03  0.00000000000E+00 0.  1.
</event>
<event>
 7    1  0.2380582E-009  0.1163348E+03  0.7561462E-02  0.1249269E+00
          4   -1    0    0  501    0  0.00000000000E+00  0.00000000000E+00  0.50239006221E+03  0.50239006221E+03  0.00000000000E+00 0. -1.
         -4   -1    0    0    0  501 -0.00000000000E+00 -0.00000000000E+00 -0.33738721074E+02  0.33738721074E+02  0.00000000000E+00 0.  1.
         25    2    1    2    0    0 -0.64964352127E+02 -0.13669280538E+02  0.21400365854E+03  0.25661762220E+03  0.12509125419E+03 0.  0.
          5    1    3    3  502    0 -0.69825479936E+02  0.34977601998E+02  0.18184768719E+03  0.19795222663E+03  0.41800000000E+01 0.  1.
         -5    1    3    3    0  502  0.48611278098E+01 -0.48646882536E+02  0.32155971350E+02  0.58665395571E+02  0.41800000000E+01 0.  1.
        -11    1    1    2    0    0  0.78393521370E+02  0.30276111245E+02  0.14321572377E+03  0.16605098808E+03  0.00000000000E+00 0.  1.
         11    1    1    2    0    0 -0.13429169243E+02 -0.16606830707E+02  0.11143195882E+03  0.11346017301E+03  0.00000000000E+00 0. -1.
</event>
<event>
 7    1  0.2380582E-009  0.1532736E+03  0.7561462E-02  0.1196507E+00
          2   -1    0    0  501    0  0.00000000000E+00  0.00000000000E+00  0.94714192201E+03  0.94714192201E+03  0.00000000000E+00 0. -1.
         -2   -1    0    0    0  501 -0.00000000000E+00 -0.00000000000E+00 -0.32065254406E+02  0.32065254406E+02  0.00000000000E+00 0.  1.
         25    2    1    2    0    0 -0.89360269050E+02 -0.89515788567E+02  0.61899249854E+03  0.64404757560E+03  0.12508889757E+03 0.  0.
          5    1    3    3  502    0 -0.55183585579E+02 -0.10312364830E+03  0.57385975904E+03  0.58567244293E+03  0.41800000000E+01 0. -1.
         -5    1    3    3    0  502 -0.34176683471E+02  0.13607859731E+02  0.45132739498E+02  0.58375132669E+02  0.41800000000E+01 0. -1.
        -11    1    1    2    0    0  0.27873960996E+01  0.61403194650E+02  0.81597572386E+02  0.10215814069E+03  0.00000000000E+00 0.  1.
         11    1    1    2    0    0  0.86572872950E+02  0.28112593918E+02  0.21448659668E+03  0.23300146013E+03  0.00000000000E+00 0. -1.
</event>
<event>
 7    1  0.2380582E-009  0.4887379E+03  0.7561462E-02  0.1016761E+00
         -2   -1    0    0    0  501 -0.00000000000E+00  0.00000000000E+00  0.23716163199E+03  0.23716163199E+03  0.00000000000E+00 0.  1.
          2   -1    0    0  501    0  0.00000000000E+00 -0.00000000000E+00 -0.10366362543E+04  0.10366362543E+04  0.00000000000E+00 0. -1.
         25    2    1    2    0    0  0.30966080128E+02  0.48169964980E+03 -0.43244517596E+03  0.66003754213E+03  0.12508907254E+03 0.  0.
          5    1    3    3  502    0  0.45677592843E+02  0.47432989680E+03 -0.43175973331E+03  0.64304683593E+03  0.41800000000E+01 0. -1.
         -5    1    3    3    0  502 -0.14711512715E+02  0.73697529990E+01 -0.68544265360E+00  0.16990706202E+02  0.41800000000E+01 0. -1.
        -11    1    1    2    0    0 -0.37467859475E+02 -0.33048979451E+03 -0.19889347280E+03  0.38753833138E+03  0.00000000000E+00 0.  1.
         11    1    1    2    0    0  0.65017793469E+01 -0.15120985529E+03 -0.16813597357E+03  0.22622201282E+03  0.00000000000E+00 0. -1.
</event>
<event>
 7    1  0.2380582E-009  0.8011408E+02  0.7561462E-02  0.1328728E+00
         -3   -1    0    0    0  501 -0.00000000000E+00  0.00000000000E+00  0.14211460487E+03  0.14211460487E+03  0.00000000000E+00 0.  1.
          3   -1    0    0  501    0  0.00000000000E+00 -0.00000000000E+00 -0.10462128850E+03  0.10462128850E+03  0.00000000000E+00 0. -1.
         25    2    1    2    0    0 -0.90004534960E+01  0.36715492942E+02 -0.24674586952E+02  0.13298574228E+03  0.12508931538E+03 0.  0.
          5    1    3    3  502    0 -0.36073203483E+02  0.28260290542E+02  0.40807289570E+02  0.61503067509E+02  0.41800000000E+01 0.  1.
         -5    1    3    3    0  502  0.27072749987E+02  0.84552023997E+01 -0.65481876522E+02  0.71482674770E+02  0.41800000000E+01 0.  1.
        -11    1    1    2    0    0 -0.23431926766E+02 -0.46158249986E+02  0.60926939034E+02  0.79948302882E+02  0.00000000000E+00 0.  1.
         11    1    1    2    0    0  0.32432380262E+02  0.94427570437E+01  0.12409642825E+01  0.33801848210E+02  0.00000000000E+00 0. -1.
</event>
<event>
 7    1  0.2380582E-009  0.1596352E+03  0.7561462E-02  0.1189109E+00
          1   -1    0    0  501    0  0.00000000000E+00  0.00000000000E+00  0.83840043177E+02  0.83840043177E+02  0.00000000000E+00 0. -1.
         -1   -1    0    0    0  501 -0.00000000000E+00 -0.00000000000E+00 -0.35993437377E+03  0.35993437377E+03  0.00000000000E+00 0.  1.
         25    2    1    2    0    0  0.12660312055E+03 -0.47709237930E+02 -0.15417073572E+03  0.24025138465E+03  0.12509032958E+03 0.  0.
          5    1    3    3  502    0  0.35734983509E+02 -0.79694387364E+02 -0.65455230878E+02  0.10922474112E+03  0.41800000000E+01 0.  1.
         -5    1    3    3    0  502  0.90868137045E+02  0.31985149434E+02 -0.88715504840E+02  0.13102664352E+03  0.41800000000E+01 0.  1.
        -11    1    1    2    0    0 -0.69956698990E+02  0.29297261636E+02 -0.12235850038E+03  0.14395788234E+03  0.00000000000E+00 0.  1.
         11    1    1    2    0    0 -0.56646421564E+02  0.18411976294E+02  0.43490550274E+00  0.59565149961E+02  0.00000000000E+00 0. -1.
</event>
<event>
 7    1  0.2380582E-009  0.1163178E+03  0.7561462E-02  0.1249298E+00
         -2   -1    0    0    0  501 -0.00000000000E+00  0.00000000000E+00  0.34239080169E+02  0.34239080169E+02  0.00000000000E+00 0.  1.
          2   -1    0    0  501    0  0.00000000000E+00 -0.00000000000E+00 -0.40959194829E+03  0.40959194829E+03  0.00000000000E+00 0. -1.
         25    2    1    2    0    0  0.38288595140E+02 -0.26675294408E+02 -0.19663479106E+03  0.23767621912E+03  0.12508859352E+03 0.  0.
          5    1    3    3  502    0  0.82330171905E+02 -0.32165376449E+02 -0.13966347568E+03  0.16533670943E+03  0.41800000000E+01 0.  1.
         -5    1    3    3    0  502 -0.44041576765E+02  0.54900820409E+01 -0.56971315388E+02  0.72339509687E+02  0.41800000000E+01 0.  1.
        -11    1    1    2    0    0  0.83075363084E+01 -0.27139863214E+02 -0.30118284265E+02  0.41384760261E+02  0.00000000000E+00 0.  1.
         11    1    1    2    0    0 -0.46596131448E+02  0.53815157622E+02 -0.14859979279E+03  0.16477004908E+03  0.00000000000E+00 0. -1.
</event>
<event>
 7    1  0.2380582E-009  0.1487953E+03  0.7561462E-02  0.1201961E+00
         -2   -1    0    0    0  501 -0.00000000000E+00  0.00000000000E+00  0.24062776457E+03  0.24062776457E+03  0.00000000000E+00 0.  1.
          2   -1    0    0  501    0  0.00000000000E+00 -0.00000000000E+00 -0.16955049529E+03  0.16955049529E+03  0.00000000000E+00 0. -1.
         25    2    1    2    0    0 -0.94274836920E+02  0.56465074373E+02 -0.93639960981E+02  0.19103273562E+03  0.12509602026E+03 0.  0.
          5    1    3    3  502    0 -0.11327107517E+03  0.74821318738E+01 -0.68384780236E+02  0.13259060802E+03  0.41800000000E+01 0.  1.
         -5    1    3    3    0  502  0.18996238249E+02  0.48982942499E+02 -0.25255180746E+02  0.58442127596E+02  0.41800000000E+01 0.  1.
        -11    1    1    2    0    0  0.50100866013E+02 -0.69095503170E+02  0.14684776920E+03  0.16984861687E+03  0.00000000000E+00 0.  1.
         11    1    1    2    0    0  0.44173970907E+02  0.12630428796E+02  0.17869461060E+02  0.49296907366E+02  0.00000000000E+00 0. -1.
</event>
<event>
 7    1  0.2380582E-009  0.1767626E+03  0.7561462E-02  0.1170973E+00
         -1   -1    0    0    0  501 -0.00000000000E+00  0.00000000000E+00  0.15122025754E+03  0.15122025754E+03  0.00000000000E+00 0.  1.
          1   -1    0    0  501    0  0.00000000000E+00 -0.00000000000E+00 -0.22143744095E+03  0.22143744095E+03  0.00000000000E+00 0. -1.
         25    2    1    2    0    0 -0.14128075427E+03  0.37103190087E+02 -0.29691143218E+02  0.19459959518E+03  0.12510211916E+03 0.  0.
          5    1    3    3  502    0  0.53522683310E+01 -0.27140236944E+02  0.98262928282E+01  0.29652447933E+02  0.41800000000E+01 0.  1.
         -5    1    3    3    0  502 -0.14663302260E+03  0.64243427031E+02 -0.39517436046E+02  0.16494714725E+03  0.41800000000E+01 0.  1.
        -11    1    1    2    0    0  0.10962690880E+02 -0.33270771391E+02 -0.31932939653E+02  0.47400817031E+02  0.00000000000E+00 0. -1.
         11    1    1    2    0    0  0.13031806339E+03 -0.38324186956E+01 -0.85931005467E+01  0.13065728627E+03  0.00000000000E+00 0.  1.
</event>
<event>
 7    1  0.2380582E-009  0.9381686E+02  0.7561462E-02  0.1293863E+00
         -1   -1    0    0    0  501 -0.00000000000E+00  0.00000000000E+00  0.55370367285E+02  0.55370367285E+02  0.00000000000E+00 0.  1.
          1   -1    0    0  501    0  0.00000000000E+00 -0.00000000000E+00 -0.23317762821E+03  0.23317762821E+03  0.00000000000E+00 0. -1.
         25    2    1    2    0    0  0.33356501214E+02 -0.75432851511E+01 -0.10997898407E+03  0.17003809473E+03  0.12509204371E+03 0.  0.
          5    1    3    3  502    0  0.22876919438E+01  0.42160783168E+02  0.31615652333E+01  0.42546833801E+02  0.41800000000E+01 0.  1.
         -5    1    3    3    0  502  0.31068809270E+02 -0.49704068319E+02 -0.11314054931E+03  0.12749126093E+03  0.41800000000E+01 0.  1.
        -11    1    1    2    0    0  0.22700156695E+02 -0.13676442875E+02  0.18890594437E+01  0.26568980960E+02  0.00000000000E+00 0.  1.
         11    1    1    2    0    0 -0.56056657909E+02  0.21219728026E+02 -0.69717336292E+02  0.91940919797E+02  0.00000000000E+00 0. -1.
</event>
<event>
 7    1  0.2380582E-009  0.8444942E+02  0.7561462E-02  0.1316879E+00
          2   -1    0    0  501    0  0.00000000000E+00  0.00000000000E+00  0.78954514653E+02  0.78954514653E+02  0.00000000000E+00 0.  1.
         -2   -1    0    0    0  501 -0.00000000000E+00 -0.00000000000E+00 -0.22899497735E+03  0.22899497735E+03  0.00000000000E+00 0. -1.
         25    2    1    2    0    0 -0.18979945075E+02 -0.79001131472E+02 -0.70756943175E+02  0.16509208053E+03  0.12508969964E+03 0.  0.
          5    1    3    3  502    0 -0.16453733659E+02 -0.66682515787E+02 -0.10659927751E+03  0.12687853100E+03  0.41800000000E+01 0.  1.
         -5    1    3    3    0  502 -0.25262114158E+01 -0.12318615685E+02  0.35842334337E+02  0.38213549524E+02  0.41800000000E+01 0.  1.
        -11    1    1    2    0    0  0.19101779436E+02  0.19362365048E+02  0.15175936200E+02  0.31146238897E+02  0.00000000000E+00 0.  1.
         11    1    1    2    0    0 -0.12183436097E+00  0.59638766424E+02 -0.94459455717E+02  0.11171117258E+03  0.00000000000E+00 0. -1.
</event>
<event>
 7    1  0.2380582E-009  0.1304963E+03  0.7561462E-02  0.1226721E+00
         -1   -1    0    0    0  501 -0.00000000000E+00  0.00000000000E+00  0.47263408706E+02  0.47263408706E+02  0.00000000000E+00 0.  1.
          1   -1    0    0  501    0  0.00000000000E+00 -0.00000000000E+00 -0.46518228845E+03  0.46518228845E+03  0.00000000000E+00 0. -1.
         25    2    1    2    0    0 -0.92449423796E+02  0.13457278990E+02 -0.29200917973E+03  0.33112659897E+03  0.12508984444E+03 0.  0.
          5    1    3    3  502    0 -0.85772000750E+02 -0.26535384141E+02 -0.27049355348E+03  0.28503543218E+03  0.41800000000E+01 0. -1.
         -5    1    3    3    0  502 -0.66774230457E+01  0.39992663131E+02 -0.21515626244E+02  0.46091166784E+02  0.41800000000E+01 0. -1.
        -11    1    1    2    0    0  0.16830860906E+02  0.36175545340E+02 -0.34967870265E+02  0.53053745489E+02  0.00000000000E+00 0. -1.
         11    1    1    2    0    0  0.75618562890E+02 -0.49632824330E+02 -0.90941829748E+02  0.12826535270E+03  0.00000000000E+00 0.  1.
</event>
<event>
 7    1  0.2380582E-009  0.9546653E+02  0.7561462E-02  0.1290129E+00
          1   -1    0    0  501    0  0.00000000000E+00  0.00000000000E+00  0.38620488220E+03  0.38620488220E+03  0.00000000000E+00 0. -1.
         -1   -1    0    0    0  501 -0.00000000000E+00 -0.00000000000E+00 -0.34693040381E+02  0.34693040381E+02  0.00000000000E+00 0.  1.
         25    2    1    2    0    0 -0.12197601374E+02  0.51378602457E+01  0.26603500343E+03  0.29427054698E+03  0.12508138424E+03 0.  0.
          5    1    3    3  502    0  0.40999572272E+02 -0.12265333228E+02  0.21215093121E+03  0.21646453137E+03  0.41800000000E+01 0. -1.
         -5    1    3    3    0  502 -0.53197173645E+02  0.17403193474E+02  0.53884072215E+02  0.77806015612E+02  0.41800000000E+01 0. -1.
        -11    1    1    2    0    0  0.22806350840E+02 -0.45058206547E+02  0.58546376232E+02  0.77317849077E+02  0.00000000000E+00 0. -1.
         11    1    1    2    0    0 -0.10608749466E+02  0.39920346302E+02  0.26930462160E+02  0.49309526526E+02  0.00000000000E+00 0.  1.
</event>
<event>
 7    1  0.2380582E-009  0.1488039E+03  0.7561462E-02  0.1201950E+00
         -1   -1    0    0    0  501 -0.00000000000E+00  0.00000000000E+00  0.19686985323E+03  0.19686985323E+03  0.00000000000E+00 0.  1.
          1   -1    0    0  501    0  0.00000000000E+00 -0.00000000000E+00 -0.21704640250E+03  0.21704640250E+03  0.00000000000E+00 0. -1.
         25    2    1    2    0    0 -0.99941437451E+02 -0.76973487853E+02 -0.13336173156E+03  0.22213688380E+03  0.12508491095E+03 0.  0.
          5    1    3    3  502    0 -0.48272944928E+02  0.59475258082E+01 -0.11180591889E+03  0.12199871383E+03  0.41800000000E+01 0. -1.
         -5    1    3    3    0  502 -0.51668492523E+02 -0.82921013662E+02 -0.21555812663E+02  0.10013816997E+03  0.41800000000E+01 0. -1.
        -11    1    1    2    0    0  0.48037080372E+02 -0.10607111510E+02  0.57738024395E+02  0.75853486184E+02  0.00000000000E+00 0. -1.
         11    1    1    2    0    0  0.51904357079E+02  0.87580599363E+02  0.55447157896E+02  0.11592588575E+03  0.00000000000E+00 0.  1.
</event>
<event>
 7    1  0.2380582E-009  0.2522691E+03  0.7561462E-02  0.1111879E+00
          2   -1    0    0  501    0  0.00000000000E+00  0.00000000000E+00  0.35382369945E+03  0.35382369945E+03  0.00000000000E+00 0. -1.
         -2   -1    0    0    0  501 -0.00000000000E+00 -0.00000000000E+00 -0.20321844594E+03  0.20321844594E+03  0.00000000000E+00 0.  1.
         25    2    1    2    0    0 -0.22033644999E+03  0.10662071127E+03  0.85047311858E+02  0.28774444085E+03  0.12509072995E+03 0.  0.
          5    1    3    3  502    0 -0.16754702987E+03  0.87749791968E+02  0.41431955259E+01  0.18922650892E+03  0.41800000000E+01 0.  1.
         -5    1    3    3    0  502 -0.52789420120E+02  0.18870919298E+02  0.80904116332E+02  0.98517931927E+02  0.41800000000E+01 0.  1.
        -11    1    1    2    0    0  0.21179882599E+03 -0.11987866224E+03  0.69388651487E+02  0.25306999290E+03  0.00000000000E+00 0.  1.
         11    1    1    2    0    0  0.85376239996E+01  0.13257950975E+02 -0.38307098355E+01  0.16227711652E+02  0.00000000000E+00 0. -1.
</event>
<event>
 7    1  0.2380582E-009  0.1252602E+03  0.7561462E-02  0.1234663E+00
          1   -1    0    0  501    0  0.00000000000E+00  0.00000000000E+00  0.12412130558E+03  0.12412130558E+03  0.00000000000E+00 0. -1.
         -1   -1    0    0    0  501 -0.00000000000E+00 -0.00000000000E+00 -0.23908791012E+03  0.23908791012E+03  0.00000000000E+00 0.  1.
         25    2    1    2    0    0 -0.78450850783E+02  0.89766342050E+02  0.29158018646E+01  0.17282549561E+03  0.12509043880E+03 0.  0.
          5    1    3    3  502    0 -0.85131535388E+02  0.85262521163E+02  0.45819039017E+02  0.12897260395E+03  0.41800000000E+01 0.  1.
         -5    1    3    3    0  502  0.66806846049E+01  0.45038208870E+01 -0.42903237152E+02  0.43852891666E+02  0.41800000000E+01 0.  1.
        -11    1    1    2    0    0  0.49497873421E+02 -0.41468115662E+02 -0.11749612986E+03  0.13407081943E+03  0.00000000000E+00 0.  1.
         11    1    1    2    0    0  0.28952977362E+02 -0.48298226388E+02 -0.38627654076E+00  0.56312900653E+02  0.00000000000E+00 0. -1.
</event>
<event>
 7    1  0.2380582E-009  0.1866734E+03  0.7561462E-02  0.1161496E+00
          1   -1    0    0  501    0  0.00000000000E+00  0.00000000000E+00  0.73279585142E+03  0.73279585142E+03  0.00000000000E+00 0. -1.
         -1   -1    0    0    0  501 -0.00000000000E+00 -0.00000000000E+00 -0.61033002779E+02  0.61033002779E+02  0.00000000000E+00 0.  1.
         25    2    1    2    0    0  0.14890290347E+03 -0.52335196732E+02  0.18305081271E+03  0.27215166403E+03  0.12509148941E+03 0.  0.
          5    1    3    3  502    0  0.15109016888E+02  0.34853314018E+02  0.57160505184E+02  0.68759229506E+02  0.41800000000E+01 0.  1.
         -5    1    3    3    0  502  0.13379388659E+03 -0.87188510750E+02  0.12589030752E+03  0.20339243453E+03  0.41800000000E+01 0.  1.
        -11    1    1    2    0    0 -0.13560587233E+03  0.15827826560E+02  0.30906616947E+03  0.33787774389E+03  0.00000000000E+00 0.  1.
         11    1    1    2    0    0 -0.13297031144E+02  0.36507370172E+02  0.17964586646E+03  0.18379944628E+03  0.00000000000E+00 0. -1.
</event>
<event>
 7    1  0.2380582E-009  0.1035404E+03  0.7561462E-02  0.1273022E+00
          2   -1    0    0  501    0  0.00000000000E+00  0.00000000000E+00  0.57486507267E+03  0.57486507267E+03  0.00000000000E+00 0. -1.
         -2   -1    0    0    0  501 -0.00000000000E+00 -0.00000000000E+00 -0.47033779941E+02  0.47033779941E+02  0.00000000000E+00 0.  1.
         25    2    1    2    0    0 -0.54702767819E+02  0.26806806224E+02  0.48336080285E+03  0.50298706194E+03  0.12508925247E+03 0.  0.
          5    1    3    3  502    0  0.21038297494E+02  0.45597015604E+02  0.29145952916E+03  0.29578341287E+03  0.41800000000E+01 0. -1.
         -5    1    3    3    0  502 -0.75741065313E+02 -0.18790209380E+02  0.19190127369E+03  0.20720364906E+03  0.41800000000E+01 0. -1.
        -11    1    1    2    0    0  0.57323433306E+02 -0.60744591981E+01 -0.11840852156E+02  0.58847946781E+02  0.00000000000E+00 0.  1.
         11    1    1    2    0    0 -0.26206654867E+01 -0.20732347026E+02  0.56311342037E+02  0.60063843890E+02  0.00000000000E+00 0. -1.
</event>
<event>
 7    1  0.2380582E-009  0.1754703E+03  0.7561462E-02  0.1172260E+00
         -1   -1    0    0    0  501 -0.00000000000E+00  0.00000000000E+00  0.22246067676E+02  0.22246067676E+02  0.00000000000E+00 0.  1.
          1   -1    0    0  501    0  0.00000000000E+00 -0.00000000000E+00 -0.15685902500E+04  0.15685902500E+04  0.00000000000E+00 0. -1.
         25    2    1    2    0    0  0.10346803334E+03 -0.10265502608E+03 -0.99086489181E+03  0.10093084765E+04  0.12508668415E+03 0.  0.
          5    1    3    3  502    0  0.44961322995E+02 -0.11374346885E+03 -0.80058660040E+03  0.80988608730E+03  0.41800000000E+01 0.  1.
         -5    1    3    3    0  502  0.58506710344E+02  0.11088442772E+02 -0.19027829141E+03  0.19942238917E+03  0.41800000000E+01 0.  1.
        -11    1    1    2    0    0 -0.97099035668E+02  0.11766853256E+03 -0.45924806004E+03  0.48392446408E+03  0.00000000000E+00 0.  1.
         11    1    1    2    0    0 -0.63689976710E+01 -0.15013506475E+02 -0.96231230427E+02  0.97603377080E+02  0.00000000000E+00 0. -1.
</event>
<event>
 7    1  0.2380582E-009  0.7879196E+02  0.7561462E-02  0.1332515E+00
          3   -1    0    0  501    0  0.00000000000E+00  0.00000000000E+00  0.26960703231E+02  0.26960703231E+02  0.00000000000E+00 0. -1.
         -3   -1    0    0    0  501 -0.00000000000E+00 -0.00000000000E+00 -0.58276219830E+03  0.58276219830E+03  0.00000000000E+00 0.  1.
         25    2    1    2    0    0  0.33511953668E+02  0.48289632862E+02 -0.35241264398E+03  0.37854603996E+03  0.12508993986E+03 0.  0.
          5    1    3    3  502    0  0.11026312910E+02 -0.98836967085E+01 -0.28933172361E+03  0.28974054898E+03  0.41800000000E+01 0. -1.
         -5    1    3    3    0  502  0.22485640758E+02  0.58173329571E+02 -0.63080920371E+02  0.88805490981E+02  0.41800000000E+01 0. -1.
        -11    1    1    2    0    0  0.12861373114E+02 -0.17089908113E+00  0.38526880898E+01  0.13427111767E+02  0.00000000000E+00 0. -1.
         11    1    1    2    0    0 -0.46373326782E+02 -0.48118733781E+02 -0.20724153918E+03  0.21774974980E+03  0.00000000000E+00 0.  1.
</event>
<event>
 7    1  0.2380582E-009  0.2493979E+03  0.7561462E-02  0.1113686E+00
          2   -1    0    0  501    0  0.00000000000E+00  0.00000000000E+00  0.60151755607E+03  0.60151755607E+03  0.00000000000E+00 0.  1.
         -2   -1    0    0    0  501 -0.00000000000E+00 -0.00000000000E+00 -0.11615627780E+03  0.11615627780E+03  0.00000000000E+00 0. -1.
         25    2    1    2    0    0  0.98143179516E+02  0.21224088976E+03  0.17168476807E+03  0.31591301142E+03  0.12508833768E+03 0.  0.
          5    1    3    3  502    0  0.26102131639E+01  0.10135225018E+03  0.12753293351E+03  0.16297611285E+03  0.41800000000E+01 0.  1.
         -5    1    3    3    0  502  0.95532966352E+02  0.11088863959E+03  0.44151834552E+02  0.15293689857E+03  0.41800000000E+01 0.  1.
        -11    1    1    2    0    0 -0.71401362851E+02 -0.21247981021E+03  0.27601208382E+03  0.35556784835E+03  0.00000000000E+00 0.  1.
         11    1    1    2    0    0 -0.26741816665E+02  0.23892044695E+00  0.37664426383E+02  0.46192974101E+02  0.00000000000E+00 0. -1.
</event>
<event>
 7    1  0.2380582E-009  0.9846346E+02  0.7561462E-02  0.1283561E+00
         -3   -1    0    0    0  501 -0.00000000000E+00  0.00000000000E+00  0.12796259890E+03  0.12796259890E+03  0.00000000000E+00 0.  1.
          3   -1    0    0  501    0  0.00000000000E+00 -0.00000000000E+00 -0.13356369207E+03  0.13356369207E+03  0.00000000000E+00 0. -1.
         25    2    1    2    0    0 -0.11845496992E+02  0.70688330136E+02  0.85366948177E+01  0.14441629558E+03  0.12508411352E+03 0.  0.
          5    1    3    3  502    0  0.13066607699E+02  0.73569676276E+02  0.54028086066E+02  0.92302437606E+02  0.41800000000E+01 0. -1.
         -5    1    3    3    0  502 -0.24912104691E+02 -0.28813461403E+01 -0.45491391248E+02  0.52113857979E+02  0.41800000000E+01 0. -1.
        -11    1    1    2    0    0 -0.26950446149E+02 -0.25430162879E+02  0.25982039708E+02  0.45255785476E+02  0.00000000000E+00 0.  1.
         11    1    1    2    0    0  0.38795943141E+02 -0.45258167257E+02 -0.40119827691E+02  0.71854209909E+02  0.00000000000E+00 0. -1.
</event>
<event>
 7    1  0.2380582E-009  0.1090049E+03  0.7561462E-02  0.1262424E+00
         -2   -1    0    0    0  501 -0.00000000000E+00  0.00000000000E+00  0.12279460918E+03  0.12279460918E+03  0.00000000000E+00 0.  1.
          2   -1    0    0  501    0  0.00000000000E+00 -0.00000000000E+00 -0.10553950398E+03  0.10553950398E+03  0.00000000000E+00 0. -1.
         25    2    1    2    0    0  0.27595904283E+02  0.23882649738E+02 -0.35485992491E-01  0.13030763509E+03  0.12509262013E+03 0.  0.
          5    1    3    3  502    0 -0.48905106387E+02  0.20577643702E+02  0.49961718146E+01  0.53456365233E+02  0.41800000000E+01 0. -1.
         -5    1    3    3    0  502  0.76501010671E+02  0.33050060356E+01 -0.50316578071E+01  0.76851269858E+02  0.41800000000E+01 0. -1.
        -11    1    1    2    0    0  0.28391582240E+02 -0.39192021559E+01 -0.12816974539E+02  0.31396129124E+02  0.00000000000E+00 0. -1.
         11    1    1    2    0    0 -0.55987486523E+02 -0.19963447582E+02  0.30107565725E+02  0.66630348944E+02  0.00000000000E+00 0.  1.
</event>
<event>
 7    1  0.2380582E-009  0.1352002E+03  0.7561462E-02  0.1219937E+00
          1   -1    0    0  501    0  0.00000000000E+00  0.00000000000E+00  0.37053247103E+03  0.37053247103E+03  0.00000000000E+00 0. -1.
         -1   -1    0    0    0  501 -0.00000000000E+00 -0.00000000000E+00 -0.59611452374E+02  0.59611452374E+02  0.00000000000E+00 0.  1.
         25    2    1    2    0    0 -0.76956625059E+02  0.62504761585E+02  0.14319654834E+03  0.21443413539E+03  0.12509028581E+03 0.  0.
          5    1    3    3  502    0 -0.31724206421E+02 -0.32083903834E+02  0.80001561196E+02  0.91943049504E+02  0.41800000000E+01 0. -1.
         -5    1    3    3    0  502 -0.45232418638E+02  0.94588665419E+02  0.63194987143E+02  0.12249108589E+03  0.41800000000E+01 0. -1.
        -11    1    1    2    0    0  0.74973045904E+02 -0.19985384900E+02  0.54695055728E+02  0.94931145273E+02  0.00000000000E+00 0.  1.
         11    1    1    2    0    0  0.19835791549E+01 -0.42519376685E+02  0.11302941459E+03  0.12077864274E+03  0.00000000000E+00 0. -1.
</event>
<event>
 7    1  0.2380582E-009  0.1656968E+03  0.7561462E-02  0.1182411E+00
         -2   -1    0    0    0  501 -0.00000000000E+00  0.00000000000E+00  0.16004020794E+03  0.16004020794E+03  0.00000000000E+00 0.  1.
          2   -1    0    0  501    0  0.00000000000E+00 -0.00000000000E+00 -0.19179937529E+03  0.19179937529E+03  0.00000000000E+00 0. -1.
         25    2    1    2    0    0 -0.19999497033E+01 -0.13296013783E+03  0.14698324061E+02  0.18315566556E+03  0.12509020364E+03 0.  0.
          5    1    3    3  502    0 -0.60081736042E+02 -0.51162332874E+02 -0.10270995094E+02  0.79689177754E+02  0.41800000000E+01 0. -1.
         -5    1    3    3    0  502  0.58081786338E+02 -0.81797804957E+02  0.24969319155E+02  0.10346648781E+03  0.41800000000E+01 0. -1.
        -11    1    1    2    0    0 -0.35286144289E+02  0.77209806084E+02  0.36408522184E+01  0.84968946911E+02  0.00000000000E+00 0.  1.
         11    1    1    2    0    0  0.37286093992E+02  0.55750331747E+02 -0.50098343631E+02  0.83714970762E+02  0.00000000000E+00 0. -1.
</event>
<event>
 7    1  0.3112801E-009  0.8410816E+02  0.7561462E-02  0.1317781E+00
         -2   -1    0    0    0  501 -0.00000000000E+00  0.00000000000E+00  0.66501502314E+02  0.66501502314E+02  0.00000000000E+00 0.  1.
          2   -1    0    0  501    0  0.00000000000E+00 -0.00000000000E+00 -0.22900762778E+03  0.22900762778E+03  0.00000000000E+00 0. -1.
         25    2    1    2    0    0  0.46143502911E+02  0.28788817273E+02 -0.66205324463E+02  0.15161438999E+03  0.12508301005E+03 0.  0.
          5    1    3    3  502    0 -0.73253591695E+01 -0.30950544682E+02  0.16736393107E+02  0.36182542162E+02  0.41800000000E+01 0. -1.
         -5    1    3    3    0  502  0.53468862080E+02  0.59739361955E+02 -0.82941717570E+02  0.11543184783E+03  0.41800000000E+01 0. -1.
        -11    1    1    2    0    0 -0.23675211173E+02 -0.22163708265E+02  0.10862245103E+02  0.34201373610E+02  0.00000000000E+00 0.  1.
         11    1    1    2    0    0 -0.22468291738E+02 -0.66251090086E+01 -0.10716304611E+03  0.10969336650E+03  0.00000000000E+00 0. -1.
</event>
<event>
 7    1  0.2380582E-009  0.1080910E+03  0.7561462E-02  0.1264146E+00
         -1   -1    0    0    0  501 -0.00000000000E+00  0.00000000000E+00  0.69195886277E+02  0.69195886277E+02  0.00000000000E+00 0.  1.
          1   -1    0    0  501    0  0.00000000000E+00 -0.00000000000E+00 -0.24962835004E+03  0.24962835004E+03  0.00000000000E+00 0. -1.
         25    2    1    2    0    0  0.65190414295E+02  0.16510501109E+02 -0.13435345132E+03  0.19550190748E+03  0.12509100360E+03 0.  0.
          5    1    3    3  502    0 -0.29462179880E+02 -0.18438576705E+02 -0.62248267969E+02  0.71416527634E+02  0.41800000000E+01 0. -1.
         -5    1    3    3    0  502  0.94652594175E+02  0.34949077814E+02 -0.72105183354E+02  0.12408537984E+03  0.41800000000E+01 0. -1.
        -11    1    1    2    0    0 -0.59668074062E+02  0.31671259789E+01  0.12704049211E+02  0.61087663367E+02  0.00000000000E+00 0.  1.
         11    1    1    2    0    0 -0.55223402329E+01 -0.19677627087E+02 -0.58783061655E+02  0.62234665477E+02  0.00000000000E+00 0. -1.
</event>
<event>
 7    1  0.2380582E-009  0.1409104E+03  0.7561462E-02  0.1212109E+00
         -2   -1    0    0    0  501 -0.00000000000E+00  0.00000000000E+00  0.89576618594E+02  0.89576618594E+02  0.00000000000E+00 0.  1.
          2   -1    0    0  501    0  0.00000000000E+00 -0.00000000000E+00 -0.33546992932E+03  0.33546992932E+03  0.00000000000E+00 0. -1.
         25    2    1    2    0    0 -0.43432671213E+02 -0.11515765455E+03 -0.62640597856E+02  0.18633207371E+03  0.12509242527E+03 0.  0.
          5    1    3    3  502    0 -0.50628123465E+02 -0.88780657835E+02 -0.97853424025E+02  0.14155556183E+03  0.41800000000E+01 0. -1.
         -5    1    3    3    0  502  0.71954522527E+01 -0.26376996720E+02  0.35212826169E+02  0.44776511877E+02  0.41800000000E+01 0. -1.
        -11    1    1    2    0    0  0.23693811411E+02  0.12677567182E+03 -0.14437313910E+03  0.19358995572E+03  0.00000000000E+00 0.  1.
         11    1    1    2    0    0  0.19738859801E+02 -0.11618017268E+02 -0.38879573770E+02  0.45124518480E+02  0.00000000000E+00 0. -1.
</event>
<event>
 7    1  0.2380582E-009  0.3077847E+03  0.7561462E-02  0.1081413E+00
          1   -1    0    0  501    0  0.00000000000E+00  0.00000000000E+00  0.48226404748E+03  0.48226404748E+03  0.00000000000E+00 0. -1.
         -1   -1    0    0    0  501 -0.00000000000E+00 -0.00000000000E+00 -0.30214987113E+03  0.30214987113E+03  0.00000000000E+00 0.  1.
         25    2    1    2    0    0  0.21565731265E+03 -0.21381628199E+03  0.30060564007E+03  0.44523332036E+03  0.12507389724E+03 0.  0.
          5    1    3    3  502    0  0.16947657691E+03 -0.18241515176E+03  0.16557044185E+03  0.29904621938E+03  0.41800000000E+01 0.  1.
         -5    1    3    3    0  502  0.46180735737E+02 -0.31401130232E+02  0.13503519822E+03  0.14618710097E+03  0.41800000000E+01 0.  1.
        -11    1    1    2    0    0 -0.14857706530E+03  0.18565607219E+03 -0.61751242048E+02  0.24567567517E+03  0.00000000000E+00 0. -1.
         11    1    1    2    0    0 -0.67080247345E+02  0.28160209801E+02 -0.58740221669E+02  0.93504923088E+02  0.00000000000E+00 0.  1.
</event>
<event>
 7    1  0.2380582E-009  0.1097498E+03  0.7561462E-02  0.1261034E+00
          2   -1    0    0  501    0  0.00000000000E+00  0.00000000000E+00  0.67023137028E+02  0.67023137028E+02  0.00000000000E+00 0. -1.
         -2   -1    0    0    0  501 -0.00000000000E+00 -0.00000000000E+00 -0.31718866838E+03  0.31718866838E+03  0.00000000000E+00 0.  1.
         25    2    1    2    0    0 -0.25114613635E+02 -0.85135986761E+02 -0.84228205235E+02  0.17498839011E+03  0.12509063137E+03 0.  0.
          5    1    3    3  502    0 -0.24692293240E+02 -0.16492993288E+02  0.29512212023E+02  0.42073402899E+02  0.41800000000E+01 0.  1.
         -5    1    3    3    0  502 -0.42232039511E+00 -0.68642993473E+02 -0.11374041726E+03  0.13291498721E+03  0.41800000000E+01 0.  1.
        -11    1    1    2    0    0 -0.12963356531E+02  0.81461721264E+02 -0.14162863370E+03  0.16389853730E+03  0.00000000000E+00 0.  1.
         11    1    1    2    0    0  0.38077970167E+02  0.36742654964E+01 -0.24308692420E+02  0.45324878004E+02  0.00000000000E+00 0. -1.
</event>
<event>
 7    1  0.2380582E-009  0.1217857E+03  0.7561462E-02  0.1240180E+00
         -2   -1    0    0    0  501 -0.00000000000E+00  0.00000000000E+00  0.49001972410E+02  0.49001972410E+02  0.00000000000E+00 0.  1.
          2   -1    0    0  501    0  0.00000000000E+00 -0.00000000000E+00 -0.40477530669E+03  0.40477530669E+03  0.00000000000E+00 0. -1.
         25    2    1    2    0    0  0.81853523750E+02 -0.26727008502E+02 -0.22453025452E+03  0.27106427888E+03  0.12509067015E+03 0.  0.
          5    1    3    3  502    0  0.71674997681E+02  0.28292154577E+02 -0.61592207476E+02  0.98736131811E+02  0.41800000000E+01 0.  1.
         -5    1    3    3    0  502  0.10178526069E+02 -0.55019163079E+02 -0.16293804705E+03  0.17232814707E+03  0.41800000000E+01 0.  1.
        -11    1    1    2    0    0 -0.43831309474E-01  0.28464456774E+02 -0.49355466031E+00  0.28468769148E+02  0.00000000000E+00 0.  1.
         11    1    1    2    0    0 -0.81809692440E+02 -0.17374482722E+01 -0.13074952509E+03  0.15424423106E+03  0.00000000000E+00 0. -1.
</event>
<event>
 7    1  0.2380582E-009  0.2614243E+03  0.7561462E-02  0.1106291E+00
          2   -1    0    0  501    0  0.00000000000E+00  0.00000000000E+00  0.55669391224E+03  0.55669391224E+03  0.00000000000E+00 0. -1.
         -2   -1    0    0    0  501 -0.00000000000E+00 -0.00000000000E+00 -0.15950066170E+03  0.15950066170E+03  0.00000000000E+00 0.  1.
         25    2    1    2    0    0  0.10913123138E+03  0.21928445745E+03  0.46051634672E+02  0.27886145148E+03  0.12509059566E+03 0.  0.
          5    1    3    3  502    0  0.10958758701E+03  0.10342561882E+03  0.59680234349E+02  0.16212803776E+03  0.41800000000E+01 0. -1.
         -5    1    3    3    0  502 -0.45635563325E+00  0.11585883863E+03 -0.13628599677E+02  0.11673341372E+03  0.41800000000E+01 0. -1.
        -11    1    1    2    0    0 -0.72261020046E+02 -0.63871843718E+02  0.94352705233E+02  0.13492108961E+03  0.00000000000E+00 0.  1.
         11    1    1    2    0    0 -0.36870211331E+02 -0.15541261373E+03  0.25678891063E+03  0.30241203285E+03  0.00000000000E+00 0. -1.
</event>
<event>
 7    1  0.2380582E-009  0.1165215E+03  0.7561462E-02  0.1248948E+00
         -2   -1    0    0    0  501 -0.00000000000E+00  0.00000000000E+00  0.26869282918E+02  0.26869282918E+02  0.00000000000E+00 0.  1.
          2   -1    0    0  501    0  0.00000000000E+00 -0.00000000000E+00 -0.66389207759E+03  0.66389207759E+03  0.00000000000E+00 0. -1.
         25    2    1    2    0    0  0.62459518190E+02  0.33969790129E+02 -0.28154006352E+03  0.31617780468E+03  0.12509379981E+03 0.  0.
          5    1    3    3  502    0 -0.34430516097E+02  0.42560042142E+01 -0.12383412831E+03  0.12866987893E+03  0.41800000000E+01 0. -1.
         -5    1    3    3    0  502  0.96890034287E+02  0.29713785915E+02 -0.15770593521E+03  0.18750792575E+03  0.41800000000E+01 0. -1.
        -11    1    1    2    0    0 -0.52124429595E+02  0.86298525944E+01 -0.29608476060E+03  0.30076172625E+03  0.00000000000E+00 0. -1.
         11    1    1    2    0    0 -0.10335088595E+02 -0.42599642724E+02 -0.59397970551E+02  0.73821829576E+02  0.00000000000E+00 0.  1.
</event>
<event>
 7    1  0.2380582E-009  0.1266993E+03  0.7561462E-02  0.1232437E+00
          3   -1    0    0  501    0  0.00000000000E+00  0.00000000000E+00  0.69392548955E+02  0.69392548955E+02  0.00000000000E+00 0. -1.
         -3   -1    0    0    0  501 -0.00000000000E+00 -0.00000000000E+00 -0.31821026259E+03  0.31821026259E+03  0.00000000000E+00 0.  1.
         25    2    1    2    0    0 -0.72670885150E+02  0.39005169811E+02 -0.58964042031E+02  0.16102641491E+03  0.12510110801E+03 0.  0.
          5    1    3    3  502    0 -0.58652510018E+02  0.75731804107E+02 -0.75576741979E+01  0.96176992696E+02  0.41800000000E+01 0.  1.
         -5    1    3    3    0  502 -0.14018375132E+02 -0.36726634296E+02 -0.51406367833E+02  0.64849422216E+02  0.41800000000E+01 0.  1.
        -11    1    1    2    0    0  0.15671959669E+02 -0.56284646606E+02 -0.12802338058E+03  0.14072511410E+03  0.00000000000E+00 0.  1.
         11    1    1    2    0    0  0.56998925481E+02  0.17279476794E+02 -0.61830291019E+02  0.85851282528E+02  0.00000000000E+00 0. -1.
</event>
<event>
 7    1  0.2380582E-009  0.8524170E+02  0.7561462E-02  0.1314802E+00
          2   -1    0    0  501    0  0.00000000000E+00  0.00000000000E+00  0.17297453034E+03  0.17297453034E+03  0.00000000000E+00 0. -1.
         -2   -1    0    0    0  501 -0.00000000000E+00 -0.00000000000E+00 -0.67599471601E+02  0.67599471601E+02  0.00000000000E+00 0.  1.
         25    2    1    2    0    0  0.37818143510E+01 -0.26651462077E+01  0.76271206661E+02  0.14657950539E+03  0.12508736672E+03 0.  0.
          5    1    3    3  502    0  0.53713553493E+02  0.27532980649E+02  0.61432180161E+02  0.86224103426E+02  0.41800000000E+01 0. -1.
         -5    1    3    3    0  502 -0.49931739142E+02 -0.30198126857E+02  0.14839026500E+02  0.60355401969E+02  0.41800000000E+01 0. -1.
        -11    1    1    2    0    0 -0.65139290531E+00 -0.24311057335E+02 -0.24113838574E+02  0.34248051510E+02  0.00000000000E+00 0.  1.
         11    1    1    2    0    0 -0.31304214457E+01  0.26976203543E+02  0.53217690653E+02  0.59746445036E+02  0.00000000000E+00 0. -1.
</event>
<event>
 7    1  0.2380582E-009  0.1251472E+03  0.7561462E-02  0.1234839E+00
         -2   -1    0    0    0  501 -0.00000000000E+00  0.00000000000E+00  0.62247177950E+02  0.62247177950E+02  0.00000000000E+00 0.  1.
          2   -1    0    0  501    0  0.00000000000E+00 -0.00000000000E+00 -0.33322502436E+03  0.33322502436E+03  0.00000000000E+00 0. -1.
         25    2    1    2    0    0 -0.33017847027E+02  0.87136230672E+02 -0.12128562505E+03  0.19759120449E+03  0.12509668394E+03 0.  0.
          5    1    3    3  502    0  0.28390971797E+02  0.76654324650E+01 -0.86119665175E+02  0.91098162793E+02  0.41800000000E+01 0.  1.
         -5    1    3    3    0  502 -0.61408818823E+02  0.79470798207E+02 -0.35165959871E+02  0.10649304170E+03  0.41800000000E+01 0.  1.
        -11    1    1    2    0    0  0.67904527344E+01 -0.92958458373E+02 -0.14213965950E+03  0.16997372748E+03  0.00000000000E+00 0. -1.
         11    1    1    2    0    0  0.26227394292E+02  0.58222277009E+01 -0.75525618641E+01  0.27907270333E+02  0.00000000000E+00 0.  1.
</event>
<event>
 7    1  0.2380582E-009  0.4091351E+03  0.7561462E-02  0.1040662E+00
          1   -1    0    0  501    0  0.00000000000E+00  0.00000000000E+00  0.10307047831E+03  0.10307047831E+03  0.00000000000E+00 0.  1.
         -1   -1    0    0    0  501 -0.00000000000E+00 -0.00000000000E+00 -0.17824113105E+04  0.17824113105E+04  0.00000000000E+00 0. -1.
         25    2    1    2    0    0  0.18632179141E+03  0.36059693095E+03 -0.10488331018E+04  0.11315670174E+04  0.12508829992E+03 0.  0.
          5    1    3    3  502    0  0.71235324349E+02  0.15886381110E+03 -0.29305740833E+03  0.34089925035E+03  0.41800000000E+01 0.  1.
         -5    1    3    3    0  502  0.11508646706E+03  0.20173311985E+03 -0.75577569348E+03  0.79066776702E+03  0.41800000000E+01 0.  1.
        -11    1    1    2    0    0  0.22687913613E+01 -0.38596228734E+02 -0.42145457634E+02  0.57193145445E+02  0.00000000000E+00 0.  1.
         11    1    1    2    0    0 -0.18859058278E+03 -0.32200070221E+03 -0.58836227272E+03  0.69672162598E+03  0.00000000000E+00 0. -1.
</event>
<event>
 7    1  0.2380582E-009  0.1025928E+03  0.7561462E-02  0.1274936E+00
          2   -1    0    0  501    0  0.00000000000E+00  0.00000000000E+00  0.13433915971E+03  0.13433915971E+03  0.00000000000E+00 0. -1.
         -2   -1    0    0    0  501 -0.00000000000E+00 -0.00000000000E+00 -0.12077800838E+03  0.12077800838E+03  0.00000000000E+00 0.  1.
         25    2    1    2    0    0  0.14542539476E+02  0.27169394560E+02 -0.53328681666E+02  0.13943127071E+03  0.12508984574E+03 0.  0.
          5    1    3    3  502    0 -0.46343354962E+02  0.14660202378E+02  0.10861360357E+02  0.49980692589E+02  0.41800000000E+01 0. -1.
         -5    1    3    3    0  502  0.60885894438E+02  0.12509192181E+02 -0.64190042023E+02  0.89450578117E+02  0.41800000000E+01 0. -1.
        -11    1    1    2    0    0 -0.47964627064E+02  0.43494687200E+01  0.29731113307E+02  0.56599138033E+02  0.00000000000E+00 0.  1.
         11    1    1    2    0    0  0.33422087588E+02 -0.31518863280E+02  0.37158719689E+02  0.59086759347E+02  0.00000000000E+00 0. -1.
</event>
<event>
 7    1  0.2380582E-009  0.2088607E+03  0.7561462E-02  0.1142471E+00
         -2   -1    0    0    0  501 -0.00000000000E+00  0.00000000000E+00  0.85223091602E+02  0.85223091602E+02  0.00000000000E+00 0. -1.
          2   -1    0    0  501    0  0.00000000000E+00 -0.00000000000E+00 -0.61204082961E+03  0.61204082961E+03  0.00000000000E+00 0.  1.
         25    2    1    2    0    0  0.39890857234E+02  0.18712506610E+03 -0.35356910276E+03  0.42102951353E+03  0.12509064704E+03 0.  0.
          5    1    3    3  502    0  0.16952342806E+02  0.18334720437E+03 -0.35210354316E+03  0.39736375877E+03  0.41800000000E+01 0. -1.
         -5    1    3    3    0  502  0.22938514428E+02  0.37778617300E+01 -0.14655596073E+01  0.23665754760E+02  0.41800000000E+01 0. -1.
        -11    1    1    2    0    0  0.14721120492E+02 -0.13023395458E+03 -0.77774364622E+02  0.15240225099E+03  0.00000000000E+00 0.  1.
         11    1    1    2    0    0 -0.54611977726E+02 -0.56891111518E+02 -0.95474270625E+02  0.12383215670E+03  0.00000000000E+00 0. -1.
</event>
<event>
 7    1  0.2380582E-009  0.1285197E+03  0.7561462E-02  0.1229669E+00
         -2   -1    0    0    0  501 -0.00000000000E+00  0.00000000000E+00  0.79793930702E+02  0.79793930702E+02  0.00000000000E+00 0. -1.
          2   -1    0    0  501    0  0.00000000000E+00 -0.00000000000E+00 -0.25666898269E+03  0.25666898269E+03  0.00000000000E+00 0.  1.
         25    2    1    2    0    0 -0.80311582011E+02  0.45029029867E+02 -0.82939440160E+02  0.17607879096E+03  0.12508887303E+03 0.  0.
          5    1    3    3  502    0 -0.81431870247E+01 -0.37907761673E+02 -0.45358668771E+02  0.59817983272E+02  0.41800000000E+01 0. -1.
         -5    1    3    3    0  502 -0.72168394986E+02  0.82936791540E+02 -0.37580771389E+02  0.11626080769E+03  0.41800000000E+01 0. -1.
        -11    1    1    2    0    0  0.24494835792E+02 -0.46091464153E+02 -0.12823377105E+01  0.52211727018E+02  0.00000000000E+00 0. -1.
         11    1    1    2    0    0  0.55816746219E+02  0.10624342858E+01 -0.92653274121E+02  0.10817239542E+03  0.00000000000E+00 0.  1.
</event>
<event>
 7    1  0.2380582E-009  0.1673202E+03  0.7561462E-02  0.1180672E+00
          1   -1    0    0  501    0  0.00000000000E+00  0.00000000000E+00  0.20191422327E+04  0.20191422327E+04  0.00000000000E+00 0. -1.
         -1   -1    0    0    0  501 -0.00000000000E+00 -0.00000000000E+00 -0.19659117220E+02  0.19659117220E+02  0.00000000000E+00 0.  1.
         25    2    1    2    0    0 -0.63585490285E+02 -0.14787751480E+03  0.12534979145E+04  0.12699668894E+04  0.12509198456E+03 0.  0.
          5    1    3    3  502    0 -0.98012454401E+01 -0.73254048720E+02  0.21484134795E+03  0.22723665474E+03  0.41800000000E+01 0.  1.
         -5    1    3    3    0  502 -0.53784244845E+02 -0.74623466080E+02  0.10386565665E+04  0.10427302346E+04  0.41800000000E+01 0.  1.
        -11    1    1    2    0    0  0.28260398554E+02  0.12070090777E+03  0.66442944572E+03  0.67589484952E+03  0.00000000000E+00 0.  1.
         11    1    1    2    0    0  0.35325091731E+02  0.27176607032E+02  0.81555755308E+02  0.92939611036E+02  0.00000000000E+00 0. -1.
</event>
<event>
 7    1  0.2380582E-009  0.1073953E+03  0.7561462E-02  0.1265471E+00
          2   -1    0    0  501    0  0.00000000000E+00  0.00000000000E+00  0.96698065079E+02  0.96698065079E+02  0.00000000000E+00 0.  1.
         -2   -1    0    0    0  501 -0.00000000000E+00 -0.00000000000E+00 -0.12578434951E+03  0.12578434951E+03  0.00000000000E+00 0. -1.
         25    2    1    2    0    0 -0.26619313038E+02  0.99140813166E+01 -0.26257418192E+02  0.13093338782E+03  0.12508886122E+03 0.  0.
          5    1    3    3  502    0 -0.74143391354E+02  0.22975084925E+02 -0.24253333725E+02  0.81429685039E+02  0.41800000000E+01 0. -1.
         -5    1    3    3    0  502  0.47524078315E+02 -0.13061003608E+02 -0.20040844670E+01  0.49503702786E+02  0.41800000000E+01 0. -1.
        -11    1    1    2    0    0 -0.21050424248E+02 -0.29346064507E+02  0.11865749884E+02  0.38014574617E+02  0.00000000000E+00 0.  1.
         11    1    1    2    0    0  0.47669737286E+02  0.19431983190E+02 -0.14694616122E+02  0.53534452146E+02  0.00000000000E+00 0. -1.
</event>
<event>
 7    1  0.2380582E-009  0.1260836E+03  0.7561462E-02  0.1233385E+00
          2   -1    0    0  501    0  0.00000000000E+00  0.00000000000E+00  0.76777593645E+03  0.76777593645E+03  0.00000000000E+00 0.  1.
         -2   -1    0    0    0  501 -0.00000000000E+00 -0.00000000000E+00 -0.31212444265E+02  0.31212444265E+02  0.00000000000E+00 0. -1.
         25    2    1    2    0    0 -0.20952255073E+02  0.10435380425E+03  0.47541796277E+03  0.50298849089E+03  0.12508584727E+03 0.  0.
          5    1    3    3  502    0  0.14611793657E+02  0.88752744978E+02  0.44349299473E+03  0.45254178042E+03  0.41800000000E+01 0.  1.
         -5    1    3    3    0  502 -0.35564048730E+02  0.15601059273E+02  0.31924968046E+02  0.50446710470E+02  0.41800000000E+01 0.  1.
        -11    1    1    2    0    0  0.42990469221E+02 -0.64327605106E+02  0.22440470082E+03  0.23736826025E+03  0.00000000000E+00 0.  1.
         11    1    1    2    0    0 -0.22038214148E+02 -0.40026199145E+02  0.36740828586E+02  0.58631629570E+02  0.00000000000E+00 0. -1.
</event>
<event>
 7    1  0.2380582E-009  0.1190951E+03  0.7561462E-02  0.1244597E+00
         -2   -1    0    0    0  501 -0.00000000000E+00  0.00000000000E+00  0.50175131776E+02  0.50175131776E+02  0.00000000000E+00 0. -1.
          2   -1    0    0  501    0  0.00000000000E+00 -0.00000000000E+00 -0.36583829260E+03  0.36583829260E+03  0.00000000000E+00 0.  1.
         25    2    1    2    0    0  0.48915736386E+02  0.27992374555E+02 -0.84542571110E+02  0.16115544220E+03  0.12508919986E+03 0.  0.
          5    1    3    3  502    0  0.90857254660E+02  0.18257482131E+02 -0.47590480772E+02  0.10426266176E+03  0.41800000000E+01 0. -1.
         -5    1    3    3    0  502 -0.41941518273E+02  0.97348924244E+01 -0.36952090337E+02  0.56892780437E+02  0.41800000000E+01 0. -1.
        -11    1    1    2    0    0 -0.36591025079E+02 -0.58646099006E+02 -0.11545585622E+03  0.13456716829E+03  0.00000000000E+00 0. -1.
         11    1    1    2    0    0 -0.12324711308E+02  0.30653724451E+02 -0.11566473349E+03  0.12029081388E+03  0.00000000000E+00 0.  1.
</event>
<event>
 7    1  0.2380582E-009  0.9379525E+02  0.7561462E-02  0.1293913E+00
          1   -1    0    0  501    0  0.00000000000E+00  0.00000000000E+00  0.30587335947E+03  0.30587335947E+03  0.00000000000E+00 0. -1.
         -1   -1    0    0    0  501 -0.00000000000E+00 -0.00000000000E+00 -0.46287400030E+02  0.46287400030E+02  0.00000000000E+00 0.  1.
         25    2    1    2    0    0 -0.37497170903E+02  0.12620706711E+01  0.18820372966E+03  0.22907612934E+03  0.12509036144E+03 0.  0.
          5    1    3    3  502    0  0.83320270364E+01  0.32477930991E+02  0.10172395598E+01  0.33804524140E+02  0.41800000000E+01 0. -1.
         -5    1    3    3    0  502 -0.45829197939E+02 -0.31215860320E+02  0.18718649010E+03  0.19527160520E+03  0.41800000000E+01 0. -1.
        -11    1    1    2    0    0  0.65103610240E+02 -0.15799580639E+02  0.36524256595E+02  0.76302871077E+02  0.00000000000E+00 0.  1.
         11    1    1    2    0    0 -0.27606439338E+02  0.14537509968E+02  0.34857973186E+02  0.46781759091E+02  0.00000000000E+00 0. -1.
</event>
<event>
 7    1  0.2380582E-009  0.1047620E+03  0.7561462E-02  0.1270589E+00
          1   -1    0    0  501    0  0.00000000000E+00  0.00000000000E+00  0.14240153906E+02  0.14240153906E+02  0.00000000000E+00 0. -1.
         -1   -1    0    0    0  501 -0.00000000000E+00 -0.00000000000E+00 -0.97683445177E+03  0.97683445177E+03  0.00000000000E+00 0.  1.
         25    2    1    2    0    0 -0.34596646542E+02  0.21272512972E+02 -0.45547090681E+03  0.47407619393E+03  0.12508014605E+03 0.  0.
          5    1    3    3  502    0 -0.66401689728E+02  0.33707841680E+02 -0.15909721926E+03  0.17571226640E+03  0.41800000000E+01 0. -1.
         -5    1    3    3    0  502  0.31805043187E+02 -0.12435328708E+02 -0.29637368756E+03  0.29836392752E+03  0.41800000000E+01 0. -1.
        -11    1    1    2    0    0  0.22776946969E+02 -0.57808846500E+02 -0.30727625589E+03  0.31349537394E+03  0.00000000000E+00 0. -1.
         11    1    1    2    0    0  0.11819699573E+02  0.36536333528E+02 -0.19984713516E+03  0.20350303781E+03  0.00000000000E+00 0.  1.
</event>
<event>
 7    1  0.2380582E-009  0.1369522E+03  0.7561462E-02  0.1217490E+00
          1   -1    0    0  501    0  0.00000000000E+00  0.00000000000E+00  0.16839001599E+03  0.16839001599E+03  0.00000000000E+00 0. -1.
         -1   -1    0    0    0  501 -0.00000000000E+00 -0.00000000000E+00 -0.17460309099E+03  0.17460309099E+03  0.00000000000E+00 0.  1.
         25    2    1    2    0    0  0.10828884292E+03  0.10373245405E+02  0.73753358987E+02  0.18144154688E+03  0.12508956492E+03 0.  0.
          5    1    3    3  502    0 -0.10759730718E+02 -0.35381811877E+02  0.25019713000E+02  0.44845321444E+02  0.41800000000E+01 0.  1.
         -5    1    3    3    0  502  0.11904857364E+03  0.45755057281E+02  0.48733645987E+02  0.13659622544E+03  0.41800000000E+01 0.  1.
        -11    1    1    2    0    0 -0.95364553640E+02 -0.64897021481E+01 -0.99393612861E+02  0.13789707975E+03  0.00000000000E+00 0.  1.
         11    1    1    2    0    0 -0.12924289279E+02 -0.38835432565E+01  0.19427178871E+02  0.23654480347E+02  0.00000000000E+00 0. -1.
</event>
<event>
 7    1  0.2380582E-009  0.8616346E+02  0.7561462E-02  0.1312418E+00
         -1   -1    0    0    0  501 -0.00000000000E+00  0.00000000000E+00  0.63431895640E+02  0.63431895640E+02  0.00000000000E+00 0.  1.
          1   -1    0    0  501    0  0.00000000000E+00 -0.00000000000E+00 -0.19701577477E+03  0.19701577477E+03  0.00000000000E+00 0. -1.
         25    2    1    2    0    0  0.13659116626E+02  0.67999265800E+01 -0.49760584230E+02  0.13548714801E+03  0.12509133090E+03 0.  0.
          5    1    3    3  502    0 -0.13834566602E+02  0.61943695304E+02 -0.32123994233E+02  0.71258964534E+02  0.41800000000E+01 0. -1.
         -5    1    3    3    0  502  0.27493683227E+02 -0.55143768724E+02 -0.17636589997E+02  0.64228183481E+02  0.41800000000E+01 0. -1.
        -11    1    1    2    0    0 -0.14253370821E+02  0.17546775639E+02  0.12344272329E+02  0.25757115026E+02  0.00000000000E+00 0.  1.
         11    1    1    2    0    0  0.59425419581E+00 -0.24346702219E+02 -0.96167567230E+02  0.99203407371E+02  0.00000000000E+00 0. -1.
</event>
<event>
 7    1  0.2380582E-009  0.7857740E+02  0.7561462E-02  0.1333138E+00
          1   -1    0    0  501    0  0.00000000000E+00  0.00000000000E+00  0.11059367994E+03  0.11059367994E+03  0.00000000000E+00 0. -1.
         -1   -1    0    0    0  501 -0.00000000000E+00 -0.00000000000E+00 -0.15494515879E+03  0.15494515879E+03  0.00000000000E+00 0.  1.
         25    2    1    2    0    0 -0.46885913519E+00 -0.14494213272E+02 -0.97217319877E+02  0.15908844332E+03  0.12509046113E+03 0.  0.
          5    1    3    3  502    0 -0.55271730358E+02 -0.30598033340E+02 -0.73736559882E+02  0.97189281735E+02  0.41800000000E+01 0.  1.
         -5    1    3    3    0  502  0.54802871223E+02  0.16103820068E+02 -0.23480759995E+02  0.61899161586E+02  0.41800000000E+01 0.  1.
        -11    1    1    2    0    0 -0.14358436690E+02 -0.18766994817E+01  0.74284844835E+02  0.75683055417E+02  0.00000000000E+00 0. -1.
         11    1    1    2    0    0  0.14827295825E+02  0.16370912754E+02 -0.21419003815E+02  0.30767339994E+02  0.00000000000E+00 0.  1.
</event>
<event>
 7    1  0.2380582E-009  0.1464464E+03  0.7561462E-02  0.1204909E+00
          1   -1    0    0  501    0  0.00000000000E+00  0.00000000000E+00  0.45485418852E+02  0.45485418852E+02  0.00000000000E+00 0. -1.
         -1   -1    0    0    0  501 -0.00000000000E+00 -0.00000000000E+00 -0.63756052702E+03  0.63756052702E+03  0.00000000000E+00 0.  1.
         25    2    1    2    0    0  0.14153985982E+02  0.12383320033E+03 -0.39912793513E+03  0.43644569528E+03  0.12508692779E+03 0.  0.
          5    1    3    3  502    0  0.54680675759E+02  0.27730391692E+02 -0.22672491536E+03  0.23490553541E+03  0.41800000000E+01 0. -1.
         -5    1    3    3    0  502 -0.40526689777E+02  0.96102808635E+02 -0.17240301978E+03  0.20154015987E+03  0.41800000000E+01 0. -1.
        -11    1    1    2    0    0 -0.39096958516E+01 -0.10877716529E+03 -0.19948723835E+03  0.22725077707E+03  0.00000000000E+00 0.  1.
         11    1    1    2    0    0 -0.10244290130E+02 -0.15056035032E+02  0.65400653201E+01  0.19349473521E+02  0.00000000000E+00 0. -1.
</event>
<event>
 7    1  0.2380582E-009  0.7890541E+02  0.7561462E-02  0.1332187E+00
          1   -1    0    0  501    0  0.00000000000E+00  0.00000000000E+00  0.11752489230E+03  0.11752489230E+03  0.00000000000E+00 0. -1.
         -1   -1    0    0    0  501 -0.00000000000E+00 -0.00000000000E+00 -0.12641617956E+03  0.12641617956E+03  0.00000000000E+00 0.  1.
         25    2    1    2    0    0  0.38299818204E+02 -0.85034492015E+01 -0.47479435652E+02  0.13943735750E+03  0.12509714279E+03 0.  0.
          5    1    3    3  502    0 -0.17771936854E+02  0.98338581592E+01  0.33356191016E+02  0.39276639176E+02  0.41800000000E+01 0.  1.
         -5    1    3    3    0  502  0.56071755058E+02 -0.18337307361E+02 -0.80835626668E+02  0.10016071832E+03  0.41800000000E+01 0.  1.
        -11    1    1    2    0    0 -0.54552005104E+02  0.19915081544E+02  0.54051083354E+02  0.79335057481E+02  0.00000000000E+00 0. -1.
         11    1    1    2    0    0  0.16252186901E+02 -0.11411632343E+02 -0.15462934961E+02  0.25168656885E+02  0.00000000000E+00 0.  1.
</event>
<event>
 7    1  0.2380582E-009  0.1249590E+03  0.7561462E-02  0.1235133E+00
         -1   -1    0    0    0  501 -0.00000000000E+00  0.00000000000E+00  0.13674198390E+04  0.13674198390E+04  0.00000000000E+00 0.  1.
          1   -1    0    0  501    0  0.00000000000E+00 -0.00000000000E+00 -0.13070718654E+02  0.13070718654E+02  0.00000000000E+00 0. -1.
         25    2    1    2    0    0 -0.15472317727E+02 -0.88339418381E+02  0.79571193968E+03  0.81046065520E+03  0.12508292140E+03 0.  0.
          5    1    3    3  502    0 -0.48253443984E+02 -0.97586324022E+02  0.70696861446E+03  0.71531362333E+03  0.41800000000E+01 0. -1.
         -5    1    3    3    0  502  0.32781126257E+02  0.92469056408E+01  0.88743325223E+02  0.95147031873E+02  0.41800000000E+01 0. -1.
        -11    1    1    2    0    0 -0.18356243975E+02  0.90770743223E+01  0.48213477197E+02  0.52382099562E+02  0.00000000000E+00 0.  1.
         11    1    1    2    0    0  0.33828561702E+02  0.79262344059E+02  0.51042370345E+03  0.51764780287E+03  0.00000000000E+00 0. -1.
</event>
<event>
 7    1  0.2380582E-009  0.2106337E+03  0.7561462E-02  0.1141065E+00
          3   -1    0    0  501    0  0.00000000000E+00  0.00000000000E+00  0.14071878602E+04  0.14071878602E+04  0.00000000000E+00 0. -1.
         -3   -1    0    0    0  501 -0.00000000000E+00 -0.00000000000E+00 -0.39862901897E+02  0.39862901897E+02  0.00000000000E+00 0.  1.
         25    2    1    2    0    0 -0.31541645804E+02 -0.19997581967E+03  0.53787343474E+03  0.58816574952E+03  0.12508362499E+03 0.  0.
          5    1    3    3  502    0 -0.31065250060E+02 -0.29481847324E+02  0.30092203655E+02  0.52509448709E+02  0.41800000000E+01 0.  1.
         -5    1    3    3    0  502 -0.47639574387E+00 -0.17049397234E+03  0.50778123108E+03  0.53565630081E+03  0.41800000000E+01 0.  1.
        -11    1    1    2    0    0  0.43797775148E+02  0.15878276012E+03  0.75642419498E+03  0.77414970954E+03  0.00000000000E+00 0.  1.
         11    1    1    2    0    0 -0.12256129344E+02  0.41193059549E+02  0.73027328582E+02  0.84735303041E+02  0.00000000000E+00 0. -1.
</event>
<event>
 7    1  0.2380582E-009  0.1024486E+03  0.7561462E-02  0.1275230E+00
         -2   -1    0    0    0  501 -0.00000000000E+00  0.00000000000E+00  0.12482558534E+02  0.12482558534E+02  0.00000000000E+00 0.  1.
          2   -1    0    0  501    0  0.00000000000E+00 -0.00000000000E+00 -0.10963377374E+04  0.10963377374E+04  0.00000000000E+00 0. -1.
         25    2    1    2    0    0 -0.36760962367E+02  0.41635413082E+00 -0.56071110109E+03  0.57567027734E+03  0.12509111726E+03 0.  0.
          5    1    3    3  502    0 -0.65354215634E+02  0.18444610699E+02 -0.51039924757E+03  0.51491381947E+03  0.41800000000E+01 0. -1.
         -5    1    3    3    0  502  0.28593253268E+02 -0.18028256568E+02 -0.50311853521E+02  0.60756457863E+02  0.41800000000E+01 0. -1.
        -11    1    1    2    0    0 -0.18338864017E+02 -0.33745052189E+02 -0.19794623286E+03  0.20163767898E+03  0.00000000000E+00 0. -1.
         11    1    1    2    0    0  0.55099826384E+02  0.33328698058E+02 -0.32519784489E+03  0.33151233959E+03  0.00000000000E+00 0.  1.
</event>
<event>
 7    1  0.2380582E-009  0.1805860E+03  0.7561462E-02  0.1167237E+00
         -2   -1    0    0    0  501 -0.00000000000E+00  0.00000000000E+00  0.90203094746E+02  0.90203094746E+02  0.00000000000E+00 0. -1.
          2   -1    0    0  501    0  0.00000000000E+00 -0.00000000000E+00 -0.55766142902E+03  0.55766142902E+03  0.00000000000E+00 0.  1.
         25    2    1    2    0    0  0.12993730318E+03 -0.10463307368E+03 -0.10009750386E+03  0.23129692390E+03  0.12508786456E+03 0.  0.
          5    1    3    3  502    0  0.58529900669E+02 -0.72301967878E+02  0.12589865369E+02  0.93964359954E+02  0.41800000000E+01 0.  1.
         -5    1    3    3    0  502  0.71407402513E+02 -0.32331105802E+02 -0.11268736923E+03  0.13733256395E+03  0.41800000000E+01 0.  1.
        -11    1    1    2    0    0 -0.29140360651E+02  0.80922927361E+02 -0.11355410429E+03  0.14245074725E+03  0.00000000000E+00 0. -1.
         11    1    1    2    0    0 -0.10079694253E+03  0.23710146319E+02 -0.25380672612E+03  0.27411685261E+03  0.00000000000E+00 0.  1.
</event>
<event>
 7    1  0.2380582E-009  0.1076638E+03  0.7561462E-02  0.1264958E+00
         -1   -1    0    0    0  501 -0.00000000000E+00  0.00000000000E+00  0.43987086077E+03  0.43987086077E+03  0.00000000000E+00 0.  1.
          1   -1    0    0  501    0  0.00000000000E+00 -0.00000000000E+00 -0.29736253297E+02  0.29736253297E+02  0.00000000000E+00 0. -1.
         25    2    1    2    0    0 -0.23165816689E+02 -0.27014715949E+02  0.22555477234E+03  0.26036058569E+03  0.12508488842E+03 0.  0.
          5    1    3    3  502    0 -0.32699611098E+02 -0.67598497908E+02  0.19351643435E+03  0.20761720605E+03  0.41800000000E+01 0.  1.
         -5    1    3    3    0  502  0.95337944086E+01  0.40583781959E+02  0.32038337992E+02  0.52743379634E+02  0.41800000000E+01 0.  1.
        -11    1    1    2    0    0  0.11157845445E+02  0.61085743063E+02  0.10814814192E+03  0.12470760250E+03  0.00000000000E+00 0. -1.
         11    1    1    2    0    0  0.12007971244E+02 -0.34071027115E+02  0.76431693218E+02  0.84538925888E+02  0.00000000000E+00 0.  1.
</event>
<event>
 7    1  0.2380582E-009  0.1342802E+03  0.7561462E-02  0.1221239E+00
         -1   -1    0    0    0  501 -0.00000000000E+00  0.00000000000E+00  0.10383966642E+03  0.10383966642E+03  0.00000000000E+00 0.  1.
          1   -1    0    0  501    0  0.00000000000E+00 -0.00000000000E+00 -0.18760336943E+03  0.18760336943E+03  0.00000000000E+00 0. -1.
         25    2    1    2    0    0  0.17853112543E+02  0.77482947697E+02 -0.94940225990E+01  0.14851737969E+03  0.12507971376E+03 0.  0.
          5    1    3    3  502    0  0.58198367114E+02  0.88370087292E+02 -0.11199835224E+02  0.10648582522E+03  0.41800000000E+01 0.  1.
         -5    1    3    3    0  502 -0.40345254572E+02 -0.10887139595E+02  0.17058126246E+01  0.42031554477E+02  0.41800000000E+01 0.  1.
        -11    1    1    2    0    0  0.36857181608E+02 -0.22932415266E+02 -0.37496267405E+02  0.57361289868E+02  0.00000000000E+00 0. -1.
         11    1    1    2    0    0 -0.54710294150E+02 -0.54550532431E+02 -0.36773413010E+02  0.85564366292E+02  0.00000000000E+00 0.  1.
</event>
<event>
 7    1  0.2380582E-009  0.1522913E+03  0.7561462E-02  0.1197685E+00
          2   -1    0    0  501    0  0.00000000000E+00  0.00000000000E+00  0.10826901020E+04  0.10826901020E+04  0.00000000000E+00 0. -1.
         -2   -1    0    0    0  501 -0.00000000000E+00 -0.00000000000E+00 -0.24433040780E+02  0.24433040780E+02  0.00000000000E+00 0.  1.
         25    2    1    2    0    0 -0.48790253529E+02 -0.11156445462E+03  0.56154190290E+03  0.58805144909E+03  0.12509229273E+03 0.  0.
          5    1    3    3  502    0 -0.61306501076E+02 -0.12441630809E+03  0.36237905491E+03  0.38803860198E+03  0.41800000000E+01 0. -1.
         -5    1    3    3    0  502  0.12516247547E+02  0.12851853474E+02  0.19916284799E+03  0.20001284711E+03  0.41800000000E+01 0. -1.
        -11    1    1    2    0    0 -0.20727322280E+02  0.51545011480E+02  0.24227504755E+03  0.24856328925E+03  0.00000000000E+00 0.  1.
         11    1    1    2    0    0  0.69517575809E+02  0.60019443138E+02  0.25444011080E+03  0.27050840446E+03  0.00000000000E+00 0. -1.
</event>
<event>
 7    1  0.2380582E-009  0.1327907E+03  0.7561462E-02  0.1223373E+00
         -2   -1    0    0    0  501 -0.00000000000E+00  0.00000000000E+00  0.15106553243E+04  0.15106553243E+04  0.00000000000E+00 0. -1.
          2   -1    0    0  501    0  0.00000000000E+00 -0.00000000000E+00 -0.14076371592E+02  0.14076371592E+02  0.00000000000E+00 0.  1.
         25    2    1    2    0    0 -0.73776366574E+02  0.56290778560E+00  0.11025793631E+04  0.11121038787E+04  0.12510202280E+03 0.  0.
          5    1    3    3  502    0  0.44488433079E+01 -0.50449647258E+02  0.33010698466E+03  0.33399558805E+03  0.41800000000E+01 0. -1.
         -5    1    3    3    0  502 -0.78225209882E+02  0.51012555044E+02  0.77247237840E+03  0.77810829068E+03  0.41800000000E+01 0. -1.
        -11    1    1    2    0    0 -0.20343487406E+02  0.15788940759E+02  0.11068017221E+03  0.11363647588E+03  0.00000000000E+00 0. -1.
         11    1    1    2    0    0  0.94119853980E+02 -0.16351848545E+02  0.28331941744E+03  0.29899134129E+03  0.00000000000E+00 0.  1.
</event>
<event>
 7    1  0.2380582E-009  0.1069226E+03  0.7561462E-02  0.1266377E+00
          1   -1    0    0  501    0  0.00000000000E+00  0.00000000000E+00  0.26443083176E+03  0.26443083176E+03  0.00000000000E+00 0. -1.
         -1   -1    0    0    0  501 -0.00000000000E+00 -0.00000000000E+00 -0.55812983331E+02  0.55812983331E+02  0.00000000000E+00 0.  1.
         25    2    1    2    0    0  0.19024497096E+02 -0.53061153990E+02  0.13752728354E+03  0.19426396185E+03  0.12508923057E+03 0.  0.
          5    1    3    3  502    0  0.49555999333E+02 -0.65726744235E+02  0.13823190737E+03  0.16093891572E+03  0.41800000000E+01 0.  1.
         -5    1    3    3    0  502 -0.30531502237E+02  0.12665590245E+02 -0.70462383276E+00  0.33325046134E+02  0.41800000000E+01 0.  1.
        -11    1    1    2    0    0  0.19345550902E+02  0.56366632632E+02  0.21863729906E+02  0.63478108821E+02  0.00000000000E+00 0.  1.
         11    1    1    2    0    0 -0.38370047998E+02 -0.33054786425E+01  0.49226834983E+02  0.62501744414E+02  0.00000000000E+00 0. -1.
</event>
<event>
 7    1  0.2380582E-009  0.1247353E+03  0.7561462E-02  0.1235483E+00
         -1   -1    0    0    0  501 -0.00000000000E+00  0.00000000000E+00  0.88951156695E+02  0.88951156695E+02  0.00000000000E+00 0.  1.
          1   -1    0    0  501    0  0.00000000000E+00 -0.00000000000E+00 -0.28792277495E+03  0.28792277495E+03  0.00000000000E+00 0. -1.
         25    2    1    2    0    0 -0.82194838615E+02 -0.44288832824E+02 -0.19117066450E+03  0.24680314981E+03  0.12509228427E+03 0.  0.
          5    1    3    3  502    0 -0.25893868281E+02 -0.82051960915E+02 -0.86891543642E+02  0.12235452366E+03  0.41800000000E+01 0. -1.
         -5    1    3    3    0  502 -0.56300970334E+02  0.37763128090E+02 -0.10427912086E+03  0.12444862615E+03  0.41800000000E+01 0. -1.
        -11    1    1    2    0    0  0.32106972062E+02  0.67385520949E+01  0.39690967601E+02  0.51494064206E+02  0.00000000000E+00 0.  1.
         11    1    1    2    0    0  0.50087866553E+02  0.37550280730E+02 -0.47491921354E+02  0.78576717624E+02  0.00000000000E+00 0. -1.
</event>
<event>
 7    1  0.2380582E-009  0.1136690E+03  0.7561462E-02  0.1253922E+00
         -2   -1    0    0    0  501 -0.00000000000E+00  0.00000000000E+00  0.12711460571E+02  0.12711460571E+02  0.00000000000E+00 0.  1.
          2   -1    0    0  501    0  0.00000000000E+00 -0.00000000000E+00 -0.14743342257E+04  0.14743342257E+04  0.00000000000E+00 0. -1.
         25    2    1    2    0    0 -0.68972079940E+02  0.10781054777E+02 -0.10523355635E+04  0.10620403052E+04  0.12508434203E+03 0.  0.
          5    1    3    3  502    0 -0.85947047119E+02 -0.14066022575E+02 -0.41896189714E+03  0.42793842029E+03  0.41800000000E+01 0. -1.
         -5    1    3    3    0  502  0.16974967179E+02  0.24847077353E+02 -0.63337366637E+03  0.63410188489E+03  0.41800000000E+01 0. -1.
        -11    1    1    2    0    0  0.54391839392E+01 -0.39622133524E+02 -0.95161012010E+02  0.10322362323E+03  0.00000000000E+00 0.  1.
         11    1    1    2    0    0  0.63532896001E+02  0.28841078746E+02 -0.31412618958E+03  0.32178175784E+03  0.00000000000E+00 0. -1.
</event>
<event>
 7    1  0.2380582E-009  0.1709840E+03  0.7561462E-02  0.1176826E+00
         -2   -1    0    0    0  501 -0.00000000000E+00  0.00000000000E+00  0.52916849983E+02  0.52916849983E+02  0.00000000000E+00 0. -1.
          2   -1    0    0  501    0  0.00000000000E+00 -0.00000000000E+00 -0.67555910550E+03  0.67555910550E+03  0.00000000000E+00 0.  1.
         25    2    1    2    0    0  0.13530329990E+03  0.19838469268E+02 -0.46889208413E+03  0.50419066378E+03  0.12509153071E+03 0.  0.
          5    1    3    3  502    0  0.28765263235E+02  0.58454620471E+02 -0.11112317152E+03  0.12888062179E+03  0.41800000000E+01 0.  1.
         -5    1    3    3    0  502  0.10653803667E+03 -0.38616151203E+02 -0.35776891261E+03  0.37531004199E+03  0.41800000000E+01 0.  1.
        -11    1    1    2    0    0 -0.70134373259E+02  0.34754599020E+02 -0.74673517456E+02  0.10817969622E+03  0.00000000000E+00 0.  1.
         11    1    1    2    0    0 -0.65168926646E+02 -0.54593068288E+02 -0.79076653936E+02  0.11610559549E+03  0.00000000000E+00 0. -1.
</event>
<event>
 7    1  0.2380582E-009  0.1706108E+03  0.7561462E-02  0.1177212E+00
         -2   -1    0    0    0  501 -0.00000000000E+00  0.00000000000E+00  0.42657129843E+03  0.42657129843E+03  0.00000000000E+00 0.  1.
          2   -1    0    0  501    0  0.00000000000E+00 -0.00000000000E+00 -0.79401949100E+02  0.79401949100E+02  0.00000000000E+00 0. -1.
         25    2    1    2    0    0 -0.10419937315E+03  0.90871267836E+02  0.25743598100E+03  0.31785990105E+03  0.12508611312E+03 0.  0.
          5    1    3    3  502    0 -0.25281708866E+02  0.95042359528E+02  0.18958478660E+03  0.21361666278E+03  0.41800000000E+01 0. -1.
         -5    1    3    3    0  502 -0.78917664285E+02 -0.41710916924E+01  0.67851194398E+02  0.10424323826E+03  0.41800000000E+01 0. -1.
        -11    1    1    2    0    0  0.10460343817E+03 -0.10576067865E+03  0.88682639002E+02  0.17318143921E+03  0.00000000000E+00 0.  1.
         11    1    1    2    0    0 -0.40406502065E+00  0.14889410812E+02  0.10507293306E+01  0.14931907280E+02  0.00000000000E+00 0. -1.
</event>
<event>
 7    1  0.2380582E-009  0.4287911E+03  0.7561462E-02  0.1034243E+00
         -2   -1    0    0    0  501 -0.00000000000E+00  0.00000000000E+00  0.34687716139E+03  0.34687716139E+03  0.00000000000E+00 0.  1.
          2   -1    0    0  501    0  0.00000000000E+00 -0.00000000000E+00 -0.71090349065E+03  0.71090349065E+03  0.00000000000E+00 0. -1.
         25    2    1    2    0    0  0.38012882281E+03 -0.18459216181E+03 -0.43549270991E+03  0.61957499341E+03  0.12508830460E+03 0.  0.
          5    1    3    3  502    0  0.10412168498E+03 -0.84897385936E+02 -0.21055793092E+03  0.24980193373E+03  0.41800000000E+01 0.  1.
         -5    1    3    3    0  502  0.27600713783E+03 -0.99694775876E+02 -0.22493477899E+03  0.36977305969E+03  0.41800000000E+01 0.  1.
        -11    1    1    2    0    0 -0.27657798939E+02 -0.69632951408E+01  0.17423460717E+02  0.33421823779E+02  0.00000000000E+00 0.  1.
         11    1    1    2    0    0 -0.35247102387E+03  0.19155545695E+03  0.54042919931E+02  0.40478383484E+03  0.00000000000E+00 0. -1.
</event>
<event>
 7    1  0.2685048E-009  0.1323543E+03  0.7561462E-02  0.1224004E+00
         -2   -1    0    0    0  501 -0.00000000000E+00  0.00000000000E+00  0.32571868086E+02  0.32571868086E+02  0.00000000000E+00 0.  1.
          2   -1    0    0  501    0  0.00000000000E+00 -0.00000000000E+00 -0.59842712052E+03  0.59842712052E+03  0.00000000000E+00 0. -1.
         25    2    1    2    0    0 -0.58889006146E+02  0.64321993001E+02 -0.29420747578E+03  0.33137772059E+03  0.12509165069E+03 0.  0.
          5    1    3    3  502    0 -0.84665372850E+02  0.81738256243E+01 -0.12551594402E+03  0.15167979888E+03  0.41800000000E+01 0. -1.
         -5    1    3    3    0  502  0.25776366704E+02  0.56148167376E+02 -0.16869153176E+03  0.17969792171E+03  0.41800000000E+01 0. -1.
        -11    1    1    2    0    0  0.34849266985E+02 -0.81125050296E+02 -0.14622063361E+03  0.17081047652E+03  0.00000000000E+00 0.  1.
         11    1    1    2    0    0  0.24039739161E+02  0.16803057295E+02 -0.12542714305E+03  0.12881079150E+03  0.00000000000E+00 0. -1.
</event>
<event>
 7    1  0.2380582E-009  0.1033307E+03  0.7561462E-02  0.1273444E+00
          1   -1    0    0  501    0  0.00000000000E+00  0.00000000000E+00  0.66176392607E+03  0.66176392607E+03  0.00000000000E+00 0. -1.
         -1   -1    0    0    0  501 -0.00000000000E+00 -0.00000000000E+00 -0.25579979474E+02  0.25579979474E+02  0.00000000000E+00 0.  1.
         25    2    1    2    0    0  0.47259112812E+02 -0.53453999231E+02  0.39409807908E+03  0.41958504244E+03  0.12509019997E+03 0.  0.
          5    1    3    3  502    0 -0.17061942327E+02 -0.76269710701E+01  0.28058409771E+03  0.28123689099E+03  0.41800000000E+01 0. -1.
         -5    1    3    3    0  502  0.64321055138E+02 -0.45827028161E+02  0.11351398136E+03  0.13834815145E+03  0.41800000000E+01 0. -1.
        -11    1    1    2    0    0 -0.57711862504E+01 -0.21767319653E+02  0.93066585174E+02  0.95752347603E+02  0.00000000000E+00 0. -1.
         11    1    1    2    0    0 -0.41487926561E+02  0.75221318885E+02  0.14901928234E+03  0.17200651550E+03  0.00000000000E+00 0.  1.
</event>
<event>
 7    1  0.2380582E-009  0.8771323E+02  0.7561462E-02  0.1308486E+00
         -2   -1    0    0    0  501 -0.00000000000E+00  0.00000000000E+00  0.30098138736E+02  0.30098138736E+02  0.00000000000E+00 0.  1.
          2   -1    0    0  501    0  0.00000000000E+00 -0.00000000000E+00 -0.56915833191E+03  0.56915833191E+03  0.00000000000E+00 0. -1.
         25    2    1    2    0    0 -0.91796950588E+01  0.25376776990E+02 -0.43997081442E+03  0.45820453843E+03  0.12509529922E+03 0.  0.
          5    1    3    3  502    0  0.31113570937E+02 -0.21558854688E+02 -0.47571271857E+02  0.60937154660E+02  0.41800000000E+01 0. -1.
         -5    1    3    3    0  502 -0.40293265996E+02  0.46935631677E+02 -0.39239954256E+03  0.39726738377E+03  0.41800000000E+01 0. -1.
        -11    1    1    2    0    0 -0.97779478490E+01  0.22130091787E+02  0.53331788257E+01  0.24774826398E+02  0.00000000000E+00 0.  1.
         11    1    1    2    0    0  0.18957642908E+02 -0.47506868777E+02 -0.10442255758E+03  0.11627710582E+03  0.00000000000E+00 0. -1.
</event>
<event>
 7    1  0.2380582E-009  0.1566410E+03  0.7561462E-02  0.1192542E+00
         -1   -1    0    0    0  501 -0.00000000000E+00  0.00000000000E+00  0.33715013179E+03  0.33715013179E+03  0.00000000000E+00 0.  1.
          1   -1    0    0  501    0  0.00000000000E+00 -0.00000000000E+00 -0.84114825690E+02  0.84114825690E+02  0.00000000000E+00 0. -1.
         25    2    1    2    0    0  0.11485598711E+03 -0.50003935246E+02  0.17227077466E+03  0.24701827990E+03  0.12509404257E+03 0.  0.
          5    1    3    3  502    0  0.12074391352E+03 -0.69275466706E+02  0.17766388874E+03  0.22574346658E+03  0.41800000000E+01 0.  1.
         -5    1    3    3    0  502 -0.58879264075E+01  0.19271531460E+02 -0.53931140881E+01  0.21274813319E+02  0.41800000000E+01 0.  1.
        -11    1    1    2    0    0  0.13435704325E+02  0.15641692128E+02  0.45402414126E+01  0.21113845586E+02  0.00000000000E+00 0. -1.
         11    1    1    2    0    0 -0.12829169144E+03  0.34362243118E+02  0.76224290036E+02  0.15313283200E+03  0.00000000000E+00 0.  1.
</event>
<event>
 7    1  0.2380582E-009  0.8783568E+02  0.7561462E-02  0.1308179E+00
          2   -1    0    0  501    0  0.00000000000E+00  0.00000000000E+00  0.47651307986E+03  0.47651307986E+03  0.00000000000E+00 0.  1.
         -2   -1    0    0    0  501 -0.00000000000E+00 -0.00000000000E+00 -0.39941653749E+02  0.39941653749E+02  0.00000000000E+00 0. -1.
         25    2    1    2    0    0 -0.24928769983E+02  0.10890255851E+02  0.38736362513E+03  0.40796663683E+03  0.12508460116E+03 0.  0.
          5    1    3    3  502    0 -0.30481345767E+02 -0.40821528894E+02  0.71910573795E+02  0.88227618604E+02  0.41800000000E+01 0.  1.
         -5    1    3    3    0  502  0.55525757839E+01  0.51711784746E+02  0.31545305134E+03  0.31973901823E+03  0.41800000000E+01 0.  1.
        -11    1    1    2    0    0  0.43121352001E+01 -0.38041828508E+02  0.61335255804E+02  0.72303449646E+02  0.00000000000E+00 0.  1.
         11    1    1    2    0    0  0.20616634783E+02  0.27151572657E+02 -0.12127454825E+02  0.36184647132E+02  0.00000000000E+00 0. -1.
</event>
<event>
 7    1  0.2380582E-009  0.9637034E+02  0.7561462E-02  0.1288119E+00
         -4   -1    0    0    0  501 -0.00000000000E+00  0.00000000000E+00  0.12820441716E+03  0.12820441716E+03  0.00000000000E+00 0. -1.
          4   -1    0    0  501    0  0.00000000000E+00 -0.00000000000E+00 -0.10267005403E+03  0.10267005403E+03  0.00000000000E+00 0.  1.
         25    2    1    2    0    0  0.18347517143E+02  0.21497749920E+02  0.16551136397E+02  0.12931025612E+03  0.12509363526E+03 0.  0.
          5    1    3    3  502    0 -0.27682879514E+02  0.59863886820E+02 -0.29574209924E+01  0.66153197219E+02  0.41800000000E+01 0. -1.
         -5    1    3    3    0  502  0.46030396658E+02 -0.38366136899E+02  0.19508557390E+02  0.63157058897E+02  0.41800000000E+01 0. -1.
        -11    1    1    2    0    0 -0.96048094331E+01  0.21055636018E+02 -0.33556072539E+02  0.40762754772E+02  0.00000000000E+00 0.  1.
         11    1    1    2    0    0 -0.87427077103E+01 -0.42553385939E+02  0.42539299269E+02  0.60801460305E+02  0.00000000000E+00 0. -1.
</event>
<event>
 7    1  0.2380582E-009  0.1461076E+03  0.7561462E-02  0.1205339E+00
          2   -1    0    0  501    0  0.00000000000E+00  0.00000000000E+00  0.14686134767E+04  0.14686134767E+04  0.00000000000E+00 0. -1.
         -2   -1    0    0    0  501 -0.00000000000E+00 -0.00000000000E+00 -0.15664420006E+02  0.15664420006E+02  0.00000000000E+00 0.  1.
         25    2    1    2    0    0 -0.41247382742E+02 -0.97387315016E+02  0.77535456216E+03  0.79246902550E+03  0.12508726398E+03 0.  0.
          5    1    3    3  502    0  0.41069039007E+02 -0.10802512248E+02  0.25618716597E+03  0.25971656983E+03  0.41800000000E+01 0.  1.
         -5    1    3    3    0  502 -0.82316421749E+02 -0.86584802768E+02  0.51916739619E+03  0.53275245568E+03  0.41800000000E+01 0.  1.
        -11    1    1    2    0    0  0.11721356748E+02 -0.11955212470E+02  0.29740907823E+02  0.34129736409E+02  0.00000000000E+00 0.  1.
         11    1    1    2    0    0  0.29526025993E+02  0.10934252749E+03  0.64785358671E+03  0.65767913479E+03  0.00000000000E+00 0. -1.
</event>
<event>
 7    1  0.2380582E-009  0.8208292E+02  0.7561462E-02  0.1323242E+00
         -2   -1    0    0    0  501 -0.00000000000E+00  0.00000000000E+00  0.61295515807E+02  0.61295515807E+02  0.00000000000E+00 0.  1.
          2   -1    0    0  501    0  0.00000000000E+00 -0.00000000000E+00 -0.30890444105E+03  0.30890444105E+03  0.00000000000E+00 0. -1.
         25    2    1    2    0    0  0.36445292384E+01  0.50463854728E+02 -0.22646208229E+03  0.26361497352E+03  0.12509155175E+03 0.  0.
          5    1    3    3  502    0 -0.38480641406E+02  0.18799568770E+02 -0.14883491517E+02  0.45532123481E+02  0.41800000000E+01 0. -1.
         -5    1    3    3    0  502  0.42125170644E+02  0.31664285959E+02 -0.21157859077E+03  0.21808285004E+03  0.41800000000E+01 0. -1.
        -11    1    1    2    0    0 -0.20757105431E+02 -0.46179349624E+02  0.25517991224E+02  0.56697069004E+02  0.00000000000E+00 0.  1.
         11    1    1    2    0    0  0.17112576192E+02 -0.42845051042E+01 -0.46664834176E+02  0.49887914334E+02  0.00000000000E+00 0. -1.
</event>
<event>
 7    1  0.2380582E-009  0.1025913E+03  0.7561462E-02  0.1274939E+00
         -1   -1    0    0    0  501 -0.00000000000E+00  0.00000000000E+00  0.27093617132E+02  0.27093617132E+02  0.00000000000E+00 0.  1.
          1   -1    0    0  501    0  0.00000000000E+00 -0.00000000000E+00 -0.55681884633E+03  0.55681884633E+03  0.00000000000E+00 0. -1.
         25    2    1    2    0    0  0.15753537369E+02 -0.42093656489E+02 -0.37885564079E+03  0.40149535359E+03  0.12508745957E+03 0.  0.
          5    1    3    3  502    0 -0.36196402456E+02 -0.43370223225E+02 -0.30998471323E+03  0.31511767746E+03  0.41800000000E+01 0. -1.
         -5    1    3    3    0  502  0.51949939825E+02  0.12765667361E+01 -0.68870927559E+02  0.86377676128E+02  0.41800000000E+01 0. -1.
        -11    1    1    2    0    0  0.26516866203E+02  0.46884145793E+02 -0.11415179196E+03  0.12622162622E+03  0.00000000000E+00 0.  1.
         11    1    1    2    0    0 -0.42270403572E+02 -0.47904893047E+01 -0.36717796450E+02  0.56195483645E+02  0.00000000000E+00 0. -1.
</event>
<event>
 7    1  0.2380582E-009  0.1559134E+03  0.7561462E-02  0.1193389E+00
          1   -1    0    0  501    0  0.00000000000E+00  0.00000000000E+00  0.84187177376E+03  0.84187177376E+03  0.00000000000E+00 0. -1.
         -1   -1    0    0    0  501 -0.00000000000E+00 -0.00000000000E+00 -0.33377095922E+02  0.33377095922E+02  0.00000000000E+00 0.  1.
         25    2    1    2    0    0  0.94633772936E+02  0.61825017668E+02  0.58824323039E+03  0.61192757187E+03  0.12508945329E+03 0.  0.
          5    1    3    3  502    0 -0.28818639270E+02 -0.13360085154E+01  0.82405044342E+02  0.87409167833E+02  0.41800000000E+01 0. -1.
         -5    1    3    3    0  502  0.12345241221E+03  0.63161026184E+02  0.50583818605E+03  0.52451840404E+03  0.41800000000E+01 0. -1.
        -11    1    1    2    0    0 -0.71891173436E+02  0.62554053543E+01  0.11991093899E+03  0.13995036336E+03  0.00000000000E+00 0. -1.
         11    1    1    2    0    0 -0.22742599501E+02 -0.68080423023E+02  0.10034050845E+03  0.12337093445E+03  0.00000000000E+00 0.  1.
</event>
<event>
 7    1  0.2380582E-009  0.1057225E+03  0.7561462E-02  0.1268703E+00
          3   -1    0    0  501    0  0.00000000000E+00  0.00000000000E+00  0.24529556857E+03  0.24529556857E+03  0.00000000000E+00 0. -1.
         -3   -1    0    0    0  501 -0.00000000000E+00 -0.00000000000E+00 -0.63361093267E+02  0.63361093267E+02  0.00000000000E+00 0.  1.
         25    2    1    2    0    0  0.30398081919E+02 -0.25135404180E+02  0.16481972544E+03  0.21063703441E+03  0.12508631597E+03 0.  0.
          5    1    3    3  502    0 -0.33839469295E+02  0.27154677405E+02  0.85032821226E+02  0.95553855353E+02  0.41800000000E+01 0.  1.
         -5    1    3    3    0  502  0.64237551214E+02 -0.52290081586E+02  0.79786904214E+02  0.11508317906E+03  0.41800000000E+01 0.  1.
        -11    1    1    2    0    0 -0.12371432990E+01 -0.26014144276E+02 -0.15903381895E+02  0.30515304057E+02  0.00000000000E+00 0.  1.
         11    1    1    2    0    0 -0.29160938620E+02  0.51149548457E+02  0.33018131758E+02  0.67504323368E+02  0.00000000000E+00 0. -1.
</event>
<event>
 7    1  0.2380582E-009  0.1683601E+03  0.7561462E-02  0.1179569E+00
          1   -1    0    0  501    0  0.00000000000E+00  0.00000000000E+00  0.12696462072E+04  0.12696462072E+04  0.00000000000E+00 0. -1.
         -1   -1    0    0    0  501 -0.00000000000E+00 -0.00000000000E+00 -0.25157846165E+02  0.25157846165E+02  0.00000000000E+00 0.  1.
         25    2    1    2    0    0  0.52439887618E+02  0.12948498063E+03  0.72980819609E+03  0.75351478878E+03  0.12509289270E+03 0.  0.
          5    1    3    3  502    0  0.39689154938E+02 -0.14195021342E+02  0.19766098194E+03  0.20214861818E+03  0.41800000000E+01 0.  1.
         -5    1    3    3    0  502  0.12750732680E+02  0.14368000197E+03  0.53214721415E+03  0.55136617060E+03  0.41800000000E+01 0.  1.
        -11    1    1    2    0    0 -0.47628540012E+02 -0.45288596879E+02  0.11188711785E+03  0.12976232879E+03  0.00000000000E+00 0.  1.
         11    1    1    2    0    0 -0.48113476058E+01 -0.84196383753E+02  0.40279304708E+03  0.41152693579E+03  0.00000000000E+00 0. -1.
</event>
<event>
 7    1  0.2380582E-009  0.9481065E+02  0.7561462E-02  0.1291603E+00
          1   -1    0    0  501    0  0.00000000000E+00  0.00000000000E+00  0.98684601546E+02  0.98684601546E+02  0.00000000000E+00 0. -1.
         -1   -1    0    0    0  501 -0.00000000000E+00 -0.00000000000E+00 -0.16800455468E+03  0.16800455468E+03  0.00000000000E+00 0.  1.
         25    2    1    2    0    0  0.41243900188E+02 -0.54545890379E+02 -0.48507346668E+02  0.15058708177E+03  0.12508874072E+03 0.  0.
          5    1    3    3  502    0 -0.49571208555E+01 -0.10881280066E+02  0.39760946237E+02  0.41729852009E+02  0.41800000000E+01 0. -1.
         -5    1    3    3    0  502  0.46201021044E+02 -0.43664610313E+02 -0.88268292905E+02  0.10885722976E+03  0.41800000000E+01 0. -1.
        -11    1    1    2    0    0  0.28843396778E+02  0.20074877961E+02 -0.13535028621E+02  0.37658189847E+02  0.00000000000E+00 0. -1.
         11    1    1    2    0    0 -0.70087296966E+02  0.34471012418E+02 -0.72775778451E+01  0.78443884608E+02  0.00000000000E+00 0.  1.
</event>
<event>
 7    1  0.2380582E-009  0.2663695E+03  0.7561462E-02  0.1103376E+00
          2   -1    0    0  501    0  0.00000000000E+00  0.00000000000E+00  0.11522856557E+03  0.11522856557E+03  0.00000000000E+00 0. -1.
         -2   -1    0    0    0  501 -0.00000000000E+00 -0.00000000000E+00 -0.64895216673E+03  0.64895216673E+03  0.00000000000E+00 0.  1.
         25    2    1    2    0    0  0.24032299396E+03  0.65102125647E+02 -0.31399625595E+03  0.41980349657E+03  0.12509156164E+03 0.  0.
          5    1    3    3  502    0  0.92289495804E+02  0.86689447749E+02 -0.11736289980E+03  0.17269607418E+03  0.41800000000E+01 0.  1.
         -5    1    3    3    0  502  0.14803349816E+03 -0.21587322103E+02 -0.19663335615E+03  0.24710742239E+03  0.41800000000E+01 0.  1.
        -11    1    1    2    0    0 -0.10443116530E+03  0.28261982297E+01 -0.47626742254E+02  0.11481359789E+03  0.00000000000E+00 0. -1.
         11    1    1    2    0    0 -0.13589182866E+03 -0.67928323876E+02 -0.17210060295E+03  0.22956363784E+03  0.00000000000E+00 0.  1.
</event>
<event>
 7    1  0.2380582E-009  0.1230312E+03  0.7561462E-02  0.1238179E+00
         -4   -1    0    0    0  501 -0.00000000000E+00  0.00000000000E+00  0.16816241255E+03  0.16816241255E+03  0.00000000000E+00 0.  1.
          4   -1    0    0  501    0  0.00000000000E+00 -0.00000000000E+00 -0.13237451661E+03  0.13237451661E+03  0.00000000000E+00 0. -1.
         25    2    1    2    0    0 -0.95116441833E+02  0.34465090271E+02  0.57689298373E+01  0.16098452364E+03  0.12509099226E+03 0.  0.
          5    1    3    3  502    0 -0.70500001448E+02 -0.48500145722E-02  0.59563581225E+02  0.92388001581E+02  0.41800000000E+01 0. -1.
         -5    1    3    3    0  502 -0.24616440385E+02  0.34469940286E+02 -0.53794651388E+02  0.68596522058E+02  0.41800000000E+01 0. -1.
        -11    1    1    2    0    0  0.33990092060E+02 -0.58121733613E+02 -0.30863208140E+00  0.67331697811E+02  0.00000000000E+00 0.  1.
         11    1    1    2    0    0  0.61126349773E+02  0.23656643342E+02  0.30327598182E+02  0.72220707711E+02  0.00000000000E+00 0. -1.
</event>
<event>
 7    1  0.2380582E-009  0.1171919E+03  0.7561462E-02  0.1247803E+00
          1   -1    0    0  501    0  0.00000000000E+00  0.00000000000E+00  0.55142167616E+02  0.55142167616E+02  0.00000000000E+00 0.  1.
         -1   -1    0    0    0  501 -0.00000000000E+00 -0.00000000000E+00 -0.32938444582E+03  0.32938444582E+03  0.00000000000E+00 0. -1.
         25    2    1    2    0    0  0.67043887008E+02  0.42952831378E+02 -0.13501774306E+03  0.20054125423E+03  0.12508866935E+03 0.  0.
          5    1    3    3  502    0  0.37270643650E+02 -0.23843109036E+02 -0.11692998380E+03  0.12509072003E+03  0.41800000000E+01 0.  1.
         -5    1    3    3    0  502  0.29773243358E+02  0.66795940414E+02 -0.18087759260E+02  0.75450534199E+02  0.41800000000E+01 0.  1.
        -11    1    1    2    0    0 -0.59595005149E+01  0.24777852596E+02 -0.14032199930E+02  0.29092271492E+02  0.00000000000E+00 0.  1.
         11    1    1    2    0    0 -0.61084386493E+02 -0.67730683974E+02 -0.12519233522E+03  0.15489308771E+03  0.00000000000E+00 0. -1.
</event>
<event>
 7    1  0.2380582E-009  0.6230832E+02  0.7561462E-02  0.1388392E+00
          2   -1    0    0  501    0  0.00000000000E+00  0.00000000000E+00  0.44392646812E+03  0.44392646812E+03  0.00000000000E+00 0. -1.
         -2   -1    0    0    0  501 -0.00000000000E+00 -0.00000000000E+00 -0.33390433279E+02  0.33390433279E+02  0.00000000000E+00 0.  1.
         25    2    1    2    0    0 -0.24218809854E+02  0.27519524317E+02  0.31195902439E+03  0.33809737091E+03  0.12509006495E+03 0.  0.
          5    1    3    3  502    0  0.71100799555E+01  0.23984942467E+02  0.30433853878E+03  0.30539359733E+03  0.41800000000E+01 0.  1.
         -5    1    3    3    0  502 -0.31328889810E+02  0.35345818504E+01  0.76204856089E+01  0.32703773582E+02  0.41800000000E+01 0.  1.
        -11    1    1    2    0    0  0.41908444060E+02 -0.26800977092E+02  0.12433765168E+02  0.51275808847E+02  0.00000000000E+00 0.  1.
         11    1    1    2    0    0 -0.17689634206E+02 -0.71854722462E+00  0.86143245281E+02  0.87943721640E+02  0.00000000000E+00 0. -1.
</event>
<event>
 7    1  0.2380582E-009  0.1165536E+03  0.7561462E-02  0.1248893E+00
         -1   -1    0    0    0  501 -0.00000000000E+00  0.00000000000E+00  0.33570029207E+03  0.33570029207E+03  0.00000000000E+00 0.  1.
          1   -1    0    0  501    0  0.00000000000E+00 -0.00000000000E+00 -0.56946371143E+02  0.56946371143E+02  0.00000000000E+00 0. -1.
         25    2    1    2    0    0 -0.19088075238E+02  0.66739801121E+02  0.24523836085E+03  0.28391563217E+03  0.12509067466E+03 0.  0.
          5    1    3    3  502    0  0.46158235161E+02  0.35920141385E+02  0.54943971684E+02  0.80356403943E+02  0.41800000000E+01 0. -1.
         -5    1    3    3    0  502 -0.65246310399E+02  0.30819659736E+02  0.19029438917E+03  0.20355922822E+03  0.41800000000E+01 0. -1.
        -11    1    1    2    0    0  0.38549885177E+02 -0.67681939663E+01  0.47432123555E+01  0.39425881857E+02  0.00000000000E+00 0.  1.
         11    1    1    2    0    0 -0.19461809940E+02 -0.59971607155E+02  0.28772347724E+02  0.69305149191E+02  0.00000000000E+00 0. -1.
</event>
<event>
 7    1  0.2380582E-009  0.1685488E+03  0.7561462E-02  0.1179370E+00
         -2   -1    0    0    0  501 -0.00000000000E+00  0.00000000000E+00  0.65501397676E+02  0.65501397676E+02  0.00000000000E+00 0.  1.
          2   -1    0    0  501    0  0.00000000000E+00 -0.00000000000E+00 -0.53664309015E+03  0.53664309015E+03  0.00000000000E+00 0. -1.
         25    2    1    2    0    0 -0.12956765631E+03  0.68187280551E+02 -0.31330933008E+03  0.36776071542E+03  0.12509166518E+03 0.  0.
          5    1    3    3  502    0 -0.14686982002E+03  0.33039519099E+02 -0.27038861201E+03  0.30949931787E+03  0.41800000000E+01 0.  1.
         -5    1    3    3    0  502  0.17302163718E+02  0.35147761452E+02 -0.42920718069E+02  0.58261397545E+02  0.41800000000E+01 0.  1.
        -11    1    1    2    0    0  0.10942648342E+02 -0.10608781787E+02  0.11981197951E+02  0.19386513562E+02  0.00000000000E+00 0.  1.
         11    1    1    2    0    0  0.11862500796E+03 -0.57578498764E+02 -0.16981356034E+03  0.21499725884E+03  0.00000000000E+00 0. -1.
</event>
<event>
 7    1  0.2380582E-009  0.1377349E+03  0.7561462E-02  0.1216410E+00
         -1   -1    0    0    0  501 -0.00000000000E+00  0.00000000000E+00  0.83298434941E+02  0.83298434941E+02  0.00000000000E+00 0.  1.
          1   -1    0    0  501    0  0.00000000000E+00 -0.00000000000E+00 -0.26096427444E+03  0.26096427444E+03  0.00000000000E+00 0. -1.
         25    2    1    2    0    0  0.88292678815E+02 -0.36515957952E+02 -0.13071473154E+03  0.20460395735E+03  0.12508967186E+03 0.  0.
          5    1    3    3  502    0  0.44461682652E+02  0.42881306395E+02 -0.78129072269E+02  0.99685866581E+02  0.41800000000E+01 0. -1.
         -5    1    3    3    0  502  0.43830996163E+02 -0.79397264347E+02 -0.52585659267E+02  0.10491809077E+03  0.41800000000E+01 0. -1.
        -11    1    1    2    0    0 -0.29085241685E+02 -0.24293912849E+02  0.77564377108E+01  0.38682138143E+02  0.00000000000E+00 0.  1.
         11    1    1    2    0    0 -0.59207437130E+02  0.60809870801E+02 -0.54707545672E+02  0.10097661389E+03  0.00000000000E+00 0. -1.
</event>
<event>
 7    1  0.2380582E-009  0.2875950E+03  0.7561462E-02  0.1091612E+00
         -1   -1    0    0    0  501 -0.00000000000E+00  0.00000000000E+00  0.61846561640E+02  0.61846561640E+02  0.00000000000E+00 0.  1.
          1   -1    0    0  501    0  0.00000000000E+00 -0.00000000000E+00 -0.14777818924E+04  0.14777818924E+04  0.00000000000E+00 0. -1.
         25    2    1    2    0    0  0.26964458976E+03 -0.83952683316E+02 -0.65269171224E+03  0.72208757375E+03  0.12509090739E+03 0.  0.
          5    1    3    3  502    0  0.19307333274E+03 -0.81863819214E+02 -0.33486873890E+03  0.39513737030E+03  0.41800000000E+01 0. -1.
         -5    1    3    3    0  502  0.76571257016E+02 -0.20888641023E+01 -0.31782297334E+03  0.32695020345E+03  0.41800000000E+01 0. -1.
        -11    1    1    2    0    0 -0.79728972289E+02  0.54404984390E+02 -0.19324208448E+03  0.21600720952E+03  0.00000000000E+00 0. -1.
         11    1    1    2    0    0 -0.18991561747E+03  0.29547698926E+02 -0.57000153403E+03  0.60153367077E+03  0.00000000000E+00 0.  1.
</event>
<event>
 7    1  0.2380582E-009  0.1072004E+03  0.7561462E-02  0.1265844E+00
          2   -1    0    0  501    0  0.00000000000E+00  0.00000000000E+00  0.12361893385E+03  0.12361893385E+03  0.00000000000E+00 0. -1.
         -2   -1    0    0    0  501 -0.00000000000E+00 -0.00000000000E+00 -0.19091612055E+03  0.19091612055E+03  0.00000000000E+00 0.  1.
         25    2    1    2    0    0 -0.79246899794E+01 -0.15263493846E+02 -0.14616946815E+03  0.19315479567E+03  0.12508991452E+03 0.  0.
          5    1    3    3  502    0 -0.10998547956E+02 -0.68671473988E+02 -0.10267263002E+03  0.12408013843E+03  0.41800000000E+01 0.  1.
         -5    1    3    3    0  502  0.30738579769E+01  0.53407980142E+02 -0.43496838130E+02  0.69074657242E+02  0.41800000000E+01 0.  1.
        -11    1    1    2    0    0  0.34262521328E+02  0.41552409534E+02  0.36889507658E+02  0.65279084561E+02  0.00000000000E+00 0.  1.
         11    1    1    2    0    0 -0.26337831349E+02 -0.26288915688E+02  0.41982773790E+02  0.56101174171E+02  0.00000000000E+00 0. -1.
</event>
<event>
 7    1  0.2380582E-009  0.1024845E+03  0.7561462E-02  0.1275156E+00
          1   -1    0    0  501    0  0.00000000000E+00  0.00000000000E+00  0.19202486194E+03  0.19202486194E+03  0.00000000000E+00 0. -1.
         -1   -1    0    0    0  501 -0.00000000000E+00 -0.00000000000E+00 -0.68783173295E+02  0.68783173295E+02  0.00000000000E+00 0.  1.
         25    2    1    2    0    0  0.36349493199E+02 -0.10855095911E+01  0.66353552082E+02  0.14619257314E+03  0.12508801133E+03 0.  0.
          5    1    3    3  502    0  0.29447959001E+02 -0.49175972363E+02 -0.72239962378E+01  0.57923372388E+02  0.41800000000E+01 0.  1.
         -5    1    3    3    0  502  0.69015341978E+01  0.48090462772E+02  0.73577548320E+02  0.88269200748E+02  0.41800000000E+01 0.  1.
        -11    1    1    2    0    0 -0.60627356814E+02 -0.22709340063E+02  0.30416985620E+02  0.71530298018E+02  0.00000000000E+00 0.  1.
         11    1    1    2    0    0  0.24277863615E+02  0.23794849654E+02  0.26471150945E+02  0.43085164084E+02  0.00000000000E+00 0. -1.
</event>
<event>
 7    1  0.2380582E-009  0.1329066E+03  0.7561462E-02  0.1223205E+00
          3   -1    0    0  501    0  0.00000000000E+00  0.00000000000E+00  0.19982028079E+02  0.19982028079E+02  0.00000000000E+00 0. -1.
         -3   -1    0    0    0  501 -0.00000000000E+00 -0.00000000000E+00 -0.14173703291E+04  0.14173703291E+04  0.00000000000E+00 0.  1.
         25    2    1    2    0    0 -0.32189926399E+02  0.81356205998E+02 -0.11378139426E+04  0.11480078973E+04  0.12508613355E+03 0.  0.
          5    1    3    3  502    0 -0.74603761862E+02  0.63652351332E+02 -0.92809229347E+03  0.93326851479E+03  0.41800000000E+01 0. -1.
         -5    1    3    3    0  502  0.42413835463E+02  0.17703854666E+02 -0.20972164909E+03  0.21473938252E+03  0.41800000000E+01 0. -1.
        -11    1    1    2    0    0  0.18784078615E+02 -0.98199012061E+02 -0.17000594318E+03  0.19722552648E+03  0.00000000000E+00 0. -1.
         11    1    1    2    0    0  0.13405847783E+02  0.16842806063E+02 -0.89568415295E+02  0.92118933392E+02  0.00000000000E+00 0.  1.
</event>
<event>
 7    1  0.2380582E-009  0.1331911E+03  0.7561462E-02  0.1222796E+00
         -1   -1    0    0    0  501 -0.00000000000E+00  0.00000000000E+00  0.52082694352E+03  0.52082694352E+03  0.00000000000E+00 0.  1.
          1   -1    0    0  501    0  0.00000000000E+00 -0.00000000000E+00 -0.38861599699E+02  0.38861599699E+02  0.00000000000E+00 0. -1.
         25    2    1    2    0    0  0.50628820060E+02  0.76398124097E+02  0.27130581360E+03  0.31249564838E+03  0.12508690969E+03 0.  0.
          5    1    3    3  502    0  0.84824560062E+02  0.73748429255E+02  0.15735844669E+03  0.19342489486E+03  0.41800000000E+01 0.  1.
         -5    1    3    3    0  502 -0.34195740002E+02  0.26496948424E+01  0.11394736691E+03  0.11907075352E+03  0.41800000000E+01 0.  1.
        -11    1    1    2    0    0 -0.46664217017E+02 -0.92051341488E+02  0.20596819662E+03  0.23037772600E+03  0.00000000000E+00 0.  1.
         11    1    1    2    0    0 -0.39646030430E+01  0.15653217390E+02  0.46913335932E+01  0.16815168832E+02  0.00000000000E+00 0. -1.
</event>
<event>
 7    1  0.2380582E-009  0.9898394E+02  0.7561462E-02  0.1282447E+00
          3   -1    0    0  501    0  0.00000000000E+00  0.00000000000E+00  0.15934199590E+03  0.15934199590E+03  0.00000000000E+00 0. -1.
         -3   -1    0    0    0  501 -0.00000000000E+00 -0.00000000000E+00 -0.12178827015E+03  0.12178827015E+03  0.00000000000E+00 0.  1.
         25    2    1    2    0    0 -0.25077160742E+02  0.45757966509E+02 -0.46996558168E+02  0.14344677645E+03  0.12508255555E+03 0.  0.
          5    1    3    3  502    0  0.19578294092E+02  0.48759749650E+02  0.25181526899E+02  0.58415789667E+02  0.41800000000E+01 0.  1.
         -5    1    3    3    0  502 -0.44655454834E+02 -0.30017831412E+01 -0.72178085067E+02  0.85030986778E+02  0.41800000000E+01 0.  1.
        -11    1    1    2    0    0  0.14208358004E+02 -0.71219540017E+02  0.82518735966E+02  0.10992471107E+03  0.00000000000E+00 0. -1.
         11    1    1    2    0    0  0.10868802738E+02  0.25461573508E+02  0.20315479526E+01  0.27758778531E+02  0.00000000000E+00 0.  1.
</event>
<event>
 7    1  0.2380582E-009  0.2384941E+03  0.7561462E-02  0.1120800E+00
         -1   -1    0    0    0  501 -0.00000000000E+00  0.00000000000E+00  0.81597132040E+02  0.81597132040E+02  0.00000000000E+00 0.  1.
          1   -1    0    0  501    0  0.00000000000E+00 -0.00000000000E+00 -0.89389332857E+03  0.89389332857E+03  0.00000000000E+00 0. -1.
         25    2    1    2    0    0  0.16315239467E+03  0.17114236221E+03 -0.28787334949E+03  0.39297176435E+03  0.12508928890E+03 0.  0.
          5    1    3    3  502    0  0.77572585556E+02  0.75944877990E+02 -0.43414248830E+02  0.11699316187E+03  0.41800000000E+01 0. -1.
         -5    1    3    3    0  502  0.85579809113E+02  0.95197484218E+02 -0.24445910066E+03  0.27597860248E+03  0.41800000000E+01 0. -1.
        -11    1    1    2    0    0 -0.13275441048E+02 -0.36343317143E+02 -0.31236066714E+02  0.49726913233E+02  0.00000000000E+00 0.  1.
         11    1    1    2    0    0 -0.14987695362E+03 -0.13479904507E+03 -0.49318678033E+03  0.53279178303E+03  0.00000000000E+00 0. -1.
</event>
<event>
 7    1  0.2380582E-009  0.9631343E+02  0.7561462E-02  0.1288245E+00
         -2   -1    0    0    0  501 -0.00000000000E+00  0.00000000000E+00  0.16378750126E+03  0.16378750126E+03  0.00000000000E+00 0.  1.
          2   -1    0    0  501    0  0.00000000000E+00 -0.00000000000E+00 -0.90908644643E+02  0.90908644643E+02  0.00000000000E+00 0. -1.
         25    2    1    2    0    0 -0.38486622639E+02 -0.25949395584E+02  0.67504715171E+01  0.13359600729E+03  0.12509089913E+03 0.  0.
          5    1    3    3  502    0 -0.61086388562E+02 -0.47746811973E+02 -0.31622982034E+02  0.83837881139E+02  0.41800000000E+01 0. -1.
         -5    1    3    3    0  502  0.22599765923E+02  0.21797416389E+02  0.38373453551E+02  0.49758126155E+02  0.41800000000E+01 0. -1.
        -11    1    1    2    0    0  0.34847694627E+02  0.48912353665E+02  0.75117042532E+02  0.96173542311E+02  0.00000000000E+00 0.  1.
         11    1    1    2    0    0  0.36389280124E+01 -0.22962958082E+02 -0.89886574270E+01  0.24926596303E+02  0.00000000000E+00 0. -1.
</event>
<event>
 7    1  0.2380582E-009  0.1150337E+03  0.7561462E-02  0.1251522E+00
         -2   -1    0    0    0  501 -0.00000000000E+00  0.00000000000E+00  0.13863454837E+03  0.13863454837E+03  0.00000000000E+00 0.  1.
          2   -1    0    0  501    0  0.00000000000E+00 -0.00000000000E+00 -0.11604662409E+03  0.11604662409E+03  0.00000000000E+00 0. -1.
         25    2    1    2    0    0  0.29336893279E+02 -0.58196135436E+02  0.64822917323E+01  0.14119818899E+03  0.12508982764E+03 0.  0.
          5    1    3    3  502    0 -0.61051649549E+01  0.29095227006E+02  0.31618906552E+02  0.43600836290E+02  0.41800000000E+01 0.  1.
         -5    1    3    3    0  502  0.35442058234E+02 -0.87291362441E+02 -0.25136614819E+02  0.97597352696E+02  0.41800000000E+01 0.  1.
        -11    1    1    2    0    0 -0.49368164196E+02  0.58747538545E+01  0.26749793678E+02  0.56455999068E+02  0.00000000000E+00 0.  1.
         11    1    1    2    0    0  0.20031270917E+02  0.52321381581E+02 -0.10644161129E+02  0.57026984413E+02  0.00000000000E+00 0. -1.
</event>
<event>
 7    1  0.2380582E-009  0.2767312E+03  0.7561462E-02  0.1097488E+00
          2   -1    0    0  501    0  0.00000000000E+00  0.00000000000E+00  0.11798514642E+04  0.11798514642E+04  0.00000000000E+00 0.  1.
         -2   -1    0    0    0  501 -0.00000000000E+00 -0.00000000000E+00 -0.93881862529E+02  0.93881862529E+02  0.00000000000E+00 0. -1.
         25    2    1    2    0    0  0.18825102418E+03  0.18035488829E+03  0.87050771554E+03  0.91727740003E+03  0.12509121457E+03 0.  0.
          5    1    3    3  502    0  0.17177409422E+03  0.84181314102E+02  0.56180812443E+03  0.59349698750E+03  0.41800000000E+01 0. -1.
         -5    1    3    3    0  502  0.16476929962E+02  0.96173574185E+02  0.30869959111E+03  0.32378041254E+03  0.41800000000E+01 0. -1.
        -11    1    1    2    0    0 -0.11106793230E+03 -0.75659240872E+02  0.44346867424E+02  0.14151696352E+03  0.00000000000E+00 0. -1.
         11    1    1    2    0    0 -0.77183091881E+02 -0.10469564742E+03  0.17111501867E+03  0.21493896313E+03  0.00000000000E+00 0.  1.
</event>
<event>
 7    1  0.2380582E-009  0.6697174E+02  0.7561462E-02  0.1370704E+00
         -1   -1    0    0    0  501 -0.00000000000E+00  0.00000000000E+00  0.20353719136E+03  0.20353719136E+03  0.00000000000E+00 0.  1.
          1   -1    0    0  501    0  0.00000000000E+00 -0.00000000000E+00 -0.64569100265E+02  0.64569100265E+02  0.00000000000E+00 0. -1.
         25    2    1    2    0    0  0.11621930916E+02  0.29796675043E+02  0.53842192795E+02  0.13988923956E+03  0.12508839473E+03 0.  0.
          5    1    3    3  502    0 -0.20328171920E+02 -0.13977053162E+02  0.76883538760E+02  0.80852603675E+02  0.41800000000E+01 0. -1.
         -5    1    3    3    0  502  0.31950102836E+02  0.43773728205E+02 -0.23041345966E+02  0.59036635881E+02  0.41800000000E+01 0. -1.
        -11    1    1    2    0    0 -0.28224096657E+02 -0.13437011856E+02  0.97103826601E+02  0.10201130359E+03  0.00000000000E+00 0.  1.
         11    1    1    2    0    0  0.16602165741E+02 -0.16359663187E+02 -0.11977928301E+02  0.26205748478E+02  0.00000000000E+00 0. -1.
</event>
<event>
 7    1  0.2380582E-009  0.1490544E+03  0.7561462E-02  0.1201640E+00
         -2   -1    0    0    0  501 -0.00000000000E+00  0.00000000000E+00  0.11973180012E+03  0.11973180012E+03  0.00000000000E+00 0.  1.
          2   -1    0    0  501    0  0.00000000000E+00 -0.00000000000E+00 -0.29660375056E+03  0.29660375056E+03  0.00000000000E+00 0. -1.
         25    2    1    2    0    0 -0.12263056003E+03  0.48259034051E+02 -0.18026373011E+03  0.25594891390E+03  0.12509054927E+03 0.  0.
          5    1    3    3  502    0 -0.10068485240E+03  0.42278343502E+01 -0.42218999973E+02  0.10933997643E+03  0.41800000000E+01 0.  1.
         -5    1    3    3    0  502 -0.21945707624E+02  0.44031199700E+02 -0.13804473013E+03  0.14660893747E+03  0.41800000000E+01 0.  1.
        -11    1    1    2    0    0 -0.80791981574E+01 -0.73227956855E+01  0.19632189959E+02  0.22457062633E+02  0.00000000000E+00 0.  1.
         11    1    1    2    0    0  0.13070975818E+03 -0.40936238365E+02 -0.16240410291E+02  0.13792957414E+03  0.00000000000E+00 0. -1.
</event>
<event>
 7    1  0.2380582E-009  0.8643774E+02  0.7561462E-02  0.1311715E+00
          2   -1    0    0  501    0  0.00000000000E+00  0.00000000000E+00  0.12922015754E+03  0.12922015754E+03  0.00000000000E+00 0. -1.
         -2   -1    0    0    0  501 -0.00000000000E+00 -0.00000000000E+00 -0.13118585488E+03  0.13118585488E+03  0.00000000000E+00 0.  1.
         25    2    1    2    0    0 -0.65619869086E+02  0.13760659483E+02  0.24619351618E+02  0.14404206564E+03  0.12508669486E+03 0.  0.
          5    1    3    3  502    0 -0.42537766284E+01  0.72468858115E+01 -0.47852516736E+02  0.48764205392E+02  0.41800000000E+01 0. -1.
         -5    1    3    3    0  502 -0.61366092457E+02  0.65137736719E+01  0.72471868353E+02  0.95277860248E+02  0.41800000000E+01 0. -1.
        -11    1    1    2    0    0  0.33605738966E+02  0.31592330057E+02 -0.37912922274E+02  0.59706035584E+02  0.00000000000E+00 0.  1.
         11    1    1    2    0    0  0.32014130119E+02 -0.45352989540E+02  0.11327873314E+02  0.56657911198E+02  0.00000000000E+00 0. -1.
</event>
<event>
 7    1  0.2380582E-009  0.1069303E+03  0.7561462E-02  0.1266362E+00
         -1   -1    0    0    0  501 -0.00000000000E+00  0.00000000000E+00  0.10306009968E+03  0.10306009968E+03  0.00000000000E+00 0.  1.
          1   -1    0    0  501    0  0.00000000000E+00 -0.00000000000E+00 -0.15193865081E+03  0.15193865081E+03  0.00000000000E+00 0. -1.
         25    2    1    2    0    0  0.61111906171E+02  0.36301917832E+01 -0.31088403291E+02  0.14269437967E+03  0.12508938325E+03 0.  0.
          5    1    3    3  502    0 -0.38294429873E+02  0.54897338060E+01 -0.17597987915E+01  0.38950864282E+02  0.41800000000E+01 0. -1.
         -5    1    3    3    0  502  0.99406336044E+02 -0.18595420228E+01 -0.29328604499E+02  0.10374351538E+03  0.41800000000E+01 0. -1.
        -11    1    1    2    0    0 -0.24557048750E+02 -0.23364794196E+02  0.32579091732E+02  0.47014460214E+02  0.00000000000E+00 0.  1.
         11    1    1    2    0    0 -0.36554857421E+02  0.19734602413E+02 -0.50369239562E+02  0.65289910610E+02  0.00000000000E+00 0. -1.
</event>
<event>
 7    1  0.2380582E-009  0.7815902E+02  0.7561462E-02  0.1334359E+00
         -1   -1    0    0    0  501 -0.00000000000E+00  0.00000000000E+00  0.52976302130E+02  0.52976302130E+02  0.00000000000E+00 0.  1.
          1   -1    0    0  501    0  0.00000000000E+00 -0.00000000000E+00 -0.32140008964E+03  0.32140008964E+03  0.00000000000E+00 0. -1.
         25    2    1    2    0    0 -0.66426438508E+02  0.23043721527E+02 -0.11943992012E+03  0.18670231753E+03  0.12509346912E+03 0.  0.
          5    1    3    3  502    0 -0.63405290843E+02  0.41004953545E+01  0.19795359011E+01  0.63705854765E+02  0.41800000000E+01 0. -1.
         -5    1    3    3    0  502 -0.30211476654E+01  0.18943226173E+02 -0.12141945602E+03  0.12299646276E+03  0.41800000000E+01 0. -1.
        -11    1    1    2    0    0  0.40492657117E+02 -0.23978086339E+02 -0.15418554248E+03  0.16120727469E+03  0.00000000000E+00 0. -1.
         11    1    1    2    0    0  0.25933781391E+02  0.93436481213E+00  0.52016750868E+01  0.26466799553E+02  0.00000000000E+00 0.  1.
</event>
<event>
 7    1  0.2380582E-009  0.1115273E+03  0.7561462E-02  0.1257767E+00
         -1   -1    0    0    0  501 -0.00000000000E+00  0.00000000000E+00  0.58852668781E+02  0.58852668781E+02  0.00000000000E+00 0.  1.
          1   -1    0    0  501    0  0.00000000000E+00 -0.00000000000E+00 -0.74275279275E+03  0.74275279275E+03  0.00000000000E+00 0. -1.
         25    2    1    2    0    0  0.74156140031E+02 -0.31446118929E+02 -0.66040720801E+03  0.67695900600E+03  0.12509126237E+03 0.  0.
          5    1    3    3  502    0  0.61513067515E+02 -0.72889706559E+02 -0.32478227373E+03  0.33852291581E+03  0.41800000000E+01 0.  1.
         -5    1    3    3    0  502  0.12643072516E+02  0.41443587630E+02 -0.33562493428E+03  0.33843609019E+03  0.41800000000E+01 0.  1.
        -11    1    1    2    0    0 -0.11357112926E+02 -0.38812087736E+01 -0.47270862500E+02  0.48770710852E+02  0.00000000000E+00 0. -1.
         11    1    1    2    0    0 -0.62799027106E+02  0.35327327703E+02  0.23777946541E+02  0.75875744673E+02  0.00000000000E+00 0.  1.
</event>
<event>
 7    1  0.2380582E-009  0.1373797E+03  0.7561462E-02  0.1216899E+00
          2   -1    0    0  501    0  0.00000000000E+00  0.00000000000E+00  0.17265618658E+04  0.17265618658E+04  0.00000000000E+00 0.  1.
         -2   -1    0    0    0  501 -0.00000000000E+00 -0.00000000000E+00 -0.18754529601E+02  0.18754529601E+02  0.00000000000E+00 0. -1.
         25    2    1    2    0    0 -0.14149865663E+02 -0.13222020375E+03  0.11001571344E+04  0.11152022827E+04  0.12509200646E+03 0.  0.
          5    1    3    3  502    0  0.52733361348E+00 -0.11909052964E+03  0.10805476490E+04  0.10870986737E+04  0.41800000000E+01 0.  1.
         -5    1    3    3    0  502 -0.14677199277E+02 -0.13129674106E+02  0.19609485440E+02  0.28103609020E+02  0.41800000000E+01 0.  1.
        -11    1    1    2    0    0 -0.13201924564E+01  0.96829962437E+02  0.56215490875E+03  0.57043485690E+03  0.00000000000E+00 0.  1.
         11    1    1    2    0    0  0.15470058120E+02  0.35390241310E+02  0.45495293037E+02  0.59679255749E+02  0.00000000000E+00 0. -1.
</event>
<event>
 7    1  0.2380582E-009  0.1608510E+03  0.7561462E-02  0.1187739E+00
         -1   -1    0    0    0  501 -0.00000000000E+00  0.00000000000E+00  0.30506756278E+03  0.30506756278E+03  0.00000000000E+00 0.  1.
          1   -1    0    0  501    0  0.00000000000E+00 -0.00000000000E+00 -0.10227232105E+03  0.10227232105E+03  0.00000000000E+00 0. -1.
         25    2    1    2    0    0  0.10614845320E+03  0.91438340341E+02  0.10605506429E+03  0.21569237223E+03  0.12508820318E+03 0.  0.
          5    1    3    3  502    0  0.27143904713E+02  0.76038798684E+02  0.10819497117E+03  0.13506411312E+03  0.41800000000E+01 0.  1.
         -5    1    3    3    0  502  0.79004548487E+02  0.15399541657E+02 -0.21399068730E+01  0.80628259105E+02  0.41800000000E+01 0.  1.
        -11    1    1    2    0    0 -0.18414785997E+02 -0.66563621826E+02  0.18518528798E+02  0.71503538393E+02  0.00000000000E+00 0.  1.
         11    1    1    2    0    0 -0.87733667204E+02 -0.24874718516E+02  0.78221648636E+02  0.12014397321E+03  0.00000000000E+00 0. -1.
</event>
<event>
 7    1  0.2380582E-009  0.1364390E+03  0.7561462E-02  0.1218203E+00
         -2   -1    0    0    0  501 -0.00000000000E+00  0.00000000000E+00  0.18403168454E+03  0.18403168454E+03  0.00000000000E+00 0. -1.
          2   -1    0    0  501    0  0.00000000000E+00 -0.00000000000E+00 -0.14584836906E+03  0.14584836906E+03  0.00000000000E+00 0.  1.
         25    2    1    2    0    0 -0.46468085709E+02  0.99587699334E+02 -0.33129428570E+02  0.16976985052E+03  0.12508896938E+03 0.  0.
          5    1    3    3  502    0  0.18065673900E+02  0.10663555067E+02  0.34565659071E+02  0.40648950382E+02  0.41800000000E+01 0. -1.
         -5    1    3    3    0  502 -0.64533759609E+02  0.88924144266E+02 -0.67695087642E+02  0.12912090014E+03  0.41800000000E+01 0. -1.
        -11    1    1    2    0    0  0.15941084745E+02  0.15639839320E+02  0.21232875294E+02  0.30814894939E+02  0.00000000000E+00 0.  1.
         11    1    1    2    0    0  0.30527000964E+02 -0.11522753865E+03  0.50079868755E+02  0.12929530814E+03  0.00000000000E+00 0. -1.
</event>
<event>
 7    1  0.2663087E-009  0.1143379E+03  0.7561462E-02  0.1252741E+00
         -1   -1    0    0    0  501 -0.00000000000E+00  0.00000000000E+00  0.64177510965E+02  0.64177510965E+02  0.00000000000E+00 0.  1.
          1   -1    0    0  501    0  0.00000000000E+00 -0.00000000000E+00 -0.30819027597E+03  0.30819027597E+03  0.00000000000E+00 0. -1.
         25    2    1    2    0    0  0.88866405780E+02 -0.44221486083E+01 -0.12875133037E+03  0.20035339642E+03  0.12509110645E+03 0.  0.
          5    1    3    3  502    0  0.21269134446E+02 -0.52053903273E+02 -0.95954513880E+02  0.11129566955E+03  0.41800000000E+01 0. -1.
         -5    1    3    3    0  502  0.67597271334E+02  0.47631754665E+02 -0.32796816486E+02  0.89057726874E+02  0.41800000000E+01 0. -1.
        -11    1    1    2    0    0 -0.28944546915E+02 -0.30480146715E+01 -0.10721476021E+03  0.11109492336E+03  0.00000000000E+00 0. -1.
         11    1    1    2    0    0 -0.59921858865E+02  0.74701632798E+01 -0.80466744328E+01  0.60919467157E+02  0.00000000000E+00 0.  1.
</event>
<event>
 7    1  0.2380582E-009  0.1005599E+03  0.7561462E-02  0.1279123E+00
         -2   -1    0    0    0  501 -0.00000000000E+00  0.00000000000E+00  0.32268594256E+03  0.32268594256E+03  0.00000000000E+00 0.  1.
          2   -1    0    0  501    0  0.00000000000E+00 -0.00000000000E+00 -0.54302386414E+02  0.54302386414E+02  0.00000000000E+00 0. -1.
         25    2    1    2    0    0  0.34023850167E+02  0.60933146802E+02  0.10454579357E+03  0.17733566674E+03  0.12509054715E+03 0.  0.
          5    1    3    3  502    0  0.31405661034E+02  0.91689336368E+02  0.10894683960E+03  0.14587712709E+03  0.41800000000E+01 0.  1.
         -5    1    3    3    0  502  0.26181891329E+01 -0.30756189566E+02 -0.44010460357E+01  0.31458539654E+02  0.41800000000E+01 0.  1.
        -11    1    1    2    0    0 -0.10525718762E+02 -0.40425308725E+02  0.10360908527E+02  0.43038875061E+02  0.00000000000E+00 0. -1.
         11    1    1    2    0    0 -0.23498131405E+02 -0.20507838077E+02  0.15347685405E+03  0.15661378717E+03  0.00000000000E+00 0.  1.
</event>
<event>
 7    1  0.2380582E-009  0.1287442E+03  0.7561462E-02  0.1229331E+00
         -1   -1    0    0    0  501 -0.00000000000E+00  0.00000000000E+00  0.43234332038E+03  0.43234332038E+03  0.00000000000E+00 0.  1.
          1   -1    0    0  501    0  0.00000000000E+00 -0.00000000000E+00 -0.75234093108E+02  0.75234093108E+02  0.00000000000E+00 0. -1.
         25    2    1    2    0    0  0.69608527313E+02  0.87049697976E+02  0.31587474297E+03  0.35756040626E+03  0.12509833685E+03 0.  0.
          5    1    3    3  502    0 -0.10779065997E+02  0.38644555607E+02  0.21878044471E+03  0.22246785235E+03  0.41800000000E+01 0. -1.
         -5    1    3    3    0  502  0.80387593310E+02  0.48405142369E+02  0.97094298268E+02  0.13509255391E+03  0.41800000000E+01 0. -1.
        -11    1    1    2    0    0 -0.31588729805E+02 -0.39456121710E+01  0.48855239666E+02  0.58311663919E+02  0.00000000000E+00 0.  1.
         11    1    1    2    0    0 -0.38019797508E+02 -0.83104085805E+02 -0.76207553666E+01  0.91705343315E+02  0.00000000000E+00 0. -1.
</event>
<event>
 7    1  0.2380582E-009  0.1009902E+03  0.7561462E-02  0.1278227E+00
          1   -1    0    0  501    0  0.00000000000E+00  0.00000000000E+00  0.44503708396E+03  0.44503708396E+03  0.00000000000E+00 0. -1.
         -1   -1    0    0    0  501 -0.00000000000E+00 -0.00000000000E+00 -0.42143909526E+02  0.42143909526E+02  0.00000000000E+00 0.  1.
         25    2    1    2    0    0  0.95628770071E+01 -0.22895226431E+02  0.36137227796E+03  0.38321377167E+03  0.12508889442E+03 0.  0.
          5    1    3    3  502    0  0.18373248786E+02 -0.73440125645E+02  0.20381951438E+03  0.21746469867E+03  0.41800000000E+01 0. -1.
         -5    1    3    3    0  502 -0.88103717788E+01  0.50544899214E+02  0.15755276358E+03  0.16574907300E+03  0.41800000000E+01 0. -1.
        -11    1    1    2    0    0  0.45009557757E+01  0.46764211449E+02  0.55682076769E+02  0.72853577459E+02  0.00000000000E+00 0. -1.
         11    1    1    2    0    0 -0.14063832783E+02 -0.23868985018E+02 -0.14161180291E+02  0.31113644363E+02  0.00000000000E+00 0.  1.
</event>
<event>
 7    1  0.2380582E-009  0.5452034E+02  0.7561462E-02  0.1422381E+00
         -3   -1    0    0    0  501 -0.00000000000E+00  0.00000000000E+00  0.16509232541E+03  0.16509232541E+03  0.00000000000E+00 0.  1.
          3   -1    0    0  501    0  0.00000000000E+00 -0.00000000000E+00 -0.88242909013E+02  0.88242909013E+02  0.00000000000E+00 0. -1.
         25    2    1    2    0    0  0.17576424837E+02 -0.46119821879E+02  0.22545354863E+02  0.13635163003E+03  0.12508998883E+03 0.  0.
          5    1    3    3  502    0  0.84263225561E+01 -0.48449672702E+02  0.71189036857E+02  0.86624044383E+02  0.41800000000E+01 0. -1.
         -5    1    3    3    0  502  0.91501022804E+01  0.23298508227E+01 -0.48643681993E+02  0.49727585649E+02  0.41800000000E+01 0. -1.
        -11    1    1    2    0    0 -0.10499836489E+02  0.26586113271E+02 -0.23155308871E+02  0.36786360435E+02  0.00000000000E+00 0. -1.
         11    1    1    2    0    0 -0.70765883471E+01  0.19533708609E+02  0.77459370407E+02  0.80197243958E+02  0.00000000000E+00 0.  1.
</event>
<event>
 7    1  0.2380582E-009  0.1595195E+03  0.7561462E-02  0.1189240E+00
          1   -1    0    0  501    0  0.00000000000E+00  0.00000000000E+00  0.54817050361E+03  0.54817050361E+03  0.00000000000E+00 0. -1.
         -1   -1    0    0    0  501 -0.00000000000E+00 -0.00000000000E+00 -0.55038224443E+02  0.55038224443E+02  0.00000000000E+00 0.  1.
         25    2    1    2    0    0 -0.29291597622E+02 -0.12797324890E+03  0.20133912516E+03  0.27096106502E+03  0.12508918943E+03 0.  0.
          5    1    3    3  502    0 -0.63760560198E+02 -0.91746841664E+02  0.73958089512E+02  0.13405283808E+03  0.41800000000E+01 0.  1.
         -5    1    3    3    0  502  0.34468962576E+02 -0.36226407237E+02  0.12738103564E+03  0.13690822694E+03  0.41800000000E+01 0.  1.
        -11    1    1    2    0    0  0.33877380903E+02  0.52923385348E+01  0.86486832249E+02  0.93035788471E+02  0.00000000000E+00 0. -1.
         11    1    1    2    0    0 -0.45857832802E+01  0.12268091037E+03  0.20530632176E+03  0.23921187456E+03  0.00000000000E+00 0.  1.
</event>
<event>
 7    1  0.2380582E-009  0.1257487E+03  0.7561462E-02  0.1233904E+00
          2   -1    0    0  501    0  0.00000000000E+00  0.00000000000E+00  0.12851958875E+03  0.12851958875E+03  0.00000000000E+00 0. -1.
         -2   -1    0    0    0  501 -0.00000000000E+00 -0.00000000000E+00 -0.13542984157E+03  0.13542984157E+03  0.00000000000E+00 0.  1.
         25    2    1    2    0    0 -0.29971093573E+02 -0.67550208159E+02 -0.10615030717E+02  0.14566483142E+03  0.12507704491E+03 0.  0.
          5    1    3    3  502    0 -0.74017210540E+02 -0.47040576324E+02 -0.30575375134E+02  0.92971443151E+02  0.41800000000E+01 0.  1.
         -5    1    3    3    0  502  0.44046116966E+02 -0.20509631836E+02  0.19960344416E+02  0.52693388267E+02  0.41800000000E+01 0.  1.
        -11    1    1    2    0    0  0.20258016888E+02  0.89057235543E+02  0.14249615799E+02  0.92437167855E+02  0.00000000000E+00 0. -1.
         11    1    1    2    0    0  0.97130766859E+01 -0.21507027383E+02 -0.10544837895E+02  0.25847431048E+02  0.00000000000E+00 0.  1.
</event>
<event>
 7    1  0.2380582E-009  0.1050850E+03  0.7561462E-02  0.1269952E+00
         -2   -1    0    0    0  501 -0.00000000000E+00  0.00000000000E+00  0.16889656468E+03  0.16889656468E+03  0.00000000000E+00 0.  1.
          2   -1    0    0  501    0  0.00000000000E+00 -0.00000000000E+00 -0.10998517058E+03  0.10998517058E+03  0.00000000000E+00 0. -1.
         25    2    1    2    0    0  0.10646645438E+02  0.73855462424E+02 -0.28804457847E+01  0.14568335610E+03  0.12508941957E+03 0.  0.
          5    1    3    3  502    0  0.56618911137E+02  0.26131884351E+02  0.32505602666E+02  0.70446171527E+02  0.41800000000E+01 0. -1.
         -5    1    3    3    0  502 -0.45972265700E+02  0.47723578073E+02 -0.35386048450E+02  0.75237184573E+02  0.41800000000E+01 0. -1.
        -11    1    1    2    0    0  0.11600024232E+02 -0.28022335251E+02  0.74716782928E+02  0.80637519098E+02  0.00000000000E+00 0.  1.
         11    1    1    2    0    0 -0.22246669669E+02 -0.45833127172E+02 -0.12924943036E+02  0.52560860060E+02  0.00000000000E+00 0. -1.
</event>
<event>
 7    1  0.2380582E-009  0.1020715E+03  0.7561462E-02  0.1275999E+00
          2   -1    0    0  501    0  0.00000000000E+00  0.00000000000E+00  0.11963145555E+03  0.11963145555E+03  0.00000000000E+00 0. -1.
         -2   -1    0    0    0  501 -0.00000000000E+00 -0.00000000000E+00 -0.16850601910E+03  0.16850601910E+03  0.00000000000E+00 0.  1.
         25    2    1    2    0    0 -0.53536481836E+02 -0.51759944023E+02  0.28009347093E+02  0.14824313229E+03  0.12508499531E+03 0.  0.
          5    1    3    3  502    0 -0.12262920831E+02  0.22126154149E+02 -0.34472184949E+02  0.42962191051E+02  0.41800000000E+01 0.  1.
         -5    1    3    3    0  502 -0.41273561005E+02 -0.73886098172E+02  0.62481532042E+02  0.10528094124E+03  0.41800000000E+01 0.  1.
        -11    1    1    2    0    0  0.31880061534E+00  0.39051922093E+02  0.70672099842E+01  0.39687525873E+02  0.00000000000E+00 0. -1.
         11    1    1    2    0    0  0.53217681221E+02  0.12708021930E+02 -0.83951120633E+02  0.10020681649E+03  0.00000000000E+00 0.  1.
</event>
<event>
 7    1  0.2380582E-009  0.1220081E+03  0.7561462E-02  0.1239821E+00
          2   -1    0    0  501    0  0.00000000000E+00  0.00000000000E+00  0.82557210514E+02  0.82557210514E+02  0.00000000000E+00 0. -1.
         -2   -1    0    0    0  501 -0.00000000000E+00 -0.00000000000E+00 -0.45510974078E+03  0.45510974078E+03  0.00000000000E+00 0.  1.
         25    2    1    2    0    0  0.10244510794E+03  0.11415642763E+02 -0.29214293006E+02  0.16470410452E+03  0.12509456459E+03 0.  0.
          5    1    3    3  502    0  0.13197893247E+02  0.21964827128E+02 -0.63362456706E+02  0.68475625859E+02  0.41800000000E+01 0.  1.
         -5    1    3    3    0  502  0.89247214695E+02 -0.10549184365E+02  0.34148163700E+02  0.96228478663E+02  0.41800000000E+01 0.  1.
        -11    1    1    2    0    0 -0.96431505256E+01 -0.31665540694E+02 -0.18795035575E+03  0.19084295388E+03  0.00000000000E+00 0.  1.
         11    1    1    2    0    0 -0.92801957417E+02  0.20249897931E+02 -0.15538788151E+03  0.18211989289E+03  0.00000000000E+00 0. -1.
</event>
<event>
 7    1  0.2380582E-009  0.1233771E+03  0.7561462E-02  0.1237628E+00
         -2   -1    0    0    0  501 -0.00000000000E+00  0.00000000000E+00  0.10227025036E+03  0.10227025036E+03  0.00000000000E+00 0.  1.
          2   -1    0    0  501    0  0.00000000000E+00 -0.00000000000E+00 -0.22798030702E+03  0.22798030702E+03  0.00000000000E+00 0. -1.
         25    2    1    2    0    0  0.60142600579E+02 -0.53585765615E+02  0.88201044013E+01  0.14903327713E+03  0.12507820262E+03 0.  0.
          5    1    3    3  502    0 -0.17373084575E+02 -0.45208389758E+02  0.41956206933E+02  0.64213847979E+02  0.41800000000E+01 0.  1.
         -5    1    3    3    0  502  0.77515685154E+02 -0.83773758570E+01 -0.33136102531E+02  0.84819429155E+02  0.41800000000E+01 0.  1.
        -11    1    1    2    0    0 -0.83079563173E+02  0.49668293786E+02 -0.96821700007E+02  0.13690724896E+03  0.00000000000E+00 0. -1.
         11    1    1    2    0    0  0.22936962594E+02  0.39174718290E+01 -0.37708461050E+02  0.44310031294E+02  0.00000000000E+00 0.  1.
</event>
<event>
 7    1  0.2380582E-009  0.1071756E+03  0.7561462E-02  0.1265891E+00
         -2   -1    0    0    0  501 -0.00000000000E+00  0.00000000000E+00  0.41890429491E+02  0.41890429491E+02  0.00000000000E+00 0.  1.
          2   -1    0    0  501    0  0.00000000000E+00 -0.00000000000E+00 -0.49228134652E+03  0.49228134652E+03  0.00000000000E+00 0. -1.
         25    2    1    2    0    0 -0.71260603458E+02  0.18750575379E+00 -0.36295865480E+03  0.39046782226E+03  0.12509207154E+03 0.  0.
          5    1    3    3  502    0 -0.76759037455E+01 -0.56352125561E+02 -0.11664240589E+03  0.12983606897E+03  0.41800000000E+01 0. -1.
         -5    1    3    3    0  502 -0.63584699712E+02  0.56539631315E+02 -0.24631624891E+03  0.26063175329E+03  0.41800000000E+01 0. -1.
        -11    1    1    2    0    0  0.51082801408E+02 -0.51944893969E+01  0.24930734853E+01  0.51406718775E+02  0.00000000000E+00 0.  1.
         11    1    1    2    0    0  0.20177802050E+02  0.50069836431E+01 -0.89925335713E+02  0.92297234974E+02  0.00000000000E+00 0. -1.
</event>
<event>
 7    1  0.2380582E-009  0.2555938E+03  0.7561462E-02  0.1109820E+00
         -2   -1    0    0    0  501 -0.00000000000E+00  0.00000000000E+00  0.52497363230E+02  0.52497363230E+02  0.00000000000E+00 0.  1.
          2   -1    0    0  501    0  0.00000000000E+00 -0.00000000000E+00 -0.13485726458E+04  0.13485726458E+04  0.00000000000E+00 0. -1.
         25    2    1    2    0    0 -0.97940694641E+02  0.21978654928E+03 -0.75011045897E+03  0.79762849034E+03  0.12508797323E+03 0.  0.
          5    1    3    3  502    0 -0.85927427070E+02  0.58021772963E+02 -0.37131347164E+03  0.38554016066E+03  0.41800000000E+01 0.  1.
         -5    1    3    3    0  502 -0.12013267571E+02  0.16176477632E+03 -0.37879698732E+03  0.41208832968E+03  0.41800000000E+01 0.  1.
        -11    1    1    2    0    0  0.19145971215E+01 -0.50465275113E+02 -0.20199674415E+03  0.20821405889E+03  0.00000000000E+00 0. -1.
         11    1    1    2    0    0  0.96026097519E+02 -0.16932127417E+03 -0.34396807947E+03  0.39522745980E+03  0.00000000000E+00 0.  1.
</event>
<event>
 7    1  0.2380582E-009  0.1004577E+03  0.7561462E-02  0.1279337E+00
          1   -1    0    0  501    0  0.00000000000E+00  0.00000000000E+00  0.46280000501E+03  0.46280000501E+03  0.00000000000E+00 0. -1.
         -1   -1    0    0    0  501 -0.00000000000E+00 -0.00000000000E+00 -0.26153110446E+02  0.26153110446E+02  0.00000000000E+00 0.  1.
         25    2    1    2    0    0 -0.20394318686E+02 -0.11788734907E+02  0.23575461846E+03  0.26792322943E+03  0.12509082395E+03 0.  0.
          5    1    3    3  502    0  0.21434878164E+02  0.46767930519E+02  0.68275881548E+02  0.85590663790E+02  0.41800000000E+01 0.  1.
         -5    1    3    3    0  502 -0.41829196850E+02 -0.58556665426E+02  0.16747873691E+03  0.18233256564E+03  0.41800000000E+01 0.  1.
        -11    1    1    2    0    0  0.25771399050E+02  0.40500790144E+02  0.58514281614E+02  0.75686195334E+02  0.00000000000E+00 0.  1.
         11    1    1    2    0    0 -0.53770803645E+01 -0.28712055236E+02  0.14237799449E+03  0.14534369069E+03  0.00000000000E+00 0. -1.
</event>
<event>
 7    1  0.2380582E-009  0.1205720E+03  0.7561462E-02  0.1242156E+00
         -2   -1    0    0    0  501 -0.00000000000E+00  0.00000000000E+00  0.99063896238E+02  0.99063896238E+02  0.00000000000E+00 0.  1.
          2   -1    0    0  501    0  0.00000000000E+00 -0.00000000000E+00 -0.25175213556E+03  0.25175213556E+03  0.00000000000E+00 0. -1.
         25    2    1    2    0    0 -0.41380366288E+02 -0.57787970253E+02  0.17709171679E+02  0.14496582513E+03  0.12509872691E+03 0.  0.
          5    1    3    3  502    0 -0.58589392128E+02  0.21042106468E+02  0.68725184952E+00  0.62397370374E+02  0.41800000000E+01 0.  1.
         -5    1    3    3    0  502  0.17209025840E+02 -0.78830076720E+02  0.17021919829E+02  0.82568454756E+02  0.41800000000E+01 0.  1.
        -11    1    1    2    0    0  0.42225371023E+02  0.72134287335E+02 -0.84851193491E+02  0.11910525767E+03  0.00000000000E+00 0.  1.
         11    1    1    2    0    0 -0.84500473434E+00 -0.14346317083E+02 -0.85546217511E+02  0.86744949002E+02  0.00000000000E+00 0. -1.
</event>
<event>
 7    1  0.2380582E-009  0.1007314E+03  0.7561462E-02  0.1278765E+00
          2   -1    0    0  501    0  0.00000000000E+00  0.00000000000E+00  0.31061758080E+03  0.31061758080E+03  0.00000000000E+00 0.  1.
         -2   -1    0    0    0  501 -0.00000000000E+00 -0.00000000000E+00 -0.38795550075E+02  0.38795550075E+02  0.00000000000E+00 0. -1.
         25    2    1    2    0    0 -0.16738928260E+02  0.73215703611E+01  0.13595392447E+03  0.18564539946E+03  0.12508775980E+03 0.  0.
          5    1    3    3  502    0 -0.59720466443E+02 -0.21335875945E+02  0.35972327175E+02  0.73028997233E+02  0.41800000000E+01 0. -1.
         -5    1    3    3    0  502  0.42981538183E+02  0.28657446306E+02  0.99981597292E+02  0.11261640223E+03  0.41800000000E+01 0. -1.
        -11    1    1    2    0    0 -0.12641227170E+01 -0.44633753194E+02  0.42603047477E+02  0.61715391798E+02  0.00000000000E+00 0. -1.
         11    1    1    2    0    0  0.18003050977E+02  0.37312182833E+02  0.93265058785E+02  0.10205233962E+03  0.00000000000E+00 0.  1.
</event>
<event>
 7    1  0.2380582E-009  0.1675401E+03  0.7561462E-02  0.1180438E+00
         -1   -1    0    0    0  501 -0.00000000000E+00  0.00000000000E+00  0.10118883361E+03  0.10118883361E+03  0.00000000000E+00 0.  1.
          1   -1    0    0  501    0  0.00000000000E+00 -0.00000000000E+00 -0.32102442048E+03  0.32102442048E+03  0.00000000000E+00 0. -1.
         25    2    1    2    0    0 -0.10584480480E+03 -0.75346476962E+02 -0.44911816148E+02  0.18586314560E+03  0.12509126016E+03 0.  0.
          5    1    3    3  502    0  0.72513045025E+01  0.24281576098E+02  0.66187997825E+01  0.26522768810E+02  0.41800000000E+01 0.  1.
         -5    1    3    3    0  502 -0.11309610931E+03 -0.99628053060E+02 -0.51530615930E+02  0.15934037679E+03  0.41800000000E+01 0.  1.
        -11    1    1    2    0    0  0.37104636701E+02  0.81554910125E+02 -0.91276346847E+02  0.12790359230E+03  0.00000000000E+00 0.  1.
         11    1    1    2    0    0  0.68740168102E+02 -0.62084331637E+01 -0.83647423876E+02  0.10844651619E+03  0.00000000000E+00 0. -1.
</event>
<event>
 7    1  0.2380582E-009  0.1339833E+03  0.7561462E-02  0.1221662E+00
          2   -1    0    0  501    0  0.00000000000E+00  0.00000000000E+00  0.24565705314E+04  0.24565705314E+04  0.00000000000E+00 0.  1.
         -2   -1    0    0    0  501 -0.00000000000E+00 -0.00000000000E+00 -0.12609462634E+02  0.12609462634E+02  0.00000000000E+00 0. -1.
         25    2    1    2    0    0  0.47091495209E+02  0.66362493926E+02  0.20812765484E+04  0.20866193630E+04  0.12508679161E+03 0.  0.
          5    1    3    3  502    0 -0.40750769690E+02  0.37475124354E+01  0.53547360774E+03  0.53705132535E+03  0.41800000000E+01 0. -1.
         -5    1    3    3    0  502  0.87842264899E+02  0.62614981491E+02  0.15458029407E+04  0.15495680376E+04  0.41800000000E+01 0. -1.
        -11    1    1    2    0    0  0.19897235934E+02 -0.43937781412E+02  0.10841136618E+03  0.11865687064E+03  0.00000000000E+00 0. -1.
         11    1    1    2    0    0 -0.66988731142E+02 -0.22424712514E+02  0.25427315414E+03  0.26390376039E+03  0.00000000000E+00 0.  1.
</event>
<event>
 7    1  0.2380582E-009  0.1362489E+03  0.7561462E-02  0.1218467E+00
         -2   -1    0    0    0  501 -0.00000000000E+00  0.00000000000E+00  0.52682951634E+02  0.52682951634E+02  0.00000000000E+00 0. -1.
          2   -1    0    0  501    0  0.00000000000E+00 -0.00000000000E+00 -0.43535622204E+03  0.43535622204E+03  0.00000000000E+00 0.  1.
         25    2    1    2    0    0 -0.71104036164E+02  0.71695497271E+02 -0.15698788975E+03  0.22469706720E+03  0.12509015226E+03 0.  0.
          5    1    3    3  502    0 -0.61488623616E+02  0.10112132475E+03 -0.15258914853E+03  0.19315096117E+03  0.41800000000E+01 0. -1.
         -5    1    3    3    0  502 -0.96154125478E+01 -0.29425827480E+02 -0.43987412276E+01  0.31546106031E+02  0.41800000000E+01 0. -1.
        -11    1    1    2    0    0  0.35119642855E+02  0.74451250468E+01 -0.12627692890E+03  0.13128092768E+03  0.00000000000E+00 0.  1.
         11    1    1    2    0    0  0.35984393309E+02 -0.79140622318E+02 -0.99408451753E+02  0.13206117879E+03  0.00000000000E+00 0. -1.
</event>
<event>
 7    1  0.2380582E-009  0.2311418E+03  0.7561462E-02  0.1125839E+00
         -2   -1    0    0    0  501 -0.00000000000E+00  0.00000000000E+00  0.32107996666E+02  0.32107996666E+02  0.00000000000E+00 0.  1.
          2   -1    0    0  501    0  0.00000000000E+00 -0.00000000000E+00 -0.22276471212E+04  0.22276471212E+04  0.00000000000E+00 0. -1.
         25    2    1    2    0    0  0.90139694584E+01 -0.21551911553E+03 -0.16091671139E+04  0.16283725026E+04  0.12509382784E+03 0.  0.
          5    1    3    3  502    0  0.43219346311E+01  0.61844032907E+01 -0.75249358008E+01  0.11446528811E+02  0.41800000000E+01 0.  1.
         -5    1    3    3    0  502  0.46920348273E+01 -0.22170351883E+03 -0.16016421781E+04  0.16169259738E+04  0.41800000000E+01 0.  1.
        -11    1    1    2    0    0 -0.43966213028E+02  0.16264848010E+03 -0.46259023719E+03  0.49231827461E+03  0.00000000000E+00 0. -1.
         11    1    1    2    0    0  0.34952243570E+02  0.52870635433E+02 -0.12378177339E+03  0.13906434067E+03  0.00000000000E+00 0.  1.
</event>
<event>
 7    1  0.2380582E-009  0.7407780E+02  0.7561462E-02  0.1346751E+00
          1   -1    0    0  501    0  0.00000000000E+00  0.00000000000E+00  0.78567078603E+02  0.78567078603E+02  0.00000000000E+00 0. -1.
         -1   -1    0    0    0  501 -0.00000000000E+00 -0.00000000000E+00 -0.18335626902E+03  0.18335626902E+03  0.00000000000E+00 0.  1.
         25    2    1    2    0    0 -0.77281893796E+01  0.45656826333E+02 -0.80651825696E+02  0.15587540820E+03  0.12509258648E+03 0.  0.
          5    1    3    3  502    0 -0.29948754214E+02  0.57836010702E+02 -0.10293019739E+03  0.12187711002E+03  0.41800000000E+01 0.  1.
         -5    1    3    3    0  502  0.22220564834E+02 -0.12179184369E+02  0.22278371694E+02  0.33998298175E+02  0.41800000000E+01 0.  1.
        -11    1    1    2    0    0 -0.10318898642E+02 -0.27759132932E+01  0.31651068917E+02  0.33406219891E+02  0.00000000000E+00 0. -1.
         11    1    1    2    0    0  0.18047088021E+02 -0.42880913039E+02 -0.55788433639E+02  0.72641719535E+02  0.00000000000E+00 0.  1.
</event>
<event>
 7    1  0.2380582E-009  0.1118504E+03  0.7561462E-02  0.1257181E+00
         -2   -1    0    0    0  501 -0.00000000000E+00  0.00000000000E+00  0.46652190278E+02  0.46652190278E+02  0.00000000000E+00 0.  1.
          2   -1    0    0  501    0  0.00000000000E+00 -0.00000000000E+00 -0.29792359961E+03  0.29792359961E+03  0.00000000000E+00 0. -1.
         25    2    1    2    0    0 -0.44142205274E+02  0.11314162191E+02 -0.15540371683E+03  0.20463303554E+03  0.12509124460E+03 0.  0.
          5    1    3    3  502    0 -0.52809359554E+02 -0.45240714849E+02 -0.54060232524E+02  0.88178976390E+02  0.41800000000E+01 0.  1.
         -5    1    3    3    0  502  0.86671542808E+01  0.56554877040E+02 -0.10134348431E+03  0.11645405915E+03  0.41800000000E+01 0.  1.
        -11    1    1    2    0    0  0.42757500688E+02 -0.45510479084E+02 -0.39161502423E+02  0.73709096071E+02  0.00000000000E+00 0.  1.
         11    1    1    2    0    0  0.13847045859E+01  0.34196316894E+02 -0.56706190077E+02  0.66233658278E+02  0.00000000000E+00 0. -1.
</event>
<event>
 7    1  0.2380582E-009  0.1043016E+03  0.7561462E-02  0.1271502E+00
         -1   -1    0    0    0  501 -0.00000000000E+00  0.00000000000E+00  0.58798583008E+02  0.58798583008E+02  0.00000000000E+00 0.  1.
          1   -1    0    0  501    0  0.00000000000E+00 -0.00000000000E+00 -0.26230657276E+03  0.26230657276E+03  0.00000000000E+00 0. -1.
         25    2    1    2    0    0  0.46403675280E+02  0.11387371996E+02 -0.16279820123E+03  0.21079004456E+03  0.12508483219E+03 0.  0.
          5    1    3    3  502    0  0.83509597407E+02 -0.79222720134E+01 -0.13921703039E+03  0.16258988039E+03  0.41800000000E+01 0. -1.
         -5    1    3    3    0  502 -0.37105922127E+02  0.19309644010E+02 -0.23581170839E+02  0.48200164178E+02  0.41800000000E+01 0. -1.
        -11    1    1    2    0    0 -0.62671470612E+02  0.83187803951E-01 -0.56906708196E+02  0.84652782509E+02  0.00000000000E+00 0. -1.
         11    1    1    2    0    0  0.16267795332E+02 -0.11470559800E+02  0.16196919675E+02  0.25662328695E+02  0.00000000000E+00 0.  1.
</event>
<event>
 7    1  0.2380582E-009  0.1048003E+03  0.7561462E-02  0.1270514E+00
         -2   -1    0    0    0  501 -0.00000000000E+00  0.00000000000E+00  0.21733595847E+02  0.21733595847E+02  0.00000000000E+00 0.  1.
          2   -1    0    0  501    0  0.00000000000E+00 -0.00000000000E+00 -0.93673558482E+03  0.93673558482E+03  0.00000000000E+00 0. -1.
         25    2    1    2    0    0 -0.83818297918E+02  0.28761459332E+02 -0.44696373001E+03  0.47252458506E+03  0.12510067518E+03 0.  0.
          5    1    3    3  502    0 -0.42716677743E+02 -0.76200032268E+01 -0.39309066801E+03  0.39550034726E+03  0.41800000000E+01 0.  1.
         -5    1    3    3    0  502 -0.41101620175E+02  0.36381462559E+02 -0.53873061997E+02  0.77024237795E+02  0.41800000000E+01 0.  1.
        -11    1    1    2    0    0  0.11261306166E+02 -0.36304818015E+02 -0.57186258089E+02  0.68666767377E+02  0.00000000000E+00 0.  1.
         11    1    1    2    0    0  0.72556991753E+02  0.75433586829E+01 -0.41085200087E+03  0.41727782823E+03  0.00000000000E+00 0. -1.
</event>
<event>
 7    1  0.2380582E-009  0.1071520E+03  0.7561462E-02  0.1265937E+00
         -2   -1    0    0    0  501 -0.00000000000E+00  0.00000000000E+00  0.15337075223E+03  0.15337075223E+03  0.00000000000E+00 0.  1.
          2   -1    0    0  501    0  0.00000000000E+00 -0.00000000000E+00 -0.12799939702E+03  0.12799939702E+03  0.00000000000E+00 0. -1.
         25    2    1    2    0    0  0.57993052722E+02  0.84507625754E+01 -0.55714654250E+02  0.14895379428E+03  0.12509396700E+03 0.  0.
          5    1    3    3  502    0  0.13106364286E+02 -0.56403450978E+02 -0.32949121953E+02  0.66755097966E+02  0.41800000000E+01 0.  1.
         -5    1    3    3    0  502  0.44886688436E+02  0.64854213553E+02 -0.22765532297E+02  0.82198696310E+02  0.41800000000E+01 0.  1.
        -11    1    1    2    0    0 -0.47590769704E+02  0.16389135854E+02  0.90775384698E+02  0.10379622152E+03  0.00000000000E+00 0.  1.
         11    1    1    2    0    0 -0.10402283018E+02 -0.24839898430E+02 -0.96893752416E+01  0.28620133448E+02  0.00000000000E+00 0. -1.
</event>
<event>
 7    1  0.2380582E-009  0.1087137E+03  0.7561462E-02  0.1262971E+00
          2   -1    0    0  501    0  0.00000000000E+00  0.00000000000E+00  0.54746959508E+03  0.54746959508E+03  0.00000000000E+00 0. -1.
         -2   -1    0    0    0  501 -0.00000000000E+00 -0.00000000000E+00 -0.26177724919E+02  0.26177724919E+02  0.00000000000E+00 0.  1.
         25    2    1    2    0    0 -0.21512463814E+02 -0.35836763969E+02  0.35194387547E+03  0.37584427123E+03  0.12508942795E+03 0.  0.
          5    1    3    3  502    0 -0.16323110188E+02  0.38839367525E+02  0.22045054343E+03  0.22447907451E+03  0.41800000000E+01 0.  1.
         -5    1    3    3    0  502 -0.51893536259E+01 -0.74676131494E+02  0.13149333204E+03  0.15136519672E+03  0.41800000000E+01 0.  1.
        -11    1    1    2    0    0 -0.29101357249E+02 -0.11045503500E+02  0.72451511141E+02  0.78855016378E+02  0.00000000000E+00 0.  1.
         11    1    1    2    0    0  0.50613821063E+02  0.46882267469E+02  0.96896483550E+02  0.11894803239E+03  0.00000000000E+00 0. -1.
</event>
<event>
 7    1  0.2380582E-009  0.2379645E+03  0.7561462E-02  0.1121156E+00
          2   -1    0    0  501    0  0.00000000000E+00  0.00000000000E+00  0.45946773011E+03  0.45946773011E+03  0.00000000000E+00 0. -1.
         -2   -1    0    0    0  501 -0.00000000000E+00 -0.00000000000E+00 -0.13559405717E+03  0.13559405717E+03  0.00000000000E+00 0.  1.
         25    2    1    2    0    0 -0.21115857450E+03 -0.76674104608E+02  0.17455092130E+03  0.31077725776E+03  0.12509043894E+03 0.  0.
          5    1    3    3  502    0 -0.13003229765E+03  0.11102667785E+02  0.55031016162E+02  0.14169528152E+03  0.41800000000E+01 0.  1.
         -5    1    3    3    0  502 -0.81126276849E+02 -0.87776772394E+02  0.11951990514E+03  0.16908197624E+03  0.41800000000E+01 0.  1.
        -11    1    1    2    0    0  0.12837422900E+03  0.58132587264E+02  0.14049200681E+03  0.19899081474E+03  0.00000000000E+00 0. -1.
         11    1    1    2    0    0  0.82784345499E+02  0.18541517344E+02  0.88307448219E+01  0.85293714770E+02  0.00000000000E+00 0.  1.
</event>
<event>
 7    1  0.2380582E-009  0.8600172E+02  0.7561462E-02  0.1312834E+00
         -2   -1    0    0    0  501 -0.00000000000E+00  0.00000000000E+00  0.67870631710E+02  0.67870631710E+02  0.00000000000E+00 0.  1.
          2   -1    0    0  501    0  0.00000000000E+00 -0.00000000000E+00 -0.22966117407E+03  0.22966117407E+03  0.00000000000E+00 0. -1.
         25    2    1    2    0    0  0.45563928655E+02  0.35148974811E+02 -0.60486390733E+02  0.15038624768E+03  0.12508356408E+03 0.  0.
          5    1    3    3  502    0  0.58622920794E+02  0.19127778448E+02 -0.92981006042E+02  0.11164881833E+03  0.41800000000E+01 0. -1.
         -5    1    3    3    0  502 -0.13058992139E+02  0.16021196363E+02  0.32494615309E+02  0.38737429351E+02  0.41800000000E+01 0. -1.
        -11    1    1    2    0    0  0.14275366431E+02 -0.24463307008E+02 -0.76354385519E+02  0.81438514626E+02  0.00000000000E+00 0. -1.
         11    1    1    2    0    0 -0.59839295086E+02 -0.10685667804E+02 -0.24949766108E+02  0.65707043470E+02  0.00000000000E+00 0.  1.
</event>
<event>
 7    1  0.2380582E-009  0.9340061E+02  0.7561462E-02  0.1294819E+00
         -1   -1    0    0    0  501 -0.00000000000E+00  0.00000000000E+00  0.36697289175E+02  0.36697289175E+02  0.00000000000E+00 0.  1.
          1   -1    0    0  501    0  0.00000000000E+00 -0.00000000000E+00 -0.41837067100E+03  0.41837067100E+03  0.00000000000E+00 0. -1.
         25    2    1    2    0    0 -0.91209690662E+01  0.76753120920E+01 -0.31665382251E+03  0.34067464795E+03  0.12508984752E+03 0.  0.
          5    1    3    3  502    0  0.43535552135E+02  0.39036631562E+02 -0.20523157161E+03  0.21344009297E+03  0.41800000000E+01 0. -1.
         -5    1    3    3    0  502 -0.52656521202E+02 -0.31361319470E+02 -0.11142225090E+03  0.12723455497E+03  0.41800000000E+01 0. -1.
        -11    1    1    2    0    0 -0.43646339249E+00  0.28920733311E+02  0.98144469056E+01  0.30543783060E+02  0.00000000000E+00 0.  1.
         11    1    1    2    0    0  0.95574324587E+01 -0.36596045403E+02 -0.74834006228E+02  0.83849529173E+02  0.00000000000E+00 0. -1.
</event>
<event>
 7    1  0.2380582E-009  0.7211330E+02  0.7561462E-02  0.1353051E+00
          2   -1    0    0  501    0  0.00000000000E+00  0.00000000000E+00  0.45516572071E+02  0.45516572071E+02  0.00000000000E+00 0. -1.
         -2   -1    0    0    0  501 -0.00000000000E+00 -0.00000000000E+00 -0.25869715418E+03  0.25869715418E+03  0.00000000000E+00 0.  1.
         25    2    1    2    0    0 -0.15893234960E+01 -0.11224301776E+02 -0.13120841459E+03  0.18164255776E+03  0.12509939980E+03 0.  0.
          5    1    3    3  502    0  0.25338712233E+02 -0.28810583929E+02  0.73933882414E+01  0.39296751439E+02  0.41800000000E+01 0.  1.
         -5    1    3    3    0  502 -0.26928035729E+02  0.17586282153E+02 -0.13860180283E+03  0.14234580632E+03  0.41800000000E+01 0.  1.
        -11    1    1    2    0    0  0.33907979543E+02 -0.89898404127E+01 -0.76370970280E+02  0.84042212065E+02  0.00000000000E+00 0.  1.
         11    1    1    2    0    0 -0.32318656047E+02  0.20214142189E+02 -0.56011972398E+01  0.38528956431E+02  0.00000000000E+00 0. -1.
</event>
<event>
 7    1  0.2380582E-009  0.1038711E+03  0.7561462E-02  0.1272360E+00
          2   -1    0    0  501    0  0.00000000000E+00  0.00000000000E+00  0.57201828731E+03  0.57201828731E+03  0.00000000000E+00 0. -1.
         -2   -1    0    0    0  501 -0.00000000000E+00 -0.00000000000E+00 -0.25197270018E+02  0.25197270018E+02  0.00000000000E+00 0.  1.
         25    2    1    2    0    0  0.40961038345E+02 -0.19315339716E+02  0.37907528168E+03  0.40174172359E+03  0.12508978489E+03 0.  0.
          5    1    3    3  502    0 -0.23548385635E+02 -0.44645135637E+02  0.79780350183E+02  0.94499160194E+02  0.41800000000E+01 0.  1.
         -5    1    3    3    0  502  0.64509423980E+02  0.25329795920E+02  0.29929493149E+03  0.30724256339E+03  0.41800000000E+01 0.  1.
        -11    1    1    2    0    0  0.43927740289E+01 -0.24328519637E+02  0.99959557187E+02  0.10297128922E+03  0.00000000000E+00 0. -1.
         11    1    1    2    0    0 -0.45353812374E+02  0.43643859353E+02  0.67786178432E+02  0.92502544519E+02  0.00000000000E+00 0.  1.
</event>
<event>
 7    1  0.2380582E-009  0.7188280E+02  0.7561462E-02  0.1353805E+00
          1   -1    0    0  501    0  0.00000000000E+00  0.00000000000E+00  0.72231247292E+03  0.72231247292E+03  0.00000000000E+00 0. -1.
         -1   -1    0    0    0  501 -0.00000000000E+00 -0.00000000000E+00 -0.33532396106E+02  0.33532396106E+02  0.00000000000E+00 0.  1.
         25    2    1    2    0    0  0.24655644492E+02  0.12313964067E+02  0.63476343313E+03  0.64755900958E+03  0.12509404595E+03 0.  0.
          5    1    3    3  502    0 -0.15692725413E+00 -0.14497650645E+02  0.58742131306E+03  0.58761507633E+03  0.41800000000E+01 0. -1.
         -5    1    3    3    0  502  0.24812571746E+02  0.26811614711E+02  0.47342120079E+02  0.59943933251E+02  0.41800000000E+01 0. -1.
        -11    1    1    2    0    0  0.33173145765E+02 -0.63036376681E+01  0.95525426003E+01  0.35091943776E+02  0.00000000000E+00 0.  1.
         11    1    1    2    0    0 -0.57828790257E+02 -0.60103263984E+01  0.44464101082E+02  0.73193915669E+02  0.00000000000E+00 0. -1.
</event>
<event>
 7    1  0.2380582E-009  0.7819973E+02  0.7561462E-02  0.1334239E+00
         -3   -1    0    0    0  501 -0.00000000000E+00  0.00000000000E+00  0.15778121349E+03  0.15778121349E+03  0.00000000000E+00 0.  1.
          3   -1    0    0  501    0  0.00000000000E+00 -0.00000000000E+00 -0.74867601194E+02  0.74867601194E+02  0.00000000000E+00 0. -1.
         25    2    1    2    0    0 -0.13251154874E+02 -0.65579944350E+00  0.51284482714E+02  0.13584288122E+03  0.12508863671E+03 0.  0.
          5    1    3    3  502    0 -0.12219713255E+02  0.61749552680E+02  0.29076533628E+02  0.69463989636E+02  0.41800000000E+01 0.  1.
         -5    1    3    3    0  502 -0.10314416196E+01 -0.62405352124E+02  0.22207949086E+02  0.66378891586E+02  0.41800000000E+01 0.  1.
        -11    1    1    2    0    0  0.10256247288E+02 -0.13125349557E+02  0.61530674916E+02  0.63745504665E+02  0.00000000000E+00 0.  1.
         11    1    1    2    0    0  0.29949075861E+01  0.13781149001E+02 -0.29901545331E+02  0.33060428800E+02  0.00000000000E+00 0. -1.
</event>
<event>
 7    1  0.2380582E-009  0.6582114E+02  0.7561462E-02  0.1374909E+00
         -2   -1    0    0    0  501 -0.00000000000E+00  0.00000000000E+00  0.15023998556E+02  0.15023998556E+02  0.00000000000E+00 0.  1.
          2   -1    0    0  501    0  0.00000000000E+00 -0.00000000000E+00 -0.89218375488E+03  0.89218375488E+03  0.00000000000E+00 0. -1.
         25    2    1    2    0    0  0.20407424548E+02 -0.18378884979E+02 -0.57755257478E+03  0.59158085806E+03  0.12508672430E+03 0.  0.
          5    1    3    3  502    0  0.31004964551E+01 -0.23791546505E+02 -0.57149058636E+03  0.57200927743E+03  0.41800000000E+01 0.  1.
         -5    1    3    3    0  502  0.17306928093E+02  0.54126615255E+01 -0.60619884184E+01  0.19571580630E+02  0.41800000000E+01 0.  1.
        -11    1    1    2    0    0 -0.41569109349E+02  0.40520701608E+02 -0.25495222437E+03  0.26147763732E+03  0.00000000000E+00 0. -1.
         11    1    1    2    0    0  0.21161684801E+02 -0.22141816629E+02 -0.44654957172E+02  0.54149258050E+02  0.00000000000E+00 0.  1.
</event>
<event>
 7    1  0.2380582E-009  0.1127801E+03  0.7561462E-02  0.1255507E+00
         -2   -1    0    0    0  501 -0.00000000000E+00  0.00000000000E+00  0.17856957559E+03  0.17856957559E+03  0.00000000000E+00 0.  1.
          2   -1    0    0  501    0  0.00000000000E+00 -0.00000000000E+00 -0.82724543021E+02  0.82724543021E+02  0.00000000000E+00 0. -1.
         25    2    1    2    0    0 -0.10104791009E+02 -0.38689460191E+02  0.12372098419E+02  0.13191092823E+03  0.12509373700E+03 0.  0.
          5    1    3    3  502    0 -0.16757565119E+02  0.44284556195E+02  0.97594361790E+01  0.48524807065E+02  0.41800000000E+01 0.  1.
         -5    1    3    3    0  502  0.66527741098E+01 -0.82974016387E+02  0.26126622402E+01  0.83386121163E+02  0.41800000000E+01 0.  1.
        -11    1    1    2    0    0 -0.69569722036E+01  0.63879551994E+02  0.72892451721E+02  0.97171529489E+02  0.00000000000E+00 0. -1.
         11    1    1    2    0    0  0.17061763212E+02 -0.25190091803E+02  0.10580482425E+02  0.32211660890E+02  0.00000000000E+00 0.  1.
</event>
<event>
 7    1  0.2380582E-009  0.1105698E+03  0.7561462E-02  0.1259518E+00
          2   -1    0    0  501    0  0.00000000000E+00  0.00000000000E+00  0.68275683265E+03  0.68275683265E+03  0.00000000000E+00 0. -1.
         -2   -1    0    0    0  501 -0.00000000000E+00 -0.00000000000E+00 -0.25391354672E+02  0.25391354672E+02  0.00000000000E+00 0.  1.
         25    2    1    2    0    0  0.44365331699E+02 -0.46637413176E+02  0.45138233314E+03  0.47279773923E+03  0.12509340743E+03 0.  0.
          5    1    3    3  502    0  0.52999479737E+02 -0.71279845373E+02  0.18666919208E+03  0.20676706914E+03  0.41800000000E+01 0.  1.
         -5    1    3    3    0  502 -0.86341480382E+01  0.24642432197E+02  0.26471314106E+03  0.26603067009E+03  0.41800000000E+01 0.  1.
        -11    1    1    2    0    0  0.95264196533E+01  0.50833386024E+02  0.57515667887E+02  0.77348806446E+02  0.00000000000E+00 0.  1.
         11    1    1    2    0    0 -0.53891751353E+02 -0.41959728478E+01  0.14846747695E+03  0.15800164165E+03  0.00000000000E+00 0. -1.
</event>
<event>
 7    1  0.2380582E-009  0.1124721E+03  0.7561462E-02  0.1256059E+00
         -3   -1    0    0    0  501 -0.00000000000E+00  0.00000000000E+00  0.32893478511E+02  0.32893478511E+02  0.00000000000E+00 0.  1.
          3   -1    0    0  501    0  0.00000000000E+00 -0.00000000000E+00 -0.39873420599E+03  0.39873420599E+03  0.00000000000E+00 0. -1.
         25    2    1    2    0    0  0.32856922174E+02  0.17662380828E+02 -0.17994093277E+03  0.22230143804E+03  0.12509057933E+03 0.  0.
          5    1    3    3  502    0 -0.37365394638E+02 -0.27562990632E+02 -0.57478421152E+02  0.74007651410E+02  0.41800000000E+01 0.  1.
         -5    1    3    3    0  502  0.70222316812E+02  0.45225371460E+02 -0.12246251161E+03  0.14829378663E+03  0.41800000000E+01 0.  1.
        -11    1    1    2    0    0 -0.62941866022E+02 -0.11437539318E+02 -0.14199077803E+03  0.15573656234E+03  0.00000000000E+00 0.  1.
         11    1    1    2    0    0  0.30084943848E+02 -0.62248415100E+01 -0.43909016678E+02  0.53589684117E+02  0.00000000000E+00 0. -1.
</event>
<event>
 7    1  0.2380582E-009  0.1097194E+03  0.7561462E-02  0.1261090E+00
          1   -1    0    0  501    0  0.00000000000E+00  0.00000000000E+00  0.51028248311E+03  0.51028248311E+03  0.00000000000E+00 0. -1.
         -1   -1    0    0    0  501 -0.00000000000E+00 -0.00000000000E+00 -0.35703054039E+02  0.35703054039E+02  0.00000000000E+00 0.  1.
         25    2    1    2    0    0  0.41824018410E+02 -0.83496615074E+01  0.12248024605E+03  0.18018844471E+03  0.12508996591E+03 0.  0.
          5    1    3    3  502    0  0.82111131470E+02  0.12914880391E+01  0.48966244597E+02  0.95703037374E+02  0.41800000000E+01 0. -1.
         -5    1    3    3    0  502 -0.40287113060E+02 -0.96411495465E+01  0.73514001450E+02  0.84485407334E+02  0.41800000000E+01 0. -1.
        -11    1    1    2    0    0  0.12097404929E+02  0.33836941582E+02  0.88139556555E+02  0.95183334946E+02  0.00000000000E+00 0.  1.
         11    1    1    2    0    0 -0.53921423339E+02 -0.25487280075E+02  0.26395962647E+03  0.27061375750E+03  0.00000000000E+00 0. -1.
</event>
<event>
 7    1  0.2380582E-009  0.7921133E+02  0.7561462E-02  0.1331305E+00
          3   -1    0    0  501    0  0.00000000000E+00  0.00000000000E+00  0.59999941794E+02  0.59999941794E+02  0.00000000000E+00 0. -1.
         -3   -1    0    0    0  501 -0.00000000000E+00 -0.00000000000E+00 -0.29874263710E+03  0.29874263710E+03  0.00000000000E+00 0.  1.
         25    2    1    2    0    0  0.23115701063E+02  0.91963634843E+01 -0.32093464551E+02  0.13151350004E+03  0.12508757528E+03 0.  0.
          5    1    3    3  502    0 -0.89257522965E+01  0.41548048557E+02  0.31589206995E+02  0.53115532489E+02  0.41800000000E+01 0. -1.
         -5    1    3    3    0  502  0.32041453360E+02 -0.32351685073E+02 -0.63682671546E+02  0.78397967548E+02  0.41800000000E+01 0. -1.
        -11    1    1    2    0    0  0.12613355496E+02  0.20142207781E+02 -0.10992703085E+02  0.26184819882E+02  0.00000000000E+00 0. -1.
         11    1    1    2    0    0 -0.35729056559E+02 -0.29338571265E+02 -0.19565652767E+03  0.20104425897E+03  0.00000000000E+00 0.  1.
</event>
<event>
 7    1  0.2380582E-009  0.1257816E+03  0.7561462E-02  0.1233853E+00
          3   -1    0    0  501    0  0.00000000000E+00  0.00000000000E+00  0.19021878324E+03  0.19021878324E+03  0.00000000000E+00 0. -1.
         -3   -1    0    0    0  501 -0.00000000000E+00 -0.00000000000E+00 -0.89818905081E+02  0.89818905081E+02  0.00000000000E+00 0.  1.
         25    2    1    2    0    0  0.45717473752E+02 -0.56078333116E+02  0.52907062363E+02  0.15388776874E+03  0.12508965292E+03 0.  0.
          5    1    3    3  502    0  0.58373917721E+02 -0.90139940439E+02  0.44727641926E+02  0.11640772090E+03  0.41800000000E+01 0.  1.
         -5    1    3    3    0  502 -0.12656443969E+02  0.34061607323E+02  0.81794204366E+01  0.37480047840E+02  0.41800000000E+01 0.  1.
        -11    1    1    2    0    0 -0.68720477452E+02  0.41401101306E+02  0.11599499281E+02  0.81062343873E+02  0.00000000000E+00 0.  1.
         11    1    1    2    0    0  0.23003003700E+02  0.14677231810E+02  0.35893316515E+02  0.45087575709E+02  0.00000000000E+00 0. -1.
</event>
<event>
 7    1  0.2380582E-009  0.9464464E+02  0.7561462E-02  0.1291978E+00
          2   -1    0    0  501    0  0.00000000000E+00  0.00000000000E+00  0.36644922250E+03  0.36644922250E+03  0.00000000000E+00 0.  1.
         -2   -1    0    0    0  501 -0.00000000000E+00 -0.00000000000E+00 -0.39952012067E+02  0.39952012067E+02  0.00000000000E+00 0. -1.
         25    2    1    2    0    0 -0.32205407109E+02 -0.17068245365E+02  0.11308060530E+03  0.17251963899E+03  0.12508912540E+03 0.  0.
          5    1    3    3  502    0 -0.35042958140E+02  0.29991997157E+02 -0.37500318059E+01  0.46465728739E+02  0.41800000000E+01 0.  1.
         -5    1    3    3    0  502  0.28375510314E+01 -0.47060242522E+02  0.11683063711E+03  0.12605391025E+03  0.41800000000E+01 0.  1.
        -11    1    1    2    0    0 -0.27774106196E+02 -0.10422182828E+02  0.69011113813E+02  0.75116953476E+02  0.00000000000E+00 0.  1.
         11    1    1    2    0    0  0.59979513305E+02  0.27490428194E+02  0.14440549131E+03  0.15876464210E+03  0.00000000000E+00 0. -1.
</event>
<event>
 7    1  0.2380582E-009  0.1815637E+03  0.7561462E-02  0.1166298E+00
          4   -1    0    0  501    0  0.00000000000E+00  0.00000000000E+00  0.86083917868E+02  0.86083917868E+02  0.00000000000E+00 0. -1.
         -4   -1    0    0    0  501 -0.00000000000E+00 -0.00000000000E+00 -0.51824989654E+03  0.51824989654E+03  0.00000000000E+00 0.  1.
         25    2    1    2    0    0  0.18194366155E+02 -0.15230500810E+03 -0.87555491587E+02  0.21643572543E+03  0.12510239279E+03 0.  0.
          5    1    3    3  502    0 -0.53835367205E+02 -0.61213184949E+02 -0.32660018578E+02  0.87917290605E+02  0.41800000000E+01 0.  1.
         -5    1    3    3    0  502  0.72029733359E+02 -0.91091823151E+02 -0.54895473009E+02  0.12851843482E+03  0.41800000000E+01 0.  1.
        -11    1    1    2    0    0 -0.39814698211E+02  0.73628416729E+02 -0.10207827452E+03  0.13200881817E+03  0.00000000000E+00 0. -1.
         11    1    1    2    0    0  0.21620332056E+02  0.78676591371E+02 -0.24253221256E+03  0.25588927081E+03  0.00000000000E+00 0.  1.
</event>
<event>
 7    1  0.2380582E-009  0.2385140E+03  0.7561462E-02  0.1120787E+00
         -1   -1    0    0    0  501 -0.00000000000E+00  0.00000000000E+00  0.10204833103E+03  0.10204833103E+03  0.00000000000E+00 0.  1.
          1   -1    0    0  501    0  0.00000000000E+00 -0.00000000000E+00 -0.71344365085E+03  0.71344365085E+03  0.00000000000E+00 0. -1.
         25    2    1    2    0    0 -0.20041838805E+03 -0.95537962027E+02 -0.21128542720E+03  0.33103707432E+03  0.12509588471E+03 0.  0.
          5    1    3    3  502    0 -0.16857179418E+03 -0.98052505900E+02 -0.10825336375E+03  0.22308520092E+03  0.41800000000E+01 0.  1.
         -5    1    3    3    0  502 -0.31846593874E+02  0.25145438732E+01 -0.10303206345E+03  0.10795187341E+03  0.41800000000E+01 0.  1.
        -11    1    1    2    0    0  0.18759908689E+03  0.11960431850E+03 -0.39939068513E+03  0.45717778793E+03  0.00000000000E+00 0. -1.
         11    1    1    2    0    0  0.12819301166E+02 -0.24066356470E+02 -0.71920748456E+00  0.27277119634E+02  0.00000000000E+00 0.  1.
</event>
<event>
 7    1  0.2380582E-009  0.2774669E+03  0.7561462E-02  0.1097081E+00
          4   -1    0    0  501    0  0.00000000000E+00  0.00000000000E+00  0.69360825493E+03  0.69360825493E+03  0.00000000000E+00 0. -1.
         -4   -1    0    0    0  501 -0.00000000000E+00 -0.00000000000E+00 -0.11744406179E+03  0.11744406179E+03  0.00000000000E+00 0.  1.
         25    2    1    2    0    0  0.36708629053E+02  0.26040623862E+03  0.26978316103E+03  0.39697501964E+03  0.12508908699E+03 0.  0.
          5    1    3    3  502    0  0.64192870854E+02  0.16840791000E+03  0.23176180242E+03  0.29362042552E+03  0.41800000000E+01 0. -1.
         -5    1    3    3    0  502 -0.27484241801E+02  0.91998328618E+02  0.38021358611E+02  0.10335459412E+03  0.41800000000E+01 0. -1.
        -11    1    1    2    0    0 -0.50744156913E+02 -0.64151059741E+02  0.90174746648E+02  0.12174486790E+03  0.00000000000E+00 0.  1.
         11    1    1    2    0    0  0.14035527860E+02 -0.19625517888E+03  0.21620628546E+03  0.29233242919E+03  0.00000000000E+00 0. -1.
</event>
<event>
 7    1  0.2380582E-009  0.9306713E+02  0.7561462E-02  0.1295590E+00
          2   -1    0    0  501    0  0.00000000000E+00  0.00000000000E+00  0.80787921123E+03  0.80787921123E+03  0.00000000000E+00 0. -1.
         -2   -1    0    0    0  501 -0.00000000000E+00 -0.00000000000E+00 -0.15408715661E+02  0.15408715661E+02  0.00000000000E+00 0.  1.
         25    2    1    2    0    0 -0.26427251974E+02  0.14449758796E+02  0.48555511499E+03  0.50231349567E+03  0.12509149879E+03 0.  0.
          5    1    3    3  502    0  0.29612441483E+02  0.22529973844E+02  0.38517450802E+03  0.38699014256E+03  0.41800000000E+01 0. -1.
         -5    1    3    3    0  502 -0.56039693457E+02 -0.80802150485E+01  0.10038060697E+03  0.11532335311E+03  0.41800000000E+01 0. -1.
        -11    1    1    2    0    0 -0.12216407032E+02 -0.42465272277E+02  0.18100913244E+03  0.18632457159E+03  0.00000000000E+00 0. -1.
         11    1    1    2    0    0  0.38643659007E+02  0.28015513482E+02  0.12590624814E+03  0.13464985962E+03  0.00000000000E+00 0.  1.
</event>
<event>
 7    1  0.2646124E-009  0.1085315E+03  0.7561462E-02  0.1263314E+00
         -1   -1    0    0    0  501 -0.00000000000E+00  0.00000000000E+00  0.50960610672E+02  0.50960610672E+02  0.00000000000E+00 0.  1.
          1   -1    0    0  501    0  0.00000000000E+00 -0.00000000000E+00 -0.32334429211E+03  0.32334429211E+03  0.00000000000E+00 0. -1.
         25    2    1    2    0    0 -0.40566073470E+02 -0.34986239123E+02 -0.21459762844E+03  0.25410455481E+03  0.12508932567E+03 0.  0.
          5    1    3    3  502    0  0.31157469975E+02 -0.22757309135E+02 -0.14981122758E+02  0.41600354487E+02  0.41800000000E+01 0. -1.
         -5    1    3    3    0  502 -0.71723543446E+02 -0.12228929989E+02 -0.19961650568E+03  0.21250420032E+03  0.41800000000E+01 0. -1.
        -11    1    1    2    0    0  0.32561301045E+02  0.65865882248E+02 -0.41456174540E+02  0.84363304686E+02  0.00000000000E+00 0.  1.
         11    1    1    2    0    0  0.80047724257E+01 -0.30879643125E+02 -0.16329878454E+02  0.35837043285E+02  0.00000000000E+00 0. -1.
</event>
<event>
 7    1  0.2380582E-009  0.2207378E+03  0.7561462E-02  0.1133334E+00
         -1   -1    0    0    0  501 -0.00000000000E+00  0.00000000000E+00  0.73459351726E+02  0.73459351726E+02  0.00000000000E+00 0. -1.
          1   -1    0    0  501    0  0.00000000000E+00 -0.00000000000E+00 -0.82445678081E+03  0.82445678081E+03  0.00000000000E+00 0.  1.
         25    2    1    2    0    0  0.13817675588E+03  0.14720315406E+03 -0.22361824017E+03  0.32620996487E+03  0.12508492879E+03 0.  0.
          5    1    3    3  502    0  0.50025528951E+02 -0.34488482890E+01 -0.10105314757E+03  0.11288781659E+03  0.41800000000E+01 0.  1.
         -5    1    3    3    0  502  0.88151226932E+02  0.15065200235E+03 -0.12256509260E+03  0.21332214827E+03  0.41800000000E+01 0.  1.
        -11    1    1    2    0    0 -0.86846390751E+02 -0.35867214471E+02 -0.28491666630E+03  0.30001043214E+03  0.00000000000E+00 0.  1.
         11    1    1    2    0    0 -0.51330365132E+02 -0.11133593959E+03 -0.24246252262E+03  0.27169573553E+03  0.00000000000E+00 0. -1.
</event>
<event>
 7    1  0.2380582E-009  0.1097069E+03  0.7561462E-02  0.1261114E+00
         -1   -1    0    0    0  501 -0.00000000000E+00  0.00000000000E+00  0.35003562212E+03  0.35003562212E+03  0.00000000000E+00 0.  1.
          1   -1    0    0  501    0  0.00000000000E+00 -0.00000000000E+00 -0.39639942528E+02  0.39639942528E+02  0.00000000000E+00 0. -1.
         25    2    1    2    0    0 -0.59104939328E+02  0.42459378266E+02  0.16876514565E+03  0.22231958804E+03  0.12509249452E+03 0.  0.
          5    1    3    3  502    0 -0.94298183994E+02  0.35329926928E+02  0.15222261116E+03  0.18256381621E+03  0.41800000000E+01 0. -1.
         -5    1    3    3    0  502  0.35193244666E+02  0.71294513384E+01  0.16542534483E+02  0.39755771828E+02  0.41800000000E+01 0. -1.
        -11    1    1    2    0    0  0.69388086501E+01 -0.27278390268E+02  0.81952167127E+02  0.86651112733E+02  0.00000000000E+00 0.  1.
         11    1    1    2    0    0  0.52166130678E+02 -0.15180987998E+02  0.59678366814E+02  0.80704863869E+02  0.00000000000E+00 0. -1.
</event>
<event>
 7    1  0.2380582E-009  0.1200609E+03  0.7561462E-02  0.1242997E+00
          2   -1    0    0  501    0  0.00000000000E+00  0.00000000000E+00  0.73358005888E+03  0.73358005888E+03  0.00000000000E+00 0. -1.
         -2   -1    0    0    0  501 -0.00000000000E+00 -0.00000000000E+00 -0.24826148434E+02  0.24826148434E+02  0.00000000000E+00 0.  1.
         25    2    1    2    0    0  0.29218520835E+02 -0.55061335533E+02  0.24986805739E+03  0.28629868433E+03  0.12508963952E+03 0.  0.
          5    1    3    3  502    0 -0.33966809889E+02 -0.56960158235E+02  0.18055934134E+03  0.19239893957E+03  0.41800000000E+01 0. -1.
         -5    1    3    3    0  502  0.63185330724E+02  0.18988227013E+01  0.69308716049E+02  0.93899744764E+02  0.41800000000E+01 0. -1.
        -11    1    1    2    0    0 -0.47877006115E+02 -0.43238912078E+01  0.17542003478E+03  0.18188758163E+03  0.00000000000E+00 0.  1.
         11    1    1    2    0    0  0.18658485280E+02  0.59385226741E+02  0.28346581827E+03  0.29021994134E+03  0.00000000000E+00 0. -1.
</event>
<event>
 7    1  0.2380582E-009  0.2052577E+03  0.7561462E-02  0.1145377E+00
         -2   -1    0    0    0  501 -0.00000000000E+00  0.00000000000E+00  0.98961008534E+02  0.98961008534E+02  0.00000000000E+00 0.  1.
          2   -1    0    0  501    0  0.00000000000E+00 -0.00000000000E+00 -0.72172740221E+03  0.72172740221E+03  0.00000000000E+00 0. -1.
         25    2    1    2    0    0 -0.68718674481E+02  0.17359556390E+03 -0.55962438005E+03  0.60306291217E+03  0.12509097992E+03 0.  0.
          5    1    3    3  502    0  0.19192287992E+02  0.35773804732E+02 -0.35735465449E+02  0.54245782456E+02  0.41800000000E+01 0. -1.
         -5    1    3    3    0  502 -0.87910962473E+02  0.13782175917E+03 -0.52388891460E+03  0.54881712971E+03  0.41800000000E+01 0. -1.
        -11    1    1    2    0    0  0.64807335908E+02 -0.48311502628E+02 -0.98840365274E+01  0.81435165940E+02  0.00000000000E+00 0.  1.
         11    1    1    2    0    0  0.39113385734E+01 -0.12528406128E+03 -0.53257977102E+02  0.13619033264E+03  0.00000000000E+00 0. -1.
</event>
<event>
 7    1  0.2380582E-009  0.1104282E+03  0.7561462E-02  0.1259779E+00
         -2   -1    0    0    0  501 -0.00000000000E+00  0.00000000000E+00  0.48766004637E+02  0.48766004637E+02  0.00000000000E+00 0.  1.
          2   -1    0    0  501    0  0.00000000000E+00 -0.00000000000E+00 -0.29453223512E+03  0.29453223512E+03  0.00000000000E+00 0. -1.
         25    2    1    2    0    0 -0.93724924969E+01 -0.56840742341E+02 -0.13385868264E+03  0.19205687752E+03  0.12509589793E+03 0.  0.
          5    1    3    3  502    0 -0.52841462673E+02 -0.69328565196E+02 -0.11103036432E+03  0.14122281802E+03  0.41800000000E+01 0.  1.
         -5    1    3    3    0  502  0.43468970177E+02  0.12487822855E+02 -0.22828318327E+02  0.50834059503E+02  0.41800000000E+01 0.  1.
        -11    1    1    2    0    0  0.24393645447E+02 -0.46795858708E+01 -0.26788024087E+01  0.24982482753E+02  0.00000000000E+00 0.  1.
         11    1    1    2    0    0 -0.15021152951E+02  0.61520328212E+02 -0.10922874544E+03  0.12625887949E+03  0.00000000000E+00 0. -1.
</event>
<event>
 7    1  0.2380582E-009  0.1092537E+03  0.7561462E-02  0.1261958E+00
         -1   -1    0    0    0  501 -0.00000000000E+00  0.00000000000E+00  0.72442893675E+02  0.72442893675E+02  0.00000000000E+00 0.  1.
          1   -1    0    0  501    0  0.00000000000E+00 -0.00000000000E+00 -0.23792042862E+03  0.23792042862E+03  0.00000000000E+00 0. -1.
         25    2    1    2    0    0  0.17944345250E+02  0.16659552074E+02 -0.17009301890E+03  0.21255166071E+03  0.12508810172E+03 0.  0.
          5    1    3    3  502    0  0.32032038156E+02  0.66695623002E+02 -0.11392505125E+03  0.13590712748E+03  0.41800000000E+01 0.  1.
         -5    1    3    3    0  502 -0.14087692906E+02 -0.50036070929E+02 -0.56167967649E+02  0.76644533237E+02  0.41800000000E+01 0.  1.
        -11    1    1    2    0    0 -0.25238276529E+01  0.36659888676E+02  0.17697535063E+02  0.40786270865E+02  0.00000000000E+00 0.  1.
         11    1    1    2    0    0 -0.15420517598E+02 -0.53319440750E+02 -0.13082051102E+02  0.57025390712E+02  0.00000000000E+00 0. -1.
</event>
<event>
 7    1  0.2457103E-009  0.1071453E+03  0.7561462E-02  0.1265950E+00
         -1   -1    0    0    0  501 -0.00000000000E+00  0.00000000000E+00  0.35846842554E+02  0.35846842554E+02  0.00000000000E+00 0.  1.
          1   -1    0    0  501    0  0.00000000000E+00 -0.00000000000E+00 -0.41409035005E+03  0.41409035005E+03  0.00000000000E+00 0. -1.
         25    2    1    2    0    0  0.48796685184E+02 -0.24532171983E+02 -0.21790543403E+03  0.25712622073E+03  0.12509265069E+03 0.  0.
          5    1    3    3  502    0  0.64924473933E+02  0.18875540452E+02 -0.19265323617E+03  0.20421609915E+03  0.41800000000E+01 0.  1.
         -5    1    3    3    0  502 -0.16127788749E+02 -0.43407712434E+02 -0.25252197859E+02  0.52910121578E+02  0.41800000000E+01 0.  1.
        -11    1    1    2    0    0 -0.29254556539E+02  0.55902306133E+02 -0.13177417830E+03  0.14610041402E+03  0.00000000000E+00 0. -1.
         11    1    1    2    0    0 -0.19542128646E+02 -0.31370134150E+02 -0.28563895156E+02  0.46710557855E+02  0.00000000000E+00 0.  1.
</event>
<event>
 7    1  0.2380582E-009  0.1391052E+03  0.7561462E-02  0.1214538E+00
          2   -1    0    0  501    0  0.00000000000E+00  0.00000000000E+00  0.42743765186E+03  0.42743765186E+03  0.00000000000E+00 0. -1.
         -2   -1    0    0    0  501 -0.00000000000E+00 -0.00000000000E+00 -0.55690718690E+02  0.55690718690E+02  0.00000000000E+00 0.  1.
         25    2    1    2    0    0  0.86159189535E+02  0.41894906257E+02  0.11731175891E+03  0.19643608297E+03  0.12508595764E+03 0.  0.
          5    1    3    3  502    0 -0.26379625559E+02 -0.49416524778E+01  0.50566603704E+02  0.57399985923E+02  0.41800000000E+01 0. -1.
         -5    1    3    3    0  502  0.11253881509E+03  0.46836558735E+02  0.66745155210E+02  0.13903609704E+03  0.41800000000E+01 0. -1.
        -11    1    1    2    0    0 -0.87735157804E+02 -0.58144168515E+00  0.14224809753E+03  0.16712964202E+03  0.00000000000E+00 0.  1.
         11    1    1    2    0    0  0.15759682689E+01 -0.41313464572E+02  0.11218707673E+03  0.11956264557E+03  0.00000000000E+00 0. -1.
</event>
<event>
 7    1  0.2380582E-009  0.1473549E+03  0.7561462E-02  0.1203761E+00
         -2   -1    0    0    0  501 -0.00000000000E+00  0.00000000000E+00  0.87050684694E+02  0.87050684694E+02  0.00000000000E+00 0.  1.
          2   -1    0    0  501    0  0.00000000000E+00 -0.00000000000E+00 -0.34067310157E+03  0.34067310157E+03  0.00000000000E+00 0. -1.
         25    2    1    2    0    0  0.31099456229E+02  0.10631330820E+03 -0.22683144149E+03  0.28172810898E+03  0.12509408005E+03 0.  0.
          5    1    3    3  502    0  0.30210052248E+02  0.13483540840E+03 -0.18680796547E+03  0.23239604768E+03  0.41800000000E+01 0.  1.
         -5    1    3    3    0  502  0.88940398078E+00 -0.28522100200E+02 -0.40023476018E+02  0.49332061297E+02  0.41800000000E+01 0.  1.
        -11    1    1    2    0    0  0.11312375149E+02 -0.72526028340E+02  0.18098220145E+02  0.75601191728E+02  0.00000000000E+00 0.  1.
         11    1    1    2    0    0 -0.42411831378E+02 -0.33787279860E+02 -0.44889195533E+02  0.70394485556E+02  0.00000000000E+00 0. -1.
</event>
<event>
 7    1  0.2380582E-009  0.1478917E+03  0.7561462E-02  0.1203088E+00
         -1   -1    0    0    0  501 -0.00000000000E+00  0.00000000000E+00  0.15393116513E+03  0.15393116513E+03  0.00000000000E+00 0.  1.
          1   -1    0    0  501    0  0.00000000000E+00 -0.00000000000E+00 -0.18960016159E+03  0.18960016159E+03  0.00000000000E+00 0. -1.
         25    2    1    2    0    0 -0.44894415570E+02 -0.12149844770E+03 -0.10516259654E+02  0.18037412945E+03  0.12508738351E+03 0.  0.
          5    1    3    3  502    0 -0.62865131920E+02 -0.24998726388E+02 -0.38844655645E+02  0.78123881141E+02  0.41800000000E+01 0.  1.
         -5    1    3    3    0  502  0.17970716350E+02 -0.96499721314E+02  0.28328395990E+02  0.10225024831E+03  0.41800000000E+01 0.  1.
        -11    1    1    2    0    0  0.19374396286E+02  0.63471368441E+02 -0.61165592032E+02  0.90250825435E+02  0.00000000000E+00 0. -1.
         11    1    1    2    0    0  0.25520019284E+02  0.58027079261E+02  0.36012855230E+02  0.72906371832E+02  0.00000000000E+00 0.  1.
</event>
<event>
 7    1  0.2380582E-009  0.9499879E+02  0.7561462E-02  0.1291179E+00
         -1   -1    0    0    0  501 -0.00000000000E+00  0.00000000000E+00  0.20998960884E+03  0.20998960884E+03  0.00000000000E+00 0.  1.
          1   -1    0    0  501    0  0.00000000000E+00 -0.00000000000E+00 -0.59093782613E+02  0.59093782613E+02  0.00000000000E+00 0. -1.
         25    2    1    2    0    0 -0.75380554035E+01  0.18863478937E+02  0.11154418870E+03  0.16882041428E+03  0.12508226545E+03 0.  0.
          5    1    3    3  502    0 -0.24797854073E+02 -0.41469725804E+02  0.10219826389E+02  0.49563988704E+02  0.41800000000E+01 0.  1.
         -5    1    3    3    0  502  0.17259798669E+02  0.60333204741E+02  0.10132436231E+03  0.11925642558E+03  0.41800000000E+01 0.  1.
        -11    1    1    2    0    0 -0.28815535635E+02  0.11711373699E+02  0.42489463021E+02  0.52657818372E+02  0.00000000000E+00 0.  1.
         11    1    1    2    0    0  0.36353591038E+02 -0.30574852636E+02 -0.31378254946E+01  0.47605158795E+02  0.00000000000E+00 0. -1.
</event>
<event>
 7    1  0.2380582E-009  0.6997488E+02  0.7561462E-02  0.1360178E+00
         -2   -1    0    0    0  501 -0.00000000000E+00  0.00000000000E+00  0.12514062360E+03  0.12514062360E+03  0.00000000000E+00 0.  1.
          2   -1    0    0  501    0  0.00000000000E+00 -0.00000000000E+00 -0.11272597557E+03  0.11272597557E+03  0.00000000000E+00 0. -1.
         25    2    1    2    0    0  0.24783231189E+02 -0.17667521190E+02 -0.35127807135E+02  0.13344068935E+03  0.12508439106E+03 0.  0.
          5    1    3    3  502    0  0.16491711377E+02 -0.28554421516E+02 -0.79846480517E+02  0.86488521685E+02  0.41800000000E+01 0.  1.
         -5    1    3    3    0  502  0.82915198126E+01  0.10886900326E+02  0.44718673382E+02  0.46952167666E+02  0.41800000000E+01 0.  1.
        -11    1    1    2    0    0  0.32478137376E+02  0.12887665270E+02  0.12431274116E+02  0.37087166240E+02  0.00000000000E+00 0.  1.
         11    1    1    2    0    0 -0.57261368565E+02  0.47798559201E+01  0.35111181050E+02  0.67338743583E+02  0.00000000000E+00 0. -1.
</event>
<event>
 7    1  0.2380582E-009  0.1628770E+03  0.7561462E-02  0.1185486E+00
          1   -1    0    0  501    0  0.00000000000E+00  0.00000000000E+00  0.50562064547E+03  0.50562064547E+03  0.00000000000E+00 0. -1.
         -1   -1    0    0    0  501 -0.00000000000E+00 -0.00000000000E+00 -0.64474611258E+02  0.64474611258E+02  0.00000000000E+00 0.  1.
         25    2    1    2    0    0  0.10604805325E+03 -0.83961287811E+02  0.16174418832E+03  0.24516065086E+03  0.12508746871E+03 0.  0.
          5    1    3    3  502    0  0.35765304885E+02 -0.10424910075E+03  0.86827481633E+02  0.14036921318E+03  0.41800000000E+01 0. -1.
         -5    1    3    3    0  502  0.70282748361E+02  0.20287812943E+02  0.74916706687E+02  0.10479143768E+03  0.41800000000E+01 0. -1.
        -11    1    1    2    0    0 -0.63963720016E+02  0.22713579791E+02  0.51441477518E+02  0.85167422142E+02  0.00000000000E+00 0.  1.
         11    1    1    2    0    0 -0.42084333230E+02  0.61247708019E+02  0.22796036837E+03  0.23976718372E+03  0.00000000000E+00 0. -1.
</event>
<event>
 7    1  0.2380582E-009  0.9025499E+02  0.7561462E-02  0.1302235E+00
          2   -1    0    0  501    0  0.00000000000E+00  0.00000000000E+00  0.58178678149E+03  0.58178678149E+03  0.00000000000E+00 0. -1.
         -2   -1    0    0    0  501 -0.00000000000E+00 -0.00000000000E+00 -0.22453043052E+02  0.22453043052E+02  0.00000000000E+00 0.  1.
         25    2    1    2    0    0  0.28811133652E+02 -0.22944173894E+02  0.39282640182E+03  0.41390403153E+03  0.12508976303E+03 0.  0.
          5    1    3    3  502    0  0.62061075029E+02 -0.22735963949E+02  0.10505225062E+03  0.12418513941E+03  0.41800000000E+01 0.  1.
         -5    1    3    3    0  502 -0.33249941377E+02 -0.20820994523E+00  0.28777415120E+03  0.28971889212E+03  0.41800000000E+01 0.  1.
        -11    1    1    2    0    0 -0.45516049308E+02 -0.74182011624E+01  0.46761627867E+02  0.65676405915E+02  0.00000000000E+00 0.  1.
         11    1    1    2    0    0  0.16704915657E+02  0.30362375056E+02  0.11974570875E+03  0.12465938709E+03  0.00000000000E+00 0. -1.
</event>
<event>
 7    1  0.2380582E-009  0.1940842E+03  0.7561462E-02  0.1154828E+00
         -1   -1    0    0    0  501 -0.00000000000E+00  0.00000000000E+00  0.30259736208E+03  0.30259736208E+03  0.00000000000E+00 0.  1.
          1   -1    0    0  501    0  0.00000000000E+00 -0.00000000000E+00 -0.16663151776E+03  0.16663151776E+03  0.00000000000E+00 0. -1.
         25    2    1    2    0    0 -0.53599981430E+02 -0.17997053786E+03  0.12895415029E+03  0.25988272958E+03  0.12508999860E+03 0.  0.
          5    1    3    3  502    0  0.13814576483E+01 -0.11268895774E+03  0.13101640692E+03  0.17286839186E+03  0.41800000000E+01 0. -1.
         -5    1    3    3    0  502 -0.54981439078E+02 -0.67281580118E+02 -0.20622566289E+01  0.87014337719E+02  0.41800000000E+01 0. -1.
        -11    1    1    2    0    0  0.35033534024E+02  0.14022740249E+03 -0.34883959536E+02  0.14868746937E+03  0.00000000000E+00 0.  1.
         11    1    1    2    0    0  0.18566447405E+02  0.39743135370E+02  0.41895653566E+02  0.60658680880E+02  0.00000000000E+00 0. -1.
</event>
<event>
 7    1  0.2380582E-009  0.1073801E+03  0.7561462E-02  0.1265500E+00
         -2   -1    0    0    0  501 -0.00000000000E+00  0.00000000000E+00  0.18421246236E+03  0.18421246236E+03  0.00000000000E+00 0.  1.
          2   -1    0    0  501    0  0.00000000000E+00 -0.00000000000E+00 -0.11761704417E+03  0.11761704417E+03  0.00000000000E+00 0. -1.
         25    2    1    2    0    0  0.71695709337E+01 -0.55490136546E+02  0.12101131406E+03  0.18281315314E+03  0.12508538215E+03 0.  0.
          5    1    3    3  502    0  0.27935318407E+02 -0.91050157504E+02  0.78647533737E+02  0.12358567943E+03  0.41800000000E+01 0.  1.
         -5    1    3    3    0  502 -0.20765747473E+02  0.35560020959E+02  0.42363780328E+02  0.59227473712E+02  0.41800000000E+01 0.  1.
        -11    1    1    2    0    0 -0.26094362957E+02  0.52836042230E+02  0.24964405376E+01  0.58981313584E+02  0.00000000000E+00 0.  1.
         11    1    1    2    0    0  0.18924792024E+02  0.26540943153E+01 -0.56912336410E+02  0.60035039814E+02  0.00000000000E+00 0. -1.
</event>
<event>
 7    1  0.2380582E-009  0.2853488E+03  0.7561462E-02  0.1092803E+00
          2   -1    0    0  501    0  0.00000000000E+00  0.00000000000E+00  0.18146040079E+03  0.18146040079E+03  0.00000000000E+00 0. -1.
         -2   -1    0    0    0  501 -0.00000000000E+00 -0.00000000000E+00 -0.50071656385E+03  0.50071656385E+03  0.00000000000E+00 0.  1.
         25    2    1    2    0    0 -0.24249205389E+03  0.12586149022E+03 -0.23225119385E+03  0.37977785029E+03  0.12508831923E+03 0.  0.
          5    1    3    3  502    0  0.33044717135E+01  0.31244014186E+02 -0.54103538495E+01  0.32153573433E+02  0.41800000000E+01 0. -1.
         -5    1    3    3    0  502 -0.24579652560E+03  0.94617476036E+02 -0.22684084000E+03  0.34762427686E+03  0.41800000000E+01 0. -1.
        -11    1    1    2    0    0  0.82626426294E+02 -0.62602734156E+02  0.11422496727E+02  0.10429142859E+03  0.00000000000E+00 0. -1.
         11    1    1    2    0    0  0.15986562759E+03 -0.63258756065E+02 -0.98427465939E+02  0.19810768576E+03  0.00000000000E+00 0.  1.
</event>
<event>
 7    1  0.2380582E-009  0.7882182E+02  0.7561462E-02  0.1332429E+00
         -2   -1    0    0    0  501 -0.00000000000E+00  0.00000000000E+00  0.19640337003E+02  0.19640337003E+02  0.00000000000E+00 0.  1.
          2   -1    0    0  501    0  0.00000000000E+00 -0.00000000000E+00 -0.68660775139E+03  0.68660775139E+03  0.00000000000E+00 0. -1.
         25    2    1    2    0    0  0.69595617659E+01  0.27950581597E+01 -0.52487659439E+03  0.53962408756E+03  0.12506985525E+03 0.  0.
          5    1    3    3  502    0  0.39190772966E+02 -0.16849859336E+02 -0.47502455533E+03  0.47695454188E+03  0.41800000000E+01 0.  1.
         -5    1    3    3    0  502 -0.32231211200E+02  0.19644917496E+02 -0.49852039055E+02  0.62669545688E+02  0.41800000000E+01 0.  1.
        -11    1    1    2    0    0  0.59188503159E+01  0.35712101345E+02 -0.28742134550E+02  0.46222259465E+02  0.00000000000E+00 0.  1.
         11    1    1    2    0    0 -0.12878412082E+02 -0.38507159505E+02 -0.11334868545E+03  0.12040174136E+03  0.00000000000E+00 0. -1.
</event>
<event>
 7    1  0.2380582E-009  0.1168308E+03  0.7561462E-02  0.1248419E+00
         -2   -1    0    0    0  501 -0.00000000000E+00  0.00000000000E+00  0.32943702679E+03  0.32943702679E+03  0.00000000000E+00 0.  1.
          2   -1    0    0  501    0  0.00000000000E+00 -0.00000000000E+00 -0.63549348842E+02  0.63549348842E+02  0.00000000000E+00 0. -1.
         25    2    1    2    0    0  0.81514588898E+02  0.27202780670E+02  0.19798053338E+03  0.24945619766E+03  0.12508990158E+03 0.  0.
          5    1    3    3  502    0  0.10695009840E+03  0.12364169761E+02  0.99776336802E+02  0.14684681143E+03  0.41800000000E+01 0. -1.
         -5    1    3    3    0  502 -0.25435509505E+02  0.14838610909E+02  0.98204196577E+02  0.10260938623E+03  0.41800000000E+01 0. -1.
        -11    1    1    2    0    0 -0.19977515197E+02  0.11911974176E+02 -0.19037555660E+02  0.30057025264E+02  0.00000000000E+00 0. -1.
         11    1    1    2    0    0 -0.61537073701E+02 -0.39114754846E+02  0.86944700227E+02  0.11347315270E+03  0.00000000000E+00 0.  1.
</event>
<event>
 7    1  0.2380582E-009  0.8367667E+02  0.7561462E-02  0.1318930E+00
         -2   -1    0    0    0  501 -0.00000000000E+00  0.00000000000E+00  0.57108175921E+02  0.57108175921E+02  0.00000000000E+00 0.  1.
          2   -1    0    0  501    0  0.00000000000E+00 -0.00000000000E+00 -0.23424690040E+03  0.23424690040E+03  0.00000000000E+00 0. -1.
         25    2    1    2    0    0  0.29877732616E+02 -0.46510639829E+01 -0.13317392329E+03  0.18519296547E+03  0.12508728677E+03 0.  0.
          5    1    3    3  502    0  0.41116343507E+02  0.18027900630E+02  0.43484058137E+01  0.45298343653E+02  0.41800000000E+01 0. -1.
         -5    1    3    3    0  502 -0.11238610892E+02 -0.22678964613E+02 -0.13752232910E+03  0.13989462182E+03  0.41800000000E+01 0. -1.
        -11    1    1    2    0    0 -0.37198826600E+02 -0.38093490991E+02 -0.23148114114E+02  0.58057746626E+02  0.00000000000E+00 0.  1.
         11    1    1    2    0    0  0.73210939843E+01  0.42744554974E+02 -0.20816687079E+02  0.48104364231E+02  0.00000000000E+00 0. -1.
</event>
<event>
 7    1  0.2380582E-009  0.2069262E+03  0.7561462E-02  0.1144023E+00
          2   -1    0    0  501    0  0.00000000000E+00  0.00000000000E+00  0.33916413860E+03  0.33916413860E+03  0.00000000000E+00 0.  1.
         -2   -1    0    0    0  501 -0.00000000000E+00 -0.00000000000E+00 -0.16862027616E+03  0.16862027616E+03  0.00000000000E+00 0. -1.
         25    2    1    2    0    0 -0.16925152932E+03  0.10931847805E+03  0.16601672678E+02  0.23773979723E+03  0.12509190953E+03 0.  0.
          5    1    3    3  502    0 -0.10378219711E+03  0.10282195677E+03 -0.39257183768E+02  0.15133307010E+03  0.41800000000E+01 0.  1.
         -5    1    3    3    0  502 -0.65469332212E+02  0.64965212827E+01  0.55858856446E+02  0.86406727125E+02  0.41800000000E+01 0.  1.
        -11    1    1    2    0    0  0.74579204050E+02 -0.41805740930E+02  0.12286380160E+03  0.14968397174E+03  0.00000000000E+00 0.  1.
         11    1    1    2    0    0  0.94672325270E+02 -0.67512737118E+02  0.31078388168E+02  0.12036064580E+03  0.00000000000E+00 0. -1.
</event>
<event>
 7    1  0.2380582E-009  0.1610492E+03  0.7561462E-02  0.1187517E+00
          1   -1    0    0  501    0  0.00000000000E+00  0.00000000000E+00  0.58130988476E+03  0.58130988476E+03  0.00000000000E+00 0. -1.
         -1   -1    0    0    0  501 -0.00000000000E+00 -0.00000000000E+00 -0.52101992040E+02  0.52101992040E+02  0.00000000000E+00 0.  1.
         25    2    1    2    0    0  0.27994548524E+02  0.11629297739E+03  0.39058263758E+03  0.42721314277E+03  0.12509404957E+03 0.  0.
          5    1    3    3  502    0  0.70968644691E+02  0.31689885760E+02  0.16432239466E+03  0.18182441853E+03  0.41800000000E+01 0. -1.
         -5    1    3    3    0  502 -0.42974096168E+02  0.84603091633E+02  0.22626024293E+03  0.24538872424E+03  0.41800000000E+01 0. -1.
        -11    1    1    2    0    0 -0.49189321216E+02 -0.11817296284E+03  0.13210040383E+03  0.18394280404E+03  0.00000000000E+00 0.  1.
         11    1    1    2    0    0  0.21194772693E+02  0.18799854461E+01  0.65248513075E+01  0.22255929982E+02  0.00000000000E+00 0. -1.
</event>
<event>
 7    1  0.2380582E-009  0.1580439E+03  0.7561462E-02  0.1190923E+00
          1   -1    0    0  501    0  0.00000000000E+00  0.00000000000E+00  0.11342942581E+04  0.11342942581E+04  0.00000000000E+00 0. -1.
         -1   -1    0    0    0  501 -0.00000000000E+00 -0.00000000000E+00 -0.28036950146E+02  0.28036950146E+02  0.00000000000E+00 0.  1.
         25    2    1    2    0    0  0.12523765990E+03 -0.17783780417E+02  0.78708488660E+03  0.80693929973E+03  0.12509068882E+03 0.  0.
          5    1    3    3  502    0 -0.23752184352E+02 -0.15185624355E+01  0.17994618912E+03  0.18156149282E+03  0.41800000000E+01 0. -1.
         -5    1    3    3    0  502  0.14898984425E+03 -0.16265217981E+02  0.60713869748E+03  0.62537780692E+03  0.41800000000E+01 0. -1.
        -11    1    1    2    0    0 -0.11318329009E+02  0.25408338337E+02  0.17564481996E+02  0.32896797053E+02  0.00000000000E+00 0.  1.
         11    1    1    2    0    0 -0.11391933089E+03 -0.76245579196E+01  0.30160793937E+03  0.32249511148E+03  0.00000000000E+00 0. -1.
</event>
<event>
 7    1  0.2380582E-009  0.2201832E+03  0.7561462E-02  0.1133747E+00
          2   -1    0    0  501    0  0.00000000000E+00  0.00000000000E+00  0.49505446020E+03  0.49505446020E+03  0.00000000000E+00 0. -1.
         -2   -1    0    0    0  501 -0.00000000000E+00 -0.00000000000E+00 -0.34055946672E+03  0.34055946672E+03  0.00000000000E+00 0.  1.
         25    2    1    2    0    0  0.65917039831E+02  0.20888141140E+03  0.41343010332E+03  0.48430161550E+03  0.12508838584E+03 0.  0.
          5    1    3    3  502    0  0.56300698132E+02  0.18240667880E+03  0.41390142975E+03  0.45582214847E+03  0.41800000000E+01 0.  1.
         -5    1    3    3    0  502  0.96163416992E+01  0.26474732601E+02 -0.47132642667E+00  0.28479467034E+02  0.41800000000E+01 0.  1.
        -11    1    1    2    0    0 -0.16501012043E+02 -0.21174721085E+02  0.10458466725E+01  0.26865330944E+02  0.00000000000E+00 0. -1.
         11    1    1    2    0    0 -0.49416027788E+02 -0.18770669032E+03 -0.25998095651E+03  0.32444698048E+03  0.00000000000E+00 0.  1.
</event>
<event>
 7    1  0.2380582E-009  0.1221549E+03  0.7561462E-02  0.1239584E+00
         -2   -1    0    0    0  501 -0.00000000000E+00  0.00000000000E+00  0.40193962949E+02  0.40193962949E+02  0.00000000000E+00 0.  1.
          2   -1    0    0  501    0  0.00000000000E+00 -0.00000000000E+00 -0.57196761552E+03  0.57196761552E+03  0.00000000000E+00 0. -1.
         25    2    1    2    0    0 -0.78198446807E+02  0.49020861871E+02 -0.29441476295E+03  0.33293307307E+03  0.12508531695E+03 0.  0.
          5    1    3    3  502    0  0.22241359486E+02 -0.19053378041E+01 -0.63066651574E+01  0.23570210210E+02  0.41800000000E+01 0. -1.
         -5    1    3    3    0  502 -0.10043980629E+03  0.50926199675E+02 -0.28810809779E+03  0.30936286286E+03  0.41800000000E+01 0. -1.
        -11    1    1    2    0    0  0.73284996919E+02 -0.15342515019E+02 -0.52949367036E+02  0.91704520118E+02  0.00000000000E+00 0.  1.
         11    1    1    2    0    0  0.49134498881E+01 -0.33678346852E+02 -0.18440952258E+03  0.18752398528E+03  0.00000000000E+00 0. -1.
</event>
<event>
 7    1  0.4892859E-009  0.8388873E+02  0.7561462E-02  0.1318364E+00
          1   -1    0    0  501    0  0.00000000000E+00  0.00000000000E+00  0.19508104359E+04  0.19508104359E+04  0.00000000000E+00 0. -1.
         -1   -1    0    0    0  501 -0.00000000000E+00 -0.00000000000E+00 -0.10248755237E+02  0.10248755237E+02  0.00000000000E+00 0.  1.
         25    2    1    2    0    0 -0.38378109184E+02 -0.28001790130E+01  0.16272613358E+04  0.16325157128E+04  0.12508947788E+03 0.  0.
          5    1    3    3  502    0 -0.51913432090E+02 -0.11637813825E+02  0.27384639443E+03  0.27899778366E+03  0.41800000000E+01 0. -1.
         -5    1    3    3    0  502  0.13535322907E+02  0.88376348124E+01  0.13534149413E+04  0.13535179292E+04  0.41800000000E+01 0. -1.
        -11    1    1    2    0    0  0.12087176644E+02 -0.43130333268E+02  0.11852808721E+03  0.12670924570E+03  0.00000000000E+00 0.  1.
         11    1    1    2    0    0  0.26290932540E+02  0.45930512281E+02  0.19477225774E+03  0.20183423267E+03  0.00000000000E+00 0. -1.
</event>
<event>
 7    1  0.2380582E-009  0.1411386E+03  0.7561462E-02  0.1211805E+00
         -2   -1    0    0    0  501 -0.00000000000E+00  0.00000000000E+00  0.24749800369E+02  0.24749800369E+02  0.00000000000E+00 0.  1.
          2   -1    0    0  501    0  0.00000000000E+00 -0.00000000000E+00 -0.11079768484E+04  0.11079768484E+04  0.00000000000E+00 0. -1.
         25    2    1    2    0    0  0.10277192593E+03  0.84242175853E+01 -0.82279879143E+03  0.83861690229E+03  0.12508965356E+03 0.  0.
          5    1    3    3  502    0 -0.17585782948E+02  0.25933012015E+02 -0.81876534667E+02  0.87766851392E+02  0.41800000000E+01 0.  1.
         -5    1    3    3    0  502  0.12035770888E+03 -0.17508794430E+02 -0.74092225676E+03  0.75085005090E+03  0.41800000000E+01 0.  1.
        -11    1    1    2    0    0 -0.54817058067E+02  0.34366572222E+02 -0.17925189027E+03  0.19057075144E+03  0.00000000000E+00 0. -1.
         11    1    1    2    0    0 -0.47954867861E+02 -0.42790789807E+02 -0.81176366378E+02  0.10353899508E+03  0.00000000000E+00 0.  1.
</event>
<event>
 7    1  0.2380582E-009  0.1530627E+03  0.7561462E-02  0.1196759E+00
         -1   -1    0    0    0  501 -0.00000000000E+00  0.00000000000E+00  0.26960492675E+03  0.26960492675E+03  0.00000000000E+00 0.  1.
          1   -1    0    0  501    0  0.00000000000E+00 -0.00000000000E+00 -0.12271728235E+03  0.12271728235E+03  0.00000000000E+00 0. -1.
         25    2    1    2    0    0  0.48976672179E+02 -0.11748433649E+03  0.15372972719E+03  0.23554525407E+03  0.12508978358E+03 0.  0.
          5    1    3    3  502    0  0.12604359548E+02  0.25051171623E+02  0.10634540532E+02  0.30281957196E+02  0.41800000000E+01 0.  1.
         -5    1    3    3    0  502  0.36372312631E+02 -0.14253550811E+03  0.14309518666E+03  0.20526329688E+03  0.41800000000E+01 0.  1.
        -11    1    1    2    0    0 -0.43391795572E+02  0.67041569705E+02 -0.46462844003E+02  0.92391643909E+02  0.00000000000E+00 0. -1.
         11    1    1    2    0    0 -0.55848766070E+01  0.50442766787E+02  0.39620761210E+02  0.64385311110E+02  0.00000000000E+00 0.  1.
</event>
<event>
 7    1  0.2380582E-009  0.7263792E+02  0.7561462E-02  0.1351346E+00
          1   -1    0    0  501    0  0.00000000000E+00  0.00000000000E+00  0.49271607014E+03  0.49271607014E+03  0.00000000000E+00 0. -1.
         -1   -1    0    0    0  501 -0.00000000000E+00 -0.00000000000E+00 -0.25235069020E+02  0.25235069020E+02  0.00000000000E+00 0.  1.
         25    2    1    2    0    0 -0.48656730818E+01  0.22335268229E+02  0.26046988722E+03  0.28985292132E+03  0.12509042677E+03 0.  0.
          5    1    3    3  502    0 -0.15800387415E+02  0.36466817498E+02  0.26730138294E+03  0.27027205320E+03  0.41800000000E+01 0. -1.
         -5    1    3    3    0  502  0.10934714334E+02 -0.14131549269E+02 -0.68314957242E+01  0.19580868115E+02  0.41800000000E+01 0. -1.
        -11    1    1    2    0    0  0.43679974331E+02 -0.20105771526E+02  0.16012898913E+03  0.16719292858E+03  0.00000000000E+00 0. -1.
         11    1    1    2    0    0 -0.38814301250E+02 -0.22294967029E+01  0.46882124769E+02  0.60905289260E+02  0.00000000000E+00 0.  1.
</event>
<event>
 7    1  0.2380582E-009  0.3705260E+03  0.7561462E-02  0.1054492E+00
          2   -1    0    0  501    0  0.00000000000E+00  0.00000000000E+00  0.97367372858E+03  0.97367372858E+03  0.00000000000E+00 0. -1.
         -2   -1    0    0    0  501 -0.00000000000E+00 -0.00000000000E+00 -0.17587863925E+03  0.17587863925E+03  0.00000000000E+00 0.  1.
         25    2    1    2    0    0 -0.30489933704E+03 -0.18798745064E+03  0.15789911926E+03  0.41095194834E+03  0.12508590911E+03 0.  0.
          5    1    3    3  502    0 -0.21878514104E+03 -0.63266925854E+02  0.94960951491E+02  0.24678876911E+03  0.41800000000E+01 0. -1.
         -5    1    3    3    0  502 -0.86114195991E+02 -0.12472052478E+03  0.62938167773E+02  0.16416317923E+03  0.41800000000E+01 0. -1.
        -11    1    1    2    0    0  0.83028695793E+02  0.78368026084E+02  0.13878150586E+03  0.17970981666E+03  0.00000000000E+00 0.  1.
         11    1    1    2    0    0  0.22187064124E+03  0.10961942455E+03  0.50111446421E+03  0.55889060282E+03  0.00000000000E+00 0. -1.
</event>
<event>
 7    1  0.2380582E-009  0.1037680E+03  0.7561462E-02  0.1272566E+00
         -2   -1    0    0    0  501 -0.00000000000E+00  0.00000000000E+00  0.45261359950E+02  0.45261359950E+02  0.00000000000E+00 0.  1.
          2   -1    0    0  501    0  0.00000000000E+00 -0.00000000000E+00 -0.33243057088E+03  0.33243057088E+03  0.00000000000E+00 0. -1.
         25    2    1    2    0    0  0.44588076705E+02 -0.23650702173E+02 -0.19580205830E+03  0.23776861178E+03  0.12509202380E+03 0.  0.
          5    1    3    3  502    0  0.56475297806E+02 -0.56296903812E+02 -0.66811250740E+02  0.10411539880E+03  0.41800000000E+01 0.  1.
         -5    1    3    3    0  502 -0.11887221101E+02  0.32646201640E+02 -0.12899080756E+03  0.13365321299E+03  0.41800000000E+01 0.  1.
        -11    1    1    2    0    0 -0.29011614142E+02  0.52455708435E+02 -0.23160012751E+02  0.64262440766E+02  0.00000000000E+00 0.  1.
         11    1    1    2    0    0 -0.15576462562E+02 -0.28805006262E+02 -0.68207139877E+02  0.75660878279E+02  0.00000000000E+00 0. -1.
</event>
<event>
 7    1  0.2380582E-009  0.8199283E+02  0.7561462E-02  0.1323489E+00
         -2   -1    0    0    0  501 -0.00000000000E+00  0.00000000000E+00  0.10202273486E+03  0.10202273486E+03  0.00000000000E+00 0.  1.
          2   -1    0    0  501    0  0.00000000000E+00 -0.00000000000E+00 -0.14848591748E+03  0.14848591748E+03  0.00000000000E+00 0. -1.
         25    2    1    2    0    0 -0.40074934007E+02 -0.15896133771E+02 -0.75668189018E+02  0.15241775073E+03  0.12508720360E+03 0.  0.
          5    1    3    3  502    0  0.84124188261E+01 -0.46572799602E+02 -0.81765601263E+02  0.94566803917E+02  0.41800000000E+01 0. -1.
         -5    1    3    3    0  502 -0.48487352833E+02  0.30676665832E+02  0.60974122441E+01  0.57850946815E+02  0.41800000000E+01 0. -1.
        -11    1    1    2    0    0  0.73732264010E+01 -0.13235478884E+02  0.48072953220E+02  0.50403880804E+02  0.00000000000E+00 0.  1.
         11    1    1    2    0    0  0.32701707606E+02  0.29131612655E+02 -0.18867946825E+02  0.47687020809E+02  0.00000000000E+00 0. -1.
</event>
<event>
 7    1  0.2380582E-009  0.1058774E+03  0.7561462E-02  0.1268400E+00
          1   -1    0    0  501    0  0.00000000000E+00  0.00000000000E+00  0.15499408580E+03  0.15499408580E+03  0.00000000000E+00 0. -1.
         -1   -1    0    0    0  501 -0.00000000000E+00 -0.00000000000E+00 -0.13117919025E+03  0.13117919025E+03  0.00000000000E+00 0.  1.
         25    2    1    2    0    0  0.48468988480E+02 -0.49090813503E+02 -0.48360376672E+02  0.15081508417E+03  0.12508921922E+03 0.  0.
          5    1    3    3  502    0  0.49818269615E+01 -0.58197192015E+02  0.26015461194E+02  0.64078142759E+02  0.41800000000E+01 0.  1.
         -5    1    3    3    0  502  0.43487161518E+02  0.91063785126E+01 -0.74375837865E+02  0.86736941407E+02  0.41800000000E+01 0.  1.
        -11    1    1    2    0    0  0.16511337954E+02  0.39593200121E+02  0.81960827338E+01  0.43674037471E+02  0.00000000000E+00 0.  1.
         11    1    1    2    0    0 -0.64980326434E+02  0.94976133815E+01  0.63979189487E+02  0.91684154415E+02  0.00000000000E+00 0. -1.
</event>
<event>
 7    1  0.2380582E-009  0.1082396E+03  0.7561462E-02  0.1263865E+00
         -2   -1    0    0    0  501 -0.00000000000E+00  0.00000000000E+00  0.57657221627E+02  0.57657221627E+02  0.00000000000E+00 0.  1.
          2   -1    0    0  501    0  0.00000000000E+00 -0.00000000000E+00 -0.26565839024E+03  0.26565839024E+03  0.00000000000E+00 0. -1.
         25    2    1    2    0    0  0.17288943489E+02 -0.56814065730E+02 -0.10330202922E+03  0.17275907543E+03  0.12509054029E+03 0.  0.
          5    1    3    3  502    0 -0.14929749237E+02  0.21018536389E+02  0.12936022569E+02  0.29146000825E+02  0.41800000000E+01 0.  1.
         -5    1    3    3    0  502  0.32218692726E+02 -0.77832602119E+02 -0.11623805179E+03  0.14361307461E+03  0.41800000000E+01 0.  1.
        -11    1    1    2    0    0 -0.22923411644E+00 -0.23708801864E+02 -0.11950367218E+02  0.26551292073E+02  0.00000000000E+00 0.  1.
         11    1    1    2    0    0 -0.17059709373E+02  0.80522867595E+02 -0.92748772167E+02  0.12400524436E+03  0.00000000000E+00 0. -1.
</event>
<event>
 7    1  0.2380582E-009  0.9670413E+02  0.7561462E-02  0.1287383E+00
          1   -1    0    0  501    0  0.00000000000E+00  0.00000000000E+00  0.92339519286E+02  0.92339519286E+02  0.00000000000E+00 0. -1.
         -1   -1    0    0    0  501 -0.00000000000E+00 -0.00000000000E+00 -0.28995657501E+03  0.28995657501E+03  0.00000000000E+00 0.  1.
         25    2    1    2    0    0 -0.39688684975E+02  0.40826936233E+02  0.20952089039E+02  0.13902724227E+03  0.12509018195E+03 0.  0.
          5    1    3    3  502    0 -0.23537514590E+02 -0.35467241641E+02  0.40086609399E+02  0.58620375944E+02  0.41800000000E+01 0. -1.
         -5    1    3    3    0  502 -0.16151170385E+02  0.76294177874E+02 -0.19134520360E+02  0.80406866322E+02  0.41800000000E+01 0. -1.
        -11    1    1    2    0    0  0.20853343842E+02 -0.48039697555E+02 -0.21678484126E+03  0.22302094496E+03  0.00000000000E+00 0.  1.
         11    1    1    2    0    0  0.18835341133E+02  0.72127613223E+01 -0.17843034959E+01  0.20247907064E+02  0.00000000000E+00 0. -1.
</event>
<event>
 7    1  0.2380582E-009  0.9510869E+02  0.7561462E-02  0.1290931E+00
          2   -1    0    0  501    0  0.00000000000E+00  0.00000000000E+00  0.10355486561E+03  0.10355486561E+03  0.00000000000E+00 0. -1.
         -2   -1    0    0    0  501 -0.00000000000E+00 -0.00000000000E+00 -0.10398396626E+03  0.10398396626E+03  0.00000000000E+00 0.  1.
         25    2    1    2    0    0  0.12151300348E+02 -0.39350827007E+01  0.24110049609E+02  0.12803903060E+03  0.12509820099E+03 0.  0.
          5    1    3    3  502    0  0.68048112317E+02  0.68772841384E+01  0.10142644551E+02  0.69268956001E+02  0.41800000000E+01 0. -1.
         -5    1    3    3    0  502 -0.55896811968E+02 -0.10812366839E+02  0.13967405059E+02  0.58770074604E+02  0.41800000000E+01 0. -1.
        -11    1    1    2    0    0 -0.34380513486E+02 -0.12903263570E+02 -0.34006833238E+02  0.50049761490E+02  0.00000000000E+00 0.  1.
         11    1    1    2    0    0  0.22229213138E+02  0.16838346270E+02  0.94676829754E+01  0.29450039776E+02  0.00000000000E+00 0. -1.
</event>
<event>
 7    1  0.2380582E-009  0.1017318E+03  0.7561462E-02  0.1276696E+00
          1   -1    0    0  501    0  0.00000000000E+00  0.00000000000E+00  0.10027191202E+03  0.10027191202E+03  0.00000000000E+00 0. -1.
         -1   -1    0    0    0  501 -0.00000000000E+00 -0.00000000000E+00 -0.19034378923E+03  0.19034378923E+03  0.00000000000E+00 0.  1.
         25    2    1    2    0    0 -0.77124947747E+01  0.34620699080E+02  0.33467066993E+02  0.13425571541E+03  0.12508587917E+03 0.  0.
          5    1    3    3  502    0 -0.45938630141E+02  0.61178625043E+02 -0.26374409823E+00  0.76620649060E+02  0.41800000000E+01 0. -1.
         -5    1    3    3    0  502  0.38226135366E+02 -0.26557925963E+02  0.33730811091E+02  0.57635066352E+02  0.41800000000E+01 0. -1.
        -11    1    1    2    0    0 -0.31808376272E+02 -0.21798547369E+02 -0.17258969838E+02  0.42247147931E+02  0.00000000000E+00 0. -1.
         11    1    1    2    0    0  0.39520871047E+02 -0.12822151711E+02 -0.10627997437E+03  0.11411283791E+03  0.00000000000E+00 0.  1.
</event>
<event>
 7    1  0.2380582E-009  0.1201290E+03  0.7561462E-02  0.1242884E+00
         -1   -1    0    0    0  501 -0.00000000000E+00  0.00000000000E+00  0.96214107019E+02  0.96214107019E+02  0.00000000000E+00 0.  1.
          1   -1    0    0  501    0  0.00000000000E+00 -0.00000000000E+00 -0.15710417962E+03  0.15710417962E+03  0.00000000000E+00 0. -1.
         25    2    1    2    0    0  0.52563920811E+01  0.57319824708E+02 -0.36324659412E+02  0.14241597628E+03  0.12509851101E+03 0.  0.
          5    1    3    3  502    0 -0.47521410712E+02  0.65934570453E+02 -0.80474612128E+01  0.81779496751E+02  0.41800000000E+01 0.  1.
         -5    1    3    3    0  502  0.52777802793E+02 -0.86147457443E+01 -0.28277198199E+02  0.60636479531E+02  0.41800000000E+01 0.  1.
        -11    1    1    2    0    0 -0.21587813057E+02  0.18036069700E+02  0.45242586938E+01  0.28492146279E+02  0.00000000000E+00 0. -1.
         11    1    1    2    0    0  0.16331420976E+02 -0.75355894409E+02 -0.29089671882E+02  0.82410164079E+02  0.00000000000E+00 0.  1.
</event>
<event>
 7    1  0.2380582E-009  0.2858159E+03  0.7561462E-02  0.1092554E+00
          2   -1    0    0  501    0  0.00000000000E+00  0.00000000000E+00  0.62416865204E+03  0.62416865204E+03  0.00000000000E+00 0. -1.
         -2   -1    0    0    0  501 -0.00000000000E+00 -0.00000000000E+00 -0.19926069830E+03  0.19926069830E+03  0.00000000000E+00 0.  1.
         25    2    1    2    0    0 -0.15392284934E+03  0.22843273083E+03  0.43934339370E+03  0.53342413418E+03  0.12507970770E+03 0.  0.
          5    1    3    3  502    0 -0.11248738779E+03  0.74037446997E+02  0.26211585042E+03  0.29471536677E+03  0.41800000000E+01 0. -1.
         -5    1    3    3    0  502 -0.41435461559E+02  0.15439528383E+03  0.17722754328E+03  0.23870876742E+03  0.41800000000E+01 0. -1.
        -11    1    1    2    0    0  0.44598004485E+02 -0.91296574042E+02  0.35539902004E+02  0.10764353706E+03  0.00000000000E+00 0. -1.
         11    1    1    2    0    0  0.10932484486E+03 -0.13713615678E+03 -0.49975341959E+02  0.18236167910E+03  0.00000000000E+00 0.  1.
</event>
<event>
 7    1  0.2488658E-009  0.1889565E+03  0.7561462E-02  0.1159406E+00
          1   -1    0    0  501    0  0.00000000000E+00  0.00000000000E+00  0.70554336372E+03  0.70554336372E+03  0.00000000000E+00 0. -1.
         -1   -1    0    0    0  501 -0.00000000000E+00 -0.00000000000E+00 -0.63689660240E+02  0.63689660240E+02  0.00000000000E+00 0.  1.
         25    2    1    2    0    0 -0.76915249073E+02  0.16442953567E+03  0.32117105328E+03  0.38955362876E+03  0.12509259161E+03 0.  0.
          5    1    3    3  502    0  0.19128980456E+01  0.11192268658E+02  0.13611967506E+03  0.13665637342E+03  0.41800000000E+01 0.  1.
         -5    1    3    3    0  502 -0.78828147119E+02  0.15323726702E+03  0.18505137822E+03  0.25289725535E+03  0.41800000000E+01 0.  1.
        -11    1    1    2    0    0  0.16197888348E+02 -0.11215530347E+03  0.24280641548E+03  0.26794801563E+03  0.00000000000E+00 0.  1.
         11    1    1    2    0    0  0.60717360726E+02 -0.52274232201E+02  0.77876234724E+02  0.11173137957E+03  0.00000000000E+00 0. -1.
</event>
<event>
 7    1  0.2380582E-009  0.9095844E+02  0.7561462E-02  0.1300547E+00
          2   -1    0    0  501    0  0.00000000000E+00  0.00000000000E+00  0.11031820396E+04  0.11031820396E+04  0.00000000000E+00 0. -1.
         -2   -1    0    0    0  501 -0.00000000000E+00 -0.00000000000E+00 -0.16689850745E+02  0.16689850745E+02  0.00000000000E+00 0.  1.
         25    2    1    2    0    0  0.24348097429E+02 -0.43222543759E+01  0.89568205020E+03  0.90471268190E+03  0.12508872854E+03 0.  0.
          5    1    3    3  502    0  0.14946273195E+02 -0.44903742441E+02  0.78405364781E+03  0.78549177730E+03  0.41800000000E+01 0.  1.
         -5    1    3    3    0  502  0.94018242339E+01  0.40581488065E+02  0.11162840239E+03  0.11922090459E+03  0.41800000000E+01 0.  1.
        -11    1    1    2    0    0 -0.49275292728E+01 -0.42012839683E+02  0.49110635724E+02  0.64816770856E+02  0.00000000000E+00 0.  1.
         11    1    1    2    0    0 -0.19420568156E+02  0.46335094059E+02  0.14169950291E+03  0.15034243757E+03  0.00000000000E+00 0. -1.
</event>
<event>
 7    1  0.2380582E-009  0.1444811E+03  0.7561462E-02  0.1207423E+00
          1   -1    0    0  501    0  0.00000000000E+00  0.00000000000E+00  0.13502770800E+03  0.13502770800E+03  0.00000000000E+00 0. -1.
         -1   -1    0    0    0  501 -0.00000000000E+00 -0.00000000000E+00 -0.20447720749E+03  0.20447720749E+03  0.00000000000E+00 0.  1.
         25    2    1    2    0    0  0.39161163018E+02 -0.11125767883E+03  0.57079191724E+01  0.17202318566E+03  0.12509008065E+03 0.  0.
          5    1    3    3  502    0  0.78710417997E+02 -0.10399761033E+03 -0.35861376660E+01  0.13054181567E+03  0.41800000000E+01 0.  1.
         -5    1    3    3    0  502 -0.39549254979E+02 -0.72600685018E+01  0.92940568384E+01  0.41481369994E+02  0.41800000000E+01 0.  1.
        -11    1    1    2    0    0 -0.31727903430E+02  0.84085240044E+02 -0.96702457502E+02  0.13201648661E+03  0.00000000000E+00 0.  1.
         11    1    1    2    0    0 -0.74332595876E+01  0.27172438786E+02  0.21545038838E+02  0.35465243214E+02  0.00000000000E+00 0. -1.
</event>
<event>
 7    1  0.2380582E-009  0.1824109E+03  0.7561462E-02  0.1165490E+00
         -1   -1    0    0    0  501 -0.00000000000E+00  0.00000000000E+00  0.77696695641E+02  0.77696695641E+02  0.00000000000E+00 0.  1.
          1   -1    0    0  501    0  0.00000000000E+00 -0.00000000000E+00 -0.64210408373E+03  0.64210408373E+03  0.00000000000E+00 0. -1.
         25    2    1    2    0    0  0.23561211099E+02  0.16509574425E+03 -0.45677504957E+03  0.50209828187E+03  0.12508998088E+03 0.  0.
          5    1    3    3  502    0  0.61912441114E+02  0.12063332648E+03 -0.22295990945E+03  0.26098686450E+03  0.41800000000E+01 0. -1.
         -5    1    3    3    0  502 -0.38351230015E+02  0.44462417773E+02 -0.23381514012E+03  0.24111141737E+03  0.41800000000E+01 0. -1.
        -11    1    1    2    0    0 -0.32581946588E+02 -0.12260388797E+03 -0.11776775664E+03  0.17309691243E+03  0.00000000000E+00 0. -1.
         11    1    1    2    0    0  0.90207354890E+01 -0.42491856283E+02  0.10135418113E+02  0.44605585070E+02  0.00000000000E+00 0.  1.
</event>
<event>
 7    1  0.2380582E-009  0.1017159E+03  0.7561462E-02  0.1276729E+00
         -1   -1    0    0    0  501 -0.00000000000E+00  0.00000000000E+00  0.12505513159E+02  0.12505513159E+02  0.00000000000E+00 0.  1.
          1   -1    0    0  501    0  0.00000000000E+00 -0.00000000000E+00 -0.99805876765E+03  0.99805876765E+03  0.00000000000E+00 0. -1.
         25    2    1    2    0    0  0.86662081802E+01 -0.25684025865E+02 -0.56980808891E+03  0.58400598165E+03  0.12508779343E+03 0.  0.
          5    1    3    3  502    0 -0.13645631981E+02 -0.65220956145E+02 -0.46421342740E+03  0.46898993056E+03  0.41800000000E+01 0. -1.
         -5    1    3    3    0  502  0.22311840161E+02  0.39536930280E+02 -0.10559466151E+03  0.11501605108E+03  0.41800000000E+01 0. -1.
        -11    1    1    2    0    0  0.21634294032E+02  0.48527085044E+02 -0.30233962506E+03  0.30697258760E+03  0.00000000000E+00 0.  1.
         11    1    1    2    0    0 -0.30300502212E+02 -0.22843059179E+02 -0.11340554053E+03  0.11958571156E+03  0.00000000000E+00 0. -1.
</event>
<event>
 7    1  0.2380582E-009  0.1370713E+03  0.7561462E-02  0.1217325E+00
         -2   -1    0    0    0  501 -0.00000000000E+00  0.00000000000E+00  0.14502943358E+03  0.14502943358E+03  0.00000000000E+00 0.  1.
          2   -1    0    0  501    0  0.00000000000E+00 -0.00000000000E+00 -0.13134641451E+03  0.13134641451E+03  0.00000000000E+00 0. -1.
         25    2    1    2    0    0  0.98305367286E+01  0.82696375874E+02  0.21823851724E+02  0.15185413433E+03  0.12509223626E+03 0.  0.
          5    1    3    3  502    0 -0.45982011118E+02 -0.46143964716E+01  0.10058447096E+02  0.47479287687E+02  0.41800000000E+01 0. -1.
         -5    1    3    3    0  502  0.55812547847E+02  0.87310772346E+02  0.11765404627E+02  0.10437484664E+03  0.41800000000E+01 0. -1.
        -11    1    1    2    0    0  0.29855980633E+02 -0.78665689476E+02 -0.20266049229E+01  0.84165179307E+02  0.00000000000E+00 0.  1.
         11    1    1    2    0    0 -0.39686517361E+02 -0.40306863982E+01 -0.61142277327E+01  0.40356534463E+02  0.00000000000E+00 0. -1.
</event>
<event>
 7    1  0.2380582E-009  0.1394609E+03  0.7561462E-02  0.1214056E+00
          1   -1    0    0  501    0  0.00000000000E+00  0.00000000000E+00  0.38350984950E+03  0.38350984950E+03  0.00000000000E+00 0. -1.
         -1   -1    0    0    0  501 -0.00000000000E+00 -0.00000000000E+00 -0.92337107986E+02  0.92337107986E+02  0.00000000000E+00 0.  1.
         25    2    1    2    0    0  0.10666636878E+03 -0.80974250478E+02  0.57049379353E+02  0.19193073316E+03  0.12509289019E+03 0.  0.
          5    1    3    3  502    0  0.60221083894E+02 -0.70222217898E+02  0.93634880115E+02  0.13169169300E+03  0.41800000000E+01 0. -1.
         -5    1    3    3    0  502  0.46445284889E+02 -0.10752032579E+02 -0.36585500762E+02  0.60239040156E+02  0.41800000000E+01 0. -1.
        -11    1    1    2    0    0 -0.82543076863E+02  0.79005469500E+02  0.11409187929E+03  0.16146882259E+03  0.00000000000E+00 0.  1.
         11    1    1    2    0    0 -0.24123291920E+02  0.19687809778E+01  0.12003148287E+03  0.12244740174E+03  0.00000000000E+00 0. -1.
</event>
<event>
 7    1  0.2380582E-009  0.8830351E+02  0.7561462E-02  0.1307013E+00
         -1   -1    0    0    0  501 -0.00000000000E+00  0.00000000000E+00  0.26998283230E+03  0.26998283230E+03  0.00000000000E+00 0.  1.
          1   -1    0    0  501    0  0.00000000000E+00 -0.00000000000E+00 -0.70513520387E+02  0.70513520387E+02  0.00000000000E+00 0. -1.
         25    2    1    2    0    0 -0.49738030472E+02 -0.27252076878E+02  0.35874279698E+02  0.14195405807E+03  0.12508974094E+03 0.  0.
          5    1    3    3  502    0 -0.16443663470E+02 -0.28251970188E+02  0.79992960609E+02  0.86515397675E+02  0.41800000000E+01 0.  1.
         -5    1    3    3    0  502 -0.33294367002E+02  0.99989331053E+00 -0.44118680910E+02  0.55438660391E+02  0.41800000000E+01 0.  1.
        -11    1    1    2    0    0  0.40956352966E+02 -0.30877721448E+02  0.96882101424E+02  0.10962206943E+03  0.00000000000E+00 0. -1.
         11    1    1    2    0    0  0.87816775064E+01  0.58129798326E+02  0.66712930793E+02  0.88920225193E+02  0.00000000000E+00 0.  1.
</event>
<event>
 7    1  0.2380582E-009  0.1526341E+03  0.7561462E-02  0.1197273E+00
         -1   -1    0    0    0  501 -0.00000000000E+00  0.00000000000E+00  0.30096396061E+02  0.30096396061E+02  0.00000000000E+00 0. -1.
          1   -1    0    0  501    0  0.00000000000E+00 -0.00000000000E+00 -0.10488151651E+04  0.10488151651E+04  0.00000000000E+00 0.  1.
         25    2    1    2    0    0 -0.76260645183E+02  0.81489141135E+02 -0.79312143700E+03  0.81064531024E+03  0.12509212225E+03 0.  0.
          5    1    3    3  502    0  0.24917435967E+02  0.49613081777E+02 -0.38209135089E+03  0.38612641624E+03  0.41800000000E+01 0.  1.
         -5    1    3    3    0  502 -0.10117808115E+03  0.31876059357E+02 -0.41103008611E+03  0.42451889399E+03  0.41800000000E+01 0.  1.
        -11    1    1    2    0    0  0.76969291140E+02 -0.16857199056E+02 -0.10309279317E+03  0.12975577422E+03  0.00000000000E+00 0. -1.
         11    1    1    2    0    0 -0.70864595734E+00 -0.64631942078E+02 -0.12250453888E+03  0.13851047672E+03  0.00000000000E+00 0.  1.
</event>
<event>
 7    1  0.2380582E-009  0.1109025E+03  0.7561462E-02  0.1258908E+00
          1   -1    0    0  501    0  0.00000000000E+00  0.00000000000E+00  0.29166141408E+03  0.29166141408E+03  0.00000000000E+00 0. -1.
         -1   -1    0    0    0  501 -0.00000000000E+00 -0.00000000000E+00 -0.65516036898E+02  0.65516036898E+02  0.00000000000E+00 0.  1.
         25    2    1    2    0    0 -0.28649109886E+02  0.79542757999E+02  0.14471569532E+03  0.20913565178E+03  0.12508903439E+03 0.  0.
          5    1    3    3  502    0  0.42897487650E+01 -0.21694084752E+02  0.83025619968E+02  0.86021864830E+02  0.41800000000E+01 0. -1.
         -5    1    3    3    0  502 -0.32938858651E+02  0.10123684275E+03  0.61690075354E+02  0.12311378695E+03  0.41800000000E+01 0. -1.
        -11    1    1    2    0    0  0.24882005977E+02 -0.17079457491E+02 -0.14518869133E+02  0.33490590478E+02  0.00000000000E+00 0.  1.
         11    1    1    2    0    0  0.37671039084E+01 -0.62463300508E+02  0.95948550995E+02  0.11455120872E+03  0.00000000000E+00 0. -1.
</event>
<event>
 7    1  0.2380582E-009  0.2808268E+03  0.7561462E-02  0.1095238E+00
          1   -1    0    0  501    0  0.00000000000E+00  0.00000000000E+00  0.74364462845E+03  0.74364462845E+03  0.00000000000E+00 0. -1.
         -1   -1    0    0    0  501 -0.00000000000E+00 -0.00000000000E+00 -0.15417976324E+03  0.15417976324E+03  0.00000000000E+00 0.  1.
         25    2    1    2    0    0 -0.25938377762E+03  0.75747535039E+02  0.52723785722E+03  0.60551223219E+03  0.12509065550E+03 0.  0.
          5    1    3    3  502    0 -0.24119025908E+03  0.99671261894E+02  0.50295810007E+03  0.56664929573E+03  0.41800000000E+01 0.  1.
         -5    1    3    3    0  502 -0.18193518535E+02 -0.23923726855E+02  0.24279757151E+02  0.38862936465E+02  0.41800000000E+01 0.  1.
        -11    1    1    2    0    0  0.11328648783E+03 -0.36566958919E+02  0.74700764748E+02  0.14053887385E+03  0.00000000000E+00 0. -1.
         11    1    1    2    0    0  0.14609728978E+03 -0.39180576120E+02 -0.12473756763E+02  0.15177328564E+03  0.00000000000E+00 0.  1.
</event>
<event>
 7    1  0.2393587E-009  0.1186404E+03  0.7561462E-02  0.1245357E+00
          2   -1    0    0  501    0  0.00000000000E+00  0.00000000000E+00  0.27151684867E+03  0.27151684867E+03  0.00000000000E+00 0.  1.
         -2   -1    0    0    0  501 -0.00000000000E+00 -0.00000000000E+00 -0.59454028944E+02  0.59454028944E+02  0.00000000000E+00 0. -1.
         25    2    1    2    0    0 -0.20997173017E+02  0.62403941293E+02  0.10411290227E+03  0.17556300701E+03  0.12509092631E+03 0.  0.
          5    1    3    3  502    0  0.24919635251E+02  0.82821313974E+02  0.44085465948E+02  0.97166655686E+02  0.41800000000E+01 0. -1.
         -5    1    3    3    0  502 -0.45916808268E+02 -0.20417372680E+02  0.60027436325E+02  0.78396351321E+02  0.41800000000E+01 0. -1.
        -11    1    1    2    0    0 -0.25567549874E+02 -0.44987194352E+01  0.20517120870E+01  0.26041267357E+02  0.00000000000E+00 0.  1.
         11    1    1    2    0    0  0.46564722890E+02 -0.57905221858E+02  0.10589820536E+03  0.12936660325E+03  0.00000000000E+00 0. -1.
</event>
<event>
 7    1  0.2380582E-009  0.1163888E+03  0.7561462E-02  0.1249176E+00
         -1   -1    0    0    0  501 -0.00000000000E+00  0.00000000000E+00  0.16260855318E+03  0.16260855318E+03  0.00000000000E+00 0.  1.
          1   -1    0    0  501    0  0.00000000000E+00 -0.00000000000E+00 -0.12720886333E+03  0.12720886333E+03  0.00000000000E+00 0. -1.
         25    2    1    2    0    0  0.39532197588E+02  0.37310488811E+02 -0.58610248247E+02  0.14845135194E+03  0.12509106871E+03 0.  0.
          5    1    3    3  502    0  0.84825810054E+02  0.18456229331E+02 -0.41629482797E+02  0.96366678320E+02  0.41800000000E+01 0.  1.
         -5    1    3    3    0  502 -0.45293612467E+02  0.18854259480E+02 -0.16980765450E+02  0.52084673620E+02  0.41800000000E+01 0.  1.
        -11    1    1    2    0    0 -0.60694311685E+02 -0.43390944109E+02  0.93129522121E+02  0.11933013614E+03  0.00000000000E+00 0.  1.
         11    1    1    2    0    0  0.21162114097E+02  0.60804552974E+01  0.88041597652E+00  0.22035928435E+02  0.00000000000E+00 0. -1.
</event>
<event>
 7    1  0.2380582E-009  0.2393400E+03  0.7561462E-02  0.1120233E+00
          1   -1    0    0  501    0  0.00000000000E+00  0.00000000000E+00  0.10347768354E+04  0.10347768354E+04  0.00000000000E+00 0. -1.
         -1   -1    0    0    0  501 -0.00000000000E+00 -0.00000000000E+00 -0.11683871099E+03  0.11683871099E+03  0.00000000000E+00 0.  1.
         25    2    1    2    0    0  0.19773099534E+03  0.12573181747E+03  0.85085233807E+03  0.89134884796E+03  0.12508809341E+03 0.  0.
          5    1    3    3  502    0  0.15698957369E+03  0.12797974679E+03  0.52175913400E+03  0.55970939616E+03  0.41800000000E+01 0. -1.
         -5    1    3    3    0  502  0.40741421642E+02 -0.22479293170E+01  0.32909320407E+03  0.33163945179E+03  0.41800000000E+01 0. -1.
        -11    1    1    2    0    0 -0.33245888432E+02 -0.29873074465E+02 -0.22297659134E+02  0.49948726495E+02  0.00000000000E+00 0.  1.
         11    1    1    2    0    0 -0.16448510690E+03 -0.95858743008E+02  0.89383445496E+02  0.21031797197E+03  0.00000000000E+00 0. -1.
</event>
<event>
 7    1  0.2380582E-009  0.8660117E+02  0.7561462E-02  0.1311298E+00
         -2   -1    0    0    0  501 -0.00000000000E+00  0.00000000000E+00  0.17876813104E+02  0.17876813104E+02  0.00000000000E+00 0.  1.
          2   -1    0    0  501    0  0.00000000000E+00 -0.00000000000E+00 -0.72132984645E+03  0.72132984645E+03  0.00000000000E+00 0. -1.
         25    2    1    2    0    0  0.20596264537E+02 -0.39549024818E+01 -0.47145200770E+03  0.48821526389E+03  0.12508917204E+03 0.  0.
          5    1    3    3  502    0  0.38862951996E+02  0.33340065047E+02 -0.83600473306E+02  0.98124413436E+02  0.41800000000E+01 0.  1.
         -5    1    3    3    0  502 -0.18266687459E+02 -0.37294967529E+02 -0.38785153439E+03  0.39009085045E+03  0.41800000000E+01 0.  1.
        -11    1    1    2    0    0 -0.50294074539E+02  0.24392646044E+01 -0.20408374229E+03  0.21020375309E+03  0.00000000000E+00 0. -1.
         11    1    1    2    0    0  0.29697810002E+02  0.15156378774E+01 -0.27917283358E+02  0.40787642579E+02  0.00000000000E+00 0.  1.
</event>
<event>
 7    1  0.2380582E-009  0.1183660E+03  0.7561462E-02  0.1245817E+00
          1   -1    0    0  501    0  0.00000000000E+00  0.00000000000E+00  0.38203987461E+03  0.38203987461E+03  0.00000000000E+00 0. -1.
         -1   -1    0    0    0  501 -0.00000000000E+00 -0.00000000000E+00 -0.59835401509E+02  0.59835401509E+02  0.00000000000E+00 0.  1.
         25    2    1    2    0    0  0.84681400646E+02  0.43200655408E+02  0.24459000200E+03  0.29070751109E+03  0.12509736879E+03 0.  0.
          5    1    3    3  502    0  0.66124152226E+02  0.54115233006E+02  0.25311276713E+03  0.26717860549E+03  0.41800000000E+01 0.  1.
         -5    1    3    3    0  502  0.18557248419E+02 -0.10914577597E+02 -0.85227651221E+01  0.23528905592E+02  0.41800000000E+01 0.  1.
        -11    1    1    2    0    0 -0.31582774695E+02  0.26780226767E+02  0.30954677181E+02  0.51699557469E+02  0.00000000000E+00 0. -1.
         11    1    1    2    0    0 -0.53098625951E+02 -0.69980882175E+02  0.46659793917E+02  0.99468207566E+02  0.00000000000E+00 0.  1.
</event>
<event>
 7    1  0.2380582E-009  0.1098674E+03  0.7561462E-02  0.1260816E+00
          2   -1    0    0  501    0  0.00000000000E+00  0.00000000000E+00  0.68192177477E+02  0.68192177477E+02  0.00000000000E+00 0. -1.
         -2   -1    0    0    0  501 -0.00000000000E+00 -0.00000000000E+00 -0.29428981029E+03  0.29428981029E+03  0.00000000000E+00 0.  1.
         25    2    1    2    0    0  0.77780538247E+02 -0.36677001235E+02 -0.71210030139E+02  0.16767126364E+03  0.12509104568E+03 0.  0.
          5    1    3    3  502    0  0.12461219785E+02 -0.34000251912E+02  0.29933104959E+02  0.47167385989E+02  0.41800000000E+01 0.  1.
         -5    1    3    3    0  502  0.65319318462E+02 -0.26767493233E+01 -0.10114313510E+03  0.12050387765E+03  0.41800000000E+01 0.  1.
        -11    1    1    2    0    0  0.66091224232E+01  0.32625231783E+02 -0.51048900036E+02  0.60943223110E+02  0.00000000000E+00 0.  1.
         11    1    1    2    0    0 -0.84389660670E+02  0.40517694520E+01 -0.10383870264E+03  0.13386750102E+03  0.00000000000E+00 0. -1.
</event>
<event>
 7    1  0.2380582E-009  0.1340800E+03  0.7561462E-02  0.1221524E+00
         -2   -1    0    0    0  501 -0.00000000000E+00  0.00000000000E+00  0.30082007055E+02  0.30082007055E+02  0.00000000000E+00 0.  1.
          2   -1    0    0  501    0  0.00000000000E+00 -0.00000000000E+00 -0.68650134410E+03  0.68650134410E+03  0.00000000000E+00 0. -1.
         25    2    1    2    0    0  0.87813118191E+02  0.33471595666E+02 -0.38370056666E+03  0.41437435966E+03  0.12509393927E+03 0.  0.
          5    1    3    3  502    0 -0.21967318483E+02 -0.87016700861E+01 -0.15826247893E+03  0.16007113038E+03  0.41800000000E+01 0.  1.
         -5    1    3    3    0  502  0.10978043667E+03  0.42173265752E+02 -0.22543808773E+03  0.25430322928E+03  0.41800000000E+01 0.  1.
        -11    1    1    2    0    0 -0.73278146075E+02  0.15932739556E+02 -0.19553931063E+03  0.20942578849E+03  0.00000000000E+00 0.  1.
         11    1    1    2    0    0 -0.14534972117E+02 -0.49404335223E+02 -0.77179459746E+02  0.92783203006E+02  0.00000000000E+00 0. -1.
</event>
<event>
 7    1  0.2380582E-009  0.2194321E+03  0.7561462E-02  0.1134307E+00
          2   -1    0    0  501    0  0.00000000000E+00  0.00000000000E+00  0.72552866222E+03  0.72552866222E+03  0.00000000000E+00 0. -1.
         -2   -1    0    0    0  501 -0.00000000000E+00 -0.00000000000E+00 -0.21629196407E+03  0.21629196407E+03  0.00000000000E+00 0.  1.
         25    2    1    2    0    0  0.12109325668E+02 -0.19790408480E+03  0.64367010422E+03  0.68503397633E+03  0.12509069956E+03 0.  0.
          5    1    3    3  502    0  0.65101958268E+02 -0.11116981284E+03  0.41962387006E+03  0.43897455163E+03  0.41800000000E+01 0.  1.
         -5    1    3    3    0  502 -0.52992632600E+02 -0.86734271960E+02  0.22404623416E+03  0.24605942470E+03  0.41800000000E+01 0.  1.
        -11    1    1    2    0    0  0.24012743495E+02  0.43718750499E+02 -0.12951768754E+01  0.49896076785E+02  0.00000000000E+00 0.  1.
         11    1    1    2    0    0 -0.36122069164E+02  0.15418533430E+03 -0.13313822920E+03  0.20689057317E+03  0.00000000000E+00 0. -1.
</event>
<event>
 7    1  0.2380582E-009  0.1013347E+03  0.7561462E-02  0.1277514E+00
          1   -1    0    0  501    0  0.00000000000E+00  0.00000000000E+00  0.14942296783E+03  0.14942296783E+03  0.00000000000E+00 0. -1.
         -1   -1    0    0    0  501 -0.00000000000E+00 -0.00000000000E+00 -0.82198410309E+02  0.82198410309E+02  0.00000000000E+00 0.  1.
         25    2    1    2    0    0 -0.15341105910E+02  0.12004279894E+02  0.54902453243E+02  0.13798726743E+03  0.12508698707E+03 0.  0.
          5    1    3    3  502    0 -0.38846481805E+02 -0.47640751367E+02  0.19456469960E+02  0.64612049672E+02  0.41800000000E+01 0.  1.
         -5    1    3    3    0  502  0.23505375895E+02  0.59645031261E+02  0.35445983283E+02  0.73375217758E+02  0.41800000000E+01 0.  1.
        -11    1    1    2    0    0 -0.29663334105E+02  0.18530481611E+01 -0.20613144611E+02  0.36169723643E+02  0.00000000000E+00 0.  1.
         11    1    1    2    0    0  0.45004440014E+02 -0.13857328055E+02  0.32935248893E+02  0.57464387071E+02  0.00000000000E+00 0. -1.
</event>
<event>
 7    1  0.2380582E-009  0.1060025E+03  0.7561462E-02  0.1268157E+00
         -1   -1    0    0    0  501 -0.00000000000E+00  0.00000000000E+00  0.35072797379E+03  0.35072797379E+03  0.00000000000E+00 0.  1.
          1   -1    0    0  501    0  0.00000000000E+00 -0.00000000000E+00 -0.93598836929E+02  0.93598836929E+02  0.00000000000E+00 0. -1.
         25    2    1    2    0    0  0.48987211156E+01  0.35646033619E+01  0.31174143730E+03  0.33595644174E+03  0.12508918078E+03 0.  0.
          5    1    3    3  502    0  0.61466266477E+02  0.10082321512E+02  0.21231608463E+03  0.22130374446E+03  0.41800000000E+01 0.  1.
         -5    1    3    3    0  502 -0.56567545361E+02 -0.65177181500E+01  0.99425352670E+02  0.11465269727E+03  0.41800000000E+01 0.  1.
        -11    1    1    2    0    0  0.37855145683E+02 -0.24281618468E+02 -0.18216341073E+02  0.48522614647E+02  0.00000000000E+00 0.  1.
         11    1    1    2    0    0 -0.42753866799E+02  0.20717015106E+02 -0.36395959365E+02  0.59847754337E+02  0.00000000000E+00 0. -1.
</event>
<event>
 7    1  0.2380582E-009  0.1228515E+03  0.7561462E-02  0.1238466E+00
          2   -1    0    0  501    0  0.00000000000E+00  0.00000000000E+00  0.14473942160E+03  0.14473942160E+03  0.00000000000E+00 0. -1.
         -2   -1    0    0    0  501 -0.00000000000E+00 -0.00000000000E+00 -0.16964196531E+03  0.16964196531E+03  0.00000000000E+00 0.  1.
         25    2    1    2    0    0 -0.60462172641E+02  0.89678892860E+02  0.11416062963E+02  0.16575749479E+03  0.12508893813E+03 0.  0.
          5    1    3    3  502    0 -0.55075600127E+01  0.59023472892E+02 -0.50048372551E+02  0.77694372798E+02  0.41800000000E+01 0.  1.
         -5    1    3    3    0  502 -0.54954612628E+02  0.30655419969E+02  0.61464435513E+02  0.88063121995E+02  0.41800000000E+01 0.  1.
        -11    1    1    2    0    0  0.33798361985E+02 -0.46716645438E+01 -0.47872255817E+02  0.58786959434E+02  0.00000000000E+00 0.  1.
         11    1    1    2    0    0  0.26663810655E+02 -0.85007228317E+02  0.11553649147E+02  0.89836932680E+02  0.00000000000E+00 0. -1.
</event>
<event>
 7    1  0.3539124E-009  0.1242211E+03  0.7561462E-02  0.1236292E+00
         -1   -1    0    0    0  501 -0.00000000000E+00  0.00000000000E+00  0.10803680702E+02  0.10803680702E+02  0.00000000000E+00 0.  1.
          1   -1    0    0  501    0  0.00000000000E+00 -0.00000000000E+00 -0.17751043663E+04  0.17751043663E+04  0.00000000000E+00 0. -1.
         25    2    1    2    0    0  0.63120822423E+02 -0.18570758359E+02 -0.13209569384E+04  0.13284976601E+04  0.12509871551E+03 0.  0.
          5    1    3    3  502    0  0.63225374333E+02  0.44826061632E+02 -0.69143921406E+03  0.69578192195E+03  0.41800000000E+01 0. -1.
         -5    1    3    3    0  502 -0.10455190970E+00 -0.63396819991E+02 -0.62951772431E+03  0.63271573817E+03  0.41800000000E+01 0. -1.
        -11    1    1    2    0    0 -0.18906305247E+02  0.49728534913E+02 -0.15083071305E+03  0.15993836176E+03  0.00000000000E+00 0.  1.
         11    1    1    2    0    0 -0.44214517177E+02 -0.31157776555E+02 -0.29251303421E+03  0.29747202516E+03  0.00000000000E+00 0. -1.
</event>
<event>
 7    1  0.2380582E-009  0.1116854E+03  0.7561462E-02  0.1257480E+00
         -3   -1    0    0    0  501 -0.00000000000E+00  0.00000000000E+00  0.35885830612E+03  0.35885830612E+03  0.00000000000E+00 0.  1.
          3   -1    0    0  501    0  0.00000000000E+00 -0.00000000000E+00 -0.52455596926E+02  0.52455596926E+02  0.00000000000E+00 0. -1.
         25    2    1    2    0    0  0.63265868515E+02  0.83555818906E+01  0.87661430539E+02  0.16554761263E+03  0.12509636196E+03 0.  0.
          5    1    3    3  502    0  0.96553576446E+02 -0.17867920194E+01  0.36057823330E+02  0.10316697521E+03  0.41800000000E+01 0.  1.
         -5    1    3    3    0  502 -0.33287707931E+02  0.10142373910E+02  0.51603607209E+02  0.62380637419E+02  0.41800000000E+01 0.  1.
        -11    1    1    2    0    0 -0.17441177840E+02 -0.34676487179E+02  0.28055654231E+02  0.47893352168E+02  0.00000000000E+00 0. -1.
         11    1    1    2    0    0 -0.45824690675E+02  0.26320905289E+02  0.19068562443E+03  0.19787293825E+03  0.00000000000E+00 0.  1.
</event>
<event>
 7    1  0.3015512E-009  0.7987222E+02  0.7561462E-02  0.1329414E+00
         -1   -1    0    0    0  501 -0.00000000000E+00  0.00000000000E+00  0.45349441802E+02  0.45349441802E+02  0.00000000000E+00 0.  1.
          1   -1    0    0  501    0  0.00000000000E+00 -0.00000000000E+00 -0.51386431591E+03  0.51386431591E+03  0.00000000000E+00 0. -1.
         25    2    1    2    0    0 -0.51073765040E+02 -0.53313151013E+02 -0.39504413680E+03  0.42090185793E+03  0.12509069686E+03 0.  0.
          5    1    3    3  502    0 -0.50395587885E+02 -0.42819031588E+02 -0.40212832150E+03  0.40755103251E+03  0.41800000000E+01 0. -1.
         -5    1    3    3    0  502 -0.67817715502E+00 -0.10494119425E+02  0.70841846944E+01  0.13350825426E+02  0.41800000000E+01 0. -1.
        -11    1    1    2    0    0  0.35055075825E+02  0.55857763522E+02 -0.30172804544E+01  0.66015544140E+02  0.00000000000E+00 0.  1.
         11    1    1    2    0    0  0.16018689216E+02 -0.25446125082E+01 -0.70453456846E+02  0.72296355639E+02  0.00000000000E+00 0. -1.
</event>
<event>
 7    1  0.2380582E-009  0.1032467E+03  0.7561462E-02  0.1273613E+00
          1   -1    0    0  501    0  0.00000000000E+00  0.00000000000E+00  0.55698671044E+02  0.55698671044E+02  0.00000000000E+00 0. -1.
         -1   -1    0    0    0  501 -0.00000000000E+00 -0.00000000000E+00 -0.37117839626E+03  0.37117839626E+03  0.00000000000E+00 0.  1.
         25    2    1    2    0    0  0.11442639032E+02 -0.74812083727E+02 -0.91915016416E+02  0.17269547036E+03  0.12509026094E+03 0.  0.
          5    1    3    3  502    0  0.10138438374E+02  0.35547709839E+01  0.27486716744E+02  0.29806313539E+02  0.41800000000E+01 0. -1.
         -5    1    3    3    0  502  0.13042006584E+01 -0.78366854711E+02 -0.11940173316E+03  0.14288915683E+03  0.41800000000E+01 0. -1.
        -11    1    1    2    0    0 -0.46493136929E+02  0.18275098894E+02 -0.63141528371E+02  0.80513623854E+02  0.00000000000E+00 0. -1.
         11    1    1    2    0    0  0.35050497897E+02  0.56536984833E+02 -0.16042318043E+03  0.17366797309E+03  0.00000000000E+00 0.  1.
</event>
<event>
 7    1  0.2380582E-009  0.8733692E+02  0.7561462E-02  0.1309432E+00
         -4   -1    0    0    0  501 -0.00000000000E+00  0.00000000000E+00  0.10812425550E+03  0.10812425550E+03  0.00000000000E+00 0. -1.
          4   -1    0    0  501    0  0.00000000000E+00 -0.00000000000E+00 -0.11432819028E+03  0.11432819028E+03  0.00000000000E+00 0.  1.
         25    2    1    2    0    0 -0.73011934422E+01 -0.20506898146E+02 -0.17902657577E+02  0.12823018547E+03  0.12509450436E+03 0.  0.
          5    1    3    3  502    0 -0.33443735264E+02 -0.66126442222E+02 -0.97200589092E+01  0.74854136389E+02  0.41800000000E+01 0. -1.
         -5    1    3    3    0  502  0.26142541822E+02  0.45619544076E+02 -0.81825986674E+01  0.53376049081E+02  0.41800000000E+01 0. -1.
        -11    1    1    2    0    0  0.96481750585E+01  0.33316563536E+02  0.45954163788E+02  0.57574871752E+02  0.00000000000E+00 0. -1.
         11    1    1    2    0    0 -0.23469816162E+01 -0.12809665390E+02 -0.34255440993E+02  0.36647388553E+02  0.00000000000E+00 0.  1.
</event>
<event>
 7    1  0.2380582E-009  0.1358585E+03  0.7561462E-02  0.1219013E+00
         -2   -1    0    0    0  501 -0.00000000000E+00  0.00000000000E+00  0.29729606288E+03  0.29729606288E+03  0.00000000000E+00 0.  1.
          2   -1    0    0  501    0  0.00000000000E+00 -0.00000000000E+00 -0.88160919204E+02  0.88160919204E+02  0.00000000000E+00 0. -1.
         25    2    1    2    0    0 -0.46295748249E+02  0.96524353450E+02  0.18407889454E+03  0.24696716586E+03  0.12508994556E+03 0.  0.
          5    1    3    3  502    0 -0.47866230644E+02 -0.16917401886E+02  0.62352830152E+02  0.80515354750E+02  0.41800000000E+01 0.  1.
         -5    1    3    3    0  502  0.15704823946E+01  0.11344175534E+03  0.12172606439E+03  0.16645181111E+03  0.41800000000E+01 0.  1.
        -11    1    1    2    0    0  0.16139294676E+02 -0.26851600997E+02  0.49631591677E+02  0.58692249923E+02  0.00000000000E+00 0. -1.
         11    1    1    2    0    0  0.30156453573E+02 -0.69672752453E+02 -0.24575342543E+02  0.79797566301E+02  0.00000000000E+00 0.  1.
</event>
<event>
 7    1  0.2380582E-009  0.1083470E+03  0.7561462E-02  0.1263662E+00
          1   -1    0    0  501    0  0.00000000000E+00  0.00000000000E+00  0.48538293319E+03  0.48538293319E+03  0.00000000000E+00 0. -1.
         -1   -1    0    0    0  501 -0.00000000000E+00 -0.00000000000E+00 -0.30022097316E+02  0.30022097316E+02  0.00000000000E+00 0.  1.
         25    2    1    2    0    0  0.89857355356E+01  0.28521579403E+02  0.32618858768E+03  0.35062946256E+03  0.12509117214E+03 0.  0.
          5    1    3    3  502    0 -0.56006636013E+02  0.29409668698E+02  0.16731792966E+03  0.17892577756E+03  0.41800000000E+01 0.  1.
         -5    1    3    3    0  502  0.64992371548E+02 -0.88808929438E+00  0.15887065801E+03  0.17170368499E+03  0.41800000000E+01 0.  1.
        -11    1    1    2    0    0  0.24227500956E+02 -0.44985484364E+02  0.30822437739E+02  0.59671503033E+02  0.00000000000E+00 0.  1.
         11    1    1    2    0    0 -0.33213236492E+02  0.16463904961E+02  0.98349810453E+02  0.10510406491E+03  0.00000000000E+00 0. -1.
</event>
<event>
 7    1  0.2380582E-009  0.1605450E+03  0.7561462E-02  0.1188083E+00
         -1   -1    0    0    0  501 -0.00000000000E+00  0.00000000000E+00  0.77363630983E+02  0.77363630983E+02  0.00000000000E+00 0.  1.
          1   -1    0    0  501    0  0.00000000000E+00 -0.00000000000E+00 -0.45885436675E+03  0.45885436675E+03  0.00000000000E+00 0. -1.
         25    2    1    2    0    0  0.11391604396E+03 -0.10441031937E+03 -0.18339976653E+03  0.27048392754E+03  0.12509077036E+03 0.  0.
          5    1    3    3  502    0  0.38495157409E+02 -0.75989430359E+02 -0.19050887915E+02  0.87388096447E+02  0.41800000000E+01 0. -1.
         -5    1    3    3    0  502  0.75420886553E+02 -0.28420889007E+02 -0.16434887861E+03  0.18309583109E+03  0.41800000000E+01 0. -1.
        -11    1    1    2    0    0 -0.80975829799E+02  0.65759055322E+02 -0.64080693817E+02  0.12242415484E+03  0.00000000000E+00 0.  1.
         11    1    1    2    0    0 -0.32940214163E+02  0.38651264045E+02 -0.13401027542E+03  0.14330991536E+03  0.00000000000E+00 0. -1.
</event>
<event>
 7    1  0.2380582E-009  0.9627011E+02  0.7561462E-02  0.1288341E+00
          1   -1    0    0  501    0  0.00000000000E+00  0.00000000000E+00  0.11300312933E+03  0.11300312933E+03  0.00000000000E+00 0. -1.
         -1   -1    0    0    0  501 -0.00000000000E+00 -0.00000000000E+00 -0.13721449097E+03  0.13721449097E+03  0.00000000000E+00 0.  1.
         25    2    1    2    0    0  0.59368777419E+02 -0.15050296439E+02 -0.23642882859E+02  0.14126661458E+03  0.12508440082E+03 0.  0.
          5    1    3    3  502    0  0.72724396985E+02 -0.37197243226E+02 -0.56377343185E+02  0.99339569382E+02  0.41800000000E+01 0.  1.
         -5    1    3    3    0  502 -0.13355619566E+02  0.22146946786E+02  0.32734460327E+02  0.41927045195E+02  0.41800000000E+01 0.  1.
        -11    1    1    2    0    0 -0.32528803966E+02 -0.21655730494E+02  0.34025676869E+02  0.51815445932E+02  0.00000000000E+00 0. -1.
         11    1    1    2    0    0 -0.26839973453E+02  0.36706026933E+02 -0.34594155646E+02  0.57135559795E+02  0.00000000000E+00 0.  1.
</event>
<event>
 7    1  0.2380582E-009  0.3471976E+03  0.7561462E-02  0.1063771E+00
          1   -1    0    0  501    0  0.00000000000E+00  0.00000000000E+00  0.13726093042E+04  0.13726093042E+04  0.00000000000E+00 0. -1.
         -1   -1    0    0    0  501 -0.00000000000E+00 -0.00000000000E+00 -0.11870801934E+03  0.11870801934E+03  0.00000000000E+00 0.  1.
         25    2    1    2    0    0  0.28450888179E+03 -0.19362898209E+03  0.30059397375E+03  0.47375224212E+03  0.12508782250E+03 0.  0.
          5    1    3    3  502    0 -0.23879669510E+01 -0.32206079148E+01  0.43816051895E+02  0.44197211509E+02  0.41800000000E+01 0.  1.
         -5    1    3    3    0  502  0.28689684874E+03 -0.19040837418E+03  0.25677792186E+03  0.42955503062E+03  0.41800000000E+01 0.  1.
        -11    1    1    2    0    0 -0.84117066258E+02  0.52760162019E+02  0.17024947861E+03  0.19708932112E+03  0.00000000000E+00 0. -1.
         11    1    1    2    0    0 -0.20039181553E+03  0.14086882007E+03  0.78305783246E+03  0.82047576027E+03  0.00000000000E+00 0.  1.
</event>
<event>
 7    1  0.2380582E-009  0.1371168E+03  0.7561462E-02  0.1217262E+00
         -1   -1    0    0    0  501 -0.00000000000E+00  0.00000000000E+00  0.14696945018E+03  0.14696945018E+03  0.00000000000E+00 0.  1.
          1   -1    0    0  501    0  0.00000000000E+00 -0.00000000000E+00 -0.16698579829E+03  0.16698579829E+03  0.00000000000E+00 0. -1.
         25    2    1    2    0    0  0.21223761121E+02 -0.99836088867E+02 -0.57672863873E+02  0.17143733871E+03  0.12508760611E+03 0.  0.
          5    1    3    3  502    0  0.57238043949E+02 -0.31168205980E+02 -0.66596098888E+02  0.93274667119E+02  0.41800000000E+01 0.  1.
         -5    1    3    3    0  502 -0.36014282828E+02 -0.68667882887E+02  0.89232350149E+01  0.78162671595E+02  0.41800000000E+01 0.  1.
        -11    1    1    2    0    0  0.30171159844E+02  0.19565646454E+02  0.30117590805E+02  0.46906104969E+02  0.00000000000E+00 0. -1.
         11    1    1    2    0    0 -0.51394920965E+02  0.80270442413E+02  0.75389249600E+01  0.95611804793E+02  0.00000000000E+00 0.  1.
</event>
<event>
 7    1  0.2380582E-009  0.1298963E+03  0.7561462E-02  0.1227610E+00
         -3   -1    0    0    0  501 -0.00000000000E+00  0.00000000000E+00  0.54939008185E+03  0.54939008185E+03  0.00000000000E+00 0.  1.
          3   -1    0    0  501    0  0.00000000000E+00 -0.00000000000E+00 -0.32315530855E+02  0.32315530855E+02  0.00000000000E+00 0. -1.
         25    2    1    2    0    0  0.71950325179E+02  0.30755531153E+02  0.29900728139E+03  0.33343412665E+03  0.12510080135E+03 0.  0.
          5    1    3    3  502    0 -0.60964200071E+01 -0.40245390348E+02  0.10224216386E+03  0.11012624688E+03  0.41800000000E+01 0.  1.
         -5    1    3    3    0  502  0.78046745186E+02  0.71000921501E+02  0.19676511753E+03  0.22330787977E+03  0.41800000000E+01 0.  1.
        -11    1    1    2    0    0  0.16548572788E+02 -0.16990828111E+02  0.82095901037E+02  0.85453381843E+02  0.00000000000E+00 0. -1.
         11    1    1    2    0    0 -0.88498897967E+02 -0.13764703042E+02  0.13597136857E+03  0.16281810422E+03  0.00000000000E+00 0.  1.
</event>
<event>
 7    1  0.2380582E-009  0.7618307E+02  0.7561462E-02  0.1340246E+00
          1   -1    0    0  501    0  0.00000000000E+00  0.00000000000E+00  0.36431309445E+03  0.36431309445E+03  0.00000000000E+00 0. -1.
         -1   -1    0    0    0  501 -0.00000000000E+00 -0.00000000000E+00 -0.43274054963E+02  0.43274054963E+02  0.00000000000E+00 0.  1.
         25    2    1    2    0    0  0.31500492418E+02 -0.41951451917E+02  0.11994648956E+03  0.18107085892E+03  0.12508912923E+03 0.  0.
          5    1    3    3  502    0  0.19568560301E+02 -0.22959149745E+02 -0.21829575699E+02  0.37470707018E+02  0.41800000000E+01 0. -1.
         -5    1    3    3    0  502  0.11931932118E+02 -0.18992302172E+02  0.14177606526E+03  0.14360015190E+03  0.41800000000E+01 0. -1.
        -11    1    1    2    0    0  0.28665938562E+02  0.69796025232E+01  0.96321628589E+02  0.10073880592E+03  0.00000000000E+00 0. -1.
         11    1    1    2    0    0 -0.60166430980E+02  0.34971849393E+02  0.10477092134E+03  0.12577748457E+03  0.00000000000E+00 0.  1.
</event>
<event>
 7    1  0.2380582E-009  0.1011286E+03  0.7561462E-02  0.1277940E+00
          1   -1    0    0  501    0  0.00000000000E+00  0.00000000000E+00  0.13382323916E+04  0.13382323916E+04  0.00000000000E+00 0. -1.
         -1   -1    0    0    0  501 -0.00000000000E+00 -0.00000000000E+00 -0.22381996082E+02  0.22381996082E+02  0.00000000000E+00 0.  1.
         25    2    1    2    0    0  0.18858021852E+02  0.13513229510E+02  0.12393008044E+04  0.12458141120E+04  0.12509230800E+03 0.  0.
          5    1    3    3  502    0  0.69788315955E+02  0.26024304572E+02  0.71738576864E+03  0.72125410703E+03  0.41800000000E+01 0. -1.
         -5    1    3    3    0  502 -0.50930294103E+02 -0.12511075061E+02  0.52191503575E+03  0.52456000495E+03  0.41800000000E+01 0. -1.
        -11    1    1    2    0    0 -0.29606295781E+02 -0.38077845819E+02  0.19999138425E+02  0.52215137937E+02  0.00000000000E+00 0.  1.
         11    1    1    2    0    0  0.10748273929E+02  0.24564616309E+02  0.56550452736E+02  0.62585137785E+02  0.00000000000E+00 0. -1.
</event>
<event>
 7    1  0.2380582E-009  0.1009485E+03  0.7561462E-02  0.1278314E+00
         -1   -1    0    0    0  501 -0.00000000000E+00  0.00000000000E+00  0.91301805450E+02  0.91301805450E+02  0.00000000000E+00 0.  1.
          1   -1    0    0  501    0  0.00000000000E+00 -0.00000000000E+00 -0.22274925295E+03  0.22274925295E+03  0.00000000000E+00 0. -1.
         25    2    1    2    0    0  0.14244389918E+01 -0.36271396685E+02 -0.10587392490E+03  0.16784620068E+03  0.12508163681E+03 0.  0.
          5    1    3    3  502    0 -0.11819656984E+02 -0.79781241352E+02 -0.86185195653E+02  0.11811058849E+03  0.41800000000E+01 0. -1.
         -5    1    3    3    0  502  0.13244095976E+02  0.43509844667E+02 -0.19688729249E+02  0.49735612197E+02  0.41800000000E+01 0. -1.
        -11    1    1    2    0    0 -0.33766529097E+02  0.16827500791E+02  0.49465772353E+02  0.62210978971E+02  0.00000000000E+00 0.  1.
         11    1    1    2    0    0  0.32342090105E+02  0.19443895894E+02 -0.75039294953E+02  0.83993878747E+02  0.00000000000E+00 0. -1.
</event>
<event>
 7    1  0.2380582E-009  0.7864832E+02  0.7561462E-02  0.1332932E+00
          3   -1    0    0  501    0  0.00000000000E+00  0.00000000000E+00  0.17343306682E+02  0.17343306682E+02  0.00000000000E+00 0. -1.
         -3   -1    0    0    0  501 -0.00000000000E+00 -0.00000000000E+00 -0.71477714421E+03  0.71477714421E+03  0.00000000000E+00 0.  1.
         25    2    1    2    0    0  0.80207232286E+01 -0.13751378124E+02 -0.33122024738E+03  0.35441200727E+03  0.12509031226E+03 0.  0.
          5    1    3    3  502    0  0.19741588792E+02  0.21403737230E+02 -0.31022309457E+03  0.31161465161E+03  0.41800000000E+01 0.  1.
         -5    1    3    3    0  502 -0.11720865563E+02 -0.35155115354E+02 -0.20997152809E+02  0.42797355657E+02  0.41800000000E+01 0.  1.
        -11    1    1    2    0    0 -0.23559481575E+02 -0.33438965263E+02 -0.20384947407E+03  0.20791301462E+03  0.00000000000E+00 0.  1.
         11    1    1    2    0    0  0.15538758346E+02  0.47190343388E+02 -0.16236411608E+03  0.16979542900E+03  0.00000000000E+00 0. -1.
</event>
<event>
 7    1  0.2380582E-009  0.1049254E+03  0.7561462E-02  0.1270267E+00
          1   -1    0    0  501    0  0.00000000000E+00  0.00000000000E+00  0.38148591622E+03  0.38148591622E+03  0.00000000000E+00 0. -1.
         -1   -1    0    0    0  501 -0.00000000000E+00 -0.00000000000E+00 -0.61216276108E+02  0.61216276108E+02  0.00000000000E+00 0.  1.
         25    2    1    2    0    0  0.24995422609E+02 -0.99528333532E+02  0.20808074623E+03  0.26358524061E+03  0.12509565055E+03 0.  0.
          5    1    3    3  502    0  0.29270009620E+02 -0.56402013424E+02  0.14690378626E+02  0.65354419939E+02  0.41800000000E+01 0.  1.
         -5    1    3    3    0  502 -0.42745870107E+01 -0.43126320108E+02  0.19339036761E+03  0.19823082067E+03  0.41800000000E+01 0.  1.
        -11    1    1    2    0    0 -0.11669930893E+02  0.49558470591E+02 -0.48666792002E+01  0.51146005327E+02  0.00000000000E+00 0.  1.
         11    1    1    2    0    0 -0.13325491715E+02  0.49969862940E+02  0.11705557308E+03  0.12797094639E+03  0.00000000000E+00 0. -1.
</event>
<event>
 7    1  0.2380582E-009  0.1049826E+03  0.7561462E-02  0.1270154E+00
         -2   -1    0    0    0  501 -0.00000000000E+00  0.00000000000E+00  0.15575172501E+03  0.15575172501E+03  0.00000000000E+00 0.  1.
          2   -1    0    0  501    0  0.00000000000E+00 -0.00000000000E+00 -0.10608638497E+03  0.10608638497E+03  0.00000000000E+00 0. -1.
         25    2    1    2    0    0  0.55261294542E+02 -0.32016008175E+02 -0.99874725988E+01  0.14080328993E+03  0.12508789467E+03 0.  0.
          5    1    3    3  502    0  0.25318915607E+02  0.27801773581E+02 -0.50032872596E+02  0.62727560466E+02  0.41800000000E+01 0.  1.
         -5    1    3    3    0  502  0.29942378934E+02 -0.59817781756E+02  0.40045399997E+02  0.78075729464E+02  0.41800000000E+01 0.  1.
        -11    1    1    2    0    0  0.22207057627E+02  0.31217982014E+01  0.96854791652E+01  0.24427597899E+02  0.00000000000E+00 0.  1.
         11    1    1    2    0    0 -0.77468352169E+02  0.28894209974E+02  0.49967333466E+02  0.96607222150E+02  0.00000000000E+00 0. -1.
</event>
<event>
 7    1  0.2380582E-009  0.1036750E+03  0.7561462E-02  0.1272752E+00
          2   -1    0    0  501    0  0.00000000000E+00  0.00000000000E+00  0.22135479791E+03  0.22135479791E+03  0.00000000000E+00 0. -1.
         -2   -1    0    0    0  501 -0.00000000000E+00 -0.00000000000E+00 -0.78050373154E+02  0.78050373154E+02  0.00000000000E+00 0.  1.
         25    2    1    2    0    0 -0.66375624870E+02 -0.24315046741E+02  0.62282563911E+02  0.15660206554E+03  0.12509254210E+03 0.  0.
          5    1    3    3  502    0  0.12026876233E+02 -0.34968155170E+02 -0.20104446996E+02  0.42297503672E+02  0.41800000000E+01 0.  1.
         -5    1    3    3    0  502 -0.78402501103E+02  0.10653108429E+02  0.82387010907E+02  0.11430456187E+03  0.41800000000E+01 0.  1.
        -11    1    1    2    0    0  0.86632839521E+01  0.31569020397E+02 -0.10484884968E+02  0.34374239635E+02  0.00000000000E+00 0.  1.
         11    1    1    2    0    0  0.57712340918E+02 -0.72539736565E+01  0.91506745811E+02  0.10842886588E+03  0.00000000000E+00 0. -1.
</event>
<event>
 7    1  0.2380582E-009  0.1120590E+03  0.7561462E-02  0.1256804E+00
          4   -1    0    0  501    0  0.00000000000E+00  0.00000000000E+00  0.47737915064E+02  0.47737915064E+02  0.00000000000E+00 0. -1.
         -4   -1    0    0    0  501 -0.00000000000E+00 -0.00000000000E+00 -0.36290090604E+03  0.36290090604E+03  0.00000000000E+00 0.  1.
         25    2    1    2    0    0 -0.48725245560E+02  0.48632788047E+02 -0.12463915190E+03  0.18952924361E+03  0.12508844220E+03 0.  0.
          5    1    3    3  502    0  0.15007832179E+02  0.47172173530E+02 -0.23394520657E+00  0.49678728976E+02  0.41800000000E+01 0.  1.
         -5    1    3    3    0  502 -0.63733077739E+02  0.14606145170E+01 -0.12440520669E+03  0.13985051464E+03  0.41800000000E+01 0.  1.
        -11    1    1    2    0    0 -0.15716401872E+02 -0.43097940721E+02 -0.98169094334E+02  0.10835870461E+03  0.00000000000E+00 0. -1.
         11    1    1    2    0    0  0.64441647432E+02 -0.55348473269E+01 -0.92354744747E+02  0.11275087288E+03  0.00000000000E+00 0.  1.
</event>
<event>
 7    1  0.2380582E-009  0.6860089E+02  0.7561462E-02  0.1364916E+00
         -2   -1    0    0    0  501 -0.00000000000E+00  0.00000000000E+00  0.64608582969E+02  0.64608582969E+02  0.00000000000E+00 0.  1.
          2   -1    0    0  501    0  0.00000000000E+00 -0.00000000000E+00 -0.20450755654E+03  0.20450755654E+03  0.00000000000E+00 0. -1.
         25    2    1    2    0    0 -0.35354451610E+02 -0.12112787660E+02 -0.85748722188E+02  0.15619721554E+03  0.12509224561E+03 0.  0.
          5    1    3    3  502    0 -0.11070287312E+02  0.14452671564E+02  0.29761281587E+02  0.35137405399E+02  0.41800000000E+01 0. -1.
         -5    1    3    3    0  502 -0.24284164298E+02 -0.26565459224E+02 -0.11551000378E+03  0.12105981014E+03  0.41800000000E+01 0. -1.
        -11    1    1    2    0    0  0.57067500769E+02 -0.71010672080E+00 -0.45209472086E+01  0.57250701823E+02  0.00000000000E+00 0.  1.
         11    1    1    2    0    0 -0.21713049159E+02  0.12822894381E+02 -0.49629304179E+02  0.55668222150E+02  0.00000000000E+00 0. -1.
</event>
<event>
 7    1  0.2380582E-009  0.1564230E+03  0.7561462E-02  0.1192795E+00
         -2   -1    0    0    0  501 -0.00000000000E+00  0.00000000000E+00  0.33043853043E+03  0.33043853043E+03  0.00000000000E+00 0.  1.
          2   -1    0    0  501    0  0.00000000000E+00 -0.00000000000E+00 -0.10559177761E+03  0.10559177761E+03  0.00000000000E+00 0. -1.
         25    2    1    2    0    0 -0.13095086398E+03  0.75560042623E+02  0.10657536266E+03  0.22329983868E+03  0.12508821372E+03 0.  0.
          5    1    3    3  502    0 -0.74312945584E+02  0.65596705291E+02  0.12786096193E+03  0.16183707737E+03  0.41800000000E+01 0. -1.
         -5    1    3    3    0  502 -0.56637918396E+02  0.99633373320E+01 -0.21285599278E+02  0.61462761308E+02  0.41800000000E+01 0. -1.
        -11    1    1    2    0    0  0.45925186970E+02 -0.63893151894E+01  0.87268953057E+02  0.98822144859E+02  0.00000000000E+00 0.  1.
         11    1    1    2    0    0  0.85025677009E+02 -0.69170727434E+02  0.31002437105E+02  0.11390832450E+03  0.00000000000E+00 0. -1.
</event>
<event>
 7    1  0.2380582E-009  0.1177506E+03  0.7561462E-02  0.1246855E+00
         -1   -1    0    0    0  501 -0.00000000000E+00  0.00000000000E+00  0.41251070463E+03  0.41251070463E+03  0.00000000000E+00 0.  1.
          1   -1    0    0  501    0  0.00000000000E+00 -0.00000000000E+00 -0.40540904664E+02  0.40540904664E+02  0.00000000000E+00 0. -1.
         25    2    1    2    0    0 -0.66639118697E+02  0.20485358876E+02  0.23480982902E+03  0.27502990606E+03  0.12508145887E+03 0.  0.
          5    1    3    3  502    0 -0.41622618822E+02 -0.46268881148E+02  0.15942024691E+03  0.17118860735E+03  0.41800000000E+01 0. -1.
         -5    1    3    3    0  502 -0.25016499875E+02  0.66754240023E+02  0.75389582108E+02  0.10384129871E+03  0.41800000000E+01 0. -1.
        -11    1    1    2    0    0  0.10838177016E+02  0.26587129857E+02  0.80933059945E+02  0.85874919197E+02  0.00000000000E+00 0. -1.
         11    1    1    2    0    0  0.55800941681E+02 -0.47072488733E+02  0.56226910998E+02  0.92146784037E+02  0.00000000000E+00 0.  1.
</event>
<event>
 7    1  0.2380582E-009  0.1573656E+03  0.7561462E-02  0.1191703E+00
          2   -1    0    0  501    0  0.00000000000E+00  0.00000000000E+00  0.15152340233E+03  0.15152340233E+03  0.00000000000E+00 0. -1.
         -2   -1    0    0    0  501 -0.00000000000E+00 -0.00000000000E+00 -0.22298056271E+03  0.22298056271E+03  0.00000000000E+00 0.  1.
         25    2    1    2    0    0 -0.44654763220E+02 -0.12836111391E+03  0.22518783894E+02  0.18607846562E+03  0.12508987288E+03 0.  0.
          5    1    3    3  502    0  0.16604430477E+01  0.73439319287E+01 -0.31603946813E+02  0.32756255303E+02  0.41800000000E+01 0. -1.
         -5    1    3    3    0  502 -0.46315206267E+02 -0.13570504584E+03  0.54122730707E+02  0.15332221032E+03  0.41800000000E+01 0. -1.
        -11    1    1    2    0    0  0.52565122983E+02  0.23619775511E+02 -0.41437943684E+02  0.70979497928E+02  0.00000000000E+00 0. -1.
         11    1    1    2    0    0 -0.79103597631E+01  0.10474133840E+03 -0.52538000589E+02  0.11744600149E+03  0.00000000000E+00 0.  1.
</event>
<event>
 7    1  0.2380582E-009  0.1228208E+03  0.7561462E-02  0.1238515E+00
          2   -1    0    0  501    0  0.00000000000E+00  0.00000000000E+00  0.52451933564E+03  0.52451933564E+03  0.00000000000E+00 0. -1.
         -2   -1    0    0    0  501 -0.00000000000E+00 -0.00000000000E+00 -0.36499731013E+02  0.36499731013E+02  0.00000000000E+00 0.  1.
         25    2    1    2    0    0  0.89395009513E+02  0.61002700431E+01  0.24782267583E+03  0.29170475411E+03  0.12508758489E+03 0.  0.
          5    1    3    3  502    0  0.11389216626E+03  0.29017319659E+02  0.16853622923E+03  0.20551244084E+03  0.41800000000E+01 0.  1.
         -5    1    3    3    0  502 -0.24497156752E+02 -0.22917049616E+02  0.79286446602E+02  0.86192313270E+02  0.41800000000E+01 0.  1.
        -11    1    1    2    0    0 -0.52591745568E+02 -0.17945829386E+02  0.48500881042E+02  0.73758253478E+02  0.00000000000E+00 0.  1.
         11    1    1    2    0    0 -0.36803263944E+02  0.11845559343E+02  0.19169604776E+03  0.19555605907E+03  0.00000000000E+00 0. -1.
</event>
<event>
 7    1  0.2380582E-009  0.6522724E+02  0.7561462E-02  0.1377119E+00
          2   -1    0    0  501    0  0.00000000000E+00  0.00000000000E+00  0.37104431567E+03  0.37104431567E+03  0.00000000000E+00 0. -1.
         -2   -1    0    0    0  501 -0.00000000000E+00 -0.00000000000E+00 -0.38536268069E+02  0.38536268069E+02  0.00000000000E+00 0.  1.
         25    2    1    2    0    0  0.91801519789E+00  0.34634643311E+02  0.22557221915E+03  0.26024566495E+03  0.12507829069E+03 0.  0.
          5    1    3    3  502    0 -0.61615865899E+01 -0.97889094053E+01  0.21299488337E+03  0.21334966754E+03  0.41800000000E+01 0. -1.
         -5    1    3    3    0  502  0.70796017877E+01  0.44423552717E+02  0.12577335780E+02  0.46895997407E+02  0.41800000000E+01 0. -1.
        -11    1    1    2    0    0 -0.66137169787E+01  0.18444237968E+02 -0.91029912455E+01  0.21605453388E+02  0.00000000000E+00 0.  1.
         11    1    1    2    0    0  0.56957017808E+01 -0.53078881279E+02  0.11603881970E+03  0.12772946541E+03  0.00000000000E+00 0. -1.
</event>
<event>
 7    1  0.2380582E-009  0.1035570E+03  0.7561462E-02  0.1272989E+00
          2   -1    0    0  501    0  0.00000000000E+00  0.00000000000E+00  0.34821393822E+03  0.34821393822E+03  0.00000000000E+00 0. -1.
         -2   -1    0    0    0  501 -0.00000000000E+00 -0.00000000000E+00 -0.55710265246E+02  0.55710265246E+02  0.00000000000E+00 0.  1.
         25    2    1    2    0    0  0.40672585574E+02 -0.18638070941E+02  0.51661980663E+02  0.14254120831E+03  0.12508956357E+03 0.  0.
          5    1    3    3  502    0  0.34135810866E+02  0.39177446999E+02  0.64377547487E+02  0.82837593865E+02  0.41800000000E+01 0.  1.
         -5    1    3    3    0  502  0.65367747078E+01 -0.57815517941E+02 -0.12715566824E+02  0.59703614446E+02  0.41800000000E+01 0.  1.
        -11    1    1    2    0    0 -0.20409799488E+02  0.52980065860E+02  0.99866586025E+02  0.11487724883E+03  0.00000000000E+00 0. -1.
         11    1    1    2    0    0 -0.20262786086E+02 -0.34341994918E+02  0.14097510629E+03  0.14650574633E+03  0.00000000000E+00 0.  1.
</event>
<event>
 7    1  0.2380582E-009  0.1013395E+03  0.7561462E-02  0.1277504E+00
          2   -1    0    0  501    0  0.00000000000E+00  0.00000000000E+00  0.63993061587E+02  0.63993061587E+02  0.00000000000E+00 0. -1.
         -2   -1    0    0    0  501 -0.00000000000E+00 -0.00000000000E+00 -0.26961061885E+03  0.26961061885E+03  0.00000000000E+00 0.  1.
         25    2    1    2    0    0  0.69871174696E+02 -0.17270264093E+02 -0.15065695746E+03  0.20862632401E+03  0.12508869318E+03 0.  0.
          5    1    3    3  502    0  0.83363304762E+02 -0.24321229029E+02 -0.16550747084E+03  0.18695228821E+03  0.41800000000E+01 0.  1.
         -5    1    3    3    0  502 -0.13492130066E+02  0.70509649359E+01  0.14850513377E+02  0.21674035799E+02  0.41800000000E+01 0.  1.
        -11    1    1    2    0    0 -0.43482697807E+02  0.44372241559E+02 -0.50205847674E+01  0.62328541624E+02  0.00000000000E+00 0.  1.
         11    1    1    2    0    0 -0.26388476889E+02 -0.27101977466E+02 -0.49940015027E+02  0.62648814801E+02  0.00000000000E+00 0. -1.
</event>
<event>
 7    1  0.2380582E-009  0.1049518E+03  0.7561462E-02  0.1270215E+00
          1   -1    0    0  501    0  0.00000000000E+00  0.00000000000E+00  0.14449346626E+03  0.14449346626E+03  0.00000000000E+00 0. -1.
         -1   -1    0    0    0  501 -0.00000000000E+00 -0.00000000000E+00 -0.11200251786E+03  0.11200251786E+03  0.00000000000E+00 0.  1.
         25    2    1    2    0    0  0.11255696217E+02 -0.43421998957E+02 -0.31453835850E+02  0.13655763432E+03  0.12508590252E+03 0.  0.
          5    1    3    3  502    0  0.31583436872E+02 -0.69092204795E+02 -0.56793596390E+02  0.94943305393E+02  0.41800000000E+01 0. -1.
         -5    1    3    3    0  502 -0.20327740655E+02  0.25670205837E+02  0.25339760539E+02  0.41614328927E+02  0.41800000000E+01 0. -1.
        -11    1    1    2    0    0 -0.49846988379E+02  0.36060330655E+02  0.32268047380E+02  0.69471552301E+02  0.00000000000E+00 0.  1.
         11    1    1    2    0    0  0.38591292162E+02  0.73616683024E+01  0.31676736872E+02  0.50466797498E+02  0.00000000000E+00 0. -1.
</event>
<event>
 7    1  0.2380582E-009  0.1107261E+03  0.7561462E-02  0.1259231E+00
          2   -1    0    0  501    0  0.00000000000E+00  0.00000000000E+00  0.49117008717E+03  0.49117008717E+03  0.00000000000E+00 0. -1.
         -2   -1    0    0    0  501 -0.00000000000E+00 -0.00000000000E+00 -0.28146154487E+02  0.28146154487E+02  0.00000000000E+00 0.  1.
         25    2    1    2    0    0  0.54141506696E+01 -0.42011818308E+02  0.31287365734E+03  0.33960596468E+03  0.12509188577E+03 0.  0.
          5    1    3    3  502    0 -0.50119230966E+02 -0.48009759773E+02  0.11921138285E+03  0.13800616127E+03  0.41800000000E+01 0.  1.
         -5    1    3    3    0  502  0.55533381636E+02  0.59979414645E+01  0.19366227448E+03  0.20159980341E+03  0.41800000000E+01 0.  1.
        -11    1    1    2    0    0 -0.45222068429E+02  0.14385007458E+02  0.52959482427E+02  0.71110271350E+02  0.00000000000E+00 0. -1.
         11    1    1    2    0    0  0.39807917759E+02  0.27626810850E+02  0.97190792917E+02  0.10860000563E+03  0.00000000000E+00 0.  1.
</event>
<event>
 7    1  0.2380582E-009  0.1513362E+03  0.7561462E-02  0.1198841E+00
          2   -1    0    0  501    0  0.00000000000E+00  0.00000000000E+00  0.34392918229E+02  0.34392918229E+02  0.00000000000E+00 0. -1.
         -2   -1    0    0    0  501 -0.00000000000E+00 -0.00000000000E+00 -0.77920411803E+03  0.77920411803E+03  0.00000000000E+00 0.  1.
         25    2    1    2    0    0 -0.49245263931E+02 -0.10656436975E+03 -0.47996721477E+03  0.50970273858E+03  0.12508914240E+03 0.  0.
          5    1    3    3  502    0  0.29108425287E+02 -0.60999675720E+02 -0.30701216139E+03  0.31439179458E+03  0.41800000000E+01 0.  1.
         -5    1    3    3    0  502 -0.78353689219E+02 -0.45564694026E+02 -0.17295505338E+03  0.19531094400E+03  0.41800000000E+01 0.  1.
        -11    1    1    2    0    0  0.65172732163E+02  0.41570736841E+02 -0.17954903156E+03  0.19548264863E+03  0.00000000000E+00 0.  1.
         11    1    1    2    0    0 -0.15927468232E+02  0.64993632906E+02 -0.85294953474E+02  0.10841164905E+03  0.00000000000E+00 0. -1.
</event>
<event>
 7    1  0.2380582E-009  0.8764280E+02  0.7561462E-02  0.1308663E+00
          1   -1    0    0  501    0  0.00000000000E+00  0.00000000000E+00  0.16556689133E+03  0.16556689133E+03  0.00000000000E+00 0. -1.
         -1   -1    0    0    0  501 -0.00000000000E+00 -0.00000000000E+00 -0.89900833953E+02  0.89900833953E+02  0.00000000000E+00 0.  1.
         25    2    1    2    0    0  0.49626079623E+01  0.18794372650E+01 -0.17407223113E+02  0.12639790092E+03  0.12508100646E+03 0.  0.
          5    1    3    3  502    0 -0.83414641894E+01  0.43912874705E+02  0.35621474150E+02  0.57308659121E+02  0.41800000000E+01 0. -1.
         -5    1    3    3    0  502  0.13304072152E+02 -0.42033437440E+02 -0.53028697263E+02  0.69089241798E+02  0.41800000000E+01 0. -1.
        -11    1    1    2    0    0 -0.43090829451E+02  0.13255920616E+02  0.65966025552E+02  0.79900284989E+02  0.00000000000E+00 0.  1.
         11    1    1    2    0    0  0.38128221489E+02 -0.15135357881E+02  0.27107254936E+02  0.49169539374E+02  0.00000000000E+00 0. -1.
</event>
<event>
 7    1  0.2380582E-009  0.8638140E+02  0.7561462E-02  0.1311859E+00
          2   -1    0    0  501    0  0.00000000000E+00  0.00000000000E+00  0.15429713050E+03  0.15429713050E+03  0.00000000000E+00 0. -1.
         -2   -1    0    0    0  501 -0.00000000000E+00 -0.00000000000E+00 -0.88196009169E+02  0.88196009169E+02  0.00000000000E+00 0.  1.
         25    2    1    2    0    0  0.12148727073E+02 -0.36178057706E+02  0.18209896961E+02  0.13204747414E+03  0.12509393131E+03 0.  0.
          5    1    3    3  502    0  0.35638903034E+01 -0.74522291964E+02 -0.19710802220E+02  0.77280407852E+02  0.41800000000E+01 0.  1.
         -5    1    3    3    0  502  0.85848367694E+01  0.38344234258E+02  0.37920699181E+02  0.54767066286E+02  0.41800000000E+01 0.  1.
        -11    1    1    2    0    0 -0.13177883028E+02  0.46407404822E+02 -0.11972459171E+02  0.49705569124E+02  0.00000000000E+00 0.  1.
         11    1    1    2    0    0  0.10291559550E+01 -0.10229347116E+02  0.59863683543E+02  0.60740096409E+02  0.00000000000E+00 0. -1.
</event>
<event>
 7    1  0.2380582E-009  0.1446346E+03  0.7561462E-02  0.1207225E+00
          1   -1    0    0  501    0  0.00000000000E+00  0.00000000000E+00  0.95277305902E+02  0.95277305902E+02  0.00000000000E+00 0. -1.
         -1   -1    0    0    0  501 -0.00000000000E+00 -0.00000000000E+00 -0.30338410721E+03  0.30338410721E+03  0.00000000000E+00 0.  1.
         25    2    1    2    0    0  0.12280177436E+03  0.73901711528E+02 -0.10129871378E+03  0.21552327394E+03  0.12508842251E+03 0.  0.
          5    1    3    3  502    0  0.34478797091E+02  0.29166880833E+02  0.27481587887E+02  0.53030222130E+02  0.41800000000E+01 0.  1.
         -5    1    3    3    0  502  0.88322977272E+02  0.44734830695E+02 -0.12878030166E+03  0.16249305181E+03  0.41800000000E+01 0.  1.
        -11    1    1    2    0    0 -0.65334335885E+02 -0.27199261167E+02 -0.73201360726E+02  0.10181755480E+03  0.00000000000E+00 0.  1.
         11    1    1    2    0    0 -0.57467438478E+02 -0.46702450361E+02 -0.33606726804E+02  0.81320584364E+02  0.00000000000E+00 0. -1.
</event>
<event>
 7    1  0.2380582E-009  0.9908055E+02  0.7561462E-02  0.1282241E+00
          1   -1    0    0  501    0  0.00000000000E+00  0.00000000000E+00  0.67045987397E+03  0.67045987397E+03  0.00000000000E+00 0. -1.
         -1   -1    0    0    0  501 -0.00000000000E+00 -0.00000000000E+00 -0.21314032076E+02  0.21314032076E+02  0.00000000000E+00 0.  1.
         25    2    1    2    0    0  0.13130668613E+02 -0.43690162751E+02  0.31445867948E+03  0.34148684601E+03  0.12509100736E+03 0.  0.
          5    1    3    3  502    0 -0.21815403052E+02 -0.60839920832E+02  0.76083193993E+02  0.99917629002E+02  0.41800000000E+01 0.  1.
         -5    1    3    3    0  502  0.34946071666E+02  0.17149758080E+02  0.23837548549E+03  0.24156921701E+03  0.41800000000E+01 0.  1.
        -11    1    1    2    0    0  0.27791326286E+02 -0.74229912703E+01  0.45889685849E+02  0.54160150327E+02  0.00000000000E+00 0.  1.
         11    1    1    2    0    0 -0.40921994899E+02  0.51113154021E+02  0.28879747656E+03  0.29612690970E+03  0.00000000000E+00 0. -1.
</event>
<event>
 7    1  0.2380582E-009  0.1438012E+03  0.7561462E-02  0.1208304E+00
          3   -1    0    0  501    0  0.00000000000E+00  0.00000000000E+00  0.14394973638E+04  0.14394973638E+04  0.00000000000E+00 0. -1.
         -3   -1    0    0    0  501 -0.00000000000E+00 -0.00000000000E+00 -0.24834321257E+02  0.24834321257E+02  0.00000000000E+00 0.  1.
         25    2    1    2    0    0 -0.98048122652E+02  0.41697383448E+02  0.11943705552E+04  0.12056198651E+04  0.12508449088E+03 0.  0.
          5    1    3    3  502    0 -0.14980522556E+02 -0.36262008747E+02  0.53621372187E+03  0.53766344237E+03  0.41800000000E+01 0.  1.
         -5    1    3    3    0  502 -0.83067600096E+02  0.77959392195E+02  0.65815683331E+03  0.66795642272E+03  0.41800000000E+01 0.  1.
        -11    1    1    2    0    0  0.11149976465E+03 -0.45096413876E+02  0.20751182310E+03  0.23984795348E+03  0.00000000000E+00 0.  1.
         11    1    1    2    0    0 -0.13451642003E+02  0.33990304275E+01  0.12780664286E+02  0.18863866518E+02  0.00000000000E+00 0. -1.
</event>
<event>
 7    1  0.2380582E-009  0.1948910E+03  0.7561462E-02  0.1154122E+00
         -1   -1    0    0    0  501 -0.00000000000E+00  0.00000000000E+00  0.11059336849E+03  0.11059336849E+03  0.00000000000E+00 0.  1.
          1   -1    0    0  501    0  0.00000000000E+00 -0.00000000000E+00 -0.55184284886E+03  0.55184284886E+03  0.00000000000E+00 0. -1.
         25    2    1    2    0    0 -0.13271230899E+03 -0.94645322912E+02 -0.42818933822E+03  0.47493531447E+03  0.12508856646E+03 0.  0.
          5    1    3    3  502    0  0.89690197716E+01  0.19700030077E+02 -0.65140459314E+02  0.68769806895E+02  0.41800000000E+01 0.  1.
         -5    1    3    3    0  502 -0.14168132876E+03 -0.11434535299E+03 -0.36304887890E+03  0.40616550757E+03  0.41800000000E+01 0.  1.
        -11    1    1    2    0    0  0.32278297675E+02  0.77209420274E+02  0.55943172679E+01  0.83871803758E+02  0.00000000000E+00 0.  1.
         11    1    1    2    0    0  0.10043401131E+03  0.17435902638E+02 -0.18654459424E+02  0.10362909913E+03  0.00000000000E+00 0. -1.
</event>
<event>
 7    1  0.2380582E-009  0.8716067E+02  0.7561462E-02  0.1309877E+00
         -2   -1    0    0    0  501 -0.00000000000E+00  0.00000000000E+00  0.96931742671E+02  0.96931742671E+02  0.00000000000E+00 0.  1.
          2   -1    0    0  501    0  0.00000000000E+00 -0.00000000000E+00 -0.17530634267E+03  0.17530634267E+03  0.00000000000E+00 0. -1.
         25    2    1    2    0    0 -0.29356302008E+02 -0.32802002244E+02 -0.10468353783E+03  0.16895034964E+03  0.12509122164E+03 0.  0.
          5    1    3    3  502    0 -0.62441803382E+02 -0.30556656426E+02 -0.12319024921E+02  0.70724245041E+02  0.41800000000E+01 0.  1.
         -5    1    3    3    0  502  0.33085501375E+02 -0.22453458182E+01 -0.92364512912E+02  0.98226104598E+02  0.41800000000E+01 0.  1.
        -11    1    1    2    0    0 -0.98060783506E+01 -0.94680007012E+01 -0.23469617861E+02  0.27140839568E+02  0.00000000000E+00 0. -1.
         11    1    1    2    0    0  0.39162380358E+02  0.42270002945E+02  0.49778555694E+02  0.76146896137E+02  0.00000000000E+00 0.  1.
</event>
<event>
 7    1  0.2380582E-009  0.1358174E+03  0.7561462E-02  0.1219070E+00
         -1   -1    0    0    0  501 -0.00000000000E+00  0.00000000000E+00  0.46477431826E+02  0.46477431826E+02  0.00000000000E+00 0.  1.
          1   -1    0    0  501    0  0.00000000000E+00 -0.00000000000E+00 -0.49542483688E+03  0.49542483688E+03  0.00000000000E+00 0. -1.
         25    2    1    2    0    0 -0.73645735385E+02 -0.34751209045E+02 -0.12223658806E+03  0.19292949727E+03  0.12509463052E+03 0.  0.
          5    1    3    3  502    0  0.68524011371E+01 -0.63184880141E+02 -0.55657231929E+02  0.84584184963E+02  0.41800000000E+01 0.  1.
         -5    1    3    3    0  502 -0.80498136522E+02  0.28433671096E+02 -0.66579356133E+02  0.10834531231E+03  0.41800000000E+01 0.  1.
        -11    1    1    2    0    0  0.12414015014E+02  0.56225412766E+02 -0.16302453171E+03  0.17289419525E+03  0.00000000000E+00 0.  1.
         11    1    1    2    0    0  0.61231720371E+02 -0.21474203722E+02 -0.16368628528E+03  0.17607857619E+03  0.00000000000E+00 0. -1.
</event>
<event>
 7    1  0.2380582E-009  0.9420123E+02  0.7561462E-02  0.1292985E+00
         -1   -1    0    0    0  501 -0.00000000000E+00  0.00000000000E+00  0.10833421372E+04  0.10833421372E+04  0.00000000000E+00 0.  1.
          1   -1    0    0  501    0  0.00000000000E+00 -0.00000000000E+00 -0.12937607543E+02  0.12937607543E+02  0.00000000000E+00 0. -1.
         25    2    1    2    0    0  0.23387330452E+01 -0.18949732678E+02  0.80796178051E+03  0.81781009727E+03  0.12508618788E+03 0.  0.
          5    1    3    3  502    0  0.43280199388E+02  0.29626586356E+02  0.21092838385E+03  0.21739173349E+03  0.41800000000E+01 0. -1.
         -5    1    3    3    0  502 -0.40941466343E+02 -0.48576319034E+02  0.59703339666E+03  0.60041836379E+03  0.41800000000E+01 0. -1.
        -11    1    1    2    0    0  0.11730949643E+02  0.42828315710E+02  0.23607548608E+03  0.24021555930E+03  0.00000000000E+00 0.  1.
         11    1    1    2    0    0 -0.14069682688E+02 -0.23878583033E+02  0.26367263038E+02  0.38254088131E+02  0.00000000000E+00 0. -1.
</event>
<event>
 7    1  0.2380582E-009  0.1376459E+03  0.7561462E-02  0.1216532E+00
          1   -1    0    0  501    0  0.00000000000E+00  0.00000000000E+00  0.33507195086E+03  0.33507195086E+03  0.00000000000E+00 0. -1.
         -1   -1    0    0    0  501 -0.00000000000E+00 -0.00000000000E+00 -0.85994152107E+02  0.85994152107E+02  0.00000000000E+00 0.  1.
         25    2    1    2    0    0 -0.87507572861E+02 -0.63525251703E+02  0.22575190017E+03  0.27983174676E+03  0.12509537622E+03 0.  0.
          5    1    3    3  502    0 -0.11369338510E+03 -0.73626244646E+02  0.17122488873E+03  0.21836310274E+03  0.41800000000E+01 0. -1.
         -5    1    3    3    0  502  0.26185812241E+02  0.10100992943E+02  0.54527011438E+02  0.61468644019E+02  0.41800000000E+01 0. -1.
        -11    1    1    2    0    0  0.40551464533E+01  0.13515085746E+02 -0.27912726884E+02  0.31276541970E+02  0.00000000000E+00 0.  1.
         11    1    1    2    0    0  0.83452426407E+02  0.50010165957E+02  0.51238625466E+02  0.10995781424E+03  0.00000000000E+00 0. -1.
</event>
<event>
 7    1  0.2380582E-009  0.9489318E+02  0.7561462E-02  0.1291417E+00
         -1   -1    0    0    0  501 -0.00000000000E+00  0.00000000000E+00  0.19628394730E+02  0.19628394730E+02  0.00000000000E+00 0. -1.
          1   -1    0    0  501    0  0.00000000000E+00 -0.00000000000E+00 -0.64576858229E+03  0.64576858229E+03  0.00000000000E+00 0.  1.
         25    2    1    2    0    0  0.25569570072E+02  0.12450955878E+02 -0.29692026378E+03  0.32344932795E+03  0.12509594515E+03 0.  0.
          5    1    3    3  502    0  0.50677242569E+02  0.46664661625E+02 -0.97095180483E+02  0.11912480863E+03  0.41800000000E+01 0. -1.
         -5    1    3    3    0  502 -0.25107672496E+02 -0.34213705747E+02 -0.19982508330E+03  0.20432451932E+03  0.41800000000E+01 0. -1.
        -11    1    1    2    0    0 -0.30344819285E+01  0.29953252317E+02 -0.48022782252E+02  0.56679740827E+02  0.00000000000E+00 0. -1.
         11    1    1    2    0    0 -0.22535088144E+02 -0.42404208195E+02 -0.28119714152E+03  0.28526790824E+03  0.00000000000E+00 0.  1.
</event>
<event>
 7    1  0.2380582E-009  0.1163549E+03  0.7561462E-02  0.1249234E+00
         -3   -1    0    0    0  501 -0.00000000000E+00  0.00000000000E+00  0.33513054368E+03  0.33513054368E+03  0.00000000000E+00 0.  1.
          3   -1    0    0  501    0  0.00000000000E+00 -0.00000000000E+00 -0.64018757192E+02  0.64018757192E+02  0.00000000000E+00 0. -1.
         25    2    1    2    0    0  0.10926104032E+02  0.61012334046E+02  0.24761867776E+03  0.28426033401E+03  0.12508814196E+03 0.  0.
          5    1    3    3  502    0 -0.41685070305E+02  0.70648020222E+02  0.18069924275E+03  0.19849049493E+03  0.41800000000E+01 0.  1.
         -5    1    3    3    0  502  0.52611174337E+02 -0.96356861762E+01  0.66919435011E+02  0.85769839077E+02  0.41800000000E+01 0.  1.
        -11    1    1    2    0    0 -0.25981815413E+02  0.72881162044E+01  0.34804483458E+02  0.44040020876E+02  0.00000000000E+00 0.  1.
         11    1    1    2    0    0  0.15055711381E+02 -0.68300450251E+02 -0.11311374728E+02  0.70848945990E+02  0.00000000000E+00 0. -1.
</event>
<event>
 7    1  0.2380582E-009  0.1469824E+03  0.7561462E-02  0.1204231E+00
         -3   -1    0    0    0  501 -0.00000000000E+00  0.00000000000E+00  0.35354784298E+03  0.35354784298E+03  0.00000000000E+00 0.  1.
          3   -1    0    0  501    0  0.00000000000E+00 -0.00000000000E+00 -0.10674852703E+03  0.10674852703E+03  0.00000000000E+00 0. -1.
         25    2    1    2    0    0 -0.14171297163E+03 -0.58097489159E+01  0.21760837780E+03  0.28830117381E+03  0.12509133151E+03 0.  0.
          5    1    3    3  502    0 -0.13891737200E+03  0.26642452001E+01  0.10234751039E+03  0.17261987061E+03  0.41800000000E+01 0. -1.
         -5    1    3    3    0  502 -0.27955996331E+01 -0.84739941160E+01  0.11526086741E+03  0.11568130320E+03  0.41800000000E+01 0. -1.
        -11    1    1    2    0    0  0.50241494968E+02  0.16800143556E+02  0.54954617392E+02  0.76331268906E+02  0.00000000000E+00 0.  1.
         11    1    1    2    0    0  0.91471476667E+02 -0.10990394640E+02 -0.25763679242E+02  0.95663927298E+02  0.00000000000E+00 0. -1.
</event>
<event>
 7    1  0.2380582E-009  0.2106255E+03  0.7561462E-02  0.1141072E+00
          3   -1    0    0  501    0  0.00000000000E+00  0.00000000000E+00  0.75734199951E+02  0.75734199951E+02  0.00000000000E+00 0. -1.
         -3   -1    0    0    0  501 -0.00000000000E+00 -0.00000000000E+00 -0.70016950623E+03  0.70016950623E+03  0.00000000000E+00 0.  1.
         25    2    1    2    0    0 -0.20070398071E+03 -0.28668350291E+01 -0.27146966377E+03  0.36004487411E+03  0.12508487682E+03 0.  0.
          5    1    3    3  502    0 -0.13701750076E+03  0.25331508739E+02 -0.90790306052E+02  0.16636055098E+03  0.41800000000E+01 0. -1.
         -5    1    3    3    0  502 -0.63686479947E+02 -0.28198343768E+02 -0.18067935772E+03  0.19368432313E+03  0.41800000000E+01 0. -1.
        -11    1    1    2    0    0  0.10186963357E+03 -0.32769902760E+02 -0.23295139326E+03  0.25635452092E+03  0.00000000000E+00 0.  1.
         11    1    1    2    0    0  0.98834347143E+02  0.35636737789E+02 -0.12001424925E+03  0.15950431116E+03  0.00000000000E+00 0. -1.
</event>
<event>
 7    1  0.2380582E-009  0.9440998E+02  0.7561462E-02  0.1292511E+00
          1   -1    0    0  501    0  0.00000000000E+00  0.00000000000E+00  0.30398860581E+03  0.30398860581E+03  0.00000000000E+00 0. -1.
         -1   -1    0    0    0  501 -0.00000000000E+00 -0.00000000000E+00 -0.67039880572E+02  0.67039880572E+02  0.00000000000E+00 0.  1.
         25    2    1    2    0    0 -0.43512493687E+02 -0.69674793528E+02  0.12204941631E+03  0.19310971118E+03  0.12508951423E+03 0.  0.
          5    1    3    3  502    0 -0.48951317240E+01 -0.19969055580E+02 -0.25274521210E+02  0.32848125026E+02  0.41800000000E+01 0. -1.
         -5    1    3    3    0  502 -0.38617361963E+02 -0.49705737948E+02  0.14732393752E+03  0.16026158615E+03  0.41800000000E+01 0. -1.
        -11    1    1    2    0    0 -0.13302484728E+02  0.36766273964E+02 -0.67543936799E+01  0.39677913694E+02  0.00000000000E+00 0.  1.
         11    1    1    2    0    0  0.56814978415E+02  0.32908519564E+02  0.12165370261E+03  0.13824086151E+03  0.00000000000E+00 0. -1.
</event>
<event>
 7    1  0.2608364E-009  0.9358780E+02  0.7561462E-02  0.1294389E+00
          2   -1    0    0  501    0  0.00000000000E+00  0.00000000000E+00  0.17782745495E+03  0.17782745495E+03  0.00000000000E+00 0.  1.
         -2   -1    0    0    0  501 -0.00000000000E+00 -0.00000000000E+00 -0.11197149553E+03  0.11197149553E+03  0.00000000000E+00 0. -1.
         25    2    1    2    0    0  0.21353446546E+02 -0.63201540909E+01  0.12506844733E+03  0.17828189610E+03  0.12508558643E+03 0.  0.
          5    1    3    3  502    0  0.37902644036E+02  0.42170580719E+02  0.18207677261E+02  0.59698913008E+02  0.41800000000E+01 0.  1.
         -5    1    3    3    0  502 -0.16549197490E+02 -0.48490734810E+02  0.10686077007E+03  0.11858298309E+03  0.41800000000E+01 0.  1.
        -11    1    1    2    0    0 -0.27368286384E+01  0.40180278238E+02  0.63614710935E+00  0.40278402071E+02  0.00000000000E+00 0.  1.
         11    1    1    2    0    0 -0.18616617908E+02 -0.33860124147E+02 -0.59848635012E+02  0.71238652306E+02  0.00000000000E+00 0. -1.
</event>
<event>
 7    1  0.2380582E-009  0.1214651E+03  0.7561462E-02  0.1240699E+00
         -2   -1    0    0    0  501 -0.00000000000E+00  0.00000000000E+00  0.33286403630E+02  0.33286403630E+02  0.00000000000E+00 0.  1.
          2   -1    0    0  501    0  0.00000000000E+00 -0.00000000000E+00 -0.61856456885E+03  0.61856456885E+03  0.00000000000E+00 0. -1.
         25    2    1    2    0    0  0.70541249729E+02  0.68077116194E+02 -0.33625470426E+03  0.37192259865E+03  0.12509449062E+03 0.  0.
          5    1    3    3  502    0  0.37836628476E+02 -0.14114412102E+02 -0.23582962205E+02  0.46951630321E+02  0.41800000000E+01 0. -1.
         -5    1    3    3    0  502  0.32704621253E+02  0.82191528296E+02 -0.31267174206E+03  0.32497096833E+03  0.41800000000E+01 0. -1.
        -11    1    1    2    0    0 -0.30137196710E+02  0.47300402087E+01 -0.13695877941E+03  0.14031511381E+03  0.00000000000E+00 0. -1.
         11    1    1    2    0    0 -0.40404053019E+02 -0.72807156402E+02 -0.11206468155E+03  0.13961326003E+03  0.00000000000E+00 0.  1.
</event>
<event>
 7    1  0.2380582E-009  0.1076465E+03  0.7561462E-02  0.1264991E+00
         -1   -1    0    0    0  501 -0.00000000000E+00  0.00000000000E+00  0.46840839090E+03  0.46840839090E+03  0.00000000000E+00 0.  1.
          1   -1    0    0  501    0  0.00000000000E+00 -0.00000000000E+00 -0.27285803049E+02  0.27285803049E+02  0.00000000000E+00 0. -1.
         25    2    1    2    0    0 -0.19645177057E+02 -0.24685910510E+02  0.31333022523E+03  0.33885101803E+03  0.12509538446E+03 0.  0.
          5    1    3    3  502    0 -0.62682962792E+01 -0.73375841937E+02  0.22775212861E+03  0.23939885172E+03  0.41800000000E+01 0.  1.
         -5    1    3    3    0  502 -0.13376880778E+02  0.48689931427E+02  0.85578096625E+02  0.99452166310E+02  0.41800000000E+01 0.  1.
        -11    1    1    2    0    0 -0.33420948850E+02  0.16141896944E+02  0.49214722249E+02  0.61640972940E+02  0.00000000000E+00 0.  1.
         11    1    1    2    0    0  0.53066125908E+02  0.85440135661E+01  0.78577640372E+02  0.95202202985E+02  0.00000000000E+00 0. -1.
</event>
<event>
 7    1  0.2380582E-009  0.1296396E+03  0.7561462E-02  0.1227992E+00
          4   -1    0    0  501    0  0.00000000000E+00  0.00000000000E+00  0.53731092958E+03  0.53731092958E+03  0.00000000000E+00 0. -1.
         -4   -1    0    0    0  501 -0.00000000000E+00 -0.00000000000E+00 -0.38471270768E+02  0.38471270768E+02  0.00000000000E+00 0.  1.
         25    2    1    2    0    0 -0.52444556048E+02  0.85419887426E+02  0.34253174905E+03  0.37818398471E+03  0.12509251999E+03 0.  0.
          5    1    3    3  502    0 -0.84335168354E+02  0.20965611702E+02  0.21069991662E+03  0.22795592723E+03  0.41800000000E+01 0.  1.
         -5    1    3    3    0  502  0.31890612307E+02  0.64454275723E+02  0.13183183243E+03  0.15022805748E+03  0.41800000000E+01 0.  1.
        -11    1    1    2    0    0  0.34036367672E+02 -0.54255127919E+02  0.39355361458E+02  0.75172719156E+02  0.00000000000E+00 0.  1.
         11    1    1    2    0    0  0.18408188375E+02 -0.31164759507E+02  0.11695254831E+03  0.12242549648E+03  0.00000000000E+00 0. -1.
</event>
<event>
 7    1  0.2380582E-009  0.1208377E+03  0.7561462E-02  0.1241721E+00
          2   -1    0    0  501    0  0.00000000000E+00  0.00000000000E+00  0.37479881911E+02  0.37479881911E+02  0.00000000000E+00 0. -1.
         -2   -1    0    0    0  501 -0.00000000000E+00 -0.00000000000E+00 -0.54023420500E+03  0.54023420500E+03  0.00000000000E+00 0.  1.
         25    2    1    2    0    0 -0.59670025082E+01 -0.80009983990E+02 -0.36511146507E+03  0.39419675526E+03  0.12508995673E+03 0.  0.
          5    1    3    3  502    0 -0.51665979836E+02 -0.49604549824E+02 -0.97905977483E+02  0.12137972509E+03  0.41800000000E+01 0.  1.
         -5    1    3    3    0  502  0.45698977327E+02 -0.30405434166E+02 -0.26720548759E+03  0.27281703017E+03  0.41800000000E+01 0.  1.
        -11    1    1    2    0    0  0.40334712882E+02  0.66858160888E+02 -0.63120036601E+02  0.10040439114E+03  0.00000000000E+00 0. -1.
         11    1    1    2    0    0 -0.34367710373E+02  0.13151823102E+02 -0.74522821416E+02  0.83112940503E+02  0.00000000000E+00 0.  1.
</event>
<event>
 7    1  0.2380582E-009  0.1423705E+03  0.7561462E-02  0.1210174E+00
         -1   -1    0    0    0  501 -0.00000000000E+00  0.00000000000E+00  0.81551664249E+02  0.81551664249E+02  0.00000000000E+00 0.  1.
          1   -1    0    0  501    0  0.00000000000E+00 -0.00000000000E+00 -0.40817787864E+03  0.40817787864E+03  0.00000000000E+00 0. -1.
         25    2    1    2    0    0 -0.13427968249E+03 -0.16349898417E+01 -0.85503579343E+02  0.20246194523E+03  0.12508505452E+03 0.  0.
          5    1    3    3  502    0 -0.41839741495E+02  0.25774976748E+02  0.25376008241E+02  0.55464651707E+02  0.41800000000E+01 0.  1.
         -5    1    3    3    0  502 -0.92439940993E+02 -0.27409966590E+02 -0.11087958758E+03  0.14699729352E+03  0.41800000000E+01 0.  1.
        -11    1    1    2    0    0  0.65579381128E+02  0.18566748546E+02 -0.18436541904E+03  0.19656039051E+03  0.00000000000E+00 0.  1.
         11    1    1    2    0    0  0.68700301360E+02 -0.16931758704E+02 -0.56757216005E+02  0.90707207147E+02  0.00000000000E+00 0. -1.
</event>
<event>
 7    1  0.2380582E-009  0.1052749E+03  0.7561462E-02  0.1269579E+00
         -1   -1    0    0    0  501 -0.00000000000E+00  0.00000000000E+00  0.14587574003E+02  0.14587574003E+02  0.00000000000E+00 0.  1.
          1   -1    0    0  501    0  0.00000000000E+00 -0.00000000000E+00 -0.10087166337E+04  0.10087166337E+04  0.00000000000E+00 0. -1.
         25    2    1    2    0    0 -0.22502985364E+02  0.18653415438E+01 -0.78831173326E+03  0.79849436100E+03  0.12509193381E+03 0.  0.
          5    1    3    3  502    0 -0.56642049557E+02 -0.42404764869E+02 -0.46073019664E+03  0.46615048253E+03  0.41800000000E+01 0. -1.
         -5    1    3    3    0  502  0.34139064193E+02  0.44270106413E+02 -0.32758153662E+03  0.33234387848E+03  0.41800000000E+01 0. -1.
        -11    1    1    2    0    0  0.20118035502E+02  0.38358909107E+02 -0.63265833633E+02  0.76672726348E+02  0.00000000000E+00 0.  1.
         11    1    1    2    0    0  0.23849498622E+01 -0.40224250651E+02 -0.14255149281E+03  0.14813712036E+03  0.00000000000E+00 0. -1.
</event>
<event>
 7    1  0.2380582E-009  0.1126379E+03  0.7561462E-02  0.1255761E+00
         -1   -1    0    0    0  501 -0.00000000000E+00  0.00000000000E+00  0.46534060069E+02  0.46534060069E+02  0.00000000000E+00 0.  1.
          1   -1    0    0  501    0  0.00000000000E+00 -0.00000000000E+00 -0.28426102426E+03  0.28426102426E+03  0.00000000000E+00 0. -1.
         25    2    1    2    0    0  0.43231590966E+01  0.32010445665E+02 -0.16543178803E+03  0.20990125760E+03  0.12508998008E+03 0.  0.
          5    1    3    3  502    0  0.27543542582E+02  0.74648991705E+02 -0.11361895425E+03  0.13877268414E+03  0.41800000000E+01 0. -1.
         -5    1    3    3    0  502 -0.23220383485E+02 -0.42638546040E+02 -0.51812833785E+02  0.71128573460E+02  0.41800000000E+01 0. -1.
        -11    1    1    2    0    0  0.43497986314E+02 -0.12922342317E+02 -0.35332601716E+02  0.57510472858E+02  0.00000000000E+00 0. -1.
         11    1    1    2    0    0 -0.47821145411E+02 -0.19088103348E+02 -0.36962574443E+02  0.63383353866E+02  0.00000000000E+00 0.  1.
</event>
<event>
 7    1  0.2380582E-009  0.9621723E+02  0.7561462E-02  0.1288458E+00
         -2   -1    0    0    0  501 -0.00000000000E+00  0.00000000000E+00  0.94585658543E+02  0.94585658543E+02  0.00000000000E+00 0.  1.
          2   -1    0    0  501    0  0.00000000000E+00 -0.00000000000E+00 -0.17145598300E+03  0.17145598300E+03  0.00000000000E+00 0. -1.
         25    2    1    2    0    0 -0.29028012823E+02  0.11122128186E+02 -0.10916026014E+03  0.16890795109E+03  0.12509039245E+03 0.  0.
          5    1    3    3  502    0  0.29266845764E+02  0.48871823488E+02 -0.33926958353E+02  0.66434285539E+02  0.41800000000E+01 0. -1.
         -5    1    3    3    0  502 -0.58294858586E+02 -0.37749695302E+02 -0.75233301791E+02  0.10247366555E+03  0.41800000000E+01 0. -1.
        -11    1    1    2    0    0  0.38358776510E+02  0.12498564201E+02  0.51405895600E+02  0.65346583269E+02  0.00000000000E+00 0.  1.
         11    1    1    2    0    0 -0.93307636879E+01 -0.23620692387E+02 -0.19115959916E+02  0.31787107187E+02  0.00000000000E+00 0. -1.
</event>
<event>
 7    1  0.2380582E-009  0.1286407E+03  0.7561462E-02  0.1229487E+00
          1   -1    0    0  501    0  0.00000000000E+00  0.00000000000E+00  0.13361081193E+03  0.13361081193E+03  0.00000000000E+00 0.  1.
         -1   -1    0    0    0  501 -0.00000000000E+00 -0.00000000000E+00 -0.14310057025E+03  0.14310057025E+03  0.00000000000E+00 0. -1.
         25    2    1    2    0    0  0.69846157905E+02 -0.42192349435E+02 -0.29681629219E+02  0.15227258778E+03  0.12508901532E+03 0.  0.
          5    1    3    3  502    0 -0.20423584935E+02  0.27986386848E+02 -0.83889736082E+01  0.35891613903E+02  0.41800000000E+01 0. -1.
         -5    1    3    3    0  502  0.90269742840E+02 -0.70178736282E+02 -0.21292655611E+02  0.11638097388E+03  0.41800000000E+01 0. -1.
        -11    1    1    2    0    0  0.12203033207E+02  0.19213472318E+02  0.31097685404E+02  0.38537482733E+02  0.00000000000E+00 0.  1.
         11    1    1    2    0    0 -0.82049191112E+02  0.22978877117E+02 -0.10905814500E+02  0.85901311664E+02  0.00000000000E+00 0. -1.
</event>
<event>
 7    1  0.2380582E-009  0.1796799E+03  0.7561462E-02  0.1168113E+00
          2   -1    0    0  501    0  0.00000000000E+00  0.00000000000E+00  0.43041092584E+03  0.43041092584E+03  0.00000000000E+00 0. -1.
         -2   -1    0    0    0  501 -0.00000000000E+00 -0.00000000000E+00 -0.76264097558E+02  0.76264097558E+02  0.00000000000E+00 0.  1.
         25    2    1    2    0    0  0.14073111275E+03  0.31450890778E+02  0.19055441241E+03  0.26972743449E+03  0.12508996843E+03 0.  0.
          5    1    3    3  502    0  0.80043915593E+02 -0.44942383622E+02  0.76416062047E+02  0.11951457320E+03  0.41800000000E+01 0.  1.
         -5    1    3    3    0  502  0.60687197160E+02  0.76393274400E+02  0.11413835037E+03  0.15021286129E+03  0.41800000000E+01 0.  1.
        -11    1    1    2    0    0 -0.96990632670E+02  0.23285071365E+02  0.79930667047E+02  0.12782131633E+03  0.00000000000E+00 0.  1.
         11    1    1    2    0    0 -0.43740480083E+02 -0.54735962144E+02  0.83661748820E+02  0.10912627257E+03  0.00000000000E+00 0. -1.
</event>
<event>
 7    1  0.2380582E-009  0.8232395E+02  0.7561462E-02  0.1322583E+00
          1   -1    0    0  501    0  0.00000000000E+00  0.00000000000E+00  0.31327696756E+02  0.31327696756E+02  0.00000000000E+00 0. -1.
         -1   -1    0    0    0  501 -0.00000000000E+00 -0.00000000000E+00 -0.38930236367E+03  0.38930236367E+03  0.00000000000E+00 0.  1.
         25    2    1    2    0    0  0.26983200358E+02 -0.50829310129E+01 -0.25224524594E+03  0.28289555218E+03  0.12509316550E+03 0.  0.
          5    1    3    3  502    0 -0.31488806318E+02 -0.59528920356E+01 -0.20519069793E+03  0.20772018863E+03  0.41800000000E+01 0.  1.
         -5    1    3    3    0  502  0.58472006676E+02  0.86996102277E+00 -0.47054548014E+02  0.75175363555E+02  0.41800000000E+01 0.  1.
        -11    1    1    2    0    0 -0.26345214823E+02 -0.29248830746E+02 -0.17538949492E+02  0.43095001953E+02  0.00000000000E+00 0. -1.
         11    1    1    2    0    0 -0.63798553546E+00  0.34331761759E+02 -0.88190471474E+02  0.94639506285E+02  0.00000000000E+00 0.  1.
</event>
<event>
 7    1  0.2380582E-009  0.1142678E+03  0.7561462E-02  0.1252865E+00
         -1   -1    0    0    0  501 -0.00000000000E+00  0.00000000000E+00  0.39290929408E+02  0.39290929408E+02  0.00000000000E+00 0.  1.
          1   -1    0    0  501    0  0.00000000000E+00 -0.00000000000E+00 -0.52795628767E+03  0.52795628767E+03  0.00000000000E+00 0. -1.
         25    2    1    2    0    0 -0.48275268469E+02 -0.35621818410E+02 -0.12129630389E+03  0.18428103933E+03  0.12508913872E+03 0.  0.
          5    1    3    3  502    0 -0.26373405117E+02 -0.82162106066E+02 -0.66609775251E+02  0.10908942538E+03  0.41800000000E+01 0. -1.
         -5    1    3    3    0  502 -0.21901863352E+02  0.46540287656E+02 -0.54686528641E+02  0.75191613949E+02  0.41800000000E+01 0. -1.
        -11    1    1    2    0    0  0.50371950205E+02 -0.43050236879E+01 -0.30301492849E+03  0.30720337479E+03  0.00000000000E+00 0. -1.
         11    1    1    2    0    0 -0.20966817359E+01  0.39926842098E+02 -0.64354125882E+02  0.75762802959E+02  0.00000000000E+00 0.  1.
</event>
<event>
 7    1  0.2380582E-009  0.7932329E+02  0.7561462E-02  0.1330983E+00
         -2   -1    0    0    0  501 -0.00000000000E+00  0.00000000000E+00  0.33011883917E+02  0.33011883917E+02  0.00000000000E+00 0.  1.
          2   -1    0    0  501    0  0.00000000000E+00 -0.00000000000E+00 -0.43101825974E+03  0.43101825974E+03  0.00000000000E+00 0. -1.
         25    2    1    2    0    0  0.36980916538E+02 -0.34857102780E+01 -0.27900358364E+03  0.30801188672E+03  0.12509430167E+03 0.  0.
          5    1    3    3  502    0 -0.29546773862E+02  0.68557908843E+01 -0.12445934867E+02  0.33051284529E+02  0.41800000000E+01 0.  1.
         -5    1    3    3    0  502  0.66527690399E+02 -0.10341501162E+02 -0.26655764878E+03  0.27496060219E+03  0.41800000000E+01 0.  1.
        -11    1    1    2    0    0  0.86902112231E+01  0.11281155838E+02  0.11007805539E+02  0.17998778596E+02  0.00000000000E+00 0.  1.
         11    1    1    2    0    0 -0.45671127761E+02 -0.77954455603E+01 -0.13001059771E+03  0.13801947834E+03  0.00000000000E+00 0. -1.
</event>
<event>
 7    1  0.2380582E-009  0.8455651E+02  0.7561462E-02  0.1316596E+00
          3   -1    0    0  501    0  0.00000000000E+00  0.00000000000E+00  0.17398615978E+03  0.17398615978E+03  0.00000000000E+00 0. -1.
         -3   -1    0    0    0  501 -0.00000000000E+00 -0.00000000000E+00 -0.98224638592E+02  0.98224638592E+02  0.00000000000E+00 0.  1.
         25    2    1    2    0    0 -0.27568503706E+02 -0.56199960090E+02  0.79373174785E+02  0.16082937111E+03  0.12509007885E+03 0.  0.
          5    1    3    3  502    0 -0.30048001158E+01  0.15357264601E+02 -0.26246340330E+02  0.30841808969E+02  0.41800000000E+01 0. -1.
         -5    1    3    3    0  502 -0.24563703590E+02 -0.71557224691E+02  0.10561951511E+03  0.12998756215E+03  0.41800000000E+01 0. -1.
        -11    1    1    2    0    0  0.35899697290E+02  0.22358857826E+02 -0.41950213595E+02  0.59569515773E+02  0.00000000000E+00 0.  1.
         11    1    1    2    0    0 -0.83311935837E+01  0.33841102264E+02  0.38338560003E+02  0.51811911489E+02  0.00000000000E+00 0. -1.
</event>
<event>
 7    1  0.2380582E-009  0.8853305E+02  0.7561462E-02  0.1306444E+00
          3   -1    0    0  501    0  0.00000000000E+00  0.00000000000E+00  0.81397178654E+02  0.81397178654E+02  0.00000000000E+00 0. -1.
         -3   -1    0    0    0  501 -0.00000000000E+00 -0.00000000000E+00 -0.16412665887E+03  0.16412665887E+03  0.00000000000E+00 0.  1.
         25    2    1    2    0    0 -0.82761984387E+01  0.24653179429E+01 -0.90740552821E+02  0.15477701020E+03  0.12508997445E+03 0.  0.
          5    1    3    3  502    0 -0.98617500825E+01  0.61372997667E+02 -0.65907829233E+02  0.90692961753E+02  0.41800000000E+01 0.  1.
         -5    1    3    3    0  502  0.15855516438E+01 -0.58907679725E+02 -0.24832723588E+02  0.64084048447E+02  0.41800000000E+01 0.  1.
        -11    1    1    2    0    0 -0.86140162691E+01  0.23322025294E+02  0.39504971808E+02  0.46677199334E+02  0.00000000000E+00 0. -1.
         11    1    1    2    0    0  0.16890214708E+02 -0.25787343237E+02 -0.31493899202E+02  0.44069627989E+02  0.00000000000E+00 0.  1.
</event>
<event>
 7    1  0.2380582E-009  0.7459017E+02  0.7561462E-02  0.1345145E+00
         -1   -1    0    0    0  501 -0.00000000000E+00  0.00000000000E+00  0.16051212338E+02  0.16051212338E+02  0.00000000000E+00 0.  1.
          1   -1    0    0  501    0  0.00000000000E+00 -0.00000000000E+00 -0.81782969288E+03  0.81782969288E+03  0.00000000000E+00 0. -1.
         25    2    1    2    0    0  0.19395670752E+02  0.13301272507E+02 -0.57002426849E+03  0.58406155210E+03  0.12508842503E+03 0.  0.
          5    1    3    3  502    0  0.29266907743E+02 -0.19975425807E+02 -0.52882775149E+03  0.53003002997E+03  0.41800000000E+01 0. -1.
         -5    1    3    3    0  502 -0.98712369913E+01  0.33276698315E+02 -0.41196517000E+02  0.54031522127E+02  0.41800000000E+01 0. -1.
        -11    1    1    2    0    0  0.26380601784E+02  0.86634406042E+01 -0.15710370844E+03  0.15953860523E+03  0.00000000000E+00 0. -1.
         11    1    1    2    0    0 -0.45776272536E+02 -0.21964713111E+02 -0.74650503604E+02  0.90280747880E+02  0.00000000000E+00 0.  1.
</event>
<event>
 7    1  0.2380582E-009  0.8246850E+02  0.7561462E-02  0.1322189E+00
          2   -1    0    0  501    0  0.00000000000E+00  0.00000000000E+00  0.13772682946E+03  0.13772682946E+03  0.00000000000E+00 0. -1.
         -2   -1    0    0    0  501 -0.00000000000E+00 -0.00000000000E+00 -0.16296337845E+03  0.16296337845E+03  0.00000000000E+00 0.  1.
         25    2    1    2    0    0 -0.59788494500E+02  0.35560823775E+02  0.62213013649E+02  0.15606938170E+03  0.12509179260E+03 0.  0.
          5    1    3    3  502    0 -0.26225059306E+02 -0.50762970704E+01  0.91650730262E+02  0.95555487990E+02  0.41800000000E+01 0.  1.
         -5    1    3    3    0  502 -0.33563435194E+02  0.40637120845E+02 -0.29437716613E+02  0.60513893710E+02  0.41800000000E+01 0.  1.
        -11    1    1    2    0    0  0.39250302351E+02  0.49973034906E+01 -0.90789134550E+02  0.99036489382E+02  0.00000000000E+00 0.  1.
         11    1    1    2    0    0  0.20538192149E+02 -0.40558127265E+02  0.33395719082E+01  0.45584336833E+02  0.00000000000E+00 0. -1.
</event>
<event>
 7    1  0.2380582E-009  0.9441861E+02  0.7561462E-02  0.1292491E+00
          2   -1    0    0  501    0  0.00000000000E+00  0.00000000000E+00  0.27960585503E+03  0.27960585503E+03  0.00000000000E+00 0. -1.
         -2   -1    0    0    0  501 -0.00000000000E+00 -0.00000000000E+00 -0.48067698937E+02  0.48067698937E+02  0.00000000000E+00 0.  1.
         25    2    1    2    0    0 -0.41855769682E-01 -0.31626994415E+02  0.84781425239E+02  0.15438168780E+03  0.12508216074E+03 0.  0.
          5    1    3    3  502    0 -0.20637947725E+02 -0.58746485197E+02 -0.55252509482E+00  0.62408750134E+02  0.41800000000E+01 0.  1.
         -5    1    3    3    0  502  0.20596091955E+02  0.27119490782E+02  0.85333950333E+02  0.91972937670E+02  0.41800000000E+01 0.  1.
        -11    1    1    2    0    0  0.27921189615E+02  0.51020083081E+02  0.94893038986E+02  0.11129838523E+03  0.00000000000E+00 0. -1.
         11    1    1    2    0    0 -0.27879333846E+02 -0.19393088665E+02  0.51863691864E+02  0.61993480926E+02  0.00000000000E+00 0.  1.
</event>
<event>
 7    1  0.2380582E-009  0.1250009E+03  0.7561462E-02  0.1235068E+00
         -3   -1    0    0    0  501 -0.00000000000E+00  0.00000000000E+00  0.87489597531E+03  0.87489597531E+03  0.00000000000E+00 0.  1.
          3   -1    0    0  501    0  0.00000000000E+00 -0.00000000000E+00 -0.20997824637E+02  0.20997824637E+02  0.00000000000E+00 0. -1.
         25    2    1    2    0    0 -0.57489654905E+02 -0.19054600834E+02  0.63647770334E+03  0.65147422039E+03  0.12508658901E+03 0.  0.
          5    1    3    3  502    0  0.13142704991E+01 -0.64411640672E+02  0.30309681217E+03  0.30989633220E+03  0.41800000000E+01 0. -1.
         -5    1    3    3    0  502 -0.58803925404E+02  0.45357039839E+02  0.33338089117E+03  0.34157788819E+03  0.41800000000E+01 0. -1.
        -11    1    1    2    0    0  0.64780598024E+02 -0.22723297104E+02  0.12175698203E+03  0.13977709678E+03  0.00000000000E+00 0.  1.
         11    1    1    2    0    0 -0.72909431183E+01  0.41777897938E+02  0.95663465303E+02  0.10464248278E+03  0.00000000000E+00 0. -1.
</event>
<event>
 7    1  0.2380582E-009  0.6657405E+02  0.7561462E-02  0.1372146E+00
         -2   -1    0    0    0  501 -0.00000000000E+00  0.00000000000E+00  0.12850291853E+03  0.12850291853E+03  0.00000000000E+00 0.  1.
          2   -1    0    0  501    0  0.00000000000E+00 -0.00000000000E+00 -0.12859227977E+03  0.12859227977E+03  0.00000000000E+00 0. -1.
         25    2    1    2    0    0 -0.35217170392E+02  0.28016130568E+02 -0.43236723584E+02  0.13977639341E+03  0.12507147247E+03 0.  0.
          5    1    3    3  502    0 -0.43511768783E+01  0.17159314014E+02 -0.84791904713E+02  0.86720898880E+02  0.41800000000E+01 0. -1.
         -5    1    3    3    0  502 -0.30865993514E+02  0.10856816554E+02  0.41555181129E+02  0.53055494531E+02  0.41800000000E+01 0. -1.
        -11    1    1    2    0    0  0.48540485691E+00  0.21491862528E+02 -0.20370374491E+02  0.29615670341E+02  0.00000000000E+00 0. -1.
         11    1    1    2    0    0  0.34731765535E+02 -0.49507993096E+02  0.63517736829E+02  0.87703134548E+02  0.00000000000E+00 0.  1.
</event>
<event>
 7    1  0.2380582E-009  0.1280282E+03  0.7561462E-02  0.1230411E+00
          1   -1    0    0  501    0  0.00000000000E+00  0.00000000000E+00  0.90471123810E+03  0.90471123810E+03  0.00000000000E+00 0. -1.
         -1   -1    0    0    0  501 -0.00000000000E+00 -0.00000000000E+00 -0.43735957700E+02  0.43735957700E+02  0.00000000000E+00 0.  1.
         25    2    1    2    0    0  0.57338857828E+02 -0.39756269794E+02  0.81051897662E+03  0.82307760856E+03  0.12508969841E+03 0.  0.
          5    1    3    3  502    0  0.74371448696E+02  0.21550991112E+02  0.37681975456E+03  0.38471568389E+03  0.41800000000E+01 0. -1.
         -5    1    3    3    0  502 -0.17032590868E+02 -0.61307260905E+02  0.43369922205E+03  0.43836192467E+03  0.41800000000E+01 0. -1.
        -11    1    1    2    0    0  0.24940250859E+02  0.13613232671E+02  0.13553325226E+02  0.31480610562E+02  0.00000000000E+00 0. -1.
         11    1    1    2    0    0 -0.82279108687E+02  0.26143037122E+02  0.36902978564E+02  0.93888976687E+02  0.00000000000E+00 0.  1.
</event>
<event>
 7    1  0.2380582E-009  0.1292787E+03  0.7561462E-02  0.1228530E+00
          1   -1    0    0  501    0  0.00000000000E+00  0.00000000000E+00  0.92504147495E+02  0.92504147495E+02  0.00000000000E+00 0. -1.
         -1   -1    0    0    0  501 -0.00000000000E+00 -0.00000000000E+00 -0.21476666069E+03  0.21476666069E+03  0.00000000000E+00 0.  1.
         25    2    1    2    0    0 -0.76266125313E+02  0.13461740722E+01 -0.15835446486E+02  0.14736585544E+03  0.12509036705E+03 0.  0.
          5    1    3    3  502    0 -0.52233505055E+02 -0.60215588043E+02 -0.14528291128E+02  0.81134454684E+02  0.41800000000E+01 0.  1.
         -5    1    3    3    0  502 -0.24032620257E+02  0.61561762115E+02 -0.13071553574E+01  0.66231400757E+02  0.41800000000E+01 0.  1.
        -11    1    1    2    0    0  0.92888872833E+02 -0.10598552709E+02 -0.10534740091E+03  0.14085008660E+03  0.00000000000E+00 0.  1.
         11    1    1    2    0    0 -0.16622747521E+02  0.92523786363E+01 -0.10796657970E+01  0.19054866145E+02  0.00000000000E+00 0. -1.
</event>
<event>
 7    1  0.2380582E-009  0.2252651E+03  0.7561462E-02  0.1130018E+00
          2   -1    0    0  501    0  0.00000000000E+00  0.00000000000E+00  0.25651601857E+03  0.25651601857E+03  0.00000000000E+00 0. -1.
         -2   -1    0    0    0  501 -0.00000000000E+00 -0.00000000000E+00 -0.23248792153E+03  0.23248792153E+03  0.00000000000E+00 0.  1.
         25    2    1    2    0    0 -0.18942731744E+03 -0.85678283636E+02  0.78932952945E+02  0.25514851923E+03  0.12508748509E+03 0.  0.
          5    1    3    3  502    0 -0.10221578431E+03 -0.11028819287E+03  0.62797970689E+02  0.16301107193E+03  0.41800000000E+01 0.  1.
         -5    1    3    3    0  502 -0.87211533129E+02  0.24609909234E+02  0.16134982256E+02  0.92137447304E+02  0.41800000000E+01 0.  1.
        -11    1    1    2    0    0  0.15010414603E+02 -0.11688709526E+00 -0.35463414576E+02  0.38509479126E+02  0.00000000000E+00 0.  1.
         11    1    1    2    0    0  0.17441690283E+03  0.85795170732E+02 -0.19441441324E+02  0.19534594174E+03  0.00000000000E+00 0. -1.
</event>
<event>
 7    1  0.2380582E-009  0.1052574E+03  0.7561462E-02  0.1269613E+00
         -2   -1    0    0    0  501 -0.00000000000E+00  0.00000000000E+00  0.26593985572E+03  0.26593985572E+03  0.00000000000E+00 0.  1.
          2   -1    0    0  501    0  0.00000000000E+00 -0.00000000000E+00 -0.55995781509E+02  0.55995781509E+02  0.00000000000E+00 0. -1.
         25    2    1    2    0    0  0.27772251908E+02  0.46139774597E+02  0.90940369040E+02  0.16376091278E+03  0.12508920441E+03 0.  0.
          5    1    3    3  502    0  0.32492171133E+02  0.72319133669E+02  0.11925723106E+02  0.80283831194E+02  0.41800000000E+01 0.  1.
         -5    1    3    3    0  502 -0.47199192251E+01 -0.26179359071E+02  0.79014645934E+02  0.83477081591E+02  0.41800000000E+01 0.  1.
        -11    1    1    2    0    0  0.28757115246E+02  0.34918081376E+01  0.32400191427E+02  0.43461900624E+02  0.00000000000E+00 0. -1.
         11    1    1    2    0    0 -0.56529367154E+02 -0.49631582735E+02  0.86603513740E+02  0.11471282382E+03  0.00000000000E+00 0.  1.
</event>
<event>
 7    1  0.2380582E-009  0.1782458E+03  0.7561462E-02  0.1169512E+00
          1   -1    0    0  501    0  0.00000000000E+00  0.00000000000E+00  0.32466308413E+03  0.32466308413E+03  0.00000000000E+00 0. -1.
         -1   -1    0    0    0  501 -0.00000000000E+00 -0.00000000000E+00 -0.12071909653E+03  0.12071909653E+03  0.00000000000E+00 0.  1.
         25    2    1    2    0    0  0.44157448148E+02 -0.15431532836E+03  0.15095112404E+03  0.25337040458E+03  0.12508884553E+03 0.  0.
          5    1    3    3  502    0 -0.36652965548E+00 -0.14538824231E+03  0.14825389564E+03  0.20768862588E+03  0.41800000000E+01 0. -1.
         -5    1    3    3    0  502  0.44523977804E+02 -0.89270860511E+01  0.26972284022E+01  0.45681778708E+02  0.41800000000E+01 0. -1.
        -11    1    1    2    0    0 -0.44698491977E+02  0.84247873195E+02 -0.12393122202E+02  0.96173014930E+02  0.00000000000E+00 0.  1.
         11    1    1    2    0    0  0.54104382823E+00  0.70067455168E+02  0.65385985766E+02  0.95838761140E+02  0.00000000000E+00 0. -1.
</event>
<event>
 7    1  0.2380582E-009  0.8762136E+02  0.7561462E-02  0.1308716E+00
          2   -1    0    0  501    0  0.00000000000E+00  0.00000000000E+00  0.21905088487E+03  0.21905088487E+03  0.00000000000E+00 0.  1.
         -2   -1    0    0    0  501 -0.00000000000E+00 -0.00000000000E+00 -0.78307898910E+02  0.78307898910E+02  0.00000000000E+00 0. -1.
         25    2    1    2    0    0  0.72589354816E+02  0.13696590560E+02  0.81518750650E+02  0.16658286193E+03  0.12509089557E+03 0.  0.
          5    1    3    3  502    0  0.39374073538E+02  0.12219986242E+02  0.11315177978E+03  0.12050080248E+03  0.41800000000E+01 0.  1.
         -5    1    3    3    0  502  0.33215281279E+02  0.14766043176E+01 -0.31633029133E+02  0.46082059447E+02  0.41800000000E+01 0.  1.
        -11    1    1    2    0    0 -0.60374985436E+02 -0.39222634751E+02  0.70074823673E+02  0.10046907413E+03  0.00000000000E+00 0.  1.
         11    1    1    2    0    0 -0.12214369380E+02  0.25526044192E+02 -0.10850588359E+02  0.30306847727E+02  0.00000000000E+00 0. -1.
</event>
<event>
 7    1  0.2380582E-009  0.4922782E+03  0.7561462E-02  0.1015814E+00
          2   -1    0    0  501    0  0.00000000000E+00  0.00000000000E+00  0.68434114099E+03  0.68434114099E+03  0.00000000000E+00 0. -1.
         -2   -1    0    0    0  501 -0.00000000000E+00 -0.00000000000E+00 -0.39112236839E+03  0.39112236839E+03  0.00000000000E+00 0.  1.
         25    2    1    2    0    0 -0.48947036437E+03  0.38857650113E+02  0.26931476294E+03  0.57382018918E+03  0.12509201974E+03 0.  0.
          5    1    3    3  502    0 -0.30879604713E+03  0.37763856001E+02  0.10168115368E+03  0.32731886130E+03  0.41800000000E+01 0.  1.
         -5    1    3    3    0  502 -0.18067431723E+03  0.10937941116E+01  0.16763360926E+03  0.24650132788E+03  0.41800000000E+01 0.  1.
        -11    1    1    2    0    0  0.37992684298E+03 -0.12987027847E+02 -0.20364592346E+02  0.38069382124E+03  0.00000000000E+00 0. -1.
         11    1    1    2    0    0  0.10954352138E+03 -0.25870622266E+02  0.44268602009E+02  0.12094949896E+03  0.00000000000E+00 0.  1.
</event>
<event>
 7    1  0.2380582E-009  0.1154591E+03  0.7561462E-02  0.1250782E+00
          3   -1    0    0  501    0  0.00000000000E+00  0.00000000000E+00  0.20267454738E+02  0.20267454738E+02  0.00000000000E+00 0. -1.
         -3   -1    0    0    0  501 -0.00000000000E+00 -0.00000000000E+00 -0.82912731016E+03  0.82912731016E+03  0.00000000000E+00 0.  1.
         25    2    1    2    0    0  0.47572864549E+02 -0.47810823761E+02 -0.38334942727E+03  0.40884324681E+03  0.12508782820E+03 0.  0.
          5    1    3    3  502    0 -0.14283009185E+02 -0.53809316833E+02 -0.70882982375E+02  0.90229244260E+02  0.41800000000E+01 0.  1.
         -5    1    3    3    0  502  0.61855873734E+02  0.59984930725E+01 -0.31246644490E+03  0.31861400255E+03  0.41800000000E+01 0.  1.
        -11    1    1    2    0    0 -0.68825817454E+02  0.10166000896E+02 -0.29392842729E+03  0.30205009699E+03  0.00000000000E+00 0.  1.
         11    1    1    2    0    0  0.21252952904E+02  0.37644822864E+02 -0.13158200086E+03  0.13850142110E+03  0.00000000000E+00 0. -1.
</event>
<event>
 7    1  0.2380582E-009  0.1265801E+03  0.7561462E-02  0.1232620E+00
         -1   -1    0    0    0  501 -0.00000000000E+00  0.00000000000E+00  0.64742018717E+03  0.64742018717E+03  0.00000000000E+00 0.  1.
          1   -1    0    0  501    0  0.00000000000E+00 -0.00000000000E+00 -0.45498107145E+02  0.45498107145E+02  0.00000000000E+00 0. -1.
         25    2    1    2    0    0 -0.68222545319E+02  0.67293986701E+02  0.13287309548E+03  0.20612155497E+03  0.12509212439E+03 0.  0.
          5    1    3    3  502    0  0.16224240338E+02 -0.81436276858E+01 -0.12029594596E+02  0.22174945153E+02  0.41800000000E+01 0.  1.
         -5    1    3    3    0  502 -0.84446785657E+02  0.75437614387E+02  0.14490269007E+03  0.18394660982E+03  0.41800000000E+01 0.  1.
        -11    1    1    2    0    0  0.11818045492E+02 -0.63606461403E+02  0.15935889759E+03  0.17199042523E+03  0.00000000000E+00 0. -1.
         11    1    1    2    0    0  0.56404499827E+02 -0.36875252977E+01  0.30969008696E+03  0.31480631411E+03  0.00000000000E+00 0.  1.
</event>
<event>
 7    1  0.2380582E-009  0.1365185E+03  0.7561462E-02  0.1218092E+00
          2   -1    0    0  501    0  0.00000000000E+00  0.00000000000E+00  0.81684429412E+03  0.81684429412E+03  0.00000000000E+00 0. -1.
         -2   -1    0    0    0  501 -0.00000000000E+00 -0.00000000000E+00 -0.29932817069E+02  0.29932817069E+02  0.00000000000E+00 0.  1.
         25    2    1    2    0    0  0.25386198465E+02 -0.97149421778E+02  0.55566191379E+03  0.57835179015E+03  0.12509261173E+03 0.  0.
          5    1    3    3  502    0  0.56250217412E+02  0.16088846789E+01  0.17628826631E+03  0.18509916452E+03  0.41800000000E+01 0. -1.
         -5    1    3    3    0  502 -0.30864018948E+02 -0.98758306457E+02  0.37937364748E+03  0.39325262562E+03  0.41800000000E+01 0. -1.
        -11    1    1    2    0    0  0.16154875363E+02  0.30667839169E+02  0.15584586986E+03  0.15965409957E+03  0.00000000000E+00 0. -1.
         11    1    1    2    0    0 -0.41541073828E+02  0.66481582608E+02  0.75403693400E+02  0.10877122147E+03  0.00000000000E+00 0.  1.
</event>
<event>
 7    1  0.2380582E-009  0.7684546E+02  0.7561462E-02  0.1338250E+00
         -1   -1    0    0    0  501 -0.00000000000E+00  0.00000000000E+00  0.11160949951E+03  0.11160949951E+03  0.00000000000E+00 0.  1.
          1   -1    0    0  501    0  0.00000000000E+00 -0.00000000000E+00 -0.16515619979E+03  0.16515619979E+03  0.00000000000E+00 0. -1.
         25    2    1    2    0    0  0.29706074926E+02  0.56845889488E+02 -0.80420930036E+02  0.16195347410E+03  0.12508995062E+03 0.  0.
          5    1    3    3  502    0 -0.68384972154E+01 -0.59935899611E+01  0.28911007651E+02  0.30594230308E+02  0.41800000000E+01 0. -1.
         -5    1    3    3    0  502  0.36544572142E+02  0.62839479449E+02 -0.10933193769E+03  0.13135924379E+03  0.41800000000E+01 0. -1.
        -11    1    1    2    0    0 -0.35892202606E+02 -0.45562321798E+02 -0.23677635590E+02  0.62648270548E+02  0.00000000000E+00 0. -1.
         11    1    1    2    0    0  0.61861276800E+01 -0.11283567690E+02  0.50551865343E+02  0.52163954654E+02  0.00000000000E+00 0.  1.
</event>
<event>
 7    1  0.2380582E-009  0.6836610E+02  0.7561462E-02  0.1365739E+00
         -1   -1    0    0    0  501 -0.00000000000E+00  0.00000000000E+00  0.19442211771E+03  0.19442211771E+03  0.00000000000E+00 0.  1.
          1   -1    0    0  501    0  0.00000000000E+00 -0.00000000000E+00 -0.73311659753E+02  0.73311659753E+02  0.00000000000E+00 0. -1.
         25    2    1    2    0    0  0.36508177282E+02  0.16731498586E+02  0.38136734740E+02  0.13679763865E+03  0.12508554413E+03 0.  0.
          5    1    3    3  502    0  0.45382322575E+02  0.50423716467E+01 -0.37749359471E+02  0.59392484833E+02  0.41800000000E+01 0.  1.
         -5    1    3    3    0  502 -0.88741452938E+01  0.11689126940E+02  0.75886094211E+02  0.77405153820E+02  0.41800000000E+01 0.  1.
        -11    1    1    2    0    0 -0.63125578585E+01 -0.38105651734E+02  0.85535990706E+02  0.93852516145E+02  0.00000000000E+00 0.  1.
         11    1    1    2    0    0 -0.30195619423E+02  0.21374153148E+02 -0.25622674900E+01  0.37083622663E+02  0.00000000000E+00 0. -1.
</event>
<event>
 7    1  0.2380582E-009  0.1410851E+03  0.7561462E-02  0.1211876E+00
          1   -1    0    0  501    0  0.00000000000E+00  0.00000000000E+00  0.85186416931E+03  0.85186416931E+03  0.00000000000E+00 0. -1.
         -1   -1    0    0    0  501 -0.00000000000E+00 -0.00000000000E+00 -0.35986464453E+02  0.35986464453E+02  0.00000000000E+00 0.  1.
         25    2    1    2    0    0  0.58458292851E+02 -0.92970728297E+02  0.64301704663E+03  0.66421330810E+03  0.12508984002E+03 0.  0.
          5    1    3    3  502    0  0.49394716738E+02  0.16403924862E+02  0.14190017606E+03  0.15120204747E+03  0.41800000000E+01 0.  1.
         -5    1    3    3    0  502  0.90635761124E+01 -0.10937465316E+03  0.50111687057E+03  0.51301126063E+03  0.41800000000E+01 0.  1.
        -11    1    1    2    0    0 -0.65784137772E+02  0.70200415829E+02  0.17491768442E+03  0.19962927513E+03  0.00000000000E+00 0. -1.
         11    1    1    2    0    0  0.73258449214E+01  0.22770312468E+02 -0.20570261938E+01  0.24008050535E+02  0.00000000000E+00 0.  1.
</event>
<event>
 7    1  0.2380582E-009  0.9163236E+02  0.7561462E-02  0.1298946E+00
         -1   -1    0    0    0  501 -0.00000000000E+00  0.00000000000E+00  0.17427945335E+03  0.17427945335E+03  0.00000000000E+00 0.  1.
          1   -1    0    0  501    0  0.00000000000E+00 -0.00000000000E+00 -0.80894354246E+02  0.80894354246E+02  0.00000000000E+00 0. -1.
         25    2    1    2    0    0  0.28070772712E+02  0.10907352560E+02  0.13853454739E+02  0.12940676042E+03  0.12508897958E+03 0.  0.
          5    1    3    3  502    0  0.33881373238E+02 -0.32479359939E+02 -0.38633927568E+02  0.60933644515E+02  0.41800000000E+01 0.  1.
         -5    1    3    3    0  502 -0.58106005257E+01  0.43386712499E+02  0.52487382307E+02  0.68473115903E+02  0.41800000000E+01 0.  1.
        -11    1    1    2    0    0  0.30693003846E+02 -0.13087848497E+02  0.49612111855E+02  0.59788911230E+02  0.00000000000E+00 0.  1.
         11    1    1    2    0    0 -0.58763776558E+02  0.21804959367E+01  0.29919532513E+02  0.65978135952E+02  0.00000000000E+00 0. -1.
</event>
<event>
 7    1  0.2380582E-009  0.1047356E+03  0.7561462E-02  0.1270641E+00
          1   -1    0    0  501    0  0.00000000000E+00  0.00000000000E+00  0.12264226036E+03  0.12264226036E+03  0.00000000000E+00 0. -1.
         -1   -1    0    0    0  501 -0.00000000000E+00 -0.00000000000E+00 -0.11988358068E+03  0.11988358068E+03  0.00000000000E+00 0.  1.
         25    2    1    2    0    0 -0.37083135252E+02 -0.19875601190E+02 -0.16603943438E+02  0.13301423322E+03  0.12508755677E+03 0.  0.
          5    1    3    3  502    0 -0.69623210043E+02  0.23957332852E+02  0.55371832369E+01  0.73955919116E+02  0.41800000000E+01 0. -1.
         -5    1    3    3    0  502  0.32540074791E+02 -0.43832934041E+02 -0.22141126675E+02  0.59058314102E+02  0.41800000000E+01 0. -1.
        -11    1    1    2    0    0  0.42408641842E+02  0.41119730565E+02  0.46113663903E+02  0.74938609162E+02  0.00000000000E+00 0. -1.
         11    1    1    2    0    0 -0.53255065906E+01 -0.21244129375E+02 -0.26751040790E+02  0.34572998665E+02  0.00000000000E+00 0.  1.
</event>
<event>
 7    1  0.2380582E-009  0.1314361E+03  0.7561462E-02  0.1225340E+00
          2   -1    0    0  501    0  0.00000000000E+00  0.00000000000E+00  0.10562521429E+04  0.10562521429E+04  0.00000000000E+00 0.  1.
         -2   -1    0    0    0  501 -0.00000000000E+00 -0.00000000000E+00 -0.20088483528E+02  0.20088483528E+02  0.00000000000E+00 0. -1.
         25    2    1    2    0    0  0.50712578182E+02  0.83156932777E+02  0.58717803448E+03  0.60820391532E+03  0.12508843825E+03 0.  0.
          5    1    3    3  502    0  0.30924769673E+02 -0.11817341632E+02  0.35463107020E+03  0.35619750041E+03  0.41800000000E+01 0.  1.
         -5    1    3    3    0  502  0.19787808509E+02  0.94974274409E+02  0.23254696427E+03  0.25200641491E+03  0.41800000000E+01 0.  1.
        -11    1    1    2    0    0 -0.52021577234E+02 -0.28683346352E+01  0.18686017980E+03  0.19398762496E+03  0.00000000000E+00 0.  1.
         11    1    1    2    0    0  0.13089990526E+01 -0.80288598142E+02  0.26212544509E+03  0.27414908615E+03  0.00000000000E+00 0. -1.
</event>
<event>
 7    1  0.2380582E-009  0.9337864E+02  0.7561462E-02  0.1294870E+00
         -2   -1    0    0    0  501 -0.00000000000E+00  0.00000000000E+00  0.10113328132E+03  0.10113328132E+03  0.00000000000E+00 0. -1.
          2   -1    0    0  501    0  0.00000000000E+00 -0.00000000000E+00 -0.15089502130E+03  0.15089502130E+03  0.00000000000E+00 0.  1.
         25    2    1    2    0    0  0.50591243467E+01 -0.45391556116E+02 -0.65964664308E+02  0.14859845920E+03  0.12507668462E+03 0.  0.
          5    1    3    3  502    0  0.37994302631E+02 -0.23159860206E+02 -0.91045450210E+02  0.10142333342E+03  0.41800000000E+01 0.  1.
         -5    1    3    3    0  502 -0.32935178285E+02 -0.22231695909E+02  0.25080785902E+02  0.47175125788E+02  0.41800000000E+01 0.  1.
        -11    1    1    2    0    0  0.37825756697E+02  0.45570734129E+02  0.79056718737E+01  0.59749303984E+02  0.00000000000E+00 0. -1.
         11    1    1    2    0    0 -0.42884881044E+02 -0.17917801392E+00  0.82972524505E+01  0.43680539433E+02  0.00000000000E+00 0.  1.
</event>
<event>
 7    1  0.2380582E-009  0.1166582E+03  0.7561462E-02  0.1248714E+00
         -1   -1    0    0    0  501 -0.00000000000E+00  0.00000000000E+00  0.44541598213E+03  0.44541598213E+03  0.00000000000E+00 0.  1.
          1   -1    0    0  501    0  0.00000000000E+00 -0.00000000000E+00 -0.44138025415E+02  0.44138025415E+02  0.00000000000E+00 0. -1.
         25    2    1    2    0    0 -0.45742544598E+02  0.75896203584E+02  0.25986429518E+03  0.30171181230E+03  0.12509177299E+03 0.  0.
          5    1    3    3  502    0  0.11252787477E+02  0.75684094009E+02  0.21740955608E+03  0.23051918529E+03  0.41800000000E+01 0.  1.
         -5    1    3    3    0  502 -0.56995332075E+02  0.21210957442E+00  0.42454739095E+02  0.71192627009E+02  0.41800000000E+01 0.  1.
        -11    1    1    2    0    0  0.20389535373E+02 -0.70799831397E+02  0.41343262275E+02  0.84484404562E+02  0.00000000000E+00 0. -1.
         11    1    1    2    0    0  0.25353009225E+02 -0.50963721864E+01  0.10007039926E+03  0.10335779068E+03  0.00000000000E+00 0.  1.
</event>
<event>
 7    1  0.2380582E-009  0.9563430E+02  0.7561462E-02  0.1289754E+00
         -2   -1    0    0    0  501 -0.00000000000E+00  0.00000000000E+00  0.21464081301E+02  0.21464081301E+02  0.00000000000E+00 0.  1.
          2   -1    0    0  501    0  0.00000000000E+00 -0.00000000000E+00 -0.78480142557E+03  0.78480142557E+03  0.00000000000E+00 0. -1.
         25    2    1    2    0    0 -0.13208493258E+02  0.51950577364E+01 -0.63747963672E+03  0.64979252736E+03  0.12509431824E+03 0.  0.
          5    1    3    3  502    0 -0.39759888591E+02  0.41651800139E+02 -0.15870282115E+03  0.16887800045E+03  0.41800000000E+01 0. -1.
         -5    1    3    3    0  502  0.26551395333E+02 -0.36456742403E+02 -0.47877681558E+03  0.48091452691E+03  0.41800000000E+01 0. -1.
        -11    1    1    2    0    0 -0.15021597370E+02 -0.40407487380E+02 -0.36997941569E+02  0.56808987882E+02  0.00000000000E+00 0.  1.
         11    1    1    2    0    0  0.28230090628E+02  0.35212429643E+02 -0.88859765981E+02  0.99663991634E+02  0.00000000000E+00 0. -1.
</event>
<event>
 7    1  0.2380582E-009  0.1359128E+03  0.7561462E-02  0.1218937E+00
          2   -1    0    0  501    0  0.00000000000E+00  0.00000000000E+00  0.71516165366E+03  0.71516165366E+03  0.00000000000E+00 0. -1.
         -2   -1    0    0    0  501 -0.00000000000E+00 -0.00000000000E+00 -0.30488739796E+02  0.30488739796E+02  0.00000000000E+00 0.  1.
         25    2    1    2    0    0 -0.49496171242E+02  0.86313003002E+02  0.33907530695E+03  0.37485991541E+03  0.12509231366E+03 0.  0.
          5    1    3    3  502    0  0.30392048424E+02 -0.95255488819E+01  0.10179527346E+03  0.10674344377E+03  0.41800000000E+01 0.  1.
         -5    1    3    3    0  502 -0.79888219666E+02  0.95838551884E+02  0.23728003350E+03  0.26811647164E+03  0.41800000000E+01 0.  1.
        -11    1    1    2    0    0 -0.93806968909E+01 -0.36672939445E+02  0.37762513374E+02  0.53468770119E+02  0.00000000000E+00 0.  1.
         11    1    1    2    0    0  0.58876868133E+02 -0.49640063557E+02  0.30783509353E+03  0.31732170793E+03  0.00000000000E+00 0. -1.
</event>
<event>
 7    1  0.2770085E-009  0.1182330E+03  0.7561462E-02  0.1246041E+00
         -1   -1    0    0    0  501 -0.00000000000E+00  0.00000000000E+00  0.84291477329E+02  0.84291477329E+02  0.00000000000E+00 0.  1.
          1   -1    0    0  501    0  0.00000000000E+00 -0.00000000000E+00 -0.17894684355E+03  0.17894684355E+03  0.00000000000E+00 0. -1.
         25    2    1    2    0    0 -0.48285513265E+02  0.21433045935E+01 -0.19082630406E+02  0.13545324364E+03  0.12508936759E+03 0.  0.
          5    1    3    3  502    0 -0.40106329575E+02  0.61619946133E+02 -0.61485414621E+01  0.73897309799E+02  0.41800000000E+01 0.  1.
         -5    1    3    3    0  502 -0.81791836903E+01 -0.59476641540E+02 -0.12934088944E+02  0.61555933845E+02  0.41800000000E+01 0.  1.
        -11    1    1    2    0    0  0.37601331651E+02  0.42495994082E+02 -0.47336931982E+02  0.73895566744E+02  0.00000000000E+00 0. -1.
         11    1    1    2    0    0  0.10684181614E+02 -0.44639298676E+02 -0.28235803836E+02  0.53889510494E+02  0.00000000000E+00 0.  1.
</event>
<event>
 7    1  0.2380582E-009  0.1959737E+03  0.7561462E-02  0.1153181E+00
         -1   -1    0    0    0  501 -0.00000000000E+00  0.00000000000E+00  0.31329823397E+02  0.31329823397E+02  0.00000000000E+00 0.  1.
          1   -1    0    0  501    0  0.00000000000E+00 -0.00000000000E+00 -0.13987971967E+04  0.13987971967E+04  0.00000000000E+00 0. -1.
         25    2    1    2    0    0 -0.91960070089E+02  0.14995115321E+03 -0.62188173328E+03  0.65827583094E+03  0.12509267195E+03 0.  0.
          5    1    3    3  502    0  0.24517102883E+02  0.70530810119E+02 -0.21112132254E+03  0.22397626826E+03  0.41800000000E+01 0. -1.
         -5    1    3    3    0  502 -0.11647717297E+03  0.79420343093E+02 -0.41076041073E+03  0.43429956268E+03  0.41800000000E+01 0. -1.
        -11    1    1    2    0    0  0.59752541384E+02 -0.89268886920E+02 -0.61485824489E+03  0.62417142011E+03  0.00000000000E+00 0. -1.
         11    1    1    2    0    0  0.32207528705E+02 -0.60682266291E+02 -0.13072739516E+03  0.14767976907E+03  0.00000000000E+00 0.  1.
</event>
<event>
 7    1  0.2380582E-009  0.1645005E+03  0.7561462E-02  0.1183707E+00
         -1   -1    0    0    0  501 -0.00000000000E+00  0.00000000000E+00  0.10887614675E+03  0.10887614675E+03  0.00000000000E+00 0.  1.
          1   -1    0    0  501    0  0.00000000000E+00 -0.00000000000E+00 -0.52288192828E+03  0.52288192828E+03  0.00000000000E+00 0. -1.
         25    2    1    2    0    0  0.97041180623E+02  0.11493891160E+03 -0.41287190831E+03  0.45688389500E+03  0.12510690113E+03 0.  0.
          5    1    3    3  502    0 -0.14573686030E+02  0.38955579120E+02 -0.31641615206E+02  0.52427031977E+02  0.41800000000E+01 0. -1.
         -5    1    3    3    0  502  0.11161486665E+03  0.75983332475E+02 -0.38123029310E+03  0.40445686303E+03  0.41800000000E+01 0. -1.
        -11    1    1    2    0    0 -0.26895527839E+02 -0.17644531388E+02 -0.37625936740E+02  0.49501616350E+02  0.00000000000E+00 0. -1.
         11    1    1    2    0    0 -0.70145652784E+02 -0.97294380208E+02  0.36492063517E+02  0.12537256368E+03  0.00000000000E+00 0.  1.
</event>
<event>
 7    1  0.2380582E-009  0.1065280E+03  0.7561462E-02  0.1267138E+00
          1   -1    0    0  501    0  0.00000000000E+00  0.00000000000E+00  0.49640336434E+03  0.49640336434E+03  0.00000000000E+00 0. -1.
         -1   -1    0    0    0  501 -0.00000000000E+00 -0.00000000000E+00 -0.28812433981E+02  0.28812433981E+02  0.00000000000E+00 0.  1.
         25    2    1    2    0    0  0.20077462628E+02  0.46412768730E+02  0.25923438506E+03  0.29224502265E+03  0.12508971683E+03 0.  0.
          5    1    3    3  502    0  0.84819515668E+00  0.75111610293E+02  0.80610619397E+02  0.11026340189E+03  0.41800000000E+01 0. -1.
         -5    1    3    3    0  502  0.19229267471E+02 -0.28698841563E+02  0.17862376566E+03  0.18198162076E+03  0.41800000000E+01 0. -1.
        -11    1    1    2    0    0 -0.55954212235E+02 -0.31119335232E+02  0.11179945447E+03  0.12883479698E+03  0.00000000000E+00 0.  1.
         11    1    1    2    0    0  0.35876749607E+02 -0.15293433498E+02  0.96557090825E+02  0.10413597870E+03  0.00000000000E+00 0. -1.
</event>
<event>
 7    1  0.2380582E-009  0.1842513E+03  0.7561462E-02  0.1163751E+00
         -2   -1    0    0    0  501 -0.00000000000E+00  0.00000000000E+00  0.10695908877E+03  0.10695908877E+03  0.00000000000E+00 0.  1.
          2   -1    0    0  501    0  0.00000000000E+00 -0.00000000000E+00 -0.37426944507E+03  0.37426944507E+03  0.00000000000E+00 0. -1.
         25    2    1    2    0    0 -0.65360004639E+02  0.15420178255E+03 -0.13105597496E+03  0.24672138230E+03  0.12508258056E+03 0.  0.
          5    1    3    3  502    0  0.23420877322E+02  0.12271214121E+02 -0.58269585715E+02  0.64124388574E+02  0.41800000000E+01 0.  1.
         -5    1    3    3    0  502 -0.88780881961E+02  0.14193056843E+03 -0.72786389248E+02  0.18259699372E+03  0.41800000000E+01 0.  1.
        -11    1    1    2    0    0  0.32985669380E+02 -0.25875933917E+02  0.34525322639E+01  0.42065880705E+02  0.00000000000E+00 0.  1.
         11    1    1    2    0    0  0.32374335259E+02 -0.12832584864E+03 -0.13970691361E+03  0.19244127084E+03  0.00000000000E+00 0. -1.
</event>
<event>
 7    1  0.2380582E-009  0.8833932E+02  0.7561462E-02  0.1306924E+00
          2   -1    0    0  501    0  0.00000000000E+00  0.00000000000E+00  0.13804543969E+03  0.13804543969E+03  0.00000000000E+00 0. -1.
         -2   -1    0    0    0  501 -0.00000000000E+00 -0.00000000000E+00 -0.13482760278E+03  0.13482760278E+03  0.00000000000E+00 0.  1.
         25    2    1    2    0    0 -0.77309491248E+01 -0.33393518924E+02 -0.73173677605E+02  0.14891956948E+03  0.12509099248E+03 0.  0.
          5    1    3    3  502    0  0.50575368545E+02 -0.47505682264E+02 -0.41361144919E+02  0.80888036567E+02  0.41800000000E+01 0.  1.
         -5    1    3    3    0  502 -0.58306317669E+02  0.14112163340E+02 -0.31812532686E+02  0.68031532911E+02  0.41800000000E+01 0.  1.
        -11    1    1    2    0    0  0.13754959211E+02  0.68584837766E+00 -0.18694120094E+02  0.23219375895E+02  0.00000000000E+00 0.  1.
         11    1    1    2    0    0 -0.60240100860E+01  0.32707670546E+02  0.95085634606E+02  0.10073409710E+03  0.00000000000E+00 0. -1.
</event>
<event>
 7    1  0.2380582E-009  0.1852207E+03  0.7561462E-02  0.1162844E+00
         -2   -1    0    0    0  501 -0.00000000000E+00  0.00000000000E+00  0.11651395783E+03  0.11651395783E+03  0.00000000000E+00 0.  1.
          2   -1    0    0  501    0  0.00000000000E+00 -0.00000000000E+00 -0.30521643048E+03  0.30521643048E+03  0.00000000000E+00 0. -1.
         25    2    1    2    0    0  0.15309508202E+03  0.98955290584E+01 -0.80116979219E+02  0.21354839257E+03  0.12509260560E+03 0.  0.
          5    1    3    3  502    0  0.14053947771E+03 -0.37006350555E+02 -0.41006961649E+02  0.15106243107E+03  0.41800000000E+01 0.  1.
         -5    1    3    3    0  502  0.12555604316E+02  0.46901879613E+02 -0.39110017571E+02  0.62485961506E+02  0.41800000000E+01 0.  1.
        -11    1    1    2    0    0 -0.15791832769E+03 -0.25519391575E+02 -0.10527155973E+03  0.19149814321E+03  0.00000000000E+00 0.  1.
         11    1    1    2    0    0  0.48232456634E+01  0.15623862516E+02 -0.33139337008E+01  0.16683852530E+02  0.00000000000E+00 0. -1.
</event>
<event>
 7    1  0.2390204E-009  0.6319583E+02  0.7561462E-02  0.1384889E+00
         -3   -1    0    0    0  501 -0.00000000000E+00  0.00000000000E+00  0.55621873673E+02  0.55621873673E+02  0.00000000000E+00 0.  1.
          3   -1    0    0  501    0  0.00000000000E+00 -0.00000000000E+00 -0.32229916732E+03  0.32229916732E+03  0.00000000000E+00 0. -1.
         25    2    1    2    0    0  0.11882285854E+02 -0.23381818037E+02 -0.25263233508E+03  0.28312255233E+03  0.12508950706E+03 0.  0.
          5    1    3    3  502    0  0.11982204168E+02  0.18846168659E+02 -0.23671200142E+03  0.23779990602E+03  0.41800000000E+01 0. -1.
         -5    1    3    3    0  502 -0.99918314653E-01 -0.42227986696E+02 -0.15920333664E+02  0.45322646304E+02  0.41800000000E+01 0. -1.
        -11    1    1    2    0    0 -0.33595720429E+02  0.20439146344E+02 -0.43140982428E+02  0.58374442176E+02  0.00000000000E+00 0. -1.
         11    1    1    2    0    0  0.21713434576E+02  0.29426716923E+01  0.29096023865E+02  0.36424046488E+02  0.00000000000E+00 0.  1.
</event>
<event>
 7    1  0.2380582E-009  0.9617119E+02  0.7561462E-02  0.1288560E+00
          1   -1    0    0  501    0  0.00000000000E+00  0.00000000000E+00  0.29389518164E+03  0.29389518164E+03  0.00000000000E+00 0. -1.
         -1   -1    0    0    0  501 -0.00000000000E+00 -0.00000000000E+00 -0.48662315024E+02  0.48662315024E+02  0.00000000000E+00 0.  1.
         25    2    1    2    0    0 -0.89875788547E+01  0.41830725167E+02  0.10351381271E+03  0.16790614440E+03  0.12508708073E+03 0.  0.
          5    1    3    3  502    0 -0.50500002937E+02  0.43918112616E+02  0.10668786990E+03  0.12601120941E+03  0.41800000000E+01 0.  1.
         -5    1    3    3    0  502  0.41512424082E+02 -0.20873874495E+01 -0.31740571931E+01  0.41894934999E+02  0.41800000000E+01 0.  1.
        -11    1    1    2    0    0  0.24704096928E+02 -0.56717428354E+02  0.13985117576E+03  0.15292321748E+03  0.00000000000E+00 0. -1.
         11    1    1    2    0    0 -0.15716518073E+02  0.14886703187E+02  0.18678781520E+01  0.21728134778E+02  0.00000000000E+00 0.  1.
</event>
<event>
 7    1  0.2380582E-009  0.7511408E+02  0.7561462E-02  0.1343518E+00
          1   -1    0    0  501    0  0.00000000000E+00  0.00000000000E+00  0.26766793138E+03  0.26766793138E+03  0.00000000000E+00 0. -1.
         -1   -1    0    0    0  501 -0.00000000000E+00 -0.00000000000E+00 -0.50256922119E+02  0.50256922119E+02  0.00000000000E+00 0.  1.
         25    2    1    2    0    0 -0.28224337772E+01  0.26466364744E+02  0.84586934070E+02  0.15332239417E+03  0.12507746617E+03 0.  0.
          5    1    3    3  502    0 -0.33024573585E+02 -0.15722873340E+02 -0.15940636358E+02  0.40117421328E+02  0.41800000000E+01 0.  1.
         -5    1    3    3    0  502  0.30202139808E+02  0.42189238083E+02  0.10052757043E+03  0.11320497284E+03  0.41800000000E+01 0.  1.
        -11    1    1    2    0    0  0.21894823660E+02  0.68752975356E+01  0.12277102486E+03  0.12489746821E+03  0.00000000000E+00 0. -1.
         11    1    1    2    0    0 -0.19072389883E+02 -0.33341662279E+02  0.10053050333E+02  0.39704991127E+02  0.00000000000E+00 0.  1.
</event>
<event>
 7    1  0.2380582E-009  0.1991894E+03  0.7561462E-02  0.1150425E+00
         -2   -1    0    0    0  501 -0.00000000000E+00  0.00000000000E+00  0.65997181218E+02  0.65997181218E+02  0.00000000000E+00 0.  1.
          2   -1    0    0  501    0  0.00000000000E+00 -0.00000000000E+00 -0.62512021719E+03  0.62512021719E+03  0.00000000000E+00 0. -1.
         25    2    1    2    0    0 -0.16964179460E+03  0.61782160095E+01 -0.33517634124E+03  0.39598852326E+03  0.12508885639E+03 0.  0.
          5    1    3    3  502    0 -0.35696246970E+02 -0.50868466756E+02 -0.13248098394E+03  0.14639162019E+03  0.41800000000E+01 0. -1.
         -5    1    3    3    0  502 -0.13394554763E+03  0.57046682765E+02 -0.20269535731E+03  0.24959690306E+03  0.41800000000E+01 0. -1.
        -11    1    1    2    0    0  0.14302334503E+03  0.29399820762E+02 -0.18757968988E+03  0.23771025796E+03  0.00000000000E+00 0. -1.
         11    1    1    2    0    0  0.26618449578E+02 -0.35578036771E+02 -0.36367004841E+02  0.57418617186E+02  0.00000000000E+00 0.  1.
</event>
<event>
 7    1  0.2760096E-009  0.2153789E+03  0.7561462E-02  0.1137376E+00
          1   -1    0    0  501    0  0.00000000000E+00  0.00000000000E+00  0.90235234440E+03  0.90235234440E+03  0.00000000000E+00 0.  1.
         -1   -1    0    0    0  501 -0.00000000000E+00 -0.00000000000E+00 -0.60058445853E+02  0.60058445853E+02  0.00000000000E+00 0. -1.
         25    2    1    2    0    0  0.51523661753E+02  0.19866257523E+03  0.41527608114E+03  0.47981656832E+03  0.12509280217E+03 0.  0.
          5    1    3    3  502    0  0.51277085597E+02  0.15605353690E+03  0.40310161573E+03  0.43530498607E+03  0.41800000000E+01 0.  1.
         -5    1    3    3    0  502  0.24657615647E+00  0.42609038329E+02  0.12174465403E+02  0.44511582257E+02  0.41800000000E+01 0.  1.
        -11    1    1    2    0    0 -0.74018808751E+02 -0.11317653803E+03  0.28221199729E+03  0.31293980927E+03  0.00000000000E+00 0.  1.
         11    1    1    2    0    0  0.22495146998E+02 -0.85486037204E+02  0.14480582012E+03  0.16965441266E+03  0.00000000000E+00 0. -1.
</event>
<event>
 7    1  0.2380582E-009  0.9318361E+02  0.7561462E-02  0.1295320E+00
          2   -1    0    0  501    0  0.00000000000E+00  0.00000000000E+00  0.21447055108E+03  0.21447055108E+03  0.00000000000E+00 0. -1.
         -2   -1    0    0    0  501 -0.00000000000E+00 -0.00000000000E+00 -0.77399790619E+02  0.77399790619E+02  0.00000000000E+00 0.  1.
         25    2    1    2    0    0 -0.55082413128E+02 -0.39099337746E+02  0.10074390484E+03  0.17424362069E+03  0.12509466232E+03 0.  0.
          5    1    3    3  502    0  0.71296282271E+01  0.14314394790E+01 -0.25985250506E+02  0.27305425495E+02  0.41800000000E+01 0. -1.
         -5    1    3    3    0  502 -0.62212041355E+02 -0.40530777225E+02  0.12672915535E+03  0.14693819520E+03  0.41800000000E+01 0. -1.
        -11    1    1    2    0    0 -0.19994363672E+02  0.14162255508E+02 -0.94103675172E+01  0.26246886987E+02  0.00000000000E+00 0.  1.
         11    1    1    2    0    0  0.75076776799E+02  0.24937082238E+02  0.45737223129E+02  0.91379834016E+02  0.00000000000E+00 0. -1.
</event>
<event>
 7    1  0.2380582E-009  0.9995228E+02  0.7561462E-02  0.1280396E+00
          1   -1    0    0  501    0  0.00000000000E+00  0.00000000000E+00  0.59781475777E+03  0.59781475777E+03  0.00000000000E+00 0. -1.
         -1   -1    0    0    0  501 -0.00000000000E+00 -0.00000000000E+00 -0.36961571419E+02  0.36961571419E+02  0.00000000000E+00 0.  1.
         25    2    1    2    0    0  0.35457740716E+02 -0.57894496941E+02  0.46249876049E+03  0.48390285115E+03  0.12509133358E+03 0.  0.
          5    1    3    3  502    0 -0.29475772228E+02 -0.41289731557E+02  0.75092316993E+02  0.90719300878E+02  0.41800000000E+01 0. -1.
         -5    1    3    3    0  502  0.64933512943E+02 -0.16604765385E+02  0.38740644350E+03  0.39318355027E+03  0.41800000000E+01 0. -1.
        -11    1    1    2    0    0 -0.32173560209E+02  0.97877215398E+01 -0.75872230396E+01  0.34474677995E+02  0.00000000000E+00 0.  1.
         11    1    1    2    0    0 -0.32841805069E+01  0.48106775402E+02  0.10594164890E+03  0.11639880004E+03  0.00000000000E+00 0. -1.
</event>
<event>
 7    1  0.2380582E-009  0.1130782E+03  0.7561462E-02  0.1254974E+00
          2   -1    0    0  501    0  0.00000000000E+00  0.00000000000E+00  0.38387772674E+03  0.38387772674E+03  0.00000000000E+00 0. -1.
         -2   -1    0    0    0  501 -0.00000000000E+00 -0.00000000000E+00 -0.45737289514E+02  0.45737289514E+02  0.00000000000E+00 0.  1.
         25    2    1    2    0    0  0.11065385532E+02 -0.69846924326E+02  0.14294033524E+03  0.20268398936E+03  0.12509126473E+03 0.  0.
          5    1    3    3  502    0  0.15801609949E+02 -0.10582177129E+03  0.10975009985E+03  0.15333132418E+03  0.41800000000E+01 0. -1.
         -5    1    3    3    0  502 -0.47362244173E+01  0.35974846966E+02  0.33190235387E+02  0.49352665187E+02  0.41800000000E+01 0. -1.
        -11    1    1    2    0    0  0.11676010387E+02  0.31593867342E+01 -0.61782419617E+01  0.13582400997E+02  0.00000000000E+00 0.  1.
         11    1    1    2    0    0 -0.22741395919E+02  0.66687537592E+02  0.20137834395E+03  0.21334862590E+03  0.00000000000E+00 0. -1.
</event>
<event>
 7    1  0.2380582E-009  0.1858310E+03  0.7561462E-02  0.1162276E+00
          1   -1    0    0  501    0  0.00000000000E+00  0.00000000000E+00  0.12816868586E+03  0.12816868586E+03  0.00000000000E+00 0. -1.
         -1   -1    0    0    0  501 -0.00000000000E+00 -0.00000000000E+00 -0.37962508650E+03  0.37962508650E+03  0.00000000000E+00 0.  1.
         25    2    1    2    0    0  0.69511794637E+02  0.15325937330E+03 -0.23447982152E+03  0.31456118975E+03  0.12509048842E+03 0.  0.
          5    1    3    3  502    0  0.32516480589E+02  0.14941214606E+02  0.41235998592E+01  0.36263451016E+02  0.41800000000E+01 0.  1.
         -5    1    3    3    0  502  0.36995314048E+02  0.13831815870E+03 -0.23860342138E+03  0.27829773873E+03  0.41800000000E+01 0.  1.
        -11    1    1    2    0    0 -0.76669333972E+02 -0.56179334049E+02 -0.53860110338E+01  0.95201436233E+02  0.00000000000E+00 0.  1.
         11    1    1    2    0    0  0.71575393350E+01 -0.97080039255E+02 -0.11590568082E+02  0.98031146375E+02  0.00000000000E+00 0. -1.
</event>
<event>
 7    1  0.2380582E-009  0.1281382E+03  0.7561462E-02  0.1230245E+00
          2   -1    0    0  501    0  0.00000000000E+00  0.00000000000E+00  0.10293152264E+04  0.10293152264E+04  0.00000000000E+00 0. -1.
         -2   -1    0    0    0  501 -0.00000000000E+00 -0.00000000000E+00 -0.25221447728E+02  0.25221447728E+02  0.00000000000E+00 0.  1.
         25    2    1    2    0    0 -0.60734099473E+02  0.96414489182E+02  0.78498615887E+03  0.80301657639E+03  0.12509183738E+03 0.  0.
          5    1    3    3  502    0 -0.56770838967E+02  0.10938690441E+03  0.77701239254E+03  0.78673639395E+03  0.41800000000E+01 0.  1.
         -5    1    3    3    0  502 -0.39632605063E+01 -0.12972415229E+02  0.79737663332E+01  0.16280182439E+02  0.41800000000E+01 0.  1.
        -11    1    1    2    0    0  0.68380234035E+01 -0.40636027515E+02  0.45573939603E+02  0.61441266810E+02  0.00000000000E+00 0.  1.
         11    1    1    2    0    0  0.53896076069E+02 -0.55778461667E+02  0.17353368018E+03  0.19007883090E+03  0.00000000000E+00 0. -1.
</event>
<event>
 7    1  0.2380582E-009  0.1534726E+03  0.7561462E-02  0.1196270E+00
          2   -1    0    0  501    0  0.00000000000E+00  0.00000000000E+00  0.77912785916E+03  0.77912785916E+03  0.00000000000E+00 0. -1.
         -2   -1    0    0    0  501 -0.00000000000E+00 -0.00000000000E+00 -0.38693146810E+02  0.38693146810E+02  0.00000000000E+00 0.  1.
         25    2    1    2    0    0 -0.11990904968E+03 -0.52044165831E+02  0.31180367267E+03  0.36049416346E+03  0.12509091175E+03 0.  0.
          5    1    3    3  502    0 -0.65106463062E+01 -0.60968888766E+02  0.69430329029E+02  0.92723443108E+02  0.41800000000E+01 0. -1.
         -5    1    3    3    0  502 -0.11339840337E+03  0.89247229347E+01  0.24237334364E+03  0.26777072035E+03  0.41800000000E+01 0. -1.
        -11    1    1    2    0    0  0.83940943342E+02  0.28387733083E+02  0.38848351351E+03  0.39846127243E+03  0.00000000000E+00 0.  1.
         11    1    1    2    0    0  0.35968106337E+02  0.23656432748E+02  0.40147526168E+02  0.58865570083E+02  0.00000000000E+00 0. -1.
</event>
<event>
 7    1  0.2380582E-009  0.1569554E+03  0.7561462E-02  0.1192178E+00
          2   -1    0    0  501    0  0.00000000000E+00  0.00000000000E+00  0.11025316906E+04  0.11025316906E+04  0.00000000000E+00 0. -1.
         -2   -1    0    0    0  501 -0.00000000000E+00 -0.00000000000E+00 -0.26993742078E+02  0.26993742078E+02  0.00000000000E+00 0.  1.
         25    2    1    2    0    0 -0.88007255538E+02  0.78077039836E+02  0.78213179622E+03  0.80076216431E+03  0.12509434819E+03 0.  0.
          5    1    3    3  502    0 -0.63061564674E+02 -0.21921991575E+02  0.36398728957E+03  0.37008317177E+03  0.41800000000E+01 0. -1.
         -5    1    3    3    0  502 -0.24945690865E+02  0.99999031410E+02  0.41814450665E+03  0.43067899254E+03  0.41800000000E+01 0. -1.
        -11    1    1    2    0    0  0.12379346592E+01  0.15906827832E+02  0.13075630044E+02  0.20628421049E+02  0.00000000000E+00 0.  1.
         11    1    1    2    0    0  0.86769320879E+02 -0.93983867668E+02  0.28033052230E+03  0.30813484736E+03  0.00000000000E+00 0. -1.
</event>
<event>
 7    1  0.2380582E-009  0.1398107E+03  0.7561462E-02  0.1213584E+00
         -1   -1    0    0    0  501 -0.00000000000E+00  0.00000000000E+00  0.11382445581E+03  0.11382445581E+03  0.00000000000E+00 0.  1.
          1   -1    0    0  501    0  0.00000000000E+00 -0.00000000000E+00 -0.26634221427E+03  0.26634221427E+03  0.00000000000E+00 0. -1.
         25    2    1    2    0    0  0.42303842447E+02  0.10073517140E+03 -0.16731222248E+03  0.23575056102E+03  0.12509099642E+03 0.  0.
          5    1    3    3  502    0 -0.38016581457E+02  0.47918500559E+02 -0.10348980684E+03  0.12028738787E+03  0.41800000000E+01 0.  1.
         -5    1    3    3    0  502  0.80320423904E+02  0.52816670843E+02 -0.63822415639E+02  0.11546317315E+03  0.41800000000E+01 0.  1.
        -11    1    1    2    0    0 -0.17198488950E+02  0.10737220083E+01  0.33715656057E+02  0.37864051083E+02  0.00000000000E+00 0.  1.
         11    1    1    2    0    0 -0.25105353497E+02 -0.10180889341E+03 -0.18921192039E+02  0.10655205798E+03  0.00000000000E+00 0. -1.
</event>
<event>
 7    1  0.2380582E-009  0.1319082E+03  0.7561462E-02  0.1224652E+00
         -2   -1    0    0    0  501 -0.00000000000E+00  0.00000000000E+00  0.25820353248E+02  0.25820353248E+02  0.00000000000E+00 0. -1.
          2   -1    0    0  501    0  0.00000000000E+00 -0.00000000000E+00 -0.74737338031E+03  0.74737338031E+03  0.00000000000E+00 0.  1.
         25    2    1    2    0    0 -0.15608876741E+02  0.84030599801E+02 -0.45125597712E+03  0.47600891641E+03  0.12509097839E+03 0.  0.
          5    1    3    3  502    0  0.46193022316E+02  0.17148433691E+02 -0.25315807287E+03  0.25794252528E+03  0.41800000000E+01 0.  1.
         -5    1    3    3    0  502 -0.61801899057E+02  0.66882166110E+02 -0.19809790426E+03  0.21806639113E+03  0.41800000000E+01 0.  1.
        -11    1    1    2    0    0 -0.28445946090E+02 -0.13453861376E+00 -0.53782037802E+02  0.60841577394E+02  0.00000000000E+00 0.  1.
         11    1    1    2    0    0  0.44054822831E+02 -0.83896061187E+02 -0.21651501214E+03  0.23634323976E+03  0.00000000000E+00 0. -1.
</event>
<event>
 7    1  0.3352232E-009  0.1209218E+03  0.7561462E-02  0.1241584E+00
          1   -1    0    0  501    0  0.00000000000E+00  0.00000000000E+00  0.66658893775E+03  0.66658893775E+03  0.00000000000E+00 0. -1.
         -1   -1    0    0    0  501 -0.00000000000E+00 -0.00000000000E+00 -0.24849895185E+02  0.24849895185E+02  0.00000000000E+00 0.  1.
         25    2    1    2    0    0 -0.67471628659E+02 -0.27669547834E+01  0.39225650535E+03  0.41722002374E+03  0.12508919022E+03 0.  0.
          5    1    3    3  502    0  0.99599415487E+01  0.39994484672E+02  0.21636046386E+03  0.22029090304E+03  0.41800000000E+01 0.  1.
         -5    1    3    3    0  502 -0.77431570208E+02 -0.42761439456E+02  0.17589604149E+03  0.19692912071E+03  0.41800000000E+01 0.  1.
        -11    1    1    2    0    0  0.66806313466E+01  0.40014508017E+02  0.11600495047E+03  0.12289402028E+03  0.00000000000E+00 0. -1.
         11    1    1    2    0    0  0.60790997312E+02 -0.37247553233E+02  0.13347758674E+03  0.15132478891E+03  0.00000000000E+00 0.  1.
</event>
<event>
 7    1  0.2380582E-009  0.5680631E+02  0.7561462E-02  0.1411745E+00
          3   -1    0    0  501    0  0.00000000000E+00  0.00000000000E+00  0.87578667416E+02  0.87578667416E+02  0.00000000000E+00 0. -1.
         -3   -1    0    0    0  501 -0.00000000000E+00 -0.00000000000E+00 -0.14835687623E+03  0.14835687623E+03  0.00000000000E+00 0.  1.
         25    2    1    2    0    0  0.18705882936E+02 -0.24748516938E+02 -0.57075629585E+02  0.14095286071E+03  0.12509069631E+03 0.  0.
          5    1    3    3  502    0  0.15710613057E+02 -0.48812599062E+02  0.23603362116E+02  0.56604631374E+02  0.41800000000E+01 0.  1.
         -5    1    3    3    0  502  0.29952698786E+01  0.24064082124E+02 -0.80678991701E+02  0.84348229335E+02  0.41800000000E+01 0.  1.
        -11    1    1    2    0    0  0.37250405661E+01  0.10102843776E+02 -0.44716740400E+02  0.45994893755E+02  0.00000000000E+00 0.  1.
         11    1    1    2    0    0 -0.22430923502E+02  0.14645673162E+02  0.41014161175E+02  0.48987789177E+02  0.00000000000E+00 0. -1.
</event>
<event>
 7    1  0.2380582E-009  0.1007245E+03  0.7561462E-02  0.1278780E+00
          2   -1    0    0  501    0  0.00000000000E+00  0.00000000000E+00  0.35114292209E+03  0.35114292209E+03  0.00000000000E+00 0. -1.
         -2   -1    0    0    0  501 -0.00000000000E+00 -0.00000000000E+00 -0.41126529047E+02  0.41126529047E+02  0.00000000000E+00 0.  1.
         25    2    1    2    0    0 -0.31708123936E+02 -0.11910366356E+02  0.10955601081E+03  0.16970382241E+03  0.12509838483E+03 0.  0.
          5    1    3    3  502    0 -0.18291306065E+02  0.48229689706E+02  0.91900510891E+02  0.10546966933E+03  0.41800000000E+01 0. -1.
         -5    1    3    3    0  502 -0.13416817871E+02 -0.60140056061E+02  0.17655499924E+02  0.64234153084E+02  0.41800000000E+01 0. -1.
        -11    1    1    2    0    0 -0.22296907706E+01  0.42314316737E+02  0.50956994164E+02  0.66272831357E+02  0.00000000000E+00 0.  1.
         11    1    1    2    0    0  0.33937814707E+02 -0.30403950382E+02  0.14950338806E+03  0.15629279737E+03  0.00000000000E+00 0. -1.
</event>
<event>
 7    1  0.2388135E-009  0.7629806E+02  0.7561462E-02  0.1339898E+00
         -2   -1    0    0    0  501 -0.00000000000E+00  0.00000000000E+00  0.56048954721E+02  0.56048954721E+02  0.00000000000E+00 0.  1.
          2   -1    0    0  501    0  0.00000000000E+00 -0.00000000000E+00 -0.30310769596E+03  0.30310769596E+03  0.00000000000E+00 0. -1.
         25    2    1    2    0    0 -0.11517351273E+02 -0.14642254431E+02 -0.23298434424E+03  0.26509712707E+03  0.12509091542E+03 0.  0.
          5    1    3    3  502    0  0.40367286060E+02  0.15701525687E+02 -0.28734649158E+02  0.52146027221E+02  0.41800000000E+01 0. -1.
         -5    1    3    3    0  502 -0.51884637333E+02 -0.30343780118E+02 -0.20424969509E+03  0.21295109985E+03  0.41800000000E+01 0. -1.
        -11    1    1    2    0    0  0.16215179094E+01 -0.16281205503E+02  0.33023541548E+02  0.36854596313E+02  0.00000000000E+00 0.  1.
         11    1    1    2    0    0  0.98958333639E+01  0.30923459934E+02 -0.47097938540E+02  0.57204927296E+02  0.00000000000E+00 0. -1.
</event>
<event>
 7    1  0.2380582E-009  0.9153724E+02  0.7561462E-02  0.1299171E+00
         -2   -1    0    0    0  501 -0.00000000000E+00  0.00000000000E+00  0.65892508709E+02  0.65892508709E+02  0.00000000000E+00 0. -1.
          2   -1    0    0  501    0  0.00000000000E+00 -0.00000000000E+00 -0.24330802186E+03  0.24330802186E+03  0.00000000000E+00 0.  1.
         25    2    1    2    0    0 -0.32337941639E+02  0.54366487130E+01 -0.17243910983E+03  0.21554215476E+03  0.12509146359E+03 0.  0.
          5    1    3    3  502    0  0.33145583161E+02  0.11959954462E+02 -0.13527183849E+03  0.13984853550E+03  0.41800000000E+01 0.  1.
         -5    1    3    3    0  502 -0.65483524800E+02 -0.65233057489E+01 -0.37167271337E+02  0.75693619260E+02  0.41800000000E+01 0.  1.
        -11    1    1    2    0    0 -0.17373815916E+02 -0.23090267751E+02 -0.24016752230E+02  0.37574117847E+02  0.00000000000E+00 0.  1.
         11    1    1    2    0    0  0.49711757555E+02  0.17653619038E+02  0.19040348906E+02  0.56084257959E+02  0.00000000000E+00 0. -1.
</event>
<event>
 7    1  0.2380582E-009  0.1059073E+03  0.7561462E-02  0.1268342E+00
          2   -1    0    0  501    0  0.00000000000E+00  0.00000000000E+00  0.31598701895E+02  0.31598701895E+02  0.00000000000E+00 0. -1.
         -2   -1    0    0    0  501 -0.00000000000E+00 -0.00000000000E+00 -0.42578538773E+03  0.42578538773E+03  0.00000000000E+00 0.  1.
         25    2    1    2    0    0 -0.11961148687E+02  0.11513474933E+02 -0.13979460904E+03  0.18832337564E+03  0.12509009518E+03 0.  0.
          5    1    3    3  502    0 -0.67540871174E+02  0.10900585249E+02 -0.93095506960E+02  0.11560639192E+03  0.41800000000E+01 0. -1.
         -5    1    3    3    0  502  0.55579722487E+02  0.61288968320E+00 -0.46699102076E+02  0.72716983712E+02  0.41800000000E+01 0. -1.
        -11    1    1    2    0    0  0.48718855849E+02  0.92289163753E+00 -0.14777417445E+03  0.15560072390E+03  0.00000000000E+00 0. -1.
         11    1    1    2    0    0 -0.36757707163E+02 -0.12436366570E+02 -0.10661790235E+03  0.11345999009E+03  0.00000000000E+00 0.  1.
</event>
<event>
 7    1  0.2380582E-009  0.9034591E+02  0.7561462E-02  0.1302016E+00
         -3   -1    0    0    0  501 -0.00000000000E+00  0.00000000000E+00  0.11261414665E+03  0.11261414665E+03  0.00000000000E+00 0.  1.
          3   -1    0    0  501    0  0.00000000000E+00 -0.00000000000E+00 -0.17327263232E+03  0.17327263232E+03  0.00000000000E+00 0. -1.
         25    2    1    2    0    0 -0.42405362945E+02 -0.73447553790E+02 -0.58025269356E+02  0.16188826727E+03  0.12509245073E+03 0.  0.
          5    1    3    3  502    0  0.85372018765E+01 -0.12546493732E+02 -0.78274903335E+02  0.79841913886E+02  0.41800000000E+01 0. -1.
         -5    1    3    3    0  502 -0.50942564822E+02 -0.60901060058E+02  0.20249633979E+02  0.82046353381E+02  0.41800000000E+01 0. -1.
        -11    1    1    2    0    0  0.30241174768E+02  0.42248876319E+02  0.42968549461E+02  0.67422492125E+02  0.00000000000E+00 0.  1.
         11    1    1    2    0    0  0.12164188177E+02  0.31198677471E+02 -0.45601765773E+02  0.56576019580E+02  0.00000000000E+00 0. -1.
</event>
<event>
 7    1  0.2380582E-009  0.1694464E+03  0.7561462E-02  0.1178426E+00
          1   -1    0    0  501    0  0.00000000000E+00  0.00000000000E+00  0.74397554928E+02  0.74397554928E+02  0.00000000000E+00 0. -1.
         -1   -1    0    0    0  501 -0.00000000000E+00 -0.00000000000E+00 -0.45733546665E+03  0.45733546665E+03  0.00000000000E+00 0.  1.
         25    2    1    2    0    0  0.97135606398E+02 -0.83621789506E+02 -0.95912830587E+02  0.20316218281E+03  0.12509065410E+03 0.  0.
          5    1    3    3  502    0 -0.29317980495E+02 -0.28436385757E+02 -0.22684891417E+02  0.46906808822E+02  0.41800000000E+01 0. -1.
         -5    1    3    3    0  502  0.12645358689E+03 -0.55185403749E+02 -0.73227939170E+02  0.15625537399E+03  0.41800000000E+01 0. -1.
        -11    1    1    2    0    0 -0.23876711643E+02  0.83182860650E+02 -0.16179175575E+03  0.18348312700E+03  0.00000000000E+00 0.  1.
         11    1    1    2    0    0 -0.73258894756E+02  0.43892885636E+00 -0.12523332539E+03  0.14508771177E+03  0.00000000000E+00 0. -1.
</event>
<event>
 7    1  0.2380582E-009  0.1039753E+03  0.7561462E-02  0.1272152E+00
         -2   -1    0    0    0  501 -0.00000000000E+00  0.00000000000E+00  0.12381434700E+03  0.12381434700E+03  0.00000000000E+00 0.  1.
          2   -1    0    0  501    0  0.00000000000E+00 -0.00000000000E+00 -0.10845373317E+03  0.10845373317E+03  0.00000000000E+00 0. -1.
         25    2    1    2    0    0  0.10711973936E+02  0.31476568713E+02 -0.14108915299E+02  0.13020549386E+03  0.12509551701E+03 0.  0.
          5    1    3    3  502    0  0.46092642820E+02 -0.18543124306E+02 -0.39643301266E+02  0.63698060539E+02  0.41800000000E+01 0. -1.
         -5    1    3    3    0  502 -0.35380668885E+02  0.50019693018E+02  0.25534385967E+02  0.66507433322E+02  0.41800000000E+01 0. -1.
        -11    1    1    2    0    0 -0.50814751523E+02 -0.12573067604E+02  0.23307922168E+02  0.57301659985E+02  0.00000000000E+00 0.  1.
         11    1    1    2    0    0  0.40102777587E+02 -0.18903501109E+02  0.61616069634E+01  0.44760926317E+02  0.00000000000E+00 0. -1.
</event>
<event>
 7    1  0.2380582E-009  0.1621654E+03  0.7561462E-02  0.1186273E+00
          1   -1    0    0  501    0  0.00000000000E+00  0.00000000000E+00  0.15350843693E+04  0.15350843693E+04  0.00000000000E+00 0. -1.
         -1   -1    0    0    0  501 -0.00000000000E+00 -0.00000000000E+00 -0.20522857572E+02  0.20522857572E+02  0.00000000000E+00 0.  1.
         25    2    1    2    0    0 -0.72849270504E+02  0.10087428928E+03  0.10391022658E+04  0.10539749662E+04  0.12508825702E+03 0.  0.
          5    1    3    3  502    0 -0.75612103497E+02  0.21359365211E+01  0.37749963147E+03  0.38502622843E+03  0.41800000000E+01 0. -1.
         -5    1    3    3    0  502  0.27628329934E+01  0.98738352760E+02  0.66160263438E+03  0.66894873777E+03  0.41800000000E+01 0. -1.
        -11    1    1    2    0    0  0.72857015723E+01 -0.80817104262E+02  0.34314717498E+03  0.35261093217E+03  0.00000000000E+00 0. -1.
         11    1    1    2    0    0  0.65563568932E+02 -0.20057185019E+02  0.13231207092E+03  0.14902132851E+03  0.00000000000E+00 0.  1.
</event>
<event>
 7    1  0.2380582E-009  0.9463254E+02  0.7561462E-02  0.1292006E+00
          2   -1    0    0  501    0  0.00000000000E+00  0.00000000000E+00  0.35205679358E+03  0.35205679358E+03  0.00000000000E+00 0. -1.
         -2   -1    0    0    0  501 -0.00000000000E+00 -0.00000000000E+00 -0.41753332258E+02  0.41753332258E+02  0.00000000000E+00 0.  1.
         25    2    1    2    0    0  0.30840784485E+02  0.39333906192E+02  0.19018841782E+03  0.23306217400E+03  0.12509209612E+03 0.  0.
          5    1    3    3  502    0 -0.18573668347E+02 -0.17379033364E+00 -0.11090020147E+02  0.22033436088E+02  0.41800000000E+01 0.  1.
         -5    1    3    3    0  502  0.49414452832E+02  0.39507696525E+02  0.20127843796E+03  0.21102873791E+03  0.41800000000E+01 0.  1.
        -11    1    1    2    0    0 -0.60442222249E+02 -0.46624691148E+02  0.85025000165E+02  0.11426449452E+03  0.00000000000E+00 0. -1.
         11    1    1    2    0    0  0.29601437764E+02  0.72907849568E+01  0.35090043335E+02  0.46483457318E+02  0.00000000000E+00 0.  1.
</event>
<event>
 7    1  0.2380582E-009  0.9956743E+02  0.7561462E-02  0.1281208E+00
          3   -1    0    0  501    0  0.00000000000E+00  0.00000000000E+00  0.46744435811E+03  0.46744435811E+03  0.00000000000E+00 0. -1.
         -3   -1    0    0    0  501 -0.00000000000E+00 -0.00000000000E+00 -0.26131119245E+02  0.26131119245E+02  0.00000000000E+00 0.  1.
         25    2    1    2    0    0  0.17700855357E+02  0.21463974354E+02  0.26452652940E+03  0.29393384476E+03  0.12509515524E+03 0.  0.
          5    1    3    3  502    0  0.62487399509E+02 -0.45778576079E+01  0.77110499132E+02  0.99444121767E+02  0.41800000000E+01 0. -1.
         -5    1    3    3    0  502 -0.44786544153E+02  0.26041831962E+02  0.18741603027E+03  0.19448972300E+03  0.41800000000E+01 0. -1.
        -11    1    1    2    0    0 -0.16651681079E+02 -0.51595053756E+02  0.69191617420E+02  0.87902263771E+02  0.00000000000E+00 0.  1.
         11    1    1    2    0    0 -0.10491742781E+01  0.30131079402E+02  0.10759509204E+03  0.11173936882E+03  0.00000000000E+00 0. -1.
</event>
<event>
 7    1  0.2380582E-009  0.1102521E+03  0.7561462E-02  0.1260104E+00
         -2   -1    0    0    0  501 -0.00000000000E+00  0.00000000000E+00  0.36349674462E+02  0.36349674462E+02  0.00000000000E+00 0.  1.
          2   -1    0    0  501    0  0.00000000000E+00 -0.00000000000E+00 -0.44767473162E+03  0.44767473162E+03  0.00000000000E+00 0. -1.
         25    2    1    2    0    0 -0.57773731828E+02 -0.10712984161E+02 -0.29942575500E+03  0.32978097188E+03  0.12508850681E+03 0.  0.
          5    1    3    3  502    0  0.22531447024E+02 -0.42127954312E+02 -0.14674033634E+03  0.15437820231E+03  0.41800000000E+01 0. -1.
         -5    1    3    3    0  502 -0.80305178852E+02  0.31414970151E+02 -0.15268541867E+03  0.17540276957E+03  0.41800000000E+01 0. -1.
        -11    1    1    2    0    0  0.71659312717E+02  0.87975296004E+01 -0.43213398569E+02  0.84141853093E+02  0.00000000000E+00 0. -1.
         11    1    1    2    0    0 -0.13885580889E+02  0.19154545602E+01 -0.68685903589E+02  0.70101581114E+02  0.00000000000E+00 0.  1.
</event>
<event>
 7    1  0.2380582E-009  0.1936300E+03  0.7561462E-02  0.1155227E+00
         -2   -1    0    0    0  501 -0.00000000000E+00  0.00000000000E+00  0.96655279370E+02  0.96655279370E+02  0.00000000000E+00 0.  1.
          2   -1    0    0  501    0  0.00000000000E+00 -0.00000000000E+00 -0.39538937153E+03  0.39538937153E+03  0.00000000000E+00 0. -1.
         25    2    1    2    0    0 -0.12869752832E+03 -0.99096633984E+02 -0.15110362993E+03  0.25468949145E+03  0.12510488965E+03 0.  0.
          5    1    3    3  502    0 -0.10512691542E+03 -0.12696332373E+03 -0.10397823621E+03  0.19493665618E+03  0.41800000000E+01 0. -1.
         -5    1    3    3    0  502 -0.23570612903E+02  0.27866689741E+02 -0.47125393725E+02  0.59752835276E+02  0.41800000000E+01 0. -1.
        -11    1    1    2    0    0  0.64007004484E+02 -0.37674138563E+01 -0.56587031854E+02  0.85517145674E+02  0.00000000000E+00 0. -1.
         11    1    1    2    0    0  0.64690523838E+02  0.10286404784E+03 -0.91043430375E+02  0.15183801377E+03  0.00000000000E+00 0.  1.
</event>
<event>
 7    1  0.2380582E-009  0.1380269E+03  0.7561462E-02  0.1216009E+00
          1   -1    0    0  501    0  0.00000000000E+00  0.00000000000E+00  0.16880841586E+03  0.16880841586E+03  0.00000000000E+00 0. -1.
         -1   -1    0    0    0  501 -0.00000000000E+00 -0.00000000000E+00 -0.12887218534E+03  0.12887218534E+03  0.00000000000E+00 0.  1.
         25    2    1    2    0    0  0.20146683905E+02 -0.88155522009E+02 -0.18132016236E+02  0.15541366386E+03  0.12508937592E+03 0.  0.
          5    1    3    3  502    0  0.39934529353E+02 -0.11115322053E+03  0.29724341610E+01  0.11822061086E+03  0.41800000000E+01 0. -1.
         -5    1    3    3    0  502 -0.19787845448E+02  0.22997698518E+02 -0.21104450397E+02  0.37193052995E+02  0.41800000000E+01 0. -1.
        -11    1    1    2    0    0 -0.53308693340E+02  0.73966888459E+02  0.54004457844E+02  0.10596885788E+03  0.00000000000E+00 0. -1.
         11    1    1    2    0    0  0.33162009435E+02  0.14188633550E+02  0.40637889060E+01  0.36298079454E+02  0.00000000000E+00 0.  1.
</event>
<event>
 7    1  0.2380582E-009  0.1315872E+03  0.7561462E-02  0.1225120E+00
          1   -1    0    0  501    0  0.00000000000E+00  0.00000000000E+00  0.84377876502E+03  0.84377876502E+03  0.00000000000E+00 0. -1.
         -1   -1    0    0    0  501 -0.00000000000E+00 -0.00000000000E+00 -0.22148511094E+02  0.22148511094E+02  0.00000000000E+00 0.  1.
         25    2    1    2    0    0 -0.82840195652E+02 -0.10757992378E+02  0.46114428882E+03  0.48505554452E+03  0.12508634515E+03 0.  0.
          5    1    3    3  502    0  0.18708251379E+02  0.27274741811E+02  0.52032364624E+02  0.61796032064E+02  0.41800000000E+01 0.  1.
         -5    1    3    3    0  502 -0.10154844703E+03 -0.38032734189E+02  0.40911192420E+03  0.42325951246E+03  0.41800000000E+01 0.  1.
        -11    1    1    2    0    0  0.85682700978E+02 -0.21980970299E+02  0.23323231815E+03  0.24944338542E+03  0.00000000000E+00 0.  1.
         11    1    1    2    0    0 -0.28425053257E+01  0.32738962677E+02  0.12725364695E+03  0.13142834617E+03  0.00000000000E+00 0. -1.
</event>
<event>
 7    1  0.2380582E-009  0.1888233E+03  0.7561462E-02  0.1159527E+00
         -2   -1    0    0    0  501 -0.00000000000E+00  0.00000000000E+00  0.55768101888E+02  0.55768101888E+02  0.00000000000E+00 0.  1.
          2   -1    0    0  501    0  0.00000000000E+00 -0.00000000000E+00 -0.74504870176E+03  0.74504870176E+03  0.00000000000E+00 0. -1.
         25    2    1    2    0    0  0.15406442007E+03  0.25216894245E+02 -0.49613107705E+03  0.53494471424E+03  0.12509222358E+03 0.  0.
          5    1    3    3  502    0  0.11923470760E+03  0.69901840700E+02 -0.29250746603E+03  0.32354485456E+03  0.41800000000E+01 0.  1.
         -5    1    3    3    0  502  0.34829712469E+02 -0.44684946455E+02 -0.20362361102E+03  0.21139985969E+03  0.41800000000E+01 0.  1.
        -11    1    1    2    0    0 -0.68996364656E+02 -0.59241189083E+02 -0.10152263606E+03  0.13629696421E+03  0.00000000000E+00 0.  1.
         11    1    1    2    0    0 -0.85068055414E+02  0.34024294839E+02 -0.91626886765E+02  0.12957512520E+03  0.00000000000E+00 0. -1.
</event>
<event>
 7    1  0.2380582E-009  0.1051799E+03  0.7561462E-02  0.1269766E+00
         -2   -1    0    0    0  501 -0.00000000000E+00  0.00000000000E+00  0.24236053638E+02  0.24236053638E+02  0.00000000000E+00 0.  1.
          2   -1    0    0  501    0  0.00000000000E+00 -0.00000000000E+00 -0.10849704243E+04  0.10849704243E+04  0.00000000000E+00 0. -1.
         25    2    1    2    0    0 -0.44254861923E+02 -0.52925458382E+02 -0.90942365826E+03  0.92057498355E+03  0.12508922087E+03 0.  0.
          5    1    3    3  502    0  0.19294878243E+02 -0.54288644044E+02 -0.19661437837E+03  0.20492495061E+03  0.41800000000E+01 0.  1.
         -5    1    3    3    0  502 -0.63549740165E+02  0.13631856612E+01 -0.71280927989E+03  0.71565003294E+03  0.41800000000E+01 0.  1.
        -11    1    1    2    0    0 -0.74771766639E+01  0.32374187485E+02 -0.12052443487E+03  0.12502054066E+03  0.00000000000E+00 0. -1.
         11    1    1    2    0    0  0.51732038587E+02  0.20551270898E+02 -0.30786277553E+02  0.63610953753E+02  0.00000000000E+00 0.  1.
</event>
<event>
 7    1  0.2380582E-009  0.2323121E+03  0.7561462E-02  0.1125023E+00
         -2   -1    0    0    0  501 -0.00000000000E+00  0.00000000000E+00  0.88979925159E+02  0.88979925159E+02  0.00000000000E+00 0.  1.
          2   -1    0    0  501    0  0.00000000000E+00 -0.00000000000E+00 -0.70676099223E+03  0.70676099223E+03  0.00000000000E+00 0. -1.
         25    2    1    2    0    0 -0.17192445888E+03  0.13001443961E+03 -0.37768319787E+03  0.45249575137E+03  0.12508410366E+03 0.  0.
          5    1    3    3  502    0 -0.90487489698E+02  0.43486272123E+02 -0.69507280169E+02  0.12217927832E+03  0.41800000000E+01 0. -1.
         -5    1    3    3    0  502 -0.81436969187E+02  0.86528167486E+02 -0.30817591770E+03  0.33031647305E+03  0.41800000000E+01 0. -1.
        -11    1    1    2    0    0  0.11439535725E+03 -0.13354974966E+02 -0.10927090371E+03  0.15876014460E+03  0.00000000000E+00 0.  1.
         11    1    1    2    0    0  0.57529101635E+02 -0.11665946464E+03 -0.13082696550E+03  0.18448502142E+03  0.00000000000E+00 0. -1.
</event>
<event>
 7    1  0.2380582E-009  0.1953476E+03  0.7561462E-02  0.1153725E+00
         -1   -1    0    0    0  501 -0.00000000000E+00  0.00000000000E+00  0.61626765141E+02  0.61626765141E+02  0.00000000000E+00 0. -1.
          1   -1    0    0  501    0  0.00000000000E+00 -0.00000000000E+00 -0.11879868245E+04  0.11879868245E+04  0.00000000000E+00 0.  1.
         25    2    1    2    0    0 -0.96844483775E+02 -0.14093773880E+03 -0.99435617365E+03  0.10166779825E+04  0.12509044594E+03 0.  0.
          5    1    3    3  502    0 -0.81646417011E+02 -0.25493215952E+02 -0.27745574156E+03  0.29037080155E+03  0.41800000000E+01 0.  1.
         -5    1    3    3    0  502 -0.15198066764E+02 -0.11544452285E+03 -0.71690043209E+03  0.72630718090E+03  0.41800000000E+01 0.  1.
        -11    1    1    2    0    0  0.10148184754E+03  0.84894339225E+02 -0.71729640082E+02  0.15050167932E+03  0.00000000000E+00 0. -1.
         11    1    1    2    0    0 -0.46373637634E+01  0.56043399580E+02 -0.60274245650E+02  0.82433927892E+02  0.00000000000E+00 0.  1.
</event>
<event>
 7    1  0.2380582E-009  0.9431911E+02  0.7561462E-02  0.1292717E+00
         -3   -1    0    0    0  501 -0.00000000000E+00  0.00000000000E+00  0.81043393791E+02  0.81043393791E+02  0.00000000000E+00 0.  1.
          3   -1    0    0  501    0  0.00000000000E+00 -0.00000000000E+00 -0.21939375330E+03  0.21939375330E+03  0.00000000000E+00 0. -1.
         25    2    1    2    0    0 -0.80739696403E+01 -0.68048462783E+02 -0.35116633841E+02  0.14688652566E+03  0.12508673461E+03 0.  0.
          5    1    3    3  502    0 -0.13907070999E+02 -0.60581435744E+00 -0.69389606624E+02  0.70895440913E+02  0.41800000000E+01 0.  1.
         -5    1    3    3    0  502  0.58331013587E+01 -0.67442648426E+02  0.34272972783E+02  0.75991084751E+02  0.41800000000E+01 0.  1.
        -11    1    1    2    0    0  0.58081450809E+01  0.87000190887E+02 -0.10233312853E+03  0.13444269024E+03  0.00000000000E+00 0. -1.
         11    1    1    2    0    0  0.22658245594E+01 -0.18951728104E+02 -0.90059713557E+00  0.19107931187E+02  0.00000000000E+00 0.  1.
</event>
<event>
 7    1  0.2380582E-009  0.1728989E+03  0.7561462E-02  0.1174858E+00
          2   -1    0    0  501    0  0.00000000000E+00  0.00000000000E+00  0.52587700331E+03  0.52587700331E+03  0.00000000000E+00 0. -1.
         -2   -1    0    0    0  501 -0.00000000000E+00 -0.00000000000E+00 -0.85326806171E+02  0.85326806171E+02  0.00000000000E+00 0.  1.
         25    2    1    2    0    0 -0.16838405889E+03  0.59567336759E+00  0.13062196763E+03  0.24710976551E+03  0.12509033403E+03 0.  0.
          5    1    3    3  502    0 -0.77167778666E+02 -0.10812659322E+02  0.13395620196E+03  0.15502746889E+03  0.41800000000E+01 0. -1.
         -5    1    3    3    0  502 -0.91216280222E+02  0.11408332690E+02 -0.33342343325E+01  0.92082296620E+02  0.41800000000E+01 0. -1.
        -11    1    1    2    0    0  0.68797346957E+02 -0.25017160222E+02  0.20368511786E+03  0.21644066275E+03  0.00000000000E+00 0.  1.
         11    1    1    2    0    0  0.99586711931E+02  0.24421486854E+02  0.10624311165E+03  0.14765338122E+03  0.00000000000E+00 0. -1.
</event>
<event>
 7    1  0.2380582E-009  0.1153016E+03  0.7561462E-02  0.1251055E+00
          2   -1    0    0  501    0  0.00000000000E+00  0.00000000000E+00  0.69144373647E+03  0.69144373647E+03  0.00000000000E+00 0. -1.
         -2   -1    0    0    0  501 -0.00000000000E+00 -0.00000000000E+00 -0.29133294698E+02  0.29133294698E+02  0.00000000000E+00 0.  1.
         25    2    1    2    0    0  0.42037920331E+02  0.34147405231E+02  0.54602699616E+03  0.56278381085E+03  0.12508759007E+03 0.  0.
          5    1    3    3  502    0 -0.41835151690E+02  0.30960645563E+02  0.20130411182E+03  0.20796528394E+03  0.41800000000E+01 0.  1.
         -5    1    3    3    0  502  0.83873072021E+02  0.31867596676E+01  0.34472288434E+03  0.35481852691E+03  0.41800000000E+01 0.  1.
        -11    1    1    2    0    0 -0.40172673313E+02 -0.57930310190E+02  0.47540661029E+02  0.85028694985E+02  0.00000000000E+00 0.  1.
         11    1    1    2    0    0 -0.18652470181E+01  0.23782904959E+02  0.68742784576E+02  0.72764525327E+02  0.00000000000E+00 0. -1.
</event>
<event>
 7    1  0.2380582E-009  0.9675288E+02  0.7561462E-02  0.1287276E+00
          1   -1    0    0  501    0  0.00000000000E+00  0.00000000000E+00  0.34658664946E+03  0.34658664946E+03  0.00000000000E+00 0. -1.
         -1   -1    0    0    0  501 -0.00000000000E+00 -0.00000000000E+00 -0.46207702335E+02  0.46207702335E+02  0.00000000000E+00 0.  1.
         25    2    1    2    0    0  0.34128483944E+02  0.52768783208E+02  0.14372441451E+03  0.20063759239E+03  0.12509771484E+03 0.  0.
          5    1    3    3  502    0  0.25575978258E+02 -0.11934513600E+02  0.13092415934E+03  0.13399690734E+03  0.41800000000E+01 0. -1.
         -5    1    3    3    0  502  0.85525056862E+01  0.64703296809E+02  0.12800255170E+02  0.66640685049E+02  0.41800000000E+01 0. -1.
        -11    1    1    2    0    0  0.16728659177E+02 -0.45150686400E+02  0.33387595458E+02  0.58593208230E+02  0.00000000000E+00 0.  1.
         11    1    1    2    0    0 -0.50857143122E+02 -0.76180968082E+01  0.12326693716E+03  0.13356355117E+03  0.00000000000E+00 0. -1.
</event>
<event>
 7    1  0.2380582E-009  0.7954796E+02  0.7561462E-02  0.1330339E+00
          1   -1    0    0  501    0  0.00000000000E+00  0.00000000000E+00  0.13956619514E+03  0.13956619514E+03  0.00000000000E+00 0. -1.
         -1   -1    0    0    0  501 -0.00000000000E+00 -0.00000000000E+00 -0.12637140089E+03  0.12637140089E+03  0.00000000000E+00 0.  1.
         25    2    1    2    0    0 -0.49162158987E+01 -0.10235787040E+02  0.83923889571E+02  0.15106089587E+03  0.12508890640E+03 0.  0.
          5    1    3    3  502    0  0.39626391513E+02 -0.17098130041E+02  0.95031776086E+02  0.10445624836E+03  0.41800000000E+01 0. -1.
         -5    1    3    3    0  502 -0.44542607412E+02  0.68623430015E+01 -0.11107886514E+02  0.46604647508E+02  0.41800000000E+01 0. -1.
        -11    1    1    2    0    0 -0.11524755293E+02 -0.27225493223E+02 -0.67676983551E+02  0.73852701836E+02  0.00000000000E+00 0.  1.
         11    1    1    2    0    0  0.16440971191E+02  0.37461280263E+02 -0.30521117644E+01  0.41023998329E+02  0.00000000000E+00 0. -1.
</event>
<event>
 7    1  0.2380582E-009  0.1547671E+03  0.7561462E-02  0.1194735E+00
          2   -1    0    0  501    0  0.00000000000E+00  0.00000000000E+00  0.29998641905E+03  0.29998641905E+03  0.00000000000E+00 0. -1.
         -2   -1    0    0    0  501 -0.00000000000E+00 -0.00000000000E+00 -0.83109572712E+02  0.83109572712E+02  0.00000000000E+00 0.  1.
         25    2    1    2    0    0  0.10810624054E+03  0.36109061666E+02  0.10612745873E+03  0.19974835592E+03  0.12508215147E+03 0.  0.
          5    1    3    3  502    0  0.36346055643E+00  0.57491758057E+02  0.23580133709E+02  0.62281052125E+02  0.41800000000E+01 0. -1.
         -5    1    3    3    0  502  0.10774277999E+03 -0.21382696391E+02  0.82547325026E+02  0.13746730380E+03  0.41800000000E+01 0. -1.
        -11    1    1    2    0    0 -0.17774060716E+02 -0.47689986771E+02  0.19715837097E+02  0.54579907521E+02  0.00000000000E+00 0.  1.
         11    1    1    2    0    0 -0.90332179828E+02  0.11580925106E+02  0.91033550507E+02  0.12876772832E+03  0.00000000000E+00 0. -1.
</event>
<event>
 7    1  0.2380582E-009  0.1289655E+03  0.7561462E-02  0.1228999E+00
          1   -1    0    0  501    0  0.00000000000E+00  0.00000000000E+00  0.15674155076E+03  0.15674155076E+03  0.00000000000E+00 0. -1.
         -1   -1    0    0    0  501 -0.00000000000E+00 -0.00000000000E+00 -0.21576558650E+03  0.21576558650E+03  0.00000000000E+00 0.  1.
         25    2    1    2    0    0 -0.31159330406E+02 -0.65651322863E+02  0.99307537966E+02  0.17547158588E+03  0.12508912938E+03 0.  0.
          5    1    3    3  502    0 -0.77323599239E+02 -0.57166840351E+02  0.77365113413E+02  0.12349016078E+03  0.41800000000E+01 0.  1.
         -5    1    3    3    0  502  0.46164268833E+02 -0.84844825115E+01  0.21942424552E+02  0.51981425102E+02  0.41800000000E+01 0.  1.
        -11    1    1    2    0    0  0.34791925167E+02  0.86582642852E+02 -0.14333280346E+03  0.17103018636E+03  0.00000000000E+00 0.  1.
         11    1    1    2    0    0 -0.36325947609E+01 -0.20931319989E+02 -0.14998770241E+02  0.26005365022E+02  0.00000000000E+00 0. -1.
</event>
<event>
 7    1  0.2380582E-009  0.1369828E+03  0.7561462E-02  0.1217447E+00
         -1   -1    0    0    0  501 -0.00000000000E+00  0.00000000000E+00  0.19420188923E+02  0.19420188923E+02  0.00000000000E+00 0.  1.
          1   -1    0    0  501    0  0.00000000000E+00 -0.00000000000E+00 -0.10204229761E+04  0.10204229761E+04  0.00000000000E+00 0. -1.
         25    2    1    2    0    0 -0.42885698730E+02  0.78506492266E+02 -0.56137913238E+03  0.58206250259E+03  0.12509106350E+03 0.  0.
          5    1    3    3  502    0 -0.40561981610E+02 -0.26413913855E+02 -0.19060401508E+03  0.19669858200E+03  0.41800000000E+01 0.  1.
         -5    1    3    3    0  502 -0.23237171201E+01  0.10492040612E+03 -0.37077511731E+03  0.38536392059E+03  0.41800000000E+01 0.  1.
        -11    1    1    2    0    0  0.43211679604E+02 -0.13892501177E+01 -0.23834068935E+03  0.24223018695E+03  0.00000000000E+00 0. -1.
         11    1    1    2    0    0 -0.32598087439E+00 -0.77117242149E+02 -0.20128296541E+03  0.21555047544E+03  0.00000000000E+00 0.  1.
</event>
<event>
 7    1  0.2380582E-009  0.5796645E+02  0.7561462E-02  0.1406569E+00
          1   -1    0    0  501    0  0.00000000000E+00  0.00000000000E+00  0.19395204552E+03  0.19395204552E+03  0.00000000000E+00 0. -1.
         -1   -1    0    0    0  501 -0.00000000000E+00 -0.00000000000E+00 -0.67967498666E+02  0.67967498666E+02  0.00000000000E+00 0.  1.
         25    2    1    2    0    0  0.46383180585E+01 -0.10017698296E+02  0.43730708331E+02  0.13297389087E+03  0.12509121683E+03 0.  0.
          5    1    3    3  502    0  0.83835914226E+01 -0.72820632418E+01  0.87732557392E+02  0.88531277393E+02  0.41800000000E+01 0. -1.
         -5    1    3    3    0  502 -0.37452733642E+01 -0.27356350542E+01 -0.44001849062E+02  0.44442613476E+02  0.41800000000E+01 0. -1.
        -11    1    1    2    0    0  0.39559996618E+02  0.29673431646E+02  0.30478396230E+02  0.58089917497E+02  0.00000000000E+00 0.  1.
         11    1    1    2    0    0 -0.44198314677E+02 -0.19655733350E+02  0.51775442291E+02  0.70855735817E+02  0.00000000000E+00 0. -1.
</event>
<event>
 7    1  0.2380582E-009  0.1555675E+03  0.7561462E-02  0.1193794E+00
          2   -1    0    0  501    0  0.00000000000E+00  0.00000000000E+00  0.50592717641E+03  0.50592717641E+03  0.00000000000E+00 0. -1.
         -2   -1    0    0    0  501 -0.00000000000E+00 -0.00000000000E+00 -0.73513479195E+02  0.73513479195E+02  0.00000000000E+00 0.  1.
         25    2    1    2    0    0  0.11203641061E+03 -0.10679693299E+03  0.17250232957E+03  0.26336811244E+03  0.12509183325E+03 0.  0.
          5    1    3    3  502    0  0.85373597295E+02 -0.83628073519E+02  0.18939822435E+03  0.22398987831E+03  0.41800000000E+01 0. -1.
         -5    1    3    3    0  502  0.26662813311E+02 -0.23168859471E+02 -0.16895894782E+02  0.39378234132E+02  0.41800000000E+01 0. -1.
        -11    1    1    2    0    0 -0.51455222221E+02  0.62385897537E+02  0.21219494659E+03  0.22708222181E+03  0.00000000000E+00 0.  1.
         11    1    1    2    0    0 -0.60581188386E+02  0.44411035453E+02  0.47716421053E+02  0.88990321352E+02  0.00000000000E+00 0. -1.
</event>
<event>
 7    1  0.2380582E-009  0.1579179E+03  0.7561462E-02  0.1191068E+00
         -2   -1    0    0    0  501 -0.00000000000E+00  0.00000000000E+00  0.57039277959E+02  0.57039277959E+02  0.00000000000E+00 0.  1.
          2   -1    0    0  501    0  0.00000000000E+00 -0.00000000000E+00 -0.53591011638E+03  0.53591011638E+03  0.00000000000E+00 0. -1.
         25    2    1    2    0    0 -0.70174357530E+02  0.10385680052E+03 -0.14848065362E+03  0.23109496950E+03  0.12509078688E+03 0.  0.
          5    1    3    3  502    0 -0.94353109211E+02  0.35720196662E+02 -0.62810308463E+02  0.11891614237E+03  0.41800000000E+01 0. -1.
         -5    1    3    3    0  502  0.24178751681E+02  0.68136603853E+02 -0.85670345157E+02  0.11217882713E+03  0.41800000000E+01 0. -1.
        -11    1    1    2    0    0  0.39714566005E+02 -0.62645439871E+01 -0.14114397506E+03  0.14675868955E+03  0.00000000000E+00 0. -1.
         11    1    1    2    0    0  0.30459791525E+02 -0.97592256528E+02 -0.18924620974E+03  0.21509573528E+03  0.00000000000E+00 0.  1.
</event>
<event>
 7    1  0.2380582E-009  0.1098380E+03  0.7561462E-02  0.1260870E+00
         -4   -1    0    0    0  501 -0.00000000000E+00  0.00000000000E+00  0.21936455198E+03  0.21936455198E+03  0.00000000000E+00 0.  1.
          4   -1    0    0  501    0  0.00000000000E+00 -0.00000000000E+00 -0.73762453401E+02  0.73762453401E+02  0.00000000000E+00 0. -1.
         25    2    1    2    0    0  0.44210000475E+02  0.38684037477E+02  0.11558444130E+03  0.18015916817E+03  0.12508630583E+03 0.  0.
          5    1    3    3  502    0  0.84049808794E+02  0.77925689277E+01  0.53288499950E+02  0.99911116077E+02  0.41800000000E+01 0.  1.
         -5    1    3    3    0  502 -0.39839808319E+02  0.30891468549E+02  0.62295941346E+02  0.80248052090E+02  0.41800000000E+01 0.  1.
        -11    1    1    2    0    0  0.24773986444E+01 -0.37799200406E+02  0.49533668574E+02  0.62357849368E+02  0.00000000000E+00 0.  1.
         11    1    1    2    0    0 -0.46687399120E+02 -0.88483707080E+00 -0.19516011289E+02  0.50609987847E+02  0.00000000000E+00 0. -1.
</event>
<event>
 7    1  0.2380582E-009  0.1088051E+03  0.7561462E-02  0.1262799E+00
          1   -1    0    0  501    0  0.00000000000E+00  0.00000000000E+00  0.12078991618E+02  0.12078991618E+02  0.00000000000E+00 0. -1.
         -1   -1    0    0    0  501 -0.00000000000E+00 -0.00000000000E+00 -0.10424070169E+04  0.10424070169E+04  0.00000000000E+00 0.  1.
         25    2    1    2    0    0  0.19177551492E+02 -0.14104052293E+02 -0.63693974111E+03  0.64954242740E+03  0.12508568428E+03 0.  0.
          5    1    3    3  502    0  0.33125126651E+02 -0.62759136068E+02 -0.27422053772E+03  0.28328494292E+03  0.41800000000E+01 0.  1.
         -5    1    3    3    0  502 -0.13947575159E+02  0.48655083776E+02 -0.36271920339E+03  0.36625748449E+03  0.41800000000E+01 0.  1.
        -11    1    1    2    0    0  0.28127681725E+02  0.34249567722E+02 -0.19844763968E+03  0.20333633483E+03  0.00000000000E+00 0.  1.
         11    1    1    2    0    0 -0.47305233217E+02 -0.20145515430E+02 -0.19494064452E+03  0.20160724632E+03  0.00000000000E+00 0. -1.
</event>
<event>
 7    1  0.2380582E-009  0.1370682E+03  0.7561462E-02  0.1217329E+00
         -1   -1    0    0    0  501 -0.00000000000E+00  0.00000000000E+00  0.17833145415E+03  0.17833145415E+03  0.00000000000E+00 0.  1.
          1   -1    0    0  501    0  0.00000000000E+00 -0.00000000000E+00 -0.13022200197E+03  0.13022200197E+03  0.00000000000E+00 0. -1.
         25    2    1    2    0    0  0.40101939830E+02 -0.98459955139E+02  0.33795318313E+02  0.16760031862E+03  0.12508083354E+03 0.  0.
          5    1    3    3  502    0  0.63143465762E+02 -0.65330245604E+00  0.18011716582E+02  0.65798316139E+02  0.41800000000E+01 0.  1.
         -5    1    3    3    0  502 -0.23041525931E+02 -0.97806652683E+02  0.15783601732E+02  0.10180200249E+03  0.41800000000E+01 0.  1.
        -11    1    1    2    0    0 -0.40182108507E+02  0.62388191335E+02 -0.33200956605E+02  0.81296935869E+02  0.00000000000E+00 0. -1.
         11    1    1    2    0    0  0.80168677027E-01  0.36071763805E+02  0.47515090472E+02  0.59656201635E+02  0.00000000000E+00 0.  1.
</event>
<event>
 7    1  0.2380582E-009  0.1031993E+03  0.7561462E-02  0.1273709E+00
         -2   -1    0    0    0  501 -0.00000000000E+00  0.00000000000E+00  0.11613147296E+03  0.11613147296E+03  0.00000000000E+00 0.  1.
          2   -1    0    0  501    0  0.00000000000E+00 -0.00000000000E+00 -0.12095993951E+03  0.12095993951E+03  0.00000000000E+00 0. -1.
         25    2    1    2    0    0  0.10878512394E+02  0.11058958652E+02 -0.29882003396E+02  0.12954251240E+03  0.12509071026E+03 0.  0.
          5    1    3    3  502    0 -0.36219159906E+02  0.33539090846E+02 -0.52790825439E+02  0.72395039952E+02  0.41800000000E+01 0.  1.
         -5    1    3    3    0  502  0.47097672299E+02 -0.22480132195E+02  0.22908822044E+02  0.57147472446E+02  0.41800000000E+01 0.  1.
        -11    1    1    2    0    0  0.45509634997E+02 -0.15157398109E+02  0.13671258176E+02  0.49877619180E+02  0.00000000000E+00 0.  1.
         11    1    1    2    0    0 -0.56388147390E+02  0.40984394579E+01  0.11382278668E+02  0.57671280892E+02  0.00000000000E+00 0. -1.
</event>
<event>
 7    1  0.2380582E-009  0.1114878E+03  0.7561462E-02  0.1257839E+00
         -1   -1    0    0    0  501 -0.00000000000E+00  0.00000000000E+00  0.13661735980E+03  0.13661735980E+03  0.00000000000E+00 0.  1.
          1   -1    0    0  501    0  0.00000000000E+00 -0.00000000000E+00 -0.12909733469E+03  0.12909733469E+03  0.00000000000E+00 0. -1.
         25    2    1    2    0    0 -0.76274919302E+02  0.56582912866E+01 -0.14318511886E+02  0.14732248642E+03  0.12509602571E+03 0.  0.
          5    1    3    3  502    0 -0.10918692197E+03 -0.53715643965E+01 -0.21847746243E+02  0.11155910563E+03  0.41800000000E+01 0.  1.
         -5    1    3    3    0  502  0.32912002666E+02  0.11029855683E+02  0.75292343572E+01  0.35763380795E+02  0.41800000000E+01 0.  1.
        -11    1    1    2    0    0  0.18163108117E+02 -0.92681543470E+01 -0.32750751222E+02  0.38579902632E+02  0.00000000000E+00 0. -1.
         11    1    1    2    0    0  0.58111811185E+02  0.36098630604E+01  0.54589288224E+02  0.79812305438E+02  0.00000000000E+00 0.  1.
</event>
<event>
 7    1  0.3229617E-009  0.7574383E+02  0.7561462E-02  0.1341583E+00
         -2   -1    0    0    0  501 -0.00000000000E+00  0.00000000000E+00  0.65025491726E+02  0.65025491726E+02  0.00000000000E+00 0.  1.
          2   -1    0    0  501    0  0.00000000000E+00 -0.00000000000E+00 -0.31325501020E+03  0.31325501020E+03  0.00000000000E+00 0. -1.
         25    2    1    2    0    0 -0.59904490881E+02 -0.31128061638E+02 -0.21893538652E+03  0.26103576979E+03  0.12509782328E+03 0.  0.
          5    1    3    3  502    0 -0.19143664336E+02 -0.34106525757E+01 -0.20978742964E+03  0.21072814352E+03  0.41800000000E+01 0.  1.
         -5    1    3    3    0  502 -0.40760826545E+02 -0.27717409062E+02 -0.91479568739E+01  0.50307626268E+02  0.41800000000E+01 0.  1.
        -11    1    1    2    0    0  0.41910805061E+01  0.25826517039E+02  0.27187258919E+02  0.37732230066E+02  0.00000000000E+00 0.  1.
         11    1    1    2    0    0  0.55713410375E+02  0.53015445988E+01 -0.56481390879E+02  0.79512502076E+02  0.00000000000E+00 0. -1.
</event>
<event>
 7    1  0.2380582E-009  0.1131804E+03  0.7561462E-02  0.1254791E+00
         -1   -1    0    0    0  501 -0.00000000000E+00  0.00000000000E+00  0.32538348660E+03  0.32538348660E+03  0.00000000000E+00 0.  1.
          1   -1    0    0  501    0  0.00000000000E+00 -0.00000000000E+00 -0.55125758010E+02  0.55125758010E+02  0.00000000000E+00 0. -1.
         25    2    1    2    0    0 -0.43660757289E+02 -0.30798848069E+02  0.67141738331E+02  0.15169095327E+03  0.12508917422E+03 0.  0.
          5    1    3    3  502    0  0.36704877333E+02 -0.18614745393E+02  0.55877855177E+02  0.69523836670E+02  0.41800000000E+01 0.  1.
         -5    1    3    3    0  502 -0.80365634622E+02 -0.12184102675E+02  0.11263883153E+02  0.82167116597E+02  0.41800000000E+01 0.  1.
        -11    1    1    2    0    0  0.50168960562E+02 -0.18801933540E+02  0.12574822230E+03  0.13668596387E+03  0.00000000000E+00 0.  1.
         11    1    1    2    0    0 -0.65082032727E+01  0.49600781608E+02  0.77367767965E+02  0.92132327474E+02  0.00000000000E+00 0. -1.
</event>
<event>
 7    1  0.2380582E-009  0.1401813E+03  0.7561462E-02  0.1213085E+00
          1   -1    0    0  501    0  0.00000000000E+00  0.00000000000E+00  0.41760409824E+03  0.41760409824E+03  0.00000000000E+00 0. -1.
         -1   -1    0    0    0  501 -0.00000000000E+00 -0.00000000000E+00 -0.82019779430E+02  0.82019779430E+02  0.00000000000E+00 0.  1.
         25    2    1    2    0    0 -0.43459089530E+02  0.77655051771E+02  0.33867318126E+03  0.37183964428E+03  0.12508476256E+03 0.  0.
          5    1    3    3  502    0 -0.10547436750E+02  0.10764835564E+03  0.22496321539E+03  0.24965043075E+03  0.41800000000E+01 0. -1.
         -5    1    3    3    0  502 -0.32911652780E+02 -0.29993303865E+02  0.11370996587E+03  0.12218921353E+03  0.41800000000E+01 0. -1.
        -11    1    1    2    0    0  0.11830501287E+02 -0.91933586941E+02 -0.64729049272E+01  0.92917402389E+02  0.00000000000E+00 0.  1.
         11    1    1    2    0    0  0.31628588243E+02  0.14278535170E+02  0.33840424809E+01  0.34866831005E+02  0.00000000000E+00 0. -1.
</event>
<event>
 7    1  0.2380582E-009  0.1015156E+03  0.7561462E-02  0.1277141E+00
          1   -1    0    0  501    0  0.00000000000E+00  0.00000000000E+00  0.23982421881E+03  0.23982421881E+03  0.00000000000E+00 0. -1.
         -1   -1    0    0    0  501 -0.00000000000E+00 -0.00000000000E+00 -0.56286004021E+02  0.56286004021E+02  0.00000000000E+00 0.  1.
         25    2    1    2    0    0  0.18238284570E+02  0.34082505581E+02  0.11518344411E+03  0.17438197599E+03  0.12509034951E+03 0.  0.
          5    1    3    3  502    0 -0.37229015642E+02  0.57044908511E+02  0.78006791552E+02  0.10364677091E+03  0.41800000000E+01 0.  1.
         -5    1    3    3    0  502  0.55467300212E+02 -0.22962402930E+02  0.37176652561E+02  0.70735205073E+02  0.41800000000E+01 0.  1.
        -11    1    1    2    0    0  0.93572268574E+01  0.15359410661E+02 -0.13295738626E+02  0.22366176605E+02  0.00000000000E+00 0.  1.
         11    1    1    2    0    0 -0.27595511427E+02 -0.49441916242E+02  0.81650509299E+02  0.99362070236E+02  0.00000000000E+00 0. -1.
</event>
<event>
 7    1  0.2380582E-009  0.1250850E+03  0.7561462E-02  0.1234936E+00
          1   -1    0    0  501    0  0.00000000000E+00  0.00000000000E+00  0.12686015309E+03  0.12686015309E+03  0.00000000000E+00 0. -1.
         -1   -1    0    0    0  501 -0.00000000000E+00 -0.00000000000E+00 -0.39606559264E+03  0.39606559264E+03  0.00000000000E+00 0.  1.
         25    2    1    2    0    0 -0.10616234181E+03  0.80592031439E+01 -0.33138728149E+03  0.36986595569E+03  0.12509157156E+03 0.  0.
          5    1    3    3  502    0 -0.42292057808E+02 -0.10375622146E+02 -0.14549671047E+02  0.46102462148E+02  0.41800000000E+01 0. -1.
         -5    1    3    3    0  502 -0.63870284001E+02  0.18434825289E+02 -0.31683761044E+03  0.32376349355E+03  0.41800000000E+01 0. -1.
        -11    1    1    2    0    0  0.10593571562E+03  0.23289370587E+02  0.49842762822E+02  0.11936947529E+03  0.00000000000E+00 0.  1.
         11    1    1    2    0    0  0.22662619241E+00 -0.31348573730E+02  0.12339079122E+02  0.33690314750E+02  0.00000000000E+00 0. -1.
</event>
<event>
 7    1  0.2380582E-009  0.1370958E+03  0.7561462E-02  0.1217291E+00
         -1   -1    0    0    0  501 -0.00000000000E+00  0.00000000000E+00  0.13737476924E+02  0.13737476924E+02  0.00000000000E+00 0.  1.
          1   -1    0    0  501    0  0.00000000000E+00 -0.00000000000E+00 -0.19802481241E+04  0.19802481241E+04  0.00000000000E+00 0. -1.
         25    2    1    2    0    0  0.50239695815E+02 -0.71729805567E+02 -0.15846359413E+04  0.15919762938E+04  0.12509301126E+03 0.  0.
          5    1    3    3  502    0 -0.11556634407E+02  0.30113605366E+02 -0.41948605430E+03  0.42074506197E+03  0.41800000000E+01 0. -1.
         -5    1    3    3    0  502  0.61796330222E+02 -0.10184341093E+03 -0.11651498870E+04  0.11712312318E+04  0.41800000000E+01 0. -1.
        -11    1    1    2    0    0 -0.51605264983E+02  0.90215296817E+02 -0.35033099769E+03  0.36542264721E+03  0.00000000000E+00 0.  1.
         11    1    1    2    0    0  0.13655691678E+01 -0.18485491250E+02 -0.31543708186E+02  0.36586660028E+02  0.00000000000E+00 0. -1.
</event>
<event>
 7    1  0.3104810E-009  0.2178029E+03  0.7561462E-02  0.1135532E+00
         -2   -1    0    0    0  501 -0.00000000000E+00  0.00000000000E+00  0.75764466290E+02  0.75764466290E+02  0.00000000000E+00 0.  1.
          2   -1    0    0  501    0  0.00000000000E+00 -0.00000000000E+00 -0.74954441195E+03  0.74954441195E+03  0.00000000000E+00 0. -1.
         25    2    1    2    0    0  0.16602747057E+03 -0.11296532851E+03 -0.23119028478E+03  0.33079138788E+03  0.12509079938E+03 0.  0.
          5    1    3    3  502    0  0.76630345318E+02 -0.41766325258E+01 -0.24513845828E+02  0.80672517749E+02  0.41800000000E+01 0. -1.
         -5    1    3    3    0  502  0.89397125256E+02 -0.10878869598E+03 -0.20667643895E+03  0.25011887013E+03  0.41800000000E+01 0. -1.
        -11    1    1    2    0    0 -0.88670656730E+02  0.10887330198E+03 -0.24659106074E+03  0.28376580570E+03  0.00000000000E+00 0.  1.
         11    1    1    2    0    0 -0.77356813844E+02  0.40920265257E+01 -0.19599860015E+03  0.21075168466E+03  0.00000000000E+00 0. -1.
</event>
<event>
 7    1  0.2380582E-009  0.9714304E+02  0.7561462E-02  0.1286421E+00
          1   -1    0    0  501    0  0.00000000000E+00  0.00000000000E+00  0.89168449977E+03  0.89168449977E+03  0.00000000000E+00 0. -1.
         -1   -1    0    0    0  501 -0.00000000000E+00 -0.00000000000E+00 -0.32580653160E+02  0.32580653160E+02  0.00000000000E+00 0.  1.
         25    2    1    2    0    0  0.51642316097E+02  0.48651501699E+02  0.75315565684E+03  0.76676376980E+03  0.12509731342E+03 0.  0.
          5    1    3    3  502    0 -0.18494569280E+02  0.14947995742E+02  0.26143598376E+02  0.35587242175E+02  0.41800000000E+01 0. -1.
         -5    1    3    3    0  502  0.70136885377E+02  0.33703505958E+02  0.72701205846E+03  0.73117652763E+03  0.41800000000E+01 0. -1.
        -11    1    1    2    0    0 -0.61168970730E+02 -0.23863550721E+02  0.21676545508E+02  0.69144664713E+02  0.00000000000E+00 0.  1.
         11    1    1    2    0    0  0.95266546329E+01 -0.24787950979E+02  0.84271644264E+02  0.88356718415E+02  0.00000000000E+00 0. -1.
</event>
<event>
 7    1  0.2380582E-009  0.1369516E+03  0.7561462E-02  0.1217491E+00
          2   -1    0    0  501    0  0.00000000000E+00  0.00000000000E+00  0.98491246274E+03  0.98491246274E+03  0.00000000000E+00 0. -1.
         -2   -1    0    0    0  501 -0.00000000000E+00 -0.00000000000E+00 -0.42459701511E+02  0.42459701511E+02  0.00000000000E+00 0.  1.
         25    2    1    2    0    0 -0.75399300262E+02  0.71824123735E+02  0.82998060151E+03  0.84578896579E+03  0.12508963396E+03 0.  0.
          5    1    3    3  502    0 -0.90418126490E+02  0.95632254985E+02  0.61539854395E+03  0.62932805920E+03  0.41800000000E+01 0.  1.
         -5    1    3    3    0  502  0.15018826228E+02 -0.23808131250E+02  0.21458205756E+03  0.21646090659E+03  0.41800000000E+01 0.  1.
        -11    1    1    2    0    0  0.76973101996E+02 -0.49775811595E+02  0.12588881989E+03  0.15572567170E+03  0.00000000000E+00 0. -1.
         11    1    1    2    0    0 -0.15738017340E+01 -0.22048312141E+02 -0.13416660180E+02  0.25857526768E+02  0.00000000000E+00 0.  1.
</event>
<event>
 7    1  0.2380582E-009  0.1363509E+03  0.7561462E-02  0.1218325E+00
          3   -1    0    0  501    0  0.00000000000E+00  0.00000000000E+00  0.12940209416E+03  0.12940209416E+03  0.00000000000E+00 0. -1.
         -3   -1    0    0    0  501 -0.00000000000E+00 -0.00000000000E+00 -0.17022207479E+03  0.17022207479E+03  0.00000000000E+00 0.  1.
         25    2    1    2    0    0 -0.75538204797E+02  0.64574164914E+02 -0.34529642134E+02  0.16344294902E+03  0.12508180619E+03 0.  0.
          5    1    3    3  502    0  0.12592364985E+01 -0.33532542105E+02  0.95972071865E+00  0.33829137152E+02  0.41800000000E+01 0. -1.
         -5    1    3    3    0  502 -0.76797441295E+02  0.98106707020E+02 -0.35489362852E+02  0.12961381187E+03  0.41800000000E+01 0. -1.
        -11    1    1    2    0    0  0.18777980823E+01 -0.34679174127E+02 -0.37195987984E+02  0.50889220527E+02  0.00000000000E+00 0.  1.
         11    1    1    2    0    0  0.73660406715E+02 -0.29894990788E+02  0.30905649495E+02  0.85291999404E+02  0.00000000000E+00 0. -1.
</event>
<event>
 7    1  0.2380582E-009  0.2444438E+03  0.7561462E-02  0.1116867E+00
         -1   -1    0    0    0  501 -0.00000000000E+00  0.00000000000E+00  0.38517225152E+02  0.38517225152E+02  0.00000000000E+00 0.  1.
          1   -1    0    0  501    0  0.00000000000E+00 -0.00000000000E+00 -0.15710056592E+04  0.15710056592E+04  0.00000000000E+00 0. -1.
         25    2    1    2    0    0 -0.20726639910E+03 -0.70418365835E+02 -0.72578397303E+03  0.76833027765E+03  0.12510369143E+03 0.  0.
          5    1    3    3  502    0 -0.12181509220E+03 -0.10236490586E+03 -0.50198993733E+03  0.52662022390E+03  0.41800000000E+01 0. -1.
         -5    1    3    3    0  502 -0.85451306906E+02  0.31946540024E+02 -0.22379403570E+03  0.24171005376E+03  0.41800000000E+01 0. -1.
        -11    1    1    2    0    0  0.17258138776E+03  0.15283323096E+02 -0.58473264288E+03  0.60986078658E+03  0.00000000000E+00 0. -1.
         11    1    1    2    0    0  0.34685011342E+02  0.55135042739E+02 -0.22197181817E+03  0.23133182015E+03  0.00000000000E+00 0.  1.
</event>
<event>
 7    1  0.2380582E-009  0.1096599E+03  0.7561462E-02  0.1261201E+00
          2   -1    0    0  501    0  0.00000000000E+00  0.00000000000E+00  0.36013148794E+03  0.36013148794E+03  0.00000000000E+00 0. -1.
         -2   -1    0    0    0  501 -0.00000000000E+00 -0.00000000000E+00 -0.38715886505E+02  0.38715886505E+02  0.00000000000E+00 0.  1.
         25    2    1    2    0    0 -0.21693201019E+02 -0.23354054705E+02  0.12273693942E+03  0.17812363929E+03  0.12509063808E+03 0.  0.
          5    1    3    3  502    0 -0.33169867318E+02  0.44903176630E+02  0.76438679084E+02  0.94746395338E+02  0.41800000000E+01 0.  1.
         -5    1    3    3    0  502  0.11476666298E+02 -0.68257231335E+02  0.46298260333E+02  0.83377243950E+02  0.41800000000E+01 0.  1.
        -11    1    1    2    0    0 -0.12076007667E+02  0.49712203608E+02  0.84574889970E+02  0.98843538798E+02  0.00000000000E+00 0.  1.
         11    1    1    2    0    0  0.33769208687E+02 -0.26358148903E+02  0.11410377204E+03  0.12188019635E+03  0.00000000000E+00 0. -1.
</event>
<event>
 7    1  0.2380582E-009  0.1642822E+03  0.7561462E-02  0.1183945E+00
          1   -1    0    0  501    0  0.00000000000E+00  0.00000000000E+00  0.58613318305E+03  0.58613318305E+03  0.00000000000E+00 0. -1.
         -1   -1    0    0    0  501 -0.00000000000E+00 -0.00000000000E+00 -0.55670848113E+02  0.55670848113E+02  0.00000000000E+00 0.  1.
         25    2    1    2    0    0 -0.13066062180E+03  0.59997557247E+02  0.23881901099E+03  0.30554203928E+03  0.12509801275E+03 0.  0.
          5    1    3    3  502    0 -0.13728966372E+03  0.15875468829E+02  0.13867247172E+03  0.19582647698E+03  0.41800000000E+01 0. -1.
         -5    1    3    3    0  502  0.66290419181E+01  0.44122088418E+02  0.10014653927E+03  0.10971556230E+03  0.41800000000E+01 0. -1.
        -11    1    1    2    0    0  0.31746375103E+02 -0.44980397087E+01  0.15687391623E+03  0.16011711429E+03  0.00000000000E+00 0. -1.
         11    1    1    2    0    0  0.98914246697E+02 -0.55499517538E+02  0.13476940771E+03  0.17614487759E+03  0.00000000000E+00 0.  1.
</event>
<event>
 7    1  0.2380582E-009  0.1044119E+03  0.7561462E-02  0.1271283E+00
         -3   -1    0    0    0  501 -0.00000000000E+00  0.00000000000E+00  0.66857991843E+03  0.66857991843E+03  0.00000000000E+00 0.  1.
          3   -1    0    0  501    0  0.00000000000E+00 -0.00000000000E+00 -0.31059352954E+02  0.31059352954E+02  0.00000000000E+00 0. -1.
         25    2    1    2    0    0  0.68934680860E+02  0.39137462233E+02  0.22083807468E+03  0.26589627199E+03  0.12509053142E+03 0.  0.
          5    1    3    3  502    0  0.11789280522E+02  0.33848565506E+02  0.20222453846E+03  0.20541895939E+03  0.41800000000E+01 0. -1.
         -5    1    3    3    0  502  0.57145400338E+02  0.52888967267E+01  0.18613536227E+02  0.60477312599E+02  0.41800000000E+01 0. -1.
        -11    1    1    2    0    0 -0.51902619387E+02 -0.65647340788E+02  0.23754256573E+03  0.25185298447E+03  0.00000000000E+00 0. -1.
         11    1    1    2    0    0 -0.17032061473E+02  0.26509878556E+02  0.17913992506E+03  0.18189001492E+03  0.00000000000E+00 0.  1.
</event>
<event>
 7    1  0.2380582E-009  0.7349062E+02  0.7561462E-02  0.1348610E+00
         -1   -1    0    0    0  501 -0.00000000000E+00  0.00000000000E+00  0.65800676418E+02  0.65800676418E+02  0.00000000000E+00 0.  1.
          1   -1    0    0  501    0  0.00000000000E+00 -0.00000000000E+00 -0.23463926950E+03  0.23463926950E+03  0.00000000000E+00 0. -1.
         25    2    1    2    0    0  0.46221076963E+01 -0.39884450375E+02 -0.38694592448E+02  0.13695468542E+03  0.12508869298E+03 0.  0.
          5    1    3    3  502    0  0.50246792465E+02 -0.82168308440E+01 -0.58662676897E+02  0.77788421521E+02  0.41800000000E+01 0. -1.
         -5    1    3    3    0  502 -0.45624684768E+02 -0.31667619532E+02  0.19968084449E+02  0.59166263897E+02  0.41800000000E+01 0. -1.
        -11    1    1    2    0    0 -0.80567110801E+00  0.15367528154E+02  0.11798086052E+02  0.19390844798E+02  0.00000000000E+00 0.  1.
         11    1    1    2    0    0 -0.38164365883E+01  0.24516922221E+02 -0.14194208668E+03  0.14409441570E+03  0.00000000000E+00 0. -1.
</event>
<event>
 7    1  0.2380582E-009  0.1098689E+03  0.7561462E-02  0.1260813E+00
          1   -1    0    0  501    0  0.00000000000E+00  0.00000000000E+00  0.32988369118E+03  0.32988369118E+03  0.00000000000E+00 0. -1.
         -1   -1    0    0    0  501 -0.00000000000E+00 -0.00000000000E+00 -0.38130026399E+02  0.38130026399E+02  0.00000000000E+00 0.  1.
         25    2    1    2    0    0 -0.19493376158E+02 -0.14682621116E+02  0.19053793620E+03  0.22922561134E+03  0.12507639539E+03 0.  0.
          5    1    3    3  502    0 -0.55998905018E+02 -0.50894608322E+02  0.11678234451E+03  0.13921827074E+03  0.41800000000E+01 0.  1.
         -5    1    3    3    0  502  0.36505528860E+02  0.36211987206E+02  0.73755591694E+02  0.90007340595E+02  0.41800000000E+01 0.  1.
        -11    1    1    2    0    0 -0.10111974779E+02  0.47267157264E+02  0.36736444822E+02  0.60712458095E+02  0.00000000000E+00 0.  1.
         11    1    1    2    0    0  0.29605350937E+02 -0.32584536148E+02  0.64479283755E+02  0.78075648147E+02  0.00000000000E+00 0. -1.
</event>
<event>
 7    1  0.2380582E-009  0.2481878E+03  0.7561462E-02  0.1114455E+00
          1   -1    0    0  501    0  0.00000000000E+00  0.00000000000E+00  0.34122461745E+03  0.34122461745E+03  0.00000000000E+00 0. -1.
         -1   -1    0    0    0  501 -0.00000000000E+00 -0.00000000000E+00 -0.24694830070E+03  0.24694830070E+03  0.00000000000E+00 0.  1.
         25    2    1    2    0    0 -0.23200632844E+03  0.15003853780E+02  0.17209571507E+03  0.31514394669E+03  0.12508684953E+03 0.  0.
          5    1    3    3  502    0 -0.44312442962E+02  0.17723228104E+02  0.10559572710E+03  0.11595531638E+03  0.41800000000E+01 0. -1.
         -5    1    3    3    0  502 -0.18769388548E+03 -0.27193743240E+01  0.66499987970E+02  0.19918863031E+03  0.41800000000E+01 0. -1.
        -11    1    1    2    0    0  0.21669159931E+03 -0.50106664080E+02 -0.57720621402E+02  0.22977727723E+03  0.00000000000E+00 0.  1.
         11    1    1    2    0    0  0.15314729137E+02  0.35102810300E+02 -0.20098776922E+02  0.43251694224E+02  0.00000000000E+00 0. -1.
</event>
<event>
 7    1  0.2380582E-009  0.8178737E+02  0.7561462E-02  0.1324054E+00
         -2   -1    0    0    0  501 -0.00000000000E+00  0.00000000000E+00  0.57564601755E+02  0.57564601755E+02  0.00000000000E+00 0.  1.
          2   -1    0    0  501    0  0.00000000000E+00 -0.00000000000E+00 -0.26152471755E+03  0.26152471755E+03  0.00000000000E+00 0. -1.
         25    2    1    2    0    0 -0.37321529344E+02  0.41284265846E+02 -0.12564869648E+03  0.18582895058E+03  0.12509003471E+03 0.  0.
          5    1    3    3  502    0 -0.47325545879E+02  0.65693981524E+02 -0.29878027485E+02  0.86403561429E+02  0.41800000000E+01 0.  1.
         -5    1    3    3    0  502  0.10004016535E+02 -0.24409715679E+02 -0.95770669000E+02  0.99425389147E+02  0.41800000000E+01 0.  1.
        -11    1    1    2    0    0  0.24746960411E+02 -0.24534468728E+02  0.14772333835E+02  0.37849359998E+02  0.00000000000E+00 0.  1.
         11    1    1    2    0    0  0.12574568933E+02 -0.16749797118E+02 -0.93083753144E+02  0.95411008729E+02  0.00000000000E+00 0. -1.
</event>
<event>
 7    1  0.2380582E-009  0.1297741E+03  0.7561462E-02  0.1227791E+00
         -1   -1    0    0    0  501 -0.00000000000E+00  0.00000000000E+00  0.23256988297E+03  0.23256988297E+03  0.00000000000E+00 0. -1.
          1   -1    0    0  501    0  0.00000000000E+00 -0.00000000000E+00 -0.92283531089E+02  0.92283531089E+02  0.00000000000E+00 0.  1.
         25    2    1    2    0    0 -0.35561379215E+02 -0.81678797933E+02  0.31411146306E+02  0.15675346155E+03  0.12509576281E+03 0.  0.
          5    1    3    3  502    0 -0.39445930801E+01  0.33499622784E+02  0.49594297754E+01  0.34348986666E+02  0.41800000000E+01 0.  1.
         -5    1    3    3    0  502 -0.31616786135E+02 -0.11517842072E+03  0.26451716530E+02  0.12240447489E+03  0.41800000000E+01 0.  1.
        -11    1    1    2    0    0  0.47282494083E+02  0.37524292192E+02  0.12784009738E+02  0.61702006906E+02  0.00000000000E+00 0.  1.
         11    1    1    2    0    0 -0.11721114868E+02  0.44154505741E+02  0.96091195838E+02  0.10639794560E+03  0.00000000000E+00 0. -1.
</event>
<event>
 7    1  0.2380582E-009  0.1136179E+03  0.7561462E-02  0.1254013E+00
          2   -1    0    0  501    0  0.00000000000E+00  0.00000000000E+00  0.14133731680E+04  0.14133731680E+04  0.00000000000E+00 0.  1.
         -2   -1    0    0    0  501 -0.00000000000E+00 -0.00000000000E+00 -0.22631393739E+02  0.22631393739E+02  0.00000000000E+00 0. -1.
         25    2    1    2    0    0 -0.48721048296E+01  0.97671808745E+02  0.11545335792E+04  0.11654008476E+04  0.12509128794E+03 0.  0.
          5    1    3    3  502    0  0.21576228555E+02  0.70775394811E+02  0.10720074333E+04  0.10745660052E+04  0.41800000000E+01 0.  1.
         -5    1    3    3    0  502 -0.26448333385E+02  0.26896413933E+02  0.82526145982E+02  0.90834842389E+02  0.41800000000E+01 0.  1.
        -11    1    1    2    0    0  0.81588997267E+01  0.68178947322E+01 -0.16741449668E+01  0.10763553999E+02  0.00000000000E+00 0. -1.
         11    1    1    2    0    0 -0.32867948971E+01 -0.10448970348E+03  0.23788233997E+03  0.25984016014E+03  0.00000000000E+00 0.  1.
</event>
<event>
 7    1  0.2380582E-009  0.1429740E+03  0.7561462E-02  0.1209382E+00
         -2   -1    0    0    0  501 -0.00000000000E+00  0.00000000000E+00  0.12596662704E+03  0.12596662704E+03  0.00000000000E+00 0.  1.
          2   -1    0    0  501    0  0.00000000000E+00 -0.00000000000E+00 -0.14163611355E+04  0.14163611355E+04  0.00000000000E+00 0. -1.
         25    2    1    2    0    0 -0.39638266368E+02 -0.96290395186E+02 -0.13709238188E+04  0.13805514692E+04  0.12508880788E+03 0.  0.
          5    1    3    3  502    0 -0.14804185235E+02  0.30138106599E+02 -0.27918368494E+03  0.28122672651E+03  0.41800000000E+01 0. -1.
         -5    1    3    3    0  502 -0.24834081133E+02 -0.12642850179E+03 -0.10917401339E+04  0.10993247427E+04  0.41800000000E+01 0. -1.
        -11    1    1    2    0    0  0.38333107788E+02  0.13865803340E+02  0.66727947720E+02  0.78194032137E+02  0.00000000000E+00 0.  1.
         11    1    1    2    0    0  0.13051585798E+01  0.82424591846E+02  0.13801362594E+02  0.83582261212E+02  0.00000000000E+00 0. -1.
</event>
<event>
 7    1  0.2380582E-009  0.1111066E+03  0.7561462E-02  0.1258534E+00
         -2   -1    0    0    0  501 -0.00000000000E+00  0.00000000000E+00  0.16239695813E+03  0.16239695813E+03  0.00000000000E+00 0.  1.
          2   -1    0    0  501    0  0.00000000000E+00 -0.00000000000E+00 -0.82943325471E+02  0.82943325471E+02  0.00000000000E+00 0. -1.
         25    2    1    2    0    0 -0.48438156260E+02  0.22198605011E+02  0.52918568658E+02  0.14589989634E+03  0.12508945518E+03 0.  0.
          5    1    3    3  502    0 -0.83833792973E+02  0.42687485552E+02  0.30000466388E+02  0.98832315821E+02  0.41800000000E+01 0. -1.
         -5    1    3    3    0  502  0.35395636713E+02 -0.20488880541E+02  0.22918102270E+02  0.47067580518E+02  0.41800000000E+01 0. -1.
        -11    1    1    2    0    0  0.31896169844E+02 -0.47192839963E+02  0.36736041138E+02  0.67779543470E+02  0.00000000000E+00 0.  1.
         11    1    1    2    0    0  0.16541986416E+02  0.24994234951E+02 -0.10200977134E+02  0.31660843796E+02  0.00000000000E+00 0. -1.
</event>
<event>
 7    1  0.2380582E-009  0.1039171E+03  0.7561462E-02  0.1272268E+00
          1   -1    0    0  501    0  0.00000000000E+00  0.00000000000E+00  0.10656862707E+03  0.10656862707E+03  0.00000000000E+00 0. -1.
         -1   -1    0    0    0  501 -0.00000000000E+00 -0.00000000000E+00 -0.14580344110E+03  0.14580344110E+03  0.00000000000E+00 0.  1.
         25    2    1    2    0    0 -0.11067909540E+02  0.57852432868E+02 -0.40746520592E+02  0.14414211480E+03  0.12508903912E+03 0.  0.
          5    1    3    3  502    0 -0.66755215534E+01 -0.20642648957E+02 -0.59277957394E+02  0.63261601124E+02  0.41800000000E+01 0. -1.
         -5    1    3    3    0  502 -0.43923879868E+01  0.78495081825E+02  0.18531436802E+02  0.80880513678E+02  0.41800000000E+01 0. -1.
        -11    1    1    2    0    0 -0.24679812120E+02 -0.65899049599E+02 -0.66738362595E+01  0.70684637332E+02  0.00000000000E+00 0.  1.
         11    1    1    2    0    0  0.35747721660E+02  0.80466167309E+01  0.81855428206E+01  0.37545316032E+02  0.00000000000E+00 0. -1.
</event>
<event>
 7    1  0.2380582E-009  0.1473320E+03  0.7561462E-02  0.1203790E+00
         -4   -1    0    0    0  501 -0.00000000000E+00  0.00000000000E+00  0.65608648184E+03  0.65608648184E+03  0.00000000000E+00 0. -1.
          4   -1    0    0  501    0  0.00000000000E+00 -0.00000000000E+00 -0.36930919287E+02  0.36930919287E+02  0.00000000000E+00 0.  1.
         25    2    1    2    0    0 -0.10343479731E+03  0.30081379975E+02  0.38614785589E+03  0.41995437692E+03  0.12509142805E+03 0.  0.
          5    1    3    3  502    0 -0.86300260805E+02 -0.28646906402E+02  0.14558937558E+03  0.17170357871E+03  0.41800000000E+01 0. -1.
         -5    1    3    3    0  502 -0.17134536507E+02  0.58728286377E+02  0.24055848031E+03  0.24825079821E+03  0.41800000000E+01 0. -1.
        -11    1    1    2    0    0  0.85790888025E+02 -0.61998563967E+02  0.16985535107E+03  0.20013679994E+03  0.00000000000E+00 0. -1.
         11    1    1    2    0    0  0.17643909287E+02  0.31917183992E+02  0.63152355595E+02  0.72926224269E+02  0.00000000000E+00 0.  1.
</event>
<event>
 7    1  0.2380582E-009  0.1154178E+03  0.7561462E-02  0.1250854E+00
          2   -1    0    0  501    0  0.00000000000E+00  0.00000000000E+00  0.24833119559E+03  0.24833119559E+03  0.00000000000E+00 0. -1.
         -2   -1    0    0    0  501 -0.00000000000E+00 -0.00000000000E+00 -0.59358276120E+02  0.59358276120E+02  0.00000000000E+00 0.  1.
         25    2    1    2    0    0 -0.45278026319E+02 -0.10619835921E+02  0.14485032743E+03  0.19695586248E+03  0.12508842403E+03 0.  0.
          5    1    3    3  502    0 -0.81649641243E+02 -0.34352961142E+02  0.84559067475E+02  0.12253366128E+03  0.41800000000E+01 0.  1.
         -5    1    3    3    0  502  0.36371614924E+02  0.23733125221E+02  0.60291259951E+02  0.74422201200E+02  0.41800000000E+01 0.  1.
        -11    1    1    2    0    0  0.36271997729E+02 -0.35963322120E+02  0.93923816844E+01  0.51934913025E+02  0.00000000000E+00 0.  1.
         11    1    1    2    0    0  0.90060285903E+01  0.46583158041E+02  0.34730210361E+02  0.58798696208E+02  0.00000000000E+00 0. -1.
</event>
<event>
 7    1  0.2380582E-009  0.1392632E+03  0.7561462E-02  0.1214324E+00
         -1   -1    0    0    0  501 -0.00000000000E+00  0.00000000000E+00  0.64509867458E+02  0.64509867458E+02  0.00000000000E+00 0.  1.
          1   -1    0    0  501    0  0.00000000000E+00 -0.00000000000E+00 -0.39812129252E+03  0.39812129252E+03  0.00000000000E+00 0. -1.
         25    2    1    2    0    0 -0.10059236947E+02  0.11181646357E+03 -0.19696713167E+03  0.25893655155E+03  0.12509187422E+03 0.  0.
          5    1    3    3  502    0 -0.53525200224E+02  0.50764117178E+02 -0.15786606837E+03  0.17430178024E+03  0.41800000000E+01 0.  1.
         -5    1    3    3    0  502  0.43465963277E+02  0.61052346396E+02 -0.39101063308E+02  0.84634771317E+02  0.41800000000E+01 0.  1.
        -11    1    1    2    0    0  0.30057295875E+02 -0.21202386467E+02  0.20281094586E+01  0.36838776516E+02  0.00000000000E+00 0.  1.
         11    1    1    2    0    0 -0.19998058928E+02 -0.90614077107E+02 -0.13867240284E+03  0.16685583191E+03  0.00000000000E+00 0. -1.
</event>
<event>
 7    1  0.2380582E-009  0.1244486E+03  0.7561462E-02  0.1235933E+00
          1   -1    0    0  501    0  0.00000000000E+00  0.00000000000E+00  0.10584425520E+03  0.10584425520E+03  0.00000000000E+00 0. -1.
         -1   -1    0    0    0  501 -0.00000000000E+00 -0.00000000000E+00 -0.16728967579E+03  0.16728967579E+03  0.00000000000E+00 0.  1.
         25    2    1    2    0    0 -0.30336304320E+01  0.69404718944E+02 -0.62458208262E+02  0.15612556200E+03  0.12509174795E+03 0.  0.
          5    1    3    3  502    0 -0.47646469342E+02  0.78904282307E+02 -0.21639104312E+02  0.94772332685E+02  0.41800000000E+01 0.  1.
         -5    1    3    3    0  502  0.44612838910E+02 -0.94995633630E+01 -0.40819103950E+02  0.61353229312E+02  0.41800000000E+01 0.  1.
        -11    1    1    2    0    0 -0.35534130372E+02 -0.51809026642E+01 -0.17342122773E+02  0.39878131802E+02  0.00000000000E+00 0.  1.
         11    1    1    2    0    0  0.38567760804E+02 -0.64223816279E+02  0.18354910442E+02  0.77130237185E+02  0.00000000000E+00 0. -1.
</event>
<event>
 7    1  0.2435059E-009  0.1328300E+03  0.7561462E-02  0.1223316E+00
         -1   -1    0    0    0  501 -0.00000000000E+00  0.00000000000E+00  0.81629018215E+02  0.81629018215E+02  0.00000000000E+00 0.  1.
          1   -1    0    0  501    0  0.00000000000E+00 -0.00000000000E+00 -0.40145909619E+03  0.40145909619E+03  0.00000000000E+00 0. -1.
         25    2    1    2    0    0 -0.32281589047E+02  0.98147161854E+02 -0.34165403285E+02  0.16580566713E+03  0.12509707470E+03 0.  0.
          5    1    3    3  502    0 -0.68209268521E+02  0.14950409601E+02 -0.34896749255E+01  0.70040483226E+02  0.41800000000E+01 0. -1.
         -5    1    3    3    0  502  0.35927679474E+02  0.83196752253E+02 -0.30675728359E+02  0.95765183904E+02  0.41800000000E+01 0. -1.
        -11    1    1    2    0    0  0.30706574069E+00 -0.26815205539E+02 -0.67957866680E+01  0.27664639052E+02  0.00000000000E+00 0.  1.
         11    1    1    2    0    0  0.31974523306E+02 -0.71331956315E+02 -0.27886888802E+03  0.28961780822E+03  0.00000000000E+00 0. -1.
</event>
<event>
 7    1  0.2380582E-009  0.1477551E+03  0.7561462E-02  0.1203259E+00
         -2   -1    0    0    0  501 -0.00000000000E+00  0.00000000000E+00  0.41178942468E+03  0.41178942468E+03  0.00000000000E+00 0.  1.
          2   -1    0    0  501    0  0.00000000000E+00 -0.00000000000E+00 -0.56801443766E+02  0.56801443766E+02  0.00000000000E+00 0. -1.
         25    2    1    2    0    0 -0.10829703268E+03  0.75105887875E+01  0.20639739726E+03  0.26463553885E+03  0.12508967420E+03 0.  0.
          5    1    3    3  502    0  0.21612101435E+02 -0.11874455626E+02  0.73911366414E+02  0.78028508316E+02  0.41800000000E+01 0.  1.
         -5    1    3    3    0  502 -0.12990913411E+03  0.19385044413E+02  0.13248603085E+03  0.18660703053E+03  0.41800000000E+01 0.  1.
        -11    1    1    2    0    0  0.73268394218E+02 -0.46416369185E+02  0.10182881044E+03  0.13376039606E+03  0.00000000000E+00 0.  1.
         11    1    1    2    0    0  0.35028638458E+02  0.38905780397E+02  0.46761773207E+02  0.70194933535E+02  0.00000000000E+00 0. -1.
</event>
<event>
 7    1  0.2380582E-009  0.1121244E+03  0.7561462E-02  0.1256686E+00
          1   -1    0    0  501    0  0.00000000000E+00  0.00000000000E+00  0.33041901860E+02  0.33041901860E+02  0.00000000000E+00 0. -1.
         -1   -1    0    0    0  501 -0.00000000000E+00 -0.00000000000E+00 -0.40225788943E+03  0.40225788943E+03  0.00000000000E+00 0.  1.
         25    2    1    2    0    0  0.20213892136E+01  0.25319841239E+02 -0.16952284972E+03  0.21220377799E+03  0.12508903406E+03 0.  0.
          5    1    3    3  502    0 -0.42166129616E+02 -0.32730344172E+02 -0.85161845385E+02  0.10059458348E+03  0.41800000000E+01 0. -1.
         -5    1    3    3    0  502  0.44187518830E+02  0.58050185410E+02 -0.84361004333E+02  0.11160919451E+03  0.41800000000E+01 0. -1.
        -11    1    1    2    0    0 -0.47444292733E+02 -0.44736938370E+01 -0.76217529733E+02  0.89889302412E+02  0.00000000000E+00 0.  1.
         11    1    1    2    0    0  0.45422903520E+02 -0.20846147402E+02 -0.12347560812E+03  0.13320671089E+03  0.00000000000E+00 0. -1.
</event>
<event>
 7    1  0.3054353E-009  0.1150459E+03  0.7561462E-02  0.1251501E+00
         -1   -1    0    0    0  501 -0.00000000000E+00  0.00000000000E+00  0.71302666512E+02  0.71302666512E+02  0.00000000000E+00 0.  1.
          1   -1    0    0  501    0  0.00000000000E+00 -0.00000000000E+00 -0.30337254001E+03  0.30337254001E+03  0.00000000000E+00 0. -1.
         25    2    1    2    0    0 -0.19510085314E+02  0.67692023216E+02 -0.37411018293E+02  0.14835921226E+03  0.12509203866E+03 0.  0.
          5    1    3    3  502    0 -0.57527106591E+02  0.37472373027E+02  0.21343030572E+02  0.72017665104E+02  0.41800000000E+01 0.  1.
         -5    1    3    3    0  502  0.38017021277E+02  0.30219650188E+02 -0.58754048865E+02  0.76341547157E+02  0.41800000000E+01 0.  1.
        -11    1    1    2    0    0  0.54655945990E+02 -0.44192810481E+02 -0.96001307629E+02  0.11898120859E+03  0.00000000000E+00 0.  1.
         11    1    1    2    0    0 -0.35145860676E+02 -0.23499212735E+02 -0.98657547572E+02  0.10733478567E+03  0.00000000000E+00 0. -1.
</event>
<event>
 7    1  0.2380582E-009  0.1684942E+03  0.7561462E-02  0.1179427E+00
          1   -1    0    0  501    0  0.00000000000E+00  0.00000000000E+00  0.55933432744E+03  0.55933432744E+03  0.00000000000E+00 0. -1.
         -1   -1    0    0    0  501 -0.00000000000E+00 -0.00000000000E+00 -0.55364472132E+02  0.55364472132E+02  0.00000000000E+00 0.  1.
         25    2    1    2    0    0  0.80990757824E+02  0.10277573920E+03  0.34426919761E+03  0.38896178568E+03  0.12509050674E+03 0.  0.
          5    1    3    3  502    0  0.40499069621E+02 -0.21972981322E+02  0.59144273494E+02  0.75089972936E+02  0.41800000000E+01 0.  1.
         -5    1    3    3    0  502  0.40491688203E+02  0.12474872052E+03  0.28512492412E+03  0.31387181275E+03  0.41800000000E+01 0.  1.
        -11    1    1    2    0    0 -0.94121574229E+02 -0.52990595442E+02  0.10581059309E+03  0.15120435030E+03  0.00000000000E+00 0.  1.
         11    1    1    2    0    0  0.13130816406E+02 -0.49785143753E+02  0.53890064610E+02  0.74532663589E+02  0.00000000000E+00 0. -1.
</event>
<event>
 7    1  0.2380582E-009  0.1457212E+03  0.7561462E-02  0.1205832E+00
          1   -1    0    0  501    0  0.00000000000E+00  0.00000000000E+00  0.38651661503E+03  0.38651661503E+03  0.00000000000E+00 0. -1.
         -1   -1    0    0    0  501 -0.00000000000E+00 -0.00000000000E+00 -0.61715589404E+02  0.61715589404E+02  0.00000000000E+00 0.  1.
         25    2    1    2    0    0 -0.92281020599E+02 -0.59325710940E+02  0.17336719712E+03  0.24028585454E+03  0.12508309284E+03 0.  0.
          5    1    3    3  502    0  0.25813684408E+02  0.72493252922E+01  0.50248178064E+02  0.57107362211E+02  0.41800000000E+01 0. -1.
         -5    1    3    3    0  502 -0.11809470501E+03 -0.66575036232E+02  0.12311901905E+03  0.18317849233E+03  0.41800000000E+01 0. -1.
        -11    1    1    2    0    0  0.55710086770E+02 -0.36718629917E+01  0.11192822675E+03  0.12508007151E+03  0.00000000000E+00 0. -1.
         11    1    1    2    0    0  0.36570933830E+02  0.62997573931E+02  0.39505601759E+02  0.82866278381E+02  0.00000000000E+00 0.  1.
</event>
<event>
 7    1  0.2380582E-009  0.1195548E+03  0.7561462E-02  0.1243833E+00
          2   -1    0    0  501    0  0.00000000000E+00  0.00000000000E+00  0.31105336393E+03  0.31105336393E+03  0.00000000000E+00 0. -1.
         -2   -1    0    0    0  501 -0.00000000000E+00 -0.00000000000E+00 -0.58106267516E+02  0.58106267516E+02  0.00000000000E+00 0.  1.
         25    2    1    2    0    0  0.57578046144E+02 -0.22420549348E+02  0.20963707627E+03  0.25181932805E+03  0.12508939922E+03 0.  0.
          5    1    3    3  502    0  0.88828531024E+02 -0.36900638364E+02  0.18718226529E+03  0.21049189503E+03  0.41800000000E+01 0. -1.
         -5    1    3    3    0  502 -0.31250484880E+02  0.14480089016E+02  0.22454810984E+02  0.41327433013E+02  0.41800000000E+01 0. -1.
        -11    1    1    2    0    0 -0.43394835010E+02  0.56489045681E+02  0.21199553309E+02  0.74320556025E+02  0.00000000000E+00 0.  1.
         11    1    1    2    0    0 -0.14183211134E+02 -0.34068496333E+02  0.22110466828E+02  0.43019747371E+02  0.00000000000E+00 0. -1.
</event>
<event>
 7    1  0.2380582E-009  0.5517273E+02  0.7561462E-02  0.1419284E+00
         -4   -1    0    0    0  501 -0.00000000000E+00  0.00000000000E+00  0.27144005876E+03  0.27144005876E+03  0.00000000000E+00 0.  1.
          4   -1    0    0  501    0  0.00000000000E+00 -0.00000000000E+00 -0.52389347776E+02  0.52389347776E+02  0.00000000000E+00 0. -1.
         25    2    1    2    0    0 -0.22979735602E+02 -0.36515720914E+02  0.15234021624E+03  0.20178226906E+03  0.12508827484E+03 0.  0.
          5    1    3    3  502    0  0.54703361834E+01 -0.23619979459E+02 -0.16760894206E+02  0.29769581492E+02  0.41800000000E+01 0. -1.
         -5    1    3    3    0  502 -0.28450071786E+02 -0.12895741454E+02  0.16910111044E+03  0.17201268757E+03  0.41800000000E+01 0. -1.
        -11    1    1    2    0    0 -0.84008448457E+01  0.10627625408E+02 -0.21212320709E+02  0.25169091478E+02  0.00000000000E+00 0. -1.
         11    1    1    2    0    0  0.31380580448E+02  0.25888095505E+02  0.87922815454E+02  0.96878045994E+02  0.00000000000E+00 0.  1.
</event>
<event>
 7    1  0.2380582E-009  0.1217030E+03  0.7561462E-02  0.1240314E+00
         -2   -1    0    0    0  501 -0.00000000000E+00  0.00000000000E+00  0.19304609246E+03  0.19304609246E+03  0.00000000000E+00 0. -1.
          2   -1    0    0  501    0  0.00000000000E+00 -0.00000000000E+00 -0.15258854430E+03  0.15258854430E+03  0.00000000000E+00 0.  1.
         25    2    1    2    0    0 -0.94491016832E+01 -0.58208846561E+02  0.14073318048E+03  0.19730838216E+03  0.12508882541E+03 0.  0.
          5    1    3    3  502    0  0.35003609751E+02 -0.78598146472E+02  0.68899449688E+02  0.11030651790E+03  0.41800000000E+01 0.  1.
         -5    1    3    3    0  502 -0.44452711434E+02  0.20389299911E+02  0.71833730788E+02  0.87001864254E+02  0.41800000000E+01 0.  1.
        -11    1    1    2    0    0  0.45382139422E+02  0.74493979034E+01 -0.53231201534E+02  0.70346236035E+02  0.00000000000E+00 0. -1.
         11    1    1    2    0    0 -0.35933037739E+02  0.50759448657E+02 -0.47044430778E+02  0.77980018571E+02  0.00000000000E+00 0.  1.
</event>
<event>
 7    1  0.2380582E-009  0.1408380E+03  0.7561462E-02  0.1212206E+00
          2   -1    0    0  501    0  0.00000000000E+00  0.00000000000E+00  0.74987814367E+03  0.74987814367E+03  0.00000000000E+00 0. -1.
         -2   -1    0    0    0  501 -0.00000000000E+00 -0.00000000000E+00 -0.34477354295E+02  0.34477354295E+02  0.00000000000E+00 0.  1.
         25    2    1    2    0    0  0.91614063670E+02  0.44918310063E+02  0.52998512421E+03  0.55402389005E+03  0.12508975826E+03 0.  0.
          5    1    3    3  502    0 -0.18669334625E+02 -0.21346698486E+02  0.15311523551E+03  0.15577539388E+03  0.41800000000E+01 0.  1.
         -5    1    3    3    0  502  0.11028339829E+03  0.66265008550E+02  0.37686988869E+03  0.39824849617E+03  0.41800000000E+01 0.  1.
        -11    1    1    2    0    0 -0.99663880682E+02 -0.24930591630E+02  0.10428870113E+03  0.14639179176E+03  0.00000000000E+00 0.  1.
         11    1    1    2    0    0  0.80498170126E+01 -0.19987718433E+02  0.81126964044E+02  0.83939816160E+02  0.00000000000E+00 0. -1.
</event>
<event>
 7    1  0.2380582E-009  0.1225002E+03  0.7561462E-02  0.1239029E+00
         -1   -1    0    0    0  501 -0.00000000000E+00  0.00000000000E+00  0.35235220921E+02  0.35235220921E+02  0.00000000000E+00 0.  1.
          1   -1    0    0  501    0  0.00000000000E+00 -0.00000000000E+00 -0.51193081990E+03  0.51193081990E+03  0.00000000000E+00 0. -1.
         25    2    1    2    0    0 -0.48806775151E+02 -0.49466672939E+02 -0.33898270267E+03  0.36794729337E+03  0.12508750919E+03 0.  0.
          5    1    3    3  502    0  0.33636848580E+02  0.57662253184E+01 -0.39214835639E+02  0.52153261365E+02  0.41800000000E+01 0.  1.
         -5    1    3    3    0  502 -0.82443623731E+02 -0.55232898257E+02 -0.29976786704E+03  0.31579403201E+03  0.41800000000E+01 0.  1.
        -11    1    1    2    0    0  0.28017799962E+02 -0.22784150275E+02 -0.25738840369E+02  0.44346392435E+02  0.00000000000E+00 0. -1.
         11    1    1    2    0    0  0.20788975188E+02  0.72250823214E+02 -0.11197405593E+03  0.13487235501E+03  0.00000000000E+00 0.  1.
</event>
<event>
 7    1  0.2380582E-009  0.9088596E+02  0.7561462E-02  0.1300720E+00
          2   -1    0    0  501    0  0.00000000000E+00  0.00000000000E+00  0.17154870202E+03  0.17154870202E+03  0.00000000000E+00 0. -1.
         -2   -1    0    0    0  501 -0.00000000000E+00 -0.00000000000E+00 -0.11778628969E+03  0.11778628969E+03  0.00000000000E+00 0.  1.
         25    2    1    2    0    0 -0.79413623314E+02 -0.22465351015E+02 -0.89926184597E+01  0.15012913630E+03  0.12508666921E+03 0.  0.
          5    1    3    3  502    0 -0.15532594595E+02 -0.24182203382E+02 -0.61045407458E+02  0.67602179159E+02  0.41800000000E+01 0. -1.
         -5    1    3    3    0  502 -0.63881028719E+02  0.17168523677E+01  0.52052788998E+02  0.82526957140E+02  0.41800000000E+01 0. -1.
        -11    1    1    2    0    0  0.24300997135E+02 -0.81642972394E+01 -0.21854111506E+02  0.33686739243E+02  0.00000000000E+00 0.  1.
         11    1    1    2    0    0  0.55112626179E+02  0.30629648254E+02  0.84609142291E+02  0.10551911616E+03  0.00000000000E+00 0. -1.
</event>
<event>
 7    1  0.2380582E-009  0.1673881E+03  0.7561462E-02  0.1180599E+00
          2   -1    0    0  501    0  0.00000000000E+00  0.00000000000E+00  0.63483004726E+03  0.63483004726E+03  0.00000000000E+00 0.  1.
         -2   -1    0    0    0  501 -0.00000000000E+00 -0.00000000000E+00 -0.86199764774E+02  0.86199764774E+02  0.00000000000E+00 0. -1.
         25    2    1    2    0    0 -0.26793159094E+02  0.13755848100E+03  0.55231400032E+02  0.19579918577E+03  0.12508638826E+03 0.  0.
          5    1    3    3  502    0 -0.27976893126E+02  0.57216211989E+01  0.56987892605E+02  0.63879071703E+02  0.41800000000E+01 0. -1.
         -5    1    3    3    0  502  0.11837340322E+01  0.13183685980E+03 -0.17564925728E+01  0.13192011407E+03  0.41800000000E+01 0. -1.
        -11    1    1    2    0    0 -0.37267141079E+02 -0.78413311131E+02  0.17864596207E+03  0.19862494036E+03  0.00000000000E+00 0.  1.
         11    1    1    2    0    0  0.64060300173E+02 -0.59145169873E+02  0.31475292039E+03  0.32660568591E+03  0.00000000000E+00 0. -1.
</event>
<event>
 7    1  0.2380582E-009  0.1211794E+03  0.7561462E-02  0.1241164E+00
          1   -1    0    0  501    0  0.00000000000E+00  0.00000000000E+00  0.20304019120E+03  0.20304019120E+03  0.00000000000E+00 0. -1.
         -1   -1    0    0    0  501 -0.00000000000E+00 -0.00000000000E+00 -0.88862310309E+02  0.88862310309E+02  0.00000000000E+00 0.  1.
         25    2    1    2    0    0 -0.37568818871E+02 -0.69440851528E+02  0.65951449070E+02  0.16195805214E+03  0.12508944402E+03 0.  0.
          5    1    3    3  502    0 -0.58326846564E+02  0.14728607453E+02  0.35515271477E+02  0.69983996854E+02  0.41800000000E+01 0. -1.
         -5    1    3    3    0  502  0.20758027693E+02 -0.84169458981E+02  0.30436177594E+02  0.91974055284E+02  0.41800000000E+01 0. -1.
        -11    1    1    2    0    0  0.97000650758E+01  0.66541536056E+02  0.68012875839E+02  0.95643183568E+02  0.00000000000E+00 0. -1.
         11    1    1    2    0    0  0.27868753795E+02  0.28993154722E+01 -0.19786444023E+02  0.34301265799E+02  0.00000000000E+00 0.  1.
</event>
<event>
 7    1  0.2380582E-009  0.1695310E+03  0.7561462E-02  0.1178338E+00
         -2   -1    0    0    0  501 -0.00000000000E+00  0.00000000000E+00  0.11642717769E+03  0.11642717769E+03  0.00000000000E+00 0.  1.
          2   -1    0    0  501    0  0.00000000000E+00 -0.00000000000E+00 -0.26700122839E+03  0.26700122839E+03  0.00000000000E+00 0. -1.
         25    2    1    2    0    0  0.13565873831E+03 -0.11804579517E+02 -0.29590993295E+02  0.18725855961E+03  0.12508996717E+03 0.  0.
          5    1    3    3  502    0  0.90957532847E+02  0.53500610943E+02 -0.19026452004E+02  0.10730827754E+03  0.41800000000E+01 0.  1.
         -5    1    3    3    0  502  0.44701205464E+02 -0.65305190461E+02 -0.10564541291E+02  0.79950282074E+02  0.41800000000E+01 0.  1.
        -11    1    1    2    0    0 -0.38046334613E+02  0.37338963445E+02 -0.36943472951E+02  0.64857859680E+02  0.00000000000E+00 0.  1.
         11    1    1    2    0    0 -0.97612403698E+02 -0.25534383927E+02 -0.84039584454E+02  0.13131198678E+03  0.00000000000E+00 0. -1.
</event>
<event>
 7    1  0.2380582E-009  0.1918601E+03  0.7561462E-02  0.1156794E+00
         -2   -1    0    0    0  501 -0.00000000000E+00  0.00000000000E+00  0.84630938650E+02  0.84630938650E+02  0.00000000000E+00 0.  1.
          2   -1    0    0  501    0  0.00000000000E+00 -0.00000000000E+00 -0.54311755311E+03  0.54311755311E+03  0.00000000000E+00 0. -1.
         25    2    1    2    0    0  0.11764670581E+03 -0.13937989259E+03 -0.20906209147E+03  0.30434071970E+03  0.12509521866E+03 0.  0.
          5    1    3    3  502    0  0.67907275737E+02 -0.11835657412E+03 -0.66532830239E+02  0.15186759574E+03  0.41800000000E+01 0.  1.
         -5    1    3    3    0  502  0.49739430074E+02 -0.21023318462E+02 -0.14252926123E+03  0.15247312396E+03  0.41800000000E+01 0.  1.
        -11    1    1    2    0    0 -0.10469703159E+03  0.78655358468E+02 -0.21677241279E+03  0.25325562735E+03  0.00000000000E+00 0. -1.
         11    1    1    2    0    0 -0.12949674224E+02  0.60724534117E+02 -0.32652110195E+02  0.70152144703E+02  0.00000000000E+00 0.  1.
</event>
<event>
 7    1  0.2380582E-009  0.9121993E+02  0.7561462E-02  0.1299924E+00
         -3   -1    0    0    0  501 -0.00000000000E+00  0.00000000000E+00  0.14290580588E+03  0.14290580588E+03  0.00000000000E+00 0.  1.
          3   -1    0    0  501    0  0.00000000000E+00 -0.00000000000E+00 -0.86438515561E+02  0.86438515561E+02  0.00000000000E+00 0. -1.
         25    2    1    2    0    0  0.12060941665E+02  0.10264832406E+01  0.75563143770E+01  0.12590207338E+03  0.12509082385E+03 0.  0.
          5    1    3    3  502    0 -0.49765301483E+01  0.59015987445E+02 -0.15027203789E+02  0.61244933506E+02  0.41800000000E+01 0. -1.
         -5    1    3    3    0  502  0.17037471814E+02 -0.57989504204E+02  0.22583518166E+02  0.64657139872E+02  0.41800000000E+01 0. -1.
        -11    1    1    2    0    0 -0.13533437687E+02  0.29218949570E+02 -0.12839801615E+02  0.34666431243E+02  0.00000000000E+00 0. -1.
         11    1    1    2    0    0  0.14724960218E+01 -0.30245432810E+02  0.61750777554E+02  0.68775816818E+02  0.00000000000E+00 0.  1.
</event>
<event>
 7    1  0.2380582E-009  0.9340171E+02  0.7561462E-02  0.1294817E+00
         -4   -1    0    0    0  501 -0.00000000000E+00  0.00000000000E+00  0.50502741568E+03  0.50502741568E+03  0.00000000000E+00 0. -1.
          4   -1    0    0  501    0  0.00000000000E+00 -0.00000000000E+00 -0.23628911634E+02  0.23628911634E+02  0.00000000000E+00 0.  1.
         25    2    1    2    0    0  0.16318280727E+02 -0.41423758964E+01  0.28361164895E+03  0.31043051339E+03  0.12509232853E+03 0.  0.
          5    1    3    3  502    0  0.60842815052E+02 -0.19014584331E+02  0.85145360766E+02  0.10644532597E+03  0.41800000000E+01 0.  1.
         -5    1    3    3    0  502 -0.44524534325E+02  0.14872208434E+02  0.19846628819E+03  0.20398518742E+03  0.41800000000E+01 0.  1.
        -11    1    1    2    0    0 -0.18779137625E+02  0.37714416514E+02  0.44476154722E+02  0.61263052175E+02  0.00000000000E+00 0.  1.
         11    1    1    2    0    0  0.24608568980E+01 -0.33572040617E+02  0.15331070037E+03  0.15696276175E+03  0.00000000000E+00 0. -1.
</event>
<event>
 7    1  0.2380582E-009  0.1019098E+03  0.7561462E-02  0.1276330E+00
          1   -1    0    0  501    0  0.00000000000E+00  0.00000000000E+00  0.88636057067E+02  0.88636057067E+02  0.00000000000E+00 0. -1.
         -1   -1    0    0    0  501 -0.00000000000E+00 -0.00000000000E+00 -0.17094141377E+03  0.17094141377E+03  0.00000000000E+00 0.  1.
         25    2    1    2    0    0 -0.29610674095E+02  0.60008498991E+00  0.82791383013E+01  0.12882232846E+03  0.12509794585E+03 0.  0.
          5    1    3    3  502    0 -0.49246410548E+02  0.44971780630E+02 -0.23312273979E+02  0.70771495130E+02  0.41800000000E+01 0.  1.
         -5    1    3    3    0  502  0.19635736453E+02 -0.44371695640E+02  0.31591412280E+02  0.58050833326E+02  0.41800000000E+01 0.  1.
        -11    1    1    2    0    0 -0.98363058608E+01  0.34265468345E+02 -0.60216291169E+02  0.69977688988E+02  0.00000000000E+00 0.  1.
         11    1    1    2    0    0  0.39446979956E+02 -0.34865553335E+02 -0.30368203838E+02  0.60777453396E+02  0.00000000000E+00 0. -1.
</event>
<event>
 7    1  0.2380582E-009  0.1245697E+03  0.7561462E-02  0.1235743E+00
          2   -1    0    0  501    0  0.00000000000E+00  0.00000000000E+00  0.36804326194E+03  0.36804326194E+03  0.00000000000E+00 0. -1.
         -2   -1    0    0    0  501 -0.00000000000E+00 -0.00000000000E+00 -0.55663462400E+02  0.55663462400E+02  0.00000000000E+00 0.  1.
         25    2    1    2    0    0 -0.60633580765E+02  0.13124922430E+02  0.27294547280E+03  0.30658628160E+03  0.12508885736E+03 0.  0.
          5    1    3    3  502    0 -0.43124852605E+02  0.68692619812E+02  0.15957839719E+03  0.17905632125E+03  0.41800000000E+01 0.  1.
         -5    1    3    3    0  502 -0.17508728161E+02 -0.55567697383E+02  0.11336707561E+03  0.12752996035E+03  0.41800000000E+01 0.  1.
        -11    1    1    2    0    0  0.52377730948E+02  0.33492709981E+02  0.29187802125E+02  0.68681264651E+02  0.00000000000E+00 0. -1.
         11    1    1    2    0    0  0.82558498171E+01 -0.46617632411E+02  0.10246524617E+02  0.48439178095E+02  0.00000000000E+00 0.  1.
</event>
<event>
 7    1  0.2380582E-009  0.1358016E+03  0.7561462E-02  0.1219092E+00
         -1   -1    0    0    0  501 -0.00000000000E+00  0.00000000000E+00  0.21822267968E+03  0.21822267968E+03  0.00000000000E+00 0.  1.
          1   -1    0    0  501    0  0.00000000000E+00 -0.00000000000E+00 -0.10571992863E+03  0.10571992863E+03  0.00000000000E+00 0. -1.
         25    2    1    2    0    0 -0.95830433230E+02 -0.43383013449E+02  0.79249007281E+02  0.18163975849E+03  0.12508812462E+03 0.  0.
          5    1    3    3  502    0 -0.12347752535E+03 -0.51593249310E+02  0.69890563092E+02  0.15103220137E+03  0.41800000000E+01 0.  1.
         -5    1    3    3    0  502  0.27647092120E+02  0.82102358603E+01  0.93584441890E+01  0.30607557126E+02  0.41800000000E+01 0.  1.
        -11    1    1    2    0    0  0.57616339646E+02  0.40143748255E+02  0.62551208065E+02  0.94041569258E+02  0.00000000000E+00 0.  1.
         11    1    1    2    0    0  0.38214093584E+02  0.32392651940E+01 -0.29297464296E+02  0.48261280564E+02  0.00000000000E+00 0. -1.
</event>
<event>
 7    1  0.2380582E-009  0.1111009E+03  0.7561462E-02  0.1258545E+00
         -1   -1    0    0    0  501 -0.00000000000E+00  0.00000000000E+00  0.65155524384E+02  0.65155524384E+02  0.00000000000E+00 0.  1.
          1   -1    0    0  501    0  0.00000000000E+00 -0.00000000000E+00 -0.24433279601E+03  0.24433279601E+03  0.00000000000E+00 0. -1.
         25    2    1    2    0    0 -0.33680988661E+02 -0.41857112378E+02 -0.49073631889E+02  0.14471340767E+03  0.12508925677E+03 0.  0.
          5    1    3    3  502    0 -0.43737281755E+02  0.36431341117E+02 -0.19340143132E+02  0.60263637189E+02  0.41800000000E+01 0.  1.
         -5    1    3    3    0  502  0.10056293094E+02 -0.78288453494E+02 -0.29733488758E+02  0.84449770485E+02  0.41800000000E+01 0.  1.
        -11    1    1    2    0    0  0.52763984638E+02  0.18480065897E+02 -0.12094091647E+03  0.13323759300E+03  0.00000000000E+00 0. -1.
         11    1    1    2    0    0 -0.19082995977E+02  0.23377046481E+02 -0.91627232635E+01  0.31537319722E+02  0.00000000000E+00 0.  1.
</event>
<event>
 7    1  0.2380582E-009  0.9693779E+02  0.7561462E-02  0.1286870E+00
         -3   -1    0    0    0  501 -0.00000000000E+00  0.00000000000E+00  0.13407803150E+03  0.13407803150E+03  0.00000000000E+00 0.  1.
          3   -1    0    0  501    0  0.00000000000E+00 -0.00000000000E+00 -0.11114237271E+03  0.11114237271E+03  0.00000000000E+00 0. -1.
         25    2    1    2    0    0 -0.39328855247E+02  0.43751309030E+01 -0.26617996844E+02  0.13387238055E+03  0.12508955149E+03 0.  0.
          5    1    3    3  502    0 -0.14352238365E+02  0.62335117599E+02 -0.29481137397E+02  0.70556810404E+02  0.41800000000E+01 0.  1.
         -5    1    3    3    0  502 -0.24976616882E+02 -0.57959986696E+02  0.28631405529E+01  0.63315570143E+02  0.41800000000E+01 0.  1.
        -11    1    1    2    0    0  0.36280866826E+02  0.20357869063E+02 -0.13346970597E+02  0.43690797138E+02  0.00000000000E+00 0. -1.
         11    1    1    2    0    0  0.30479884211E+01 -0.24732999966E+02  0.62900626229E+02  0.67657226523E+02  0.00000000000E+00 0.  1.
</event>
<event>
 7    1  0.2380582E-009  0.9409000E+02  0.7561462E-02  0.1293239E+00
          1   -1    0    0  501    0  0.00000000000E+00  0.00000000000E+00  0.83243876430E+03  0.83243876430E+03  0.00000000000E+00 0. -1.
         -1   -1    0    0    0  501 -0.00000000000E+00 -0.00000000000E+00 -0.15869677062E+02  0.15869677062E+02  0.00000000000E+00 0.  1.
         25    2    1    2    0    0  0.17685148253E+02  0.99571720437E+01  0.57663292997E+03  0.59039429347E+03  0.12509187062E+03 0.  0.
          5    1    3    3  502    0  0.59493439895E+02 -0.93110351858E+01  0.15668697970E+03  0.16791202093E+03  0.41800000000E+01 0.  1.
         -5    1    3    3    0  502 -0.41808291641E+02  0.19268207230E+02  0.41994595028E+03  0.42248227254E+03  0.41800000000E+01 0.  1.
        -11    1    1    2    0    0  0.17614691990E+01  0.33728690709E+02  0.16915588757E+03  0.17249475833E+03  0.00000000000E+00 0.  1.
         11    1    1    2    0    0 -0.19446617452E+02 -0.43685862752E+02  0.70780269688E+02  0.85419389555E+02  0.00000000000E+00 0. -1.
</event>
<event>
 7    1  0.2380582E-009  0.8119119E+02  0.7561462E-02  0.1325705E+00
         -1   -1    0    0    0  501 -0.00000000000E+00  0.00000000000E+00  0.58517346431E+03  0.58517346431E+03  0.00000000000E+00 0.  1.
          1   -1    0    0  501    0  0.00000000000E+00 -0.00000000000E+00 -0.21404671426E+02  0.21404671426E+02  0.00000000000E+00 0. -1.
         25    2    1    2    0    0 -0.16241669107E+02  0.18048767673E+02  0.30402226882E+03  0.32964997050E+03  0.12510001312E+03 0.  0.
          5    1    3    3  502    0 -0.19915486594E+02 -0.24064529571E+02  0.10721395357E+02  0.33288870635E+02  0.41800000000E+01 0.  1.
         -5    1    3    3    0  502  0.36738174875E+01  0.42113297244E+02  0.29330087346E+03  0.29636109986E+03  0.41800000000E+01 0.  1.
        -11    1    1    2    0    0  0.49717524025E+02 -0.22583500506E+02  0.20862702575E+03  0.21565500821E+03  0.00000000000E+00 0.  1.
         11    1    1    2    0    0 -0.33475854919E+02  0.45347328333E+01  0.51119498310E+02  0.61273157025E+02  0.00000000000E+00 0. -1.
</event>
<event>
 7    1  0.2380582E-009  0.1233101E+03  0.7561462E-02  0.1237734E+00
         -1   -1    0    0    0  501 -0.00000000000E+00  0.00000000000E+00  0.27312673091E+03  0.27312673091E+03  0.00000000000E+00 0.  1.
          1   -1    0    0  501    0  0.00000000000E+00 -0.00000000000E+00 -0.88596701311E+02  0.88596701311E+02  0.00000000000E+00 0. -1.
         25    2    1    2    0    0 -0.19149030355E+02 -0.10876789473E+03  0.83756014873E+02  0.18670821562E+03  0.12509095677E+03 0.  0.
          5    1    3    3  502    0 -0.73350803570E+01 -0.98872905462E+02 -0.22245264944E+01  0.99257623165E+02  0.41800000000E+01 0.  1.
         -5    1    3    3    0  502 -0.11813949998E+02 -0.98949892704E+01  0.85980541367E+02  0.87450592456E+02  0.41800000000E+01 0.  1.
        -11    1    1    2    0    0  0.27633446061E+02  0.59675303560E+01  0.55666407533E+02  0.62433706340E+02  0.00000000000E+00 0.  1.
         11    1    1    2    0    0 -0.84844157063E+01  0.10280036438E+03  0.45107607196E+02  0.11258151026E+03  0.00000000000E+00 0. -1.
</event>
<event>
 7    1  0.2380582E-009  0.7417313E+02  0.7561462E-02  0.1346451E+00
         -1   -1    0    0    0  501 -0.00000000000E+00  0.00000000000E+00  0.13143311688E+03  0.13143311688E+03  0.00000000000E+00 0.  1.
          1   -1    0    0  501    0  0.00000000000E+00 -0.00000000000E+00 -0.92547817227E+02  0.92547817227E+02  0.00000000000E+00 0. -1.
         25    2    1    2    0    0 -0.28729830085E+02  0.89092130542E+00  0.27551656923E+02  0.13126521209E+03  0.12508103464E+03 0.  0.
          5    1    3    3  502    0  0.76492485188E+01  0.38480120212E+02 -0.32786207372E+02  0.51299497544E+02  0.41800000000E+01 0. -1.
         -5    1    3    3    0  502 -0.36379078604E+02 -0.37589198907E+02  0.60337864295E+02  0.79965714541E+02  0.41800000000E+01 0. -1.
        -11    1    1    2    0    0  0.35463896337E+01 -0.22775657909E+02 -0.31116207694E+02  0.38723711778E+02  0.00000000000E+00 0. -1.
         11    1    1    2    0    0  0.25183440451E+02  0.21884736604E+02  0.42449850425E+02  0.53992010245E+02  0.00000000000E+00 0.  1.
</event>
<event>
 7    1  0.2380582E-009  0.1046346E+03  0.7561462E-02  0.1270841E+00
         -1   -1    0    0    0  501 -0.00000000000E+00  0.00000000000E+00  0.16328073277E+03  0.16328073277E+03  0.00000000000E+00 0.  1.
          1   -1    0    0  501    0  0.00000000000E+00 -0.00000000000E+00 -0.12783174377E+03  0.12783174377E+03  0.00000000000E+00 0. -1.
         25    2    1    2    0    0  0.40767625544E+02  0.77282270692E+02 -0.19653514972E+02  0.15384957021E+03  0.12509548731E+03 0.  0.
          5    1    3    3  502    0  0.50513343481E+02  0.72493387165E+02  0.37096294033E+02  0.95919218529E+02  0.41800000000E+01 0. -1.
         -5    1    3    3    0  502 -0.97457179366E+01  0.47888835274E+01 -0.56749809005E+02  0.57930351679E+02  0.41800000000E+01 0. -1.
        -11    1    1    2    0    0 -0.12906182760E+02 -0.80138179382E+02  0.68348464118E+01  0.81458041184E+02  0.00000000000E+00 0. -1.
         11    1    1    2    0    0 -0.27861442785E+02  0.28559086891E+01  0.48267657553E+02  0.55804865147E+02  0.00000000000E+00 0.  1.
</event>
<event>
 7    1  0.2380582E-009  0.1467488E+03  0.7561462E-02  0.1204526E+00
          2   -1    0    0  501    0  0.00000000000E+00  0.00000000000E+00  0.10725835363E+04  0.10725835363E+04  0.00000000000E+00 0. -1.
         -2   -1    0    0    0  501 -0.00000000000E+00 -0.00000000000E+00 -0.22506263398E+02  0.22506263398E+02  0.00000000000E+00 0.  1.
         25    2    1    2    0    0 -0.10375618783E+03 -0.38269616623E+02  0.59678718320E+03  0.61970348008E+03  0.12509017197E+03 0.  0.
          5    1    3    3  502    0  0.13823669686E+02 -0.28943952511E+02  0.44904692410E+02  0.55342118057E+02  0.41800000000E+01 0.  1.
         -5    1    3    3    0  502 -0.11757985752E+03 -0.93256641121E+01  0.55188249079E+03  0.56436136202E+03  0.41800000000E+01 0.  1.
        -11    1    1    2    0    0  0.16323369124E+02 -0.28684150419E+02  0.96487676289E+02  0.10197599983E+03  0.00000000000E+00 0. -1.
         11    1    1    2    0    0  0.87432818709E+02  0.66953767042E+02  0.35680241341E+03  0.37341031978E+03  0.00000000000E+00 0.  1.
</event>
<event>
 7    1  0.2380582E-009  0.1400429E+03  0.7561462E-02  0.1213271E+00
         -2   -1    0    0    0  501 -0.00000000000E+00  0.00000000000E+00  0.73849914485E+02  0.73849914485E+02  0.00000000000E+00 0. -1.
          2   -1    0    0  501    0  0.00000000000E+00 -0.00000000000E+00 -0.32690415322E+03  0.32690415322E+03  0.00000000000E+00 0.  1.
         25    2    1    2    0    0  0.10809437846E+03  0.24707793952E+02 -0.16016834909E+03  0.23151429621E+03  0.12510035797E+03 0.  0.
          5    1    3    3  502    0 -0.62633772295E+01  0.36898921653E+02 -0.87887468231E+02  0.95616106309E+02  0.41800000000E+01 0. -1.
         -5    1    3    3    0  502  0.11435775569E+03 -0.12191127701E+02 -0.72280880855E+02  0.13589818990E+03  0.41800000000E+01 0. -1.
        -11    1    1    2    0    0 -0.88241334065E+02 -0.44916774038E+02 -0.99260322722E+02  0.14020221573E+03  0.00000000000E+00 0. -1.
         11    1    1    2    0    0 -0.19853044394E+02  0.20208980086E+02  0.63744330777E+01  0.29037555767E+02  0.00000000000E+00 0.  1.
</event>
<event>
 7    1  0.2380582E-009  0.1055192E+03  0.7561462E-02  0.1269100E+00
         -3   -1    0    0    0  501 -0.00000000000E+00  0.00000000000E+00  0.67572608353E+02  0.67572608353E+02  0.00000000000E+00 0.  1.
          3   -1    0    0  501    0  0.00000000000E+00 -0.00000000000E+00 -0.17803373702E+03  0.17803373702E+03  0.00000000000E+00 0. -1.
         25    2    1    2    0    0 -0.73212572928E+01  0.11944255282E+02 -0.50189220502E+02  0.13550803701E+03  0.12508878525E+03 0.  0.
          5    1    3    3  502    0 -0.16062475742E+02  0.66304161675E+02 -0.40499424368E+02  0.79447597550E+02  0.41800000000E+01 0. -1.
         -5    1    3    3    0  502  0.87412184493E+01 -0.54359906392E+02 -0.96897961335E+01  0.56060439457E+02  0.41800000000E+01 0. -1.
        -11    1    1    2    0    0  0.42728205445E+02 -0.25268467145E+02 -0.50952812079E+02  0.71136376287E+02  0.00000000000E+00 0. -1.
         11    1    1    2    0    0 -0.35406948152E+02  0.13324211863E+02 -0.93190960821E+01  0.38961932075E+02  0.00000000000E+00 0.  1.
</event>
<event>
 7    1  0.2380582E-009  0.1167464E+03  0.7561462E-02  0.1248563E+00
          1   -1    0    0  501    0  0.00000000000E+00  0.00000000000E+00  0.41383632602E+03  0.41383632602E+03  0.00000000000E+00 0. -1.
         -1   -1    0    0    0  501 -0.00000000000E+00 -0.00000000000E+00 -0.58019193151E+02  0.58019193151E+02  0.00000000000E+00 0.  1.
         25    2    1    2    0    0  0.74980905923E+02 -0.38866175448E+02  0.29742399859E+03  0.33352789299E+03  0.12508838722E+03 0.  0.
          5    1    3    3  502    0  0.31442182739E+02 -0.80062815300E+02  0.21434805627E+03  0.23100049107E+03  0.41800000000E+01 0. -1.
         -5    1    3    3    0  502  0.43538723184E+02  0.41196639852E+02  0.83075942325E+02  0.10252740192E+03  0.41800000000E+01 0. -1.
        -11    1    1    2    0    0 -0.66227403649E+02  0.24791206339E+02  0.82760354664E+02  0.10885747200E+03  0.00000000000E+00 0. -1.
         11    1    1    2    0    0 -0.87535022739E+01  0.14074969109E+02 -0.24367220393E+02  0.29470154176E+02  0.00000000000E+00 0.  1.
</event>
<event>
 7    1  0.2380582E-009  0.7565595E+02  0.7561462E-02  0.1341852E+00
          1   -1    0    0  501    0  0.00000000000E+00  0.00000000000E+00  0.10812528659E+04  0.10812528659E+04  0.00000000000E+00 0. -1.
         -1   -1    0    0    0  501 -0.00000000000E+00 -0.00000000000E+00 -0.14740157402E+02  0.14740157402E+02  0.00000000000E+00 0.  1.
         25    2    1    2    0    0  0.34930317089E+02  0.11838459920E+02  0.83015810912E+03  0.84033938699E+03  0.12509005958E+03 0.  0.
          5    1    3    3  502    0 -0.17164899174E+02  0.11592961683E+02  0.69658923847E+03  0.69690965704E+03  0.41800000000E+01 0. -1.
         -5    1    3    3    0  502  0.52095216263E+02  0.24549823779E+00  0.13356887066E+03  0.14342972996E+03  0.41800000000E+01 0. -1.
        -11    1    1    2    0    0  0.20178809258E+02  0.40140956578E+01  0.11433507184E+02  0.23537680293E+02  0.00000000000E+00 0.  1.
         11    1    1    2    0    0 -0.55109126348E+02 -0.15852555578E+02  0.22492109220E+03  0.23211595602E+03  0.00000000000E+00 0. -1.
</event>
<event>
 7    1  0.2380582E-009  0.8171680E+02  0.7561462E-02  0.1324249E+00
         -4   -1    0    0    0  501 -0.00000000000E+00  0.00000000000E+00  0.17428847085E+03  0.17428847085E+03  0.00000000000E+00 0. -1.
          4   -1    0    0  501    0  0.00000000000E+00 -0.00000000000E+00 -0.77128940117E+02  0.77128940117E+02  0.00000000000E+00 0.  1.
         25    2    1    2    0    0 -0.21716460553E+02 -0.11634400346E+02  0.18117402995E+02  0.12877284321E+03  0.12508893207E+03 0.  0.
          5    1    3    3  502    0 -0.65481930000E+02 -0.26141800539E+02 -0.14546530404E+02  0.72113458097E+02  0.41800000000E+01 0. -1.
         -5    1    3    3    0  502  0.43765469448E+02  0.14507400194E+02  0.32663933400E+02  0.56659385114E+02  0.41800000000E+01 0. -1.
        -11    1    1    2    0    0 -0.13672519220E+01  0.21398645114E+02 -0.14446261537E+02  0.25854706785E+02  0.00000000000E+00 0.  1.
         11    1    1    2    0    0  0.23083712475E+02 -0.97642447680E+01  0.93488389274E+02  0.96789860969E+02  0.00000000000E+00 0. -1.
</event>
<event>
 7    1  0.2380582E-009  0.2714025E+03  0.7561462E-02  0.1100480E+00
          1   -1    0    0  501    0  0.00000000000E+00  0.00000000000E+00  0.12332612847E+03  0.12332612847E+03  0.00000000000E+00 0. -1.
         -1   -1    0    0    0  501 -0.00000000000E+00 -0.00000000000E+00 -0.84720978502E+03  0.84720978502E+03  0.00000000000E+00 0.  1.
         25    2    1    2    0    0 -0.21725711687E+03 -0.13831580615E+03 -0.61085157996E+03  0.67462514896E+03  0.12509005478E+03 0.  0.
          5    1    3    3  502    0 -0.14724969222E+03 -0.23342262771E+02 -0.36513431433E+03  0.39442093377E+03  0.41800000000E+01 0. -1.
         -5    1    3    3    0  502 -0.70007424648E+02 -0.11497354338E+03 -0.24571726563E+03  0.28020421519E+03  0.41800000000E+01 0. -1.
        -11    1    1    2    0    0  0.45543549560E+02  0.16465404192E+02  0.13483108249E+02  0.50270455039E+02  0.00000000000E+00 0. -1.
         11    1    1    2    0    0  0.17171356731E+03  0.12185040196E+03 -0.12651518484E+03  0.24564030950E+03  0.00000000000E+00 0.  1.
</event>
<event>
 7    1  0.2503676E-009  0.1085071E+03  0.7561462E-02  0.1263360E+00
         -1   -1    0    0    0  501 -0.00000000000E+00  0.00000000000E+00  0.65853448314E+03  0.65853448314E+03  0.00000000000E+00 0.  1.
          1   -1    0    0  501    0  0.00000000000E+00 -0.00000000000E+00 -0.27371603962E+02  0.27371603962E+02  0.00000000000E+00 0. -1.
         25    2    1    2    0    0  0.27881698001E+02  0.68874605798E+02  0.40722633881E+03  0.43243362299E+03  0.12507776327E+03 0.  0.
          5    1    3    3  502    0 -0.15782759021E+02 -0.30203837948E+02  0.65693764235E+02  0.74124964543E+02  0.41800000000E+01 0. -1.
         -5    1    3    3    0  502  0.43664457022E+02  0.99078443746E+02  0.34153257457E+03  0.35830865845E+03  0.41800000000E+01 0. -1.
        -11    1    1    2    0    0 -0.15396354835E+02 -0.35632193867E+02  0.21272120950E+03  0.21623370217E+03  0.00000000000E+00 0.  1.
         11    1    1    2    0    0 -0.12485343166E+02 -0.33242411931E+02  0.11215330874E+02  0.37238761950E+02  0.00000000000E+00 0. -1.
</event>
<event>
 7    1  0.2380582E-009  0.1145215E+03  0.7561462E-02  0.1252419E+00
          1   -1    0    0  501    0  0.00000000000E+00  0.00000000000E+00  0.27552213155E+02  0.27552213155E+02  0.00000000000E+00 0. -1.
         -1   -1    0    0    0  501 -0.00000000000E+00 -0.00000000000E+00 -0.76226302364E+03  0.76226302364E+03  0.00000000000E+00 0.  1.
         25    2    1    2    0    0 -0.31552273230E+01  0.55524209489E+02 -0.61246246710E+03  0.62757505333E+03  0.12508909090E+03 0.  0.
          5    1    3    3  502    0 -0.62948884359E+02  0.27560708314E+02 -0.25999477464E+03  0.26895521918E+03  0.41800000000E+01 0.  1.
         -5    1    3    3    0  502  0.59793657036E+02  0.27963501174E+02 -0.35246769246E+03  0.35861983415E+03  0.41800000000E+01 0.  1.
        -11    1    1    2    0    0  0.17075766634E+02  0.14659697418E+02 -0.23667006169E+01  0.22629401369E+02  0.00000000000E+00 0. -1.
         11    1    1    2    0    0 -0.13920539311E+02 -0.70183906906E+02 -0.11988164276E+03  0.13961078209E+03  0.00000000000E+00 0.  1.
</event>
<event>
 7    1  0.2380582E-009  0.8053941E+02  0.7561462E-02  0.1327528E+00
          1   -1    0    0  501    0  0.00000000000E+00  0.00000000000E+00  0.11392995117E+03  0.11392995117E+03  0.00000000000E+00 0. -1.
         -1   -1    0    0    0  501 -0.00000000000E+00 -0.00000000000E+00 -0.12992885094E+03  0.12992885094E+03  0.00000000000E+00 0.  1.
         25    2    1    2    0    0  0.39914181164E+02 -0.34234242120E+02  0.92867865854E+01  0.13602095226E+03  0.12510127840E+03 0.  0.
          5    1    3    3  502    0  0.89847916789E+01  0.11382859793E+02  0.59476584240E+02  0.61361489971E+02  0.41800000000E+01 0. -1.
         -5    1    3    3    0  502  0.30929389485E+02 -0.45617101913E+02 -0.50189797655E+02  0.74659462290E+02  0.41800000000E+01 0. -1.
        -11    1    1    2    0    0 -0.59028399682E+02  0.10032249473E+02  0.10293428341E+02  0.60753211154E+02  0.00000000000E+00 0. -1.
         11    1    1    2    0    0  0.19114218518E+02  0.24201992646E+02 -0.35579114701E+02  0.47084638689E+02  0.00000000000E+00 0.  1.
</event>
<event>
 7    1  0.2380582E-009  0.1602296E+03  0.7561462E-02  0.1188438E+00
         -2   -1    0    0    0  501 -0.00000000000E+00  0.00000000000E+00  0.23067402663E+02  0.23067402663E+02  0.00000000000E+00 0.  1.
          2   -1    0    0  501    0  0.00000000000E+00 -0.00000000000E+00 -0.14575581212E+04  0.14575581212E+04  0.00000000000E+00 0. -1.
         25    2    1    2    0    0 -0.12583102614E+03 -0.76587654162E+02 -0.81173614088E+03  0.83442212471E+03  0.12508238834E+03 0.  0.
          5    1    3    3  502    0 -0.26010077045E+01  0.34548963131E+01 -0.34566847698E+03  0.34572079765E+03  0.41800000000E+01 0.  1.
         -5    1    3    3    0  502 -0.12323001844E+03 -0.80042550475E+02 -0.46606766390E+03  0.48870132705E+03  0.41800000000E+01 0.  1.
        -11    1    1    2    0    0  0.54635547042E+02  0.79178261172E+02 -0.43194546506E+03  0.44252810626E+03  0.00000000000E+00 0.  1.
         11    1    1    2    0    0  0.71195479099E+02 -0.25906070106E+01 -0.19080911260E+03  0.20367529290E+03  0.00000000000E+00 0. -1.
</event>
<event>
 7    1  0.2380582E-009  0.1122342E+03  0.7561462E-02  0.1256488E+00
         -1   -1    0    0    0  501 -0.00000000000E+00  0.00000000000E+00  0.20576282520E+03  0.20576282520E+03  0.00000000000E+00 0.  1.
          1   -1    0    0  501    0  0.00000000000E+00 -0.00000000000E+00 -0.80218649525E+02  0.80218649525E+02  0.00000000000E+00 0. -1.
         25    2    1    2    0    0 -0.44342666182E+02 -0.51910014225E+02  0.77097256490E+02  0.16202613908E+03  0.12509021211E+03 0.  0.
          5    1    3    3  502    0 -0.31175313023E+02  0.28624203579E+02 -0.88459672291E+01  0.43439253088E+02  0.41800000000E+01 0. -1.
         -5    1    3    3    0  502 -0.13167353160E+02 -0.80534217804E+02  0.85943223719E+02  0.11858688599E+03  0.41800000000E+01 0. -1.
        -11    1    1    2    0    0 -0.19963720456E+02  0.20666645707E+02 -0.11206777679E+02  0.30842377424E+02  0.00000000000E+00 0. -1.
         11    1    1    2    0    0  0.64306386639E+02  0.31243368518E+02  0.59653696864E+02  0.93112958220E+02  0.00000000000E+00 0.  1.
</event>
<event>
 7    1  0.2380582E-009  0.1536138E+03  0.7561462E-02  0.1196101E+00
         -1   -1    0    0    0  501 -0.00000000000E+00  0.00000000000E+00  0.82912444239E+02  0.82912444239E+02  0.00000000000E+00 0.  1.
          1   -1    0    0  501    0  0.00000000000E+00 -0.00000000000E+00 -0.39291062676E+03  0.39291062676E+03  0.00000000000E+00 0. -1.
         25    2    1    2    0    0 -0.12789780149E+03  0.15320518350E+02 -0.68461114492E+02  0.19216489007E+03  0.12509138607E+03 0.  0.
          5    1    3    3  502    0 -0.14667367063E+03  0.33080637669E+02 -0.44981274582E+02  0.15699771243E+03  0.41800000000E+01 0.  1.
         -5    1    3    3    0  502  0.18775869149E+02 -0.17760119318E+02 -0.23479839910E+02  0.35167177633E+02  0.41800000000E+01 0.  1.
        -11    1    1    2    0    0  0.99027470194E+02 -0.25449171105E+01 -0.22932886867E+03  0.24980922013E+03  0.00000000000E+00 0. -1.
         11    1    1    2    0    0  0.28870331292E+02 -0.12775601240E+02 -0.12208199359E+02  0.33848960804E+02  0.00000000000E+00 0.  1.
</event>
<event>
 7    1  0.2380582E-009  0.5294343E+02  0.7561462E-02  0.1430083E+00
          2   -1    0    0  501    0  0.00000000000E+00  0.00000000000E+00  0.30840035144E+03  0.30840035144E+03  0.00000000000E+00 0. -1.
         -2   -1    0    0    0  501 -0.00000000000E+00 -0.00000000000E+00 -0.43302986511E+02  0.43302986511E+02  0.00000000000E+00 0.  1.
         25    2    1    2    0    0  0.22556490732E+02  0.19058755049E+01  0.20154940553E+03  0.23828985502E+03  0.12508982572E+03 0.  0.
          5    1    3    3  502    0  0.10409626112E+02 -0.52117971718E+01 -0.16012113626E+02  0.20233223380E+02  0.41800000000E+01 0.  1.
         -5    1    3    3    0  502  0.12146864619E+02  0.71176726767E+01  0.21756151915E+03  0.21805663164E+03  0.41800000000E+01 0.  1.
        -11    1    1    2    0    0 -0.35461945566E+02  0.28697133528E+02  0.47264170760E+01  0.45862992427E+02  0.00000000000E+00 0.  1.
         11    1    1    2    0    0  0.12905454834E+02 -0.30603009032E+02  0.58821542328E+02  0.67550490510E+02  0.00000000000E+00 0. -1.
</event>
<event>
 7    1  0.2380582E-009  0.8923510E+02  0.7561462E-02  0.1304715E+00
         -2   -1    0    0    0  501 -0.00000000000E+00  0.00000000000E+00  0.61622040425E+02  0.61622040425E+02  0.00000000000E+00 0.  1.
          2   -1    0    0  501    0  0.00000000000E+00 -0.00000000000E+00 -0.32722336395E+03  0.32722336395E+03  0.00000000000E+00 0. -1.
         25    2    1    2    0    0 -0.73695142452E+02 -0.46862228623E+02 -0.10702809385E+03  0.18635669211E+03  0.12508701503E+03 0.  0.
          5    1    3    3  502    0 -0.59197397487E+02 -0.27446670365E+02  0.10554273191E+02  0.66230783371E+02  0.41800000000E+01 0.  1.
         -5    1    3    3    0  502 -0.14497744965E+02 -0.19415558258E+02 -0.11758236704E+03  0.12012590874E+03  0.41800000000E+01 0.  1.
        -11    1    1    2    0    0  0.10311644907E+02  0.13133101894E+02  0.98594955017E+01  0.19391184533E+02  0.00000000000E+00 0.  1.
         11    1    1    2    0    0  0.63383497545E+02  0.33729126729E+02 -0.16843272518E+03  0.18309752773E+03  0.00000000000E+00 0. -1.
</event>
<event>
 7    1  0.2380582E-009  0.1169754E+03  0.7561462E-02  0.1248172E+00
          4   -1    0    0  501    0  0.00000000000E+00  0.00000000000E+00  0.30518037077E+02  0.30518037077E+02  0.00000000000E+00 0. -1.
         -4   -1    0    0    0  501 -0.00000000000E+00 -0.00000000000E+00 -0.53482756574E+03  0.53482756574E+03  0.00000000000E+00 0.  1.
         25    2    1    2    0    0  0.30612456883E+02  0.46121609501E+02 -0.36657900716E+03  0.39127218369E+03  0.12509767329E+03 0.  0.
          5    1    3    3  502    0 -0.42327122965E+02 -0.68553687371E+01 -0.80595531917E+02  0.91387600822E+02  0.41800000000E+01 0.  1.
         -5    1    3    3    0  502  0.72939579848E+02  0.52976978238E+02 -0.28598347524E+03  0.29988458287E+03  0.41800000000E+01 0.  1.
        -11    1    1    2    0    0  0.68803058407E+01 -0.60187226598E+02 -0.53552992465E+02  0.80856439793E+02  0.00000000000E+00 0. -1.
         11    1    1    2    0    0 -0.37492762724E+02  0.14065617096E+02 -0.84177529044E+02  0.93216979338E+02  0.00000000000E+00 0.  1.
</event>
<event>
 7    1  0.2380582E-009  0.1410007E+03  0.7561462E-02  0.1211989E+00
         -2   -1    0    0    0  501 -0.00000000000E+00  0.00000000000E+00  0.30817268206E+02  0.30817268206E+02  0.00000000000E+00 0.  1.
          2   -1    0    0  501    0  0.00000000000E+00 -0.00000000000E+00 -0.72166737822E+03  0.72166737822E+03  0.00000000000E+00 0. -1.
         25    2    1    2    0    0  0.89259950205E+02  0.34798493788E+02 -0.46594790605E+03  0.49186696169E+03  0.12508949981E+03 0.  0.
          5    1    3    3  502    0  0.11932867842E+03  0.27205314194E+02 -0.32069790078E+03  0.34328425332E+03  0.41800000000E+01 0. -1.
         -5    1    3    3    0  502 -0.30068728217E+02  0.75931795943E+01 -0.14525000527E+03  0.14858270836E+03  0.41800000000E+01 0. -1.
        -11    1    1    2    0    0 -0.70447635609E+02 -0.62891499407E+02 -0.18912883088E+03  0.21139518616E+03  0.00000000000E+00 0. -1.
         11    1    1    2    0    0 -0.18812314596E+02  0.28093005619E+02 -0.35773373088E+02  0.49222498589E+02  0.00000000000E+00 0.  1.
</event>
<event>
 7    1  0.2380582E-009  0.9528981E+02  0.7561462E-02  0.1290525E+00
         -2   -1    0    0    0  501 -0.00000000000E+00  0.00000000000E+00  0.61624735244E+02  0.61624735244E+02  0.00000000000E+00 0.  1.
          2   -1    0    0  501    0  0.00000000000E+00 -0.00000000000E+00 -0.21173190184E+03  0.21173190184E+03  0.00000000000E+00 0. -1.
         25    2    1    2    0    0  0.33306642026E+02  0.82720222551E+01 -0.83552785328E+02  0.15429239956E+03  0.12508923963E+03 0.  0.
          5    1    3    3  502    0 -0.31191299998E+02  0.21541551491E+02 -0.79515095640E+02  0.88187632188E+02  0.41800000000E+01 0. -1.
         -5    1    3    3    0  502  0.64497942024E+02 -0.13269529236E+02 -0.40376896878E+01  0.66104767373E+02  0.41800000000E+01 0. -1.
        -11    1    1    2    0    0 -0.20793969027E+02  0.35387352560E+02 -0.32772128837E+01  0.41175162336E+02  0.00000000000E+00 0.  1.
         11    1    1    2    0    0 -0.12512672999E+02 -0.43659374816E+02 -0.63277168389E+02  0.77889075191E+02  0.00000000000E+00 0. -1.
</event>
<event>
 7    1  0.2380582E-009  0.8210555E+02  0.7561462E-02  0.1323180E+00
         -1   -1    0    0    0  501 -0.00000000000E+00  0.00000000000E+00  0.65906413684E+02  0.65906413684E+02  0.00000000000E+00 0.  1.
          1   -1    0    0  501    0  0.00000000000E+00 -0.00000000000E+00 -0.19050602195E+03  0.19050602195E+03  0.00000000000E+00 0. -1.
         25    2    1    2    0    0  0.13687154719E+02 -0.12572746006E+02 -0.59871489447E+02  0.13991479431E+03  0.12508454049E+03 0.  0.
          5    1    3    3  502    0  0.52175289007E+02  0.13452729674E+02  0.10919486488E+02  0.55135689928E+02  0.41800000000E+01 0. -1.
         -5    1    3    3    0  502 -0.38488134288E+02 -0.26025475680E+02 -0.70790975935E+02  0.84779104378E+02  0.41800000000E+01 0. -1.
        -11    1    1    2    0    0 -0.10977696516E+02 -0.24238027057E+02  0.13619312570E+02  0.29891093177E+02  0.00000000000E+00 0.  1.
         11    1    1    2    0    0 -0.27094582034E+01  0.36810773063E+02 -0.78347431389E+02  0.86606548151E+02  0.00000000000E+00 0. -1.
</event>
<event>
 7    1  0.2380582E-009  0.9064472E+02  0.7561462E-02  0.1301298E+00
         -2   -1    0    0    0  501 -0.00000000000E+00  0.00000000000E+00  0.74716103263E+02  0.74716103263E+02  0.00000000000E+00 0.  1.
          2   -1    0    0  501    0  0.00000000000E+00 -0.00000000000E+00 -0.18606936334E+03  0.18606936334E+03  0.00000000000E+00 0. -1.
         25    2    1    2    0    0  0.22843460453E+02  0.18807381874E+01 -0.18138154974E+02  0.12846275603E+03  0.12509326984E+03 0.  0.
          5    1    3    3  502    0  0.57606188666E+02 -0.24267640093E+02 -0.45028910899E+02  0.77152229684E+02  0.41800000000E+01 0.  1.
         -5    1    3    3    0  502 -0.34762728214E+02  0.26148378281E+02  0.26890755926E+02  0.51310526345E+02  0.41800000000E+01 0.  1.
        -11    1    1    2    0    0 -0.48361817618E+02 -0.71410219639E+01 -0.16968653646E+02  0.51747413506E+02  0.00000000000E+00 0.  1.
         11    1    1    2    0    0  0.25518357166E+02  0.52602837765E+01 -0.76246451458E+02  0.80575297069E+02  0.00000000000E+00 0. -1.
</event>
<event>
 7    1  0.2380582E-009  0.1229138E+03  0.7561462E-02  0.1238366E+00
          1   -1    0    0  501    0  0.00000000000E+00  0.00000000000E+00  0.79368119303E+02  0.79368119303E+02  0.00000000000E+00 0. -1.
         -1   -1    0    0    0  501 -0.00000000000E+00 -0.00000000000E+00 -0.20118914022E+03  0.20118914022E+03  0.00000000000E+00 0.  1.
         25    2    1    2    0    0  0.31609112740E+02  0.55332782914E+02 -0.54555981225E+02  0.15061232906E+03  0.12508743224E+03 0.  0.
          5    1    3    3  502    0 -0.33312286174E+02 -0.16839715318E+02  0.29997497693E+01  0.37679640667E+02  0.41800000000E+01 0.  1.
         -5    1    3    3    0  502  0.64921398914E+02  0.72172498232E+02 -0.57555730994E+02  0.11293268840E+03  0.41800000000E+01 0.  1.
        -11    1    1    2    0    0  0.23052309657E+02 -0.51360394218E+02 -0.31644210199E+02  0.64580609427E+02  0.00000000000E+00 0.  1.
         11    1    1    2    0    0 -0.54661422398E+02 -0.39723886956E+01 -0.35620829494E+02  0.65364321034E+02  0.00000000000E+00 0. -1.
</event>
<event>
 7    1  0.2380582E-009  0.9550072E+02  0.7561462E-02  0.1290052E+00
          1   -1    0    0  501    0  0.00000000000E+00  0.00000000000E+00  0.74859732286E+02  0.74859732286E+02  0.00000000000E+00 0. -1.
         -1   -1    0    0    0  501 -0.00000000000E+00 -0.00000000000E+00 -0.21307188004E+03  0.21307188004E+03  0.00000000000E+00 0.  1.
         25    2    1    2    0    0  0.17235694640E+02 -0.41413395963E+02 -0.24384577729E+02  0.13510748733E+03  0.12508911610E+03 0.  0.
          5    1    3    3  502    0 -0.32286975193E+02 -0.10910711517E+02  0.36974917725E+02  0.50458986649E+02  0.41800000000E+01 0. -1.
         -5    1    3    3    0  502  0.49522669833E+02 -0.30502684446E+02 -0.61359495453E+02  0.84648500684E+02  0.41800000000E+01 0. -1.
        -11    1    1    2    0    0  0.15550590810E+02 -0.22013994805E+02 -0.14824886431E+02  0.30760593289E+02  0.00000000000E+00 0. -1.
         11    1    1    2    0    0 -0.32786285450E+02  0.63427390768E+02 -0.99002683599E+02  0.12206353171E+03  0.00000000000E+00 0.  1.
</event>
<event>
 7    1  0.2380582E-009  0.1178000E+03  0.7561462E-02  0.1246771E+00
         -2   -1    0    0    0  501 -0.00000000000E+00  0.00000000000E+00  0.18644164119E+02  0.18644164119E+02  0.00000000000E+00 0.  1.
          2   -1    0    0  501    0  0.00000000000E+00 -0.00000000000E+00 -0.13235323312E+04  0.13235323312E+04  0.00000000000E+00 0. -1.
         25    2    1    2    0    0 -0.88823233940E+02  0.30715365060E+02 -0.96190202395E+03  0.97454376433E+03  0.12508814645E+03 0.  0.
          5    1    3    3  502    0  0.15335896844E+02 -0.39333193512E+01 -0.18249515325E+02  0.24518930293E+02  0.41800000000E+01 0.  1.
         -5    1    3    3    0  502 -0.10415913078E+03  0.34648684411E+02 -0.94365250862E+03  0.95002483404E+03  0.41800000000E+01 0.  1.
        -11    1    1    2    0    0  0.69679861274E+02  0.39317830769E+01 -0.30459985691E+03  0.31249290362E+03  0.00000000000E+00 0.  1.
         11    1    1    2    0    0  0.19143372666E+02 -0.34647148137E+02 -0.38386286199E+02  0.55139827341E+02  0.00000000000E+00 0. -1.
</event>
<event>
 7    1  0.2380582E-009  0.1089157E+03  0.7561462E-02  0.1262591E+00
         -2   -1    0    0    0  501 -0.00000000000E+00  0.00000000000E+00  0.97479107015E+02  0.97479107015E+02  0.00000000000E+00 0. -1.
          2   -1    0    0  501    0  0.00000000000E+00 -0.00000000000E+00 -0.18870912223E+03  0.18870912223E+03  0.00000000000E+00 0.  1.
         25    2    1    2    0    0 -0.57910836908E+02  0.45568825385E+02 -0.13882297850E+02  0.14584304463E+03  0.12508913860E+03 0.  0.
          5    1    3    3  502    0 -0.92616617244E+02  0.51118927009E+02 -0.24927865984E+02  0.10876512948E+03  0.41800000000E+01 0. -1.
         -5    1    3    3    0  502  0.34705780336E+02 -0.55501016242E+01  0.11045568134E+02  0.37077915154E+02  0.41800000000E+01 0. -1.
        -11    1    1    2    0    0  0.38671551337E+02 -0.41831521635E+02 -0.97062856714E+02  0.11254582728E+03  0.00000000000E+00 0.  1.
         11    1    1    2    0    0  0.19239285571E+02 -0.37373037496E+01  0.19715139347E+02  0.27799357332E+02  0.00000000000E+00 0. -1.
</event>
<event>
 7    1  0.2380582E-009  0.1164306E+03  0.7561462E-02  0.1249104E+00
         -2   -1    0    0    0  501 -0.00000000000E+00  0.00000000000E+00  0.40071681097E+02  0.40071681097E+02  0.00000000000E+00 0.  1.
          2   -1    0    0  501    0  0.00000000000E+00 -0.00000000000E+00 -0.45218559755E+03  0.45218559755E+03  0.00000000000E+00 0. -1.
         25    2    1    2    0    0 -0.54509340423E+02 -0.41941016395E+02 -0.29968556028E+03  0.33194600211E+03  0.12508555562E+03 0.  0.
          5    1    3    3  502    0 -0.64247470568E+02  0.27467838848E+02 -0.11847427864E+03  0.13760758244E+03  0.41800000000E+01 0.  1.
         -5    1    3    3    0  502  0.97381301456E+01 -0.69408855243E+02 -0.18121128164E+03  0.19433841967E+03  0.41800000000E+01 0.  1.
        -11    1    1    2    0    0  0.36033403032E+02  0.57926100649E+02 -0.30334868829E+02  0.74659517393E+02  0.00000000000E+00 0.  1.
         11    1    1    2    0    0  0.18475937391E+02 -0.15985084255E+02 -0.82093487342E+02  0.85651759148E+02  0.00000000000E+00 0. -1.
</event>
<event>
 7    1  0.2380582E-009  0.1325041E+03  0.7561462E-02  0.1223787E+00
         -1   -1    0    0    0  501 -0.00000000000E+00  0.00000000000E+00  0.29070494656E+03  0.29070494656E+03  0.00000000000E+00 0.  1.
          1   -1    0    0  501    0  0.00000000000E+00 -0.00000000000E+00 -0.68718846364E+02  0.68718846364E+02  0.00000000000E+00 0. -1.
         25    2    1    2    0    0 -0.73634202654E+02 -0.71343869622E+02  0.10699086018E+03  0.19392067784E+03  0.12508493753E+03 0.  0.
          5    1    3    3  502    0 -0.84127024076E+02 -0.11108012403E+02  0.19615763918E+02  0.87195153039E+02  0.41800000000E+01 0. -1.
         -5    1    3    3    0  502  0.10492821422E+02 -0.60235857219E+02  0.87375096264E+02  0.10672552480E+03  0.41800000000E+01 0. -1.
        -11    1    1    2    0    0  0.60564737191E+02  0.17051617265E+02  0.55406833770E+02  0.83837713893E+02  0.00000000000E+00 0.  1.
         11    1    1    2    0    0  0.13069465463E+02  0.54292252357E+02  0.59588406246E+02  0.81665401196E+02  0.00000000000E+00 0. -1.
</event>
<event>
 7    1  0.2380582E-009  0.2028344E+03  0.7561462E-02  0.1147369E+00
          1   -1    0    0  501    0  0.00000000000E+00  0.00000000000E+00  0.44899880400E+03  0.44899880400E+03  0.00000000000E+00 0. -1.
         -1   -1    0    0    0  501 -0.00000000000E+00 -0.00000000000E+00 -0.10967616116E+03  0.10967616116E+03  0.00000000000E+00 0.  1.
         25    2    1    2    0    0 -0.99310757828E+02 -0.15010909539E+03  0.88571523567E+02  0.23640573444E+03  0.12508952534E+03 0.  0.
          5    1    3    3  502    0 -0.79841713277E+02 -0.20980591854E+02  0.61369167364E+02  0.10294916958E+03  0.41800000000E+01 0.  1.
         -5    1    3    3    0  502 -0.19469044551E+02 -0.12912850354E+03  0.27202356203E+02  0.13345656486E+03  0.41800000000E+01 0.  1.
        -11    1    1    2    0    0  0.10729847780E+03  0.11897029926E+03  0.16184396368E+03  0.22772870707E+03  0.00000000000E+00 0.  1.
         11    1    1    2    0    0 -0.79877199725E+01  0.31138796137E+02  0.88907155591E+02  0.94540523642E+02  0.00000000000E+00 0. -1.
</event>
<event>
 7    1  0.2380582E-009  0.1477923E+03  0.7561462E-02  0.1203212E+00
          2   -1    0    0  501    0  0.00000000000E+00  0.00000000000E+00  0.16333103976E+04  0.16333103976E+04  0.00000000000E+00 0. -1.
         -2   -1    0    0    0  501 -0.00000000000E+00 -0.00000000000E+00 -0.24076362560E+02  0.24076362560E+02  0.00000000000E+00 0.  1.
         25    2    1    2    0    0  0.12571666209E+03 -0.36674302468E+01  0.12869150099E+04  0.12990825836E+04  0.12508871756E+03 0.  0.
          5    1    3    3  502    0  0.13017026173E+03 -0.19354485629E+02  0.72141730602E+03  0.73333436779E+03  0.41800000000E+01 0.  1.
         -5    1    3    3    0  502 -0.44535996392E+01  0.15687055382E+02  0.56549770384E+03  0.56574821582E+03  0.41800000000E+01 0.  1.
        -11    1    1    2    0    0 -0.31883937979E+02 -0.33417096226E+02  0.16556034973E+03  0.17188227723E+03  0.00000000000E+00 0. -1.
         11    1    1    2    0    0 -0.93832724114E+02  0.37084526473E+02  0.15675867543E+03  0.18642189930E+03  0.00000000000E+00 0.  1.
</event>
<event>
 7    1  0.2380582E-009  0.1219021E+03  0.7561462E-02  0.1239992E+00
         -2   -1    0    0    0  501 -0.00000000000E+00  0.00000000000E+00  0.62737185838E+02  0.62737185838E+02  0.00000000000E+00 0.  1.
          2   -1    0    0  501    0  0.00000000000E+00 -0.00000000000E+00 -0.30355601128E+03  0.30355601128E+03  0.00000000000E+00 0. -1.
         25    2    1    2    0    0 -0.59098734740E+02 -0.61379809243E+02 -0.14837346063E+03  0.21194156659E+03  0.12507758551E+03 0.  0.
          5    1    3    3  502    0 -0.90486105563E+02 -0.36270437644E+02 -0.59431148511E+02  0.11424891142E+03  0.41800000000E+01 0.  1.
         -5    1    3    3    0  502  0.31387370823E+02 -0.25109371600E+02 -0.88942312115E+02  0.97692655167E+02  0.41800000000E+01 0.  1.
        -11    1    1    2    0    0  0.46089509666E+02  0.74331425455E+02 -0.10141576409E+03  0.13391997953E+03  0.00000000000E+00 0. -1.
         11    1    1    2    0    0  0.13009225074E+02 -0.12951616211E+02  0.89703992755E+01  0.20431651002E+02  0.00000000000E+00 0.  1.
</event>
<event>
 7    1  0.2380582E-009  0.1612014E+03  0.7561462E-02  0.1187347E+00
          2   -1    0    0  501    0  0.00000000000E+00  0.00000000000E+00  0.24706586506E+03  0.24706586506E+03  0.00000000000E+00 0. -1.
         -2   -1    0    0    0  501 -0.00000000000E+00 -0.00000000000E+00 -0.26411974080E+03  0.26411974080E+03  0.00000000000E+00 0.  1.
         25    2    1    2    0    0 -0.84286546233E+02  0.11442628328E+03  0.17351061134E+03  0.25680912727E+03  0.12508956558E+03 0.  0.
          5    1    3    3  502    0 -0.29043263883E+02  0.93661198042E+02  0.17151244089E+03  0.19761052851E+03  0.41800000000E+01 0.  1.
         -5    1    3    3    0  502 -0.55243282350E+02  0.20765085243E+02  0.19981704505E+01  0.59198598760E+02  0.41800000000E+01 0.  1.
        -11    1    1    2    0    0  0.20822396789E+01  0.13153873409E+02 -0.33093465580E+02  0.35672644587E+02  0.00000000000E+00 0.  1.
         11    1    1    2    0    0  0.82204306554E+02 -0.12758015669E+03 -0.15747102150E+03  0.21870383401E+03  0.00000000000E+00 0. -1.
</event>
<event>
 7    1  0.2380582E-009  0.1320264E+03  0.7561462E-02  0.1224480E+00
         -1   -1    0    0    0  501 -0.00000000000E+00  0.00000000000E+00  0.14079472940E+03  0.14079472940E+03  0.00000000000E+00 0.  1.
          1   -1    0    0  501    0  0.00000000000E+00 -0.00000000000E+00 -0.18006275398E+03  0.18006275398E+03  0.00000000000E+00 0. -1.
         25    2    1    2    0    0  0.74887438453E+02 -0.15935114292E+02 -0.10995250605E+03  0.18330753875E+03  0.12510013538E+03 0.  0.
          5    1    3    3  502    0  0.64935447339E+02 -0.67635748157E+02 -0.70424409502E+02  0.11733829981E+03  0.41800000000E+01 0.  1.
         -5    1    3    3    0  502  0.99519911148E+01  0.51700633865E+02 -0.39528096550E+02  0.65969238938E+02  0.41800000000E+01 0.  1.
        -11    1    1    2    0    0  0.14737920682E+02 -0.16449469117E+02  0.80251124144E+01  0.23498803576E+02  0.00000000000E+00 0. -1.
         11    1    1    2    0    0 -0.89625359136E+02  0.32384583409E+02  0.62659369059E+02  0.11405114105E+03  0.00000000000E+00 0.  1.
</event>
<event>
 7    1  0.2380582E-009  0.1403063E+03  0.7561462E-02  0.1212917E+00
          2   -1    0    0  501    0  0.00000000000E+00  0.00000000000E+00  0.46612598955E+03  0.46612598955E+03  0.00000000000E+00 0. -1.
         -2   -1    0    0    0  501 -0.00000000000E+00 -0.00000000000E+00 -0.89257708942E+02  0.89257708942E+02  0.00000000000E+00 0.  1.
         25    2    1    2    0    0 -0.56702934781E+02 -0.10978437262E+03  0.34029235172E+02  0.17908831417E+03  0.12508718615E+03 0.  0.
          5    1    3    3  502    0 -0.21593343559E+02 -0.66763832698E+02 -0.44221344527E+02  0.83046261531E+02  0.41800000000E+01 0. -1.
         -5    1    3    3    0  502 -0.35109591222E+02 -0.43020539926E+02  0.78250579699E+02  0.96042052636E+02  0.41800000000E+01 0. -1.
        -11    1    1    2    0    0 -0.20719861883E+02  0.52916757677E+00  0.56821826179E+02  0.60483986518E+02  0.00000000000E+00 0. -1.
         11    1    1    2    0    0  0.77422796663E+02  0.10925520505E+03  0.28601721925E+03  0.31581139780E+03  0.00000000000E+00 0.  1.
</event>
<event>
 7    1  0.2380582E-009  0.2942619E+03  0.7561462E-02  0.1088145E+00
         -1   -1    0    0    0  501 -0.00000000000E+00  0.00000000000E+00  0.63266969732E+03  0.63266969732E+03  0.00000000000E+00 0.  1.
          1   -1    0    0  501    0  0.00000000000E+00 -0.00000000000E+00 -0.19584722697E+03  0.19584722697E+03  0.00000000000E+00 0. -1.
         25    2    1    2    0    0  0.28656247518E+03 -0.87083248632E+01  0.18236483332E+02  0.31332759375E+03  0.12509086529E+03 0.  0.
          5    1    3    3  502    0  0.27104430380E+03 -0.16005115072E+02  0.50827091653E+02  0.27626444573E+03  0.41800000000E+01 0.  1.
         -5    1    3    3    0  502  0.15518171382E+02  0.72967902092E+01 -0.32590608321E+02  0.37063148020E+02  0.41800000000E+01 0.  1.
        -11    1    1    2    0    0 -0.12207619613E+03 -0.38836834661E+02  0.20032002505E+03  0.23777933011E+03  0.00000000000E+00 0.  1.
         11    1    1    2    0    0 -0.16448627905E+03  0.47545159525E+02  0.21826596196E+03  0.27741000043E+03  0.00000000000E+00 0. -1.
</event>
<event>
 7    1  0.2380582E-009  0.1003193E+03  0.7561462E-02  0.1279626E+00
          1   -1    0    0  501    0  0.00000000000E+00  0.00000000000E+00  0.11150661339E+04  0.11150661339E+04  0.00000000000E+00 0. -1.
         -1   -1    0    0    0  501 -0.00000000000E+00 -0.00000000000E+00 -0.19211039361E+02  0.19211039361E+02  0.00000000000E+00 0.  1.
         25    2    1    2    0    0 -0.84338179154E+01  0.69677735256E+02  0.86412032055E+03  0.87594350628E+03  0.12508789602E+03 0.  0.
          5    1    3    3  502    0  0.30761840584E+02  0.82621046864E+02  0.73599692209E+03  0.74127017339E+03  0.41800000000E+01 0. -1.
         -5    1    3    3    0  502 -0.39195658500E+02 -0.12943311608E+02  0.12812339846E+03  0.13467333290E+03  0.41800000000E+01 0. -1.
        -11    1    1    2    0    0  0.10072514016E+02 -0.43117795760E+02  0.22703357308E+03  0.23131113929E+03  0.00000000000E+00 0. -1.
         11    1    1    2    0    0 -0.16386961009E+01 -0.26559939496E+02  0.47012008563E+01  0.27022527647E+02  0.00000000000E+00 0.  1.
</event>
<event>
 7    1  0.2380582E-009  0.1029277E+03  0.7561462E-02  0.1274257E+00
         -2   -1    0    0    0  501 -0.00000000000E+00  0.00000000000E+00  0.88065648860E+02  0.88065648860E+02  0.00000000000E+00 0.  1.
          2   -1    0    0  501    0  0.00000000000E+00 -0.00000000000E+00 -0.15406396163E+03  0.15406396163E+03  0.00000000000E+00 0. -1.
         25    2    1    2    0    0  0.25229452054E+02 -0.10141088208E+02 -0.74564825551E+02  0.14814483989E+03  0.12509042111E+03 0.  0.
          5    1    3    3  502    0  0.84606298515E+01  0.57460141541E+02 -0.34659680398E+02  0.67764415209E+02  0.41800000000E+01 0. -1.
         -5    1    3    3    0  502  0.16768822203E+02 -0.67601229749E+02 -0.39905145152E+02  0.80380424677E+02  0.41800000000E+01 0. -1.
        -11    1    1    2    0    0 -0.47425877098E+02 -0.93170958888E+01  0.30551942996E+02  0.57179046119E+02  0.00000000000E+00 0.  1.
         11    1    1    2    0    0  0.22196425043E+02  0.19458184097E+02 -0.21985430215E+02  0.36805724484E+02  0.00000000000E+00 0. -1.
</event>
<event>
 7    1  0.2380582E-009  0.9466427E+02  0.7561462E-02  0.1291934E+00
          2   -1    0    0  501    0  0.00000000000E+00  0.00000000000E+00  0.20292988971E+03  0.20292988971E+03  0.00000000000E+00 0. -1.
         -2   -1    0    0    0  501 -0.00000000000E+00 -0.00000000000E+00 -0.69025900844E+02  0.69025900844E+02  0.00000000000E+00 0.  1.
         25    2    1    2    0    0  0.19479083638E+02  0.39469785220E+02  0.10226318058E+03  0.16745948865E+03  0.12509046163E+03 0.  0.
          5    1    3    3  502    0 -0.35411556295E+02  0.37235665663E+02  0.99776012339E+02  0.11230849547E+03  0.41800000000E+01 0.  1.
         -5    1    3    3    0  502  0.54890639933E+02  0.22341195567E+01  0.24871682405E+01  0.55150993176E+02  0.41800000000E+01 0.  1.
        -11    1    1    2    0    0 -0.42002736188E+02 -0.42733170524E+02 -0.63032826930E+01  0.60250187411E+02  0.00000000000E+00 0.  1.
         11    1    1    2    0    0  0.22523652551E+02  0.32633853038E+01  0.37944090982E+02  0.44246114499E+02  0.00000000000E+00 0. -1.
</event>
<event>
 7    1  0.2380582E-009  0.1954720E+03  0.7561462E-02  0.1153616E+00
          2   -1    0    0  501    0  0.00000000000E+00  0.00000000000E+00  0.25305498039E+04  0.25305498039E+04  0.00000000000E+00 0. -1.
         -2   -1    0    0    0  501 -0.00000000000E+00 -0.00000000000E+00 -0.21772741595E+02  0.21772741595E+02  0.00000000000E+00 0.  1.
         25    2    1    2    0    0  0.17747788941E+03  0.10318813908E+02  0.18890554101E+04  0.19015209875E+04  0.12508734662E+03 0.  0.
          5    1    3    3  502    0  0.83220498555E+02  0.60346929218E+02  0.11788906428E+04  0.11833714647E+04  0.41800000000E+01 0. -1.
         -5    1    3    3    0  502  0.94257390852E+02 -0.50028115310E+02  0.71016476728E+03  0.71814952283E+03  0.41800000000E+01 0. -1.
        -11    1    1    2    0    0 -0.13317902924E+03  0.77998931011E+01  0.55188617345E+03  0.56778150781E+03  0.00000000000E+00 0. -1.
         11    1    1    2    0    0 -0.44298860166E+02 -0.18118707009E+02  0.67835478711E+02  0.83020050154E+02  0.00000000000E+00 0.  1.
</event>
<event>
 7    1  0.2380582E-009  0.8812117E+02  0.7561462E-02  0.1307466E+00
         -3   -1    0    0    0  501 -0.00000000000E+00  0.00000000000E+00  0.35366690029E+03  0.35366690029E+03  0.00000000000E+00 0.  1.
          3   -1    0    0  501    0  0.00000000000E+00 -0.00000000000E+00 -0.47889079348E+02  0.47889079348E+02  0.00000000000E+00 0. -1.
         25    2    1    2    0    0 -0.59651732969E+01 -0.35353480898E+02  0.73414132396E+02  0.14940990904E+03  0.12509290219E+03 0.  0.
          5    1    3    3  502    0  0.49139333304E+02 -0.77224910907E+01  0.71995817485E+02  0.87608110821E+02  0.41800000000E+01 0. -1.
         -5    1    3    3    0  502 -0.55104506601E+02 -0.27630989808E+02  0.14183149105E+01  0.61801798215E+02  0.41800000000E+01 0. -1.
        -11    1    1    2    0    0 -0.14958733346E+02 -0.75863912574E+01  0.20105680653E+01  0.16892584751E+02  0.00000000000E+00 0. -1.
         11    1    1    2    0    0  0.20923906642E+02  0.42939872156E+02  0.23035312048E+03  0.23525348586E+03  0.00000000000E+00 0.  1.
</event>
<event>
 7    1  0.2380582E-009  0.8622247E+02  0.7561462E-02  0.1312266E+00
         -2   -1    0    0    0  501 -0.00000000000E+00  0.00000000000E+00  0.58462096514E+02  0.58462096514E+02  0.00000000000E+00 0.  1.
          2   -1    0    0  501    0  0.00000000000E+00 -0.00000000000E+00 -0.23202106127E+03  0.23202106127E+03  0.00000000000E+00 0. -1.
         25    2    1    2    0    0 -0.32722642741E+02  0.33452697106E+02 -0.91051602021E+02  0.16163898590E+03  0.12508762225E+03 0.  0.
          5    1    3    3  502    0  0.13702948729E+02 -0.34825702306E+02  0.13120464529E+01  0.37680156726E+02  0.41800000000E+01 0. -1.
         -5    1    3    3    0  502 -0.46425591470E+02  0.68278399412E+02 -0.92363648474E+02  0.12395882917E+03  0.41800000000E+01 0. -1.
        -11    1    1    2    0    0  0.28568935653E+02 -0.13253904707E+02 -0.98074192350E+02  0.10300678269E+03  0.00000000000E+00 0. -1.
         11    1    1    2    0    0  0.41537070881E+01 -0.20198792399E+02  0.15566829610E+02  0.25837389208E+02  0.00000000000E+00 0.  1.
</event>
<event>
 7    1  0.2380582E-009  0.2368406E+03  0.7561462E-02  0.1121916E+00
         -2   -1    0    0    0  501 -0.00000000000E+00  0.00000000000E+00  0.67308400157E+02  0.67308400157E+02  0.00000000000E+00 0.  1.
          2   -1    0    0  501    0  0.00000000000E+00 -0.00000000000E+00 -0.85987565936E+03  0.85987565936E+03  0.00000000000E+00 0. -1.
         25    2    1    2    0    0  0.21416982629E+03 -0.68810432262E+01 -0.38535727618E+03  0.45832587274E+03  0.12508521921E+03 0.  0.
          5    1    3    3  502    0  0.18312982159E+03  0.37616739881E+02 -0.24813966292E+03  0.31071259290E+03  0.41800000000E+01 0.  1.
         -5    1    3    3    0  502  0.31040004693E+02 -0.44497783107E+02 -0.13721761327E+03  0.14761327983E+03  0.41800000000E+01 0.  1.
        -11    1    1    2    0    0 -0.48198963437E+02  0.40463203176E+02 -0.10346061124E+03  0.12109710552E+03  0.00000000000E+00 0.  1.
         11    1    1    2    0    0 -0.16597086285E+03 -0.33582159950E+02 -0.30374937178E+03  0.34776108126E+03  0.00000000000E+00 0. -1.
</event>
<event>
 7    1  0.2380582E-009  0.1559228E+03  0.7561462E-02  0.1193378E+00
          2   -1    0    0  501    0  0.00000000000E+00  0.00000000000E+00  0.38467966051E+02  0.38467966051E+02  0.00000000000E+00 0. -1.
         -2   -1    0    0    0  501 -0.00000000000E+00 -0.00000000000E+00 -0.74732038370E+03  0.74732038370E+03  0.00000000000E+00 0.  1.
         25    2    1    2    0    0 -0.82384450092E+02  0.10001245599E+03 -0.40489210158E+03  0.44314220705E+03  0.12509081813E+03 0.  0.
          5    1    3    3  502    0  0.12142930704E+02 -0.21654574469E+02 -0.43589182874E+02  0.50337467409E+02  0.41800000000E+01 0.  1.
         -5    1    3    3    0  502 -0.94527380797E+02  0.12166703046E+03 -0.36130291870E+03  0.39280473964E+03  0.41800000000E+01 0.  1.
        -11    1    1    2    0    0  0.69424661794E+02 -0.96915384441E+02 -0.30668904164E+03  0.32904489613E+03  0.00000000000E+00 0.  1.
         11    1    1    2    0    0  0.12959788298E+02 -0.30970715471E+01  0.27287255746E+01  0.13601246567E+02  0.00000000000E+00 0. -1.
</event>
<event>
 7    1  0.2380582E-009  0.1403482E+03  0.7561462E-02  0.1212861E+00
         -1   -1    0    0    0  501 -0.00000000000E+00  0.00000000000E+00  0.20067459630E+02  0.20067459630E+02  0.00000000000E+00 0.  1.
          1   -1    0    0  501    0  0.00000000000E+00 -0.00000000000E+00 -0.11637070281E+04  0.11637070281E+04  0.00000000000E+00 0. -1.
         25    2    1    2    0    0  0.95882033214E+02 -0.43394873573E+02 -0.67490966103E+03  0.69442555237E+03  0.12508923972E+03 0.  0.
          5    1    3    3  502    0 -0.27153798015E+02 -0.11314374392E+02 -0.66172534094E+02  0.72537028357E+02  0.41800000000E+01 0. -1.
         -5    1    3    3    0  502  0.12303583123E+03 -0.32080499181E+02 -0.60873712693E+03  0.62188852402E+03  0.41800000000E+01 0. -1.
        -11    1    1    2    0    0 -0.43784239422E+01 -0.14726749435E+02 -0.10841974913E+02  0.18804152870E+02  0.00000000000E+00 0.  1.
         11    1    1    2    0    0 -0.91503609272E+02  0.58121623008E+02 -0.45788793256E+03  0.47054478251E+03  0.00000000000E+00 0. -1.
</event>
<event>
 7    1  0.2380582E-009  0.8067770E+02  0.7561462E-02  0.1327139E+00
         -3   -1    0    0    0  501 -0.00000000000E+00  0.00000000000E+00  0.99735124705E+03  0.99735124705E+03  0.00000000000E+00 0.  1.
          3   -1    0    0  501    0  0.00000000000E+00 -0.00000000000E+00 -0.17387972002E+02  0.17387972002E+02  0.00000000000E+00 0. -1.
         25    2    1    2    0    0  0.16250640890E+02  0.55599194158E+02  0.72387891630E+03  0.73688763209E+03  0.12508934062E+03 0.  0.
          5    1    3    3  502    0  0.10692081515E+02  0.23704766825E+02  0.22190220965E+02  0.34440018639E+02  0.41800000000E+01 0.  1.
         -5    1    3    3    0  502  0.55585593755E+01  0.31894427333E+02  0.70168869533E+03  0.70244761345E+03  0.41800000000E+01 0.  1.
        -11    1    1    2    0    0  0.34412030147E+02 -0.15406053718E+02  0.13979280688E+03  0.14478799386E+03  0.00000000000E+00 0.  1.
         11    1    1    2    0    0 -0.50662671037E+02 -0.40193140440E+02  0.11629155187E+03  0.13306359311E+03  0.00000000000E+00 0. -1.
</event>
<event>
 7    1  0.2380582E-009  0.2436558E+03  0.7561462E-02  0.1117381E+00
          3   -1    0    0  501    0  0.00000000000E+00  0.00000000000E+00  0.42749295580E+03  0.42749295580E+03  0.00000000000E+00 0. -1.
         -3   -1    0    0    0  501 -0.00000000000E+00 -0.00000000000E+00 -0.16184799970E+03  0.16184799970E+03  0.00000000000E+00 0.  1.
         25    2    1    2    0    0  0.22918325816E+03 -0.36931535935E+02  0.68727073709E+02  0.27250458506E+03  0.12508570682E+03 0.  0.
          5    1    3    3  502    0  0.12649860573E+03  0.32994721853E+02  0.68993520043E+00  0.13079945463E+03  0.41800000000E+01 0. -1.
         -5    1    3    3    0  502  0.10268465243E+03 -0.69926257788E+02  0.68037138509E+02  0.14170513043E+03  0.41800000000E+01 0. -1.
        -11    1    1    2    0    0 -0.13287831976E+03  0.24281395044E+02  0.16784042392E+03  0.21544521788E+03  0.00000000000E+00 0. -1.
         11    1    1    2    0    0 -0.96304938400E+02  0.12650140891E+02  0.29077458479E+02  0.10139115255E+03  0.00000000000E+00 0.  1.
</event>
<event>
 7    1  0.2380582E-009  0.6504669E+02  0.7561462E-02  0.1377796E+00
          2   -1    0    0  501    0  0.00000000000E+00  0.00000000000E+00  0.28087440429E+03  0.28087440429E+03  0.00000000000E+00 0. -1.
         -2   -1    0    0    0  501 -0.00000000000E+00 -0.00000000000E+00 -0.48225300926E+02  0.48225300926E+02  0.00000000000E+00 0.  1.
         25    2    1    2    0    0  0.35754127412E+02  0.22744623144E+02  0.14134155013E+03  0.19344104795E+03  0.12508528982E+03 0.  0.
          5    1    3    3  502    0  0.21519146166E+02 -0.65073165819E+00 -0.20034526469E+02  0.29704406310E+02  0.41800000000E+01 0. -1.
         -5    1    3    3    0  502  0.14234981246E+02  0.23395354802E+02  0.16137607660E+03  0.16373664164E+03  0.41800000000E+01 0. -1.
        -11    1    1    2    0    0  0.13653348108E+02  0.13486604527E+02  0.67084782852E+02  0.69775859052E+02  0.00000000000E+00 0. -1.
         11    1    1    2    0    0 -0.49407475521E+02 -0.36231227671E+02  0.24222770389E+02  0.65882798219E+02  0.00000000000E+00 0.  1.
</event>
<event>
 7    1  0.2380582E-009  0.1022916E+03  0.7561462E-02  0.1275549E+00
         -1   -1    0    0    0  501 -0.00000000000E+00  0.00000000000E+00  0.49505508906E+02  0.49505508906E+02  0.00000000000E+00 0.  1.
          1   -1    0    0  501    0  0.00000000000E+00 -0.00000000000E+00 -0.45979629570E+03  0.45979629570E+03  0.00000000000E+00 0. -1.
         25    2    1    2    0    0  0.66895405839E+02 -0.66292291342E+02 -0.29581375487E+03  0.33469841930E+03  0.12509033175E+03 0.  0.
          5    1    3    3  502    0  0.16867445960E+01  0.93365290539E+01  0.91167725069E+01  0.13805934342E+02  0.41800000000E+01 0.  1.
         -5    1    3    3    0  502  0.65208661243E+02 -0.75628820396E+02 -0.30493052737E+03  0.32089248496E+03  0.41800000000E+01 0.  1.
        -11    1    1    2    0    0 -0.25532408028E+02  0.22518338022E+02  0.10705323981E+02  0.35687299820E+02  0.00000000000E+00 0.  1.
         11    1    1    2    0    0 -0.41362997811E+02  0.43773953321E+02 -0.12518235590E+03  0.13891608549E+03  0.00000000000E+00 0. -1.
</event>
<event>
 7    1  0.2380582E-009  0.6365877E+02  0.7561462E-02  0.1383089E+00
          1   -1    0    0  501    0  0.00000000000E+00  0.00000000000E+00  0.10347614477E+03  0.10347614477E+03  0.00000000000E+00 0. -1.
         -1   -1    0    0    0  501 -0.00000000000E+00 -0.00000000000E+00 -0.13818868104E+03  0.13818868104E+03  0.00000000000E+00 0.  1.
         25    2    1    2    0    0  0.44293938620E+02 -0.19921515778E+02 -0.23011892446E+02  0.13613611247E+03  0.12507867178E+03 0.  0.
          5    1    3    3  502    0  0.46864044587E+02 -0.22518320397E+02  0.44398031881E+02  0.68497963937E+02  0.41800000000E+01 0. -1.
         -5    1    3    3    0  502 -0.25701059675E+01  0.25968046195E+01 -0.67409924327E+02  0.67638148531E+02  0.41800000000E+01 0. -1.
        -11    1    1    2    0    0 -0.11866315613E+02 -0.16829703747E+02  0.33194033080E+02  0.39062670244E+02  0.00000000000E+00 0. -1.
         11    1    1    2    0    0 -0.32427623007E+02  0.36751219524E+02 -0.44894676910E+02  0.66466043099E+02  0.00000000000E+00 0.  1.
</event>
<event>
 7    1  0.2380582E-009  0.1130563E+03  0.7561462E-02  0.1255013E+00
          3   -1    0    0  501    0  0.00000000000E+00  0.00000000000E+00  0.14686426347E+03  0.14686426347E+03  0.00000000000E+00 0. -1.
         -3   -1    0    0    0  501 -0.00000000000E+00 -0.00000000000E+00 -0.97459008526E+02  0.97459008526E+02  0.00000000000E+00 0.  1.
         25    2    1    2    0    0 -0.34233444907E+02  0.11610117964E+02  0.66635150894E+02  0.14626167293E+03  0.12508201327E+03 0.  0.
          5    1    3    3  502    0  0.47306855908E+02  0.99137425767E+01  0.26102380175E+02  0.55091084202E+02  0.41800000000E+01 0.  1.
         -5    1    3    3    0  502 -0.81540300815E+02  0.16963753871E+01  0.40532770720E+02  0.91170588726E+02  0.41800000000E+01 0.  1.
        -11    1    1    2    0    0 -0.50912576370E+01 -0.44424505840E+02 -0.13499386947E+02  0.46708575994E+02  0.00000000000E+00 0. -1.
         11    1    1    2    0    0  0.39324702544E+02  0.32814387876E+02 -0.37305089980E+01  0.51353023078E+02  0.00000000000E+00 0.  1.
</event>
<event>
 7    1  0.2380582E-009  0.2069308E+03  0.7561462E-02  0.1144020E+00
         -1   -1    0    0    0  501 -0.00000000000E+00  0.00000000000E+00  0.42020417850E+03  0.42020417850E+03  0.00000000000E+00 0.  1.
          1   -1    0    0  501    0  0.00000000000E+00 -0.00000000000E+00 -0.12866926854E+03  0.12866926854E+03  0.00000000000E+00 0. -1.
         25    2    1    2    0    0  0.19600305829E+02  0.18877649408E+03  0.58979378497E+02  0.23483029176E+03  0.12508382043E+03 0.  0.
          5    1    3    3  502    0 -0.76559392053E+01  0.19512754366E+03  0.65087742165E+02  0.20588166086E+03  0.41800000000E+01 0.  1.
         -5    1    3    3    0  502  0.27256245034E+02 -0.63510495768E+01 -0.61083636677E+01  0.28948630897E+02  0.41800000000E+01 0.  1.
        -11    1    1    2    0    0 -0.20156916407E+02 -0.13814957890E+03  0.22211423678E+03  0.26234774939E+03  0.00000000000E+00 0.  1.
         11    1    1    2    0    0  0.55661057768E+00 -0.50626915181E+02  0.10441294679E+02  0.51695405895E+02  0.00000000000E+00 0. -1.
</event>
<event>
 7    1  0.2380582E-009  0.1139011E+03  0.7561462E-02  0.1253511E+00
         -2   -1    0    0    0  501 -0.00000000000E+00  0.00000000000E+00  0.48538286109E+02  0.48538286109E+02  0.00000000000E+00 0.  1.
          2   -1    0    0  501    0  0.00000000000E+00 -0.00000000000E+00 -0.33872076715E+03  0.33872076715E+03  0.00000000000E+00 0. -1.
         25    2    1    2    0    0 -0.69520153504E+02  0.19779669787E+02 -0.18480846479E+03  0.23458036135E+03  0.12509792242E+03 0.  0.
          5    1    3    3  502    0 -0.41642648813E+02 -0.40538095244E+02 -0.14674257624E+03  0.15788699582E+03  0.41800000000E+01 0.  1.
         -5    1    3    3    0  502 -0.27877504691E+02  0.60317765032E+02 -0.38065888553E+02  0.76693365538E+02  0.41800000000E+01 0.  1.
        -11    1    1    2    0    0  0.21834078729E+02  0.27963480035E+02 -0.11955617195E+02  0.37438215664E+02  0.00000000000E+00 0.  1.
         11    1    1    2    0    0  0.47686074775E+02 -0.47743149822E+02 -0.93418399053E+02  0.11524047624E+03  0.00000000000E+00 0. -1.
</event>
<event>
 7    1  0.2380582E-009  0.2097283E+03  0.7561462E-02  0.1141781E+00
          2   -1    0    0  501    0  0.00000000000E+00  0.00000000000E+00  0.45361996766E+03  0.45361996766E+03  0.00000000000E+00 0. -1.
         -2   -1    0    0    0  501 -0.00000000000E+00 -0.00000000000E+00 -0.12184732178E+03  0.12184732178E+03  0.00000000000E+00 0.  1.
         25    2    1    2    0    0 -0.18842999399E+03 -0.17038292914E+02  0.27960795991E+03  0.36003392344E+03  0.12509056208E+03 0.  0.
          5    1    3    3  502    0 -0.16023767056E+03  0.22956162503E+02  0.26172861327E+03  0.30777010229E+03  0.41800000000E+01 0.  1.
         -5    1    3    3    0  502 -0.28192323436E+02 -0.39994455417E+02  0.17879346645E+02  0.52263821151E+02  0.41800000000E+01 0.  1.
        -11    1    1    2    0    0  0.11552530370E+03  0.53028006736E+02  0.23798331870E+02  0.12932295192E+03  0.00000000000E+00 0. -1.
         11    1    1    2    0    0  0.72904690292E+02 -0.35989713822E+02  0.28366354101E+02  0.86110414077E+02  0.00000000000E+00 0.  1.
</event>
<event>
 7    1  0.2380582E-009  0.1451994E+03  0.7561462E-02  0.1206499E+00
         -2   -1    0    0    0  501 -0.00000000000E+00  0.00000000000E+00  0.24442748134E+02  0.24442748134E+02  0.00000000000E+00 0.  1.
          2   -1    0    0  501    0  0.00000000000E+00 -0.00000000000E+00 -0.96538858480E+03  0.96538858480E+03  0.00000000000E+00 0. -1.
         25    2    1    2    0    0 -0.86609454444E+02 -0.47765497928E+02 -0.36863900514E+03  0.40165340503E+03  0.12509197124E+03 0.  0.
          5    1    3    3  502    0 -0.35556974374E+01 -0.72344617850E+02 -0.15789320150E+03  0.17376455967E+03  0.41800000000E+01 0. -1.
         -5    1    3    3    0  502 -0.83053757007E+02  0.24579119922E+02 -0.21074580364E+03  0.22788884536E+03  0.41800000000E+01 0. -1.
        -11    1    1    2    0    0  0.91527099788E+02  0.89034886168E+01 -0.46350719675E+03  0.47254143050E+03  0.00000000000E+00 0. -1.
         11    1    1    2    0    0 -0.49176453437E+01  0.38862009311E+02 -0.10879963478E+03  0.11563649741E+03  0.00000000000E+00 0.  1.
</event>
<event>
 7    1  0.2380582E-009  0.3003307E+03  0.7561462E-02  0.1085075E+00
         -1   -1    0    0    0  501 -0.00000000000E+00  0.00000000000E+00  0.62524169218E+02  0.62524169218E+02  0.00000000000E+00 0.  1.
          1   -1    0    0  501    0  0.00000000000E+00 -0.00000000000E+00 -0.16234627014E+04  0.16234627014E+04  0.00000000000E+00 0. -1.
         25    2    1    2    0    0 -0.28409492017E+00  0.29975315803E+03 -0.80870399510E+03  0.87149389298E+03  0.12508963724E+03 0.  0.
          5    1    3    3  502    0 -0.52930041058E+01  0.20582610862E+02 -0.73394477187E+01  0.22869185713E+02  0.41800000000E+01 0.  1.
         -5    1    3    3    0  502  0.50089091856E+01  0.27917054717E+03 -0.80136454738E+03  0.84862470727E+03  0.41800000000E+01 0. -1.
        -11    1    1    2    0    0 -0.11315834768E+00 -0.25869258136E+03 -0.70967164315E+03  0.75535137886E+03  0.00000000000E+00 0. -1.
         11    1    1    2    0    0  0.39725326785E+00 -0.41060576667E+02 -0.42562893929E+02  0.59141598778E+02  0.00000000000E+00 0.  1.
</event>
<event>
 7    1  0.2380582E-009  0.1750472E+03  0.7561462E-02  0.1172684E+00
         -2   -1    0    0    0  501 -0.00000000000E+00  0.00000000000E+00  0.70351955808E+02  0.70351955808E+02  0.00000000000E+00 0.  1.
          2   -1    0    0  501    0  0.00000000000E+00 -0.00000000000E+00 -0.44903819499E+03  0.44903819499E+03  0.00000000000E+00 0. -1.
         25    2    1    2    0    0  0.13172034707E+03 -0.49026950615E+02 -0.16990378510E+03  0.25351377835E+03  0.12509215765E+03 0.  0.
          5    1    3    3  502    0  0.14266063676E+03 -0.71929511072E+02 -0.12990696596E+03  0.20595922909E+03  0.41800000000E+01 0.  1.
         -5    1    3    3    0  502 -0.10940289690E+02  0.22902560456E+02 -0.39996819141E+02  0.47554549260E+02  0.41800000000E+01 0.  1.
        -11    1    1    2    0    0 -0.90408515432E+01  0.40583560012E+02 -0.49358695393E+02  0.64537145511E+02  0.00000000000E+00 0.  1.
         11    1    1    2    0    0 -0.12267949553E+03  0.84433906036E+01 -0.15942375869E+03  0.20133922693E+03  0.00000000000E+00 0. -1.
</event>
<event>
 7    1  0.2380582E-009  0.8093563E+02  0.7561462E-02  0.1326417E+00
         -2   -1    0    0    0  501 -0.00000000000E+00  0.00000000000E+00  0.35971831631E+02  0.35971831631E+02  0.00000000000E+00 0.  1.
          2   -1    0    0  501    0  0.00000000000E+00 -0.00000000000E+00 -0.41705943744E+03  0.41705943744E+03  0.00000000000E+00 0. -1.
         25    2    1    2    0    0 -0.46451611408E+02  0.33563317037E+02 -0.23281172868E+03  0.27043137328E+03  0.12509028017E+03 0.  0.
          5    1    3    3  502    0 -0.39795861308E+02  0.23252718421E+02 -0.10134425383E+02  0.47376982481E+02  0.41800000000E+01 0. -1.
         -5    1    3    3    0  502 -0.66557501000E+01  0.10310598616E+02 -0.22267730329E+03  0.22305439080E+03  0.41800000000E+01 0. -1.
        -11    1    1    2    0    0  0.60036939170E+02  0.64378818226E+01 -0.11053379320E+03  0.12595078335E+03  0.00000000000E+00 0. -1.
         11    1    1    2    0    0 -0.13585327762E+02 -0.40001198860E+02 -0.37742083930E+02  0.56649112438E+02  0.00000000000E+00 0.  1.
</event>
<event>
 7    1  0.2380582E-009  0.9288694E+02  0.7561462E-02  0.1296007E+00
         -2   -1    0    0    0  501 -0.00000000000E+00  0.00000000000E+00  0.16225671602E+03  0.16225671602E+03  0.00000000000E+00 0.  1.
          2   -1    0    0  501    0  0.00000000000E+00 -0.00000000000E+00 -0.10501028690E+03  0.10501028690E+03  0.00000000000E+00 0. -1.
         25    2    1    2    0    0  0.28812900210E+02 -0.15184982705E+02 -0.34385660324E+02  0.13375340131E+03  0.12508729675E+03 0.  0.
          5    1    3    3  502    0  0.55712067892E+01 -0.50626816088E+02 -0.63985808680E+02  0.81888759697E+02  0.41800000000E+01 0.  1.
         -5    1    3    3    0  502  0.23241693421E+02  0.35441833384E+02  0.29600148357E+02  0.51864641610E+02  0.41800000000E+01 0.  1.
        -11    1    1    2    0    0  0.27067690957E+02 -0.12389166534E+02  0.51222690718E+02  0.59244538867E+02  0.00000000000E+00 0. -1.
         11    1    1    2    0    0 -0.55880591167E+02  0.27574149239E+02  0.40409398732E+02  0.74269062746E+02  0.00000000000E+00 0.  1.
</event>
<event>
 7    1  0.3425695E-009  0.7781807E+02  0.7561462E-02  0.1335360E+00
         -1   -1    0    0    0  501 -0.00000000000E+00  0.00000000000E+00  0.14186987760E+02  0.14186987760E+02  0.00000000000E+00 0.  1.
          1   -1    0    0  501    0  0.00000000000E+00 -0.00000000000E+00 -0.12168884519E+04  0.12168884519E+04  0.00000000000E+00 0. -1.
         25    2    1    2    0    0  0.24467125643E+02 -0.16055972711E+02 -0.98393800480E+03  0.99228920896E+03  0.12508973750E+03 0.  0.
          5    1    3    3  502    0  0.50987027187E+01 -0.50258893091E+02 -0.87386696672E+03  0.87533587898E+03  0.41800000000E+01 0.  1.
         -5    1    3    3    0  502  0.19368422925E+02  0.34202920379E+02 -0.11007103808E+03  0.11695332997E+03  0.41800000000E+01 0.  1.
        -11    1    1    2    0    0 -0.53820813748E+00  0.34935005871E+02 -0.19992425251E+03  0.20295430778E+03  0.00000000000E+00 0. -1.
         11    1    1    2    0    0 -0.23928917506E+02 -0.18879033160E+02 -0.18839206814E+02  0.35831922910E+02  0.00000000000E+00 0.  1.
</event>
<event>
 7    1  0.2380582E-009  0.1150137E+03  0.7561462E-02  0.1251557E+00
         -2   -1    0    0    0  501 -0.00000000000E+00  0.00000000000E+00  0.67578135453E+02  0.67578135453E+02  0.00000000000E+00 0.  1.
          2   -1    0    0  501    0  0.00000000000E+00 -0.00000000000E+00 -0.21957776294E+03  0.21957776294E+03  0.00000000000E+00 0. -1.
         25    2    1    2    0    0 -0.21628908780E+02  0.44622893490E+02 -0.63843142285E+02  0.14893770627E+03  0.12508989254E+03 0.  0.
          5    1    3    3  502    0  0.50606307885E+01 -0.37452107974E+02 -0.47759660220E+02  0.61046932110E+02  0.41800000000E+01 0. -1.
         -5    1    3    3    0  502 -0.26689539569E+02  0.82075001464E+02 -0.16083482065E+02  0.87890774164E+02  0.41800000000E+01 0. -1.
        -11    1    1    2    0    0 -0.54092710532E+01 -0.68988794530E+02 -0.65878653827E+02  0.95544288233E+02  0.00000000000E+00 0.  1.
         11    1    1    2    0    0  0.27038179834E+02  0.24365901040E+02 -0.22277831377E+02  0.42673903888E+02  0.00000000000E+00 0. -1.
</event>
<event>
 7    1  0.2380582E-009  0.1093480E+03  0.7561462E-02  0.1261782E+00
          2   -1    0    0  501    0  0.00000000000E+00  0.00000000000E+00  0.23104989112E+02  0.23104989112E+02  0.00000000000E+00 0. -1.
         -2   -1    0    0    0  501 -0.00000000000E+00 -0.00000000000E+00 -0.81664834545E+03  0.81664834545E+03  0.00000000000E+00 0.  1.
         25    2    1    2    0    0  0.49150701617E+02  0.15536687553E+02 -0.23295694513E+03  0.26939587331E+03  0.12509203867E+03 0.  0.
          5    1    3    3  502    0  0.95516352188E+01  0.55959869418E+02 -0.18967163008E+03  0.19802914022E+03  0.41800000000E+01 0. -1.
         -5    1    3    3    0  502  0.39599066398E+02 -0.40423181865E+02 -0.43285315056E+02  0.71366733085E+02  0.41800000000E+01 0. -1.
        -11    1    1    2    0    0  0.19142775203E+02  0.20303766102E+02 -0.13875694644E+03  0.14153508027E+03  0.00000000000E+00 0. -1.
         11    1    1    2    0    0 -0.68293476821E+02 -0.35840453655E+02 -0.42182946476E+03  0.42882238099E+03  0.00000000000E+00 0.  1.
</event>
<event>
 7    1  0.2380582E-009  0.8761117E+02  0.7561462E-02  0.1308742E+00
         -1   -1    0    0    0  501 -0.00000000000E+00  0.00000000000E+00  0.30985198505E+03  0.30985198505E+03  0.00000000000E+00 0.  1.
          1   -1    0    0  501    0  0.00000000000E+00 -0.00000000000E+00 -0.44369860688E+02  0.44369860688E+02  0.00000000000E+00 0. -1.
         25    2    1    2    0    0 -0.63206465222E+01 -0.26798931283E+02  0.95956283399E+02  0.16003873787E+03  0.12508659402E+03 0.  0.
          5    1    3    3  502    0 -0.16121436689E+02  0.23718783185E+02  0.10384227225E+03  0.10781081255E+03  0.41800000000E+01 0. -1.
         -5    1    3    3    0  502  0.98007901668E+01 -0.50517714468E+02 -0.78859888467E+01  0.52227925318E+02  0.41800000000E+01 0. -1.
        -11    1    1    2    0    0 -0.30443718817E+02 -0.18996551330E+02  0.68412262446E+02  0.77252356797E+02  0.00000000000E+00 0. -1.
         11    1    1    2    0    0  0.36764365339E+02  0.45795482612E+02  0.10111357851E+03  0.11693075107E+03  0.00000000000E+00 0.  1.
</event>
<event>
 7    1  0.2380582E-009  0.1114681E+03  0.7561462E-02  0.1257875E+00
          3   -1    0    0  501    0  0.00000000000E+00  0.00000000000E+00  0.45395665770E+03  0.45395665770E+03  0.00000000000E+00 0. -1.
         -3   -1    0    0    0  501 -0.00000000000E+00 -0.00000000000E+00 -0.34977225521E+02  0.34977225521E+02  0.00000000000E+00 0.  1.
         25    2    1    2    0    0  0.29055111684E+02  0.24866838597E+02  0.13272700050E+03  0.18635054655E+03  0.12509000903E+03 0.  0.
          5    1    3    3  502    0 -0.10206863624E+02  0.67462845677E+02  0.95202024027E+02  0.11720201957E+03  0.41800000000E+01 0.  1.
         -5    1    3    3    0  502  0.39261975308E+02 -0.42596007080E+02  0.37524976471E+02  0.69148526979E+02  0.41800000000E+01 0.  1.
        -11    1    1    2    0    0 -0.35411813413E+02  0.26819028901E+02  0.10528834804E+03  0.11427551389E+03  0.00000000000E+00 0.  1.
         11    1    1    2    0    0  0.63567017292E+01 -0.51685867499E+02  0.18096408364E+03  0.18830782279E+03  0.00000000000E+00 0. -1.
</event>
<event>
 7    1  0.2380582E-009  0.1170239E+03  0.7561462E-02  0.1248089E+00
          4   -1    0    0  501    0  0.00000000000E+00  0.00000000000E+00  0.10387662443E+04  0.10387662443E+04  0.00000000000E+00 0. -1.
         -4   -1    0    0    0  501 -0.00000000000E+00 -0.00000000000E+00 -0.18523244055E+02  0.18523244055E+02  0.00000000000E+00 0.  1.
         25    2    1    2    0    0  0.34517463104E+02 -0.61826026914E+02  0.74261287533E+03  0.75639637347E+03  0.12509068043E+03 0.  0.
          5    1    3    3  502    0 -0.24358267939E+02 -0.63878359193E+02  0.56692230670E+03  0.57104478303E+03  0.41800000000E+01 0.  1.
         -5    1    3    3    0  502  0.58875731043E+02  0.20523322789E+01  0.17569056863E+03  0.18535159044E+03  0.41800000000E+01 0.  1.
        -11    1    1    2    0    0 -0.53909822641E+02  0.15221743231E+02  0.85300740442E+02  0.10204992290E+03  0.00000000000E+00 0.  1.
         11    1    1    2    0    0  0.19392359537E+02  0.46604283684E+02  0.19232938442E+03  0.19884319194E+03  0.00000000000E+00 0. -1.
</event>
<event>
 7    1  0.2380582E-009  0.1494924E+03  0.7561462E-02  0.1201098E+00
          1   -1    0    0  501    0  0.00000000000E+00  0.00000000000E+00  0.69177297682E+02  0.69177297682E+02  0.00000000000E+00 0. -1.
         -1   -1    0    0    0  501 -0.00000000000E+00 -0.00000000000E+00 -0.34640133094E+03  0.34640133094E+03  0.00000000000E+00 0.  1.
         25    2    1    2    0    0  0.71164088926E+02 -0.75778958246E+02 -0.97106918250E+02  0.18943320098E+03  0.12509358894E+03 0.  0.
          5    1    3    3  502    0  0.10470829096E+03 -0.37747944296E+02 -0.72614377990E+02  0.13296260296E+03  0.41800000000E+01 0.  1.
         -5    1    3    3    0  502 -0.33544202034E+02 -0.38031013951E+02 -0.24492540260E+02  0.56470598019E+02  0.41800000000E+01 0.  1.
        -11    1    1    2    0    0  0.51697250357E+00  0.64088965282E+02 -0.86693380694E+02  0.10781189632E+03  0.00000000000E+00 0.  1.
         11    1    1    2    0    0 -0.71681061430E+02  0.11689992964E+02 -0.93423734311E+02  0.11833353133E+03  0.00000000000E+00 0. -1.
</event>
<event>
 7    1  0.2380582E-009  0.1295289E+03  0.7561462E-02  0.1228156E+00
          1   -1    0    0  501    0  0.00000000000E+00  0.00000000000E+00  0.96797395436E+03  0.96797395436E+03  0.00000000000E+00 0. -1.
         -1   -1    0    0    0  501 -0.00000000000E+00 -0.00000000000E+00 -0.27146546514E+02  0.27146546514E+02  0.00000000000E+00 0.  1.
         25    2    1    2    0    0 -0.86088872970E+02  0.55952922222E+02  0.65191294960E+03  0.67169776491E+03  0.12508145337E+03 0.  0.
          5    1    3    3  502    0  0.27256188992E+02  0.82048494905E+01  0.24218192426E+03  0.24388476015E+03  0.41800000000E+01 0.  1.
         -5    1    3    3    0  502 -0.11334506196E+03  0.47748072731E+02  0.40973102534E+03  0.42781300477E+03  0.41800000000E+01 0.  1.
        -11    1    1    2    0    0  0.15328768926E+02 -0.26429763711E+02  0.71038871125E+01  0.31368276629E+02  0.00000000000E+00 0.  1.
         11    1    1    2    0    0  0.70760104044E+02 -0.29523158511E+02  0.28181057113E+03  0.29205445933E+03  0.00000000000E+00 0. -1.
</event>
<event>
 7    1  0.2380582E-009  0.1777062E+03  0.7561462E-02  0.1170042E+00
         -1   -1    0    0    0  501 -0.00000000000E+00  0.00000000000E+00  0.80896021387E+02  0.80896021387E+02  0.00000000000E+00 0.  1.
          1   -1    0    0  501    0  0.00000000000E+00 -0.00000000000E+00 -0.52238356409E+03  0.52238356409E+03  0.00000000000E+00 0. -1.
         25    2    1    2    0    0 -0.78064457948E+02 -0.13370955028E+03 -0.11324594115E+03  0.22900579586E+03  0.12508680154E+03 0.  0.
          5    1    3    3  502    0  0.80604911170E+01  0.16419690365E+02  0.49163507324E+01  0.19396408257E+02  0.41800000000E+01 0.  1.
         -5    1    3    3    0  502 -0.86124949065E+02 -0.15012924064E+03 -0.11816229188E+03  0.20960938760E+03  0.41800000000E+01 0.  1.
        -11    1    1    2    0    0  0.49656538330E+02  0.34864526259E+02 -0.53423098804E+02  0.80841415598E+02  0.00000000000E+00 0.  1.
         11    1    1    2    0    0  0.28407919618E+02  0.98845024019E+02 -0.27481850275E+03  0.29343237402E+03  0.00000000000E+00 0. -1.
</event>
<event>
 7    1  0.2380582E-009  0.1221064E+03  0.7561462E-02  0.1239662E+00
         -1   -1    0    0    0  501 -0.00000000000E+00  0.00000000000E+00  0.36576782969E+03  0.36576782969E+03  0.00000000000E+00 0.  1.
          1   -1    0    0  501    0  0.00000000000E+00 -0.00000000000E+00 -0.89064765331E+02  0.89064765331E+02  0.00000000000E+00 0. -1.
         25    2    1    2    0    0  0.36858029069E+02  0.99810648382E+02  0.27087504811E+03  0.31676701038E+03  0.12508943736E+03 0.  0.
          5    1    3    3  502    0  0.53752196319E+02  0.24468915979E+02  0.35542770267E+02  0.69056407209E+02  0.41800000000E+01 0. -1.
         -5    1    3    3    0  502 -0.16894167250E+02  0.75341732403E+02  0.23533227784E+03  0.24771060317E+03  0.41800000000E+01 0. -1.
        -11    1    1    2    0    0 -0.41551971654E+01 -0.33362122985E+02 -0.39003486851E+02  0.51493386955E+02  0.00000000000E+00 0. -1.
         11    1    1    2    0    0 -0.32702831904E+02 -0.66448525397E+02  0.44831503099E+02  0.86572197685E+02  0.00000000000E+00 0.  1.
</event>
<event>
 7    1  0.2380582E-009  0.9292650E+02  0.7561462E-02  0.1295916E+00
         -1   -1    0    0    0  501 -0.00000000000E+00  0.00000000000E+00  0.30628708299E+03  0.30628708299E+03  0.00000000000E+00 0.  1.
          1   -1    0    0  501    0  0.00000000000E+00 -0.00000000000E+00 -0.41722883847E+02  0.41722883847E+02  0.00000000000E+00 0. -1.
         25    2    1    2    0    0  0.16754437047E+02 -0.13869770565E+02  0.18890210487E+03  0.22760614015E+03  0.12508984016E+03 0.  0.
          5    1    3    3  502    0  0.15468299459E+02 -0.51883572002E+02  0.18041764609E+03  0.18841224151E+03  0.41800000000E+01 0.  1.
         -5    1    3    3    0  502  0.12861375883E+01  0.38013801437E+02  0.84844587871E+01  0.39193898639E+02  0.41800000000E+01 0.  1.
        -11    1    1    2    0    0 -0.47018647822E+02 -0.17056026459E+02  0.35186529761E+02  0.61153521224E+02  0.00000000000E+00 0.  1.
         11    1    1    2    0    0  0.30264210774E+02  0.30925797024E+02  0.40475564511E+02  0.59250305466E+02  0.00000000000E+00 0. -1.
</event>
<event>
 7    1  0.2380582E-009  0.2150445E+03  0.7561462E-02  0.1137632E+00
          4   -1    0    0  501    0  0.00000000000E+00  0.00000000000E+00  0.69507711591E+02  0.69507711591E+02  0.00000000000E+00 0.  1.
         -4   -1    0    0    0  501 -0.00000000000E+00 -0.00000000000E+00 -0.82500915939E+03  0.82500915939E+03  0.00000000000E+00 0. -1.
         25    2    1    2    0    0  0.20192450509E+03  0.23990250498E+01 -0.51584074444E+03  0.56790701958E+03  0.12508976052E+03 0.  0.
          5    1    3    3  502    0  0.10310908674E+03 -0.25055198610E+02 -0.12600470777E+03  0.16478442137E+03  0.41800000000E+01 0. -1.
         -5    1    3    3    0  502  0.98815418348E+02  0.27454223659E+02 -0.38983603667E+03  0.40312259821E+03  0.41800000000E+01 0. -1.
        -11    1    1    2    0    0 -0.41027610907E+02 -0.38603297583E+02 -0.72168145362E+02  0.91551737537E+02  0.00000000000E+00 0. -1.
         11    1    1    2    0    0 -0.16089689418E+03  0.36204272533E+02 -0.16749255799E+03  0.23505811386E+03  0.00000000000E+00 0.  1.
</event>
<event>
 7    1  0.2380582E-009  0.1068706E+03  0.7561462E-02  0.1266477E+00
         -1   -1    0    0    0  501 -0.00000000000E+00  0.00000000000E+00  0.10787130245E+03  0.10787130245E+03  0.00000000000E+00 0.  1.
          1   -1    0    0  501    0  0.00000000000E+00 -0.00000000000E+00 -0.12807851707E+03  0.12807851707E+03  0.00000000000E+00 0. -1.
         25    2    1    2    0    0 -0.70135897861E+01 -0.41890063366E+02  0.26982919149E+01  0.13213045278E+03  0.12508880014E+03 0.  0.
          5    1    3    3  502    0 -0.63633900628E+02 -0.40009884965E+02  0.57414891270E+00  0.75285232623E+02  0.41800000000E+01 0. -1.
         -5    1    3    3    0  502  0.56620310842E+02 -0.18801784018E+01  0.21241430022E+01  0.56845220152E+02  0.41800000000E+01 0. -1.
        -11    1    1    2    0    0 -0.14119679252E+02  0.54999789418E+02  0.14772962213E+02  0.58673525467E+02  0.00000000000E+00 0.  1.
         11    1    1    2    0    0  0.21133269038E+02 -0.13109726051E+02 -0.37678468748E+02  0.45145841277E+02  0.00000000000E+00 0. -1.
</event>
<event>
 7    1  0.2380582E-009  0.1427165E+03  0.7561462E-02  0.1209720E+00
          1   -1    0    0  501    0  0.00000000000E+00  0.00000000000E+00  0.17870935849E+03  0.17870935849E+03  0.00000000000E+00 0. -1.
         -1   -1    0    0    0  501 -0.00000000000E+00 -0.00000000000E+00 -0.16134080609E+03  0.16134080609E+03  0.00000000000E+00 0.  1.
         25    2    1    2    0    0  0.12972877916E+03 -0.44790563614E+01 -0.55673616552E+01  0.18035373753E+03  0.12508739760E+03 0.  0.
          5    1    3    3  502    0  0.44336647949E+02 -0.16352065899E+02  0.56695665279E+02  0.73925633389E+02  0.41800000000E+01 0.  1.
         -5    1    3    3    0  502  0.85392131209E+02  0.11873009538E+02 -0.62263026935E+02  0.10642810414E+03  0.41800000000E+01 0.  1.
        -11    1    1    2    0    0 -0.43296784739E+02 -0.35932425546E+02  0.30471887424E+02  0.63986613424E+02  0.00000000000E+00 0. -1.
         11    1    1    2    0    0 -0.86431994418E+02  0.40411481907E+02 -0.75359733683E+01  0.95709813623E+02  0.00000000000E+00 0.  1.
</event>
<event>
 7    1  0.2380582E-009  0.1053839E+03  0.7561462E-02  0.1269365E+00
          2   -1    0    0  501    0  0.00000000000E+00  0.00000000000E+00  0.48372286577E+03  0.48372286577E+03  0.00000000000E+00 0. -1.
         -2   -1    0    0    0  501 -0.00000000000E+00 -0.00000000000E+00 -0.34207126242E+02  0.34207126242E+02  0.00000000000E+00 0.  1.
         25    2    1    2    0    0  0.43434076890E+02  0.46957180067E+02  0.29944965225E+03  0.33076824326E+03  0.12508413456E+03 0.  0.
          5    1    3    3  502    0 -0.33985843984E+02 -0.17898365745E+02  0.99039171266E+02  0.10630907267E+03  0.41800000000E+01 0. -1.
         -5    1    3    3    0  502  0.77419920874E+02  0.64855545812E+02  0.20041048099E+03  0.22445917059E+03  0.41800000000E+01 0. -1.
        -11    1    1    2    0    0  0.24883438715E+01 -0.14748042699E+02 -0.97057609014E+01  0.17829705924E+02  0.00000000000E+00 0.  1.
         11    1    1    2    0    0 -0.45922420761E+02 -0.32209137368E+02  0.15977184817E+03  0.16933204282E+03  0.00000000000E+00 0. -1.
</event>
<event>
 7    1  0.2380582E-009  0.1043467E+03  0.7561462E-02  0.1271412E+00
          2   -1    0    0  501    0  0.00000000000E+00  0.00000000000E+00  0.24749864924E+02  0.24749864924E+02  0.00000000000E+00 0. -1.
         -2   -1    0    0    0  501 -0.00000000000E+00 -0.00000000000E+00 -0.76283381949E+03  0.76283381949E+03  0.00000000000E+00 0.  1.
         25    2    1    2    0    0 -0.79399973171E+02 -0.32080364461E+01 -0.48772673198E+03  0.50974841460E+03  0.12510569078E+03 0.  0.
          5    1    3    3  502    0 -0.29519679317E+02  0.34814302580E+02 -0.39544238870E+03  0.39808994249E+03  0.41800000000E+01 0. -1.
         -5    1    3    3    0  502 -0.49880293854E+02 -0.38022339026E+02 -0.92284343275E+02  0.11165847211E+03  0.41800000000E+01 0. -1.
        -11    1    1    2    0    0  0.26693370062E+02  0.30594138474E+02 -0.32445355478E+02  0.51973439431E+02  0.00000000000E+00 0.  1.
         11    1    1    2    0    0  0.52706603109E+02 -0.27386102028E+02 -0.21791186712E+03  0.22586183039E+03  0.00000000000E+00 0. -1.
</event>
<event>
 7    1  0.2380582E-009  0.1151482E+03  0.7561462E-02  0.1251323E+00
          1   -1    0    0  501    0  0.00000000000E+00  0.00000000000E+00  0.19812201265E+03  0.19812201265E+03  0.00000000000E+00 0. -1.
         -1   -1    0    0    0  501 -0.00000000000E+00 -0.00000000000E+00 -0.74362030971E+02  0.74362030971E+02  0.00000000000E+00 0.  1.
         25    2    1    2    0    0  0.47705812593E+02 -0.25395581466E+02  0.66141043374E+02  0.15147099534E+03  0.12509214482E+03 0.  0.
          5    1    3    3  502    0  0.11870943425E+02  0.44436226951E+02  0.55421901062E+02  0.72142616259E+02  0.41800000000E+01 0.  1.
         -5    1    3    3    0  502  0.35834869169E+02 -0.69831808417E+02  0.10719142313E+02  0.79328379078E+02  0.41800000000E+01 0.  1.
        -11    1    1    2    0    0 -0.73784656002E+02  0.81209866321E+01  0.47537945640E+02  0.88147502295E+02  0.00000000000E+00 0. -1.
         11    1    1    2    0    0  0.26078843408E+02  0.17274594834E+02  0.10080992668E+02  0.32865545992E+02  0.00000000000E+00 0.  1.
</event>
<event>
 7    1  0.2380582E-009  0.1014150E+03  0.7561462E-02  0.1277348E+00
          2   -1    0    0  501    0  0.00000000000E+00  0.00000000000E+00  0.45326560661E+03  0.45326560661E+03  0.00000000000E+00 0. -1.
         -2   -1    0    0    0  501 -0.00000000000E+00 -0.00000000000E+00 -0.32080288317E+02  0.32080288317E+02  0.00000000000E+00 0.  1.
         25    2    1    2    0    0  0.32543276002E+02 -0.29574651234E+02  0.19813855540E+03  0.23841172020E+03  0.12509011306E+03 0.  0.
          5    1    3    3  502    0  0.32314294095E+02 -0.70532397987E+02  0.72754454401E+02  0.10644113774E+03  0.41800000000E+01 0. -1.
         -5    1    3    3    0  502  0.22898190785E+00  0.40957746752E+02  0.12538410100E+03  0.13197058246E+03  0.41800000000E+01 0. -1.
        -11    1    1    2    0    0  0.21176041398E+02  0.20519243575E+02  0.17495537177E+02  0.34286409950E+02  0.00000000000E+00 0.  1.
         11    1    1    2    0    0 -0.53719317400E+02  0.90554076596E+01  0.20555122572E+03  0.21264776478E+03  0.00000000000E+00 0. -1.
</event>
<event>
 7    1  0.2380582E-009  0.1206520E+03  0.7561462E-02  0.1242025E+00
         -1   -1    0    0    0  501 -0.00000000000E+00  0.00000000000E+00  0.25729993317E+03  0.25729993317E+03  0.00000000000E+00 0.  1.
          1   -1    0    0  501    0  0.00000000000E+00 -0.00000000000E+00 -0.83364887822E+02  0.83364887822E+02  0.00000000000E+00 0. -1.
         25    2    1    2    0    0  0.42248870127E+02  0.64607766062E+02  0.16426455591E+03  0.22041915863E+03  0.12507050291E+03 0.  0.
          5    1    3    3  502    0  0.28447960110E+02  0.90607638478E+02  0.16528404746E+03  0.19067070916E+03  0.41800000000E+01 0.  1.
         -5    1    3    3    0  502  0.13800910017E+02 -0.25999872416E+02 -0.10194915516E+01  0.29748449471E+02  0.41800000000E+01 0.  1.
        -11    1    1    2    0    0 -0.88247726166E+01  0.21986556842E+02 -0.93959022806E+01  0.25486629302E+02  0.00000000000E+00 0.  1.
         11    1    1    2    0    0 -0.33424097510E+02 -0.86594322904E+02  0.19066391718E+02  0.94759033062E+02  0.00000000000E+00 0. -1.
</event>
<event>
 7    1  0.2380582E-009  0.1310495E+03  0.7561462E-02  0.1225907E+00
         -1   -1    0    0    0  501 -0.00000000000E+00  0.00000000000E+00  0.14986807673E+03  0.14986807673E+03  0.00000000000E+00 0.  1.
          1   -1    0    0  501    0  0.00000000000E+00 -0.00000000000E+00 -0.13879622723E+03  0.13879622723E+03  0.00000000000E+00 0. -1.
         25    2    1    2    0    0 -0.19747604086E+01 -0.70318644662E+02 -0.47534745295E+02  0.15118215074E+03  0.12509148343E+03 0.  0.
          5    1    3    3  502    0 -0.40809851617E+02  0.19201382011E+02 -0.21281468058E+02  0.50045083104E+02  0.41800000000E+01 0. -1.
         -5    1    3    3    0  502  0.38835091209E+02 -0.89520026673E+02 -0.26253277237E+02  0.10113706764E+03  0.41800000000E+01 0. -1.
        -11    1    1    2    0    0  0.48815692786E+02  0.42009024778E+02  0.51152987001E+02  0.82245717846E+02  0.00000000000E+00 0.  1.
         11    1    1    2    0    0 -0.46840932377E+02  0.28309619885E+02  0.74536077912E+01  0.55236435377E+02  0.00000000000E+00 0. -1.
</event>
<event>
 7    1  0.2380582E-009  0.1283430E+03  0.7561462E-02  0.1229935E+00
         -1   -1    0    0    0  501 -0.00000000000E+00  0.00000000000E+00  0.10705146017E+03  0.10705146017E+03  0.00000000000E+00 0.  1.
          1   -1    0    0  501    0  0.00000000000E+00 -0.00000000000E+00 -0.18984786954E+03  0.18984786954E+03  0.00000000000E+00 0. -1.
         25    2    1    2    0    0 -0.55378090338E+02  0.73497493882E+02 -0.36868257500E+02  0.15961023399E+03  0.12509014305E+03 0.  0.
          5    1    3    3  502    0 -0.60252589713E+02 -0.16380240838E+02 -0.88835983228E+00  0.62585529000E+02  0.41800000000E+01 0.  1.
         -5    1    3    3    0  502  0.48744993754E+01  0.89877734720E+02 -0.35979897668E+02  0.97024704992E+02  0.41800000000E+01 0.  1.
        -11    1    1    2    0    0  0.35504489183E+02 -0.76082373925E+02 -0.67585545850E+02  0.10778173492E+03  0.00000000000E+00 0. -1.
         11    1    1    2    0    0  0.19873601154E+02  0.25848800426E+01  0.21657393973E+02  0.29507360800E+02  0.00000000000E+00 0.  1.
</event>
<event>
 7    1  0.2380582E-009  0.1676440E+03  0.7561462E-02  0.1180327E+00
          1   -1    0    0  501    0  0.00000000000E+00  0.00000000000E+00  0.25796041826E+03  0.25796041826E+03  0.00000000000E+00 0. -1.
         -1   -1    0    0    0  501 -0.00000000000E+00 -0.00000000000E+00 -0.31302428590E+03  0.31302428590E+03  0.00000000000E+00 0.  1.
         25    2    1    2    0    0 -0.11603457008E+03 -0.10292679684E+03 -0.24032354201E+03  0.31218811730E+03  0.12509224107E+03 0.  0.
          5    1    3    3  502    0 -0.77624867162E+02 -0.19888566490E+02 -0.35348392554E+02  0.87682132359E+02  0.41800000000E+01 0.  1.
         -5    1    3    3    0  502 -0.38409702915E+02 -0.83038230352E+02 -0.20497514946E+03  0.22450598494E+03  0.41800000000E+01 0.  1.
        -11    1    1    2    0    0  0.62521313645E+02  0.21680173326E+02  0.13254629051E+03  0.14814676407E+03  0.00000000000E+00 0. -1.
         11    1    1    2    0    0  0.53513256432E+02  0.81246623515E+02  0.52713383858E+02  0.11064982279E+03  0.00000000000E+00 0.  1.
</event>
<event>
 7    1  0.2380582E-009  0.8722896E+02  0.7561462E-02  0.1309704E+00
         -2   -1    0    0    0  501 -0.00000000000E+00  0.00000000000E+00  0.16433178188E+02  0.16433178188E+02  0.00000000000E+00 0.  1.
          2   -1    0    0  501    0  0.00000000000E+00 -0.00000000000E+00 -0.10040610837E+04  0.10040610837E+04  0.00000000000E+00 0. -1.
         25    2    1    2    0    0 -0.22483821390E+02 -0.56560855032E+02 -0.57992893883E+03  0.59638001853E+03  0.12508756879E+03 0.  0.
          5    1    3    3  502    0  0.34154237400E+01 -0.37028417544E+02 -0.37535964276E+02  0.53001790906E+02  0.41800000000E+01 0.  1.
         -5    1    3    3    0  502 -0.25899245130E+02 -0.19532437489E+02 -0.54239297455E+03  0.54337822763E+03  0.41800000000E+01 0.  1.
        -11    1    1    2    0    0 -0.29604249505E+02  0.39819539105E+02 -0.10050357701E+03  0.11208468350E+03  0.00000000000E+00 0.  1.
         11    1    1    2    0    0  0.52088070895E+02  0.16741315928E+02 -0.30719538971E+03  0.31202955989E+03  0.00000000000E+00 0. -1.
</event>
<event>
 7    1  0.2380582E-009  0.1052786E+03  0.7561462E-02  0.1269572E+00
          1   -1    0    0  501    0  0.00000000000E+00  0.00000000000E+00  0.34531404587E+03  0.34531404587E+03  0.00000000000E+00 0. -1.
         -1   -1    0    0    0  501 -0.00000000000E+00 -0.00000000000E+00 -0.44514781876E+02  0.44514781876E+02  0.00000000000E+00 0.  1.
         25    2    1    2    0    0  0.18480662697E+02 -0.22474647840E+02  0.25244137857E+03  0.28323488048E+03  0.12509477692E+03 0.  0.
          5    1    3    3  502    0 -0.53213297095E+01 -0.72289093488E+02  0.13120486507E+03  0.14995405498E+03  0.41800000000E+01 0.  1.
         -5    1    3    3    0  502  0.23801992407E+02  0.49814445648E+02  0.12123651350E+03  0.13328082549E+03  0.41800000000E+01 0.  1.
        -11    1    1    2    0    0 -0.32067882237E+02 -0.20132717935E+02 -0.36064474658E+01  0.38035271340E+02  0.00000000000E+00 0.  1.
         11    1    1    2    0    0  0.13587219540E+02  0.42607365775E+02  0.51964332887E+02  0.68558675931E+02  0.00000000000E+00 0. -1.
</event>
<event>
 7    1  0.2380582E-009  0.1473800E+03  0.7561462E-02  0.1203730E+00
          2   -1    0    0  501    0  0.00000000000E+00  0.00000000000E+00  0.82623668929E+03  0.82623668929E+03  0.00000000000E+00 0.  1.
         -2   -1    0    0    0  501 -0.00000000000E+00 -0.00000000000E+00 -0.39930638474E+02  0.39930638474E+02  0.00000000000E+00 0. -1.
         25    2    1    2    0    0 -0.10377843839E+03 -0.81085895334E+02  0.27557710284E+03  0.33005342260E+03  0.12509050908E+03 0.  0.
          5    1    3    3  502    0 -0.83544535605E+02 -0.64794818359E+02  0.28347834646E+03  0.30258139934E+03  0.41800000000E+01 0.  1.
         -5    1    3    3    0  502 -0.20233902790E+02 -0.16291076975E+02 -0.79012436207E+01  0.27472023257E+02  0.41800000000E+01 0.  1.
        -11    1    1    2    0    0  0.12063108583E+03  0.57454306882E+02  0.40487471910E+03  0.42635242983E+03  0.00000000000E+00 0. -1.
         11    1    1    2    0    0 -0.16852647438E+02  0.23631588452E+02  0.10585422888E+03  0.10976147535E+03  0.00000000000E+00 0.  1.
</event>
<event>
 7    1  0.2380582E-009  0.1065033E+03  0.7561462E-02  0.1267186E+00
         -4   -1    0    0    0  501 -0.00000000000E+00  0.00000000000E+00  0.20836320346E+03  0.20836320346E+03  0.00000000000E+00 0.  1.
          4   -1    0    0  501    0  0.00000000000E+00 -0.00000000000E+00 -0.66808072177E+02  0.66808072177E+02  0.00000000000E+00 0. -1.
         25    2    1    2    0    0 -0.21471381548E+02 -0.37197296605E+02  0.10804050127E+03  0.17077509507E+03  0.12508686615E+03 0.  0.
          5    1    3    3  502    0  0.37958576710E+02 -0.50322243802E+02  0.84231702999E+02  0.10528833723E+03  0.41800000000E+01 0.  1.
         -5    1    3    3    0  502 -0.59429958259E+02  0.13124947197E+02  0.23808798272E+02  0.65486757842E+02  0.41800000000E+01 0.  1.
        -11    1    1    2    0    0  0.50885346048E+02  0.27606000630E+02  0.42912896437E+02  0.72061962184E+02  0.00000000000E+00 0.  1.
         11    1    1    2    0    0 -0.29413964499E+02  0.95912959751E+01 -0.93982664286E+01  0.32334218375E+02  0.00000000000E+00 0. -1.
</event>
<event>
 7    1  0.2380582E-009  0.2598490E+03  0.7561462E-02  0.1107234E+00
          1   -1    0    0  501    0  0.00000000000E+00  0.00000000000E+00  0.39402159028E+03  0.39402159028E+03  0.00000000000E+00 0. -1.
         -1   -1    0    0    0  501 -0.00000000000E+00 -0.00000000000E+00 -0.24852631413E+03  0.24852631413E+03  0.00000000000E+00 0.  1.
         25    2    1    2    0    0  0.16765932098E+03 -0.18916178414E+03 -0.80095468234E+02  0.29318079549E+03  0.12509143184E+03 0.  0.
          5    1    3    3  502    0  0.13500600377E+03 -0.12140108691E+03 -0.10977677432E+03  0.21221040865E+03  0.41800000000E+01 0. -1.
         -5    1    3    3    0  502  0.32653317209E+02 -0.67760697235E+02  0.29681306089E+02  0.80970386845E+02  0.41800000000E+01 0. -1.
        -11    1    1    2    0    0 -0.16029110872E+01  0.38507020554E+02  0.57154206382E+02  0.68934485296E+02  0.00000000000E+00 0. -1.
         11    1    1    2    0    0 -0.16605640990E+03  0.15065476359E+03  0.16843653800E+03  0.28043262363E+03  0.00000000000E+00 0.  1.
</event>
<event>
 7    1  0.2380582E-009  0.1346245E+03  0.7561462E-02  0.1220751E+00
          1   -1    0    0  501    0  0.00000000000E+00  0.00000000000E+00  0.16876519557E+03  0.16876519557E+03  0.00000000000E+00 0. -1.
         -1   -1    0    0    0  501 -0.00000000000E+00 -0.00000000000E+00 -0.19658558005E+03  0.19658558005E+03  0.00000000000E+00 0.  1.
         25    2    1    2    0    0 -0.32542138450E+02  0.90746374765E+02  0.93997235104E+02  0.18378379501E+03  0.12508839992E+03 0.  0.
          5    1    3    3  502    0 -0.12582168186E+02 -0.21377720335E+02 -0.12246606076E+02  0.27978020719E+02  0.41800000000E+01 0. -1.
         -5    1    3    3    0  502 -0.19959970264E+02  0.11212409510E+03  0.10624384118E+03  0.15580577429E+03  0.41800000000E+01 0. -1.
        -11    1    1    2    0    0  0.59388899193E+02 -0.83239002008E+02 -0.74015309755E+02  0.12623010291E+03  0.00000000000E+00 0. -1.
         11    1    1    2    0    0 -0.26846760743E+02 -0.75073727574E+01 -0.47802309828E+02  0.55336877695E+02  0.00000000000E+00 0.  1.
</event>
<event>
 7    1  0.2380582E-009  0.1158430E+03  0.7561462E-02  0.1250117E+00
          1   -1    0    0  501    0  0.00000000000E+00  0.00000000000E+00  0.11315681615E+04  0.11315681615E+04  0.00000000000E+00 0. -1.
         -1   -1    0    0    0  501 -0.00000000000E+00 -0.00000000000E+00 -0.14834584762E+02  0.14834584762E+02  0.00000000000E+00 0.  1.
         25    2    1    2    0    0  0.48164876229E+02 -0.48321006865E+02  0.70009319556E+03  0.71444490353E+03  0.12508502191E+03 0.  0.
          5    1    3    3  502    0  0.69221255815E+02  0.40596194849E+01  0.54373854010E+03  0.54815794727E+03  0.41800000000E+01 0. -1.
         -5    1    3    3    0  502 -0.21056379586E+02 -0.52380626350E+02  0.15635465545E+03  0.16628695625E+03  0.41800000000E+01 0. -1.
        -11    1    1    2    0    0 -0.70888546588E+02  0.32916473714E+02  0.36701682256E+03  0.37524662333E+03  0.00000000000E+00 0.  1.
         11    1    1    2    0    0  0.22723670359E+02  0.15404533151E+02  0.49623558643E+02  0.56711219424E+02  0.00000000000E+00 0. -1.
</event>
<event>
 7    1  0.2380582E-009  0.9548232E+02  0.7561462E-02  0.1290093E+00
          1   -1    0    0  501    0  0.00000000000E+00  0.00000000000E+00  0.11075457057E+03  0.11075457057E+03  0.00000000000E+00 0. -1.
         -1   -1    0    0    0  501 -0.00000000000E+00 -0.00000000000E+00 -0.13365357458E+03  0.13365357458E+03  0.00000000000E+00 0.  1.
         25    2    1    2    0    0  0.39942392474E+02  0.38566287692E+02 -0.16926804103E+01  0.13686864083E+03  0.12508959354E+03 0.  0.
          5    1    3    3  502    0  0.71445679619E+02 -0.14286551886E+02  0.11283342825E+02  0.73846983190E+02  0.41800000000E+01 0. -1.
         -5    1    3    3    0  502 -0.31503287145E+02  0.52852839578E+02 -0.12976023235E+02  0.63021657637E+02  0.41800000000E+01 0. -1.
        -11    1    1    2    0    0 -0.80916129750E+01 -0.13676839355E+02 -0.53494388285E+02  0.55804835931E+02  0.00000000000E+00 0.  1.
         11    1    1    2    0    0 -0.31850779499E+02 -0.24889448337E+02  0.32288064686E+02  0.51734668399E+02  0.00000000000E+00 0. -1.
</event>
<event>
 7    1  0.2380582E-009  0.1362117E+03  0.7561462E-02  0.1218519E+00
         -2   -1    0    0    0  501 -0.00000000000E+00  0.00000000000E+00  0.16223406947E+03  0.16223406947E+03  0.00000000000E+00 0. -1.
          2   -1    0    0  501    0  0.00000000000E+00 -0.00000000000E+00 -0.17556680930E+03  0.17556680930E+03  0.00000000000E+00 0.  1.
         25    2    1    2    0    0  0.99109040858E+02  0.46930750604E+02  0.55563031609E+02  0.17538405744E+03  0.12508884759E+03 0.  0.
          5    1    3    3  502    0 -0.45677587686E+01  0.24624622312E+02  0.64064252890E+02  0.68912534002E+02  0.41800000000E+01 0. -1.
         -5    1    3    3    0  502  0.10367679963E+03  0.22306128292E+02 -0.85012212808E+01  0.10647152344E+03  0.41800000000E+01 0. -1.
        -11    1    1    2    0    0  0.13482336196E+02  0.79440446723E+01  0.56761770910E+01  0.16646327566E+02  0.00000000000E+00 0.  1.
         11    1    1    2    0    0 -0.11259137705E+03 -0.54874795277E+02 -0.74571948535E+02  0.14577049376E+03  0.00000000000E+00 0. -1.
</event>
<event>
 7    1  0.2773796E-009  0.4421039E+03  0.7561462E-02  0.1030103E+00
         -2   -1    0    0    0  501 -0.00000000000E+00  0.00000000000E+00  0.33468074350E+03  0.33468074350E+03  0.00000000000E+00 0.  1.
          2   -1    0    0  501    0  0.00000000000E+00 -0.00000000000E+00 -0.60956205001E+03  0.60956205001E+03  0.00000000000E+00 0. -1.
         25    2    1    2    0    0 -0.15574647452E+03 -0.40571176275E+03 -0.79666641447E+02  0.45918847008E+03  0.12509307950E+03 0.  0.
          5    1    3    3  502    0 -0.91041080533E+01 -0.17108664287E+03 -0.60752565461E+02  0.18182923517E+03  0.41800000000E+01 0. -1.
         -5    1    3    3    0  502 -0.14664236647E+03 -0.23462511988E+03 -0.18914075986E+02  0.27735923492E+03  0.41800000000E+01 0. -1.
        -11    1    1    2    0    0  0.70256622249E+02  0.13443984988E+03 -0.11247435051E+03  0.18884000034E+03  0.00000000000E+00 0. -1.
         11    1    1    2    0    0  0.85489852276E+02  0.27127191287E+03 -0.82740314561E+02  0.29621432310E+03  0.00000000000E+00 0.  1.
</event>
<event>
 7    1  0.2380582E-009  0.1041608E+03  0.7561462E-02  0.1271782E+00
          1   -1    0    0  501    0  0.00000000000E+00  0.00000000000E+00  0.25609784063E+02  0.25609784063E+02  0.00000000000E+00 0. -1.
         -1   -1    0    0    0  501 -0.00000000000E+00 -0.00000000000E+00 -0.57118603342E+03  0.57118603342E+03  0.00000000000E+00 0.  1.
         25    2    1    2    0    0  0.35283425998E+02  0.35539763467E+02 -0.25991323618E+03  0.29276461214E+03  0.12509289686E+03 0.  0.
          5    1    3    3  502    0 -0.22032291397E+02 -0.35021004769E+02 -0.58788151729E+02  0.72009803659E+02  0.41800000000E+01 0.  1.
         -5    1    3    3    0  502  0.57315717396E+02  0.70560768236E+02 -0.20112508445E+03  0.22075480848E+03  0.41800000000E+01 0.  1.
        -11    1    1    2    0    0 -0.22059138477E+02 -0.50894479778E+02 -0.27611216275E+03  0.28162879839E+03  0.00000000000E+00 0.  1.
         11    1    1    2    0    0 -0.13224287521E+02  0.15354716311E+02 -0.95508504327E+01  0.22402406956E+02  0.00000000000E+00 0. -1.
</event>
<event>
 7    1  0.2380582E-009  0.7411834E+02  0.7561462E-02  0.1346623E+00
          1   -1    0    0  501    0  0.00000000000E+00  0.00000000000E+00  0.46942903810E+03  0.46942903810E+03  0.00000000000E+00 0. -1.
         -1   -1    0    0    0  501 -0.00000000000E+00 -0.00000000000E+00 -0.35374226236E+02  0.35374226236E+02  0.00000000000E+00 0.  1.
         25    2    1    2    0    0 -0.33340959287E+01  0.14459405441E+01  0.36911848297E+03  0.38975414715E+03  0.12508650530E+03 0.  0.
          5    1    3    3  502    0 -0.20279920901E+02  0.21958493216E+02  0.13408397342E+02  0.33025870698E+02  0.41800000000E+01 0. -1.
         -5    1    3    3    0  502  0.16945824973E+02 -0.20512552672E+02  0.35571008563E+03  0.35672827645E+03  0.41800000000E+01 0. -1.
        -11    1    1    2    0    0 -0.33405609522E+02  0.28353722331E+02  0.47524254372E+02  0.64640723009E+02  0.00000000000E+00 0. -1.
         11    1    1    2    0    0  0.36739705450E+02 -0.29799662875E+02  0.17412074515E+02  0.50408394172E+02  0.00000000000E+00 0.  1.
</event>
<event>
 7    1  0.2380582E-009  0.8709762E+02  0.7561462E-02  0.1310036E+00
         -1   -1    0    0    0  501 -0.00000000000E+00  0.00000000000E+00  0.53729073081E+02  0.53729073081E+02  0.00000000000E+00 0.  1.
          1   -1    0    0  501    0  0.00000000000E+00 -0.00000000000E+00 -0.28172586460E+03  0.28172586460E+03  0.00000000000E+00 0. -1.
         25    2    1    2    0    0 -0.16113982445E+02  0.32344082735E+02 -0.18861007080E+03  0.22918785533E+03  0.12509002400E+03 0.  0.
          5    1    3    3  502    0 -0.30752582097E+02  0.46702380375E+02 -0.19833687690E+03  0.20611119032E+03  0.41800000000E+01 0. -1.
         -5    1    3    3    0  502  0.14638599651E+02 -0.14358297640E+02  0.97268060988E+01  0.23076665005E+02  0.41800000000E+01 0. -1.
        -11    1    1    2    0    0 -0.16281407446E+02 -0.55197958497E+02 -0.14124480882E+02  0.59257065493E+02  0.00000000000E+00 0.  1.
         11    1    1    2    0    0  0.32395389891E+02  0.22853875763E+02 -0.25262239836E+02  0.47010016859E+02  0.00000000000E+00 0. -1.
</event>
<event>
 7    1  0.2380582E-009  0.8510639E+02  0.7561462E-02  0.1315155E+00
          1   -1    0    0  501    0  0.00000000000E+00  0.00000000000E+00  0.18280072640E+02  0.18280072640E+02  0.00000000000E+00 0. -1.
         -1   -1    0    0    0  501 -0.00000000000E+00 -0.00000000000E+00 -0.78895677700E+03  0.78895677700E+03  0.00000000000E+00 0.  1.
         25    2    1    2    0    0 -0.40467967333E+02  0.59358838401E+01 -0.52039262441E+03  0.53677633963E+03  0.12508982433E+03 0.  0.
          5    1    3    3  502    0 -0.53349484414E+02  0.80817723075E+01 -0.52025662577E+03  0.52306396510E+03  0.41800000000E+01 0.  1.
         -5    1    3    3    0  502  0.12881517081E+02 -0.21458884674E+01 -0.13599863965E+00  0.13712374530E+02  0.41800000000E+01 0.  1.
        -11    1    1    2    0    0 -0.59011181950E+01  0.38028250169E+02 -0.10052180135E+03  0.10763644157E+03  0.00000000000E+00 0.  1.
         11    1    1    2    0    0  0.46369085528E+02 -0.43964134009E+02 -0.14976227860E+03  0.16282406844E+03  0.00000000000E+00 0. -1.
</event>
<event>
 7    1  0.2380582E-009  0.1708440E+03  0.7561462E-02  0.1176971E+00
         -2   -1    0    0    0  501 -0.00000000000E+00  0.00000000000E+00  0.72935200206E+02  0.72935200206E+02  0.00000000000E+00 0.  1.
          2   -1    0    0  501    0  0.00000000000E+00 -0.00000000000E+00 -0.40867929158E+03  0.40867929158E+03  0.00000000000E+00 0. -1.
         25    2    1    2    0    0  0.13054274076E+03  0.21119082816E+02 -0.20184933445E+03  0.27180433589E+03  0.12508805046E+03 0.  0.
          5    1    3    3  502    0  0.11087536033E+03  0.67313985756E+02 -0.16198155739E+03  0.20755725846E+03  0.41800000000E+01 0. -1.
         -5    1    3    3    0  502  0.19667380436E+02 -0.46194902940E+02 -0.39867777059E+02  0.64247077431E+02  0.41800000000E+01 0. -1.
        -11    1    1    2    0    0 -0.60007438314E+02  0.36687183938E+02 -0.57856837824E+02  0.91072804949E+02  0.00000000000E+00 0. -1.
         11    1    1    2    0    0 -0.70535302448E+02 -0.57806266753E+02 -0.76037919097E+02  0.11873735094E+03  0.00000000000E+00 0.  1.
</event>
<event>
 7    1  0.2380582E-009  0.1047505E+03  0.7561462E-02  0.1270612E+00
         -1   -1    0    0    0  501 -0.00000000000E+00  0.00000000000E+00  0.40035088977E+02  0.40035088977E+02  0.00000000000E+00 0.  1.
          1   -1    0    0  501    0  0.00000000000E+00 -0.00000000000E+00 -0.39380315595E+03  0.39380315595E+03  0.00000000000E+00 0. -1.
         25    2    1    2    0    0 -0.33075528694E+01 -0.60767584064E+02 -0.23185729791E+03  0.27038796438E+03  0.12509278759E+03 0.  0.
          5    1    3    3  502    0 -0.36959730984E+02 -0.78582812251E+02 -0.97297303813E+02  0.13048186780E+03  0.41800000000E+01 0. -1.
         -5    1    3    3    0  502  0.33652178115E+02  0.17815228187E+02 -0.13455999410E+03  0.13990609657E+03  0.41800000000E+01 0. -1.
        -11    1    1    2    0    0  0.28935961606E+02  0.46916859770E+02 -0.12248058454E+03  0.13431297478E+03  0.00000000000E+00 0. -1.
         11    1    1    2    0    0 -0.25628408736E+02  0.13850724294E+02  0.56981547997E+00  0.29137305769E+02  0.00000000000E+00 0.  1.
</event>
<event>
 7    1  0.2380582E-009  0.2436310E+03  0.7561462E-02  0.1117397E+00
         -2   -1    0    0    0  501 -0.00000000000E+00  0.00000000000E+00  0.43276388989E+03  0.43276388989E+03  0.00000000000E+00 0.  1.
          2   -1    0    0  501    0  0.00000000000E+00 -0.00000000000E+00 -0.17664926326E+03  0.17664926326E+03  0.00000000000E+00 0. -1.
         25    2    1    2    0    0  0.19738635820E+03  0.13393457611E+03  0.24367162161E+02  0.27044219429E+03  0.12508148057E+03 0.  0.
          5    1    3    3  502    0  0.52970599923E+02  0.17932901012E+02  0.59603561076E+02  0.81838440161E+02  0.41800000000E+01 0.  1.
         -5    1    3    3    0  502  0.14441575827E+03  0.11600167510E+03 -0.35236398916E+02  0.18860375413E+03  0.41800000000E+01 0.  1.
        -11    1    1    2    0    0 -0.15967386767E+03 -0.76163573395E+02  0.14948849745E+03  0.23161054552E+03  0.00000000000E+00 0.  1.
         11    1    1    2    0    0 -0.37712490530E+02 -0.57771002713E+02  0.82258967023E+02  0.10736041334E+03  0.00000000000E+00 0. -1.
</event>
<event>
 7    1  0.2380582E-009  0.1494217E+03  0.7561462E-02  0.1201185E+00
          1   -1    0    0  501    0  0.00000000000E+00  0.00000000000E+00  0.37176369356E+03  0.37176369356E+03  0.00000000000E+00 0. -1.
         -1   -1    0    0    0  501 -0.00000000000E+00 -0.00000000000E+00 -0.69454184976E+02  0.69454184976E+02  0.00000000000E+00 0.  1.
         25    2    1    2    0    0  0.36941879196E+02 -0.11116063718E+03  0.18631945086E+03  0.25314801221E+03  0.12509032186E+03 0.  0.
          5    1    3    3  502    0  0.68664863528E+02 -0.64884313810E+02  0.52907468150E+02  0.10835824956E+03  0.41800000000E+01 0. -1.
         -5    1    3    3    0  502 -0.31722984332E+02 -0.46276323370E+02  0.13341198271E+03  0.14478976265E+03  0.41800000000E+01 0. -1.
        -11    1    1    2    0    0  0.19562492327E+02  0.82256072312E+02  0.67926966679E+02  0.10845655969E+03  0.00000000000E+00 0.  1.
         11    1    1    2    0    0 -0.56504371522E+02  0.28904564868E+02  0.48063091051E+02  0.79613306631E+02  0.00000000000E+00 0. -1.
</event>
<event>
 7    1  0.2380582E-009  0.1174506E+03  0.7561462E-02  0.1247363E+00
         -1   -1    0    0    0  501 -0.00000000000E+00  0.00000000000E+00  0.25583490328E+02  0.25583490328E+02  0.00000000000E+00 0.  1.
          1   -1    0    0  501    0  0.00000000000E+00 -0.00000000000E+00 -0.67339164361E+03  0.67339164361E+03  0.00000000000E+00 0. -1.
         25    2    1    2    0    0  0.67615668240E+02 -0.29962385896E+02 -0.36179086435E+03  0.38988422519E+03  0.12508979320E+03 0.  0.
          5    1    3    3  502    0 -0.36371996777E+02 -0.33440269067E+01 -0.11483988010E+03  0.12058098991E+03  0.41800000000E+01 0.  1.
         -5    1    3    3    0  502  0.10398766502E+03 -0.26618358989E+02 -0.24695098425E+03  0.26930323529E+03  0.41800000000E+01 0.  1.
        -11    1    1    2    0    0 -0.28596304736E+02 -0.14080003429E+02 -0.22329636319E+02  0.38917962424E+02  0.00000000000E+00 0.  1.
         11    1    1    2    0    0 -0.39019363504E+02  0.44042389325E+02 -0.26368765261E+03  0.27017294633E+03  0.00000000000E+00 0. -1.
</event>
<event>
 7    1  0.2380582E-009  0.9963583E+02  0.7561462E-02  0.1281064E+00
         -2   -1    0    0    0  501 -0.00000000000E+00  0.00000000000E+00  0.97827320271E+02  0.97827320271E+02  0.00000000000E+00 0.  1.
          2   -1    0    0  501    0  0.00000000000E+00 -0.00000000000E+00 -0.12919684917E+03  0.12919684917E+03  0.00000000000E+00 0. -1.
         25    2    1    2    0    0  0.52601687336E+01  0.29101325452E+02 -0.24582684036E+02  0.13086444211E+03  0.12508651940E+03 0.  0.
          5    1    3    3  502    0  0.20843498575E+02 -0.34235361372E+02  0.26224541166E+02  0.48080249173E+02  0.41800000000E+01 0.  1.
         -5    1    3    3    0  502 -0.15583329842E+02  0.63336686825E+02 -0.50807225203E+02  0.82784192934E+02  0.41800000000E+01 0.  1.
        -11    1    1    2    0    0 -0.46013748024E+02 -0.50447560237E+01  0.71216267065E+01  0.46834091616E+02  0.00000000000E+00 0.  1.
         11    1    1    2    0    0  0.40753579290E+02 -0.24056569429E+02 -0.13908471569E+02  0.49325635718E+02  0.00000000000E+00 0. -1.
</event>
<event>
 7    1  0.2380582E-009  0.2179584E+03  0.7561462E-02  0.1135414E+00
          1   -1    0    0  501    0  0.00000000000E+00  0.00000000000E+00  0.47631278949E+03  0.47631278949E+03  0.00000000000E+00 0. -1.
         -1   -1    0    0    0  501 -0.00000000000E+00 -0.00000000000E+00 -0.11520620262E+03  0.11520620262E+03  0.00000000000E+00 0.  1.
         25    2    1    2    0    0 -0.69366141231E+02  0.19503565937E+03  0.17297015458E+03  0.29735010406E+03  0.12509132676E+03 0.  0.
          5    1    3    3  502    0 -0.39474065055E+02  0.55648664983E+02  0.13251433372E+03  0.14910565639E+03  0.41800000000E+01 0.  1.
         -5    1    3    3    0  502 -0.29892076176E+02  0.13938699438E+03  0.40455820863E+02  0.14824444766E+03  0.41800000000E+01 0.  1.
        -11    1    1    2    0    0  0.86139590414E+02 -0.11795639759E+03  0.10742910071E+03  0.18131396098E+03  0.00000000000E+00 0.  1.
         11    1    1    2    0    0 -0.16773449183E+02 -0.77079261782E+02  0.80707331571E+02  0.11285492707E+03  0.00000000000E+00 0. -1.
</event>
<event>
 7    1  0.2380582E-009  0.9399237E+02  0.7561462E-02  0.1293462E+00
         -1   -1    0    0    0  501 -0.00000000000E+00  0.00000000000E+00  0.23193265976E+02  0.23193265976E+02  0.00000000000E+00 0.  1.
          1   -1    0    0  501    0  0.00000000000E+00 -0.00000000000E+00 -0.66525790914E+03  0.66525790914E+03  0.00000000000E+00 0. -1.
         25    2    1    2    0    0  0.13855894797E+02  0.30364400543E+02 -0.50065671528E+03  0.51712585601E+03  0.12509205316E+03 0.  0.
          5    1    3    3  502    0  0.13575059368E+02 -0.31016297577E+02 -0.40848818007E+02  0.53220215001E+02  0.41800000000E+01 0.  1.
         -5    1    3    3    0  502  0.28083542953E+00  0.61380698120E+02 -0.45980789727E+03  0.46390564101E+03  0.41800000000E+01 0.  1.
        -11    1    1    2    0    0 -0.39100357944E+02 -0.47734330106E+02 -0.68244348815E+02  0.92003779309E+02  0.00000000000E+00 0.  1.
         11    1    1    2    0    0  0.25244463147E+02  0.17369929563E+02 -0.73163579072E+02  0.79321539793E+02  0.00000000000E+00 0. -1.
</event>
<event>
 7    1  0.2380582E-009  0.7758841E+02  0.7561462E-02  0.1336038E+00
          3   -1    0    0  501    0  0.00000000000E+00  0.00000000000E+00  0.55823448005E+02  0.55823448005E+02  0.00000000000E+00 0. -1.
         -3   -1    0    0    0  501 -0.00000000000E+00 -0.00000000000E+00 -0.25734173208E+03  0.25734173208E+03  0.00000000000E+00 0.  1.
         25    2    1    2    0    0  0.39003231205E+02 -0.10573811543E+02 -0.15700339263E+03  0.20477082071E+03  0.12509183100E+03 0.  0.
          5    1    3    3  502    0 -0.80914525866E+01 -0.26104112443E+02  0.10846660781E+02  0.29698800337E+02  0.41800000000E+01 0.  1.
         -5    1    3    3    0  502  0.47094683792E+02  0.15530300899E+02 -0.16785005341E+03  0.17507202037E+03  0.41800000000E+01 0.  1.
        -11    1    1    2    0    0  0.13385312133E+02 -0.14458015363E+02  0.15366147760E+02  0.24986382013E+02  0.00000000000E+00 0. -1.
         11    1    1    2    0    0 -0.52388543338E+02  0.25031826907E+02 -0.59881039206E+02  0.83407977363E+02  0.00000000000E+00 0.  1.
</event>
<event>
 7    1  0.2380582E-009  0.1018635E+03  0.7561462E-02  0.1276425E+00
         -2   -1    0    0    0  501 -0.00000000000E+00  0.00000000000E+00  0.34216664027E+02  0.34216664027E+02  0.00000000000E+00 0.  1.
          2   -1    0    0  501    0  0.00000000000E+00 -0.00000000000E+00 -0.53506070391E+03  0.53506070391E+03  0.00000000000E+00 0. -1.
         25    2    1    2    0    0 -0.36717355341E+02 -0.44726800438E+02 -0.39904182690E+03  0.42217312050E+03  0.12508842150E+03 0.  0.
          5    1    3    3  502    0  0.52084711859E+01 -0.53988533599E+02 -0.62421606586E+02  0.82799875006E+02  0.41800000000E+01 0. -1.
         -5    1    3    3    0  502 -0.41925826527E+02  0.92617331610E+01 -0.33662022032E+03  0.33937324549E+03  0.41800000000E+01 0. -1.
        -11    1    1    2    0    0 -0.29731771015E+02  0.16371634421E+02 -0.32243195490E+02  0.46814872388E+02  0.00000000000E+00 0.  1.
         11    1    1    2    0    0  0.66449126357E+02  0.28355166017E+02 -0.69559017493E+02  0.10028937505E+03  0.00000000000E+00 0. -1.
</event>
<event>
 7    1  0.2380582E-009  0.2305158E+03  0.7561462E-02  0.1126277E+00
          2   -1    0    0  501    0  0.00000000000E+00  0.00000000000E+00  0.92115796306E+03  0.92115796306E+03  0.00000000000E+00 0. -1.
         -2   -1    0    0    0  501 -0.00000000000E+00 -0.00000000000E+00 -0.64937303357E+02  0.64937303357E+02  0.00000000000E+00 0.  1.
         25    2    1    2    0    0 -0.17769579141E+01  0.21424986710E+03  0.35333066847E+03  0.43173617369E+03  0.12508956493E+03 0.  0.
          5    1    3    3  502    0  0.42380598067E+02  0.19245816439E+02  0.50254227430E+02  0.68625624351E+02  0.41800000000E+01 0.  1.
         -5    1    3    3    0  502 -0.44157555981E+02  0.19500405066E+03  0.30307644104E+03  0.36311054934E+03  0.41800000000E+01 0.  1.
        -11    1    1    2    0    0  0.32204182049E+01 -0.94117917088E+02  0.33450335457E+03  0.34750690300E+03  0.00000000000E+00 0. -1.
         11    1    1    2    0    0 -0.14434602908E+01 -0.12013195002E+03  0.16838663666E+03  0.20685218973E+03  0.00000000000E+00 0.  1.
</event>
<event>
 7    1  0.2380582E-009  0.1986227E+03  0.7561462E-02  0.1150906E+00
         -2   -1    0    0    0  501 -0.00000000000E+00  0.00000000000E+00  0.20309731242E+03  0.20309731242E+03  0.00000000000E+00 0.  1.
          2   -1    0    0  501    0  0.00000000000E+00 -0.00000000000E+00 -0.21058299606E+03  0.21058299606E+03  0.00000000000E+00 0. -1.
         25    2    1    2    0    0  0.29315534975E+02 -0.16811383005E+03 -0.43935180319E+02  0.21610072877E+03  0.12509022528E+03 0.  0.
          5    1    3    3  502    0 -0.32239261847E+02 -0.12557321271E+03 -0.53965999381E+02  0.14049129241E+03  0.41800000000E+01 0.  1.
         -5    1    3    3    0  502  0.61554796822E+02 -0.42540617344E+02  0.10030819063E+02  0.75609436361E+02  0.41800000000E+01 0.  1.
        -11    1    1    2    0    0  0.21410309190E+02  0.12255072508E+03  0.35560364837E+02  0.12938941651E+03  0.00000000000E+00 0.  1.
         11    1    1    2    0    0 -0.50725844165E+02  0.45563104967E+02  0.88913183961E+00  0.68190163190E+02  0.00000000000E+00 0. -1.
</event>
<event>
 7    1  0.2586578E-009  0.8883330E+02  0.7561462E-02  0.1305702E+00
          2   -1    0    0  501    0  0.00000000000E+00  0.00000000000E+00  0.61432965532E+03  0.61432965532E+03  0.00000000000E+00 0.  1.
         -2   -1    0    0    0  501 -0.00000000000E+00 -0.00000000000E+00 -0.26397997987E+02  0.26397997987E+02  0.00000000000E+00 0. -1.
         25    2    1    2    0    0  0.27188138661E+02 -0.59889211372E+02  0.33752009621E+03  0.36591342991E+03  0.12508761060E+03 0.  0.
          5    1    3    3  502    0 -0.27231020374E+01  0.13120872479E+02 -0.46129347949E+01  0.14775795977E+02  0.41800000000E+01 0.  1.
         -5    1    3    3    0  502  0.29911240699E+02 -0.73010083851E+02  0.34213303100E+03  0.35113763394E+03  0.41800000000E+01 0.  1.
        -11    1    1    2    0    0 -0.12435758413E+02 -0.82353860767E+01  0.34294883211E-01  0.14915456656E+02  0.00000000000E+00 0. -1.
         11    1    1    2    0    0 -0.14752380249E+02  0.68124597448E+02  0.25037726624E+03  0.25989876674E+03  0.00000000000E+00 0.  1.
</event>
<event>
 7    1  0.2380582E-009  0.1120529E+03  0.7561462E-02  0.1256815E+00
         -4   -1    0    0    0  501 -0.00000000000E+00  0.00000000000E+00  0.51693546723E+02  0.51693546723E+02  0.00000000000E+00 0.  1.
          4   -1    0    0  501    0  0.00000000000E+00 -0.00000000000E+00 -0.29402807520E+03  0.29402807520E+03  0.00000000000E+00 0. -1.
         25    2    1    2    0    0 -0.18522932011E+02  0.32991449165E+02 -0.16516271425E+03  0.21061134628E+03  0.12508749848E+03 0.  0.
          5    1    3    3  502    0  0.14244399454E+02  0.70518916245E+02 -0.58524723426E+02  0.92835532617E+02  0.41800000000E+01 0.  1.
         -5    1    3    3    0  502 -0.32767331465E+02 -0.37527467080E+02 -0.10663799083E+03  0.11777581367E+03  0.41800000000E+01 0.  1.
        -11    1    1    2    0    0  0.45317819095E+02 -0.52163128323E+02 -0.25152028284E+02  0.73534489941E+02  0.00000000000E+00 0. -1.
         11    1    1    2    0    0 -0.26794887084E+02  0.19171679158E+02 -0.52019785937E+02  0.61575785700E+02  0.00000000000E+00 0.  1.
</event>
<event>
 7    1  0.2380582E-009  0.9914954E+02  0.7561462E-02  0.1282095E+00
          1   -1    0    0  501    0  0.00000000000E+00  0.00000000000E+00  0.36778378105E+03  0.36778378105E+03  0.00000000000E+00 0. -1.
         -1   -1    0    0    0  501 -0.00000000000E+00 -0.00000000000E+00 -0.38960984035E+02  0.38960984035E+02  0.00000000000E+00 0.  1.
         25    2    1    2    0    0 -0.26621812208E+02  0.47301094229E+02  0.18731966332E+03  0.23169279158E+03  0.12508708567E+03 0.  0.
          5    1    3    3  502    0  0.12127720335E+02 -0.32445968965E+02  0.15247272752E+02  0.38075900895E+02  0.41800000000E+01 0. -1.
         -5    1    3    3    0  502 -0.38749532542E+02  0.79747063194E+02  0.17207239057E+03  0.19361689068E+03  0.41800000000E+01 0. -1.
        -11    1    1    2    0    0  0.41507361993E+02 -0.27162476975E+02  0.14156996204E+03  0.15000905109E+03  0.00000000000E+00 0. -1.
         11    1    1    2    0    0 -0.14885549785E+02 -0.20138617254E+02 -0.66828352747E-01  0.25042922420E+02  0.00000000000E+00 0.  1.
</event>
<event>
 7    1  0.2380582E-009  0.1144127E+03  0.7561462E-02  0.1252610E+00
          3   -1    0    0  501    0  0.00000000000E+00  0.00000000000E+00  0.27978676807E+03  0.27978676807E+03  0.00000000000E+00 0. -1.
         -3   -1    0    0    0  501 -0.00000000000E+00 -0.00000000000E+00 -0.78127153424E+02  0.78127153424E+02  0.00000000000E+00 0.  1.
         25    2    1    2    0    0  0.53334246125E+02  0.86016321275E+02  0.11392637954E+03  0.19715437979E+03  0.12508908897E+03 0.  0.
          5    1    3    3  502    0 -0.17652272728E+02  0.13543962942E+02  0.90050507864E+02  0.92852614563E+02  0.41800000000E+01 0.  1.
         -5    1    3    3    0  502  0.70986518853E+02  0.72472358332E+02  0.23875871674E+02  0.10430176523E+03  0.41800000000E+01 0.  1.
        -11    1    1    2    0    0 -0.14242492251E+02 -0.57206375881E+01  0.67456477149E+02  0.69180565113E+02  0.00000000000E+00 0. -1.
         11    1    1    2    0    0 -0.39091753875E+02 -0.80295683687E+02  0.20276757954E+02  0.91578976587E+02  0.00000000000E+00 0.  1.
</event>
<event>
 7    1  0.2380582E-009  0.9195550E+02  0.7561462E-02  0.1298184E+00
         -1   -1    0    0    0  501 -0.00000000000E+00  0.00000000000E+00  0.10112116187E+04  0.10112116187E+04  0.00000000000E+00 0. -1.
          1   -1    0    0  501    0  0.00000000000E+00 -0.00000000000E+00 -0.19027428172E+02  0.19027428172E+02  0.00000000000E+00 0.  1.
         25    2    1    2    0    0  0.56913921762E+01 -0.23216769459E+02  0.84905014625E+03  0.85854803371E+03  0.12508862865E+03 0.  0.
          5    1    3    3  502    0 -0.43767637556E+02 -0.32217956440E+02  0.19265739737E+03  0.20021974921E+03  0.41800000000E+01 0.  1.
         -5    1    3    3    0  502  0.49459029732E+02  0.90011869811E+01  0.65639274888E+03  0.65832828450E+03  0.41800000000E+01 0.  1.
        -11    1    1    2    0    0 -0.22731088476E+02  0.45526519206E+02  0.39772234093E+02  0.64584804242E+02  0.00000000000E+00 0.  1.
         11    1    1    2    0    0  0.17039696299E+02 -0.22309749747E+02  0.10336181023E+03  0.10710620896E+03  0.00000000000E+00 0. -1.
</event>
<event>
 7    1  0.2380582E-009  0.1087541E+03  0.7561462E-02  0.1262895E+00
         -1   -1    0    0    0  501 -0.00000000000E+00  0.00000000000E+00  0.58212490740E+02  0.58212490740E+02  0.00000000000E+00 0.  1.
          1   -1    0    0  501    0  0.00000000000E+00 -0.00000000000E+00 -0.24778476642E+03  0.24778476642E+03  0.00000000000E+00 0. -1.
         25    2    1    2    0    0  0.21884354988E+02  0.26445945586E+01 -0.47950346292E+02  0.13576694988E+03  0.12509000798E+03 0.  0.
          5    1    3    3  502    0 -0.42367465747E+02  0.34566680396E+02 -0.25480063038E+02  0.60469525877E+02  0.41800000000E+01 0. -1.
         -5    1    3    3    0  502  0.64251820735E+02 -0.31922085837E+02 -0.22470283254E+02  0.75297424003E+02  0.41800000000E+01 0. -1.
        -11    1    1    2    0    0 -0.18840782092E+02  0.42011508812E+02 -0.48300142735E+02  0.66729646566E+02  0.00000000000E+00 0.  1.
         11    1    1    2    0    0 -0.30435728961E+01 -0.44656103371E+02 -0.93321786651E+02  0.10350066071E+03  0.00000000000E+00 0. -1.
</event>
<event>
 7    1  0.2380582E-009  0.1061496E+03  0.7561462E-02  0.1267871E+00
         -1   -1    0    0    0  501 -0.00000000000E+00  0.00000000000E+00  0.71688128093E+02  0.71688128093E+02  0.00000000000E+00 0.  1.
          1   -1    0    0  501    0  0.00000000000E+00 -0.00000000000E+00 -0.37145632221E+03  0.37145632221E+03  0.00000000000E+00 0. -1.
         25    2    1    2    0    0 -0.72631744563E+02  0.55938192129E+02 -0.26912799309E+03  0.31061426955E+03  0.12508755385E+03 0.  0.
          5    1    3    3  502    0 -0.24771245313E+01  0.42126956802E+01 -0.19781375833E+03  0.19791826175E+03  0.41800000000E+01 0.  1.
         -5    1    3    3    0  502 -0.70154620032E+02  0.51725496449E+02 -0.71314234760E+02  0.11269600780E+03  0.41800000000E+01 0.  1.
        -11    1    1    2    0    0  0.88138583537E+02 -0.52929944281E+02 -0.56490661316E+01  0.10296553238E+03  0.00000000000E+00 0.  1.
         11    1    1    2    0    0 -0.15506838973E+02 -0.30082478478E+01 -0.24991134896E+02  0.29564648374E+02  0.00000000000E+00 0. -1.
</event>
<event>
 7    1  0.2380582E-009  0.1448602E+03  0.7561462E-02  0.1206935E+00
         -2   -1    0    0    0  501 -0.00000000000E+00  0.00000000000E+00  0.23563233356E+02  0.23563233356E+02  0.00000000000E+00 0. -1.
          2   -1    0    0  501    0  0.00000000000E+00 -0.00000000000E+00 -0.11803675518E+04  0.11803675518E+04  0.00000000000E+00 0.  1.
         25    2    1    2    0    0  0.12136279360E+03  0.26673709053E+02 -0.69127348201E+03  0.71340611933E+03  0.12509536259E+03 0.  0.
          5    1    3    3  502    0  0.10809359178E+03 -0.10562864359E+02 -0.28222161215E+03  0.30242736227E+03  0.41800000000E+01 0. -1.
         -5    1    3    3    0  502  0.13269201826E+02  0.37236573412E+02 -0.40905186986E+03  0.41097875705E+03  0.41800000000E+01 0. -1.
        -11    1    1    2    0    0 -0.59396682184E+02  0.21104003504E+02 -0.31087770448E+03  0.31720386498E+03  0.00000000000E+00 0.  1.
         11    1    1    2    0    0 -0.61966111420E+02 -0.47777712557E+02 -0.15465313198E+03  0.17332080087E+03  0.00000000000E+00 0. -1.
</event>
<event>
 7    1  0.2891337E-009  0.1113358E+03  0.7561462E-02  0.1258116E+00
          3   -1    0    0  501    0  0.00000000000E+00  0.00000000000E+00  0.62748424787E+03  0.62748424787E+03  0.00000000000E+00 0. -1.
         -3   -1    0    0    0  501 -0.00000000000E+00 -0.00000000000E+00 -0.26406584212E+02  0.26406584212E+02  0.00000000000E+00 0.  1.
         25    2    1    2    0    0  0.62596482820E+02 -0.13941089569E+02  0.39992356783E+03  0.42390618306E+03  0.12507964779E+03 0.  0.
          5    1    3    3  502    0 -0.18616340079E+02  0.31233107741E+02  0.50863037325E+02  0.62662557425E+02  0.41800000000E+01 0.  1.
         -5    1    3    3    0  502  0.81212822900E+02 -0.45174197310E+02  0.34906053051E+03  0.36124362564E+03  0.41800000000E+01 0.  1.
        -11    1    1    2    0    0 -0.14629148210E+02  0.37027470846E+02  0.27584353485E+02  0.48434926776E+02  0.00000000000E+00 0.  1.
         11    1    1    2    0    0 -0.47967334611E+02 -0.23086381277E+02  0.17356974234E+03  0.18154972225E+03  0.00000000000E+00 0. -1.
</event>
<event>
 7    1  0.2380582E-009  0.1185788E+03  0.7561462E-02  0.1245460E+00
         -2   -1    0    0    0  501 -0.00000000000E+00  0.00000000000E+00  0.13086933171E+03  0.13086933171E+03  0.00000000000E+00 0.  1.
          2   -1    0    0  501    0  0.00000000000E+00 -0.00000000000E+00 -0.18102264056E+03  0.18102264056E+03  0.00000000000E+00 0. -1.
         25    2    1    2    0    0  0.43605632607E+02 -0.34248935246E+02  0.68592116859E+02  0.15305803515E+03  0.12508973926E+03 0.  0.
          5    1    3    3  502    0  0.53917828785E+02  0.33245635499E+02  0.53473137833E+02  0.83001526555E+02  0.41800000000E+01 0. -1.
         -5    1    3    3    0  502 -0.10312196178E+02 -0.67494570745E+02  0.15118979026E+02  0.70056508598E+02  0.41800000000E+01 0. -1.
        -11    1    1    2    0    0  0.22633887173E+02 -0.10885880561E+02 -0.24110212851E+02  0.34815192199E+02  0.00000000000E+00 0.  1.
         11    1    1    2    0    0 -0.66239519780E+02  0.45134815807E+02 -0.94635212858E+02  0.12401874492E+03  0.00000000000E+00 0. -1.
</event>
<event>
 7    1  0.2380582E-009  0.1354757E+03  0.7561462E-02  0.1219550E+00
          2   -1    0    0  501    0  0.00000000000E+00  0.00000000000E+00  0.14909514771E+03  0.14909514771E+03  0.00000000000E+00 0. -1.
         -2   -1    0    0    0  501 -0.00000000000E+00 -0.00000000000E+00 -0.15012773216E+03  0.15012773216E+03  0.00000000000E+00 0.  1.
         25    2    1    2    0    0  0.98623116896E+02 -0.19845893598E+02 -0.13757161339E+02  0.16111213477E+03  0.12508989488E+03 0.  0.
          5    1    3    3  502    0  0.15868435638E+02  0.44871074694E+02  0.18350413759E+02  0.51180373963E+02  0.41800000000E+01 0. -1.
         -5    1    3    3    0  502  0.82754681258E+02 -0.64716968292E+02 -0.32107575098E+02  0.10993176081E+03  0.41800000000E+01 0. -1.
        -11    1    1    2    0    0 -0.39413511997E+01  0.22966410781E+02  0.33807255633E+02  0.41059965987E+02  0.00000000000E+00 0. -1.
         11    1    1    2    0    0 -0.94681765696E+02 -0.31205171827E+01 -0.21082678742E+02  0.97050779110E+02  0.00000000000E+00 0.  1.
</event>
<event>
 7    1  0.2380582E-009  0.6745849E+02  0.7561462E-02  0.1368955E+00
         -3   -1    0    0    0  501 -0.00000000000E+00  0.00000000000E+00  0.68369757575E+02  0.68369757575E+02  0.00000000000E+00 0.  1.
          3   -1    0    0  501    0  0.00000000000E+00 -0.00000000000E+00 -0.20555560108E+03  0.20555560108E+03  0.00000000000E+00 0. -1.
         25    2    1    2    0    0 -0.20948105715E+02 -0.25504496602E+02 -0.37973873016E+02  0.13482723713E+03  0.12508823430E+03 0.  0.
          5    1    3    3  502    0 -0.29199941432E+02  0.34102923638E+01  0.40768012231E+02  0.50435799735E+02  0.41800000000E+01 0.  1.
         -5    1    3    3    0  502  0.82518357168E+01 -0.28914788966E+02 -0.78741885247E+02  0.84391437397E+02  0.41800000000E+01 0.  1.
        -11    1    1    2    0    0 -0.17919601835E+02  0.30804146992E+02 -0.36808764402E+01  0.35826756108E+02  0.00000000000E+00 0.  1.
         11    1    1    2    0    0  0.38867707550E+02 -0.52996503902E+01 -0.95531094051E+02  0.10327136542E+03  0.00000000000E+00 0. -1.
</event>
<event>
 7    1  0.2380582E-009  0.1653610E+03  0.7561462E-02  0.1182774E+00
          1   -1    0    0  501    0  0.00000000000E+00  0.00000000000E+00  0.71132502554E+02  0.71132502554E+02  0.00000000000E+00 0. -1.
         -1   -1    0    0    0  501 -0.00000000000E+00 -0.00000000000E+00 -0.46104719118E+03  0.46104719118E+03  0.00000000000E+00 0.  1.
         25    2    1    2    0    0 -0.61836991857E+02 -0.12838957748E+03 -0.16691393237E+03  0.25261771432E+03  0.12509097331E+03 0.  0.
          5    1    3    3  502    0  0.36529511507E+02 -0.47565478182E+02 -0.36580090802E+02  0.70373683779E+02  0.41800000000E+01 0. -1.
         -5    1    3    3    0  502 -0.98366503363E+02 -0.80824099303E+02 -0.13033384156E+03  0.18224403054E+03  0.41800000000E+01 0. -1.
        -11    1    1    2    0    0  0.28232972528E+02  0.74984288242E+02 -0.19443947783E+03  0.21030086723E+03  0.00000000000E+00 0.  1.
         11    1    1    2    0    0  0.33604019329E+02  0.53405289242E+02 -0.28561278429E+02  0.69261112174E+02  0.00000000000E+00 0. -1.
</event>
<event>
 7    1  0.2380582E-009  0.8173617E+02  0.7561462E-02  0.1324195E+00
          3   -1    0    0  501    0  0.00000000000E+00  0.00000000000E+00  0.10801994523E+02  0.10801994523E+02  0.00000000000E+00 0. -1.
         -3   -1    0    0    0  501 -0.00000000000E+00 -0.00000000000E+00 -0.17839827295E+04  0.17839827295E+04  0.00000000000E+00 0.  1.
         25    2    1    2    0    0  0.47175904645E+02 -0.12634180371E+02 -0.14385789278E+04  0.14448326825E+04  0.12508781077E+03 0.  0.
          5    1    3    3  502    0  0.31614251385E+02  0.13736898425E+02 -0.99271570466E+02  0.10516881844E+03  0.41800000000E+01 0. -1.
         -5    1    3    3    0  502  0.15561653260E+02 -0.26371078796E+02 -0.13393073574E+04  0.13396638641E+04  0.41800000000E+01 0. -1.
        -11    1    1    2    0    0 -0.64231376636E+02 -0.14452095743E+02 -0.26925030741E+03  0.27718272107E+03  0.00000000000E+00 0.  1.
         11    1    1    2    0    0  0.17055471992E+02  0.27086276114E+02 -0.65351499741E+02  0.72769320437E+02  0.00000000000E+00 0. -1.
</event>
<event>
 7    1  0.2380582E-009  0.1342337E+03  0.7561462E-02  0.1221306E+00
          2   -1    0    0  501    0  0.00000000000E+00  0.00000000000E+00  0.31529556181E+03  0.31529556181E+03  0.00000000000E+00 0. -1.
         -2   -1    0    0    0  501 -0.00000000000E+00 -0.00000000000E+00 -0.58583318879E+02  0.58583318879E+02  0.00000000000E+00 0.  1.
         25    2    1    2    0    0  0.71476075368E+02 -0.29537712130E+02  0.11166122197E+03  0.18465344461E+03  0.12508940933E+03 0.  0.
          5    1    3    3  502    0  0.99615412708E+02 -0.50410847393E+02  0.87087705293E+02  0.14165530275E+03  0.41800000000E+01 0.  1.
         -5    1    3    3    0  502 -0.28139337340E+02  0.20873135264E+02  0.24573516673E+02  0.42998141859E+02  0.41800000000E+01 0.  1.
        -11    1    1    2    0    0 -0.73734510607E+02 -0.16343149779E+02  0.92984619807E+02  0.11979155279E+03  0.00000000000E+00 0.  1.
         11    1    1    2    0    0  0.22584352391E+01  0.45880861908E+02  0.52066401159E+02  0.69433883290E+02  0.00000000000E+00 0. -1.
</event>
<event>
 7    1  0.2380582E-009  0.1031139E+03  0.7561462E-02  0.1273881E+00
         -1   -1    0    0    0  501 -0.00000000000E+00  0.00000000000E+00  0.88909330577E+02  0.88909330577E+02  0.00000000000E+00 0.  1.
          1   -1    0    0  501    0  0.00000000000E+00 -0.00000000000E+00 -0.14671006595E+03  0.14671006595E+03  0.00000000000E+00 0. -1.
         25    2    1    2    0    0 -0.24011572492E+02 -0.25768912796E+02 -0.26250661151E+02  0.13257559453E+03  0.12508636446E+03 0.  0.
          5    1    3    3  502    0 -0.36578493474E+02 -0.71471820395E+02 -0.27516797935E+02  0.84975607464E+02  0.41800000000E+01 0. -1.
         -5    1    3    3    0  502  0.12566920982E+02  0.45702907599E+02  0.12661367834E+01  0.47599987062E+02  0.41800000000E+01 0. -1.
        -11    1    1    2    0    0  0.45873279796E+02  0.19468198570E+01  0.13255908008E+02  0.47789821133E+02  0.00000000000E+00 0.  1.
         11    1    1    2    0    0 -0.21861707304E+02  0.23822092939E+02 -0.44805982233E+02  0.55253980871E+02  0.00000000000E+00 0. -1.
</event>
<event>
 7    1  0.2380582E-009  0.1076817E+03  0.7561462E-02  0.1264924E+00
         -2   -1    0    0    0  501 -0.00000000000E+00  0.00000000000E+00  0.38349942204E+02  0.38349942204E+02  0.00000000000E+00 0.  1.
          2   -1    0    0  501    0  0.00000000000E+00 -0.00000000000E+00 -0.35155145569E+03  0.35155145569E+03  0.00000000000E+00 0. -1.
         25    2    1    2    0    0 -0.17741111886E+02 -0.18161493456E+01 -0.24033938577E+03  0.27153096347E+03  0.12509195946E+03 0.  0.
          5    1    3    3  502    0 -0.53689604968E+02  0.40238992123E+02 -0.98765641874E+02  0.11947332164E+03  0.41800000000E+01 0. -1.
         -5    1    3    3    0  502  0.35948493082E+02 -0.42055141469E+02 -0.14157374389E+03  0.15205764183E+03  0.41800000000E+01 0. -1.
        -11    1    1    2    0    0  0.23148039671E+02 -0.42294230258E+02 -0.31016825826E+02  0.57329548560E+02  0.00000000000E+00 0.  1.
         11    1    1    2    0    0 -0.54069277851E+01  0.44110379603E+02 -0.41845301891E+02  0.61040885865E+02  0.00000000000E+00 0. -1.
</event>
<event>
 7    1  0.2380582E-009  0.1188539E+03  0.7561462E-02  0.1245000E+00
          1   -1    0    0  501    0  0.00000000000E+00  0.00000000000E+00  0.42286698755E+03  0.42286698755E+03  0.00000000000E+00 0. -1.
         -1   -1    0    0    0  501 -0.00000000000E+00 -0.00000000000E+00 -0.62062945263E+02  0.62062945263E+02  0.00000000000E+00 0.  1.
         25    2    1    2    0    0  0.26156912189E+02  0.96095263794E+02  0.92391346558E+02  0.18466888380E+03  0.12509177409E+03 0.  0.
          5    1    3    3  502    0  0.30374232236E+02  0.63091360983E+02 -0.15369518638E+02  0.71810920603E+02  0.41800000000E+01 0. -1.
         -5    1    3    3    0  502 -0.42173200468E+01  0.33003902811E+02  0.10776086520E+03  0.11285796320E+03  0.41800000000E+01 0. -1.
        -11    1    1    2    0    0 -0.40692831272E+02 -0.41092910830E+01  0.94845621043E+02  0.10328835666E+03  0.00000000000E+00 0. -1.
         11    1    1    2    0    0  0.14535919084E+02 -0.91985972711E+02  0.17356707469E+03  0.19697269236E+03  0.00000000000E+00 0.  1.
</event>
<event>
 7    1  0.2380582E-009  0.9945924E+02  0.7561462E-02  0.1281437E+00
          1   -1    0    0  501    0  0.00000000000E+00  0.00000000000E+00  0.32813990059E+03  0.32813990059E+03  0.00000000000E+00 0. -1.
         -1   -1    0    0    0  501 -0.00000000000E+00 -0.00000000000E+00 -0.40409598810E+02  0.40409598810E+02  0.00000000000E+00 0.  1.
         25    2    1    2    0    0  0.24309251064E+02 -0.96841148343E+01  0.10940452233E+03  0.16823627200E+03  0.12509744978E+03 0.  0.
          5    1    3    3  502    0  0.53618788759E+02  0.27682783066E+02  0.14759923020E+02  0.62262659064E+02  0.41800000000E+01 0.  1.
         -5    1    3    3    0  502 -0.29309537694E+02 -0.37366897900E+02  0.94644599315E+02  0.10597361293E+03  0.41800000000E+01 0.  1.
        -11    1    1    2    0    0 -0.53066640137E+02  0.24451774826E+02  0.12443033351E+03  0.13746587026E+03  0.00000000000E+00 0.  1.
         11    1    1    2    0    0  0.28757389073E+02 -0.14767659991E+02  0.53895445935E+02  0.62847357147E+02  0.00000000000E+00 0. -1.
</event>
<event>
 7    1  0.2380582E-009  0.1230733E+03  0.7561462E-02  0.1238111E+00
         -2   -1    0    0    0  501 -0.00000000000E+00  0.00000000000E+00  0.58521705875E+02  0.58521705875E+02  0.00000000000E+00 0.  1.
          2   -1    0    0  501    0  0.00000000000E+00 -0.00000000000E+00 -0.42681294482E+03  0.42681294482E+03  0.00000000000E+00 0. -1.
         25    2    1    2    0    0  0.57906558720E+02  0.72240133390E+02 -0.33170754195E+03  0.36640066637E+03  0.12509096096E+03 0.  0.
          5    1    3    3  502    0 -0.33908074579E+02  0.40210943434E+02 -0.73669173526E+02  0.90616207278E+02  0.41800000000E+01 0. -1.
         -5    1    3    3    0  502  0.91814633298E+02  0.32029189956E+02 -0.25803836842E+03  0.27578445909E+03  0.41800000000E+01 0. -1.
        -11    1    1    2    0    0 -0.28983167290E+02 -0.55552715629E+02  0.80692947383E+01  0.63176274957E+02  0.00000000000E+00 0.  1.
         11    1    1    2    0    0 -0.28923391430E+02 -0.16687417761E+02 -0.44652991731E+02  0.55757709367E+02  0.00000000000E+00 0. -1.
</event>
<event>
 7    1  0.2380582E-009  0.1208951E+03  0.7561462E-02  0.1241628E+00
          1   -1    0    0  501    0  0.00000000000E+00  0.00000000000E+00  0.87777617733E+03  0.87777617733E+03  0.00000000000E+00 0. -1.
         -1   -1    0    0    0  501 -0.00000000000E+00 -0.00000000000E+00 -0.29668527168E+02  0.29668527168E+02  0.00000000000E+00 0.  1.
         25    2    1    2    0    0 -0.55282167655E+02 -0.66207229330E+02  0.69061050308E+03  0.70712963666E+03  0.12509972344E+03 0.  0.
          5    1    3    3  502    0 -0.37430131911E+02 -0.87002906756E+02  0.65585153299E+03  0.66266826262E+03  0.41800000000E+01 0.  1.
         -5    1    3    3    0  502 -0.17852035743E+02  0.20795677426E+02  0.34758970082E+02  0.44461374034E+02  0.41800000000E+01 0.  1.
        -11    1    1    2    0    0  0.76738698748E+02  0.58380414891E+02  0.14541111508E+03  0.17447490684E+03  0.00000000000E+00 0.  1.
         11    1    1    2    0    0 -0.21456531094E+02  0.78268144385E+01  0.12086032007E+02  0.25840161000E+02  0.00000000000E+00 0. -1.
</event>
<event>
 7    1  0.2380582E-009  0.1279507E+03  0.7561462E-02  0.1230529E+00
          2   -1    0    0  501    0  0.00000000000E+00  0.00000000000E+00  0.25390946437E+03  0.25390946437E+03  0.00000000000E+00 0. -1.
         -2   -1    0    0    0  501 -0.00000000000E+00 -0.00000000000E+00 -0.83316668138E+02  0.83316668138E+02  0.00000000000E+00 0.  1.
         25    2    1    2    0    0  0.78000028007E+02  0.42906665364E+02  0.53944576487E+02  0.16273293266E+03  0.12508798399E+03 0.  0.
          5    1    3    3  502    0  0.19085972734E+02 -0.28095287656E+02  0.61173159365E+02  0.70094560205E+02  0.41800000000E+01 0. -1.
         -5    1    3    3    0  502  0.58914055272E+02  0.71001953020E+02 -0.72285828783E+01  0.92638372458E+02  0.41800000000E+01 0. -1.
        -11    1    1    2    0    0 -0.97572266855E+02 -0.20737568478E+02  0.83657200622E+02  0.13018802257E+03  0.00000000000E+00 0. -1.
         11    1    1    2    0    0  0.19572238848E+02 -0.22169096886E+02  0.32991019121E+02  0.44305177270E+02  0.00000000000E+00 0.  1.
</event>
<event>
 7    1  0.2380582E-009  0.2190723E+03  0.7561462E-02  0.1134577E+00
          2   -1    0    0  501    0  0.00000000000E+00  0.00000000000E+00  0.13498158206E+04  0.13498158206E+04  0.00000000000E+00 0. -1.
         -2   -1    0    0    0  501 -0.00000000000E+00 -0.00000000000E+00 -0.43802790822E+02  0.43802790822E+02  0.00000000000E+00 0.  1.
         25    2    1    2    0    0  0.21142033627E+03  0.19697487736E+02  0.55019733712E+03  0.60286888801E+03  0.12508891535E+03 0.  0.
          5    1    3    3  502    0  0.20352209909E+03  0.27763561510E+02  0.55348857581E+03  0.59038897019E+03  0.41800000000E+01 0. -1.
         -5    1    3    3    0  502  0.78982371824E+01 -0.80660737738E+01 -0.32912386914E+01  0.12479917822E+02  0.41800000000E+01 0. -1.
        -11    1    1    2    0    0 -0.12417737914E+03 -0.41144806239E+02  0.31881713619E+03  0.34461178578E+03  0.00000000000E+00 0.  1.
         11    1    1    2    0    0 -0.87242957129E+02  0.21447318503E+02  0.43699855645E+03  0.44613793761E+03  0.00000000000E+00 0. -1.
</event>
<event>
 7    1  0.2380582E-009  0.1650534E+03  0.7561462E-02  0.1183107E+00
         -2   -1    0    0    0  501 -0.00000000000E+00  0.00000000000E+00  0.20346199711E+02  0.20346199711E+02  0.00000000000E+00 0.  1.
          2   -1    0    0  501    0  0.00000000000E+00 -0.00000000000E+00 -0.13923074250E+04  0.13923074250E+04  0.00000000000E+00 0. -1.
         25    2    1    2    0    0 -0.12336601839E+03 -0.31916790767E+02 -0.82567737227E+03  0.84476501857E+03  0.12508779915E+03 0.  0.
          5    1    3    3  502    0 -0.14302560977E+03 -0.49880516106E+02 -0.69198370967E+03  0.70838077175E+03  0.41800000000E+01 0. -1.
         -5    1    3    3    0  502  0.19659591381E+02  0.17963725339E+02 -0.13369366260E+03  0.13638424682E+03  0.41800000000E+01 0. -1.
        -11    1    1    2    0    0  0.10853821629E+03 -0.82013507390E+01 -0.44132350576E+03  0.45454839488E+03  0.00000000000E+00 0. -1.
         11    1    1    2    0    0  0.14827802093E+02  0.40118141506E+02 -0.10496034729E+03  0.11334021130E+03  0.00000000000E+00 0.  1.
</event>
<event>
 7    1  0.2380582E-009  0.8337879E+02  0.7561462E-02  0.1319727E+00
          1   -1    0    0  501    0  0.00000000000E+00  0.00000000000E+00  0.66483789183E+02  0.66483789183E+02  0.00000000000E+00 0. -1.
         -1   -1    0    0    0  501 -0.00000000000E+00 -0.00000000000E+00 -0.21631443627E+03  0.21631443627E+03  0.00000000000E+00 0.  1.
         25    2    1    2    0    0 -0.19364814228E+01 -0.77332532534E+01 -0.21747941789E+02  0.12721641094E+03  0.12508992395E+03 0.  0.
          5    1    3    3  502    0  0.26467088685E+02 -0.36805320106E+02 -0.57210893362E+02  0.73114274194E+02  0.41800000000E+01 0.  1.
         -5    1    3    3    0  502 -0.28403570108E+02  0.29072066853E+02  0.35462951573E+02  0.54102136744E+02  0.41800000000E+01 0.  1.
        -11    1    1    2    0    0 -0.32197409313E+02 -0.18670385865E+02 -0.27947948978E+02  0.46544004199E+02  0.00000000000E+00 0.  1.
         11    1    1    2    0    0  0.34133890736E+02  0.26403639118E+02 -0.10013475632E+03  0.10903781032E+03  0.00000000000E+00 0. -1.
</event>
<event>
 7    1  0.2380582E-009  0.9404777E+02  0.7561462E-02  0.1293335E+00
         -1   -1    0    0    0  501 -0.00000000000E+00  0.00000000000E+00  0.10165946707E+03  0.10165946707E+03  0.00000000000E+00 0.  1.
          1   -1    0    0  501    0  0.00000000000E+00 -0.00000000000E+00 -0.18202280402E+03  0.18202280402E+03  0.00000000000E+00 0. -1.
         25    2    1    2    0    0  0.53138067669E+02  0.16687012845E+02 -0.10559698499E+03  0.17291700950E+03  0.12508980095E+03 0.  0.
          5    1    3    3  502    0 -0.17682326350E+02 -0.24815166060E+02 -0.81737664959E+02  0.87332556385E+02  0.41800000000E+01 0. -1.
         -5    1    3    3    0  502  0.70820394019E+02  0.41502178905E+02 -0.23859320035E+02  0.85584453117E+02  0.41800000000E+01 0. -1.
        -11    1    1    2    0    0 -0.96896729745E+01  0.17405427891E+02 -0.27797949739E+02  0.34198898990E+02  0.00000000000E+00 0. -1.
         11    1    1    2    0    0 -0.43448394694E+02 -0.34092440736E+02  0.53031597784E+02  0.76566362591E+02  0.00000000000E+00 0.  1.
</event>
<event>
 7    1  0.2380582E-009  0.1355121E+03  0.7561462E-02  0.1219499E+00
         -2   -1    0    0    0  501 -0.00000000000E+00  0.00000000000E+00  0.20006283787E+02  0.20006283787E+02  0.00000000000E+00 0. -1.
          2   -1    0    0  501    0  0.00000000000E+00 -0.00000000000E+00 -0.11916094107E+04  0.11916094107E+04  0.00000000000E+00 0.  1.
         25    2    1    2    0    0 -0.10091160518E+03 -0.42195714557E+02 -0.64560851210E+03  0.66664897145E+03  0.12508744881E+03 0.  0.
          5    1    3    3  502    0  0.23055930197E+02  0.77981716243E+00 -0.22026477832E+03  0.22150898176E+03  0.41800000000E+01 0. -1.
         -5    1    3    3    0  502 -0.12396753538E+03 -0.42975531719E+02 -0.42534373377E+03  0.44513998968E+03  0.41800000000E+01 0. -1.
        -11    1    1    2    0    0  0.84188330097E+02  0.49931513194E+02 -0.51340073248E+03  0.52264820199E+03  0.00000000000E+00 0.  1.
         11    1    1    2    0    0  0.16723275083E+02 -0.77357986368E+01 -0.12593882362E+02  0.22318521076E+02  0.00000000000E+00 0. -1.
</event>
<event>
 7    1  0.2380582E-009  0.1128802E+03  0.7561462E-02  0.1255327E+00
          1   -1    0    0  501    0  0.00000000000E+00  0.00000000000E+00  0.26596439242E+03  0.26596439242E+03  0.00000000000E+00 0. -1.
         -1   -1    0    0    0  501 -0.00000000000E+00 -0.00000000000E+00 -0.91240973826E+02  0.91240973826E+02  0.00000000000E+00 0.  1.
         25    2    1    2    0    0 -0.20792235374E+02  0.39768750600E+02  0.21099248543E+03  0.24935714500E+03  0.12508911335E+03 0.  0.
          5    1    3    3  502    0  0.12394353223E+02  0.77975100765E+02  0.10147934626E+03  0.12864395224E+03  0.41800000000E+01 0.  1.
         -5    1    3    3    0  502 -0.33186588597E+02 -0.38206350164E+02  0.10951313917E+03  0.12071319276E+03  0.41800000000E+01 0.  1.
        -11    1    1    2    0    0  0.36799590351E+01  0.26867354020E+02  0.50661902597E+01  0.27587372008E+02  0.00000000000E+00 0.  1.
         11    1    1    2    0    0  0.17112276339E+02 -0.66636104620E+02 -0.41335257098E+02  0.80260849235E+02  0.00000000000E+00 0. -1.
</event>
<event>
 7    1  0.2380582E-009  0.7345375E+02  0.7561462E-02  0.1348727E+00
         -1   -1    0    0    0  501 -0.00000000000E+00  0.00000000000E+00  0.46729901073E+02  0.46729901073E+02  0.00000000000E+00 0.  1.
          1   -1    0    0  501    0  0.00000000000E+00 -0.00000000000E+00 -0.29777186088E+03  0.29777186088E+03  0.00000000000E+00 0. -1.
         25    2    1    2    0    0  0.18977714287E+02  0.61989856123E+01 -0.17416832448E+03  0.21536056737E+03  0.12508791973E+03 0.  0.
          5    1    3    3  502    0 -0.34353052870E+02 -0.29118489317E+02 -0.12966224385E+03  0.13732366344E+03  0.41800000000E+01 0. -1.
         -5    1    3    3    0  502  0.53330767157E+02  0.35317474929E+02 -0.44506080636E+02  0.78036903927E+02  0.41800000000E+01 0. -1.
        -11    1    1    2    0    0 -0.15792013253E+02  0.11538270398E+02  0.21538072176E+02  0.29093090579E+02  0.00000000000E+00 0.  1.
         11    1    1    2    0    0 -0.31857010339E+01 -0.17737256011E+02 -0.98411707499E+02  0.10004810400E+03  0.00000000000E+00 0. -1.
</event>
<event>
 7    1  0.2380582E-009  0.1081772E+03  0.7561462E-02  0.1263983E+00
          2   -1    0    0  501    0  0.00000000000E+00  0.00000000000E+00  0.45800763076E+03  0.45800763076E+03  0.00000000000E+00 0. -1.
         -2   -1    0    0    0  501 -0.00000000000E+00 -0.00000000000E+00 -0.34236739393E+02  0.34236739393E+02  0.00000000000E+00 0.  1.
         25    2    1    2    0    0  0.18435228828E+01 -0.28989977133E+02  0.34275478309E+03  0.36602252715E+03  0.12509129348E+03 0.  0.
          5    1    3    3  502    0 -0.57573968822E+02  0.61615743452E+01  0.13179009713E+03  0.14400982253E+03  0.41800000000E+01 0.  1.
         -5    1    3    3    0  502  0.59417491705E+02 -0.35151551478E+02  0.21096468596E+03  0.22201270462E+03  0.41800000000E+01 0.  1.
        -11    1    1    2    0    0  0.24791258851E+02  0.49606420115E+02  0.24936358042E+02  0.60804813826E+02  0.00000000000E+00 0.  1.
         11    1    1    2    0    0 -0.26634781734E+02 -0.20616442981E+02  0.56079750239E+02  0.65417029175E+02  0.00000000000E+00 0. -1.
</event>
<event>
 7    1  0.2380582E-009  0.1120662E+03  0.7561462E-02  0.1256791E+00
          2   -1    0    0  501    0  0.00000000000E+00  0.00000000000E+00  0.14997270395E+03  0.14997270395E+03  0.00000000000E+00 0. -1.
         -2   -1    0    0    0  501 -0.00000000000E+00 -0.00000000000E+00 -0.15053897176E+03  0.15053897176E+03  0.00000000000E+00 0.  1.
         25    2    1    2    0    0 -0.73276715387E+02 -0.58945875633E+02 -0.45395690725E+02  0.16294656201E+03  0.12508685008E+03 0.  0.
          5    1    3    3  502    0 -0.73206416280E+01 -0.78554781500E+01  0.41108672152E+02  0.42693039912E+02  0.41800000000E+01 0. -1.
         -5    1    3    3    0  502 -0.65956073759E+02 -0.51090397483E+02 -0.86504362877E+02  0.12025352210E+03  0.41800000000E+01 0. -1.
        -11    1    1    2    0    0  0.40841453391E+02 -0.18706380362E+02  0.76690254569E+01  0.45571558376E+02  0.00000000000E+00 0.  1.
         11    1    1    2    0    0  0.32435261995E+02  0.77652255994E+02  0.37160397457E+02  0.91993555323E+02  0.00000000000E+00 0. -1.
</event>
<event>
 7    1  0.2380582E-009  0.1705643E+03  0.7561462E-02  0.1177261E+00
          3   -1    0    0  501    0  0.00000000000E+00  0.00000000000E+00  0.89204180491E+02  0.89204180491E+02  0.00000000000E+00 0. -1.
         -3   -1    0    0    0  501 -0.00000000000E+00 -0.00000000000E+00 -0.38221111494E+03  0.38221111494E+03  0.00000000000E+00 0.  1.
         25    2    1    2    0    0 -0.94668240977E+02  0.85336279444E+02 -0.23499472005E+03  0.29515196573E+03  0.12509119867E+03 0.  0.
          5    1    3    3  502    0 -0.56055631283E+02  0.11400742127E+03 -0.19338374400E+03  0.23141882107E+03  0.41800000000E+01 0. -1.
         -5    1    3    3    0  502 -0.38612609694E+02 -0.28671141822E+02 -0.41610976055E+02  0.63733144666E+02  0.41800000000E+01 0. -1.
        -11    1    1    2    0    0  0.14877837506E+02 -0.84651370751E+02 -0.38148997069E+02  0.94034837142E+02  0.00000000000E+00 0. -1.
         11    1    1    2    0    0  0.79790403471E+02 -0.68490869296E+00 -0.19863217332E+02  0.82228492560E+02  0.00000000000E+00 0.  1.
</event>
<event>
 7    1  0.2380582E-009  0.1306162E+03  0.7561462E-02  0.1226544E+00
          4   -1    0    0  501    0  0.00000000000E+00  0.00000000000E+00  0.31460735445E+03  0.31460735445E+03  0.00000000000E+00 0. -1.
         -4   -1    0    0    0  501 -0.00000000000E+00 -0.00000000000E+00 -0.56535953570E+02  0.56535953570E+02  0.00000000000E+00 0.  1.
         25    2    1    2    0    0  0.79034997621E+02 -0.43417141552E+01  0.13616234483E+03  0.20112843300E+03  0.12508829313E+03 0.  0.
          5    1    3    3  502    0  0.39580559928E+02 -0.64227400628E+02  0.60499698162E+02  0.96795999883E+02  0.41800000000E+01 0. -1.
         -5    1    3    3    0  502  0.39454437693E+02  0.59885686472E+02  0.75662646672E+02  0.10433243311E+03  0.41800000000E+01 0. -1.
        -11    1    1    2    0    0  0.36565113461E+01  0.27675625161E+02  0.11694909974E+02  0.30266833706E+02  0.00000000000E+00 0.  1.
         11    1    1    2    0    0 -0.82691508967E+02 -0.23333911006E+02  0.11021414607E+03  0.13974804132E+03  0.00000000000E+00 0. -1.
</event>
<event>
 7    1  0.2380582E-009  0.8861523E+02  0.7561462E-02  0.1306240E+00
          1   -1    0    0  501    0  0.00000000000E+00  0.00000000000E+00  0.59490597568E+02  0.59490597568E+02  0.00000000000E+00 0. -1.
         -1   -1    0    0    0  501 -0.00000000000E+00 -0.00000000000E+00 -0.20866937958E+03  0.20866937958E+03  0.00000000000E+00 0.  1.
         25    2    1    2    0    0  0.25162380591E+02  0.68981793354E+01 -0.88463185779E+02  0.15541609423E+03  0.12509075439E+03 0.  0.
          5    1    3    3  502    0  0.71391816407E+02  0.38226877321E+01 -0.23220006756E+02  0.75286423113E+02  0.41800000000E+01 0.  1.
         -5    1    3    3    0  502 -0.46229435816E+02  0.30754916033E+01 -0.65243179022E+02  0.80129671118E+02  0.41800000000E+01 0.  1.
        -11    1    1    2    0    0 -0.37541538593E+01  0.22453383560E+02 -0.71346971861E+02  0.74890843888E+02  0.00000000000E+00 0.  1.
         11    1    1    2    0    0 -0.21408226732E+02 -0.29351562895E+02  0.10631375626E+02  0.37853039031E+02  0.00000000000E+00 0. -1.
</event>
<event>
 7    1  0.2380582E-009  0.1251449E+03  0.7561462E-02  0.1234843E+00
          2   -1    0    0  501    0  0.00000000000E+00  0.00000000000E+00  0.12251275937E+03  0.12251275937E+03  0.00000000000E+00 0. -1.
         -2   -1    0    0    0  501 -0.00000000000E+00 -0.00000000000E+00 -0.22981276903E+03  0.22981276903E+03  0.00000000000E+00 0.  1.
         25    2    1    2    0    0  0.61910444526E+02 -0.44868324976E+02  0.49615555438E+02  0.15477502958E+03  0.12509011437E+03 0.  0.
          5    1    3    3  502    0  0.90279300752E+02 -0.24884334950E+01  0.50578721105E+02  0.10359644721E+03  0.41800000000E+01 0. -1.
         -5    1    3    3    0  502 -0.28368856227E+02 -0.42379891481E+02 -0.96316566719E+00  0.51178582372E+02  0.41800000000E+01 0. -1.
        -11    1    1    2    0    0 -0.69390949096E+02  0.65849882004E+01 -0.13709358024E+03  0.15379569444E+03  0.00000000000E+00 0.  1.
         11    1    1    2    0    0  0.74805045702E+01  0.38283336775E+02 -0.19821984861E+02  0.43754804389E+02  0.00000000000E+00 0. -1.
</event>
<event>
 7    1  0.2380582E-009  0.1554843E+03  0.7561462E-02  0.1193891E+00
          1   -1    0    0  501    0  0.00000000000E+00  0.00000000000E+00  0.81414290505E+03  0.81414290505E+03  0.00000000000E+00 0. -1.
         -1   -1    0    0    0  501 -0.00000000000E+00 -0.00000000000E+00 -0.35782575233E+02  0.35782575233E+02  0.00000000000E+00 0.  1.
         25    2    1    2    0    0 -0.23635537839E+02 -0.12761388346E+03  0.39081697737E+03  0.43038252352E+03  0.12508902771E+03 0.  0.
          5    1    3    3  502    0 -0.69962002473E+02 -0.40409617974E+02  0.19223373926E+03  0.20856390369E+03  0.41800000000E+01 0. -1.
         -5    1    3    3    0  502  0.46326464634E+02 -0.87204265485E+02  0.19858323811E+03  0.22181861983E+03  0.41800000000E+01 0. -1.
        -11    1    1    2    0    0  0.16032434826E+02  0.37304444463E+02  0.29450784587E+02  0.50159837080E+02  0.00000000000E+00 0.  1.
         11    1    1    2    0    0  0.76031030133E+01  0.90309438996E+02  0.35809256787E+03  0.36938311969E+03  0.00000000000E+00 0. -1.
</event>
<event>
 7    1  0.2380582E-009  0.1284778E+03  0.7561462E-02  0.1229732E+00
          2   -1    0    0  501    0  0.00000000000E+00  0.00000000000E+00  0.90911091373E+03  0.90911091373E+03  0.00000000000E+00 0. -1.
         -2   -1    0    0    0  501 -0.00000000000E+00 -0.00000000000E+00 -0.26450069092E+02  0.26450069092E+02  0.00000000000E+00 0.  1.
         25    2    1    2    0    0  0.83117049972E+02  0.40796431972E+02  0.65186927345E+03  0.67018968377E+03  0.12509144538E+03 0.  0.
          5    1    3    3  502    0  0.48566933047E+02  0.78258657829E+02  0.27921341689E+03  0.29404212127E+03  0.41800000000E+01 0.  1.
         -5    1    3    3    0  502  0.34550116925E+02 -0.37462225857E+02  0.37265585657E+03  0.37614756251E+03  0.41800000000E+01 0.  1.
        -11    1    1    2    0    0 -0.19106760441E+02 -0.45591977649E+02  0.38525317734E+02  0.62672935363E+02  0.00000000000E+00 0.  1.
         11    1    1    2    0    0 -0.64010289531E+02  0.47955456771E+01  0.19226625346E+03  0.20269836369E+03  0.00000000000E+00 0. -1.
</event>
<event>
 7    1  0.2380582E-009  0.1323400E+03  0.7561462E-02  0.1224024E+00
          1   -1    0    0  501    0  0.00000000000E+00  0.00000000000E+00  0.12601972378E+03  0.12601972378E+03  0.00000000000E+00 0. -1.
         -1   -1    0    0    0  501 -0.00000000000E+00 -0.00000000000E+00 -0.15705110041E+03  0.15705110041E+03  0.00000000000E+00 0.  1.
         25    2    1    2    0    0  0.14156374776E+02 -0.89564994372E+02 -0.19937986448E+02  0.15577944177E+03  0.12508964790E+03 0.  0.
          5    1    3    3  502    0  0.55655150875E+02 -0.79647606032E+02  0.17553077515E+02  0.98827222443E+02  0.41800000000E+01 0. -1.
         -5    1    3    3    0  502 -0.41498776098E+02 -0.99173883405E+01 -0.37491063963E+02  0.56952219327E+02  0.41800000000E+01 0. -1.
        -11    1    1    2    0    0  0.11760127494E+02  0.96905542301E+02 -0.18503403377E+02  0.99354721397E+02  0.00000000000E+00 0.  1.
         11    1    1    2    0    0 -0.25916502270E+02 -0.73405479284E+01  0.74100131886E+01  0.27936661025E+02  0.00000000000E+00 0. -1.
</event>
<event>
 7    1  0.2380582E-009  0.2522458E+03  0.7561462E-02  0.1111894E+00
         -2   -1    0    0    0  501 -0.00000000000E+00  0.00000000000E+00  0.45335473936E+03  0.45335473936E+03  0.00000000000E+00 0.  1.
          2   -1    0    0  501    0  0.00000000000E+00 -0.00000000000E+00 -0.15702082496E+03  0.15702082496E+03  0.00000000000E+00 0. -1.
         25    2    1    2    0    0 -0.11878880964E+03  0.20083805271E+03  0.72967446317E+02  0.27462868123E+03  0.12509979865E+03 0.  0.
          5    1    3    3  502    0  0.16387750056E+02  0.41809890092E+02 -0.15789897649E+02  0.47785128745E+02  0.41800000000E+01 0. -1.
         -5    1    3    3    0  502 -0.13517655970E+03  0.15902816262E+03  0.88757343966E+02  0.22684355249E+03  0.41800000000E+01 0. -1.
        -11    1    1    2    0    0  0.97456583833E+02 -0.74936223001E+02  0.11231814494E+03  0.16651903475E+03  0.00000000000E+00 0.  1.
         11    1    1    2    0    0  0.21332225808E+02 -0.12590182971E+03  0.11104832314E+03  0.16922784834E+03  0.00000000000E+00 0. -1.
</event>
<event>
 7    1  0.2380582E-009  0.1511657E+03  0.7561462E-02  0.1199048E+00
         -3   -1    0    0    0  501 -0.00000000000E+00  0.00000000000E+00  0.50001928712E+02  0.50001928712E+02  0.00000000000E+00 0.  1.
          3   -1    0    0  501    0  0.00000000000E+00 -0.00000000000E+00 -0.62010727535E+03  0.62010727535E+03  0.00000000000E+00 0. -1.
         25    2    1    2    0    0  0.79076255708E+02 -0.79710928177E+02 -0.14839009231E+03  0.22421797157E+03  0.12508874048E+03 0.  0.
          5    1    3    3  502    0 -0.29418199060E+02 -0.39543038784E+02 -0.26503517441E+02  0.56115872879E+02  0.41800000000E+01 0. -1.
         -5    1    3    3    0  502  0.10849445477E+03 -0.40167889393E+02 -0.12188657486E+03  0.16810209870E+03  0.41800000000E+01 0. -1.
        -11    1    1    2    0    0 -0.75896542422E+02  0.21608834251E+02 -0.31052737612E+03  0.32039737544E+03  0.00000000000E+00 0. -1.
         11    1    1    2    0    0 -0.31797132862E+01  0.58102093926E+02 -0.11118787821E+03  0.12549385704E+03  0.00000000000E+00 0.  1.
</event>
<event>
 7    1  0.2380582E-009  0.1674330E+03  0.7561462E-02  0.1180552E+00
         -1   -1    0    0    0  501 -0.00000000000E+00  0.00000000000E+00  0.14424233299E+03  0.14424233299E+03  0.00000000000E+00 0.  1.
          1   -1    0    0  501    0  0.00000000000E+00 -0.00000000000E+00 -0.20911329119E+03  0.20911329119E+03  0.00000000000E+00 0. -1.
         25    2    1    2    0    0  0.94575029410E+02  0.10367568257E+03 -0.45373698802E+02  0.19338862472E+03  0.12508918532E+03 0.  0.
          5    1    3    3  502    0  0.12480989705E+03  0.84361225298E+02 -0.44953228479E+02  0.15726599087E+03  0.41800000000E+01 0. -1.
         -5    1    3    3    0  502 -0.30234867637E+02  0.19314457270E+02 -0.42047032253E+00  0.36122633845E+02  0.41800000000E+01 0. -1.
        -11    1    1    2    0    0 -0.67161338582E+02 -0.38685550962E+02 -0.39027698702E+02  0.86777753597E+02  0.00000000000E+00 0. -1.
         11    1    1    2    0    0 -0.27413690828E+02 -0.64990131606E+02  0.19530439306E+02  0.73189245866E+02  0.00000000000E+00 0.  1.
</event>
<event>
 7    1  0.2380582E-009  0.1786907E+03  0.7561462E-02  0.1169076E+00
          1   -1    0    0  501    0  0.00000000000E+00  0.00000000000E+00  0.30525311848E+03  0.30525311848E+03  0.00000000000E+00 0. -1.
         -1   -1    0    0    0  501 -0.00000000000E+00 -0.00000000000E+00 -0.14434247510E+03  0.14434247510E+03  0.00000000000E+00 0.  1.
         25    2    1    2    0    0 -0.11291160320E+02  0.17774605398E+03  0.10330596105E+03  0.24092512050E+03  0.12510652298E+03 0.  0.
          5    1    3    3  502    0 -0.15305812336E+02  0.14830715480E+03  0.17683805520E+02  0.15019810064E+03  0.41800000000E+01 0.  1.
         -5    1    3    3    0  502  0.40146520158E+01  0.29438899176E+02  0.85622155530E+02  0.90727019862E+02  0.41800000000E+01 0.  1.
        -11    1    1    2    0    0  0.12023249337E+02 -0.15476912717E+03  0.97033094202E+01  0.15553840511E+03  0.00000000000E+00 0.  1.
         11    1    1    2    0    0 -0.73208901700E+00 -0.22976926811E+02  0.47901372916E+02  0.53132067975E+02  0.00000000000E+00 0. -1.
</event>
<event>
 7    1  0.4833632E-009  0.8222677E+02  0.7561462E-02  0.1322848E+00
          1   -1    0    0  501    0  0.00000000000E+00  0.00000000000E+00  0.30245948248E+03  0.30245948248E+03  0.00000000000E+00 0. -1.
         -1   -1    0    0    0  501 -0.00000000000E+00 -0.00000000000E+00 -0.54050631445E+02  0.54050631445E+02  0.00000000000E+00 0.  1.
         25    2    1    2    0    0 -0.59406422376E+02  0.28669806864E+02  0.15674992735E+03  0.21111286892E+03  0.12508806039E+03 0.  0.
          5    1    3    3  502    0 -0.17796483779E+02 -0.22874726142E+02 -0.10551753737E+02  0.31125228319E+02  0.41800000000E+01 0. -1.
         -5    1    3    3    0  502 -0.41609938597E+02  0.51544533005E+02  0.16730168109E+03  0.17998764060E+03  0.41800000000E+01 0. -1.
        -11    1    1    2    0    0  0.32235796724E+02 -0.26150252319E+02 -0.78240999517E+01  0.42239777779E+02  0.00000000000E+00 0.  1.
         11    1    1    2    0    0  0.27170625652E+02 -0.25195545444E+01  0.99483023631E+02  0.10315746722E+03  0.00000000000E+00 0. -1.
</event>
<event>
 7    1  0.2380582E-009  0.8658728E+02  0.7561462E-02  0.1311333E+00
         -2   -1    0    0    0  501 -0.00000000000E+00  0.00000000000E+00  0.12490762108E+03  0.12490762108E+03  0.00000000000E+00 0.  1.
          2   -1    0    0  501    0  0.00000000000E+00 -0.00000000000E+00 -0.10451075437E+03  0.10451075437E+03  0.00000000000E+00 0. -1.
         25    2    1    2    0    0  0.15920211479E+02  0.73801450822E+01  0.43514212909E+02  0.13358945871E+03  0.12507892340E+03 0.  0.
          5    1    3    3  502    0 -0.31747768943E+02 -0.44580899254E+02  0.26400313591E+02  0.60908344000E+02  0.41800000000E+01 0. -1.
         -5    1    3    3    0  502  0.47667980422E+02  0.51961044337E+02  0.17113899318E+02  0.72681114713E+02  0.41800000000E+01 0. -1.
        -11    1    1    2    0    0 -0.19660678805E+02  0.15142751274E+02 -0.52823609016E+02  0.58362478329E+02  0.00000000000E+00 0. -1.
         11    1    1    2    0    0  0.37404673263E+01 -0.22522896356E+02  0.29706262824E+02  0.37466438409E+02  0.00000000000E+00 0.  1.
</event>
<event>
 7    1  0.2380582E-009  0.6835016E+02  0.7561462E-02  0.1365795E+00
          1   -1    0    0  501    0  0.00000000000E+00  0.00000000000E+00  0.23096057274E+02  0.23096057274E+02  0.00000000000E+00 0.  1.
         -1   -1    0    0    0  501 -0.00000000000E+00 -0.00000000000E+00 -0.70621037679E+03  0.70621037679E+03  0.00000000000E+00 0. -1.
         25    2    1    2    0    0 -0.23014409199E+02  0.81840460206E+01 -0.55973573241E+03  0.57406367617E+03  0.12509345515E+03 0.  0.
          5    1    3    3  502    0 -0.30813651672E+02  0.20912643350E+02 -0.42765472830E+02  0.56861039804E+02  0.41800000000E+01 0.  1.
         -5    1    3    3    0  502  0.77992424730E+01 -0.12728597329E+02 -0.51697025958E+03  0.51720263636E+03  0.41800000000E+01 0.  1.
        -11    1    1    2    0    0 -0.17530669166E+02 -0.32154891406E+02 -0.20206804877E+02  0.41827937627E+02  0.00000000000E+00 0.  1.
         11    1    1    2    0    0  0.40545078365E+02  0.23970845386E+02 -0.10317178223E+03  0.11341482027E+03  0.00000000000E+00 0. -1.
</event>
<event>
 7    1  0.2380582E-009  0.1161724E+03  0.7561462E-02  0.1249548E+00
          2   -1    0    0  501    0  0.00000000000E+00  0.00000000000E+00  0.11841518404E+03  0.11841518404E+03  0.00000000000E+00 0. -1.
         -2   -1    0    0    0  501 -0.00000000000E+00 -0.00000000000E+00 -0.25045953370E+03  0.25045953370E+03  0.00000000000E+00 0.  1.
         25    2    1    2    0    0 -0.84354154448E+02  0.54753059126E+02  0.24558799986E+02  0.16237052552E+03  0.12509009571E+03 0.  0.
          5    1    3    3  502    0 -0.67447510747E+02  0.56780167583E+02 -0.38956820063E+02  0.96479326108E+02  0.41800000000E+01 0.  1.
         -5    1    3    3    0  502 -0.16906643700E+02 -0.20271084566E+01  0.63515620049E+02  0.65891199413E+02  0.41800000000E+01 0.  1.
        -11    1    1    2    0    0  0.99221450978E+02 -0.47599119059E+02 -0.15476662157E+03  0.18990334284E+03  0.00000000000E+00 0.  1.
         11    1    1    2    0    0 -0.14867296531E+02 -0.71539400668E+01 -0.18365280794E+01  0.16600849376E+02  0.00000000000E+00 0. -1.
</event>
<event>
 7    1  0.2380582E-009  0.1734288E+03  0.7561462E-02  0.1174319E+00
         -2   -1    0    0    0  501 -0.00000000000E+00  0.00000000000E+00  0.16695221153E+03  0.16695221153E+03  0.00000000000E+00 0.  1.
          2   -1    0    0  501    0  0.00000000000E+00 -0.00000000000E+00 -0.18676253608E+03  0.18676253608E+03  0.00000000000E+00 0. -1.
         25    2    1    2    0    0  0.13475746074E+03 -0.33556357902E+02 -0.13822524971E+02  0.18741733262E+03  0.12509433235E+03 0.  0.
          5    1    3    3  502    0  0.76478888740E+02  0.45093240049E+02 -0.86939161028E+01  0.89305527815E+02  0.41800000000E+01 0. -1.
         -5    1    3    3    0  502  0.58278572001E+02 -0.78649597952E+02 -0.51286088677E+01  0.98111804801E+02  0.41800000000E+01 0. -1.
        -11    1    1    2    0    0 -0.11418473551E+03  0.57982607311E+02 -0.23001911381E+02  0.13011235337E+03  0.00000000000E+00 0.  1.
         11    1    1    2    0    0 -0.20572725233E+02 -0.24426249408E+02  0.17014111806E+02  0.36185061617E+02  0.00000000000E+00 0. -1.
</event>
<event>
 7    1  0.2380582E-009  0.1106734E+03  0.7561462E-02  0.1259328E+00
          1   -1    0    0  501    0  0.00000000000E+00  0.00000000000E+00  0.16460395861E+03  0.16460395861E+03  0.00000000000E+00 0. -1.
         -1   -1    0    0    0  501 -0.00000000000E+00 -0.00000000000E+00 -0.92124870616E+02  0.92124870616E+02  0.00000000000E+00 0.  1.
         25    2    1    2    0    0  0.31146826374E+02 -0.45459135334E+02  0.23303029697E+02  0.13866705486E+03  0.12509541611E+03 0.  0.
          5    1    3    3  502    0 -0.32345579070E+02 -0.62782161595E+02  0.12327395475E+02  0.71814158626E+02  0.41800000000E+01 0. -1.
         -5    1    3    3    0  502  0.63492405443E+02  0.17323026261E+02  0.10975634222E+02  0.66852896230E+02  0.41800000000E+01 0. -1.
        -11    1    1    2    0    0 -0.34053003849E+02  0.60450638087E+02  0.65706453206E+02  0.95557441935E+02  0.00000000000E+00 0. -1.
         11    1    1    2    0    0  0.29061774753E+01 -0.14991502752E+02 -0.16530394912E+02  0.22504332432E+02  0.00000000000E+00 0.  1.
</event>
<event>
 7    1  0.2380582E-009  0.1137557E+03  0.7561462E-02  0.1253769E+00
         -2   -1    0    0    0  501 -0.00000000000E+00  0.00000000000E+00  0.25369427514E+03  0.25369427514E+03  0.00000000000E+00 0.  1.
          2   -1    0    0  501    0  0.00000000000E+00 -0.00000000000E+00 -0.75526744635E+02  0.75526744635E+02  0.00000000000E+00 0. -1.
         25    2    1    2    0    0  0.88656130836E+02 -0.51469511522E+01  0.82315528682E+02  0.17409492318E+03  0.12508715111E+03 0.  0.
          5    1    3    3  502    0  0.10362099506E+03  0.23076049137E+02  0.91908841376E+02  0.14047961483E+03  0.41800000000E+01 0. -1.
         -5    1    3    3    0  502 -0.14964864222E+02 -0.28223000289E+02 -0.95933126941E+01  0.33615308342E+02  0.41800000000E+01 0. -1.
        -11    1    1    2    0    0 -0.12342947217E+02 -0.15785074949E+01  0.74590724270E+02  0.75621532509E+02  0.00000000000E+00 0.  1.
         11    1    1    2    0    0 -0.76313183618E+02  0.67254586471E+01  0.21261277552E+02  0.79504564090E+02  0.00000000000E+00 0. -1.
</event>
<event>
 7    1  0.2380582E-009  0.9487399E+02  0.7561462E-02  0.1291460E+00
          1   -1    0    0  501    0  0.00000000000E+00  0.00000000000E+00  0.10337106834E+03  0.10337106834E+03  0.00000000000E+00 0. -1.
         -1   -1    0    0    0  501 -0.00000000000E+00 -0.00000000000E+00 -0.11862379416E+03  0.11862379416E+03  0.00000000000E+00 0.  1.
         25    2    1    2    0    0 -0.20461917180E+02  0.17822484082E+02 -0.64058961689E+01  0.12816049402E+03  0.12509094983E+03 0.  0.
          5    1    3    3  502    0  0.46214470143E+02  0.34204976532E+02  0.70281759118E+01  0.58074308664E+02  0.41800000000E+01 0. -1.
         -5    1    3    3    0  502 -0.66676387323E+02 -0.16382492451E+02 -0.13434072081E+02  0.70086185358E+02  0.41800000000E+01 0. -1.
        -11    1    1    2    0    0  0.35833073540E+02  0.46015420298E+01  0.29628705430E+02  0.46723051418E+02  0.00000000000E+00 0. -1.
         11    1    1    2    0    0 -0.15371156360E+02 -0.22424026111E+02 -0.38475535080E+02  0.47111317054E+02  0.00000000000E+00 0.  1.
</event>
<event>
 7    1  0.2380582E-009  0.1487196E+03  0.7561462E-02  0.1202055E+00
          2   -1    0    0  501    0  0.00000000000E+00  0.00000000000E+00  0.17889197477E+04  0.17889197477E+04  0.00000000000E+00 0. -1.
         -2   -1    0    0    0  501 -0.00000000000E+00 -0.00000000000E+00 -0.27185879228E+02  0.27185879228E+02  0.00000000000E+00 0.  1.
         25    2    1    2    0    0  0.17316107218E+02 -0.13445287226E+03  0.14740610222E+04  0.14855573115E+04  0.12508879393E+03 0.  0.
          5    1    3    3  502    0 -0.25607596323E+01 -0.12300579979E+03  0.67357837045E+03  0.68473518809E+03  0.41800000000E+01 0.  1.
         -5    1    3    3    0  502  0.19876866850E+02 -0.11447072471E+02  0.80048265171E+03  0.80082212344E+03  0.41800000000E+01 0.  1.
        -11    1    1    2    0    0 -0.32721009515E+02  0.26868626957E+02  0.33083671664E+02  0.53731898431E+02  0.00000000000E+00 0.  1.
         11    1    1    2    0    0  0.15404902297E+02  0.10758424531E+03  0.25458917466E+03  0.27681641697E+03  0.00000000000E+00 0. -1.
</event>
<event>
 7    1  0.2380582E-009  0.8460616E+02  0.7561462E-02  0.1316466E+00
         -1   -1    0    0    0  501 -0.00000000000E+00  0.00000000000E+00  0.13663540612E+03  0.13663540612E+03  0.00000000000E+00 0.  1.
          1   -1    0    0  501    0  0.00000000000E+00 -0.00000000000E+00 -0.10322089059E+03  0.10322089059E+03  0.00000000000E+00 0. -1.
         25    2    1    2    0    0 -0.23309307778E+02  0.37346551470E+02 -0.57596336362E+01  0.13272978910E+03  0.12508371117E+03 0.  0.
          5    1    3    3  502    0 -0.46249483618E+02  0.47110361245E+02  0.42235731630E+02  0.78483949301E+02  0.41800000000E+01 0.  1.
         -5    1    3    3    0  502  0.22940175840E+02 -0.97638097753E+01 -0.47995365267E+02  0.54245839803E+02  0.41800000000E+01 0.  1.
        -11    1    1    2    0    0  0.11556964741E+01 -0.51487372944E+02  0.55873633922E+02  0.75987815962E+02  0.00000000000E+00 0.  1.
         11    1    1    2    0    0  0.22153611304E+02  0.14140821474E+02 -0.16699484755E+02  0.31138691637E+02  0.00000000000E+00 0. -1.
</event>
<event>
 7    1  0.2526860E-009  0.9966028E+02  0.7561462E-02  0.1281012E+00
         -1   -1    0    0    0  501 -0.00000000000E+00  0.00000000000E+00  0.31933216949E+02  0.31933216949E+02  0.00000000000E+00 0.  1.
          1   -1    0    0  501    0  0.00000000000E+00 -0.00000000000E+00 -0.44809563225E+03  0.44809563225E+03  0.00000000000E+00 0. -1.
         25    2    1    2    0    0 -0.38032232802E+02  0.37070986398E+01 -0.30303349645E+03  0.33005633076E+03  0.12509071984E+03 0.  0.
          5    1    3    3  502    0  0.23055514835E+02  0.39015437680E+02 -0.51252203410E+02  0.68542117680E+02  0.41800000000E+01 0.  1.
         -5    1    3    3    0  502 -0.61087747637E+02 -0.35308339041E+02 -0.25178129304E+03  0.26151421308E+03  0.41800000000E+01 0.  1.
        -11    1    1    2    0    0  0.54432169200E+02  0.16710875195E+02 -0.10965148663E+03  0.12355388668E+03  0.00000000000E+00 0. -1.
         11    1    1    2    0    0 -0.16399936398E+02 -0.20417973835E+02 -0.34774322222E+01  0.26418631763E+02  0.00000000000E+00 0.  1.
</event>
<event>
 7    1  0.2380582E-009  0.1086513E+03  0.7561462E-02  0.1263088E+00
          1   -1    0    0  501    0  0.00000000000E+00  0.00000000000E+00  0.48670744550E+02  0.48670744550E+02  0.00000000000E+00 0. -1.
         -1   -1    0    0    0  501 -0.00000000000E+00 -0.00000000000E+00 -0.33226149728E+03  0.33226149728E+03  0.00000000000E+00 0.  1.
         25    2    1    2    0    0 -0.32860661335E+02  0.53024377690E+01 -0.24404797254E+03  0.27625069353E+03  0.12508834425E+03 0.  0.
          5    1    3    3  502    0 -0.27122437010E+02  0.63193465661E+02 -0.15721317713E+03  0.17164642774E+03  0.41800000000E+01 0.  1.
         -5    1    3    3    0  502 -0.57382243254E+01 -0.57891027892E+02 -0.86834795407E+02  0.10460426579E+03  0.41800000000E+01 0.  1.
        -11    1    1    2    0    0  0.33679238830E+02  0.35695985984E+02 -0.20510837136E+01  0.49119257812E+02  0.00000000000E+00 0. -1.
         11    1    1    2    0    0 -0.81857749501E+00 -0.40998423753E+02 -0.37491696480E+02  0.55562290488E+02  0.00000000000E+00 0.  1.
</event>
<event>
 7    1  0.2380582E-009  0.8401777E+02  0.7561462E-02  0.1318021E+00
         -2   -1    0    0    0  501 -0.00000000000E+00  0.00000000000E+00  0.28646030150E+02  0.28646030150E+02  0.00000000000E+00 0.  1.
          2   -1    0    0  501    0  0.00000000000E+00 -0.00000000000E+00 -0.43234911285E+03  0.43234911285E+03  0.00000000000E+00 0. -1.
         25    2    1    2    0    0  0.69516068800E+00  0.25507379984E+02 -0.24016069434E+03  0.27198154811E+03  0.12508274751E+03 0.  0.
          5    1    3    3  502    0 -0.25698625808E+02 -0.31620007445E+02 -0.25503144544E+02  0.48250668605E+02  0.41800000000E+01 0.  1.
         -5    1    3    3    0  502  0.26393786496E+02  0.57127387429E+02 -0.21465754980E+03  0.22373087951E+03  0.41800000000E+01 0.  1.
        -11    1    1    2    0    0  0.27200146384E+02 -0.23660109365E+02 -0.17053113248E+02  0.39880539238E+02  0.00000000000E+00 0.  1.
         11    1    1    2    0    0 -0.27895307072E+02 -0.18472706185E+01 -0.14648927511E+03  0.14913305565E+03  0.00000000000E+00 0. -1.
</event>
<event>
 7    1  0.2380582E-009  0.8282450E+02  0.7561462E-02  0.1321222E+00
         -3   -1    0    0    0  501 -0.00000000000E+00  0.00000000000E+00  0.66042168126E+02  0.66042168126E+02  0.00000000000E+00 0. -1.
          3   -1    0    0  501    0  0.00000000000E+00 -0.00000000000E+00 -0.23193142899E+03  0.23193142899E+03  0.00000000000E+00 0.  1.
         25    2    1    2    0    0  0.74369940548E+01 -0.42910746386E+02 -0.13114479626E+03  0.18639342408E+03  0.12508760897E+03 0.  0.
          5    1    3    3  502    0  0.28764069738E+02  0.19639341956E+02  0.45798180751E+01  0.35376865237E+02  0.41800000000E+01 0. -1.
         -5    1    3    3    0  502 -0.21327075683E+02 -0.62550088342E+02 -0.13572461434E+03  0.15101655885E+03  0.41800000000E+01 0. -1.
        -11    1    1    2    0    0 -0.27657950468E+02  0.26584068576E+02  0.25435097122E+02  0.46028459585E+02  0.00000000000E+00 0. -1.
         11    1    1    2    0    0  0.20220956413E+02  0.16326677810E+02 -0.60179561722E+02  0.65551713445E+02  0.00000000000E+00 0.  1.
</event>
<event>
 7    1  0.2380582E-009  0.1434775E+03  0.7561462E-02  0.1208725E+00
          2   -1    0    0  501    0  0.00000000000E+00  0.00000000000E+00  0.14733583892E+03  0.14733583892E+03  0.00000000000E+00 0.  1.
         -2   -1    0    0    0  501 -0.00000000000E+00 -0.00000000000E+00 -0.19434497369E+03  0.19434497369E+03  0.00000000000E+00 0. -1.
         25    2    1    2    0    0 -0.62585586743E+02  0.99317343650E+02  0.36876399969E+02  0.17546461532E+03  0.12508825659E+03 0.  0.
          5    1    3    3  502    0  0.28918673132E+02  0.33729232982E+02 -0.20415640175E+02  0.49073634235E+02  0.41800000000E+01 0.  1.
         -5    1    3    3    0  502 -0.91504259875E+02  0.65588110668E+02  0.57292040144E+02  0.12639098109E+03  0.41800000000E+01 0.  1.
        -11    1    1    2    0    0  0.10004379407E+01 -0.51989833548E+02 -0.14310400049E+00  0.51999655260E+02  0.00000000000E+00 0.  1.
         11    1    1    2    0    0  0.61585148802E+02 -0.47327510102E+02 -0.83742430747E+02  0.11421654203E+03  0.00000000000E+00 0. -1.
</event>
<event>
 7    1  0.2380582E-009  0.1276120E+03  0.7561462E-02  0.1231043E+00
          1   -1    0    0  501    0  0.00000000000E+00  0.00000000000E+00  0.25549524564E+03  0.25549524564E+03  0.00000000000E+00 0. -1.
         -1   -1    0    0    0  501 -0.00000000000E+00 -0.00000000000E+00 -0.16319544072E+03  0.16319544072E+03  0.00000000000E+00 0.  1.
         25    2    1    2    0    0 -0.30405258727E+02  0.78629366827E+02 -0.10734553860E+03  0.18514267324E+03  0.12509071793E+03 0.  0.
          5    1    3    3  502    0  0.34215104175E+02 -0.14502967068E+02 -0.25381751946E+02  0.45196406266E+02  0.41800000000E+01 0. -1.
         -5    1    3    3    0  502 -0.64620362902E+02  0.93132333895E+02 -0.81963786651E+02  0.13994626698E+03  0.41800000000E+01 0. -1.
        -11    1    1    2    0    0  0.34781967385E+02 -0.10792983403E+02  0.13468807229E+03  0.13952473101E+03  0.00000000000E+00 0.  1.
         11    1    1    2    0    0 -0.43767086573E+01 -0.67836383424E+02  0.64957271228E+02  0.94023282117E+02  0.00000000000E+00 0. -1.
</event>
<event>
 7    1  0.2380582E-009  0.2592900E+03  0.7561462E-02  0.1107571E+00
         -2   -1    0    0    0  501 -0.00000000000E+00  0.00000000000E+00  0.16588250475E+03  0.16588250475E+03  0.00000000000E+00 0. -1.
          2   -1    0    0  501    0  0.00000000000E+00 -0.00000000000E+00 -0.53461303871E+03  0.53461303871E+03  0.00000000000E+00 0.  1.
         25    2    1    2    0    0  0.22016080109E+03 -0.85335801625E+02 -0.18200450669E+02  0.26782779670E+03  0.12508994725E+03 0.  0.
          5    1    3    3  502    0  0.15270063241E+01 -0.44215668623E+02 -0.74729288313E+01  0.45063002180E+02  0.41800000000E+01 0. -1.
         -5    1    3    3    0  502  0.21863379477E+03 -0.41120133002E+02 -0.10727521838E+02  0.22276479452E+03  0.41800000000E+01 0. -1.
        -11    1    1    2    0    0 -0.61229849713E+02  0.68402430841E+02 -0.15474294142E+03  0.17992599857E+03  0.00000000000E+00 0.  1.
         11    1    1    2    0    0 -0.15893095138E+03  0.16933370784E+02 -0.19578714188E+03  0.25274174819E+03  0.00000000000E+00 0. -1.
</event>
<event>
 7    1  0.2380582E-009  0.1005538E+03  0.7561462E-02  0.1279136E+00
          2   -1    0    0  501    0  0.00000000000E+00  0.00000000000E+00  0.36774003520E+03  0.36774003520E+03  0.00000000000E+00 0. -1.
         -2   -1    0    0    0  501 -0.00000000000E+00 -0.00000000000E+00 -0.54039042064E+02  0.54039042064E+02  0.00000000000E+00 0.  1.
         25    2    1    2    0    0  0.19979160354E+02  0.62900758171E+02  0.61232743344E+02  0.15411869364E+03  0.12508977035E+03 0.  0.
          5    1    3    3  502    0  0.19066176483E+02 -0.29612220233E+02  0.49313647246E+02  0.60742990357E+02  0.41800000000E+01 0. -1.
         -5    1    3    3    0  502  0.91298387111E+00  0.92512978404E+02  0.11919096098E+02  0.93375703288E+02  0.41800000000E+01 0. -1.
        -11    1    1    2    0    0 -0.27193094695E+02 -0.35636273743E+02  0.22058461117E+03  0.22509326753E+03  0.00000000000E+00 0. -1.
         11    1    1    2    0    0  0.72139343410E+01 -0.27264484428E+02  0.31883638623E+02  0.42567116084E+02  0.00000000000E+00 0.  1.
</event>
<event>
 7    1  0.2380582E-009  0.2090617E+03  0.7561462E-02  0.1142311E+00
         -2   -1    0    0    0  501 -0.00000000000E+00  0.00000000000E+00  0.54350622078E+02  0.54350622078E+02  0.00000000000E+00 0.  1.
          2   -1    0    0  501    0  0.00000000000E+00 -0.00000000000E+00 -0.89008957982E+03  0.89008957982E+03  0.00000000000E+00 0. -1.
         25    2    1    2    0    0 -0.82907805678E+02  0.16520892167E+03 -0.53403163871E+03  0.57879579699E+03  0.12508833454E+03 0.  0.
          5    1    3    3  502    0  0.23016241040E+02  0.10050489985E+02 -0.13942603103E+03  0.14173161338E+03  0.41800000000E+01 0.  1.
         -5    1    3    3    0  502 -0.10592404672E+03  0.15515843168E+03 -0.39460560767E+03  0.43706418362E+03  0.41800000000E+01 0.  1.
        -11    1    1    2    0    0  0.61536794565E+02 -0.31101348166E+02 -0.79586312773E+02  0.10529982015E+03  0.00000000000E+00 0.  1.
         11    1    1    2    0    0  0.21371011113E+02 -0.13410757350E+03 -0.22212100626E+03  0.26034458475E+03  0.00000000000E+00 0. -1.
</event>
<event>
 7    1  0.2380582E-009  0.1065678E+03  0.7561462E-02  0.1267061E+00
         -2   -1    0    0    0  501 -0.00000000000E+00  0.00000000000E+00  0.13726771813E+02  0.13726771813E+02  0.00000000000E+00 0.  1.
          2   -1    0    0  501    0  0.00000000000E+00 -0.00000000000E+00 -0.12554621441E+04  0.12554621441E+04  0.00000000000E+00 0. -1.
         25    2    1    2    0    0  0.31521049798E+02  0.63714950485E+02 -0.58730766194E+03  0.60467433276E+03  0.12509031709E+03 0.  0.
          5    1    3    3  502    0  0.52264110021E+02  0.51510682120E+02 -0.57004246280E+03  0.57476148911E+03  0.41800000000E+01 0.  1.
         -5    1    3    3    0  502 -0.20743060223E+02  0.12204268365E+02 -0.17265199135E+02  0.29912843645E+02  0.41800000000E+01 0.  1.
        -11    1    1    2    0    0 -0.24984751611E+02  0.19526524412E+02 -0.16609534232E+03  0.16909519718E+03  0.00000000000E+00 0. -1.
         11    1    1    2    0    0 -0.65362981875E+01 -0.83241474896E+02 -0.48833236806E+03  0.49541938600E+03  0.00000000000E+00 0.  1.
</event>
<event>
 7    1  0.2380582E-009  0.1510962E+03  0.7561462E-02  0.1199132E+00
          4   -1    0    0  501    0  0.00000000000E+00  0.00000000000E+00  0.52714818075E+03  0.52714818075E+03  0.00000000000E+00 0. -1.
         -4   -1    0    0    0  501 -0.00000000000E+00 -0.00000000000E+00 -0.47299494210E+02  0.47299494210E+02  0.00000000000E+00 0.  1.
         25    2    1    2    0    0  0.55991821329E+02  0.97461693936E+02  0.26186032915E+03  0.31121426244E+03  0.12509843854E+03 0.  0.
          5    1    3    3  502    0 -0.70022203206E+01 -0.26849215975E+02  0.34013398787E+02  0.44094162708E+02  0.41800000000E+01 0.  1.
         -5    1    3    3    0  502  0.62994041649E+02  0.12431090991E+03  0.22784693036E+03  0.26712009973E+03  0.41800000000E+01 0.  1.
        -11    1    1    2    0    0 -0.68600055589E+02 -0.48153118222E+02  0.18355420063E+03  0.20178412968E+03  0.00000000000E+00 0.  1.
         11    1    1    2    0    0  0.12608234260E+02 -0.49308575714E+02  0.34434156768E+02  0.61449282847E+02  0.00000000000E+00 0. -1.
</event>
<event>
 7    1  0.2380582E-009  0.1027619E+03  0.7561462E-02  0.1274593E+00
         -1   -1    0    0    0  501 -0.00000000000E+00  0.00000000000E+00  0.17770640121E+03  0.17770640121E+03  0.00000000000E+00 0.  1.
          1   -1    0    0  501    0  0.00000000000E+00 -0.00000000000E+00 -0.11539261041E+03  0.11539261041E+03  0.00000000000E+00 0. -1.
         25    2    1    2    0    0  0.56804359970E+02  0.16327111834E+02  0.10658879647E+03  0.17464988059E+03  0.12509236333E+03 0.  0.
          5    1    3    3  502    0  0.95376293489E+02  0.24136264810E+02  0.70688028948E+02  0.12121660973E+03  0.41800000000E+01 0. -1.
         -5    1    3    3    0  502 -0.38571933519E+02 -0.78091529754E+01  0.35900767521E+02  0.53433270854E+02  0.41800000000E+01 0. -1.
        -11    1    1    2    0    0 -0.33998149051E+02 -0.25902616403E+02  0.21739862668E+02  0.47952490073E+02  0.00000000000E+00 0.  1.
         11    1    1    2    0    0 -0.22806210919E+02  0.95755045693E+01 -0.66014868343E+02  0.70496640960E+02  0.00000000000E+00 0. -1.
</event>
<event>
 7    1  0.2380582E-009  0.1410574E+03  0.7561462E-02  0.1211913E+00
          4   -1    0    0  501    0  0.00000000000E+00  0.00000000000E+00  0.53076140327E+03  0.53076140327E+03  0.00000000000E+00 0. -1.
         -4   -1    0    0    0  501 -0.00000000000E+00 -0.00000000000E+00 -0.40346969477E+02  0.40346969477E+02  0.00000000000E+00 0.  1.
         25    2    1    2    0    0  0.90057495253E+02 -0.37538404489E+02  0.27965751605E+03  0.32152430667E+03  0.12510023674E+03 0.  0.
          5    1    3    3  502    0  0.10435396308E+03  0.52089711345E+01  0.14018253758E+03  0.17488710424E+03  0.41800000000E+01 0. -1.
         -5    1    3    3    0  502 -0.14296467822E+02 -0.42747375624E+02  0.13947497847E+03  0.14663720243E+03  0.41800000000E+01 0. -1.
        -11    1    1    2    0    0 -0.29101383352E+02  0.60505329348E+02  0.12503428309E+03  0.14192024993E+03  0.00000000000E+00 0.  1.
         11    1    1    2    0    0 -0.60956111901E+02 -0.22966924859E+02  0.85722634653E+02  0.10766381615E+03  0.00000000000E+00 0. -1.
</event>
<event>
 7    1  0.2380582E-009  0.2376561E+03  0.7561462E-02  0.1121364E+00
         -2   -1    0    0    0  501 -0.00000000000E+00  0.00000000000E+00  0.75557139649E+02  0.75557139649E+02  0.00000000000E+00 0.  1.
          2   -1    0    0  501    0  0.00000000000E+00 -0.00000000000E+00 -0.12018645064E+04  0.12018645064E+04  0.00000000000E+00 0. -1.
         25    2    1    2    0    0  0.18941263693E+03  0.11870585232E+03 -0.21466140379E+03  0.33420847481E+03  0.12509020727E+03 0.  0.
          5    1    3    3  502    0  0.41232377443E+01  0.55627552901E+02 -0.23791245334E+02  0.60785865839E+02  0.41800000000E+01 0.  1.
         -5    1    3    3    0  502  0.18528939919E+03  0.63078299423E+02 -0.19087015846E+03  0.27342260897E+03  0.41800000000E+01 0.  1.
        -11    1    1    2    0    0 -0.54356896046E+02 -0.31245341252E+02 -0.12011499079E+03  0.13549374344E+03  0.00000000000E+00 0.  1.
         11    1    1    2    0    0 -0.13505574088E+03 -0.87460511072E+02 -0.79153097218E+03  0.80771942781E+03  0.00000000000E+00 0. -1.
</event>
<event>
 7    1  0.2380582E-009  0.2017252E+03  0.7561462E-02  0.1148292E+00
         -2   -1    0    0    0  501 -0.00000000000E+00  0.00000000000E+00  0.19404830484E+02  0.19404830484E+02  0.00000000000E+00 0.  1.
          2   -1    0    0  501    0  0.00000000000E+00 -0.00000000000E+00 -0.30953898714E+04  0.30953898714E+04  0.00000000000E+00 0. -1.
         25    2    1    2    0    0  0.18332563860E+03 -0.26237839719E+00 -0.23150335900E+04  0.23256473308E+04  0.12508647432E+03 0.  0.
          5    1    3    3  502    0  0.10108461362E+03 -0.36881386855E+02 -0.71352115162E+03  0.72160116547E+03  0.41800000000E+01 0.  1.
         -5    1    3    3    0  502  0.82241024979E+02  0.36619008458E+02 -0.16015124384E+04  0.16040461654E+04  0.41800000000E+01 0.  1.
        -11    1    1    2    0    0 -0.10726674791E+03 -0.45898085824E+02 -0.50048639332E+03  0.51390604140E+03  0.00000000000E+00 0. -1.
         11    1    1    2    0    0 -0.76058890688E+02  0.46160464222E+02 -0.26046505762E+03  0.27524132966E+03  0.00000000000E+00 0.  1.
</event>
<event>
 7    1  0.2380582E-009  0.1134998E+03  0.7561462E-02  0.1254223E+00
          2   -1    0    0  501    0  0.00000000000E+00  0.00000000000E+00  0.95877259889E+02  0.95877259889E+02  0.00000000000E+00 0. -1.
         -2   -1    0    0    0  501 -0.00000000000E+00 -0.00000000000E+00 -0.18062874555E+03  0.18062874555E+03  0.00000000000E+00 0.  1.
         25    2    1    2    0    0  0.50004677159E+02  0.32130709836E+02  0.12127751467E+02  0.13901924613E+03  0.12508564341E+03 0.  0.
          5    1    3    3  502    0  0.86368677491E+02  0.43012581436E+01 -0.11475022966E+02  0.87333829786E+02  0.41800000000E+01 0. -1.
         -5    1    3    3    0  502 -0.36364000332E+02  0.27829451692E+02  0.23602774433E+02  0.51685416343E+02  0.41800000000E+01 0. -1.
        -11    1    1    2    0    0  0.19383219478E+02 -0.81440085776E+01 -0.37789033832E+02  0.43244018673E+02  0.00000000000E+00 0.  1.
         11    1    1    2    0    0 -0.69387896637E+02 -0.23986701258E+02 -0.59090203292E+02  0.94242740633E+02  0.00000000000E+00 0. -1.
</event>
<event>
 7    1  0.2380582E-009  0.1023983E+03  0.7561462E-02  0.1275332E+00
          1   -1    0    0  501    0  0.00000000000E+00  0.00000000000E+00  0.47104570731E+02  0.47104570731E+02  0.00000000000E+00 0. -1.
         -1   -1    0    0    0  501 -0.00000000000E+00 -0.00000000000E+00 -0.31268860754E+03  0.31268860754E+03  0.00000000000E+00 0.  1.
         25    2    1    2    0    0  0.41473774892E+02  0.24004432192E+02 -0.18750221045E+03  0.23043682377E+03  0.12509102308E+03 0.  0.
          5    1    3    3  502    0  0.59190381740E+02 -0.37052496058E+02 -0.90586143608E+02  0.11445396703E+03  0.41800000000E+01 0. -1.
         -5    1    3    3    0  502 -0.17716606848E+02  0.61056928250E+02 -0.96916066845E+02  0.11598285674E+03  0.41800000000E+01 0. -1.
        -11    1    1    2    0    0 -0.19339479763E+02  0.16203351370E+02 -0.79529762057E+02  0.83435886320E+02  0.00000000000E+00 0.  1.
         11    1    1    2    0    0 -0.22134295129E+02 -0.40207783561E+02  0.14479357052E+01  0.45920468177E+02  0.00000000000E+00 0. -1.
</event>
<event>
 7    1  0.2380582E-009  0.9893702E+02  0.7561462E-02  0.1282547E+00
         -2   -1    0    0    0  501 -0.00000000000E+00  0.00000000000E+00  0.21029582208E+02  0.21029582208E+02  0.00000000000E+00 0.  1.
          2   -1    0    0  501    0  0.00000000000E+00 -0.00000000000E+00 -0.58312946350E+03  0.58312946350E+03  0.00000000000E+00 0. -1.
         25    2    1    2    0    0 -0.21724357755E+02 -0.47700309700E+01 -0.32627364920E+03  0.35014354774E+03  0.12510519152E+03 0.  0.
          5    1    3    3  502    0 -0.52868518649E+02  0.40214648165E+02 -0.22882108668E+03  0.23830413404E+03  0.41800000000E+01 0.  1.
         -5    1    3    3    0  502  0.31144160894E+02 -0.44984679135E+02 -0.97452562518E+02  0.11183941370E+03  0.41800000000E+01 0.  1.
        -11    1    1    2    0    0  0.26840698580E+02  0.35940484984E+02 -0.57571620991E+02  0.72983786588E+02  0.00000000000E+00 0.  1.
         11    1    1    2    0    0 -0.51163408254E+01 -0.31170454014E+02 -0.17825461110E+03  0.18103171138E+03  0.00000000000E+00 0. -1.
</event>
<event>
 7    1  0.2380582E-009  0.1009641E+03  0.7561462E-02  0.1278282E+00
         -1   -1    0    0    0  501 -0.00000000000E+00  0.00000000000E+00  0.11030579083E+03  0.11030579083E+03  0.00000000000E+00 0.  1.
          1   -1    0    0  501    0  0.00000000000E+00 -0.00000000000E+00 -0.25354534433E+03  0.25354534433E+03  0.00000000000E+00 0. -1.
         25    2    1    2    0    0  0.81709530832E+02  0.10202924969E+02  0.29110295136E+02  0.15256776090E+03  0.12509582438E+03 0.  0.
          5    1    3    3  502    0  0.88801470439E+02  0.31757832167E+02 -0.21611798492E+02  0.96844221769E+02  0.41800000000E+01 0. -1.
         -5    1    3    3    0  502 -0.70919396072E+01 -0.21554907198E+02  0.50722093628E+02  0.55723539135E+02  0.41800000000E+01 0. -1.
        -11    1    1    2    0    0 -0.53564583677E+02 -0.15610740521E+02 -0.17385100603E+03  0.18258431516E+03  0.00000000000E+00 0. -1.
         11    1    1    2    0    0 -0.28144947155E+02  0.54078155526E+01  0.15011573969E+01  0.28699059095E+02  0.00000000000E+00 0.  1.
</event>
<event>
 7    1  0.2380582E-009  0.2356831E+03  0.7561462E-02  0.1122702E+00
          1   -1    0    0  501    0  0.00000000000E+00  0.00000000000E+00  0.53095520378E+03  0.53095520378E+03  0.00000000000E+00 0. -1.
         -1   -1    0    0    0  501 -0.00000000000E+00 -0.00000000000E+00 -0.14669813897E+03  0.14669813897E+03  0.00000000000E+00 0.  1.
         25    2    1    2    0    0 -0.20757807814E+03  0.39916982278E+02  0.37022138372E+03  0.44429291573E+03  0.12510115110E+03 0.  0.
          5    1    3    3  502    0 -0.49436395823E+02 -0.42449867429E+02  0.12555834637E+03  0.14152144438E+03  0.41800000000E+01 0.  1.
         -5    1    3    3    0  502 -0.15814168232E+03  0.82366849707E+02  0.24466303735E+03  0.30277147134E+03  0.41800000000E+01 0.  1.
        -11    1    1    2    0    0  0.10823339896E+03 -0.63669079030E+02  0.32150244082E+02  0.12962198297E+03  0.00000000000E+00 0. -1.
         11    1    1    2    0    0  0.99344679178E+02  0.23752096752E+02 -0.18114562996E+02  0.10373844405E+03  0.00000000000E+00 0.  1.
</event>
<event>
 7    1  0.2380582E-009  0.1296782E+03  0.7561462E-02  0.1227934E+00
          2   -1    0    0  501    0  0.00000000000E+00  0.00000000000E+00  0.17033930734E+04  0.17033930734E+04  0.00000000000E+00 0. -1.
         -2   -1    0    0    0  501 -0.00000000000E+00 -0.00000000000E+00 -0.20200213580E+02  0.20200213580E+02  0.00000000000E+00 0.  1.
         25    2    1    2    0    0  0.47263092445E+02  0.81364645398E+02  0.14327049095E+04  0.14412302422E+04  0.12508896030E+03 0.  0.
          5    1    3    3  502    0  0.83662029646E+02  0.82343545029E+02  0.11884815863E+04  0.11942720578E+04  0.41800000000E+01 0.  1.
         -5    1    3    3    0  502 -0.36398937201E+02 -0.97889963088E+00  0.24422332313E+03  0.24695818438E+03  0.41800000000E+01 0.  1.
        -11    1    1    2    0    0 -0.54901606024E+02 -0.54676290492E+02  0.24080323596E+03  0.25296221365E+03  0.00000000000E+00 0. -1.
         11    1    1    2    0    0  0.76385135798E+01 -0.26688354906E+02  0.96847143668E+01  0.29400831105E+02  0.00000000000E+00 0.  1.
</event>
<event>
 7    1  0.2380582E-009  0.8423222E+02  0.7561462E-02  0.1317453E+00
          2   -1    0    0  501    0  0.00000000000E+00  0.00000000000E+00  0.87252935924E+02  0.87252935924E+02  0.00000000000E+00 0. -1.
         -2   -1    0    0    0  501 -0.00000000000E+00 -0.00000000000E+00 -0.15527375774E+03  0.15527375774E+03  0.00000000000E+00 0.  1.
         25    2    1    2    0    0  0.62058282857E+01  0.14850998850E+02  0.33367537979E+01  0.12617429678E+03  0.12509897989E+03 0.  0.
          5    1    3    3  502    0  0.18654959767E+02  0.62581140831E+02 -0.23910078935E+02  0.69667574856E+02  0.41800000000E+01 0. -1.
         -5    1    3    3    0  502 -0.12449131481E+02 -0.47730141981E+02  0.27246832733E+02  0.56506721920E+02  0.41800000000E+01 0. -1.
        -11    1    1    2    0    0  0.17350905824E+01  0.18835291665E+02 -0.78726586862E+02  0.80966994698E+02  0.00000000000E+00 0.  1.
         11    1    1    2    0    0 -0.79409188681E+01 -0.33686290515E+02  0.73690112517E+01  0.35385402187E+02  0.00000000000E+00 0. -1.
</event>
<event>
 7    1  0.2380582E-009  0.1014564E+03  0.7561462E-02  0.1277263E+00
         -2   -1    0    0    0  501 -0.00000000000E+00  0.00000000000E+00  0.49935926138E+02  0.49935926138E+02  0.00000000000E+00 0.  1.
          2   -1    0    0  501    0  0.00000000000E+00 -0.00000000000E+00 -0.30090966631E+03  0.30090966631E+03  0.00000000000E+00 0. -1.
         25    2    1    2    0    0 -0.31965027262E+02  0.48818216484E+02 -0.13389841925E+03  0.19229586965E+03  0.12507571138E+03 0.  0.
          5    1    3    3  502    0 -0.12737504918E+02 -0.22206067735E+02  0.12197190422E+02  0.28663519149E+02  0.41800000000E+01 0.  1.
         -5    1    3    3    0  502 -0.19227522345E+02  0.71024284219E+02 -0.14609560968E+03  0.16363235050E+03  0.41800000000E+01 0.  1.
        -11    1    1    2    0    0 -0.15190215854E+02 -0.53756239750E+02 -0.42551146754E+02  0.70221621028E+02  0.00000000000E+00 0.  1.
         11    1    1    2    0    0  0.47155243117E+02  0.49380232661E+01 -0.74524174164E+02  0.88328101768E+02  0.00000000000E+00 0. -1.
</event>
<event>
 7    1  0.2380582E-009  0.1188364E+03  0.7561462E-02  0.1245029E+00
          3   -1    0    0  501    0  0.00000000000E+00  0.00000000000E+00  0.33401670882E+03  0.33401670882E+03  0.00000000000E+00 0. -1.
         -3   -1    0    0    0  501 -0.00000000000E+00 -0.00000000000E+00 -0.51194365084E+02  0.51194365084E+02  0.00000000000E+00 0.  1.
         25    2    1    2    0    0  0.89691075337E+01  0.59012948513E+02  0.98880938731E+02  0.17025653432E+03  0.12508746720E+03 0.  0.
          5    1    3    3  502    0 -0.42464383262E+02  0.73508507937E+02  0.60011857391E+02  0.10404623978E+03  0.41800000000E+01 0. -1.
         -5    1    3    3    0  502  0.51433490796E+02 -0.14495559424E+02  0.38869081340E+02  0.66210294537E+02  0.41800000000E+01 0. -1.
        -11    1    1    2    0    0 -0.37091463248E+02 -0.60445271819E+02  0.16855413982E+03  0.18286581305E+03  0.00000000000E+00 0. -1.
         11    1    1    2    0    0  0.28122355714E+02  0.14323233056E+01  0.15387265186E+02  0.32088726538E+02  0.00000000000E+00 0.  1.
</event>
<event>
 7    1  0.2474894E-009  0.7358903E+02  0.7561462E-02  0.1348297E+00
          2   -1    0    0  501    0  0.00000000000E+00  0.00000000000E+00  0.57114525988E+03  0.57114525988E+03  0.00000000000E+00 0. -1.
         -2   -1    0    0    0  501 -0.00000000000E+00 -0.00000000000E+00 -0.23813110695E+02  0.23813110695E+02  0.00000000000E+00 0.  1.
         25    2    1    2    0    0 -0.13324396315E+02  0.33681060812E+02  0.37375639429E+03  0.39579865036E+03  0.12510306136E+03 0.  0.
          5    1    3    3  502    0  0.15629894319E+02  0.61753479567E+02  0.97218623728E+02  0.11630442397E+03  0.41800000000E+01 0. -1.
         -5    1    3    3    0  502 -0.28954290634E+02 -0.28072418755E+02  0.27653777056E+03  0.27949422639E+03  0.41800000000E+01 0. -1.
        -11    1    1    2    0    0  0.29604665725E+01 -0.32188819473E+02  0.18253746581E+03  0.18537748214E+03  0.00000000000E+00 0. -1.
         11    1    1    2    0    0  0.10363929742E+02 -0.14922413393E+01 -0.89617109094E+01  0.13782238074E+02  0.00000000000E+00 0.  1.
</event>
<event>
 7    1  0.2380582E-009  0.1400249E+03  0.7561462E-02  0.1213296E+00
         -3   -1    0    0    0  501 -0.00000000000E+00  0.00000000000E+00  0.10210240575E+03  0.10210240575E+03  0.00000000000E+00 0.  1.
          3   -1    0    0  501    0  0.00000000000E+00 -0.00000000000E+00 -0.43718126657E+03  0.43718126657E+03  0.00000000000E+00 0. -1.
         25    2    1    2    0    0  0.60289114859E+02  0.94503430056E+02 -0.35791913636E+03  0.39537150925E+03  0.12508735546E+03 0.  0.
          5    1    3    3  502    0  0.38932380868E+02 -0.24985287878E+02 -0.10392006601E+03  0.11382814859E+03  0.41800000000E+01 0. -1.
         -5    1    3    3    0  502  0.21356733992E+02  0.11948871793E+03 -0.25399907034E+03  0.28154336067E+03  0.41800000000E+01 0. -1.
        -11    1    1    2    0    0 -0.21452113145E+02 -0.36651914340E+02  0.53059936820E+02  0.67962584401E+02  0.00000000000E+00 0.  1.
         11    1    1    2    0    0 -0.38837001715E+02 -0.57851515716E+02 -0.30219661283E+02  0.75949578675E+02  0.00000000000E+00 0. -1.
</event>
<event>
 7    1  0.2380582E-009  0.1898240E+03  0.7561462E-02  0.1158620E+00
         -2   -1    0    0    0  501 -0.00000000000E+00  0.00000000000E+00  0.19121401349E+03  0.19121401349E+03  0.00000000000E+00 0.  1.
          2   -1    0    0  501    0  0.00000000000E+00 -0.00000000000E+00 -0.23200698451E+03  0.23200698451E+03  0.00000000000E+00 0. -1.
         25    2    1    2    0    0 -0.26046747197E+02 -0.17097824093E+03  0.29526224685E+02  0.21547962907E+03  0.12509068986E+03 0.  0.
          5    1    3    3  502    0  0.28532864487E+02 -0.12260123191E+03  0.55922281423E+02  0.13780406519E+03  0.41800000000E+01 0.  1.
         -5    1    3    3    0  502 -0.54579611684E+02 -0.48377009012E+02 -0.26396056738E+02  0.77675563878E+02  0.41800000000E+01 0.  1.
        -11    1    1    2    0    0 -0.24255543845E+01  0.13378868050E+03 -0.14075039668E+02  0.13454887991E+03  0.00000000000E+00 0. -1.
         11    1    1    2    0    0  0.28472301581E+02  0.37189560429E+02 -0.56244156029E+02  0.73192489024E+02  0.00000000000E+00 0.  1.
</event>
<event>
 7    1  0.2380582E-009  0.2057649E+03  0.7561462E-02  0.1144964E+00
          1   -1    0    0  501    0  0.00000000000E+00  0.00000000000E+00  0.11879491038E+04  0.11879491038E+04  0.00000000000E+00 0. -1.
         -1   -1    0    0    0  501 -0.00000000000E+00 -0.00000000000E+00 -0.39700114350E+02  0.39700114350E+02  0.00000000000E+00 0.  1.
         25    2    1    2    0    0 -0.98886331768E+02  0.15970847963E+03  0.59237219664E+03  0.63390678105E+03  0.12509069762E+03 0.  0.
          5    1    3    3  502    0 -0.30226840134E+02  0.15132958009E+03  0.36772814486E+03  0.39881795922E+03  0.41800000000E+01 0. -1.
         -5    1    3    3    0  502 -0.68659491634E+02  0.83788995453E+01  0.22464405178E+03  0.23508882183E+03  0.41800000000E+01 0. -1.
        -11    1    1    2    0    0  0.26128024796E+02 -0.40196371920E+02  0.28355137851E+03  0.28757574002E+03  0.00000000000E+00 0. -1.
         11    1    1    2    0    0  0.72758306972E+02 -0.11951210771E+03  0.27232541425E+03  0.30616669703E+03  0.00000000000E+00 0.  1.
</event>
<event>
 7    1  0.2380582E-009  0.1162575E+03  0.7561462E-02  0.1249402E+00
          1   -1    0    0  501    0  0.00000000000E+00  0.00000000000E+00  0.15348931428E+03  0.15348931428E+03  0.00000000000E+00 0. -1.
         -1   -1    0    0    0  501 -0.00000000000E+00 -0.00000000000E+00 -0.13345559417E+03  0.13345559417E+03  0.00000000000E+00 0.  1.
         25    2    1    2    0    0 -0.11619874746E+00  0.89397850649E+02  0.20116073735E+02  0.15506045745E+03  0.12508836812E+03 0.  0.
          5    1    3    3  502    0 -0.17344336122E+02  0.12508362161E+02 -0.46784893036E+02  0.51609918968E+02  0.41800000000E+01 0. -1.
         -5    1    3    3    0  502  0.17228137375E+02  0.76889488488E+02  0.66900966771E+02  0.10345053848E+03  0.41800000000E+01 0. -1.
        -11    1    1    2    0    0 -0.44263555758E+02 -0.18065505433E+02  0.19623430537E+01  0.47848465442E+02  0.00000000000E+00 0. -1.
         11    1    1    2    0    0  0.44379754506E+02 -0.71332345216E+02 -0.20446966725E+01  0.84035985556E+02  0.00000000000E+00 0.  1.
</event>
<event>
 7    1  0.2380582E-009  0.1953142E+03  0.7561462E-02  0.1153754E+00
          1   -1    0    0  501    0  0.00000000000E+00  0.00000000000E+00  0.20443124655E+03  0.20443124655E+03  0.00000000000E+00 0. -1.
         -1   -1    0    0    0  501 -0.00000000000E+00 -0.00000000000E+00 -0.24507596008E+03  0.24507596008E+03  0.00000000000E+00 0.  1.
         25    2    1    2    0    0  0.62307187027E+02 -0.17206273912E+03 -0.85218037407E+02  0.23748051207E+03  0.12508840060E+03 0.  0.
          5    1    3    3  502    0  0.11148607900E+02 -0.37903026896E+02  0.32841857768E+02  0.51546007873E+02  0.41800000000E+01 0.  1.
         -5    1    3    3    0  502  0.51158579127E+02 -0.13415971223E+03 -0.11805989518E+03  0.18593450420E+03  0.41800000000E+01 0.  1.
        -11    1    1    2    0    0  0.25341712602E+02  0.58888975034E+02  0.15536080899E+02  0.65965775883E+02  0.00000000000E+00 0.  1.
         11    1    1    2    0    0 -0.87648899629E+02  0.11317376409E+03  0.29037242982E+02  0.14606091867E+03  0.00000000000E+00 0. -1.
</event>
<event>
 7    1  0.2469651E-009  0.1070409E+03  0.7561462E-02  0.1266150E+00
          1   -1    0    0  501    0  0.00000000000E+00  0.00000000000E+00  0.28655785390E+03  0.28655785390E+03  0.00000000000E+00 0. -1.
         -1   -1    0    0    0  501 -0.00000000000E+00 -0.00000000000E+00 -0.57017559921E+02  0.57017559921E+02  0.00000000000E+00 0.  1.
         25    2    1    2    0    0  0.50564716247E+02 -0.21591994669E+02  0.17915376142E+03  0.22531627773E+03  0.12509336518E+03 0.  0.
          5    1    3    3  502    0 -0.31927334551E+01 -0.54347934870E+02  0.14191431279E+03  0.15205602963E+03  0.41800000000E+01 0. -1.
         -5    1    3    3    0  502  0.53757449702E+02  0.32755940201E+02  0.37239448638E+02  0.73260248101E+02  0.41800000000E+01 0. -1.
        -11    1    1    2    0    0 -0.52698422087E+02  0.47168662625E+02  0.11481172161E+02  0.71650706476E+02  0.00000000000E+00 0.  1.
         11    1    1    2    0    0  0.21337058397E+01 -0.25576667956E+02  0.38905360397E+02  0.46608429623E+02  0.00000000000E+00 0. -1.
</event>
<event>
 7    1  0.2450137E-009  0.1099104E+03  0.7561462E-02  0.1260736E+00
         -2   -1    0    0    0  501 -0.00000000000E+00  0.00000000000E+00  0.16839010109E+02  0.16839010109E+02  0.00000000000E+00 0.  1.
          2   -1    0    0  501    0  0.00000000000E+00 -0.00000000000E+00 -0.12191251638E+04  0.12191251638E+04  0.00000000000E+00 0. -1.
         25    2    1    2    0    0 -0.55608235189E+02 -0.27548324051E+02 -0.94971661143E+03  0.95992863749E+03  0.12510060378E+03 0.  0.
          5    1    3    3  502    0 -0.81092906717E+02  0.45002091093E+01 -0.81544637588E+03  0.81949165691E+03  0.41800000000E+01 0.  1.
         -5    1    3    3    0  502  0.25484671528E+02 -0.32048533161E+02 -0.13427023555E+03  0.14043698058E+03  0.41800000000E+01 0.  1.
        -11    1    1    2    0    0  0.21308009582E+02  0.51344523291E+02 -0.73447727712E+02  0.92113300073E+02  0.00000000000E+00 0. -1.
         11    1    1    2    0    0  0.34300225607E+02 -0.23796199240E+02 -0.17912181450E+03  0.18392223630E+03  0.00000000000E+00 0.  1.
</event>
<event>
 7    1  0.2380582E-009  0.1191707E+03  0.7561462E-02  0.1244471E+00
          1   -1    0    0  501    0  0.00000000000E+00  0.00000000000E+00  0.62518597949E+02  0.62518597949E+02  0.00000000000E+00 0. -1.
         -1   -1    0    0    0  501 -0.00000000000E+00 -0.00000000000E+00 -0.41262134177E+03  0.41262134177E+03  0.00000000000E+00 0.  1.
         25    2    1    2    0    0  0.42067594292E+02 -0.42331893800E+02 -0.33785124420E+03  0.36517245066E+03  0.12508310752E+03 0.  0.
          5    1    3    3  502    0  0.60506420927E+02  0.26811866151E+02 -0.14550457253E+03  0.15990295859E+03  0.41800000000E+01 0. -1.
         -5    1    3    3    0  502 -0.18438826635E+02 -0.69143759952E+02 -0.19234667167E+03  0.20526949206E+03  0.41800000000E+01 0. -1.
        -11    1    1    2    0    0 -0.21385350892E+00 -0.22868025022E+02 -0.22177833747E+02  0.31856688645E+02  0.00000000000E+00 0. -1.
         11    1    1    2    0    0 -0.41853740783E+02  0.65199918823E+02  0.99263341314E+01  0.78110800414E+02  0.00000000000E+00 0.  1.
</event>
<event>
 7    1  0.2790183E-009  0.1214971E+03  0.7561462E-02  0.1240648E+00
         -2   -1    0    0    0  501 -0.00000000000E+00  0.00000000000E+00  0.10518013879E+03  0.10518013879E+03  0.00000000000E+00 0.  1.
          2   -1    0    0  501    0  0.00000000000E+00 -0.00000000000E+00 -0.19251266549E+03  0.19251266549E+03  0.00000000000E+00 0. -1.
         25    2    1    2    0    0 -0.60637830119E+02  0.60413424677E+02 -0.13052383443E+02  0.15213115814E+03  0.12508715458E+03 0.  0.
          5    1    3    3  502    0 -0.11912306049E+02  0.74052998705E+02  0.34412760422E+02  0.82628446267E+02  0.41800000000E+01 0.  1.
         -5    1    3    3    0  502 -0.48725524070E+02 -0.13639574028E+02 -0.47465143865E+02  0.69502711873E+02  0.41800000000E+01 0.  1.
        -11    1    1    2    0    0 -0.17473416093E+02 -0.26962415838E+02  0.84661404702E+00  0.32140455708E+02  0.00000000000E+00 0.  1.
         11    1    1    2    0    0  0.78111246212E+02 -0.33451008839E+02 -0.75126757303E+02  0.11342119044E+03  0.00000000000E+00 0. -1.
</event>
<event>
 7    1  0.2380582E-009  0.1154775E+03  0.7561462E-02  0.1250750E+00
          1   -1    0    0  501    0  0.00000000000E+00  0.00000000000E+00  0.47594073811E+03  0.47594073811E+03  0.00000000000E+00 0. -1.
         -1   -1    0    0    0  501 -0.00000000000E+00 -0.00000000000E+00 -0.44082874041E+02  0.44082874041E+02  0.00000000000E+00 0.  1.
         25    2    1    2    0    0 -0.81211741456E+02 -0.50083430042E+02  0.24129028938E+03  0.28804698991E+03  0.12508544172E+03 0.  0.
          5    1    3    3  502    0 -0.87866298264E+02 -0.70310646058E+02  0.24136906602E+03  0.26634671342E+03  0.41800000000E+01 0.  1.
         -5    1    3    3    0  502  0.66545568076E+01  0.20227216016E+02 -0.78776633044E-01  0.21700276492E+02  0.41800000000E+01 0.  1.
        -11    1    1    2    0    0  0.46747717492E+02  0.19815731621E+02  0.18723590882E+02  0.54116403853E+02  0.00000000000E+00 0.  1.
         11    1    1    2    0    0  0.34464023964E+02  0.30267698421E+02  0.17184398380E+03  0.17786021838E+03  0.00000000000E+00 0. -1.
</event>
<event>
 7    1  0.2380582E-009  0.1174091E+03  0.7561462E-02  0.1247433E+00
         -2   -1    0    0    0  501 -0.00000000000E+00  0.00000000000E+00  0.27783658611E+02  0.27783658611E+02  0.00000000000E+00 0.  1.
          2   -1    0    0  501    0  0.00000000000E+00 -0.00000000000E+00 -0.58681506601E+03  0.58681506601E+03  0.00000000000E+00 0. -1.
         25    2    1    2    0    0 -0.57880195771E+02  0.65009216400E+01 -0.40564687756E+03  0.42847257095E+03  0.12508787206E+03 0.  0.
          5    1    3    3  502    0  0.11149960197E+02 -0.43704716572E+02 -0.21234065067E+03  0.21711851185E+03  0.41800000000E+01 0. -1.
         -5    1    3    3    0  502 -0.69030155968E+02  0.50205638212E+02 -0.19330622690E+03  0.21135405910E+03  0.41800000000E+01 0. -1.
        -11    1    1    2    0    0  0.44049305085E+02  0.37555006960E+02 -0.70228515884E+02  0.91009693272E+02  0.00000000000E+00 0.  1.
         11    1    1    2    0    0  0.13830890687E+02 -0.44055928600E+02 -0.83156013953E+02  0.95116460398E+02  0.00000000000E+00 0. -1.
</event>
<event>
 7    1  0.2380582E-009  0.6936260E+02  0.7561462E-02  0.1362274E+00
         -2   -1    0    0    0  501 -0.00000000000E+00  0.00000000000E+00  0.48822912469E+02  0.48822912469E+02  0.00000000000E+00 0.  1.
          2   -1    0    0  501    0  0.00000000000E+00 -0.00000000000E+00 -0.26221221010E+03  0.26221221010E+03  0.00000000000E+00 0. -1.
         25    2    1    2    0    0  0.76963358933E+01 -0.12017822017E+02 -0.15598811442E+03  0.20045660242E+03  0.12508755327E+03 0.  0.
          5    1    3    3  502    0 -0.44495993807E+02 -0.86467204683E-01 -0.11262907125E+02  0.46089330852E+02  0.41800000000E+01 0. -1.
         -5    1    3    3    0  502  0.52192329700E+02 -0.11931354812E+02 -0.14472520729E+03  0.15436727157E+03  0.41800000000E+01 0. -1.
        -11    1    1    2    0    0 -0.78031693835E+01 -0.13081477954E+02  0.22307267673E+02  0.27011640249E+02  0.00000000000E+00 0.  1.
         11    1    1    2    0    0  0.10683349023E+00  0.25099299971E+02 -0.79708450884E+02  0.83566879892E+02  0.00000000000E+00 0. -1.
</event>
<event>
 7    1  0.2380582E-009  0.1238510E+03  0.7561462E-02  0.1236876E+00
         -2   -1    0    0    0  501 -0.00000000000E+00  0.00000000000E+00  0.15938662032E+02  0.15938662032E+02  0.00000000000E+00 0.  1.
          2   -1    0    0  501    0  0.00000000000E+00 -0.00000000000E+00 -0.13305915119E+04  0.13305915119E+04  0.00000000000E+00 0. -1.
         25    2    1    2    0    0  0.81631892425E+02  0.18867867127E+02 -0.92648880831E+03  0.93864204184E+03  0.12509040140E+03 0.  0.
          5    1    3    3  502    0  0.17241828729E+02 -0.34636388977E+02 -0.91172298577E+02  0.99130320927E+02  0.41800000000E+01 0. -1.
         -5    1    3    3    0  502  0.64390063696E+02  0.53504256104E+02 -0.83531650973E+03  0.83951172092E+03  0.41800000000E+01 0. -1.
        -11    1    1    2    0    0 -0.86286858489E+02  0.17714179875E+02 -0.25944324644E+03  0.27398907321E+03  0.00000000000E+00 0.  1.
         11    1    1    2    0    0  0.46549660634E+01 -0.36582047002E+02 -0.12872079513E+03  0.13389905889E+03  0.00000000000E+00 0. -1.
</event>
<event>
 7    1  0.2380582E-009  0.1165657E+03  0.7561462E-02  0.1248873E+00
         -2   -1    0    0    0  501 -0.00000000000E+00  0.00000000000E+00  0.13908972784E+02  0.13908972784E+02  0.00000000000E+00 0.  1.
          2   -1    0    0  501    0  0.00000000000E+00 -0.00000000000E+00 -0.99695548942E+03  0.99695548942E+03  0.00000000000E+00 0. -1.
         25    2    1    2    0    0  0.43315797380E+02  0.81096300696E+01 -0.54932653858E+03  0.56510948438E+03  0.12508820469E+03 0.  0.
          5    1    3    3  502    0  0.84574246205E+02 -0.11928059705E+02 -0.38966152068E+03  0.39893439915E+03  0.41800000000E+01 0. -1.
         -5    1    3    3    0  502 -0.41258448825E+02  0.20037689775E+02 -0.15966501790E+03  0.16617508523E+03  0.41800000000E+01 0. -1.
        -11    1    1    2    0    0 -0.72122992810E+02 -0.22157202803E+01 -0.33819063740E+03  0.34580275119E+03  0.00000000000E+00 0.  1.
         11    1    1    2    0    0  0.28807195430E+02 -0.58939097893E+01 -0.95529340658E+02  0.99952226628E+02  0.00000000000E+00 0. -1.
</event>
<event>
 7    1  0.2380582E-009  0.2032813E+03  0.7561462E-02  0.1147000E+00
         -1   -1    0    0    0  501 -0.00000000000E+00  0.00000000000E+00  0.25170718420E+03  0.25170718420E+03  0.00000000000E+00 0.  1.
          1   -1    0    0  501    0  0.00000000000E+00 -0.00000000000E+00 -0.19315952277E+03  0.19315952277E+03  0.00000000000E+00 0. -1.
         25    2    1    2    0    0  0.16068146926E+03 -0.70618299708E+02 -0.51679012468E+02  0.22163794381E+03  0.12508868450E+03 0.  0.
          5    1    3    3  502    0  0.14232897109E+03 -0.30447774876E+01 -0.51628588238E+02  0.15149188165E+03  0.41800000000E+01 0.  1.
         -5    1    3    3    0  502  0.18352498165E+02 -0.67573522220E+02 -0.50424229819E-01  0.70146062161E+02  0.41800000000E+01 0.  1.
        -11    1    1    2    0    0 -0.94501994118E+02  0.84042514969E+02  0.75615819935E+02  0.14734830654E+03  0.00000000000E+00 0. -1.
         11    1    1    2    0    0 -0.66179475141E+02 -0.13424215261E+02  0.34610853958E+02  0.75880456621E+02  0.00000000000E+00 0.  1.
</event>
<event>
 7    1  0.2380582E-009  0.1187522E+03  0.7561462E-02  0.1245170E+00
          1   -1    0    0  501    0  0.00000000000E+00  0.00000000000E+00  0.40866991736E+03  0.40866991736E+03  0.00000000000E+00 0. -1.
         -1   -1    0    0    0  501 -0.00000000000E+00 -0.00000000000E+00 -0.42869708660E+02  0.42869708660E+02  0.00000000000E+00 0.  1.
         25    2    1    2    0    0 -0.41996350817E+02 -0.61360219537E+02  0.17740275479E+03  0.22945172685E+03  0.12509031746E+03 0.  0.
          5    1    3    3  502    0 -0.83838567895E+02 -0.48024346580E+02  0.92767003219E+02  0.13400907662E+03  0.41800000000E+01 0.  1.
         -5    1    3    3    0  502  0.41842217078E+02 -0.13335872956E+02  0.84635751573E+02  0.95442650224E+02  0.41800000000E+01 0.  1.
        -11    1    1    2    0    0 -0.79749973939E+01  0.42542357382E+02  0.24554244344E+02  0.49763075371E+02  0.00000000000E+00 0.  1.
         11    1    1    2    0    0  0.49971348211E+02  0.18817862154E+02  0.16384320957E+03  0.17232482381E+03  0.00000000000E+00 0. -1.
</event>
<event>
 7    1  0.2380582E-009  0.1183248E+03  0.7561462E-02  0.1245886E+00
          1   -1    0    0  501    0  0.00000000000E+00  0.00000000000E+00  0.16146061344E+03  0.16146061344E+03  0.00000000000E+00 0. -1.
         -1   -1    0    0    0  501 -0.00000000000E+00 -0.00000000000E+00 -0.10457458830E+03  0.10457458830E+03  0.00000000000E+00 0.  1.
         25    2    1    2    0    0  0.52849840277E+02 -0.36003074931E+02 -0.25398304326E+01  0.14051053120E+03  0.12508969429E+03 0.  0.
          5    1    3    3  502    0 -0.34094427429E+02  0.43180707047E+01 -0.24106431505E+02  0.42186113310E+02  0.41800000000E+01 0.  1.
         -5    1    3    3    0  502  0.86944267706E+02 -0.40321145636E+02  0.21566601072E+02  0.98324417894E+02  0.41800000000E+01 0.  1.
        -11    1    1    2    0    0  0.23771406229E+01 -0.24249614741E+02  0.30015897218E+02  0.38660686730E+02  0.00000000000E+00 0. -1.
         11    1    1    2    0    0 -0.55226980900E+02  0.60252689671E+02  0.29409958356E+02  0.86863983805E+02  0.00000000000E+00 0.  1.
</event>
<event>
 7    1  0.2380582E-009  0.1195368E+03  0.7561462E-02  0.1243863E+00
          1   -1    0    0  501    0  0.00000000000E+00  0.00000000000E+00  0.28849307296E+02  0.28849307296E+02  0.00000000000E+00 0. -1.
         -1   -1    0    0    0  501 -0.00000000000E+00 -0.00000000000E+00 -0.50903440652E+03  0.50903440652E+03  0.00000000000E+00 0.  1.
         25    2    1    2    0    0 -0.43916776860E+02  0.29615067122E+02 -0.29645903030E+03  0.32609800714E+03  0.12508484369E+03 0.  0.
          5    1    3    3  502    0  0.43602180516E+02  0.47474807532E+01 -0.81673695202E+02  0.92799534520E+02  0.41800000000E+01 0. -1.
         -5    1    3    3    0  502 -0.87518957376E+02  0.24867586369E+02 -0.21478533510E+03  0.23329847262E+03  0.41800000000E+01 0. -1.
        -11    1    1    2    0    0  0.38587610100E+02 -0.60956974753E+02 -0.14253458987E+03  0.15975251401E+03  0.00000000000E+00 0.  1.
         11    1    1    2    0    0  0.53291667592E+01  0.31341907631E+02 -0.41191479052E+02  0.52033192664E+02  0.00000000000E+00 0. -1.
</event>
<event>
 7    1  0.2380582E-009  0.1701368E+03  0.7561462E-02  0.1177705E+00
          2   -1    0    0  501    0  0.00000000000E+00  0.00000000000E+00  0.81650477987E+03  0.81650477987E+03  0.00000000000E+00 0. -1.
         -2   -1    0    0    0  501 -0.00000000000E+00 -0.00000000000E+00 -0.52842309794E+02  0.52842309794E+02  0.00000000000E+00 0.  1.
         25    2    1    2    0    0  0.11857640741E+03  0.81772847957E+02  0.18315191223E+03  0.26446018950E+03  0.12508959117E+03 0.  0.
          5    1    3    3  502    0  0.68134201358E+01  0.57794195685E+02  0.13558833255E+02  0.59899132782E+02  0.41800000000E+01 0.  1.
         -5    1    3    3    0  502  0.11176298727E+03  0.23978652272E+02  0.16959307898E+03  0.20456105672E+03  0.41800000000E+01 0.  1.
        -11    1    1    2    0    0 -0.50311877640E+02 -0.85473596379E+02  0.39234126342E+03  0.40468344133E+03  0.00000000000E+00 0. -1.
         11    1    1    2    0    0 -0.68264529767E+02  0.37007484212E+01  0.18816929443E+03  0.20020345883E+03  0.00000000000E+00 0.  1.
</event>
<event>
 7    1  0.2380582E-009  0.1029044E+03  0.7561462E-02  0.1274304E+00
         -1   -1    0    0    0  501 -0.00000000000E+00  0.00000000000E+00  0.62813191895E+02  0.62813191895E+02  0.00000000000E+00 0.  1.
          1   -1    0    0  501    0  0.00000000000E+00 -0.00000000000E+00 -0.26560706982E+03  0.26560706982E+03  0.00000000000E+00 0. -1.
         25    2    1    2    0    0  0.25668396020E+02  0.66497775045E+02 -0.10992877528E+03  0.18114474684E+03  0.12509301752E+03 0.  0.
          5    1    3    3  502    0  0.29625582921E+02  0.76493541879E+02 -0.12555432198E+02  0.83090603502E+02  0.41800000000E+01 0. -1.
         -5    1    3    3    0  502 -0.39571869012E+01 -0.99957668333E+01 -0.97373343078E+02  0.98054143334E+02  0.41800000000E+01 0. -1.
        -11    1    1    2    0    0 -0.20025436868E+02  0.18314788096E+02 -0.11060089586E+02  0.29304865916E+02  0.00000000000E+00 0.  1.
         11    1    1    2    0    0 -0.56429591525E+01 -0.84812563141E+02 -0.81805013062E+02  0.11797064896E+03  0.00000000000E+00 0. -1.
</event>
<event>
 7    1  0.2380582E-009  0.1033134E+03  0.7561462E-02  0.1273479E+00
          1   -1    0    0  501    0  0.00000000000E+00  0.00000000000E+00  0.38123561857E+03  0.38123561857E+03  0.00000000000E+00 0. -1.
         -1   -1    0    0    0  501 -0.00000000000E+00 -0.00000000000E+00 -0.54112987553E+02  0.54112987553E+02  0.00000000000E+00 0.  1.
         25    2    1    2    0    0 -0.18073109273E+02  0.91370698243E+02  0.18116440266E+03  0.23904755407E+03  0.12509176848E+03 0.  0.
          5    1    3    3  502    0 -0.31237227658E+02  0.77562113872E+02  0.33624240939E+02  0.90220329631E+02  0.41800000000E+01 0. -1.
         -5    1    3    3    0  502  0.13164118386E+02  0.13808584371E+02  0.14754016172E+03  0.14882722444E+03  0.41800000000E+01 0. -1.
        -11    1    1    2    0    0  0.25720612512E+02 -0.22774045236E+02 -0.53903138239E+00  0.34358370148E+02  0.00000000000E+00 0.  1.
         11    1    1    2    0    0 -0.76475032395E+01 -0.68596653008E+02  0.14649725974E+03  0.16194268190E+03  0.00000000000E+00 0. -1.
</event>
<event>
 7    1  0.2380582E-009  0.1291905E+03  0.7561462E-02  0.1228662E+00
         -2   -1    0    0    0  501 -0.00000000000E+00  0.00000000000E+00  0.17474327644E+03  0.17474327644E+03  0.00000000000E+00 0.  1.
          2   -1    0    0  501    0  0.00000000000E+00 -0.00000000000E+00 -0.15888678276E+03  0.15888678276E+03  0.00000000000E+00 0. -1.
         25    2    1    2    0    0  0.91768027766E+02  0.31000989769E+02  0.89287638075E+02  0.18167485772E+03  0.12510411395E+03 0.  0.
          5    1    3    3  502    0  0.89714159621E+02  0.67079725716E+02  0.92251517411E+02  0.14517622017E+03  0.41800000000E+01 0. -1.
         -5    1    3    3    0  502  0.20538681450E+01 -0.36078735947E+02 -0.29638793367E+01  0.36498637545E+02  0.41800000000E+01 0. -1.
        -11    1    1    2    0    0 -0.87145522800E+02 -0.42905602823E+02 -0.89052226648E+02  0.13177834408E+03  0.00000000000E+00 0. -1.
         11    1    1    2    0    0 -0.46225049652E+01  0.11904613054E+02  0.15621082248E+02  0.20176857404E+02  0.00000000000E+00 0.  1.
</event>
<event>
 7    1  0.2380582E-009  0.7361164E+02  0.7561462E-02  0.1348225E+00
          1   -1    0    0  501    0  0.00000000000E+00  0.00000000000E+00  0.34835408263E+03  0.34835408263E+03  0.00000000000E+00 0. -1.
         -1   -1    0    0    0  501 -0.00000000000E+00 -0.00000000000E+00 -0.37760990740E+02  0.37760990740E+02  0.00000000000E+00 0.  1.
         25    2    1    2    0    0  0.32794739345E+02 -0.65964473185E+01  0.16802129703E+03  0.21212447832E+03  0.12508649009E+03 0.  0.
          5    1    3    3  502    0 -0.10252026127E+02 -0.82312237510E+01 -0.17122744539E+02  0.21989039649E+02  0.41800000000E+01 0. -1.
         -5    1    3    3    0  502  0.43046765472E+02  0.16347764325E+01  0.18514404157E+03  0.19013543867E+03  0.41800000000E+01 0. -1.
        -11    1    1    2    0    0 -0.23517752552E+02 -0.37949310683E+02  0.33525360173E+02  0.55831752983E+02  0.00000000000E+00 0.  1.
         11    1    1    2    0    0 -0.92769867936E+01  0.44545758002E+02  0.10904643469E+03  0.11815884207E+03  0.00000000000E+00 0. -1.
</event>
<event>
 7    1  0.2380582E-009  0.1866656E+03  0.7561462E-02  0.1161504E+00
          1   -1    0    0  501    0  0.00000000000E+00  0.00000000000E+00  0.68455660061E+03  0.68455660061E+03  0.00000000000E+00 0. -1.
         -1   -1    0    0    0  501 -0.00000000000E+00 -0.00000000000E+00 -0.82047259871E+02  0.82047259871E+02  0.00000000000E+00 0.  1.
         25    2    1    2    0    0  0.57864367724E+02  0.16864297954E+03  0.50255332705E+03  0.54771884798E+03  0.12508936928E+03 0.  0.
          5    1    3    3  502    0  0.11918658111E+02  0.39252179329E+02  0.19687500756E+02  0.45693085684E+02  0.41800000000E+01 0. -1.
         -5    1    3    3    0  502  0.45945709613E+02  0.12939080022E+03  0.48286582629E+03  0.50202576230E+03  0.41800000000E+01 0. -1.
        -11    1    1    2    0    0 -0.76458657487E+02 -0.11632195091E+03  0.71895127587E+02  0.15667045650E+03  0.00000000000E+00 0.  1.
         11    1    1    2    0    0  0.18594289763E+02 -0.52321028630E+02  0.28060886099E+02  0.62214555993E+02  0.00000000000E+00 0. -1.
</event>
<event>
 7    1  0.2380582E-009  0.8360887E+02  0.7561462E-02  0.1319111E+00
          1   -1    0    0  501    0  0.00000000000E+00  0.00000000000E+00  0.62603125711E+03  0.62603125711E+03  0.00000000000E+00 0. -1.
         -1   -1    0    0    0  501 -0.00000000000E+00 -0.00000000000E+00 -0.24663902308E+02  0.24663902308E+02  0.00000000000E+00 0.  1.
         25    2    1    2    0    0 -0.85896182982E+01  0.35053497412E+02  0.19487023281E+03  0.23435945106E+03  0.12508962963E+03 0.  0.
          5    1    3    3  502    0 -0.42803446532E+02  0.18932716660E+02  0.19032174244E+03  0.19603678441E+03  0.41800000000E+01 0.  1.
         -5    1    3    3    0  502  0.34213828234E+02  0.16120780752E+02  0.45484903690E+01  0.38322666649E+02  0.41800000000E+01 0.  1.
        -11    1    1    2    0    0 -0.80554298343E+01  0.21639404168E+02  0.51289232602E+02  0.56247125646E+02  0.00000000000E+00 0.  1.
         11    1    1    2    0    0  0.16645048133E+02 -0.56692901581E+02  0.35520788939E+03  0.36008858272E+03  0.00000000000E+00 0. -1.
</event>
<event>
 7    1  0.2380582E-009  0.1738642E+03  0.7561462E-02  0.1173877E+00
          2   -1    0    0  501    0  0.00000000000E+00  0.00000000000E+00  0.96578095618E+03  0.96578095618E+03  0.00000000000E+00 0. -1.
         -2   -1    0    0    0  501 -0.00000000000E+00 -0.00000000000E+00 -0.40879096721E+02  0.40879096721E+02  0.00000000000E+00 0.  1.
         25    2    1    2    0    0 -0.13820610130E+03  0.15958135903E+02  0.70211037906E+03  0.72661012832E+03  0.12509078965E+03 0.  0.
          5    1    3    3  502    0 -0.15570025272E+03  0.25424664718E+02  0.67199059162E+03  0.69027372100E+03  0.41800000000E+01 0.  1.
         -5    1    3    3    0  502  0.17494151420E+02 -0.94665288150E+01  0.30119787437E+02  0.36336407321E+02  0.41800000000E+01 0.  1.
        -11    1    1    2    0    0 -0.13854303809E+01 -0.29322446751E+02  0.35067720527E+02  0.45732595856E+02  0.00000000000E+00 0. -1.
         11    1    1    2    0    0  0.13959153168E+03  0.13364310848E+02  0.18772375987E+03  0.23431732872E+03  0.00000000000E+00 0.  1.
</event>
<event>
 7    1  0.2380582E-009  0.1436529E+03  0.7561462E-02  0.1208497E+00
         -1   -1    0    0    0  501 -0.00000000000E+00  0.00000000000E+00  0.37626673485E+02  0.37626673485E+02  0.00000000000E+00 0.  1.
          1   -1    0    0  501    0  0.00000000000E+00 -0.00000000000E+00 -0.56809634943E+03  0.56809634943E+03  0.00000000000E+00 0. -1.
         25    2    1    2    0    0 -0.52816056078E+02 -0.79870441552E+02 -0.32992616294E+03  0.36560618831E+03  0.12509112170E+03 0.  0.
          5    1    3    3  502    0 -0.37393592120E+02  0.28720898081E+02 -0.87284930281E+02  0.99294018815E+02  0.41800000000E+01 0.  1.
         -5    1    3    3    0  502 -0.15422463958E+02 -0.10859133963E+03 -0.24264123266E+03  0.26631216950E+03  0.41800000000E+01 0.  1.
        -11    1    1    2    0    0  0.73628927581E+02  0.80877241722E+02 -0.18139685853E+03  0.21181871374E+03  0.00000000000E+00 0. -1.
         11    1    1    2    0    0 -0.20812871502E+02 -0.10068001699E+01 -0.19146654479E+02  0.28298120865E+02  0.00000000000E+00 0.  1.
</event>
<event>
 7    1  0.2380582E-009  0.1085097E+03  0.7561462E-02  0.1263355E+00
         -2   -1    0    0    0  501 -0.00000000000E+00  0.00000000000E+00  0.32682418048E+02  0.32682418048E+02  0.00000000000E+00 0.  1.
          2   -1    0    0  501    0  0.00000000000E+00 -0.00000000000E+00 -0.40398705730E+03  0.40398705730E+03  0.00000000000E+00 0. -1.
         25    2    1    2    0    0 -0.98277274067E+01 -0.34756982992E+02 -0.17053173477E+03  0.21455094457E+03  0.12508558334E+03 0.  0.
          5    1    3    3  502    0 -0.51510546599E+02 -0.61317771044E+02 -0.11342622560E+03  0.13891071417E+03  0.41800000000E+01 0.  1.
         -5    1    3    3    0  502  0.41682819192E+02  0.26560788052E+02 -0.57105509169E+02  0.75640230402E+02  0.41800000000E+01 0.  1.
        -11    1    1    2    0    0 -0.21262471158E+02 -0.16746593697E+02 -0.27014685217E+02  0.38240479829E+02  0.00000000000E+00 0.  1.
         11    1    1    2    0    0  0.31090198565E+02  0.51503576689E+02 -0.17375821927E+03  0.18387805095E+03  0.00000000000E+00 0. -1.
</event>
<event>
 7    1  0.2380582E-009  0.1785657E+03  0.7561462E-02  0.1169198E+00
          2   -1    0    0  501    0  0.00000000000E+00  0.00000000000E+00  0.60968655895E+03  0.60968655895E+03  0.00000000000E+00 0. -1.
         -2   -1    0    0    0  501 -0.00000000000E+00 -0.00000000000E+00 -0.57107943401E+02  0.57107943401E+02  0.00000000000E+00 0.  1.
         25    2    1    2    0    0  0.12682149727E+03 -0.83703792693E+02  0.28542032201E+03  0.34670185535E+03  0.12508956473E+03 0.  0.
          5    1    3    3  502    0  0.36743096933E+02 -0.88642169492E+02  0.20238796299E+03  0.22402198407E+03  0.41800000000E+01 0.  1.
         -5    1    3    3    0  502  0.90078400333E+02  0.49383767989E+01  0.83032359024E+02  0.12267987128E+03  0.41800000000E+01 0.  1.
        -11    1    1    2    0    0 -0.66975724250E+02  0.88214357810E+02  0.13270540821E+03  0.17285324970E+03  0.00000000000E+00 0.  1.
         11    1    1    2    0    0 -0.59845773016E+02 -0.45105651173E+01  0.13445288533E+03  0.14723939730E+03  0.00000000000E+00 0. -1.
</event>
<event>
 7    1  0.2380582E-009  0.6958088E+02  0.7561462E-02  0.1361524E+00
         -2   -1    0    0    0  501 -0.00000000000E+00  0.00000000000E+00  0.67338549341E+02  0.67338549341E+02  0.00000000000E+00 0.  1.
          2   -1    0    0  501    0  0.00000000000E+00 -0.00000000000E+00 -0.20452511787E+03  0.20452511787E+03  0.00000000000E+00 0. -1.
         25    2    1    2    0    0  0.15238243495E+01  0.44551438956E+02 -0.86994933488E+02  0.15875792844E+03  0.12509519829E+03 0.  0.
          5    1    3    3  502    0  0.10356688691E+02  0.17376953363E+02  0.31015985929E+02  0.37265041151E+02  0.41800000000E+01 0.  1.
         -5    1    3    3    0  502 -0.88328643414E+01  0.27174485593E+02 -0.11801091942E+03  0.12149288729E+03  0.41800000000E+01 0.  1.
        -11    1    1    2    0    0  0.76630838086E+01 -0.65921832581E+02 -0.10629223990E+02  0.67211541174E+02  0.00000000000E+00 0.  1.
         11    1    1    2    0    0 -0.91869081581E+01  0.21370393625E+02 -0.39562411054E+02  0.45894197603E+02  0.00000000000E+00 0. -1.
</event>
<event>
 7    1  0.2380582E-009  0.1448323E+03  0.7561462E-02  0.1206971E+00
         -1   -1    0    0    0  501 -0.00000000000E+00  0.00000000000E+00  0.45273689995E+02  0.45273689995E+02  0.00000000000E+00 0.  1.
          1   -1    0    0  501    0  0.00000000000E+00 -0.00000000000E+00 -0.64946560909E+03  0.64946560909E+03  0.00000000000E+00 0. -1.
         25    2    1    2    0    0 -0.11219319151E+03  0.60304657926E+01 -0.17799207166E+03  0.24485385918E+03  0.12509418870E+03 0.  0.
          5    1    3    3  502    0 -0.57526870517E+02 -0.57514874565E+02 -0.10980281513E+03  0.13671661288E+03  0.41800000000E+01 0.  1.
         -5    1    3    3    0  502 -0.54666320991E+02  0.63545340358E+02 -0.68189256530E+02  0.10813724630E+03  0.41800000000E+01 0.  1.
        -11    1    1    2    0    0  0.31701788334E+02  0.22510471204E+02 -0.46087773729E+02  0.60297658202E+02  0.00000000000E+00 0.  1.
         11    1    1    2    0    0  0.80491403175E+02 -0.28540936996E+02 -0.38011207371E+03  0.38958778170E+03  0.00000000000E+00 0. -1.
</event>
<event>
 7    1  0.2380582E-009  0.2303939E+03  0.7561462E-02  0.1126363E+00
          3   -1    0    0  501    0  0.00000000000E+00  0.00000000000E+00  0.33358051084E+03  0.33358051084E+03  0.00000000000E+00 0. -1.
         -3   -1    0    0    0  501 -0.00000000000E+00 -0.00000000000E+00 -0.38829533670E+03  0.38829533670E+03  0.00000000000E+00 0.  1.
         25    2    1    2    0    0  0.19655717370E+03  0.59711255737E+02 -0.30126281025E+03  0.38549549506E+03  0.12508932520E+03 0.  0.
          5    1    3    3  502    0  0.19963545431E+03  0.78697745687E+02 -0.24409813352E+03  0.32503695326E+03  0.41800000000E+01 0.  1.
         -5    1    3    3    0  502 -0.30782806040E+01 -0.18986489950E+02 -0.57164676726E+02  0.60458541806E+02  0.41800000000E+01 0.  1.
        -11    1    1    2    0    0 -0.13709614953E+03 -0.85598792005E+02  0.19669701518E+03  0.25458244870E+03  0.00000000000E+00 0.  1.
         11    1    1    2    0    0 -0.59461024179E+02  0.25887536268E+02  0.49850969219E+02  0.81797903778E+02  0.00000000000E+00 0. -1.
</event>
<event>
 7    1  0.2380582E-009  0.1497111E+03  0.7561462E-02  0.1200828E+00
         -1   -1    0    0    0  501 -0.00000000000E+00  0.00000000000E+00  0.33553327514E+03  0.33553327514E+03  0.00000000000E+00 0.  1.
          1   -1    0    0  501    0  0.00000000000E+00 -0.00000000000E+00 -0.10043482251E+03  0.10043482251E+03  0.00000000000E+00 0. -1.
         25    2    1    2    0    0 -0.91361837086E+02  0.82799521738E+02  0.22716164809E+03  0.28714252263E+03  0.12508264412E+03 0.  0.
          5    1    3    3  502    0  0.38184078150E+01  0.52692472839E+02  0.19098477093E+02  0.56332061558E+02  0.41800000000E+01 0. -1.
         -5    1    3    3    0  502 -0.95180244901E+02  0.30107048899E+02  0.20806317100E+03  0.23081046107E+03  0.41800000000E+01 0. -1.
        -11    1    1    2    0    0  0.10026018625E+03 -0.49064822033E+02 -0.46950714771E+01  0.11172065791E+03  0.00000000000E+00 0. -1.
         11    1    1    2    0    0 -0.88983491594E+01 -0.33734699705E+02  0.12631876018E+02  0.37104917109E+02  0.00000000000E+00 0.  1.
</event>
<event>
 7    1  0.2628176E-009  0.1207419E+03  0.7561462E-02  0.1241878E+00
         -2   -1    0    0    0  501 -0.00000000000E+00  0.00000000000E+00  0.31828488726E+02  0.31828488726E+02  0.00000000000E+00 0.  1.
          2   -1    0    0  501    0  0.00000000000E+00 -0.00000000000E+00 -0.61074507832E+03  0.61074507832E+03  0.00000000000E+00 0. -1.
         25    2    1    2    0    0  0.46894553706E+02  0.73689862156E+02 -0.32873517795E+03  0.36241006690E+03  0.12507975222E+03 0.  0.
          5    1    3    3  502    0 -0.24587417098E+02  0.18793294149E+02 -0.12639005698E+02  0.33688957383E+02  0.41800000000E+01 0.  1.
         -5    1    3    3    0  502  0.71481970803E+02  0.54896568007E+02 -0.31609617226E+03  0.32872110952E+03  0.41800000000E+01 0.  1.
        -11    1    1    2    0    0 -0.61761910070E+02 -0.20925727770E+02 -0.92113550055E+02  0.11285976131E+03  0.00000000000E+00 0.  1.
         11    1    1    2    0    0  0.14867356365E+02 -0.52764134386E+02 -0.15806786158E+03  0.16730373883E+03  0.00000000000E+00 0. -1.
</event>
<event>
 7    1  0.2380582E-009  0.1077966E+03  0.7561462E-02  0.1264705E+00
         -1   -1    0    0    0  501 -0.00000000000E+00  0.00000000000E+00  0.91653948241E+02  0.91653948241E+02  0.00000000000E+00 0.  1.
          1   -1    0    0  501    0  0.00000000000E+00 -0.00000000000E+00 -0.16918082811E+03  0.16918082811E+03  0.00000000000E+00 0. -1.
         25    2    1    2    0    0 -0.32153872754E+02  0.52099806359E+02 -0.58786122439E+02  0.15116689419E+03  0.12508940944E+03 0.  0.
          5    1    3    3  502    0 -0.77030110230E+01 -0.41376509591E+02 -0.22195753333E+02  0.47764796564E+02  0.41800000000E+01 0. -1.
         -5    1    3    3    0  502 -0.24450861731E+02  0.93476315950E+02 -0.36590369106E+02  0.10340209763E+03  0.41800000000E+01 0. -1.
        -11    1    1    2    0    0  0.42655300216E+02 -0.50268493521E+02 -0.46006261551E+02  0.80392612716E+02  0.00000000000E+00 0. -1.
         11    1    1    2    0    0 -0.10501427462E+02 -0.18313128383E+01  0.27265504124E+02  0.29275269437E+02  0.00000000000E+00 0.  1.
</event>
<event>
 7    1  0.2380582E-009  0.1269437E+03  0.7561462E-02  0.1232063E+00
         -1   -1    0    0    0  501 -0.00000000000E+00  0.00000000000E+00  0.86140397344E+02  0.86140397344E+02  0.00000000000E+00 0.  1.
          1   -1    0    0  501    0  0.00000000000E+00 -0.00000000000E+00 -0.19513819687E+03  0.19513819687E+03  0.00000000000E+00 0. -1.
         25    2    1    2    0    0  0.61783101353E+02 -0.34696226724E+02 -0.59809314276E+02  0.15570705328E+03  0.12508618071E+03 0.  0.
          5    1    3    3  502    0 -0.14974475697E+02 -0.60507572178E+02 -0.30109299356E+02  0.69350151557E+02  0.41800000000E+01 0.  1.
         -5    1    3    3    0  502  0.76757577050E+02  0.25811345454E+02 -0.29700014920E+02  0.86356901722E+02  0.41800000000E+01 0.  1.
        -11    1    1    2    0    0 -0.12995120860E+02  0.55709078478E+02 -0.67922708794E+01  0.57606506011E+02  0.00000000000E+00 0.  1.
         11    1    1    2    0    0 -0.48787980494E+02 -0.21012851754E+02 -0.42396214375E+02  0.67965034928E+02  0.00000000000E+00 0. -1.
</event>
<event>
 7    1  0.2380582E-009  0.8052922E+02  0.7561462E-02  0.1327556E+00
         -1   -1    0    0    0  501 -0.00000000000E+00  0.00000000000E+00  0.57690049247E+02  0.57690049247E+02  0.00000000000E+00 0.  1.
          1   -1    0    0  501    0  0.00000000000E+00 -0.00000000000E+00 -0.25599637545E+03  0.25599637545E+03  0.00000000000E+00 0. -1.
         25    2    1    2    0    0 -0.15413639508E+02 -0.43788721155E+02 -0.16085533461E+03  0.20899013430E+03  0.12508958862E+03 0.  0.
          5    1    3    3  502    0 -0.43014192717E+02  0.67749689674E+01 -0.65536190262E+01  0.44232830589E+02  0.41800000000E+01 0.  1.
         -5    1    3    3    0  502  0.27600553209E+02 -0.50563690122E+02 -0.15430171558E+03  0.16475730372E+03  0.41800000000E+01 0.  1.
        -11    1    1    2    0    0  0.26735324803E+02  0.20599905089E+02 -0.61030066513E+02  0.69740968595E+02  0.00000000000E+00 0. -1.
         11    1    1    2    0    0 -0.11321685295E+02  0.23188816066E+02  0.23579074914E+02  0.34955321802E+02  0.00000000000E+00 0.  1.
</event>
<event>
 7    1  0.2380582E-009  0.3023898E+03  0.7561462E-02  0.1084052E+00
         -1   -1    0    0    0  501 -0.00000000000E+00  0.00000000000E+00  0.45832217283E+02  0.45832217283E+02  0.00000000000E+00 0.  1.
          1   -1    0    0  501    0  0.00000000000E+00 -0.00000000000E+00 -0.21847209292E+04  0.21847209292E+04  0.00000000000E+00 0. -1.
         25    2    1    2    0    0 -0.22115296317E+03  0.19707289272E+03 -0.11830065770E+04  0.12259273318E+04  0.12508758280E+03 0.  0.
          5    1    3    3  502    0 -0.20612886206E+03  0.13968513224E+03 -0.10656634337E+04  0.10943751963E+04  0.41800000000E+01 0.  1.
         -5    1    3    3    0  502 -0.15024101104E+02  0.57387760476E+02 -0.11734314334E+03  0.13155213551E+03  0.41800000000E+01 0.  1.
        -11    1    1    2    0    0  0.35128523012E+02 -0.28542779128E+02 -0.66075295942E+02  0.80091498320E+02  0.00000000000E+00 0.  1.
         11    1    1    2    0    0  0.18602444016E+03 -0.16853011359E+03 -0.88980683899E+03  0.92453431642E+03  0.00000000000E+00 0. -1.
</event>
<event>
 7    1  0.2380582E-009  0.6466876E+02  0.7561462E-02  0.1379222E+00
          1   -1    0    0  501    0  0.00000000000E+00  0.00000000000E+00  0.43437407131E+02  0.43437407131E+02  0.00000000000E+00 0. -1.
         -1   -1    0    0    0  501 -0.00000000000E+00 -0.00000000000E+00 -0.36014729613E+03  0.36014729613E+03  0.00000000000E+00 0.  1.
         25    2    1    2    0    0 -0.30821375724E+02 -0.12018365265E+02 -0.91621773590E+02  0.15854468925E+03  0.12508985086E+03 0.  0.
          5    1    3    3  502    0 -0.86047493489E+01 -0.13472787124E+02 -0.12062032147E+03  0.12174683592E+03  0.41800000000E+01 0.  1.
         -5    1    3    3    0  502 -0.22216626375E+02  0.14544218598E+01  0.28998547880E+02  0.36797853328E+02  0.41800000000E+01 0.  1.
        -11    1    1    2    0    0 -0.26973897054E+02 -0.93400368463E+01 -0.11882383526E+03  0.12220446488E+03  0.00000000000E+00 0.  1.
         11    1    1    2    0    0  0.57795272778E+02  0.21358402111E+02 -0.10626428015E+03  0.12283554914E+03  0.00000000000E+00 0. -1.
</event>
<event>
 7    1  0.2380582E-009  0.1330198E+03  0.7561462E-02  0.1223043E+00
          4   -1    0    0  501    0  0.00000000000E+00  0.00000000000E+00  0.55623978591E+03  0.55623978591E+03  0.00000000000E+00 0. -1.
         -4   -1    0    0    0  501 -0.00000000000E+00 -0.00000000000E+00 -0.44968337425E+02  0.44968337425E+02  0.00000000000E+00 0.  1.
         25    2    1    2    0    0  0.43475670825E+02 -0.90883403605E+02  0.17333065230E+03  0.23631556922E+03  0.12510637963E+03 0.  0.
          5    1    3    3  502    0  0.69388516307E+02 -0.72344910131E+02  0.17751896249E+03  0.20390930990E+03  0.41800000000E+01 0.  1.
         -5    1    3    3    0  502 -0.25912845482E+02 -0.18538493474E+02 -0.41883101906E+01  0.32406259327E+02  0.41800000000E+01 0.  1.
        -11    1    1    2    0    0 -0.50141480174E+02  0.84205355261E+01  0.88202407263E+02  0.10180735779E+03  0.00000000000E+00 0.  1.
         11    1    1    2    0    0  0.66658093485E+01  0.82462868079E+02  0.24973838892E+03  0.26308519633E+03  0.00000000000E+00 0. -1.
</event>
<event>
 7    1  0.2380582E-009  0.1054043E+03  0.7561462E-02  0.1269325E+00
         -2   -1    0    0    0  501 -0.00000000000E+00  0.00000000000E+00  0.24143736492E+03  0.24143736492E+03  0.00000000000E+00 0.  1.
          2   -1    0    0  501    0  0.00000000000E+00 -0.00000000000E+00 -0.62857259494E+02  0.62857259494E+02  0.00000000000E+00 0. -1.
         25    2    1    2    0    0 -0.49134280727E+02  0.16391030906E+02  0.13128012856E+03  0.18858568992E+03  0.12508895576E+03 0.  0.
          5    1    3    3  502    0 -0.55322170128E+02  0.50063070013E+02  0.13458276826E+03  0.15393780367E+03  0.41800000000E+01 0. -1.
         -5    1    3    3    0  502  0.61878894015E+01 -0.33672039106E+02 -0.33026396964E+01  0.34647886253E+02  0.41800000000E+01 0. -1.
        -11    1    1    2    0    0  0.57597732436E+02  0.22464476802E+02  0.43844676198E+02  0.75792526879E+02  0.00000000000E+00 0.  1.
         11    1    1    2    0    0 -0.84634517098E+01 -0.38855507708E+02  0.34553006688E+01  0.39916407614E+02  0.00000000000E+00 0. -1.
</event>
<event>
 7    1  0.2380582E-009  0.1903769E+03  0.7561462E-02  0.1158122E+00
          1   -1    0    0  501    0  0.00000000000E+00  0.00000000000E+00  0.82338781055E+02  0.82338781055E+02  0.00000000000E+00 0. -1.
         -1   -1    0    0    0  501 -0.00000000000E+00 -0.00000000000E+00 -0.57542008137E+03  0.57542008137E+03  0.00000000000E+00 0.  1.
         25    2    1    2    0    0  0.15707856177E+03  0.88922165803E+01 -0.99703751716E+02  0.22436877855E+03  0.12509102524E+03 0.  0.
          5    1    3    3  502    0  0.11891297742E+03  0.61356358658E+02 -0.51512339653E+02  0.14344299385E+03  0.41800000000E+01 0. -1.
         -5    1    3    3    0  502  0.38165584350E+02 -0.52464142078E+02 -0.48191412064E+02  0.80925784701E+02  0.41800000000E+01 0. -1.
        -11    1    1    2    0    0 -0.15919261379E+03  0.13139813901E+02 -0.34367029945E+03  0.37897785914E+03  0.00000000000E+00 0.  1.
         11    1    1    2    0    0  0.21140520156E+01 -0.22032030482E+02 -0.49707249154E+02  0.54412224743E+02  0.00000000000E+00 0. -1.
</event>
<event>
 7    1  0.2380582E-009  0.1622128E+03  0.7561462E-02  0.1186221E+00
         -4   -1    0    0    0  501 -0.00000000000E+00  0.00000000000E+00  0.30078005364E+03  0.30078005364E+03  0.00000000000E+00 0.  1.
          4   -1    0    0  501    0  0.00000000000E+00 -0.00000000000E+00 -0.97678028462E+02  0.97678028462E+02  0.00000000000E+00 0. -1.
         25    2    1    2    0    0 -0.11954677343E+03 -0.53898735032E+02  0.13192392914E+03  0.22416254972E+03  0.12509364869E+03 0.  0.
          5    1    3    3  502    0  0.35180062327E+01  0.24480024708E+02 -0.31623173718E+01  0.25280835206E+02  0.41800000000E+01 0.  1.
         -5    1    3    3    0  502 -0.12306477966E+03 -0.78378759740E+02  0.13508624652E+03  0.19888171452E+03  0.41800000000E+01 0.  1.
        -11    1    1    2    0    0  0.12304744356E+03  0.26642535101E+02  0.38616792605E+02  0.13168809632E+03  0.00000000000E+00 0.  1.
         11    1    1    2    0    0 -0.35006701251E+01  0.27256199932E+02  0.32561303428E+02  0.42607436053E+02  0.00000000000E+00 0. -1.
</event>
<event>
 7    1  0.2380582E-009  0.1064706E+03  0.7561462E-02  0.1267249E+00
          1   -1    0    0  501    0  0.00000000000E+00  0.00000000000E+00  0.21067483419E+03  0.21067483419E+03  0.00000000000E+00 0. -1.
         -1   -1    0    0    0  501 -0.00000000000E+00 -0.00000000000E+00 -0.62217103709E+02  0.62217103709E+02  0.00000000000E+00 0.  1.
         25    2    1    2    0    0  0.14007879341E+02  0.50597332092E+02  0.10737075574E+03  0.17300722806E+03  0.12508681415E+03 0.  0.
          5    1    3    3  502    0 -0.27303295755E+02  0.70802347865E+02  0.27639692058E+02  0.80869446637E+02  0.41800000000E+01 0. -1.
         -5    1    3    3    0  502  0.41311175096E+02 -0.20205015773E+02  0.79731063681E+02  0.92137781424E+02  0.41800000000E+01 0. -1.
        -11    1    1    2    0    0  0.29571735156E+02 -0.10032081316E+02  0.10466400842E+02  0.32934415468E+02  0.00000000000E+00 0.  1.
         11    1    1    2    0    0 -0.43579614497E+02 -0.40565250776E+02  0.30620573903E+02  0.66950294371E+02  0.00000000000E+00 0. -1.
</event>
<event>
 7    1  0.2380582E-009  0.9100711E+02  0.7561462E-02  0.1300431E+00
          1   -1    0    0  501    0  0.00000000000E+00  0.00000000000E+00  0.60721252754E+03  0.60721252754E+03  0.00000000000E+00 0. -1.
         -1   -1    0    0    0  501 -0.00000000000E+00 -0.00000000000E+00 -0.22541560713E+02  0.22541560713E+02  0.00000000000E+00 0.  1.
         25    2    1    2    0    0 -0.18445097865E+02  0.41865186007E+02  0.32566780273E+03  0.35185220191E+03  0.12509012279E+03 0.  0.
          5    1    3    3  502    0 -0.29820616720E+02  0.72396309512E+02  0.11847363519E+03  0.14207029755E+03  0.41800000000E+01 0. -1.
         -5    1    3    3    0  502  0.11375518855E+02 -0.30531123506E+02  0.20719416754E+03  0.20978190435E+03  0.41800000000E+01 0. -1.
        -11    1    1    2    0    0 -0.18553083487E+02 -0.21945086865E+02  0.19471082838E+02  0.34712055705E+02  0.00000000000E+00 0. -1.
         11    1    1    2    0    0  0.36998181352E+02 -0.19920099141E+02  0.23953208126E+03  0.24318983064E+03  0.00000000000E+00 0.  1.
</event>
<event>
 7    1  0.2380582E-009  0.9842713E+02  0.7561462E-02  0.1283639E+00
          3   -1    0    0  501    0  0.00000000000E+00  0.00000000000E+00  0.19829546981E+02  0.19829546981E+02  0.00000000000E+00 0. -1.
         -3   -1    0    0    0  501 -0.00000000000E+00 -0.00000000000E+00 -0.81028982069E+03  0.81028982069E+03  0.00000000000E+00 0.  1.
         25    2    1    2    0    0  0.33956625737E+02 -0.28228775375E+02 -0.59531030313E+03  0.60991330842E+03  0.12509984247E+03 0.  0.
          5    1    3    3  502    0 -0.45705995065E+02 -0.25444835300E+02 -0.21433456848E+03  0.22066548727E+03  0.41800000000E+01 0.  1.
         -5    1    3    3    0  502  0.79662620802E+02 -0.27839400748E+01 -0.38097573465E+03  0.38924782115E+03  0.41800000000E+01 0.  1.
        -11    1    1    2    0    0 -0.25790879498E+02  0.41565797451E+02 -0.19830794501E+03  0.20425211391E+03  0.00000000000E+00 0.  1.
         11    1    1    2    0    0 -0.81657462393E+01 -0.13337022076E+02  0.31579744282E+01  0.15953945343E+02  0.00000000000E+00 0. -1.
</event>
<event>
 7    1  0.2380582E-009  0.1009418E+03  0.7561462E-02  0.1278328E+00
         -3   -1    0    0    0  501 -0.00000000000E+00  0.00000000000E+00  0.15361505577E+02  0.15361505577E+02  0.00000000000E+00 0. -1.
          3   -1    0    0  501    0  0.00000000000E+00 -0.00000000000E+00 -0.84356988455E+03  0.84356988455E+03  0.00000000000E+00 0.  1.
         25    2    1    2    0    0  0.21589863734E+02 -0.13774000451E+02 -0.57311370073E+03  0.58716321919E+03  0.12508191995E+03 0.  0.
          5    1    3    3  502    0 -0.77732162965E+01 -0.59397572092E+02 -0.16796834242E+03  0.17837973796E+03  0.41800000000E+01 0. -1.
         -5    1    3    3    0  502  0.29363080030E+02  0.45623571641E+02 -0.40514535832E+03  0.40878348123E+03  0.41800000000E+01 0. -1.
        -11    1    1    2    0    0 -0.94220734577E+01  0.49130362694E+02 -0.19214814204E+03  0.19855346005E+03  0.00000000000E+00 0.  1.
         11    1    1    2    0    0 -0.12167790276E+02 -0.35356362243E+02 -0.62946536200E+02  0.73214710891E+02  0.00000000000E+00 0. -1.
</event>
<event>
 7    1  0.2380582E-009  0.2227891E+03  0.7561462E-02  0.1131821E+00
         -1   -1    0    0    0  501 -0.00000000000E+00  0.00000000000E+00  0.40130573357E+02  0.40130573357E+02  0.00000000000E+00 0.  1.
          1   -1    0    0  501    0  0.00000000000E+00 -0.00000000000E+00 -0.14860941181E+04  0.14860941181E+04  0.00000000000E+00 0. -1.
         25    2    1    2    0    0 -0.74376486016E+02 -0.19988336021E+03 -0.87245884412E+03  0.90681784043E+03  0.12509573006E+03 0.  0.
          5    1    3    3  502    0 -0.93742925654E+02 -0.16728880582E+03 -0.55783746875E+03  0.58989269754E+03  0.41800000000E+01 0. -1.
         -5    1    3    3    0  502  0.19366439638E+02 -0.32594554392E+02 -0.31462137537E+03  0.31692514289E+03  0.41800000000E+01 0. -1.
        -11    1    1    2    0    0  0.62218239899E+01  0.56793647515E+02 -0.28073474620E+03  0.28648948884E+03  0.00000000000E+00 0. -1.
         11    1    1    2    0    0  0.68154662026E+02  0.14308971270E+03 -0.29276995447E+03  0.33291736223E+03  0.00000000000E+00 0.  1.
</event>
<event>
 7    1  0.2380582E-009  0.9294410E+02  0.7561462E-02  0.1295875E+00
         -2   -1    0    0    0  501 -0.00000000000E+00  0.00000000000E+00  0.60646561222E+03  0.60646561222E+03  0.00000000000E+00 0.  1.
          2   -1    0    0  501    0  0.00000000000E+00 -0.00000000000E+00 -0.21265616437E+02  0.21265616437E+02  0.00000000000E+00 0. -1.
         25    2    1    2    0    0 -0.28636329213E+02 -0.23380657469E+02  0.35957345523E+03  0.38249988248E+03  0.12508555431E+03 0.  0.
          5    1    3    3  502    0 -0.52675797102E+02  0.43552934181E+01  0.57647865471E+02  0.78322774303E+02  0.41800000000E+01 0.  1.
         -5    1    3    3    0  502  0.24039467889E+02 -0.27735950887E+02  0.30192558976E+03  0.30417710818E+03  0.41800000000E+01 0.  1.
        -11    1    1    2    0    0  0.16244858709E+02  0.57434761709E+02  0.13361628200E+03  0.14634192189E+03  0.00000000000E+00 0. -1.
         11    1    1    2    0    0  0.12391470504E+02 -0.34054104240E+02  0.92010258557E+02  0.98889424291E+02  0.00000000000E+00 0.  1.
</event>
<event>
 7    1  0.2380582E-009  0.1196403E+03  0.7561462E-02  0.1243692E+00
         -3   -1    0    0    0  501 -0.00000000000E+00  0.00000000000E+00  0.40329952855E+03  0.40329952855E+03  0.00000000000E+00 0.  1.
          3   -1    0    0  501    0  0.00000000000E+00 -0.00000000000E+00 -0.41859728409E+02  0.41859728409E+02  0.00000000000E+00 0. -1.
         25    2    1    2    0    0  0.38485127229E+02  0.44649440956E+02  0.13292532514E+03  0.19181004327E+03  0.12508906044E+03 0.  0.
          5    1    3    3  502    0  0.49613118489E+01 -0.41727196499E+02  0.23358924877E+02  0.48258525821E+02  0.41800000000E+01 0. -1.
         -5    1    3    3    0  502  0.33523815380E+02  0.86376637456E+02  0.10956640026E+03  0.14355151745E+03  0.41800000000E+01 0. -1.
        -11    1    1    2    0    0 -0.32793928242E+02 -0.70542589829E+02  0.19905998703E+03  0.21372079250E+03  0.00000000000E+00 0.  1.
         11    1    1    2    0    0 -0.56911989867E+01  0.25893148873E+02  0.29454487967E+02  0.39628421188E+02  0.00000000000E+00 0. -1.
</event>
<event>
 7    1  0.2380582E-009  0.9726488E+02  0.7561462E-02  0.1286155E+00
          1   -1    0    0  501    0  0.00000000000E+00  0.00000000000E+00  0.74032140519E+03  0.74032140519E+03  0.00000000000E+00 0. -1.
         -1   -1    0    0    0  501 -0.00000000000E+00 -0.00000000000E+00 -0.16248799279E+02  0.16248799279E+02  0.00000000000E+00 0.  1.
         25    2    1    2    0    0  0.19194621458E+02 -0.27071257922E+02  0.42677692547E+03  0.44596832126E+03  0.12509161826E+03 0.  0.
          5    1    3    3  502    0 -0.42970245077E+01 -0.69148891076E+02  0.33614110643E+03  0.34323220913E+03  0.41800000000E+01 0.  1.
         -5    1    3    3    0  502  0.23491645966E+02  0.42077633154E+02  0.90635819039E+02  0.10273611213E+03  0.41800000000E+01 0.  1.
        -11    1    1    2    0    0 -0.12545750724E+02  0.50686491066E+02  0.26472306491E+03  0.26982367823E+03  0.00000000000E+00 0. -1.
         11    1    1    2    0    0 -0.66488707338E+01 -0.23615233143E+02  0.32572615527E+02  0.40778204972E+02  0.00000000000E+00 0.  1.
</event>
<event>
 7    1  0.2380582E-009  0.1307592E+03  0.7561462E-02  0.1226334E+00
         -2   -1    0    0    0  501 -0.00000000000E+00  0.00000000000E+00  0.71209681988E+02  0.71209681988E+02  0.00000000000E+00 0.  1.
          2   -1    0    0  501    0  0.00000000000E+00 -0.00000000000E+00 -0.27509028145E+03  0.27509028145E+03  0.00000000000E+00 0. -1.
         25    2    1    2    0    0 -0.72019788265E+02 -0.26091676822E+01 -0.14689144240E+03  0.20595611766E+03  0.12508864415E+03 0.  0.
          5    1    3    3  502    0 -0.31877337719E+01  0.54263119219E+02 -0.47785028440E+02  0.72495028085E+02  0.41800000000E+01 0.  1.
         -5    1    3    3    0  502 -0.68832054493E+02 -0.56872286902E+02 -0.99106413963E+02  0.13346108958E+03  0.41800000000E+01 0.  1.
        -11    1    1    2    0    0 -0.91735206045E+01 -0.29053241079E+02  0.81535763647E+01  0.31539262911E+02  0.00000000000E+00 0.  1.
         11    1    1    2    0    0  0.81193308869E+02  0.31662408761E+02 -0.65142733421E+02  0.10880458286E+03  0.00000000000E+00 0. -1.
</event>
<event>
 7    1  0.2380582E-009  0.6042418E+02  0.7561462E-02  0.1396060E+00
         -1   -1    0    0    0  501 -0.00000000000E+00  0.00000000000E+00  0.60938210595E+02  0.60938210595E+02  0.00000000000E+00 0.  1.
          1   -1    0    0  501    0  0.00000000000E+00 -0.00000000000E+00 -0.24302814581E+03  0.24302814581E+03  0.00000000000E+00 0. -1.
         25    2    1    2    0    0 -0.37684458513E+02 -0.39014789050E+02 -0.81682602063E+02  0.15893862578E+03  0.12508863700E+03 0.  0.
          5    1    3    3  502    0 -0.19054528991E+02 -0.15107799305E+02 -0.11270077085E+03  0.11537008635E+03  0.41800000000E+01 0.  1.
         -5    1    3    3    0  502 -0.18629929521E+02 -0.23906989745E+02  0.31018168787E+02  0.43568539424E+02  0.41800000000E+01 0.  1.
        -11    1    1    2    0    0  0.35610297727E+01  0.30100529980E+02  0.77331383576E+01  0.31281372524E+02  0.00000000000E+00 0.  1.
         11    1    1    2    0    0  0.34123428740E+02  0.89142590703E+01 -0.10814047151E+03  0.11374635811E+03  0.00000000000E+00 0. -1.
</event>
<event>
 7    1  0.2380582E-009  0.3421311E+03  0.7561462E-02  0.1065892E+00
          1   -1    0    0  501    0  0.00000000000E+00  0.00000000000E+00  0.76822354001E+03  0.76822354001E+03  0.00000000000E+00 0. -1.
         -1   -1    0    0    0  501 -0.00000000000E+00 -0.00000000000E+00 -0.19694254638E+03  0.19694254638E+03  0.00000000000E+00 0.  1.
         25    2    1    2    0    0 -0.32887292602E+03  0.55058910210E+02  0.49752230189E+03  0.61185372997E+03  0.12509061088E+03 0.  0.
          5    1    3    3  502    0 -0.85616146331E+02  0.60372474869E+02  0.21337721120E+03  0.23774412063E+03  0.41800000000E+01 0.  1.
         -5    1    3    3    0  502 -0.24325677969E+03 -0.53135646587E+01  0.28414509070E+03  0.37410960934E+03  0.41800000000E+01 0.  1.
        -11    1    1    2    0    0  0.18284880731E+03 -0.94794893104E+01  0.80905831061E+02  0.20017317641E+03  0.00000000000E+00 0.  1.
         11    1    1    2    0    0  0.14602411871E+03 -0.45579420900E+02 -0.71471393296E+01  0.15313918001E+03  0.00000000000E+00 0. -1.
</event>
<event>
 7    1  0.2447399E-009  0.1459888E+03  0.7561462E-02  0.1205490E+00
         -2   -1    0    0    0  501 -0.00000000000E+00  0.00000000000E+00  0.51614570287E+02  0.51614570287E+02  0.00000000000E+00 0. -1.
          2   -1    0    0  501    0  0.00000000000E+00 -0.00000000000E+00 -0.53561245966E+03  0.53561245966E+03  0.00000000000E+00 0.  1.
         25    2    1    2    0    0  0.21828521052E+02 -0.12324891711E+03 -0.24401206335E+03  0.30142506323E+03  0.12509357212E+03 0.  0.
          5    1    3    3  502    0 -0.39788666137E+02 -0.20339052826E+02 -0.12324558266E+03  0.13116310864E+03  0.41800000000E+01 0. -1.
         -5    1    3    3    0  502  0.61617187188E+02 -0.10290986428E+03 -0.12076648069E+03  0.17026195459E+03  0.41800000000E+01 0. -1.
        -11    1    1    2    0    0 -0.25028621680E+02  0.82744773072E+02 -0.70605332290E+02  0.11161649664E+03  0.00000000000E+00 0. -1.
         11    1    1    2    0    0  0.32001006281E+01  0.40504144038E+02 -0.16938049373E+03  0.17418547008E+03  0.00000000000E+00 0.  1.
</event>
<event>
 7    1  0.2380582E-009  0.1067150E+03  0.7561462E-02  0.1266777E+00
         -3   -1    0    0    0  501 -0.00000000000E+00  0.00000000000E+00  0.60365264826E+02  0.60365264826E+02  0.00000000000E+00 0.  1.
          3   -1    0    0  501    0  0.00000000000E+00 -0.00000000000E+00 -0.28194088762E+03  0.28194088762E+03  0.00000000000E+00 0. -1.
         25    2    1    2    0    0  0.20245788495E+02  0.59877945437E+02 -0.78924194760E+02  0.16084602165E+03  0.12508858405E+03 0.  0.
          5    1    3    3  502    0 -0.17304974016E+01  0.74493750827E+02 -0.10141730028E+03  0.12591765059E+03  0.41800000000E+01 0. -1.
         -5    1    3    3    0  502  0.21976285896E+02 -0.14615805390E+02  0.22493105518E+02  0.34928371059E+02  0.41800000000E+01 0. -1.
        -11    1    1    2    0    0 -0.44463997085E+02  0.31311943441E+01 -0.60022393647E+02  0.74763220596E+02  0.00000000000E+00 0. -1.
         11    1    1    2    0    0  0.24218208590E+02 -0.63009139781E+02 -0.82629034385E+02  0.10669691020E+03  0.00000000000E+00 0.  1.
</event>
<event>
 7    1  0.2380582E-009  0.3471511E+03  0.7561462E-02  0.1063790E+00
         -2   -1    0    0    0  501 -0.00000000000E+00  0.00000000000E+00  0.41650674185E+03  0.41650674185E+03  0.00000000000E+00 0.  1.
          2   -1    0    0  501    0  0.00000000000E+00 -0.00000000000E+00 -0.30914427270E+03  0.30914427270E+03  0.00000000000E+00 0. -1.
         25    2    1    2    0    0  0.18645257027E+03 -0.27635614033E+03 -0.21151274521E+02  0.35669614090E+03  0.12508990072E+03 0.  0.
          5    1    3    3  502    0  0.11755731107E+03 -0.69873206519E+02 -0.24297285738E+02  0.13895976709E+03  0.41800000000E+01 0. -1.
         -5    1    3    3    0  502  0.68895259202E+02 -0.20648293381E+03  0.31460112170E+01  0.21773637381E+03  0.41800000000E+01 0. -1.
        -11    1    1    2    0    0 -0.84749459960E+02  0.70808120854E+02  0.10214828309E+02  0.11090808654E+03  0.00000000000E+00 0. -1.
         11    1    1    2    0    0 -0.10170311031E+03  0.20554801948E+03  0.11829891536E+03  0.25804678710E+03  0.00000000000E+00 0.  1.
</event>
<event>
 7    1  0.2380582E-009  0.9348280E+02  0.7561462E-02  0.1294630E+00
          1   -1    0    0  501    0  0.00000000000E+00  0.00000000000E+00  0.10942600218E+03  0.10942600218E+03  0.00000000000E+00 0. -1.
         -1   -1    0    0    0  501 -0.00000000000E+00 -0.00000000000E+00 -0.11375447744E+03  0.11375447744E+03  0.00000000000E+00 0.  1.
         25    2    1    2    0    0  0.12555694457E+02  0.19459387755E+02 -0.15558447151E+02  0.12815891276E+03  0.12508528453E+03 0.  0.
          5    1    3    3  502    0 -0.54165203060E+02  0.23405522188E+02  0.10463699587E+01  0.59162952779E+02  0.41800000000E+01 0.  1.
         -5    1    3    3    0  502  0.66720897517E+02 -0.39461344326E+01 -0.16604817110E+02  0.68995959981E+02  0.41800000000E+01 0.  1.
        -11    1    1    2    0    0  0.21820857811E+02 -0.10448914314E+01 -0.30751701325E+02  0.37721462964E+02  0.00000000000E+00 0.  1.
         11    1    1    2    0    0 -0.34376552269E+02 -0.18414496324E+02  0.41981673213E+02  0.57300103896E+02  0.00000000000E+00 0. -1.
</event>
<event>
 7    1  0.2380582E-009  0.1404922E+03  0.7561462E-02  0.1212668E+00
         -3   -1    0    0    0  501 -0.00000000000E+00  0.00000000000E+00  0.14040155977E+03  0.14040155977E+03  0.00000000000E+00 0.  1.
          3   -1    0    0  501    0  0.00000000000E+00 -0.00000000000E+00 -0.22392456672E+03  0.22392456672E+03  0.00000000000E+00 0. -1.
         25    2    1    2    0    0 -0.98390175692E+02 -0.29171414539E+02 -0.14222231537E+03  0.21542291000E+03  0.12509294570E+03 0.  0.
          5    1    3    3  502    0  0.61431475740E+01  0.36671571819E+02 -0.24510787077E+02  0.44730230548E+02  0.41800000000E+01 0. -1.
         -5    1    3    3    0  502 -0.10453332327E+03 -0.65842986358E+02 -0.11771152829E+03  0.17069267945E+03  0.41800000000E+01 0. -1.
        -11    1    1    2    0    0  0.10662823931E+03  0.21657681840E+02  0.22608848513E+02  0.11112963885E+03  0.00000000000E+00 0. -1.
         11    1    1    2    0    0 -0.82380636156E+01  0.75137326997E+01  0.36090459904E+02  0.37773577634E+02  0.00000000000E+00 0.  1.
</event>
<event>
 7    1  0.2380582E-009  0.2309846E+03  0.7561462E-02  0.1125949E+00
         -1   -1    0    0    0  501 -0.00000000000E+00  0.00000000000E+00  0.35687504103E+03  0.35687504103E+03  0.00000000000E+00 0.  1.
          1   -1    0    0  501    0  0.00000000000E+00 -0.00000000000E+00 -0.16298347333E+03  0.16298347333E+03  0.00000000000E+00 0. -1.
         25    2    1    2    0    0  0.21504598975E+03 -0.10510386419E+02  0.10068133529E+03  0.26858831763E+03  0.12509079568E+03 0.  0.
          5    1    3    3  502    0  0.87198951634E+02 -0.63438911945E+02  0.24822569431E+02  0.11073294482E+03  0.41800000000E+01 0. -1.
         -5    1    3    3    0  502  0.12784703811E+03  0.52928525526E+02  0.75858765854E+02  0.15785537281E+03  0.41800000000E+01 0. -1.
        -11    1    1    2    0    0 -0.53915884332E+02 -0.24428654058E+01 -0.15873988819E+02  0.56257210166E+02  0.00000000000E+00 0. -1.
         11    1    1    2    0    0 -0.16113010542E+03  0.12953251825E+02  0.10908422124E+03  0.19501298656E+03  0.00000000000E+00 0.  1.
</event>
<event>
 7    1  0.2380582E-009  0.1146137E+03  0.7561462E-02  0.1252257E+00
         -1   -1    0    0    0  501 -0.00000000000E+00  0.00000000000E+00  0.20358069827E+02  0.20358069827E+02  0.00000000000E+00 0.  1.
          1   -1    0    0  501    0  0.00000000000E+00 -0.00000000000E+00 -0.68723694267E+03  0.68723694267E+03  0.00000000000E+00 0. -1.
         25    2    1    2    0    0 -0.15024527600E+02 -0.37715971467E+02 -0.30245417151E+03  0.32980585542E+03  0.12508055595E+03 0.  0.
          5    1    3    3  502    0 -0.59008839501E+02  0.15865240967E+02 -0.12362688568E+03  0.13796676511E+03  0.41800000000E+01 0.  1.
         -5    1    3    3    0  502  0.43984311901E+02 -0.53581212434E+02 -0.17882728582E+03  0.19183909032E+03  0.41800000000E+01 0.  1.
        -11    1    1    2    0    0 -0.34229284638E+02 -0.33658139768E+01 -0.10210288595E+03  0.10774029864E+03  0.00000000000E+00 0.  1.
         11    1    1    2    0    0  0.49253812238E+02  0.41081785444E+02 -0.26232181539E+03  0.27004885844E+03  0.00000000000E+00 0. -1.
</event>
<event>
 7    1  0.2380582E-009  0.1095932E+03  0.7561462E-02  0.1261325E+00
          2   -1    0    0  501    0  0.00000000000E+00  0.00000000000E+00  0.26085557914E+02  0.26085557914E+02  0.00000000000E+00 0. -1.
         -2   -1    0    0    0  501 -0.00000000000E+00 -0.00000000000E+00 -0.74596855106E+03  0.74596855106E+03  0.00000000000E+00 0.  1.
         25    2    1    2    0    0  0.37141466607E+02  0.11717703446E+02 -0.17580716005E+03  0.21925396034E+03  0.12508936200E+03 0.  0.
          5    1    3    3  502    0  0.70294559375E+02 -0.22118218050E+02 -0.14467253128E+03  0.16241352885E+03  0.41800000000E+01 0. -1.
         -5    1    3    3    0  502 -0.33153092768E+02  0.33835921496E+02 -0.31134628773E+02  0.56840431494E+02  0.41800000000E+01 0. -1.
        -11    1    1    2    0    0  0.28443091251E+02 -0.14996544947E+02 -0.18084914233E+03  0.18368537798E+03  0.00000000000E+00 0.  1.
         11    1    1    2    0    0 -0.65584557858E+02  0.32788415007E+01 -0.36322669076E+03  0.36911477065E+03  0.00000000000E+00 0. -1.
</event>
<event>
 7    1  0.2380582E-009  0.3017650E+03  0.7561462E-02  0.1084362E+00
         -4   -1    0    0    0  501 -0.00000000000E+00  0.00000000000E+00  0.60410685349E+02  0.60410685349E+02  0.00000000000E+00 0.  1.
          4   -1    0    0  501    0  0.00000000000E+00 -0.00000000000E+00 -0.18207606590E+04  0.18207606590E+04  0.00000000000E+00 0. -1.
         25    2    1    2    0    0 -0.14716492017E+01  0.28469937520E+03 -0.12643349681E+04  0.13020180557E+04  0.12510877562E+03 0.  0.
          5    1    3    3  502    0  0.52413402996E+02  0.11395833978E+03 -0.39619267808E+03  0.41559569125E+03  0.41800000000E+01 0.  1.
         -5    1    3    3    0  502 -0.53885052198E+02  0.17074103542E+03 -0.86814229005E+03  0.88642236446E+03  0.41800000000E+01 0.  1.
        -11    1    1    2    0    0 -0.35844315409E+02 -0.51359650258E+02 -0.10000751237E+03  0.11800055573E+03  0.00000000000E+00 0.  1.
         11    1    1    2    0    0  0.37315964610E+02 -0.23333972494E+03 -0.39600749318E+03  0.46115273295E+03  0.00000000000E+00 0. -1.
</event>
<event>
 7    1  0.2639128E-009  0.1405586E+03  0.7561462E-02  0.1212579E+00
         -1   -1    0    0    0  501 -0.00000000000E+00  0.00000000000E+00  0.96963410477E+02  0.96963410477E+02  0.00000000000E+00 0.  1.
          1   -1    0    0  501    0  0.00000000000E+00 -0.00000000000E+00 -0.30310551366E+03  0.30310551366E+03  0.00000000000E+00 0. -1.
         25    2    1    2    0    0 -0.12266446528E+03  0.80310054406E+01 -0.52083251689E+02  0.18295291111E+03  0.12509210401E+03 0.  0.
          5    1    3    3  502    0  0.58906018784E+01  0.48902673025E+01 -0.53577473968E+02  0.54282888847E+02  0.41800000000E+01 0.  1.
         -5    1    3    3    0  502 -0.12855506716E+03  0.31407381381E+01  0.14942222794E+01  0.12867002226E+03  0.41800000000E+01 0.  1.
        -11    1    1    2    0    0  0.10745068474E+03 -0.34797741270E+02 -0.84525407549E+02  0.14107117696E+03  0.00000000000E+00 0.  1.
         11    1    1    2    0    0  0.15213780545E+02  0.26766735830E+02 -0.69533443945E+02  0.76044836066E+02  0.00000000000E+00 0. -1.
</event>
<event>
 7    1  0.2617624E-009  0.8896043E+02  0.7561462E-02  0.1305389E+00
         -2   -1    0    0    0  501 -0.00000000000E+00  0.00000000000E+00  0.64228705005E+02  0.64228705005E+02  0.00000000000E+00 0. -1.
          2   -1    0    0  501    0  0.00000000000E+00 -0.00000000000E+00 -0.33648927365E+03  0.33648927365E+03  0.00000000000E+00 0.  1.
         25    2    1    2    0    0 -0.24165043897E+02 -0.11925818943E+01 -0.27888815974E+03  0.30660766074E+03  0.12507709776E+03 0.  0.
          5    1    3    3  502    0  0.16786157956E+02 -0.44643687025E+02 -0.46896690926E+02  0.67019444268E+02  0.41800000000E+01 0.  1.
         -5    1    3    3    0  502 -0.40951201852E+02  0.43451105131E+02 -0.23199146882E+03  0.23958821648E+03  0.41800000000E+01 0.  1.
        -11    1    1    2    0    0 -0.64484068696E+01 -0.27491230045E+02  0.33864364781E+02  0.44092458341E+02  0.00000000000E+00 0. -1.
         11    1    1    2    0    0  0.30613450767E+02  0.28683811939E+02 -0.27236773682E+02  0.50017859568E+02  0.00000000000E+00 0.  1.
</event>
<event>
 7    1  0.2380582E-009  0.1998162E+03  0.7561462E-02  0.1149894E+00
          3   -1    0    0  501    0  0.00000000000E+00  0.00000000000E+00  0.47030409413E+02  0.47030409413E+02  0.00000000000E+00 0. -1.
         -3   -1    0    0    0  501 -0.00000000000E+00 -0.00000000000E+00 -0.12794964219E+04  0.12794964219E+04  0.00000000000E+00 0.  1.
         25    2    1    2    0    0  0.12444622029E+03  0.14276664134E+03 -0.33485758474E+03  0.40453319600E+03  0.12509328114E+03 0.  0.
          5    1    3    3  502    0  0.85221755510E+02  0.11278241927E+03 -0.12448871139E+03  0.18840789095E+03  0.41800000000E+01 0.  1.
         -5    1    3    3    0  502  0.39224464777E+02  0.29984222076E+02 -0.21036887335E+03  0.21612530505E+03  0.41800000000E+01 0.  1.
        -11    1    1    2    0    0 -0.10116041127E+02 -0.75161855444E+02 -0.38929445306E+03  0.39661292211E+03  0.00000000000E+00 0.  1.
         11    1    1    2    0    0 -0.11433017916E+03 -0.67604785898E+02 -0.50831397472E+03  0.52538071324E+03  0.00000000000E+00 0. -1.
</event>
<event>
 7    1  0.2380582E-009  0.1657595E+03  0.7561462E-02  0.1182344E+00
         -4   -1    0    0    0  501 -0.00000000000E+00  0.00000000000E+00  0.15541722021E+03  0.15541722021E+03  0.00000000000E+00 0.  1.
          4   -1    0    0  501    0  0.00000000000E+00 -0.00000000000E+00 -0.18767355302E+03  0.18767355302E+03  0.00000000000E+00 0. -1.
         25    2    1    2    0    0 -0.10554643480E+03 -0.76357876594E+02 -0.81387882445E+01  0.18078844895E+03  0.12509055993E+03 0.  0.
          5    1    3    3  502    0 -0.40908201232E+02 -0.96790072172E+02 -0.30135747704E+02  0.10939577089E+03  0.41800000000E+01 0.  1.
         -5    1    3    3    0  502 -0.64638233569E+02  0.20432195578E+02  0.21996959459E+02  0.71392678059E+02  0.41800000000E+01 0.  1.
        -11    1    1    2    0    0 -0.16008103995E+02  0.24990196568E+01  0.53209549554E+01  0.17053359036E+02  0.00000000000E+00 0.  1.
         11    1    1    2    0    0  0.12155453880E+03  0.73858856937E+02 -0.29438499522E+02  0.14524896524E+03  0.00000000000E+00 0. -1.
</event>
<event>
 7    1  0.2380582E-009  0.1375164E+03  0.7561462E-02  0.1216710E+00
         -2   -1    0    0    0  501 -0.00000000000E+00  0.00000000000E+00  0.62815643428E+02  0.62815643428E+02  0.00000000000E+00 0.  1.
          2   -1    0    0  501    0  0.00000000000E+00 -0.00000000000E+00 -0.40327397871E+03  0.40327397871E+03  0.00000000000E+00 0. -1.
         25    2    1    2    0    0 -0.21491762363E+02 -0.95448090203E+02 -0.90243288004E+02  0.18266094696E+03  0.12509571033E+03 0.  0.
          5    1    3    3  502    0 -0.54948274598E+02  0.37614244902E+00 -0.46317230888E+02  0.71987586719E+02  0.41800000000E+01 0. -1.
         -5    1    3    3    0  502  0.33456512235E+02 -0.95824232652E+02 -0.43926057116E+02  0.11067336025E+03  0.41800000000E+01 0. -1.
        -11    1    1    2    0    0 -0.24192744399E+02  0.35817733158E+02 -0.35435482797E+02  0.55891612351E+02  0.00000000000E+00 0.  1.
         11    1    1    2    0    0  0.45684506762E+02  0.59630357045E+02 -0.21477956448E+03  0.22753706283E+03  0.00000000000E+00 0. -1.
</event>
<event>
 7    1  0.2380582E-009  0.1066977E+03  0.7561462E-02  0.1266810E+00
         -2   -1    0    0    0  501 -0.00000000000E+00  0.00000000000E+00  0.51121215099E+02  0.51121215099E+02  0.00000000000E+00 0. -1.
          2   -1    0    0  501    0  0.00000000000E+00 -0.00000000000E+00 -0.22788273537E+03  0.22788273537E+03  0.00000000000E+00 0.  1.
         25    2    1    2    0    0  0.33907841785E+01  0.46367597703E+01 -0.92427743575E+02  0.15564016072E+03  0.12509186580E+03 0.  0.
          5    1    3    3  502    0  0.18686609827E+02  0.62141733139E+02 -0.40925950319E+02  0.76832221066E+02  0.41800000000E+01 0.  1.
         -5    1    3    3    0  502 -0.15295825648E+02 -0.57504973369E+02 -0.51501793256E+02  0.78807939657E+02  0.41800000000E+01 0.  1.
        -11    1    1    2    0    0 -0.19039417737E+02 -0.43141580391E+02 -0.34258820324E+02  0.58286895237E+02  0.00000000000E+00 0. -1.
         11    1    1    2    0    0  0.15648633558E+02  0.38504820620E+02 -0.50074956373E+02  0.65076894510E+02  0.00000000000E+00 0.  1.
</event>
<event>
 7    1  0.2380582E-009  0.6541481E+03  0.7561462E-02  0.9799027E-01
          2   -1    0    0  501    0  0.00000000000E+00  0.00000000000E+00  0.44277178749E+03  0.44277178749E+03  0.00000000000E+00 0. -1.
         -2   -1    0    0    0  501 -0.00000000000E+00 -0.00000000000E+00 -0.13842854027E+04  0.13842854027E+04  0.00000000000E+00 0.  1.
         25    2    1    2    0    0  0.55400557533E+03  0.34736206984E+03  0.13572623238E+02  0.66589388603E+03  0.12509143173E+03 0.  0.
          5    1    3    3  502    0  0.39545183325E+03  0.23711636473E+03  0.65836938976E+02  0.46578782485E+03  0.41800000000E+01 0. -1.
         -5    1    3    3    0  502  0.15855374208E+03  0.11024570510E+03 -0.52264315738E+02  0.20010606118E+03  0.41800000000E+01 0. -1.
        -11    1    1    2    0    0 -0.51571761969E+03 -0.32712828549E+03 -0.84277011807E+03  0.10407877067E+04  0.00000000000E+00 0.  1.
         11    1    1    2    0    0 -0.38287955647E+02 -0.20233784342E+02 -0.11231612036E+03  0.12037559748E+03  0.00000000000E+00 0. -1.
</event>
<event>
 7    1  0.2380582E-009  0.1137773E+03  0.7561462E-02  0.1253731E+00
         -1   -1    0    0    0  501 -0.00000000000E+00  0.00000000000E+00  0.41670855401E+02  0.41670855401E+02  0.00000000000E+00 0.  1.
          1   -1    0    0  501    0  0.00000000000E+00 -0.00000000000E+00 -0.45916629236E+03  0.45916629236E+03  0.00000000000E+00 0. -1.
         25    2    1    2    0    0  0.85375412765E+02 -0.26345759033E+01 -0.24750656878E+03  0.29017824997E+03  0.12509201842E+03 0.  0.
          5    1    3    3  502    0  0.60111182380E+02  0.51955744526E+02 -0.19354498093E+03  0.20926032992E+03  0.41800000000E+01 0. -1.
         -5    1    3    3    0  502  0.25264230385E+02 -0.54590320429E+02 -0.53961587850E+02  0.80917920048E+02  0.41800000000E+01 0. -1.
        -11    1    1    2    0    0 -0.53074250900E+02 -0.80287933463E+01 -0.20679393288E+02  0.57523690233E+02  0.00000000000E+00 0.  1.
         11    1    1    2    0    0 -0.32301161865E+02  0.10663369250E+02 -0.14930947490E+03  0.15313520756E+03  0.00000000000E+00 0. -1.
</event>
<event>
 7    1  0.2634892E-009  0.1631143E+03  0.7561462E-02  0.1185225E+00
          2   -1    0    0  501    0  0.00000000000E+00  0.00000000000E+00  0.17125907320E+04  0.17125907320E+04  0.00000000000E+00 0. -1.
         -2   -1    0    0    0  501 -0.00000000000E+00 -0.00000000000E+00 -0.19401305406E+02  0.19401305406E+02  0.00000000000E+00 0.  1.
         25    2    1    2    0    0  0.57254041185E+02 -0.13009307708E+03  0.10381932592E+04  0.10553176075E+04  0.12509106801E+03 0.  0.
          5    1    3    3  502    0  0.70521832706E+02 -0.12631281706E+03  0.10267844896E+04  0.10369339985E+04  0.41800000000E+01 0.  1.
         -5    1    3    3    0  502 -0.13267791522E+02 -0.37802600250E+01  0.11408769588E+02  0.18383609037E+02  0.41800000000E+01 0.  1.
        -11    1    1    2    0    0 -0.75017757730E+02  0.63874812208E+02  0.32388093907E+03  0.33853584493E+03  0.00000000000E+00 0.  1.
         11    1    1    2    0    0  0.17763716546E+02  0.66218264872E+02  0.33111522832E+03  0.33813858498E+03  0.00000000000E+00 0. -1.
</event>
<event>
 7    1  0.2380582E-009  0.1204210E+03  0.7561462E-02  0.1242404E+00
          2   -1    0    0  501    0  0.00000000000E+00  0.00000000000E+00  0.79836673073E+03  0.79836673073E+03  0.00000000000E+00 0. -1.
         -2   -1    0    0    0  501 -0.00000000000E+00 -0.00000000000E+00 -0.23726606931E+02  0.23726606931E+02  0.00000000000E+00 0.  1.
         25    2    1    2    0    0 -0.49948502244E+02 -0.62666861409E+02  0.50581913433E+03  0.52718465373E+03  0.12509466049E+03 0.  0.
          5    1    3    3  502    0 -0.21442921138E+02 -0.86200974057E+02  0.19709727851E+03  0.21622954560E+03  0.41800000000E+01 0. -1.
         -5    1    3    3    0  502 -0.28505581107E+02  0.23534112648E+02  0.30872185582E+03  0.31095510813E+03  0.41800000000E+01 0. -1.
        -11    1    1    2    0    0 -0.15498081641E+02  0.44013113701E+02  0.15905546247E+03  0.16575881531E+03  0.00000000000E+00 0. -1.
         11    1    1    2    0    0  0.65446583885E+02  0.18653747708E+02  0.10976552700E+03  0.12914986862E+03  0.00000000000E+00 0.  1.
</event>
<event>
 7    1  0.2380582E-009  0.1148796E+03  0.7561462E-02  0.1251791E+00
         -1   -1    0    0    0  501 -0.00000000000E+00  0.00000000000E+00  0.62798185624E+03  0.62798185624E+03  0.00000000000E+00 0.  1.
          1   -1    0    0  501    0  0.00000000000E+00 -0.00000000000E+00 -0.35570321249E+02  0.35570321249E+02  0.00000000000E+00 0. -1.
         25    2    1    2    0    0  0.59850143524E+02 -0.16444484052E+02  0.51245132936E+03  0.53113692403E+03  0.12509039280E+03 0.  0.
          5    1    3    3  502    0  0.92507934879E+02 -0.19443909727E+02  0.26298542740E+03  0.27948987650E+03  0.41800000000E+01 0.  1.
         -5    1    3    3    0  502 -0.32657791355E+02  0.29994256753E+01  0.24946590196E+03  0.25164704753E+03  0.41800000000E+01 0.  1.
        -11    1    1    2    0    0 -0.21197809289E+02 -0.33058687902E+02  0.47771729465E+02  0.61841427057E+02  0.00000000000E+00 0.  1.
         11    1    1    2    0    0 -0.38652334234E+02  0.49503171954E+02  0.32188476169E+02  0.70573826404E+02  0.00000000000E+00 0. -1.
</event>
<event>
 7    1  0.2380582E-009  0.8401401E+02  0.7561462E-02  0.1318031E+00
          2   -1    0    0  501    0  0.00000000000E+00  0.00000000000E+00  0.11397592337E+04  0.11397592337E+04  0.00000000000E+00 0. -1.
         -2   -1    0    0    0  501 -0.00000000000E+00 -0.00000000000E+00 -0.12550002830E+02  0.12550002830E+02  0.00000000000E+00 0.  1.
         25    2    1    2    0    0  0.33256152274E+02  0.27431271200E+02  0.68700242635E+03  0.69962681829E+03  0.12508758834E+03 0.  0.
          5    1    3    3  502    0  0.19853450882E+02 -0.10539500724E+02  0.17220835010E+02  0.28622895483E+02  0.41800000000E+01 0. -1.
         -5    1    3    3    0  502  0.13402701392E+02  0.37970771924E+02  0.66978159134E+03  0.67100392281E+03  0.41800000000E+01 0. -1.
        -11    1    1    2    0    0  0.15634131664E+02 -0.48861016513E+02  0.18695409561E+03  0.19386505325E+03  0.00000000000E+00 0.  1.
         11    1    1    2    0    0 -0.48890283938E+02  0.21429745313E+02  0.25325270890E+03  0.25881736498E+03  0.00000000000E+00 0. -1.
</event>
<event>
 7    1  0.2380582E-009  0.2301511E+03  0.7561462E-02  0.1126533E+00
         -2   -1    0    0    0  501 -0.00000000000E+00  0.00000000000E+00  0.40296252899E+03  0.40296252899E+03  0.00000000000E+00 0.  1.
          2   -1    0    0  501    0  0.00000000000E+00 -0.00000000000E+00 -0.20162123970E+03  0.20162123970E+03  0.00000000000E+00 0. -1.
         25    2    1    2    0    0 -0.10084729595E+03 -0.20201797018E+03 -0.47373975759E+02  0.26243409438E+03  0.12508366375E+03 0.  0.
          5    1    3    3  502    0 -0.32513280741E+02 -0.12442679025E+03 -0.82857818385E+02  0.15304257585E+03  0.41800000000E+01 0.  1.
         -5    1    3    3    0  502 -0.68334015212E+02 -0.77591179930E+02  0.35483842626E+02  0.10939151853E+03  0.41800000000E+01 0.  1.
        -11    1    1    2    0    0  0.40061811679E+02  0.11678438043E+03  0.93252404246E+02  0.15472411307E+03  0.00000000000E+00 0. -1.
         11    1    1    2    0    0  0.60785484274E+02  0.85233589753E+02  0.15546286080E+03  0.18742556125E+03  0.00000000000E+00 0.  1.
</event>
<event>
 7    1  0.2380582E-009  0.8259519E+02  0.7561462E-02  0.1321844E+00
          3   -1    0    0  501    0  0.00000000000E+00  0.00000000000E+00  0.74974821093E+03  0.74974821093E+03  0.00000000000E+00 0. -1.
         -3   -1    0    0    0  501 -0.00000000000E+00 -0.00000000000E+00 -0.30805639869E+02  0.30805639869E+02  0.00000000000E+00 0.  1.
         25    2    1    2    0    0  0.85427601688E+01  0.24900886602E+02  0.64913607686E+03  0.66160225167E+03  0.12508741034E+03 0.  0.
          5    1    3    3  502    0 -0.18621208055E+01 -0.21135486137E+02  0.56200643660E+03  0.56242233548E+03  0.41800000000E+01 0. -1.
         -5    1    3    3    0  502  0.10404880974E+02  0.46036372738E+02  0.87129640258E+02  0.99179916185E+02  0.41800000000E+01 0. -1.
        -11    1    1    2    0    0 -0.50318713072E+02 -0.72792883851E+01  0.33788186280E+02  0.61045904504E+02  0.00000000000E+00 0. -1.
         11    1    1    2    0    0  0.41775952903E+02 -0.17621598217E+02  0.36018307923E+02  0.57905694628E+02  0.00000000000E+00 0.  1.
</event>
<event>
 7    1  0.2380582E-009  0.2666481E+03  0.7561462E-02  0.1103213E+00
         -2   -1    0    0    0  501 -0.00000000000E+00  0.00000000000E+00  0.37694906546E+02  0.37694906546E+02  0.00000000000E+00 0.  1.
          2   -1    0    0  501    0  0.00000000000E+00 -0.00000000000E+00 -0.20319856469E+04  0.20319856469E+04  0.00000000000E+00 0. -1.
         25    2    1    2    0    0 -0.19389655565E+03 -0.15103757409E+03 -0.12489451299E+04  0.12790305311E+04  0.12508772477E+03 0.  0.
          5    1    3    3  502    0  0.16624221732E+02 -0.13098901240E+02 -0.60823365030E+02  0.64536037184E+02  0.41800000000E+01 0. -1.
         -5    1    3    3    0  502 -0.21052077738E+03 -0.13793867285E+03 -0.11881217649E+04  0.12144944939E+04  0.41800000000E+01 0. -1.
        -11    1    1    2    0    0  0.12910249098E+03  0.46910664459E+02 -0.32647958120E+03  0.35419906911E+03  0.00000000000E+00 0.  1.
         11    1    1    2    0    0  0.64794064673E+02  0.10412690963E+03 -0.41886602931E+03  0.43645095330E+03  0.00000000000E+00 0. -1.
</event>
<event>
 7    1  0.2380582E-009  0.1153610E+03  0.7561462E-02  0.1250952E+00
         -1   -1    0    0    0  501 -0.00000000000E+00  0.00000000000E+00  0.65289394000E+02  0.65289394000E+02  0.00000000000E+00 0.  1.
          1   -1    0    0  501    0  0.00000000000E+00 -0.00000000000E+00 -0.32373431196E+03  0.32373431196E+03  0.00000000000E+00 0. -1.
         25    2    1    2    0    0 -0.93069068678E+02  0.19242269337E+02 -0.15911371702E+03  0.22359778766E+03  0.12508668686E+03 0.  0.
          5    1    3    3  502    0 -0.86761976095E+01  0.22543289756E+02 -0.13279092389E+03  0.13503472955E+03  0.41800000000E+01 0. -1.
         -5    1    3    3    0  502 -0.84392871068E+02 -0.33010204192E+01 -0.26322793127E+02  0.88563058105E+02  0.41800000000E+01 0. -1.
        -11    1    1    2    0    0  0.10621303088E+03 -0.12714437673E+02 -0.10481101423E+03  0.14976052069E+03  0.00000000000E+00 0. -1.
         11    1    1    2    0    0 -0.13143962205E+02 -0.65278316639E+01  0.54798132836E+01  0.15665397611E+02  0.00000000000E+00 0.  1.
</event>
<event>
 7    1  0.2380582E-009  0.9899859E+02  0.7561462E-02  0.1282416E+00
         -3   -1    0    0    0  501 -0.00000000000E+00  0.00000000000E+00  0.27237849826E+02  0.27237849826E+02  0.00000000000E+00 0.  1.
          3   -1    0    0  501    0  0.00000000000E+00 -0.00000000000E+00 -0.61389851237E+03  0.61389851237E+03  0.00000000000E+00 0. -1.
         25    2    1    2    0    0  0.75481966919E+02  0.31103098403E+02 -0.40164136568E+03  0.42851855920E+03  0.12508972337E+03 0.  0.
          5    1    3    3  502    0  0.56364076620E+02  0.57869059964E+02 -0.11870313799E+03  0.14364415966E+03  0.41800000000E+01 0. -1.
         -5    1    3    3    0  502  0.19117890299E+02 -0.26765961561E+02 -0.28293822769E+03  0.28487439955E+03  0.41800000000E+01 0. -1.
        -11    1    1    2    0    0 -0.56741835091E+02 -0.13692777546E+02 -0.55320633106E+02  0.80420771283E+02  0.00000000000E+00 0.  1.
         11    1    1    2    0    0 -0.18740131828E+02 -0.17410320858E+02 -0.12969866375E+03  0.13219703171E+03  0.00000000000E+00 0. -1.
</event>
<event>
 7    1  0.2380582E-009  0.1283978E+03  0.7561462E-02  0.1229853E+00
         -1   -1    0    0    0  501 -0.00000000000E+00  0.00000000000E+00  0.36830188242E+02  0.36830188242E+02  0.00000000000E+00 0.  1.
          1   -1    0    0  501    0  0.00000000000E+00 -0.00000000000E+00 -0.61343576632E+03  0.61343576632E+03  0.00000000000E+00 0. -1.
         25    2    1    2    0    0  0.83643400313E+02  0.36776929684E+02 -0.20402146433E+03  0.25616965484E+03  0.12509745474E+03 0.  0.
          5    1    3    3  502    0  0.57887492749E+02 -0.28846126122E+02 -0.16080678242E+03  0.17337633772E+03  0.41800000000E+01 0.  1.
         -5    1    3    3    0  502  0.25755907564E+02  0.65623055805E+02 -0.43214681914E+02  0.82793317125E+02  0.41800000000E+01 0.  1.
        -11    1    1    2    0    0 -0.96069634079E+02 -0.16345410036E+02 -0.23426950208E+03  0.25372967234E+03  0.00000000000E+00 0.  1.
         11    1    1    2    0    0  0.12426233766E+02 -0.20431519648E+02 -0.13831461167E+03  0.14036662738E+03  0.00000000000E+00 0. -1.
</event>
<event>
 7    1  0.2380582E-009  0.1556624E+03  0.7561462E-02  0.1193683E+00
          2   -1    0    0  501    0  0.00000000000E+00  0.00000000000E+00  0.23263955249E+03  0.23263955249E+03  0.00000000000E+00 0. -1.
         -2   -1    0    0    0  501 -0.00000000000E+00 -0.00000000000E+00 -0.11425202737E+03  0.11425202737E+03  0.00000000000E+00 0.  1.
         25    2    1    2    0    0  0.10045672124E+03  0.55682953495E+02  0.10583113694E+03  0.20009074195E+03  0.12507570234E+03 0.  0.
          5    1    3    3  502    0  0.22323753204E+02  0.81433065467E+02  0.71982361322E+02  0.11103434986E+03  0.41800000000E+01 0. -1.
         -5    1    3    3    0  502  0.78132968040E+02 -0.25750111972E+02  0.33848775619E+02  0.89056392090E+02  0.41800000000E+01 0. -1.
        -11    1    1    2    0    0 -0.95519285751E+02 -0.76899508538E+02  0.21183537764E+01  0.12264565132E+03  0.00000000000E+00 0. -1.
         11    1    1    2    0    0 -0.49374354925E+01  0.21216555044E+02  0.10438034398E+02  0.24155186591E+02  0.00000000000E+00 0.  1.
</event>
<event>
 7    1  0.2380582E-009  0.1001468E+03  0.7561462E-02  0.1279988E+00
         -1   -1    0    0    0  501 -0.00000000000E+00  0.00000000000E+00  0.41954728595E+03  0.41954728595E+03  0.00000000000E+00 0.  1.
          1   -1    0    0  501    0  0.00000000000E+00 -0.00000000000E+00 -0.35332744116E+02  0.35332744116E+02  0.00000000000E+00 0. -1.
         25    2    1    2    0    0  0.25681893796E+02  0.45911893852E+01  0.14450497911E+03  0.19289393894E+03  0.12508294849E+03 0.  0.
          5    1    3    3  502    0 -0.22877177228E+02  0.33037006717E+02  0.29549105184E+01  0.40509418003E+02  0.41800000000E+01 0.  1.
         -5    1    3    3    0  502  0.48559071024E+02 -0.28445817332E+02  0.14155006859E+03  0.15238452093E+03  0.41800000000E+01 0.  1.
        -11    1    1    2    0    0  0.35772430783E+02 -0.18759962845E+02  0.12099543384E+03  0.12755978214E+03  0.00000000000E+00 0.  1.
         11    1    1    2    0    0 -0.61454324579E+02  0.14168773460E+02  0.11871412889E+03  0.13442630899E+03  0.00000000000E+00 0. -1.
</event>
<event>
 7    1  0.2380582E-009  0.4692186E+02  0.7561462E-02  0.1462688E+00
          1   -1    0    0  501    0  0.00000000000E+00  0.00000000000E+00  0.13847475333E+03  0.13847475333E+03  0.00000000000E+00 0.  1.
         -1   -1    0    0    0  501 -0.00000000000E+00 -0.00000000000E+00 -0.85338125936E+02  0.85338125936E+02  0.00000000000E+00 0. -1.
         25    2    1    2    0    0  0.34709568425E+01 -0.11176185978E+02  0.40708857881E+02  0.13206593542E+03  0.12508895041E+03 0.  0.
          5    1    3    3  502    0  0.85870943883E+00 -0.13064123128E+02  0.85685476007E+02  0.86780653913E+02  0.41800000000E+01 0.  1.
         -5    1    3    3    0  502  0.26122474036E+01  0.18879371505E+01 -0.44976618127E+02  0.45285281508E+02  0.41800000000E+01 0.  1.
        -11    1    1    2    0    0 -0.17426215215E+02 -0.28142089015E+02 -0.20204322186E+02  0.38779695536E+02  0.00000000000E+00 0. -1.
         11    1    1    2    0    0  0.13955258373E+02  0.39318274993E+02  0.32632091698E+02  0.52967248307E+02  0.00000000000E+00 0.  1.
</event>
<event>
 7    1  0.2380582E-009  0.1260408E+03  0.7561462E-02  0.1233452E+00
          1   -1    0    0  501    0  0.00000000000E+00  0.00000000000E+00  0.70279630145E+03  0.70279630145E+03  0.00000000000E+00 0. -1.
         -1   -1    0    0    0  501 -0.00000000000E+00 -0.00000000000E+00 -0.26679216745E+02  0.26679216745E+02  0.00000000000E+00 0.  1.
         25    2    1    2    0    0  0.74426717395E+02  0.26636406201E+02  0.30335968508E+03  0.33752484042E+03  0.12508830869E+03 0.  0.
          5    1    3    3  502    0 -0.24474413852E+02  0.38762006020E+02  0.12454461142E+03  0.13277922533E+03  0.41800000000E+01 0.  1.
         -5    1    3    3    0  502  0.98901131247E+02 -0.12125599819E+02  0.17881507366E+03  0.20474561510E+03  0.41800000000E+01 0.  1.
        -11    1    1    2    0    0 -0.14972641294E+02 -0.42271293506E+02  0.70862931071E+02  0.83860582170E+02  0.00000000000E+00 0.  1.
         11    1    1    2    0    0 -0.59454076100E+02  0.15634887305E+02  0.30189446855E+03  0.30809009560E+03  0.00000000000E+00 0. -1.
</event>
<event>
 7    1  0.2380582E-009  0.1157926E+03  0.7561462E-02  0.1250204E+00
         -1   -1    0    0    0  501 -0.00000000000E+00  0.00000000000E+00  0.23783879614E+02  0.23783879614E+02  0.00000000000E+00 0.  1.
          1   -1    0    0  501    0  0.00000000000E+00 -0.00000000000E+00 -0.62961032898E+03  0.62961032898E+03  0.00000000000E+00 0. -1.
         25    2    1    2    0    0  0.17642742641E+02 -0.54842382711E+02 -0.35075659062E+03  0.37682707688E+03  0.12509798839E+03 0.  0.
          5    1    3    3  502    0 -0.19734917460E+02 -0.78019172483E+02 -0.14041346482E+03  0.16189463162E+03  0.41800000000E+01 0. -1.
         -5    1    3    3    0  502  0.37377660101E+02  0.23176789772E+02 -0.21034312579E+03  0.21493244526E+03  0.41800000000E+01 0. -1.
        -11    1    1    2    0    0  0.10790929703E+02  0.72534827737E+02 -0.18010015101E+03  0.19445773267E+03  0.00000000000E+00 0.  1.
         11    1    1    2    0    0 -0.28433672344E+02 -0.17692445026E+02 -0.74969707737E+02  0.82109399048E+02  0.00000000000E+00 0. -1.
</event>
<event>
 7    1  0.2380582E-009  0.1027418E+03  0.7561462E-02  0.1274634E+00
         -1   -1    0    0    0  501 -0.00000000000E+00  0.00000000000E+00  0.14422707047E+02  0.14422707047E+02  0.00000000000E+00 0.  1.
          1   -1    0    0  501    0  0.00000000000E+00 -0.00000000000E+00 -0.91730557464E+03  0.91730557464E+03  0.00000000000E+00 0. -1.
         25    2    1    2    0    0  0.54993030286E+01  0.15244906048E+02 -0.66013410493E+03  0.67207722477E+03  0.12509240609E+03 0.  0.
          5    1    3    3  502    0  0.56926599771E+02  0.22256036750E+02 -0.20457284105E+03  0.21354973339E+03  0.41800000000E+01 0.  1.
         -5    1    3    3    0  502 -0.51427296742E+02 -0.70111307022E+01 -0.45556126388E+03  0.45852749138E+03  0.41800000000E+01 0.  1.
        -11    1    1    2    0    0  0.25238898634E+02  0.28890810670E+02 -0.99989305297E+02  0.10709594819E+03  0.00000000000E+00 0.  1.
         11    1    1    2    0    0 -0.30738201663E+02 -0.44135716718E+02 -0.14275945736E+03  0.15255510872E+03  0.00000000000E+00 0. -1.
</event>
<event>
 7    1  0.2380582E-009  0.1842845E+03  0.7561462E-02  0.1163720E+00
         -2   -1    0    0    0  501 -0.00000000000E+00  0.00000000000E+00  0.11841289470E+03  0.11841289470E+03  0.00000000000E+00 0. -1.
          2   -1    0    0  501    0  0.00000000000E+00 -0.00000000000E+00 -0.37325686407E+03  0.37325686407E+03  0.00000000000E+00 0.  1.
         25    2    1    2    0    0 -0.14776104874E+03 -0.65105879292E+02 -0.22481530431E+03  0.30374621540E+03  0.12509092402E+03 0.  0.
          5    1    3    3  502    0  0.10428849148E+02 -0.33334695316E+02 -0.77973270868E+02  0.85541020430E+02  0.41800000000E+01 0.  1.
         -5    1    3    3    0  502 -0.15818989789E+03 -0.31771183976E+02 -0.14684203345E+03  0.21820519497E+03  0.41800000000E+01 0.  1.
        -11    1    1    2    0    0  0.43502397507E+02 -0.85528097687E+01  0.22699782464E+02  0.49808526054E+02  0.00000000000E+00 0. -1.
         11    1    1    2    0    0  0.10425865123E+03  0.73658689061E+02 -0.52728447513E+02  0.13811501732E+03  0.00000000000E+00 0.  1.
</event>
<event>
 7    1  0.2845417E-009  0.1147727E+03  0.7561462E-02  0.1251978E+00
          1   -1    0    0  501    0  0.00000000000E+00  0.00000000000E+00  0.15686796823E+04  0.15686796823E+04  0.00000000000E+00 0. -1.
         -1   -1    0    0    0  501 -0.00000000000E+00 -0.00000000000E+00 -0.10667783459E+02  0.10667783459E+02  0.00000000000E+00 0.  1.
         25    2    1    2    0    0  0.33626870787E+02  0.27690014798E+02  0.12065063752E+04  0.12137555416E+04  0.12508947973E+03 0.  0.
          5    1    3    3  502    0 -0.51436188134E+01  0.71256600757E+02  0.54680666105E+03  0.55146981507E+03  0.41800000000E+01 0.  1.
         -5    1    3    3    0  502  0.38770489601E+02 -0.43566585959E+02  0.65969971419E+03  0.66228572654E+03  0.41800000000E+01 0.  1.
        -11    1    1    2    0    0 -0.48895715978E+02 -0.51635393131E+02  0.27291428400E+03  0.28202696906E+03  0.00000000000E+00 0.  1.
         11    1    1    2    0    0  0.15268845190E+02  0.23945378333E+02  0.78591239566E+02  0.83564955056E+02  0.00000000000E+00 0. -1.
</event>
<event>
 7    1  0.2380582E-009  0.1104998E+03  0.7561462E-02  0.1259647E+00
         -2   -1    0    0    0  501 -0.00000000000E+00  0.00000000000E+00  0.37584866675E+03  0.37584866675E+03  0.00000000000E+00 0.  1.
          2   -1    0    0  501    0  0.00000000000E+00 -0.00000000000E+00 -0.52975171370E+02  0.52975171370E+02  0.00000000000E+00 0. -1.
         25    2    1    2    0    0 -0.45022472441E+02 -0.55890043126E+02  0.13658831989E+03  0.19863053535E+03  0.12508797103E+03 0.  0.
          5    1    3    3  502    0 -0.43632674256E+02 -0.63798020865E+02  0.17705703632E+02  0.79403791283E+02  0.41800000000E+01 0.  1.
         -5    1    3    3    0  502 -0.13897981849E+01  0.79079777388E+01  0.11888261626E+03  0.11922674406E+03  0.41800000000E+01 0.  1.
        -11    1    1    2    0    0 -0.13048063186E+02  0.72879352275E+02  0.90898640422E+02  0.11723572310E+03  0.00000000000E+00 0. -1.
         11    1    1    2    0    0  0.58070535626E+02 -0.16989309149E+02  0.95386535068E+02  0.11295757967E+03  0.00000000000E+00 0.  1.
</event>
<event>
 7    1  0.2380582E-009  0.1141173E+03  0.7561462E-02  0.1253130E+00
         -3   -1    0    0    0  501 -0.00000000000E+00  0.00000000000E+00  0.10631733205E+03  0.10631733205E+03  0.00000000000E+00 0.  1.
          3   -1    0    0  501    0  0.00000000000E+00 -0.00000000000E+00 -0.12748614860E+03  0.12748614860E+03  0.00000000000E+00 0. -1.
         25    2    1    2    0    0  0.27388866541E+02  0.32838708260E+02 -0.84574132813E+01  0.13246729345E+03  0.12509006845E+03 0.  0.
          5    1    3    3  502    0 -0.49761264775E+02  0.10865118517E+02 -0.10238532070E+02  0.52120381919E+02  0.41800000000E+01 0.  1.
         -5    1    3    3    0  502  0.77150131316E+02  0.21973589743E+02  0.17811187884E+01  0.80346911530E+02  0.41800000000E+01 0.  1.
        -11    1    1    2    0    0 -0.57043082751E+02 -0.35241394437E+02 -0.21328965042E+02  0.70361878325E+02  0.00000000000E+00 0. -1.
         11    1    1    2    0    0  0.29654216210E+02  0.24026861771E+01  0.86175617714E+01  0.30974308883E+02  0.00000000000E+00 0.  1.
</event>
<event>
 7    1  0.2380582E-009  0.1399577E+03  0.7561462E-02  0.1213386E+00
         -2   -1    0    0    0  501 -0.00000000000E+00  0.00000000000E+00  0.27842138512E+02  0.27842138512E+02  0.00000000000E+00 0.  1.
          2   -1    0    0  501    0  0.00000000000E+00 -0.00000000000E+00 -0.90852611076E+03  0.90852611076E+03  0.00000000000E+00 0. -1.
         25    2    1    2    0    0  0.98111433382E+02  0.55980443053E+02 -0.53937282917E+03  0.56509229778E+03  0.12508634136E+03 0.  0.
          5    1    3    3  502    0 -0.18745392985E+01 -0.31348525472E+02 -0.62539318197E+02  0.70106224171E+02  0.41800000000E+01 0. -1.
         -5    1    3    3    0  502  0.99985972680E+02  0.87328968525E+02 -0.47683351097E+03  0.49498607361E+03  0.41800000000E+01 0. -1.
        -11    1    1    2    0    0 -0.71346577021E+02 -0.27861198553E+02 -0.31548441301E+03  0.32464903402E+03  0.00000000000E+00 0. -1.
         11    1    1    2    0    0 -0.26764856361E+02 -0.28119244501E+02 -0.25826730067E+02  0.46626917475E+02  0.00000000000E+00 0.  1.
</event>
<event>
 7    1  0.2380582E-009  0.1071658E+03  0.7561462E-02  0.1265910E+00
         -4   -1    0    0    0  501 -0.00000000000E+00  0.00000000000E+00  0.62244737218E+03  0.62244737218E+03  0.00000000000E+00 0.  1.
          4   -1    0    0  501    0  0.00000000000E+00 -0.00000000000E+00 -0.32378179001E+02  0.32378179001E+02  0.00000000000E+00 0. -1.
         25    2    1    2    0    0 -0.41949497515E+02 -0.37017747749E+01  0.51134410538E+03  0.52810463707E+03  0.12509296583E+03 0.  0.
          5    1    3    3  502    0  0.36025074905E+02 -0.12994298398E+02  0.70851062098E+02  0.80647400536E+02  0.41800000000E+01 0.  1.
         -5    1    3    3    0  502 -0.77974572421E+02  0.92925236233E+01  0.44049304329E+03  0.44745723653E+03  0.41800000000E+01 0.  1.
        -11    1    1    2    0    0  0.67822421886E+02 -0.88774424390E+01  0.42765917683E+02  0.80669781269E+02  0.00000000000E+00 0.  1.
         11    1    1    2    0    0 -0.25872924371E+02  0.12579217214E+02  0.35959170113E+02  0.46051132846E+02  0.00000000000E+00 0. -1.
</event>
<event>
 7    1  0.2380582E-009  0.1427412E+03  0.7561462E-02  0.1209687E+00
         -2   -1    0    0    0  501 -0.00000000000E+00  0.00000000000E+00  0.75706566509E+02  0.75706566509E+02  0.00000000000E+00 0.  1.
          2   -1    0    0  501    0  0.00000000000E+00 -0.00000000000E+00 -0.29794823815E+03  0.29794823815E+03  0.00000000000E+00 0. -1.
         25    2    1    2    0    0 -0.48767233541E+02 -0.91441827993E+02 -0.15705761574E+03  0.22595223377E+03  0.12508983297E+03 0.  0.
          5    1    3    3  502    0 -0.55250525603E+01  0.26638564377E+02 -0.63351950733E+02  0.69073014843E+02  0.41800000000E+01 0.  1.
         -5    1    3    3    0  502 -0.43242180981E+02 -0.11808039237E+03 -0.93705665002E+02  0.15687921893E+03  0.41800000000E+01 0.  1.
        -11    1    1    2    0    0  0.67127623855E+02  0.41478007052E+02 -0.44525311733E+02  0.90603787660E+02  0.00000000000E+00 0.  1.
         11    1    1    2    0    0 -0.18360390314E+02  0.49963820940E+02 -0.20658744177E+02  0.57098783230E+02  0.00000000000E+00 0. -1.
</event>
<event>
 7    1  0.2380582E-009  0.1807338E+03  0.7561462E-02  0.1167095E+00
         -4   -1    0    0    0  501 -0.00000000000E+00  0.00000000000E+00  0.37884620410E+02  0.37884620410E+02  0.00000000000E+00 0. -1.
          4   -1    0    0  501    0  0.00000000000E+00 -0.00000000000E+00 -0.12114059562E+04  0.12114059562E+04  0.00000000000E+00 0.  1.
         25    2    1    2    0    0 -0.17068085721E+03  0.53955352598E+01 -0.79911494448E+03  0.82667576928E+03  0.12508823368E+03 0.  0.
          5    1    3    3  502    0 -0.10284941495E+03 -0.26261665871E+01 -0.69164844501E+03  0.69927100812E+03  0.41800000000E+01 0. -1.
         -5    1    3    3    0  502 -0.67831442254E+02  0.80217018470E+01 -0.10746649947E+03  0.12740476117E+03  0.41800000000E+01 0. -1.
        -11    1    1    2    0    0  0.79768632197E+02 -0.44228173994E+02 -0.12849064684E+03  0.15757224497E+03  0.00000000000E+00 0. -1.
         11    1    1    2    0    0  0.90912225011E+02  0.38832638735E+02 -0.24591574444E+03  0.26504256234E+03  0.00000000000E+00 0.  1.
</event>
<event>
 7    1  0.2380582E-009  0.1685917E+03  0.7561462E-02  0.1179324E+00
         -1   -1    0    0    0  501 -0.00000000000E+00  0.00000000000E+00  0.47670653084E+03  0.47670653084E+03  0.00000000000E+00 0.  1.
          1   -1    0    0  501    0  0.00000000000E+00 -0.00000000000E+00 -0.68684738809E+02  0.68684738809E+02  0.00000000000E+00 0. -1.
         25    2    1    2    0    0 -0.12820821979E+03  0.14946235972E+02  0.31140942779E+03  0.35956572317E+03  0.12510371686E+03 0.  0.
          5    1    3    3  502    0 -0.43266409744E+02  0.66189256891E+02  0.11714455032E+03  0.14139772986E+03  0.41800000000E+01 0.  1.
         -5    1    3    3    0  502 -0.84941810043E+02 -0.51243020919E+02  0.19426487747E+03  0.21816799331E+03  0.41800000000E+01 0.  1.
        -11    1    1    2    0    0  0.78877224908E+02  0.36952745487E+02  0.51264357007E+02  0.10107005643E+03  0.00000000000E+00 0.  1.
         11    1    1    2    0    0  0.49330994880E+02 -0.51898981459E+02  0.45348007227E+02  0.84755490039E+02  0.00000000000E+00 0. -1.
</event>
<event>
 7    1  0.2380582E-009  0.1088857E+03  0.7561462E-02  0.1262647E+00
         -1   -1    0    0    0  501 -0.00000000000E+00  0.00000000000E+00  0.56346008337E+02  0.56346008337E+02  0.00000000000E+00 0.  1.
          1   -1    0    0  501    0  0.00000000000E+00 -0.00000000000E+00 -0.27030327700E+03  0.27030327700E+03  0.00000000000E+00 0. -1.
         25    2    1    2    0    0  0.25452660367E+02 -0.46219240398E+02 -0.15380801816E+03  0.20515414009E+03  0.12508900289E+03 0.  0.
          5    1    3    3  502    0  0.57814706828E+02 -0.60343663618E+02 -0.14671286238E+03  0.16889651995E+03  0.41800000000E+01 0. -1.
         -5    1    3    3    0  502 -0.32362046461E+02  0.14124423220E+02 -0.70951557773E+01  0.36257620136E+02  0.41800000000E+01 0. -1.
        -11    1    1    2    0    0  0.25305346354E+02  0.40097330460E+02 -0.50857876028E+02  0.69531863330E+02  0.00000000000E+00 0.  1.
         11    1    1    2    0    0 -0.50758006721E+02  0.61219099379E+01 -0.92913744726E+01  0.51963281913E+02  0.00000000000E+00 0. -1.
</event>
<event>
 7    1  0.2380582E-009  0.1157162E+03  0.7561462E-02  0.1250336E+00
          1   -1    0    0  501    0  0.00000000000E+00  0.00000000000E+00  0.78600647176E+02  0.78600647176E+02  0.00000000000E+00 0. -1.
         -1   -1    0    0    0  501 -0.00000000000E+00 -0.00000000000E+00 -0.23497594854E+03  0.23497594854E+03  0.00000000000E+00 0.  1.
         25    2    1    2    0    0 -0.10689567759E+02  0.77874130442E+02 -0.52430526268E+02  0.15676511845E+03  0.12509074796E+03 0.  0.
          5    1    3    3  502    0  0.54002205468E+02  0.58488129527E+02 -0.22908966639E+02  0.82942104166E+02  0.41800000000E+01 0.  1.
         -5    1    3    3    0  502 -0.64691773227E+02  0.19386000914E+02 -0.29521559629E+02  0.73823014282E+02  0.41800000000E+01 0.  1.
        -11    1    1    2    0    0 -0.89399633146E+01 -0.44032937220E+02 -0.10848999327E+03  0.11742615187E+03  0.00000000000E+00 0.  1.
         11    1    1    2    0    0  0.19629531073E+02 -0.33841193222E+02  0.45452181667E+01  0.39385325402E+02  0.00000000000E+00 0. -1.
</event>
<event>
 7    1  0.2380582E-009  0.1555343E+03  0.7561462E-02  0.1193833E+00
         -3   -1    0    0    0  501 -0.00000000000E+00  0.00000000000E+00  0.40685565426E+02  0.40685565426E+02  0.00000000000E+00 0.  1.
          3   -1    0    0  501    0  0.00000000000E+00 -0.00000000000E+00 -0.88808907272E+03  0.88808907272E+03  0.00000000000E+00 0. -1.
         25    2    1    2    0    0  0.78141807021E+02 -0.86472285927E+02 -0.69639969427E+03  0.71707961253E+03  0.12508812209E+03 0.  0.
          5    1    3    3  502    0  0.14249840639E+02  0.31638031007E+02 -0.18842082297E+03  0.19163481389E+03  0.41800000000E+01 0.  1.
         -5    1    3    3    0  502  0.63891966383E+02 -0.11811031693E+03 -0.50797887130E+03  0.52544479865E+03  0.41800000000E+01 0.  1.
        -11    1    1    2    0    0 -0.95237699175E+02  0.72622469810E+02 -0.99563913429E+02  0.15574728031E+03  0.00000000000E+00 0.  1.
         11    1    1    2    0    0  0.17095892154E+02  0.13849816117E+02 -0.51439899587E+02  0.55947745304E+02  0.00000000000E+00 0. -1.
</event>
<event>
 7    1  0.2380582E-009  0.1164020E+03  0.7561462E-02  0.1249154E+00
         -1   -1    0    0    0  501 -0.00000000000E+00  0.00000000000E+00  0.76733600405E+02  0.76733600405E+02  0.00000000000E+00 0.  1.
          1   -1    0    0  501    0  0.00000000000E+00 -0.00000000000E+00 -0.22263934054E+03  0.22263934054E+03  0.00000000000E+00 0. -1.
         25    2    1    2    0    0 -0.53134099096E+02  0.10376491713E+02 -0.14816688589E+03  0.20132456304E+03  0.12508896651E+03 0.  0.
          5    1    3    3  502    0 -0.10913774128E+01 -0.52847538927E+02 -0.71948105723E+02  0.89375924009E+02  0.41800000000E+01 0.  1.
         -5    1    3    3    0  502 -0.52042721683E+02  0.63224030641E+02 -0.76218780170E+02  0.11194863903E+03  0.41800000000E+01 0.  1.
        -11    1    1    2    0    0 -0.21785052803E+02 -0.66326596947E+01 -0.23551642248E+01  0.22893831020E+02  0.00000000000E+00 0. -1.
         11    1    1    2    0    0  0.74919151899E+02 -0.37438320186E+01  0.46163099828E+01  0.75154546884E+02  0.00000000000E+00 0.  1.
</event>
<event>
 7    1  0.2380582E-009  0.1080418E+03  0.7561462E-02  0.1264240E+00
          1   -1    0    0  501    0  0.00000000000E+00  0.00000000000E+00  0.44430094296E+03  0.44430094296E+03  0.00000000000E+00 0. -1.
         -1   -1    0    0    0  501 -0.00000000000E+00 -0.00000000000E+00 -0.39526771805E+02  0.39526771805E+02  0.00000000000E+00 0.  1.
         25    2    1    2    0    0 -0.28261205237E+02  0.54423557377E+02  0.30797922759E+03  0.33802232480E+03  0.12508904076E+03 0.  0.
          5    1    3    3  502    0  0.97851806622E+01 -0.20397990916E+02  0.19937186298E+03  0.20069489267E+03  0.41800000000E+01 0.  1.
         -5    1    3    3    0  502 -0.38046385899E+02  0.74821548293E+02  0.10860736461E+03  0.13732743213E+03  0.41800000000E+01 0.  1.
        -11    1    1    2    0    0 -0.26986160573E+02 -0.45741055035E+02  0.46307544989E+02  0.70461945056E+02  0.00000000000E+00 0.  1.
         11    1    1    2    0    0  0.55247365810E+02 -0.86825023420E+01  0.50487398578E+02  0.75343444911E+02  0.00000000000E+00 0. -1.
</event>
<event>
 7    1  0.2380582E-009  0.9376499E+02  0.7561462E-02  0.1293982E+00
          2   -1    0    0  501    0  0.00000000000E+00  0.00000000000E+00  0.13388628653E+03  0.13388628653E+03  0.00000000000E+00 0. -1.
         -2   -1    0    0    0  501 -0.00000000000E+00 -0.00000000000E+00 -0.19528532578E+03  0.19528532578E+03  0.00000000000E+00 0.  1.
         25    2    1    2    0    0  0.43899041887E+02  0.14802439116E+02 -0.14503330403E+03  0.19704726560E+03  0.12508687990E+03 0.  0.
          5    1    3    3  502    0  0.64627220099E+02  0.15442824445E+02 -0.15853715004E+03  0.17194958199E+03  0.41800000000E+01 0.  1.
         -5    1    3    3    0  502 -0.20728178211E+02 -0.64038532891E+00  0.13503846015E+02  0.25097683609E+02  0.41800000000E+01 0.  1.
        -11    1    1    2    0    0 -0.62284179219E+02 -0.35838404345E+02  0.72415193284E+02  0.10201799069E+03  0.00000000000E+00 0.  1.
         11    1    1    2    0    0  0.18385137331E+02  0.21035965229E+02  0.11219071491E+02  0.30106356022E+02  0.00000000000E+00 0. -1.
</event>
<event>
 7    1  0.2380582E-009  0.1175663E+03  0.7561462E-02  0.1247167E+00
          2   -1    0    0  501    0  0.00000000000E+00  0.00000000000E+00  0.27788933020E+03  0.27788933020E+03  0.00000000000E+00 0. -1.
         -2   -1    0    0    0  501 -0.00000000000E+00 -0.00000000000E+00 -0.10072009349E+03  0.10072009349E+03  0.00000000000E+00 0.  1.
         25    2    1    2    0    0  0.67947610467E+02 -0.77446172605E+02  0.17785893133E+03  0.24061523880E+03  0.12508839382E+03 0.  0.
          5    1    3    3  502    0  0.15736913164E+02 -0.31901517844E+02  0.16646713065E+03  0.17027664333E+03  0.41800000000E+01 0.  1.
         -5    1    3    3    0  502  0.52210697303E+02 -0.45544654761E+02  0.11391800686E+02  0.70338595472E+02  0.41800000000E+01 0.  1.
        -11    1    1    2    0    0  0.17734389830E+02  0.20094490013E+02  0.19225439470E+02  0.32983550966E+02  0.00000000000E+00 0.  1.
         11    1    1    2    0    0 -0.85682000298E+02  0.57351682592E+02 -0.19915134102E+02  0.10501063393E+03  0.00000000000E+00 0. -1.
</event>
<event>
 7    1  0.2380582E-009  0.1149507E+03  0.7561462E-02  0.1251667E+00
         -1   -1    0    0    0  501 -0.00000000000E+00  0.00000000000E+00  0.19481322147E+03  0.19481322147E+03  0.00000000000E+00 0.  1.
          1   -1    0    0  501    0  0.00000000000E+00 -0.00000000000E+00 -0.11081141905E+03  0.11081141905E+03  0.00000000000E+00 0. -1.
         25    2    1    2    0    0 -0.80416581221E+02  0.55567982217E+02  0.70047141507E+02  0.17350714057E+03  0.12507397257E+03 0.  0.
          5    1    3    3  502    0 -0.47550127648E+02  0.48224828743E+02  0.10485488048E+03  0.12489462402E+03  0.41800000000E+01 0. -1.
         -5    1    3    3    0  502 -0.32866453573E+02  0.73431534740E+01 -0.34807738978E+02  0.48612516559E+02  0.41800000000E+01 0. -1.
        -11    1    1    2    0    0 -0.39201841025E+01 -0.42605329605E+02 -0.90750249372E+01  0.43737147047E+02  0.00000000000E+00 0. -1.
         11    1    1    2    0    0  0.84336765323E+02 -0.12962652612E+02  0.23029685858E+02  0.88380352900E+02  0.00000000000E+00 0.  1.
</event>
<event>
 7    1  0.2380582E-009  0.1571952E+03  0.7561462E-02  0.1191900E+00
          2   -1    0    0  501    0  0.00000000000E+00  0.00000000000E+00  0.12398062604E+03  0.12398062604E+03  0.00000000000E+00 0. -1.
         -2   -1    0    0    0  501 -0.00000000000E+00 -0.00000000000E+00 -0.31236648824E+03  0.31236648824E+03  0.00000000000E+00 0.  1.
         25    2    1    2    0    0  0.49029310598E+02  0.12041684951E+03 -0.20686115881E+03  0.27449020361E+03  0.12509693006E+03 0.  0.
          5    1    3    3  502    0  0.61995166447E+02  0.43255988083E+02 -0.30714572521E+02  0.81702744954E+02  0.41800000000E+01 0.  1.
         -5    1    3    3    0  502 -0.12965855849E+02  0.77160861431E+02 -0.17614658629E+03  0.19278745866E+03  0.41800000000E+01 0.  1.
        -11    1    1    2    0    0  0.40512366654E+01 -0.10496427263E+03  0.17983212852E+02  0.10657066665E+03  0.00000000000E+00 0. -1.
         11    1    1    2    0    0 -0.53080547264E+02 -0.15452576888E+02  0.49208375969E+00  0.55286244010E+02  0.00000000000E+00 0.  1.
</event>
<event>
 7    1  0.2380582E-009  0.5966804E+02  0.7561462E-02  0.1399230E+00
         -2   -1    0    0    0  501 -0.00000000000E+00  0.00000000000E+00  0.27590568822E+02  0.27590568822E+02  0.00000000000E+00 0. -1.
          2   -1    0    0  501    0  0.00000000000E+00 -0.00000000000E+00 -0.47098226099E+03  0.47098226099E+03  0.00000000000E+00 0.  1.
         25    2    1    2    0    0 -0.31133992100E+02  0.10234957195E+02 -0.27209738249E+03  0.30126125068E+03  0.12508907143E+03 0.  0.
          5    1    3    3  502    0 -0.28436187820E+02  0.15328368521E+02 -0.37155097530E+01  0.32784951914E+02  0.41800000000E+01 0. -1.
         -5    1    3    3    0  502 -0.26978042800E+01 -0.50934113263E+01 -0.26838187273E+03  0.26847629877E+03  0.41800000000E+01 0. -1.
        -11    1    1    2    0    0 -0.10216186309E+02 -0.31520887395E+02 -0.13300531078E+03  0.13707060042E+03  0.00000000000E+00 0. -1.
         11    1    1    2    0    0  0.41350178410E+02  0.21285930200E+02 -0.38288998902E+02  0.60240978709E+02  0.00000000000E+00 0.  1.
</event>
<event>
 7    1  0.2380582E-009  0.1670746E+03  0.7561462E-02  0.1180933E+00
          1   -1    0    0  501    0  0.00000000000E+00  0.00000000000E+00  0.98232701210E+03  0.98232701210E+03  0.00000000000E+00 0. -1.
         -1   -1    0    0    0  501 -0.00000000000E+00 -0.00000000000E+00 -0.29551680235E+02  0.29551680235E+02  0.00000000000E+00 0.  1.
         25    2    1    2    0    0  0.21598620793E+02 -0.12866112527E+03  0.53946047110E+03  0.56893288499E+03  0.12508733812E+03 0.  0.
          5    1    3    3  502    0  0.53388485545E+02 -0.59905065460E+01  0.15411662830E+03  0.16326550179E+03  0.41800000000E+01 0. -1.
         -5    1    3    3    0  502 -0.31789864752E+02 -0.12267061872E+03  0.38534384280E+03  0.40566738319E+03  0.41800000000E+01 0. -1.
        -11    1    1    2    0    0  0.20415735118E+02  0.25844863857E+01  0.10830068950E+03  0.11023847403E+03  0.00000000000E+00 0. -1.
         11    1    1    2    0    0 -0.42014355911E+02  0.12607663888E+03  0.30501417126E+03  0.33270733332E+03  0.00000000000E+00 0.  1.
</event>
<event>
 7    1  0.2380582E-009  0.1167840E+03  0.7561462E-02  0.1248499E+00
         -2   -1    0    0    0  501 -0.00000000000E+00  0.00000000000E+00  0.16495074637E+02  0.16495074637E+02  0.00000000000E+00 0.  1.
          2   -1    0    0  501    0  0.00000000000E+00 -0.00000000000E+00 -0.10145529297E+04  0.10145529297E+04  0.00000000000E+00 0. -1.
         25    2    1    2    0    0  0.25032884261E+02 -0.55230690032E+02 -0.69902357138E+03  0.71271223764E+03  0.12509079070E+03 0.  0.
          5    1    3    3  502    0  0.31869003226E+01  0.37577604109E+02 -0.11938928297E+03  0.12527372411E+03  0.41800000000E+01 0.  1.
         -5    1    3    3    0  502  0.21845983938E+02 -0.92808294140E+02 -0.57963428841E+03  0.58743851353E+03  0.41800000000E+01 0.  1.
        -11    1    1    2    0    0 -0.53652932700E+02  0.44205015725E+02 -0.25741149611E+03  0.26663345426E+03  0.00000000000E+00 0. -1.
         11    1    1    2    0    0  0.28620048439E+02  0.11025674307E+02 -0.41622787607E+02  0.51702312470E+02  0.00000000000E+00 0.  1.
</event>
<event>
 7    1  0.2380582E-009  0.1505348E+03  0.7561462E-02  0.1199817E+00
         -1   -1    0    0    0  501 -0.00000000000E+00  0.00000000000E+00  0.85703458756E+03  0.85703458756E+03  0.00000000000E+00 0.  1.
          1   -1    0    0  501    0  0.00000000000E+00 -0.00000000000E+00 -0.33809139055E+02  0.33809139055E+02  0.00000000000E+00 0. -1.
         25    2    1    2    0    0  0.12204649144E+03  0.38606851014E+02  0.37118488638E+03  0.41208164053E+03  0.12508886267E+03 0.  0.
          5    1    3    3  502    0  0.39800251908E+01  0.43871774675E+02  0.37302622014E+02  0.57875134753E+02  0.41800000000E+01 0. -1.
         -5    1    3    3    0  502  0.11806646625E+03 -0.52649236603E+01  0.33388226437E+03  0.35420650577E+03  0.41800000000E+01 0. -1.
        -11    1    1    2    0    0 -0.43598922851E+02 -0.41319055624E+02  0.31635924178E+03  0.32201133566E+03  0.00000000000E+00 0.  1.
         11    1    1    2    0    0 -0.78447568586E+02  0.27122046098E+01  0.13568132034E+03  0.15675075043E+03  0.00000000000E+00 0. -1.
</event>
<event>
 7    1  0.2380582E-009  0.1252380E+03  0.7561462E-02  0.1234698E+00
          2   -1    0    0  501    0  0.00000000000E+00  0.00000000000E+00  0.31386262301E+02  0.31386262301E+02  0.00000000000E+00 0. -1.
         -2   -1    0    0    0  501 -0.00000000000E+00 -0.00000000000E+00 -0.66521806887E+03  0.66521806887E+03  0.00000000000E+00 0.  1.
         25    2    1    2    0    0  0.30821190545E+02  0.69477668558E+02 -0.48392494395E+03  0.50557624105E+03  0.12508753703E+03 0.  0.
          5    1    3    3  502    0  0.71625115899E+02  0.44105338602E+02 -0.40008628044E+03  0.40885442680E+03  0.41800000000E+01 0.  1.
         -5    1    3    3    0  502 -0.40803925355E+02  0.25372329957E+02 -0.83838663515E+02  0.96721814249E+02  0.41800000000E+01 0.  1.
        -11    1    1    2    0    0  0.27287942690E+02 -0.49600219646E+02 -0.64295132261E+02  0.85666082189E+02  0.00000000000E+00 0.  1.
         11    1    1    2    0    0 -0.58109133235E+02 -0.19877448913E+02 -0.85611730354E+02  0.10536200793E+03  0.00000000000E+00 0. -1.
</event>
<event>
 7    1  0.2380582E-009  0.9486378E+02  0.7561462E-02  0.1291483E+00
         -1   -1    0    0    0  501 -0.00000000000E+00  0.00000000000E+00  0.67848784508E+02  0.67848784508E+02  0.00000000000E+00 0.  1.
          1   -1    0    0  501    0  0.00000000000E+00 -0.00000000000E+00 -0.18780637510E+03  0.18780637510E+03  0.00000000000E+00 0. -1.
         25    2    1    2    0    0  0.18532483858E+02  0.23004318556E+02 -0.54203822674E+02  0.13949277704E+03  0.12509008283E+03 0.  0.
          5    1    3    3  502    0  0.59377481891E+02  0.21364650024E+01  0.10083057758E+02  0.60410183679E+02  0.41800000000E+01 0.  1.
         -5    1    3    3    0  502 -0.40844998033E+02  0.20867853554E+02 -0.64286880432E+02  0.79082593356E+02  0.41800000000E+01 0.  1.
        -11    1    1    2    0    0 -0.47891653375E+02 -0.18613340460E+01 -0.63977748465E+02  0.79938897454E+02  0.00000000000E+00 0. -1.
         11    1    1    2    0    0  0.29359169517E+02 -0.21142984510E+02 -0.17760194475E+01  0.36223485114E+02  0.00000000000E+00 0.  1.
</event>
<event>
 7    1  0.2380582E-009  0.1241986E+03  0.7561462E-02  0.1236327E+00
         -2   -1    0    0    0  501 -0.00000000000E+00  0.00000000000E+00  0.91997848753E+02  0.91997848753E+02  0.00000000000E+00 0.  1.
          2   -1    0    0  501    0  0.00000000000E+00 -0.00000000000E+00 -0.20217046769E+03  0.20217046769E+03  0.00000000000E+00 0. -1.
         25    2    1    2    0    0  0.79834394442E+02 -0.14456643989E+02 -0.38437940712E+02  0.15397472046E+03  0.12509282219E+03 0.  0.
          5    1    3    3  502    0  0.39876083129E+02 -0.63026302713E+02  0.87865798913E+01  0.75213650527E+02  0.41800000000E+01 0.  1.
         -5    1    3    3    0  502  0.39958311313E+02  0.48569658724E+02 -0.47224520603E+02  0.78761069938E+02  0.41800000000E+01 0.  1.
        -11    1    1    2    0    0 -0.86012582733E+02  0.32227145882E+02 -0.33842881349E+02  0.97888170573E+02  0.00000000000E+00 0.  1.
         11    1    1    2    0    0  0.61781882912E+01 -0.17770501894E+02 -0.37891796876E+02  0.42305425404E+02  0.00000000000E+00 0. -1.
</event>
<event>
 7    1  0.2380582E-009  0.8955503E+02  0.7561462E-02  0.1303933E+00
         -2   -1    0    0    0  501 -0.00000000000E+00  0.00000000000E+00  0.18207041240E+04  0.18207041240E+04  0.00000000000E+00 0.  1.
          2   -1    0    0  501    0  0.00000000000E+00 -0.00000000000E+00 -0.13052069463E+02  0.13052069463E+02  0.00000000000E+00 0. -1.
         25    2    1    2    0    0 -0.35369245382E+02 -0.54381767722E+01  0.15917556148E+04  0.15970641848E+04  0.12509003098E+03 0.  0.
          5    1    3    3  502    0 -0.66387887254E+02 -0.30881043015E+02  0.59648467553E+03  0.60097623159E+03  0.41800000000E+01 0. -1.
         -5    1    3    3    0  502  0.31018641872E+02  0.25442866243E+02  0.99527093929E+03  0.99608795323E+03  0.41800000000E+01 0. -1.
        -11    1    1    2    0    0  0.17002735195E+01  0.25953734484E+02  0.11345873432E+02  0.28376330059E+02  0.00000000000E+00 0. -1.
         11    1    1    2    0    0  0.33668971863E+02 -0.20515557712E+02  0.20455056627E+03  0.20831567857E+03  0.00000000000E+00 0.  1.
</event>
<event>
 7    1  0.2380582E-009  0.1935577E+03  0.7561462E-02  0.1155291E+00
         -2   -1    0    0    0  501 -0.00000000000E+00  0.00000000000E+00  0.18611574660E+03  0.18611574660E+03  0.00000000000E+00 0.  1.
          2   -1    0    0  501    0  0.00000000000E+00 -0.00000000000E+00 -0.25641315254E+03  0.25641315254E+03  0.00000000000E+00 0. -1.
         25    2    1    2    0    0 -0.13631198063E+03  0.11656968015E+03 -0.98151965506E+02  0.23968812739E+03  0.12508854338E+03 0.  0.
          5    1    3    3  502    0 -0.13889269032E+03  0.61402320984E+02 -0.35394982799E+02  0.15598622264E+03  0.41800000000E+01 0. -1.
         -5    1    3    3    0  502  0.25807096927E+01  0.55167359166E+02 -0.62756982707E+02  0.83701904747E+02  0.41800000000E+01 0. -1.
        -11    1    1    2    0    0  0.35658473955E+02 -0.38115101907E+02  0.51189713408E+02  0.73107280876E+02  0.00000000000E+00 0. -1.
         11    1    1    2    0    0  0.10065350667E+03 -0.78454578242E+02 -0.23335153842E+02  0.12973349089E+03  0.00000000000E+00 0.  1.
</event>
<event>
 7    1  0.2380582E-009  0.1732751E+03  0.7561462E-02  0.1174475E+00
         -1   -1    0    0    0  501 -0.00000000000E+00  0.00000000000E+00  0.78909741229E+02  0.78909741229E+02  0.00000000000E+00 0.  1.
          1   -1    0    0  501    0  0.00000000000E+00 -0.00000000000E+00 -0.55148056229E+03  0.55148056229E+03  0.00000000000E+00 0. -1.
         25    2    1    2    0    0 -0.39719462374E+02  0.13512012302E+03 -0.83438193404E+02  0.20601951859E+03  0.12508807531E+03 0.  0.
          5    1    3    3  502    0 -0.69583793042E+02  0.41630409687E+02 -0.68950169300E+01  0.81486249903E+02  0.41800000000E+01 0.  1.
         -5    1    3    3    0  502  0.29864330668E+02  0.93489713332E+02 -0.76543176474E+02  0.12453326869E+03  0.41800000000E+01 0.  1.
        -11    1    1    2    0    0  0.34847567949E+02 -0.14868296314E+03 -0.33182785633E+03  0.36528167591E+03  0.00000000000E+00 0.  1.
         11    1    1    2    0    0  0.48718944242E+01  0.13562840123E+02 -0.57304771328E+02  0.59089109017E+02  0.00000000000E+00 0. -1.
</event>
<event>
 7    1  0.2380582E-009  0.2518543E+03  0.7561462E-02  0.1112139E+00
         -2   -1    0    0    0  501 -0.00000000000E+00  0.00000000000E+00  0.11650326238E+03  0.11650326238E+03  0.00000000000E+00 0.  1.
          2   -1    0    0  501    0  0.00000000000E+00 -0.00000000000E+00 -0.93588958676E+03  0.93588958676E+03  0.00000000000E+00 0. -1.
         25    2    1    2    0    0  0.67105641238E+02 -0.23422337650E+03 -0.72531547254E+03  0.77530306053E+03  0.12509413962E+03 0.  0.
          5    1    3    3  502    0  0.72453610301E+01 -0.42282650554E+02 -0.31947957409E+03  0.32237398849E+03  0.41800000000E+01 0.  1.
         -5    1    3    3    0  502  0.59860280208E+02 -0.19194072595E+03 -0.40583589846E+03  0.45292907204E+03  0.41800000000E+01 0.  1.
        -11    1    1    2    0    0 -0.18313303218E+02  0.19772595716E+03 -0.60832664403E+02  0.20768135272E+03  0.00000000000E+00 0. -1.
         11    1    1    2    0    0 -0.48792338020E+02  0.36497419347E+02 -0.33238187444E+02  0.69408435892E+02  0.00000000000E+00 0.  1.
</event>
<event>
 7    1  0.2380582E-009  0.5475225E+02  0.7561462E-02  0.1421274E+00
         -2   -1    0    0    0  501 -0.00000000000E+00  0.00000000000E+00  0.41771422911E+02  0.41771422911E+02  0.00000000000E+00 0.  1.
          2   -1    0    0  501    0  0.00000000000E+00 -0.00000000000E+00 -0.30364288278E+03  0.30364288278E+03  0.00000000000E+00 0. -1.
         25    2    1    2    0    0  0.32471262392E+01  0.21888054757E+02 -0.17611301743E+03  0.21714679795E+03  0.12508919291E+03 0.  0.
          5    1    3    3  502    0 -0.36616369379E+01  0.29920073018E+02 -0.19376459947E+03  0.19613977354E+03  0.41800000000E+01 0. -1.
         -5    1    3    3    0  502  0.69087631771E+01 -0.80320182604E+01  0.17651582046E+02  0.21007024413E+02  0.41800000000E+01 0. -1.
        -11    1    1    2    0    0  0.26983736883E+02 -0.25637419512E+02  0.40789814394E-01  0.37220975259E+02  0.00000000000E+00 0.  1.
         11    1    1    2    0    0 -0.30230863122E+02  0.37493647551E+01 -0.85799232259E+02  0.91046532484E+02  0.00000000000E+00 0. -1.
</event>
<event>
 7    1  0.2380582E-009  0.1139232E+03  0.7561462E-02  0.1253472E+00
         -1   -1    0    0    0  501 -0.00000000000E+00  0.00000000000E+00  0.43484244917E+03  0.43484244917E+03  0.00000000000E+00 0.  1.
          1   -1    0    0  501    0  0.00000000000E+00 -0.00000000000E+00 -0.12289598129E+03  0.12289598129E+03  0.00000000000E+00 0. -1.
         25    2    1    2    0    0 -0.15135659316E+02 -0.82798782859E+02  0.38308336057E+03  0.41168532332E+03  0.12508883908E+03 0.  0.
          5    1    3    3  502    0 -0.62068295541E+01  0.20348681316E+02  0.89281210486E+01  0.23447330549E+02  0.41800000000E+01 0.  1.
         -5    1    3    3    0  502 -0.89288297616E+01 -0.10314746418E+03  0.37415523952E+03  0.38823799277E+03  0.41800000000E+01 0.  1.
        -11    1    1    2    0    0 -0.14587774225E+02  0.12887098642E-01 -0.54647077438E+02  0.56560643521E+02  0.00000000000E+00 0. -1.
         11    1    1    2    0    0  0.29723433540E+02  0.82785895761E+02 -0.16489815254E+02  0.89492463624E+02  0.00000000000E+00 0.  1.
</event>
<event>
 7    1  0.2380582E-009  0.9294861E+02  0.7561462E-02  0.1295864E+00
          1   -1    0    0  501    0  0.00000000000E+00  0.00000000000E+00  0.16778539521E+03  0.16778539521E+03  0.00000000000E+00 0. -1.
         -1   -1    0    0    0  501 -0.00000000000E+00 -0.00000000000E+00 -0.72867665810E+02  0.72867665810E+02  0.00000000000E+00 0.  1.
         25    2    1    2    0    0  0.16355614336E+02  0.13640051156E+02  0.78666883627E+02  0.14930101397E+03  0.12509499222E+03 0.  0.
          5    1    3    3  502    0  0.59752465070E+02 -0.28339266926E+02  0.38038400872E+02  0.76405912551E+02  0.41800000000E+01 0. -1.
         -5    1    3    3    0  502 -0.43396850734E+02  0.41979318082E+02  0.40628482755E+02  0.72895101421E+02  0.41800000000E+01 0. -1.
        -11    1    1    2    0    0  0.14093309047E+02  0.12607649101E+02 -0.26573836772E+02  0.32615072842E+02  0.00000000000E+00 0.  1.
         11    1    1    2    0    0 -0.30448923383E+02 -0.26247700257E+02  0.42824682550E+02  0.58736974211E+02  0.00000000000E+00 0. -1.
</event>
<event>
 7    1  0.2380582E-009  0.2657668E+03  0.7561462E-02  0.1103727E+00
          2   -1    0    0  501    0  0.00000000000E+00  0.00000000000E+00  0.15327228322E+04  0.15327228322E+04  0.00000000000E+00 0. -1.
         -2   -1    0    0    0  501 -0.00000000000E+00 -0.00000000000E+00 -0.56743719242E+02  0.56743719242E+02  0.00000000000E+00 0.  1.
         25    2    1    2    0    0 -0.25379164751E+03  0.49626357365E+02  0.99401814802E+03  0.10346932201E+04  0.12507999654E+03 0.  0.
          5    1    3    3  502    0 -0.38960551512E+02  0.10114931746E+02  0.43595642443E+02  0.59483517535E+02  0.41800000000E+01 0. -1.
         -5    1    3    3    0  502 -0.21483109600E+03  0.39511425619E+02  0.95042250558E+03  0.97520970261E+03  0.41800000000E+01 0. -1.
        -11    1    1    2    0    0  0.12925047690E+03 -0.69058381845E+02  0.29341973725E+03  0.32797848724E+03  0.00000000000E+00 0. -1.
         11    1    1    2    0    0  0.12454117061E+03  0.19432024480E+02  0.18854122766E+03  0.22679484404E+03  0.00000000000E+00 0.  1.
</event>
<event>
 7    1  0.2380582E-009  0.1336931E+03  0.7561462E-02  0.1222077E+00
         -2   -1    0    0    0  501 -0.00000000000E+00  0.00000000000E+00  0.32193091271E+02  0.32193091271E+02  0.00000000000E+00 0.  1.
          2   -1    0    0  501    0  0.00000000000E+00 -0.00000000000E+00 -0.65468262579E+03  0.65468262579E+03  0.00000000000E+00 0. -1.
         25    2    1    2    0    0  0.25286231566E+02 -0.91968883327E+02 -0.34459353618E+03  0.37879804289E+03  0.12508230536E+03 0.  0.
          5    1    3    3  502    0  0.34439000496E+02 -0.11902570406E+03 -0.23788038049E+03  0.26824934447E+03  0.41800000000E+01 0.  1.
         -5    1    3    3    0  502 -0.91527689299E+01  0.27056820735E+02 -0.10671315569E+03  0.11054869843E+03  0.41800000000E+01 0.  1.
        -11    1    1    2    0    0 -0.38392209984E+02  0.93757065279E+02 -0.27685406093E+03  0.29480929452E+03  0.00000000000E+00 0. -1.
         11    1    1    2    0    0  0.13105978418E+02 -0.17881819525E+01 -0.10419374019E+01  0.13268379650E+02  0.00000000000E+00 0.  1.
</event>
<event>
 7    1  0.2380582E-009  0.1414219E+03  0.7561462E-02  0.1211428E+00
         -1   -1    0    0    0  501 -0.00000000000E+00  0.00000000000E+00  0.35075771889E+02  0.35075771889E+02  0.00000000000E+00 0.  1.
          1   -1    0    0  501    0  0.00000000000E+00 -0.00000000000E+00 -0.73430244756E+03  0.73430244756E+03  0.00000000000E+00 0. -1.
         25    2    1    2    0    0 -0.10791723693E+03  0.33027268576E+02 -0.45740200989E+03  0.48744326992E+03  0.12508961684E+03 0.  0.
          5    1    3    3  502    0  0.10855950813E+02  0.32983372290E+02 -0.21097688359E+03  0.21385619543E+03  0.41800000000E+01 0.  1.
         -5    1    3    3    0  502 -0.11877318775E+03  0.43896285973E-01 -0.24642512630E+03  0.27358707449E+03  0.41800000000E+01 0.  1.
        -11    1    1    2    0    0  0.52070119153E+02  0.16246178640E+02 -0.42492209549E+02  0.69143499343E+02  0.00000000000E+00 0. -1.
         11    1    1    2    0    0  0.55847117780E+02 -0.49273447216E+02 -0.19933245623E+03  0.21279145019E+03  0.00000000000E+00 0.  1.
</event>
<event>
 7    1  0.2380582E-009  0.1252788E+03  0.7561462E-02  0.1234634E+00
         -4   -1    0    0    0  501 -0.00000000000E+00  0.00000000000E+00  0.53234010657E+02  0.53234010657E+02  0.00000000000E+00 0.  1.
          4   -1    0    0  501    0  0.00000000000E+00 -0.00000000000E+00 -0.33469531559E+03  0.33469531559E+03  0.00000000000E+00 0. -1.
         25    2    1    2    0    0  0.27241773425E+02 -0.65990817204E+02 -0.14989307864E+03  0.20787632372E+03  0.12509088202E+03 0.  0.
          5    1    3    3  502    0  0.38310639862E+02 -0.92634587688E+02 -0.68672611537E+02  0.12158236689E+03  0.41800000000E+01 0.  1.
         -5    1    3    3    0  502 -0.11068866436E+02  0.26643770484E+02 -0.81220467100E+02  0.86293956832E+02  0.41800000000E+01 0.  1.
        -11    1    1    2    0    0 -0.31329612343E+02  0.90736298157E+02 -0.90474353034E+02  0.13190992749E+03  0.00000000000E+00 0.  1.
         11    1    1    2    0    0  0.40878389174E+01 -0.24745480953E+02 -0.41093873261E+02  0.48143075039E+02  0.00000000000E+00 0. -1.
</event>
<event>
 7    1  0.2380582E-009  0.1948115E+03  0.7561462E-02  0.1154192E+00
          1   -1    0    0  501    0  0.00000000000E+00  0.00000000000E+00  0.12024667529E+03  0.12024667529E+03  0.00000000000E+00 0. -1.
         -1   -1    0    0    0  501 -0.00000000000E+00 -0.00000000000E+00 -0.35408213433E+03  0.35408213433E+03  0.00000000000E+00 0.  1.
         25    2    1    2    0    0 -0.16951638993E+03  0.40738011197E+02 -0.10399790679E+03  0.23845024704E+03  0.12509022219E+03 0.  0.
          5    1    3    3  502    0 -0.16043472857E+03  0.76200103285E+02 -0.83791473913E+02  0.19642871830E+03  0.41800000000E+01 0. -1.
         -5    1    3    3    0  502 -0.90816613586E+01 -0.35462092088E+02 -0.20206432878E+02  0.42021528743E+02  0.41800000000E+01 0. -1.
        -11    1    1    2    0    0  0.83942305356E+02 -0.28637527044E+02 -0.11952858418E+03  0.14884052210E+03  0.00000000000E+00 0.  1.
         11    1    1    2    0    0  0.85574084573E+02 -0.12100484153E+02 -0.10308968063E+02  0.87038040475E+02  0.00000000000E+00 0. -1.
</event>
<event>
 7    1  0.2380582E-009  0.7778149E+02  0.7561462E-02  0.1335468E+00
          1   -1    0    0  501    0  0.00000000000E+00  0.00000000000E+00  0.29233539361E+03  0.29233539361E+03  0.00000000000E+00 0. -1.
         -1   -1    0    0    0  501 -0.00000000000E+00 -0.00000000000E+00 -0.43308562278E+02  0.43308562278E+02  0.00000000000E+00 0.  1.
         25    2    1    2    0    0  0.19325642009E+02  0.12644182785E+02  0.16573023770E+03  0.20891959029E+03  0.12509007844E+03 0.  0.
          5    1    3    3  502    0 -0.41127446169E+02 -0.41952533539E+01  0.12668514043E+02  0.43439965782E+02  0.41800000000E+01 0.  1.
         -5    1    3    3    0  502  0.60453088177E+02  0.16839436139E+02  0.15306172366E+03  0.16547962451E+03  0.41800000000E+01 0.  1.
        -11    1    1    2    0    0 -0.34193763477E+02 -0.11990589880E+02  0.98799221017E+02  0.10523437547E+03  0.00000000000E+00 0. -1.
         11    1    1    2    0    0  0.14868121468E+02 -0.65359290543E+00 -0.15502627387E+02  0.21489990125E+02  0.00000000000E+00 0.  1.
</event>
<event>
 7    1  0.2380582E-009  0.6836929E+02  0.7561462E-02  0.1365728E+00
          3   -1    0    0  501    0  0.00000000000E+00  0.00000000000E+00  0.46268002178E+03  0.46268002178E+03  0.00000000000E+00 0. -1.
         -3   -1    0    0    0  501 -0.00000000000E+00 -0.00000000000E+00 -0.29815486540E+02  0.29815486540E+02  0.00000000000E+00 0.  1.
         25    2    1    2    0    0 -0.27768644814E+02 -0.14816380496E+02  0.17739577368E+03  0.21933051845E+03  0.12508394398E+03 0.  0.
          5    1    3    3  502    0 -0.31333377594E+02 -0.13734931862E+02 -0.67323249314E+01  0.35117310599E+02  0.41800000000E+01 0. -1.
         -5    1    3    3    0  502  0.35647327801E+01 -0.10814486341E+01  0.18412809861E+03  0.18421320786E+03  0.41800000000E+01 0. -1.
        -11    1    1    2    0    0  0.46326067402E+02  0.42816508351E+02  0.17070618097E+03  0.18198889562E+03  0.00000000000E+00 0.  1.
         11    1    1    2    0    0 -0.18557422588E+02 -0.28000127855E+02  0.84762580591E+02  0.91176094244E+02  0.00000000000E+00 0. -1.
</event>
<event>
 7    1  0.2380582E-009  0.1574435E+03  0.7561462E-02  0.1191614E+00
         -2   -1    0    0    0  501 -0.00000000000E+00  0.00000000000E+00  0.30498688807E+02  0.30498688807E+02  0.00000000000E+00 0.  1.
          2   -1    0    0  501    0  0.00000000000E+00 -0.00000000000E+00 -0.11160338362E+04  0.11160338362E+04  0.00000000000E+00 0. -1.
         25    2    1    2    0    0 -0.14116297739E+03 -0.35921712970E+02 -0.68852752573E+03  0.71479830487E+03  0.12509639206E+03 0.  0.
          5    1    3    3  502    0 -0.10559859543E+03 -0.63617006259E+02 -0.62337731518E+03  0.63546434702E+03  0.41800000000E+01 0. -1.
         -5    1    3    3    0  502 -0.35564381955E+02  0.27695293289E+02 -0.65150210547E+02  0.79333957852E+02  0.41800000000E+01 0. -1.
        -11    1    1    2    0    0  0.63120474260E+02  0.92683695132E+01 -0.28835901231E+03  0.29533204520E+03  0.00000000000E+00 0. -1.
         11    1    1    2    0    0  0.78042503128E+02  0.26653343457E+02 -0.10864860934E+03  0.13640217492E+03  0.00000000000E+00 0.  1.
</event>
<event>
 7    1  0.2380582E-009  0.2146107E+03  0.7561462E-02  0.1137966E+00
         -2   -1    0    0    0  501 -0.00000000000E+00  0.00000000000E+00  0.17186549772E+03  0.17186549772E+03  0.00000000000E+00 0.  1.
          2   -1    0    0  501    0  0.00000000000E+00 -0.00000000000E+00 -0.32852851709E+03  0.32852851709E+03  0.00000000000E+00 0. -1.
         25    2    1    2    0    0  0.18007843032E+03  0.10820420381E+03 -0.10460987163E+03  0.26594498451E+03  0.12508844373E+03 0.  0.
          5    1    3    3  502    0  0.11006294705E+03  0.72198149557E+02 -0.12805591670E+03  0.18369054226E+03  0.41800000000E+01 0.  1.
         -5    1    3    3    0  502  0.70015483265E+02  0.36006054258E+02  0.23446045072E+02  0.82254442248E+02  0.41800000000E+01 0.  1.
        -11    1    1    2    0    0 -0.11312484951E+03 -0.32673170201E+02 -0.61914023904E+02  0.13303425869E+03  0.00000000000E+00 0. -1.
         11    1    1    2    0    0 -0.66953580806E+02 -0.75531033614E+02  0.98608761654E+01  0.10141477161E+03  0.00000000000E+00 0.  1.
</event>
<event>
 7    1  0.2462016E-009  0.1063505E+03  0.7561462E-02  0.1267481E+00
         -2   -1    0    0    0  501 -0.00000000000E+00  0.00000000000E+00  0.20786789349E+02  0.20786789349E+02  0.00000000000E+00 0.  1.
          2   -1    0    0  501    0  0.00000000000E+00 -0.00000000000E+00 -0.97459573654E+03  0.97459573654E+03  0.00000000000E+00 0. -1.
         25    2    1    2    0    0 -0.68610332308E+02 -0.44351879409E+02 -0.67044198508E+03  0.68688690348E+03  0.12508675354E+03 0.  0.
          5    1    3    3  502    0 -0.84514706363E+02 -0.10593005779E+01 -0.25069072191E+03  0.26458867731E+03  0.41800000000E+01 0. -1.
         -5    1    3    3    0  502  0.15904374054E+02 -0.43292578831E+02 -0.41975126316E+03  0.42229822617E+03  0.41800000000E+01 0. -1.
        -11    1    1    2    0    0  0.17860891021E+02  0.98242642194E+01 -0.19672517746E+01  0.20479201036E+02  0.00000000000E+00 0.  1.
         11    1    1    2    0    0  0.50749441287E+02  0.34527615189E+02 -0.28139971034E+03  0.28801642137E+03  0.00000000000E+00 0. -1.
</event>
<event>
 7    1  0.2380582E-009  0.1193101E+03  0.7561462E-02  0.1244240E+00
          2   -1    0    0  501    0  0.00000000000E+00  0.00000000000E+00  0.29142382742E+03  0.29142382742E+03  0.00000000000E+00 0. -1.
         -2   -1    0    0    0  501 -0.00000000000E+00 -0.00000000000E+00 -0.52836591942E+02  0.52836591942E+02  0.00000000000E+00 0.  1.
         25    2    1    2    0    0 -0.34127120027E+02 -0.48255864223E+02  0.14624290493E+03  0.20131711986E+03  0.12509319227E+03 0.  0.
          5    1    3    3  502    0  0.38554437225E+02  0.60554845317E+01  0.15675413412E+02  0.42264695768E+02  0.41800000000E+01 0.  1.
         -5    1    3    3    0  502 -0.72681557253E+02 -0.54311348754E+02  0.13056749152E+03  0.15905242409E+03  0.41800000000E+01 0.  1.
        -11    1    1    2    0    0  0.10352576755E+02  0.73289695011E+02  0.69598124097E+02  0.10159947893E+03  0.00000000000E+00 0.  1.
         11    1    1    2    0    0  0.23774543272E+02 -0.25033830789E+02  0.22746206447E+02  0.41343820572E+02  0.00000000000E+00 0. -1.
</event>
<event>
 7    1  0.2380582E-009  0.1620674E+03  0.7561462E-02  0.1186382E+00
         -1   -1    0    0    0  501 -0.00000000000E+00  0.00000000000E+00  0.52779969093E+02  0.52779969093E+02  0.00000000000E+00 0.  1.
          1   -1    0    0  501    0  0.00000000000E+00 -0.00000000000E+00 -0.69982513692E+03  0.69982513692E+03  0.00000000000E+00 0. -1.
         25    2    1    2    0    0  0.14268290532E+03  0.52124800425E+02 -0.42918955792E+03  0.47215032769E+03  0.12508736552E+03 0.  0.
          5    1    3    3  502    0  0.58605930578E+02  0.99117435809E+01 -0.33015773354E+03  0.33549142936E+03  0.41800000000E+01 0. -1.
         -5    1    3    3    0  502  0.84076974743E+02  0.42213056844E+02 -0.99031824385E+02  0.13665889832E+03  0.41800000000E+01 0. -1.
        -11    1    1    2    0    0 -0.85972466564E+02  0.96586919525E+01 -0.14744359711E+03  0.17095078141E+03  0.00000000000E+00 0. -1.
         11    1    1    2    0    0 -0.56710438756E+02 -0.61783492377E+02 -0.70412012793E+02  0.10950399691E+03  0.00000000000E+00 0.  1.
</event>
<event>
 7    1  0.2380582E-009  0.1023388E+03  0.7561462E-02  0.1275453E+00
         -3   -1    0    0    0  501 -0.00000000000E+00  0.00000000000E+00  0.30350091960E+03  0.30350091960E+03  0.00000000000E+00 0.  1.
          3   -1    0    0  501    0  0.00000000000E+00 -0.00000000000E+00 -0.58361911541E+02  0.58361911541E+02  0.00000000000E+00 0. -1.
         25    2    1    2    0    0 -0.28846690599E+02  0.62435649806E+02  0.20767213505E+03  0.25200305629E+03  0.12508989877E+03 0.  0.
          5    1    3    3  502    0 -0.18209814351E+02  0.79998607722E+02  0.57258350827E+02  0.10013673510E+03  0.41800000000E+01 0. -1.
         -5    1    3    3    0  502 -0.10636876248E+02 -0.17562957916E+02  0.15041378423E+03  0.15186632119E+03  0.41800000000E+01 0. -1.
        -11    1    1    2    0    0  0.36861464125E+02 -0.76763375462E+02  0.38407360699E+02  0.93415784028E+02  0.00000000000E+00 0.  1.
         11    1    1    2    0    0 -0.80147735269E+01  0.14327725656E+02 -0.94048769260E+00  0.16443990825E+02  0.00000000000E+00 0. -1.
</event>
<event>
 7    1  0.3597657E-009  0.6740817E+02  0.7561462E-02  0.1369135E+00
         -2   -1    0    0    0  501 -0.00000000000E+00  0.00000000000E+00  0.87433533011E+02  0.87433533011E+02  0.00000000000E+00 0.  1.
          2   -1    0    0  501    0  0.00000000000E+00 -0.00000000000E+00 -0.22242348742E+03  0.22242348742E+03  0.00000000000E+00 0. -1.
         25    2    1    2    0    0  0.21203106169E+02  0.61434617266E+02 -0.95072833615E+01  0.14127168390E+03  0.12507404338E+03 0.  0.
          5    1    3    3  502    0 -0.33435184225E+01  0.56858777012E+01  0.53187933587E+02  0.53758134268E+02  0.41800000000E+01 0.  1.
         -5    1    3    3    0  502  0.24546624591E+02  0.55748739565E+02 -0.62695216948E+02  0.87513549637E+02  0.41800000000E+01 0.  1.
        -11    1    1    2    0    0 -0.71422721098E+01 -0.81257719536E+01  0.14526487289E+02  0.18112400550E+02  0.00000000000E+00 0.  1.
         11    1    1    2    0    0 -0.14060834059E+02 -0.53308845312E+02 -0.14000915834E+03  0.15047293598E+03  0.00000000000E+00 0. -1.
</event>
<event>
 7    1  0.2380582E-009  0.1228914E+03  0.7561462E-02  0.1238402E+00
          3   -1    0    0  501    0  0.00000000000E+00  0.00000000000E+00  0.48214229547E+03  0.48214229547E+03  0.00000000000E+00 0. -1.
         -3   -1    0    0    0  501 -0.00000000000E+00 -0.00000000000E+00 -0.50279265698E+02  0.50279265698E+02  0.00000000000E+00 0.  1.
         25    2    1    2    0    0 -0.66035932503E+02 -0.86842763205E+02  0.20210539313E+03  0.26152676634E+03  0.12508896705E+03 0.  0.
          5    1    3    3  502    0 -0.13188349684E+02 -0.40034906759E+02  0.18360400838E+03  0.18842672480E+03  0.41800000000E+01 0.  1.
         -5    1    3    3    0  502 -0.52847582820E+02 -0.46807856447E+02  0.18501384752E+02  0.73100041537E+02  0.41800000000E+01 0.  1.
        -11    1    1    2    0    0 -0.12041219182E+02  0.39730238527E+02  0.29732424784E+02  0.51063684711E+02  0.00000000000E+00 0.  1.
         11    1    1    2    0    0  0.78077151686E+02  0.47112524679E+02  0.20002521185E+03  0.21983111011E+03  0.00000000000E+00 0. -1.
</event>
<event>
 7    1  0.2380582E-009  0.8608699E+02  0.7561462E-02  0.1312614E+00
         -1   -1    0    0    0  501 -0.00000000000E+00  0.00000000000E+00  0.21097574801E+02  0.21097574801E+02  0.00000000000E+00 0.  1.
          1   -1    0    0  501    0  0.00000000000E+00 -0.00000000000E+00 -0.58143724026E+03  0.58143724026E+03  0.00000000000E+00 0. -1.
         25    2    1    2    0    0  0.16350988884E+02  0.11293130923E+02 -0.28778751732E+03  0.31442023477E+03  0.12507413506E+03 0.  0.
          5    1    3    3  502    0  0.29932976754E+02 -0.31005550014E+02 -0.29705773423E+02  0.52509357296E+02  0.41800000000E+01 0.  1.
         -5    1    3    3    0  502 -0.13581987871E+02  0.42298680937E+02 -0.25808174390E+03  0.26191087747E+03  0.41800000000E+01 0.  1.
        -11    1    1    2    0    0  0.99397354996E+01 -0.42385438581E+02 -0.77809789162E+02  0.89161017462E+02  0.00000000000E+00 0.  1.
         11    1    1    2    0    0 -0.26290724384E+02  0.31092307659E+02 -0.19474235897E+03  0.19895356283E+03  0.00000000000E+00 0. -1.
</event>
<event>
 7    1  0.2380582E-009  0.2390018E+03  0.7561462E-02  0.1120460E+00
          2   -1    0    0  501    0  0.00000000000E+00  0.00000000000E+00  0.68800982887E+03  0.68800982887E+03  0.00000000000E+00 0.  1.
         -2   -1    0    0    0  501 -0.00000000000E+00 -0.00000000000E+00 -0.96510296590E+02  0.96510296590E+02  0.00000000000E+00 0. -1.
         25    2    1    2    0    0  0.22125583992E+03  0.13824079722E+02  0.19179996161E+03  0.31871565769E+03  0.12508874173E+03 0.  0.
          5    1    3    3  502    0  0.31307788852E+02 -0.41673189754E+02  0.65934705888E+02  0.84152779085E+02  0.41800000000E+01 0.  1.
         -5    1    3    3    0  502  0.18994805107E+03  0.55497269476E+02  0.12586525572E+03  0.23456287861E+03  0.41800000000E+01 0.  1.
        -11    1    1    2    0    0 -0.47352309818E+02 -0.24944437268E+02  0.42417097320E+02  0.68291114654E+02  0.00000000000E+00 0. -1.
         11    1    1    2    0    0 -0.17390353011E+03  0.11120357547E+02  0.35728247336E+03  0.39751335312E+03  0.00000000000E+00 0.  1.
</event>
<event>
 7    1  0.2380582E-009  0.1044202E+03  0.7561462E-02  0.1271266E+00
          1   -1    0    0  501    0  0.00000000000E+00  0.00000000000E+00  0.14867148266E+03  0.14867148266E+03  0.00000000000E+00 0. -1.
         -1   -1    0    0    0  501 -0.00000000000E+00 -0.00000000000E+00 -0.10631733647E+03  0.10631733647E+03  0.00000000000E+00 0.  1.
         25    2    1    2    0    0 -0.34410352503E+02  0.52560938875E+02  0.14458767636E+02  0.14073151802E+03  0.12509827955E+03 0.  0.
          5    1    3    3  502    0  0.27732929551E+02  0.69869373492E+02  0.58192545702E+01  0.75512786052E+02  0.41800000000E+01 0.  1.
         -5    1    3    3    0  502 -0.62143282053E+02 -0.17308434617E+02  0.86395130658E+01  0.65218731966E+02  0.41800000000E+01 0.  1.
        -11    1    1    2    0    0  0.36366817708E+02 -0.32563029282E+02  0.59403530854E+02  0.76887422796E+02  0.00000000000E+00 0. -1.
         11    1    1    2    0    0 -0.19564652059E+01 -0.19997909592E+02 -0.31508152295E+02  0.37369878314E+02  0.00000000000E+00 0.  1.
</event>
<event>
 7    1  0.2380582E-009  0.8837182E+02  0.7561462E-02  0.1306843E+00
         -1   -1    0    0    0  501 -0.00000000000E+00  0.00000000000E+00  0.37281389043E+03  0.37281389043E+03  0.00000000000E+00 0.  1.
          1   -1    0    0  501    0  0.00000000000E+00 -0.00000000000E+00 -0.39892917662E+02  0.39892917662E+02  0.00000000000E+00 0. -1.
         25    2    1    2    0    0 -0.34853794403E+02 -0.84243374195E+01  0.26326202300E+03  0.29366595861E+03  0.12508815311E+03 0.  0.
          5    1    3    3  502    0 -0.56797852364E+02 -0.99936871183E+01  0.26497161572E+03  0.27120711524E+03  0.41800000000E+01 0. -1.
         -5    1    3    3    0  502  0.21944057961E+02  0.15693496989E+01 -0.17095927274E+01  0.22458843371E+02  0.41800000000E+01 0. -1.
        -11    1    1    2    0    0  0.62811780737E+02 -0.91954204063E+01  0.46278097613E+02  0.78559136162E+02  0.00000000000E+00 0.  1.
         11    1    1    2    0    0 -0.27957986334E+02  0.17619757826E+02  0.23380852153E+02  0.40481713317E+02  0.00000000000E+00 0. -1.
</event>
<event>
 7    1  0.2380582E-009  0.1283197E+03  0.7561462E-02  0.1229970E+00
          2   -1    0    0  501    0  0.00000000000E+00  0.00000000000E+00  0.87531953137E+02  0.87531953137E+02  0.00000000000E+00 0. -1.
         -2   -1    0    0    0  501 -0.00000000000E+00 -0.00000000000E+00 -0.21970999011E+03  0.21970999011E+03  0.00000000000E+00 0.  1.
         25    2    1    2    0    0 -0.74711982969E+02  0.41415339712E+02 -0.80088227279E+02  0.17134244504E+03  0.12508796329E+03 0.  0.
          5    1    3    3  502    0 -0.38897838592E+02  0.81796844613E+02 -0.73669427007E+02  0.11682646323E+03  0.41800000000E+01 0.  1.
         -5    1    3    3    0  502 -0.35814144378E+02 -0.40381504901E+02 -0.64188002718E+01  0.54515981808E+02  0.41800000000E+01 0.  1.
        -11    1    1    2    0    0  0.73579830410E+02 -0.32521293644E+01 -0.62201384265E+02  0.96403215678E+02  0.00000000000E+00 0.  1.
         11    1    1    2    0    0  0.11321525592E+01 -0.38163210347E+02  0.10111574570E+02  0.39496282530E+02  0.00000000000E+00 0. -1.
</event>
<event>
 7    1  0.2380582E-009  0.7809149E+02  0.7561462E-02  0.1334556E+00
         -1   -1    0    0    0  501 -0.00000000000E+00  0.00000000000E+00  0.14397215260E+03  0.14397215260E+03  0.00000000000E+00 0.  1.
          1   -1    0    0  501    0  0.00000000000E+00 -0.00000000000E+00 -0.93447117212E+02  0.93447117212E+02  0.00000000000E+00 0. -1.
         25    2    1    2    0    0 -0.76328666861E+01  0.35584088988E+02  0.78784230924E+01  0.13050565843E+03  0.12508065114E+03 0.  0.
          5    1    3    3  502    0 -0.24883586514E+02  0.70819193047E+02  0.34696828312E+02  0.82800321718E+02  0.41800000000E+01 0.  1.
         -5    1    3    3    0  502  0.17250719828E+02 -0.35235104059E+02 -0.26818405220E+02  0.47705336716E+02  0.41800000000E+01 0.  1.
        -11    1    1    2    0    0  0.13947936203E+02 -0.17400992562E+02  0.69999919741E+02  0.73466510944E+02  0.00000000000E+00 0.  1.
         11    1    1    2    0    0 -0.63150695172E+01 -0.18183096426E+02 -0.27353307451E+02  0.33447100430E+02  0.00000000000E+00 0. -1.
</event>
<event>
 7    1  0.2380582E-009  0.1197016E+03  0.7561462E-02  0.1243590E+00
         -2   -1    0    0    0  501 -0.00000000000E+00  0.00000000000E+00  0.26413334663E+02  0.26413334663E+02  0.00000000000E+00 0.  1.
          2   -1    0    0  501    0  0.00000000000E+00 -0.00000000000E+00 -0.57187091497E+03  0.57187091497E+03  0.00000000000E+00 0. -1.
         25    2    1    2    0    0 -0.37052270045E+02  0.43720456373E+02 -0.29300012456E+03  0.32370663026E+03  0.12511019330E+03 0.  0.
          5    1    3    3  502    0  0.80739936918E+01 -0.37583257759E+02 -0.13396942913E+03  0.13943805427E+03  0.41800000000E+01 0.  1.
         -5    1    3    3    0  502 -0.45126263737E+02  0.81303714132E+02 -0.15903069543E+03  0.18426857599E+03  0.41800000000E+01 0.  1.
        -11    1    1    2    0    0  0.40399829172E+01 -0.67087518830E+02 -0.14722118107E+03  0.16183674737E+03  0.00000000000E+00 0.  1.
         11    1    1    2    0    0  0.33012287128E+02  0.23367062457E+02 -0.10523627469E+03  0.11274087200E+03  0.00000000000E+00 0. -1.
</event>
<event>
 7    1  0.2380582E-009  0.1864322E+03  0.7561462E-02  0.1161719E+00
          1   -1    0    0  501    0  0.00000000000E+00  0.00000000000E+00  0.90186882103E+03  0.90186882103E+03  0.00000000000E+00 0. -1.
         -1   -1    0    0    0  501 -0.00000000000E+00 -0.00000000000E+00 -0.49899822397E+02  0.49899822397E+02  0.00000000000E+00 0.  1.
         25    2    1    2    0    0  0.10881581697E+03 -0.10450552926E+03  0.66637873059E+03  0.69460203431E+03  0.12509630615E+03 0.  0.
          5    1    3    3  502    0  0.12818208022E+03 -0.11515318866E+03  0.61054816192E+03  0.63441109146E+03  0.41800000000E+01 0. -1.
         -5    1    3    3    0  502 -0.19366263243E+02  0.10647659400E+02  0.55830568677E+02  0.60190942852E+02  0.41800000000E+01 0. -1.
        -11    1    1    2    0    0 -0.57713990770E+02  0.11235368520E+03  0.13055671058E+03  0.18165712203E+03  0.00000000000E+00 0. -1.
         11    1    1    2    0    0 -0.51101826203E+02 -0.78481559381E+01  0.55033557466E+02  0.75509487088E+02  0.00000000000E+00 0.  1.
</event>
<event>
 7    1  0.2380582E-009  0.1067067E+03  0.7561462E-02  0.1266793E+00
          2   -1    0    0  501    0  0.00000000000E+00  0.00000000000E+00  0.40551608158E+03  0.40551608158E+03  0.00000000000E+00 0. -1.
         -2   -1    0    0    0  501 -0.00000000000E+00 -0.00000000000E+00 -0.49146542378E+02  0.49146542378E+02  0.00000000000E+00 0.  1.
         25    2    1    2    0    0 -0.42305084597E+02  0.32403197493E+00  0.32188402227E+03  0.34791796583E+03  0.12509101478E+03 0.  0.
          5    1    3    3  502    0 -0.86018720257E+02 -0.23407691207E+01  0.23948786803E+03  0.25451249629E+03  0.41800000000E+01 0. -1.
         -5    1    3    3    0  502  0.43713635660E+02  0.26648010956E+01  0.82396154233E+02  0.93405469540E+02  0.41800000000E+01 0. -1.
        -11    1    1    2    0    0  0.23515487857E+02  0.35635459417E+02 -0.12671752872E+02  0.44535799733E+02  0.00000000000E+00 0.  1.
         11    1    1    2    0    0  0.18789596740E+02 -0.35959491392E+02  0.47157269810E+02  0.62208858394E+02  0.00000000000E+00 0. -1.
</event>
<event>
 7    1  0.2380582E-009  0.6947690E+02  0.7561462E-02  0.1361881E+00
         -1   -1    0    0    0  501 -0.00000000000E+00  0.00000000000E+00  0.36049424343E+02  0.36049424343E+02  0.00000000000E+00 0.  1.
          1   -1    0    0  501    0  0.00000000000E+00 -0.00000000000E+00 -0.46566444545E+03  0.46566444545E+03  0.00000000000E+00 0. -1.
         25    2    1    2    0    0  0.22113994105E+02 -0.14648507782E+02 -0.13178466184E+03  0.18361832027E+03  0.12507950642E+03 0.  0.
          5    1    3    3  502    0  0.92607731229E+01 -0.13056981383E+02 -0.15544514339E+03  0.15632310030E+03  0.41800000000E+01 0. -1.
         -5    1    3    3    0  502  0.12853220982E+02 -0.15915263989E+01  0.23660481553E+02  0.27295219970E+02  0.41800000000E+01 0. -1.
        -11    1    1    2    0    0  0.25194481175E+02  0.45718671048E+02 -0.10709683486E+03  0.11914147389E+03  0.00000000000E+00 0.  1.
         11    1    1    2    0    0 -0.47308475279E+02 -0.31070163267E+02 -0.19073352441E+03  0.19895407564E+03  0.00000000000E+00 0. -1.
</event>
<event>
 7    1  0.2380582E-009  0.1221093E+03  0.7561462E-02  0.1239657E+00
          2   -1    0    0  501    0  0.00000000000E+00  0.00000000000E+00  0.39911293723E+03  0.39911293723E+03  0.00000000000E+00 0. -1.
         -2   -1    0    0    0  501 -0.00000000000E+00 -0.00000000000E+00 -0.71785362141E+02  0.71785362141E+02  0.00000000000E+00 0.  1.
         25    2    1    2    0    0  0.46334192595E+02 -0.10276623962E+03  0.26089558736E+03  0.31051816746E+03  0.12508903793E+03 0.  0.
          5    1    3    3  502    0  0.11986381790E+02 -0.92159280029E+02  0.25794436461E+03  0.27420753797E+03  0.41800000000E+01 0.  1.
         -5    1    3    3    0  502  0.34347810805E+02 -0.10606959588E+02  0.29512227561E+01  0.36310629498E+02  0.41800000000E+01 0.  1.
        -11    1    1    2    0    0 -0.42339824479E+02  0.68700498305E+02  0.88363727984E+02  0.11966857410E+03  0.00000000000E+00 0. -1.
         11    1    1    2    0    0 -0.39943681158E+01  0.34065741312E+02 -0.21931740262E+02  0.40711557803E+02  0.00000000000E+00 0.  1.
</event>
<event>
 7    1  0.2380582E-009  0.9818069E+02  0.7561462E-02  0.1284169E+00
         -2   -1    0    0    0  501 -0.00000000000E+00  0.00000000000E+00  0.17749754685E+03  0.17749754685E+03  0.00000000000E+00 0.  1.
          2   -1    0    0  501    0  0.00000000000E+00 -0.00000000000E+00 -0.85966883132E+02  0.85966883132E+02  0.00000000000E+00 0. -1.
         25    2    1    2    0    0  0.25747487117E+02  0.26256652335E+02  0.10206969153E+03  0.16558446475E+03  0.12509055980E+03 0.  0.
          5    1    3    3  502    0  0.31958696716E+02 -0.29484771406E+02 -0.56692846513E+01  0.44049100208E+02  0.41800000000E+01 0.  1.
         -5    1    3    3    0  502 -0.62112095991E+01  0.55741423741E+02  0.10773897618E+03  0.12153536454E+03  0.41800000000E+01 0.  1.
        -11    1    1    2    0    0 -0.49116934784E+02 -0.44896088776E+02 -0.11730256785E+01  0.66554549500E+02  0.00000000000E+00 0.  1.
         11    1    1    2    0    0  0.23369447667E+02  0.18639436441E+02 -0.93660021320E+01  0.31325415736E+02  0.00000000000E+00 0. -1.
</event>
<event>
 7    1  0.2380582E-009  0.1360210E+03  0.7561462E-02  0.1218786E+00
         -2   -1    0    0    0  501 -0.00000000000E+00  0.00000000000E+00  0.13844826278E+03  0.13844826278E+03  0.00000000000E+00 0.  1.
          2   -1    0    0  501    0  0.00000000000E+00 -0.00000000000E+00 -0.14609986641E+03  0.14609986641E+03  0.00000000000E+00 0. -1.
         25    2    1    2    0    0  0.52555762553E+02  0.69557364188E+02 -0.32761937664E+02  0.15595479263E+03  0.12509283631E+03 0.  0.
          5    1    3    3  502    0 -0.84007413755E+01 -0.30721706882E+02  0.52071756149E+01  0.32542016030E+02  0.41800000000E+01 0.  1.
         -5    1    3    3    0  502  0.60956503928E+02  0.10027907107E+03 -0.37969113279E+02  0.12341277660E+03  0.41800000000E+01 0.  1.
        -11    1    1    2    0    0 -0.12504959603E+02 -0.80105704312E+02  0.30918910875E+02  0.86771406164E+02  0.00000000000E+00 0. -1.
         11    1    1    2    0    0 -0.40050802950E+02  0.10548340124E+02 -0.58085768411E+01  0.41821930386E+02  0.00000000000E+00 0.  1.
</event>
<event>
 7    1  0.2380582E-009  0.1074698E+03  0.7561462E-02  0.1265329E+00
         -1   -1    0    0    0  501 -0.00000000000E+00  0.00000000000E+00  0.88912130068E+02  0.88912130068E+02  0.00000000000E+00 0.  1.
          1   -1    0    0  501    0  0.00000000000E+00 -0.00000000000E+00 -0.14715420532E+03  0.14715420532E+03  0.00000000000E+00 0. -1.
         25    2    1    2    0    0  0.95266701937E+01 -0.17937370374E+02 -0.70245361592E+02  0.14489351267E+03  0.12508881840E+03 0.  0.
          5    1    3    3  502    0  0.15999501869E+02 -0.71058841611E+02 -0.37735296440E+02  0.82138712119E+02  0.41800000000E+01 0. -1.
         -5    1    3    3    0  502 -0.64728316748E+01  0.53121471237E+02 -0.32510065152E+02  0.62754800553E+02  0.41800000000E+01 0. -1.
        -11    1    1    2    0    0 -0.38184276994E+02 -0.18103844825E+02 -0.39470905055E+01  0.42442522669E+02  0.00000000000E+00 0.  1.
         11    1    1    2    0    0  0.28657606801E+02  0.36041215199E+02  0.15950376850E+02  0.48730300042E+02  0.00000000000E+00 0. -1.
</event>
<event>
 7    1  0.2380582E-009  0.1218866E+03  0.7561462E-02  0.1240017E+00
         -2   -1    0    0    0  501 -0.00000000000E+00  0.00000000000E+00  0.21460859415E+03  0.21460859415E+03  0.00000000000E+00 0.  1.
          2   -1    0    0  501    0  0.00000000000E+00 -0.00000000000E+00 -0.88065735086E+02  0.88065735086E+02  0.00000000000E+00 0. -1.
         25    2    1    2    0    0 -0.64136558783E+01 -0.69408766042E+02  0.21211875747E+02  0.14476283929E+03  0.12509046399E+03 0.  0.
          5    1    3    3  502    0 -0.38708697430E+02  0.12161385579E+02 -0.22578934094E+02  0.46621274337E+02  0.41800000000E+01 0.  1.
         -5    1    3    3    0  502  0.32295041552E+02 -0.81570151622E+02  0.43790809840E+02  0.98141564951E+02  0.41800000000E+01 0.  1.
        -11    1    1    2    0    0 -0.42560488298E+02  0.27277351764E+02  0.30449370810E+02  0.59013670163E+02  0.00000000000E+00 0. -1.
         11    1    1    2    0    0  0.48974144176E+02  0.42131414278E+02  0.74881612510E+02  0.98897819789E+02  0.00000000000E+00 0.  1.
</event>
<event>
 7    1  0.2380582E-009  0.8665354E+02  0.7561462E-02  0.1311164E+00
         -2   -1    0    0    0  501 -0.00000000000E+00  0.00000000000E+00  0.22978153047E+02  0.22978153047E+02  0.00000000000E+00 0.  1.
          2   -1    0    0  501    0  0.00000000000E+00 -0.00000000000E+00 -0.74695091685E+03  0.74695091685E+03  0.00000000000E+00 0. -1.
         25    2    1    2    0    0  0.16921578202E+02 -0.30682542265E+02 -0.54220597692E+03  0.55754976903E+03  0.12508663130E+03 0.  0.
          5    1    3    3  502    0 -0.25892737005E+02 -0.60986635426E+01 -0.21409028714E+02  0.34401256330E+02  0.41800000000E+01 0. -1.
         -5    1    3    3    0  502  0.42814315207E+02 -0.24583878722E+02 -0.52079694821E+03  0.52314851270E+03  0.41800000000E+01 0. -1.
        -11    1    1    2    0    0 -0.49476246473E+02  0.39267101567E+02 -0.64106495364E+02  0.89996927605E+02  0.00000000000E+00 0.  1.
         11    1    1    2    0    0  0.32554668271E+02 -0.85845593019E+01 -0.11766029152E+03  0.12238237326E+03  0.00000000000E+00 0. -1.
</event>
<event>
 7    1  0.2380582E-009  0.1343616E+03  0.7561462E-02  0.1221124E+00
          1   -1    0    0  501    0  0.00000000000E+00  0.00000000000E+00  0.26296138925E+03  0.26296138925E+03  0.00000000000E+00 0. -1.
         -1   -1    0    0    0  501 -0.00000000000E+00 -0.00000000000E+00 -0.89502247426E+02  0.89502247426E+02  0.00000000000E+00 0.  1.
         25    2    1    2    0    0 -0.96661656439E+02  0.44328090440E+02  0.74341714853E+02  0.18022981513E+03  0.12509052829E+03 0.  0.
          5    1    3    3  502    0 -0.10698546363E+03  0.74233100720E+02  0.47980922417E+02  0.13883833760E+03  0.41800000000E+01 0. -1.
         -5    1    3    3    0  502  0.10323807193E+02 -0.29905010280E+02  0.26360792436E+02  0.41391477536E+02  0.41800000000E+01 0. -1.
        -11    1    1    2    0    0  0.14331104899E+02 -0.91038409899E+01 -0.18039466462E+02  0.24772622764E+02  0.00000000000E+00 0.  1.
         11    1    1    2    0    0  0.82330551539E+02 -0.35224249450E+02  0.11715689343E+03  0.14746119877E+03  0.00000000000E+00 0. -1.
</event>
<event>
 7    1  0.2380582E-009  0.1101970E+03  0.7561462E-02  0.1260206E+00
          2   -1    0    0  501    0  0.00000000000E+00  0.00000000000E+00  0.13754936804E+03  0.13754936804E+03  0.00000000000E+00 0. -1.
         -2   -1    0    0    0  501 -0.00000000000E+00 -0.00000000000E+00 -0.12964905972E+03  0.12964905972E+03  0.00000000000E+00 0.  1.
         25    2    1    2    0    0 -0.69636042959E+02  0.30230591153E+02  0.41553610193E+02  0.15211171136E+03  0.12509277794E+03 0.  0.
          5    1    3    3  502    0 -0.78758889176E+02 -0.22335644837E+02  0.52696249900E+02  0.97448503365E+02  0.41800000000E+01 0. -1.
         -5    1    3    3    0  502  0.91228462166E+01  0.52566235990E+02 -0.11142639707E+02  0.54663208000E+02  0.41800000000E+01 0. -1.
        -11    1    1    2    0    0  0.42298689442E+02 -0.37599279549E+02 -0.55544741644E+02  0.79297561598E+02  0.00000000000E+00 0.  1.
         11    1    1    2    0    0  0.27337353517E+02  0.73686883961E+01  0.21891439772E+02  0.35789154800E+02  0.00000000000E+00 0. -1.
</event>
<event>
 7    1  0.2380582E-009  0.6541993E+02  0.7561462E-02  0.1376399E+00
          4   -1    0    0  501    0  0.00000000000E+00  0.00000000000E+00  0.63579802631E+02  0.63579802631E+02  0.00000000000E+00 0. -1.
         -4   -1    0    0    0  501 -0.00000000000E+00 -0.00000000000E+00 -0.21115663941E+03  0.21115663941E+03  0.00000000000E+00 0.  1.
         25    2    1    2    0    0 -0.22033932496E+02 -0.62956183433E+01 -0.42256346966E+02  0.13400833841E+03  0.12508999526E+03 0.  0.
          5    1    3    3  502    0 -0.91611639065E+01 -0.26742980653E+02  0.39444066464E+02  0.48707501656E+02  0.41800000000E+01 0. -1.
         -5    1    3    3    0  502 -0.12872768589E+02  0.20447362310E+02 -0.81700413430E+02  0.85300836756E+02  0.41800000000E+01 0. -1.
        -11    1    1    2    0    0  0.24783676595E+02  0.38300756348E+02 -0.97532667953E+02  0.10767450896E+03  0.00000000000E+00 0.  1.
         11    1    1    2    0    0 -0.27497440987E+01 -0.32005138004E+02 -0.77878218639E+01  0.33053594671E+02  0.00000000000E+00 0. -1.
</event>
<event>
 7    1  0.2380582E-009  0.1171771E+03  0.7561462E-02  0.1247828E+00
          1   -1    0    0  501    0  0.00000000000E+00  0.00000000000E+00  0.41914886956E+03  0.41914886956E+03  0.00000000000E+00 0. -1.
         -1   -1    0    0    0  501 -0.00000000000E+00 -0.00000000000E+00 -0.50028769135E+02  0.50028769135E+02  0.00000000000E+00 0.  1.
         25    2    1    2    0    0  0.83629002485E+02 -0.36598285618E+02  0.17354335638E+03  0.23258803306E+03  0.12508657806E+03 0.  0.
          5    1    3    3  502    0  0.12576909441E+02 -0.31705040147E+02 -0.98989102339E+01  0.35760998946E+02  0.41800000000E+01 0.  1.
         -5    1    3    3    0  502  0.71052093045E+02 -0.48932454711E+01  0.18344226661E+03  0.19682703411E+03  0.41800000000E+01 0.  1.
        -11    1    1    2    0    0 -0.63164050458E+02 -0.21758398251E+02  0.70887129377E+02  0.97406931355E+02  0.00000000000E+00 0.  1.
         11    1    1    2    0    0 -0.20464952027E+02  0.58356683870E+02  0.12468961467E+03  0.13918267428E+03  0.00000000000E+00 0. -1.
</event>
<event>
 7    1  0.2380582E-009  0.1405529E+03  0.7561462E-02  0.1212587E+00
         -2   -1    0    0    0  501 -0.00000000000E+00  0.00000000000E+00  0.48485169535E+02  0.48485169535E+02  0.00000000000E+00 0.  1.
          2   -1    0    0  501    0  0.00000000000E+00 -0.00000000000E+00 -0.78551490608E+03  0.78551490608E+03  0.00000000000E+00 0. -1.
         25    2    1    2    0    0 -0.92171777069E+02 -0.72766535792E+02 -0.62338171487E+03  0.64656239035E+03  0.12509019528E+03 0.  0.
          5    1    3    3  502    0 -0.11536351090E+03 -0.40185090976E+02 -0.36136865157E+03  0.38148178977E+03  0.41800000000E+01 0. -1.
         -5    1    3    3    0  502  0.23191733833E+02 -0.32581444816E+02 -0.26201306330E+03  0.26508060058E+03  0.41800000000E+01 0. -1.
        -11    1    1    2    0    0  0.32710071827E+02  0.15840890980E+02 -0.96821095759E+02  0.10341763491E+03  0.00000000000E+00 0. -1.
         11    1    1    2    0    0  0.59461705242E+02  0.56925644812E+02 -0.16826925919E+02  0.84020050366E+02  0.00000000000E+00 0.  1.
</event>
<event>
 7    1  0.2380582E-009  0.1455105E+03  0.7561462E-02  0.1206101E+00
          1   -1    0    0  501    0  0.00000000000E+00  0.00000000000E+00  0.38414918104E+03  0.38414918104E+03  0.00000000000E+00 0. -1.
         -1   -1    0    0    0  501 -0.00000000000E+00 -0.00000000000E+00 -0.72924715633E+02  0.72924715633E+02  0.00000000000E+00 0.  1.
         25    2    1    2    0    0  0.11908942572E+03 -0.37053865922E+02  0.20094077085E+03  0.26754583779E+03  0.12509317180E+03 0.  0.
          5    1    3    3  502    0  0.14725852281E+02 -0.40350409412E+02  0.24480107741E+01  0.43225818926E+02  0.41800000000E+01 0.  1.
         -5    1    3    3    0  502  0.10436357344E+03  0.32965434896E+01  0.19849276008E+03  0.22432001886E+03  0.41800000000E+01 0.  1.
        -11    1    1    2    0    0 -0.11716671034E+03  0.11489494906E+02  0.57875344917E+02  0.13118537286E+03  0.00000000000E+00 0.  1.
         11    1    1    2    0    0 -0.19227153842E+01  0.25564371016E+02  0.52408349638E+02  0.58342686017E+02  0.00000000000E+00 0. -1.
</event>
<event>
 7    1  0.2380582E-009  0.1996171E+03  0.7561462E-02  0.1150062E+00
         -1   -1    0    0    0  501 -0.00000000000E+00  0.00000000000E+00  0.12716507812E+03  0.12716507812E+03  0.00000000000E+00 0.  1.
          1   -1    0    0  501    0  0.00000000000E+00 -0.00000000000E+00 -0.42819338753E+03  0.42819338753E+03  0.00000000000E+00 0. -1.
         25    2    1    2    0    0  0.76217367889E+02  0.17094842007E+03 -0.25663780955E+03  0.34138352543E+03  0.12508915481E+03 0.  0.
          5    1    3    3  502    0  0.14577620865E+01 -0.12275591144E+02 -0.63524426564E+02  0.64850908849E+02  0.41800000000E+01 0. -1.
         -5    1    3    3    0  502  0.74759605803E+02  0.18322401121E+03 -0.19311338299E+03  0.27653261658E+03  0.41800000000E+01 0. -1.
        -11    1    1    2    0    0 -0.37838697597E+02 -0.60845106957E+02  0.27778117425E+02  0.76847367451E+02  0.00000000000E+00 0.  1.
         11    1    1    2    0    0 -0.38378670292E+02 -0.11010331311E+03 -0.72168617279E+02  0.13712757276E+03  0.00000000000E+00 0. -1.
</event>
<event>
 7    1  0.2380582E-009  0.1162543E+03  0.7561462E-02  0.1249407E+00
          1   -1    0    0  501    0  0.00000000000E+00  0.00000000000E+00  0.42005309881E+03  0.42005309881E+03  0.00000000000E+00 0. -1.
         -1   -1    0    0    0  501 -0.00000000000E+00 -0.00000000000E+00 -0.40160911629E+02  0.40160911629E+02  0.00000000000E+00 0.  1.
         25    2    1    2    0    0  0.34796091467E+02  0.63023591297E+02  0.22075644737E+03  0.26374905285E+03  0.12508961901E+03 0.  0.
          5    1    3    3  502    0 -0.16766804701E+02  0.71736719679E+02  0.61444315304E+02  0.96021658876E+02  0.41800000000E+01 0.  1.
         -5    1    3    3    0  502  0.51562896168E+02 -0.87131283823E+01  0.15931213206E+03  0.16772739398E+03  0.41800000000E+01 0.  1.
        -11    1    1    2    0    0 -0.32734574215E+02 -0.81416797247E+02  0.15401822302E+03  0.17726212299E+03  0.00000000000E+00 0. -1.
         11    1    1    2    0    0 -0.20615172520E+01  0.18393205951E+02  0.51175167895E+01  0.19202834598E+02  0.00000000000E+00 0.  1.
</event>
<event>
 7    1  0.2380582E-009  0.1047732E+03  0.7561462E-02  0.1270567E+00
         -2   -1    0    0    0  501 -0.00000000000E+00  0.00000000000E+00  0.47405106774E+02  0.47405106774E+02  0.00000000000E+00 0.  1.
          2   -1    0    0  501    0  0.00000000000E+00 -0.00000000000E+00 -0.51447106506E+03  0.51447106506E+03  0.00000000000E+00 0. -1.
         25    2    1    2    0    0  0.52681699547E+02  0.57609335114E+02 -0.10935181779E+03  0.18357485503E+03  0.12509080856E+03 0.  0.
          5    1    3    3  502    0  0.24054296091E+02 -0.16100166702E+02  0.17467564886E+02  0.34064831591E+02  0.41800000000E+01 0.  1.
         -5    1    3    3    0  502  0.28627403456E+02  0.73709501816E+02 -0.12681938267E+03  0.14951002344E+03  0.41800000000E+01 0.  1.
        -11    1    1    2    0    0 -0.14691492824E+02  0.13847548596E+02 -0.12538695988E+02  0.23765804438E+02  0.00000000000E+00 0.  1.
         11    1    1    2    0    0 -0.37990206723E+02 -0.71456883709E+02 -0.34517544451E+03  0.35453551237E+03  0.00000000000E+00 0. -1.
</event>
<event>
 7    1  0.2380582E-009  0.2038567E+03  0.7561462E-02  0.1146525E+00
          1   -1    0    0  501    0  0.00000000000E+00  0.00000000000E+00  0.11184947653E+03  0.11184947653E+03  0.00000000000E+00 0. -1.
         -1   -1    0    0    0  501 -0.00000000000E+00 -0.00000000000E+00 -0.46693184520E+03  0.46693184520E+03  0.00000000000E+00 0.  1.
         25    2    1    2    0    0 -0.22510548352E+02  0.19407492305E+03 -0.25188599694E+03  0.34244135056E+03  0.12509085728E+03 0.  0.
          5    1    3    3  502    0 -0.79981050758E+01  0.50182490014E+01 -0.97070741588E+02  0.97618409024E+02  0.41800000000E+01 0.  1.
         -5    1    3    3    0  502 -0.14512443277E+02  0.18905667405E+03 -0.15481525535E+03  0.24482294154E+03  0.41800000000E+01 0.  1.
        -11    1    1    2    0    0  0.48273233215E+02 -0.12359719293E+03 -0.41010633016E+02  0.13888283971E+03  0.00000000000E+00 0. -1.
         11    1    1    2    0    0 -0.25762684863E+02 -0.70477730124E+02 -0.62185738710E+02  0.97457131467E+02  0.00000000000E+00 0.  1.
</event>
<event>
 7    1  0.2380582E-009  0.1498234E+03  0.7561462E-02  0.1200690E+00
          1   -1    0    0  501    0  0.00000000000E+00  0.00000000000E+00  0.71257038656E+03  0.71257038656E+03  0.00000000000E+00 0. -1.
         -1   -1    0    0    0  501 -0.00000000000E+00 -0.00000000000E+00 -0.38460501480E+02  0.38460501480E+02  0.00000000000E+00 0.  1.
         25    2    1    2    0    0 -0.55473075531E+01  0.12095995691E+03  0.42300129203E+03  0.45742693759E+03  0.12508887390E+03 0.  0.
          5    1    3    3  502    0 -0.51097922873E+02  0.29081013246E+02  0.24466916219E+03  0.25166877911E+03  0.41800000000E+01 0.  1.
         -5    1    3    3    0  502  0.45550615320E+02  0.91878943665E+02  0.17833212984E+03  0.20575815848E+03  0.41800000000E+01 0.  1.
        -11    1    1    2    0    0  0.26242862721E+02 -0.11281716445E+03  0.24426257453E+03  0.27033424821E+03  0.00000000000E+00 0. -1.
         11    1    1    2    0    0 -0.20695555168E+02 -0.81427924588E+01  0.68460185120E+01  0.23269702237E+02  0.00000000000E+00 0.  1.
</event>
<event>
 7    1  0.2380582E-009  0.1290158E+03  0.7561462E-02  0.1228923E+00
         -1   -1    0    0    0  501 -0.00000000000E+00  0.00000000000E+00  0.38118869810E+03  0.38118869810E+03  0.00000000000E+00 0.  1.
          1   -1    0    0  501    0  0.00000000000E+00 -0.00000000000E+00 -0.65046359815E+02  0.65046359815E+02  0.00000000000E+00 0. -1.
         25    2    1    2    0    0 -0.92285015764E+02  0.16672308803E+02  0.78931699582E+02  0.17513229050E+03  0.12508643397E+03 0.  0.
          5    1    3    3  502    0  0.26783264011E+02  0.15728069611E+01  0.41025516190E+02  0.49197381347E+02  0.41800000000E+01 0. -1.
         -5    1    3    3    0  502 -0.11906827977E+03  0.15099501842E+02  0.37906183392E+02  0.12593490915E+03  0.41800000000E+01 0. -1.
        -11    1    1    2    0    0  0.34431379863E+02 -0.35973394274E+02  0.37639408138E+02  0.62420590031E+02  0.00000000000E+00 0. -1.
         11    1    1    2    0    0  0.57853635901E+02  0.19301085471E+02  0.19957123057E+03  0.20868217738E+03  0.00000000000E+00 0.  1.
</event>
<event>
 7    1  0.2380582E-009  0.1285350E+03  0.7561462E-02  0.1229646E+00
         -1   -1    0    0    0  501 -0.00000000000E+00  0.00000000000E+00  0.12733122020E+03  0.12733122020E+03  0.00000000000E+00 0.  1.
          1   -1    0    0  501    0  0.00000000000E+00 -0.00000000000E+00 -0.17968266916E+03  0.17968266916E+03  0.00000000000E+00 0. -1.
         25    2    1    2    0    0 -0.48796848856E+02 -0.52802034947E+02 -0.10438483397E+03  0.17807916029E+03  0.12508719524E+03 0.  0.
          5    1    3    3  502    0  0.40048961068E+02 -0.29331824461E+02 -0.21503993573E+02  0.54260200409E+02  0.41800000000E+01 0. -1.
         -5    1    3    3    0  502 -0.88845809924E+02 -0.23470210485E+02 -0.82880840394E+02  0.12381895988E+03  0.41800000000E+01 0. -1.
        -11    1    1    2    0    0  0.39475726427E+02 -0.18330221374E+02  0.33263738541E+02  0.54779615682E+02  0.00000000000E+00 0.  1.
         11    1    1    2    0    0  0.93211224289E+01  0.71132256321E+02  0.18769646467E+02  0.74155113385E+02  0.00000000000E+00 0. -1.
</event>
<event>
 7    1  0.2380582E-009  0.1327630E+03  0.7561462E-02  0.1223413E+00
          1   -1    0    0  501    0  0.00000000000E+00  0.00000000000E+00  0.74368414075E+02  0.74368414075E+02  0.00000000000E+00 0. -1.
         -1   -1    0    0    0  501 -0.00000000000E+00 -0.00000000000E+00 -0.30871154877E+03  0.30871154877E+03  0.00000000000E+00 0.  1.
         25    2    1    2    0    0  0.88231831605E+02  0.48849591106E+02 -0.88367801065E+02  0.18337773107E+03  0.12508950927E+03 0.  0.
          5    1    3    3  502    0  0.11799739018E+03  0.21515734375E+02 -0.67744369366E+02  0.13781539426E+03  0.41800000000E+01 0. -1.
         -5    1    3    3    0  502 -0.29765558571E+02  0.27333856732E+02 -0.20623431699E+02  0.45562336814E+02  0.41800000000E+01 0. -1.
        -11    1    1    2    0    0 -0.23122588752E+02  0.58979294028E+00 -0.10638048258E+03  0.10886601417E+03  0.00000000000E+00 0.  1.
         11    1    1    2    0    0 -0.65109242853E+02 -0.49439384047E+02 -0.39594851053E+02  0.90836217610E+02  0.00000000000E+00 0. -1.
</event>
<event>
 7    1  0.2380582E-009  0.1882473E+03  0.7561462E-02  0.1160052E+00
         -1   -1    0    0    0  501 -0.00000000000E+00  0.00000000000E+00  0.16518280150E+03  0.16518280150E+03  0.00000000000E+00 0.  1.
          1   -1    0    0  501    0  0.00000000000E+00 -0.00000000000E+00 -0.35230681059E+03  0.35230681059E+03  0.00000000000E+00 0. -1.
         25    2    1    2    0    0  0.15855635116E+03 -0.97561207063E+02 -0.21275712300E+03  0.30914753548E+03  0.12509316404E+03 0.  0.
          5    1    3    3  502    0  0.15055479908E+03 -0.84482715454E+02 -0.10906940321E+03  0.20424907308E+03  0.41800000000E+01 0. -1.
         -5    1    3    3    0  502  0.80015520727E+01 -0.13078491609E+02 -0.10368771979E+03  0.10489846239E+03  0.41800000000E+01 0. -1.
        -11    1    1    2    0    0 -0.89173207098E+02  0.39876291988E+02 -0.30186829901E+02  0.10224101049E+03  0.00000000000E+00 0.  1.
         11    1    1    2    0    0 -0.69383144058E+02  0.57684915075E+02  0.55819943811E+02  0.10610106613E+03  0.00000000000E+00 0. -1.
</event>
<event>
 7    1  0.2380582E-009  0.1067460E+03  0.7561462E-02  0.1266717E+00
          1   -1    0    0  501    0  0.00000000000E+00  0.00000000000E+00  0.41831908353E+03  0.41831908353E+03  0.00000000000E+00 0. -1.
         -1   -1    0    0    0  501 -0.00000000000E+00 -0.00000000000E+00 -0.32819528321E+02  0.32819528321E+02  0.00000000000E+00 0.  1.
         25    2    1    2    0    0 -0.32674931004E+02  0.27300523861E+02  0.23710609701E+03  0.27144171821E+03  0.12509330688E+03 0.  0.
          5    1    3    3  502    0 -0.69784234191E+02  0.35982152973E+01  0.20545413592E+03  0.21705220768E+03  0.41800000000E+01 0.  1.
         -5    1    3    3    0  502  0.37109303187E+02  0.23702308564E+02  0.31651961092E+02  0.54389510526E+02  0.41800000000E+01 0.  1.
        -11    1    1    2    0    0 -0.22916901073E+02  0.16704336914E+02  0.60141632775E+02  0.66492369632E+02  0.00000000000E+00 0.  1.
         11    1    1    2    0    0  0.55591832077E+02 -0.44004860775E+02  0.88251825429E+02  0.11320452401E+03  0.00000000000E+00 0. -1.
</event>
<event>
 7    1  0.2380582E-009  0.1117912E+03  0.7561462E-02  0.1257288E+00
         -2   -1    0    0    0  501 -0.00000000000E+00  0.00000000000E+00  0.25530486529E+02  0.25530486529E+02  0.00000000000E+00 0. -1.
          2   -1    0    0  501    0  0.00000000000E+00 -0.00000000000E+00 -0.60192496767E+03  0.60192496767E+03  0.00000000000E+00 0.  1.
         25    2    1    2    0    0 -0.22930368317E+02 -0.23901421040E+02 -0.44332222210E+03  0.46182170010E+03  0.12509040873E+03 0.  0.
          5    1    3    3  502    0 -0.73711723575E+02 -0.21072900882E+02 -0.22984534445E+03  0.24233002313E+03  0.41800000000E+01 0.  1.
         -5    1    3    3    0  502  0.50781355259E+02 -0.28285201582E+01 -0.21347687765E+03  0.21949167697E+03  0.41800000000E+01 0.  1.
        -11    1    1    2    0    0  0.56850846888E+02  0.53287740663E+01 -0.98026089728E+02  0.11344394604E+03  0.00000000000E+00 0.  1.
         11    1    1    2    0    0 -0.33920478571E+02  0.18572646974E+02 -0.35046169305E+02  0.52189808057E+02  0.00000000000E+00 0. -1.
</event>
<event>
 7    1  0.3785535E-009  0.9236788E+02  0.7561462E-02  0.1297217E+00
         -2   -1    0    0    0  501 -0.00000000000E+00  0.00000000000E+00  0.38356184743E+02  0.38356184743E+02  0.00000000000E+00 0.  1.
          2   -1    0    0  501    0  0.00000000000E+00 -0.00000000000E+00 -0.54687801705E+03  0.54687801705E+03  0.00000000000E+00 0. -1.
         25    2    1    2    0    0  0.44492054954E+02  0.10166204622E+02 -0.44582223137E+03  0.46528322630E+03  0.12509246190E+03 0.  0.
          5    1    3    3  502    0  0.14286644461E+02 -0.34992863532E+02 -0.36979674960E+03  0.37174684548E+03  0.41800000000E+01 0. -1.
         -5    1    3    3    0  502  0.30205410493E+02  0.45159068154E+02 -0.76025481770E+02  0.93536380825E+02  0.41800000000E+01 0. -1.
        -11    1    1    2    0    0 -0.12915655618E+02  0.34887144258E+02 -0.90280009408E+00  0.37212122253E+02  0.00000000000E+00 0.  1.
         11    1    1    2    0    0 -0.31576399336E+02 -0.45053348880E+02 -0.61796800839E+02  0.82738853233E+02  0.00000000000E+00 0. -1.
</event>
<event>
 7    1  0.2380582E-009  0.1224689E+03  0.7561462E-02  0.1239079E+00
         -2   -1    0    0    0  501 -0.00000000000E+00  0.00000000000E+00  0.57003277156E+02  0.57003277156E+02  0.00000000000E+00 0.  1.
          2   -1    0    0  501    0  0.00000000000E+00 -0.00000000000E+00 -0.35792002301E+03  0.35792002301E+03  0.00000000000E+00 0. -1.
         25    2    1    2    0    0  0.45152070607E+02 -0.86334933267E+02 -0.12478524622E+03  0.20176442635E+03  0.12508035770E+03 0.  0.
          5    1    3    3  502    0 -0.12859831597E+02  0.18425901434E+02 -0.62858147500E+02  0.66884289781E+02  0.41800000000E+01 0. -1.
         -5    1    3    3    0  502  0.58011902204E+02 -0.10476083470E+03 -0.61927098718E+02  0.13488013657E+03  0.41800000000E+01 0. -1.
        -11    1    1    2    0    0 -0.17322918255E+02  0.64786400803E+02 -0.54131890560E+02  0.86183657392E+02  0.00000000000E+00 0.  1.
         11    1    1    2    0    0 -0.27829152352E+02  0.21548532463E+02 -0.12199960908E+03  0.12697521643E+03  0.00000000000E+00 0. -1.
</event>
<event>
 7    1  0.2380582E-009  0.1890678E+03  0.7561462E-02  0.1159305E+00
          2   -1    0    0  501    0  0.00000000000E+00  0.00000000000E+00  0.48655706460E+03  0.48655706460E+03  0.00000000000E+00 0. -1.
         -2   -1    0    0    0  501 -0.00000000000E+00 -0.00000000000E+00 -0.10106746697E+03  0.10106746697E+03  0.00000000000E+00 0.  1.
         25    2    1    2    0    0  0.23186126757E+02  0.17234117950E+03  0.31044539283E+03  0.37717710250E+03  0.12508855303E+03 0.  0.
          5    1    3    3  502    0 -0.23381539586E+02  0.12562032647E+03  0.27240759208E+03  0.30091615350E+03  0.41800000000E+01 0.  1.
         -5    1    3    3    0  502  0.46567666343E+02  0.46720853029E+02  0.38037800745E+02  0.76260948997E+02  0.41800000000E+01 0.  1.
        -11    1    1    2    0    0 -0.43669411927E+02 -0.10264345907E+03  0.80555797291E+02  0.13759336359E+03  0.00000000000E+00 0. -1.
         11    1    1    2    0    0  0.20483285170E+02 -0.69697720434E+02 -0.55115924803E+01  0.72854065478E+02  0.00000000000E+00 0.  1.
</event>
<event>
 7    1  0.2380582E-009  0.1346146E+03  0.7561462E-02  0.1220765E+00
         -2   -1    0    0    0  501 -0.00000000000E+00  0.00000000000E+00  0.33746461325E+02  0.33746461325E+02  0.00000000000E+00 0.  1.
          2   -1    0    0  501    0  0.00000000000E+00 -0.00000000000E+00 -0.11374921101E+04  0.11374921101E+04  0.00000000000E+00 0. -1.
         25    2    1    2    0    0  0.10136276505E+03  0.41032587411E+02 -0.94287510817E+03  0.95740292500E+03  0.12509519504E+03 0.  0.
          5    1    3    3  502    0  0.10812828080E+03  0.25794605310E+02 -0.92808285286E+03  0.93472581057E+03  0.41800000000E+01 0.  1.
         -5    1    3    3    0  502 -0.67655157444E+01  0.15237982100E+02 -0.14792255314E+02  0.22677114434E+02  0.41800000000E+01 0.  1.
        -11    1    1    2    0    0 -0.86369364433E+02 -0.68012606036E+02 -0.12848645097E+03  0.16909804782E+03  0.00000000000E+00 0. -1.
         11    1    1    2    0    0 -0.14993400618E+02  0.26980018626E+02 -0.32384089602E+02  0.44737598578E+02  0.00000000000E+00 0.  1.
</event>
<event>
 7    1  0.2380582E-009  0.1185373E+03  0.7561462E-02  0.1245530E+00
          1   -1    0    0  501    0  0.00000000000E+00  0.00000000000E+00  0.39211359769E+02  0.39211359769E+02  0.00000000000E+00 0. -1.
         -1   -1    0    0    0  501 -0.00000000000E+00 -0.00000000000E+00 -0.37619929196E+03  0.37619929196E+03  0.00000000000E+00 0.  1.
         25    2    1    2    0    0  0.42198502816E+02  0.34023886216E+02 -0.20604543152E+03  0.24706085357E+03  0.12508399996E+03 0.  0.
          5    1    3    3  502    0  0.47651019943E+02 -0.37462716256E+02 -0.12357702098E+03  0.13770558204E+03  0.41800000000E+01 0.  1.
         -5    1    3    3    0  502 -0.54525171267E+01  0.71486602472E+02 -0.82468410541E+02  0.10935527154E+03  0.41800000000E+01 0.  1.
        -11    1    1    2    0    0 -0.10115995371E+02 -0.61459700868E+02 -0.90699020037E+02  0.11002699864E+03  0.00000000000E+00 0.  1.
         11    1    1    2    0    0 -0.32082507446E+02  0.27435814652E+02 -0.40243480634E+02  0.58322799514E+02  0.00000000000E+00 0. -1.
</event>
<event>
 7    1  0.2380582E-009  0.1099768E+03  0.7561462E-02  0.1260613E+00
         -1   -1    0    0    0  501 -0.00000000000E+00  0.00000000000E+00  0.74577349658E+02  0.74577349658E+02  0.00000000000E+00 0.  1.
          1   -1    0    0  501    0  0.00000000000E+00 -0.00000000000E+00 -0.18896942525E+03  0.18896942525E+03  0.00000000000E+00 0. -1.
         25    2    1    2    0    0  0.18398551445E+02 -0.16735467348E+02 -0.10587452960E+03  0.16575701851E+03  0.12508953036E+03 0.  0.
          5    1    3    3  502    0 -0.35376183511E+02  0.35215532466E+02 -0.26644241673E+02  0.56736197449E+02  0.41800000000E+01 0.  1.
         -5    1    3    3    0  502  0.53774734956E+02 -0.51950999813E+02 -0.79230287924E+02  0.10902082107E+03  0.41800000000E+01 0.  1.
        -11    1    1    2    0    0  0.18583733265E+02  0.44831914942E+02 -0.15225483714E+02  0.50863258780E+02  0.00000000000E+00 0. -1.
         11    1    1    2    0    0 -0.36982284710E+02 -0.28096447594E+02  0.67079377200E+01  0.46926497613E+02  0.00000000000E+00 0.  1.
</event>
<event>
 7    1  0.2380582E-009  0.1106243E+03  0.7561462E-02  0.1259418E+00
         -1   -1    0    0    0  501 -0.00000000000E+00  0.00000000000E+00  0.68939249978E+02  0.68939249978E+02  0.00000000000E+00 0.  1.
          1   -1    0    0  501    0  0.00000000000E+00 -0.00000000000E+00 -0.26303774744E+03  0.26303774744E+03  0.00000000000E+00 0. -1.
         25    2    1    2    0    0 -0.28209510286E+02 -0.69660314822E+02 -0.73102630416E+02  0.16321484591E+03  0.12508699141E+03 0.  0.
          5    1    3    3  502    0  0.26948193351E+02 -0.82836869251E+02 -0.31370132272E+02  0.92680686396E+02  0.41800000000E+01 0.  1.
         -5    1    3    3    0  502 -0.55157703638E+02  0.13176554428E+02 -0.41732498144E+02  0.70534159516E+02  0.41800000000E+01 0.  1.
        -11    1    1    2    0    0  0.12052409563E+01  0.24690871913E+02 -0.11303547117E+03  0.11570699851E+03  0.00000000000E+00 0. -1.
         11    1    1    2    0    0  0.27004269330E+02  0.44969442910E+02 -0.79603958830E+01  0.53055153004E+02  0.00000000000E+00 0.  1.
</event>
<event>
 7    1  0.2380582E-009  0.1461736E+03  0.7561462E-02  0.1205255E+00
         -3   -1    0    0    0  501 -0.00000000000E+00  0.00000000000E+00  0.39601912449E+03  0.39601912449E+03  0.00000000000E+00 0.  1.
          3   -1    0    0  501    0  0.00000000000E+00 -0.00000000000E+00 -0.59569016298E+02  0.59569016298E+02  0.00000000000E+00 0. -1.
         25    2    1    2    0    0 -0.96266521355E+02 -0.22394835087E+02  0.12056929531E+03  0.19988330901E+03  0.12509040922E+03 0.  0.
          5    1    3    3  502    0 -0.12681440488E+03 -0.20558045693E+02  0.97258315672E+02  0.16118678263E+03  0.41800000000E+01 0.  1.
         -5    1    3    3    0  502  0.30547883520E+02 -0.18367893937E+01  0.23310979634E+02  0.38696526386E+02  0.41800000000E+01 0.  1.
        -11    1    1    2    0    0  0.84627611771E+02 -0.21660144446E+02  0.16949698662E+03  0.19068356774E+03  0.00000000000E+00 0. -1.
         11    1    1    2    0    0  0.11638909585E+02  0.44054979534E+02  0.46383826267E+02  0.65021264039E+02  0.00000000000E+00 0.  1.
</event>
<event>
 7    1  0.2380582E-009  0.1234854E+03  0.7561462E-02  0.1237456E+00
          3   -1    0    0  501    0  0.00000000000E+00  0.00000000000E+00  0.12630042461E+03  0.12630042461E+03  0.00000000000E+00 0. -1.
         -3   -1    0    0    0  501 -0.00000000000E+00 -0.00000000000E+00 -0.16803904914E+03  0.16803904914E+03  0.00000000000E+00 0.  1.
         25    2    1    2    0    0 -0.84548086702E+02 -0.47585094358E+02 -0.26886240239E+02  0.16057234680E+03  0.12509152039E+03 0.  0.
          5    1    3    3  502    0 -0.69925828528E+02 -0.75261489528E+02 -0.56466812244E+02  0.11730254297E+03  0.41800000000E+01 0.  1.
         -5    1    3    3    0  502 -0.14622258174E+02  0.27676395170E+02  0.29580572005E+02  0.43269803834E+02  0.41800000000E+01 0.  1.
        -11    1    1    2    0    0  0.80269624632E+02  0.17459957078E+02 -0.42645834175E+02  0.92556630838E+02  0.00000000000E+00 0.  1.
         11    1    1    2    0    0  0.42784620704E+01  0.30125137280E+02  0.27793449886E+02  0.41210496119E+02  0.00000000000E+00 0. -1.
</event>
<event>
 7    1  0.2380582E-009  0.8666313E+02  0.7561462E-02  0.1311140E+00
         -1   -1    0    0    0  501 -0.00000000000E+00  0.00000000000E+00  0.22536150076E+03  0.22536150076E+03  0.00000000000E+00 0.  1.
          1   -1    0    0  501    0  0.00000000000E+00 -0.00000000000E+00 -0.95448112665E+02  0.95448112665E+02  0.00000000000E+00 0. -1.
         25    2    1    2    0    0 -0.74981039917E+02  0.16521228548E+02  0.51875682702E+01  0.14686539709E+03  0.12508967446E+03 0.  0.
          5    1    3    3  502    0 -0.31865641332E+01  0.20663605837E+02 -0.51149968483E+02  0.55415976694E+02  0.41800000000E+01 0.  1.
         -5    1    3    3    0  502 -0.71794475784E+02 -0.41423772892E+01  0.56337536753E+02  0.91449420392E+02  0.41800000000E+01 0.  1.
        -11    1    1    2    0    0  0.21606775716E+02  0.53959824733E+01  0.11286184412E+03  0.11503810344E+03  0.00000000000E+00 0.  1.
         11    1    1    2    0    0  0.53374264201E+02 -0.21917211021E+02  0.11863975704E+02  0.58906112904E+02  0.00000000000E+00 0. -1.
</event>
<event>
 7    1  0.2380582E-009  0.3281755E+03  0.7561462E-02  0.1071947E+00
          1   -1    0    0  501    0  0.00000000000E+00  0.00000000000E+00  0.55837345050E+03  0.55837345050E+03  0.00000000000E+00 0. -1.
         -1   -1    0    0    0  501 -0.00000000000E+00 -0.00000000000E+00 -0.20911399566E+03  0.20911399566E+03  0.00000000000E+00 0.  1.
         25    2    1    2    0    0  0.31886824628E+03  0.28394277780E+02  0.23030210694E+03  0.41372079483E+03  0.12507054858E+03 0.  0.
          5    1    3    3  502    0  0.31009415136E+03  0.48238830752E+02  0.23378089330E+03  0.39135194643E+03  0.41800000000E+01 0.  1.
         -5    1    3    3    0  502  0.87740949147E+01 -0.19844552972E+02 -0.34787863656E+01  0.22368848402E+02  0.41800000000E+01 0.  1.
        -11    1    1    2    0    0 -0.15654525689E+03 -0.20573978935E+02  0.10717208479E+03  0.19082861898E+03  0.00000000000E+00 0. -1.
         11    1    1    2    0    0 -0.16232298939E+03 -0.78202988451E+01  0.11785263110E+02  0.16293803234E+03  0.00000000000E+00 0.  1.
</event>
<event>
 7    1  0.2380582E-009  0.1423042E+03  0.7561462E-02  0.1210262E+00
         -3   -1    0    0    0  501 -0.00000000000E+00  0.00000000000E+00  0.36485366181E+02  0.36485366181E+02  0.00000000000E+00 0.  1.
          3   -1    0    0  501    0  0.00000000000E+00 -0.00000000000E+00 -0.68367382731E+03  0.68367382731E+03  0.00000000000E+00 0. -1.
         25    2    1    2    0    0 -0.10912970556E+03  0.22350828951E+00 -0.27046761727E+03  0.31734758053E+03  0.12508961702E+03 0.  0.
          5    1    3    3  502    0 -0.81317157016E+02  0.43650033954E+02 -0.87647527248E+02  0.12734742605E+03  0.41800000000E+01 0.  1.
         -5    1    3    3    0  502 -0.27812548544E+02 -0.43426525664E+02 -0.18282009002E+03  0.19000015448E+03  0.41800000000E+01 0.  1.
        -11    1    1    2    0    0  0.16586853729E+02 -0.37274899339E+02 -0.14333415744E+03  0.14902758982E+03  0.00000000000E+00 0. -1.
         11    1    1    2    0    0  0.92542851830E+02  0.37051391049E+02 -0.23338668642E+03  0.25378402314E+03  0.00000000000E+00 0.  1.
</event>
<event>
 7    1  0.2380582E-009  0.7504183E+02  0.7561462E-02  0.1343742E+00
         -1   -1    0    0    0  501 -0.00000000000E+00  0.00000000000E+00  0.16335918709E+02  0.16335918709E+02  0.00000000000E+00 0.  1.
          1   -1    0    0  501    0  0.00000000000E+00 -0.00000000000E+00 -0.94766742423E+03  0.94766742423E+03  0.00000000000E+00 0. -1.
         25    2    1    2    0    0  0.29393586549E+02  0.33558082079E+02 -0.66607560182E+03  0.67918570238E+03  0.12508550345E+03 0.  0.
          5    1    3    3  502    0  0.14582552321E+02  0.93719081647E+01 -0.64055927539E+03  0.64080741349E+03  0.41800000000E+01 0.  1.
         -5    1    3    3    0  502  0.14811034228E+02  0.24186173915E+02 -0.25516326424E+02  0.38378288884E+02  0.41800000000E+01 0.  1.
        -11    1    1    2    0    0  0.34095825286E+02 -0.16301007123E+02 -0.89575678102E+02  0.97221655214E+02  0.00000000000E+00 0. -1.
         11    1    1    2    0    0 -0.63489411835E+02 -0.17257074956E+02 -0.17568022560E+03  0.18759598535E+03  0.00000000000E+00 0.  1.
</event>
<event>
 7    1  0.2380582E-009  0.1115105E+03  0.7561462E-02  0.1257798E+00
          2   -1    0    0  501    0  0.00000000000E+00  0.00000000000E+00  0.22780252234E+03  0.22780252234E+03  0.00000000000E+00 0. -1.
         -2   -1    0    0    0  501 -0.00000000000E+00 -0.00000000000E+00 -0.66120906209E+02  0.66120906209E+02  0.00000000000E+00 0.  1.
         25    2    1    2    0    0 -0.64333267014E+02 -0.91219436235E+01  0.43598254838E+02  0.14754791587E+03  0.12509036954E+03 0.  0.
          5    1    3    3  502    0  0.29211194829E+02 -0.29183862648E+02  0.29113654933E+02  0.50695848409E+02  0.41800000000E+01 0. -1.
         -5    1    3    3    0  502 -0.93544461843E+02  0.20061919024E+02  0.14484599905E+02  0.96852067457E+02  0.41800000000E+01 0. -1.
        -11    1    1    2    0    0 -0.35552575516E+01 -0.13684414228E+02  0.27302023502E+02  0.30745788920E+02  0.00000000000E+00 0.  1.
         11    1    1    2    0    0  0.67888524565E+02  0.22806357851E+02  0.90781337789E+02  0.11562972376E+03  0.00000000000E+00 0. -1.
</event>
<event>
 7    1  0.2380582E-009  0.1959745E+03  0.7561462E-02  0.1153180E+00
          1   -1    0    0  501    0  0.00000000000E+00  0.00000000000E+00  0.38069796634E+03  0.38069796634E+03  0.00000000000E+00 0. -1.
         -1   -1    0    0    0  501 -0.00000000000E+00 -0.00000000000E+00 -0.15432141305E+03  0.15432141305E+03  0.00000000000E+00 0.  1.
         25    2    1    2    0    0 -0.44507383827E+02  0.18527851724E+03  0.22503449673E+03  0.32031412136E+03  0.12510625667E+03 0.  0.
          5    1    3    3  502    0 -0.19953408802E+02  0.11458344463E+03  0.44081283522E+02  0.12445134094E+03  0.41800000000E+01 0. -1.
         -5    1    3    3    0  502 -0.24553975025E+02  0.70695072608E+02  0.18095321321E+03  0.19586278042E+03  0.41800000000E+01 0. -1.
        -11    1    1    2    0    0 -0.16086145754E+02 -0.32724444966E+02 -0.30451475451E+02  0.47507323022E+02  0.00000000000E+00 0.  1.
         11    1    1    2    0    0  0.60593529581E+02 -0.15255407227E+03  0.31793532008E+02  0.16719793501E+03  0.00000000000E+00 0. -1.
</event>
<event>
 7    1  0.2380582E-009  0.2028496E+03  0.7561462E-02  0.1147357E+00
         -1   -1    0    0    0  501 -0.00000000000E+00  0.00000000000E+00  0.19214926314E+03  0.19214926314E+03  0.00000000000E+00 0.  1.
          1   -1    0    0  501    0  0.00000000000E+00 -0.00000000000E+00 -0.25254793135E+03  0.25254793135E+03  0.00000000000E+00 0. -1.
         25    2    1    2    0    0 -0.18903975256E+03 -0.76354496705E+01  0.10858248126E+01  0.22680011817E+03  0.12507112554E+03 0.  0.
          5    1    3    3  502    0  0.12264587405E+01  0.20378912450E+02  0.25457666657E+02  0.32899383966E+02  0.41800000000E+01 0.  1.
         -5    1    3    3    0  502 -0.19026621131E+03 -0.28014362121E+02 -0.24371841844E+02  0.19390073420E+03  0.41800000000E+01 0.  1.
        -11    1    1    2    0    0  0.26036822411E+02 -0.11328651461E+02 -0.44676421752E+02  0.52936160852E+02  0.00000000000E+00 0. -1.
         11    1    1    2    0    0  0.16300293015E+03  0.18964101132E+02 -0.16808071269E+02  0.16496091546E+03  0.00000000000E+00 0.  1.
</event>
<event>
 7    1  0.2380582E-009  0.1117136E+03  0.7561462E-02  0.1257429E+00
         -2   -1    0    0    0  501 -0.00000000000E+00  0.00000000000E+00  0.20975822948E+03  0.20975822948E+03  0.00000000000E+00 0.  1.
          2   -1    0    0  501    0  0.00000000000E+00 -0.00000000000E+00 -0.67542826163E+02  0.67542826163E+02  0.00000000000E+00 0. -1.
         25    2    1    2    0    0  0.42035463201E+02  0.27087888162E+02  0.70785852294E+02  0.15217396651E+03  0.12508215439E+03 0.  0.
          5    1    3    3  502    0 -0.25852803970E+02  0.43904261326E+02 -0.19791838343E+01  0.51159957040E+02  0.41800000000E+01 0. -1.
         -5    1    3    3    0  502  0.67888267171E+02 -0.16816373164E+02  0.72765036128E+02  0.10101400947E+03  0.41800000000E+01 0. -1.
        -11    1    1    2    0    0  0.28039427608E+02 -0.12319640668E+02  0.15910155463E+02  0.34512549799E+02  0.00000000000E+00 0.  1.
         11    1    1    2    0    0 -0.70074890809E+02 -0.14768247494E+02  0.55519395557E+02  0.90614539335E+02  0.00000000000E+00 0. -1.
</event>
<event>
 7    1  0.2380582E-009  0.1193458E+03  0.7561462E-02  0.1244180E+00
          2   -1    0    0  501    0  0.00000000000E+00  0.00000000000E+00  0.14057090491E+03  0.14057090491E+03  0.00000000000E+00 0.  1.
         -2   -1    0    0    0  501 -0.00000000000E+00 -0.00000000000E+00 -0.12607040753E+03  0.12607040753E+03  0.00000000000E+00 0. -1.
         25    2    1    2    0    0  0.24822145255E+02 -0.66214594384E+02 -0.15129734073E+02  0.14448534663E+03  0.12508635071E+03 0.  0.
          5    1    3    3  502    0  0.24955983649E+02  0.30630014565E+02  0.15769024607E+02  0.42744981567E+02  0.41800000000E+01 0.  1.
         -5    1    3    3    0  502 -0.13383839329E+00 -0.96844608949E+02 -0.30898758680E+02  0.10174036506E+03  0.41800000000E+01 0.  1.
        -11    1    1    2    0    0 -0.41570036008E+02  0.91632567697E+01 -0.17757610749E+02  0.46123377021E+02  0.00000000000E+00 0. -1.
         11    1    1    2    0    0  0.16747890752E+02  0.57051337614E+02  0.47387842202E+02  0.76032588781E+02  0.00000000000E+00 0.  1.
</event>
<event>
 7    1  0.2954406E-009  0.1062223E+03  0.7561462E-02  0.1267730E+00
         -1   -1    0    0    0  501 -0.00000000000E+00  0.00000000000E+00  0.19084407751E+02  0.19084407751E+02  0.00000000000E+00 0.  1.
          1   -1    0    0  501    0  0.00000000000E+00 -0.00000000000E+00 -0.13709011344E+04  0.13709011344E+04  0.00000000000E+00 0. -1.
         25    2    1    2    0    0  0.10707003268E+02  0.75719601083E+02 -0.11189109899E+04  0.11284760909E+04  0.12509351087E+03 0.  0.
          5    1    3    3  502    0  0.13247916291E+02  0.98153690827E+02 -0.10684237406E+04  0.10730127754E+04  0.41800000000E+01 0.  1.
         -5    1    3    3    0  502 -0.25409130232E+01 -0.22434089745E+02 -0.50487249331E+02  0.55463315504E+02  0.41800000000E+01 0.  1.
        -11    1    1    2    0    0 -0.27652265378E+02 -0.26513725664E+02 -0.19068404386E+03  0.19449429301E+03  0.00000000000E+00 0. -1.
         11    1    1    2    0    0  0.16945262110E+02 -0.49205875419E+02 -0.42221692822E+02  0.67015158199E+02  0.00000000000E+00 0.  1.
</event>
<event>
 7    1  0.2380582E-009  0.1341397E+03  0.7561462E-02  0.1221439E+00
          1   -1    0    0  501    0  0.00000000000E+00  0.00000000000E+00  0.84806334548E+02  0.84806334548E+02  0.00000000000E+00 0. -1.
         -1   -1    0    0    0  501 -0.00000000000E+00 -0.00000000000E+00 -0.41933587856E+03  0.41933587856E+03  0.00000000000E+00 0.  1.
         25    2    1    2    0    0 -0.41791606687E+02 -0.11837329067E+03 -0.29564650005E+03  0.34469331996E+03  0.12509139660E+03 0.  0.
          5    1    3    3  502    0 -0.40472739392E+02 -0.63508573264E+02 -0.27620967887E+03  0.28632261632E+03  0.41800000000E+01 0.  1.
         -5    1    3    3    0  502 -0.13188672952E+01 -0.54864717403E+02 -0.19436821174E+02  0.58370703645E+02  0.41800000000E+01 0.  1.
        -11    1    1    2    0    0 -0.79630088491E+01  0.62478444616E+02  0.17939076856E+02  0.65488747354E+02  0.00000000000E+00 0. -1.
         11    1    1    2    0    0  0.49754615536E+02  0.55894846051E+02 -0.56822120820E+02  0.93960145789E+02  0.00000000000E+00 0.  1.
</event>
<event>
 7    1  0.2380582E-009  0.7068279E+02  0.7561462E-02  0.1357786E+00
         -2   -1    0    0    0  501 -0.00000000000E+00  0.00000000000E+00  0.13962670140E+02  0.13962670140E+02  0.00000000000E+00 0.  1.
          2   -1    0    0  501    0  0.00000000000E+00 -0.00000000000E+00 -0.10504412921E+04  0.10504412921E+04  0.00000000000E+00 0. -1.
         25    2    1    2    0    0 -0.21732953666E+02  0.54771985379E+02 -0.64241597059E+03  0.65712843178E+03  0.12508878816E+03 0.  0.
          5    1    3    3  502    0 -0.15310400577E+02  0.24586914277E+02 -0.61482684180E+03  0.61552290170E+03  0.41800000000E+01 0.  1.
         -5    1    3    3    0  502 -0.64225530888E+01  0.30185071102E+02 -0.27589128790E+02  0.41605530077E+02  0.41800000000E+01 0.  1.
        -11    1    1    2    0    0  0.21319080914E+02 -0.66187241362E+02 -0.38830830615E+03  0.39448522755E+03  0.00000000000E+00 0. -1.
         11    1    1    2    0    0  0.41387275210E+00  0.11415255983E+02 -0.57543452288E+01  0.12790302922E+02  0.00000000000E+00 0.  1.
</event>
<event>
 7    1  0.2380582E-009  0.9711423E+02  0.7561462E-02  0.1286484E+00
         -2   -1    0    0    0  501 -0.00000000000E+00  0.00000000000E+00  0.96236427646E+02  0.96236427646E+02  0.00000000000E+00 0.  1.
          2   -1    0    0  501    0  0.00000000000E+00 -0.00000000000E+00 -0.13043132874E+03  0.13043132874E+03  0.00000000000E+00 0. -1.
         25    2    1    2    0    0  0.52895327526E+01 -0.11103496875E+02 -0.23847589365E+02  0.12793389979E+03  0.12508840232E+03 0.  0.
          5    1    3    3  502    0  0.69401162595E+01  0.48115611127E+02  0.21392217629E+02  0.53276417137E+02  0.41800000000E+01 0. -1.
         -5    1    3    3    0  502 -0.16505835069E+01 -0.59219108003E+02 -0.45239806994E+02  0.74657482648E+02  0.41800000000E+01 0. -1.
        -11    1    1    2    0    0 -0.21186735771E+02 -0.32971521417E+02  0.18888989701E+02  0.43506240117E+02  0.00000000000E+00 0.  1.
         11    1    1    2    0    0  0.15897203018E+02  0.44075018292E+02 -0.29236301430E+02  0.55227616484E+02  0.00000000000E+00 0. -1.
</event>
<event>
 7    1  0.2380582E-009  0.7068950E+02  0.7561462E-02  0.1357764E+00
          2   -1    0    0  501    0  0.00000000000E+00  0.00000000000E+00  0.83260296890E+03  0.83260296890E+03  0.00000000000E+00 0.  1.
         -2   -1    0    0    0  501 -0.00000000000E+00 -0.00000000000E+00 -0.18610439199E+02  0.18610439199E+02  0.00000000000E+00 0. -1.
         25    2    1    2    0    0  0.34096123985E+02  0.13017356147E+02  0.62917233919E+03  0.64252385066E+03  0.12508824498E+03 0.  0.
          5    1    3    3  502    0 -0.15323948640E+02  0.21740426462E+02  0.53547421594E+03  0.53615070445E+03  0.41800000000E+01 0. -1.
         -5    1    3    3    0  502  0.49420072625E+02 -0.87230703154E+01  0.93698123247E+02  0.10637314621E+03  0.41800000000E+01 0. -1.
        -11    1    1    2    0    0 -0.32325856840E+02  0.15271942928E+02  0.19043995453E+02  0.40507616865E+02  0.00000000000E+00 0. -1.
         11    1    1    2    0    0 -0.17702671446E+01 -0.28289299075E+02  0.16577619505E+03  0.16818194057E+03  0.00000000000E+00 0.  1.
</event>
<event>
 7    1  0.2380582E-009  0.1203177E+03  0.7561462E-02  0.1242574E+00
         -2   -1    0    0    0  501 -0.00000000000E+00  0.00000000000E+00  0.32752936937E+03  0.32752936937E+03  0.00000000000E+00 0. -1.
          2   -1    0    0  501    0  0.00000000000E+00 -0.00000000000E+00 -0.14199211449E+03  0.14199211449E+03  0.00000000000E+00 0.  1.
         25    2    1    2    0    0  0.45405399999E+02 -0.52242371207E+02 -0.91470891183E+02  0.16971288210E+03  0.12507846625E+03 0.  0.
          5    1    3    3  502    0  0.34928864093E+02 -0.91052306385E+02 -0.83642043029E+02  0.12854575764E+03  0.41800000000E+01 0.  1.
         -5    1    3    3    0  502  0.10476535907E+02  0.38809935179E+02 -0.78288481535E+01  0.41167124463E+02  0.41800000000E+01 0.  1.
        -11    1    1    2    0    0 -0.39594433997E+02 -0.93978610803E+01  0.18136820295E+03  0.18587755119E+03  0.00000000000E+00 0. -1.
         11    1    1    2    0    0 -0.58109660027E+01  0.61640232287E+02  0.95639943115E+02  0.11393105056E+03  0.00000000000E+00 0.  1.
</event>
<event>
 7    1  0.2380582E-009  0.1205842E+03  0.7561462E-02  0.1242136E+00
          2   -1    0    0  501    0  0.00000000000E+00  0.00000000000E+00  0.30395969164E+03  0.30395969164E+03  0.00000000000E+00 0. -1.
         -2   -1    0    0    0  501 -0.00000000000E+00 -0.00000000000E+00 -0.13819498944E+03  0.13819498944E+03  0.00000000000E+00 0.  1.
         25    2    1    2    0    0 -0.56897594647E+02 -0.56089014578E+02 -0.79590337722E+02  0.16841839980E+03  0.12508725634E+03 0.  0.
          5    1    3    3  502    0 -0.54965356122E+02  0.80377906481E+01  0.11541997498E+02  0.56890127073E+02  0.41800000000E+01 0. -1.
         -5    1    3    3    0  502 -0.19322385248E+01 -0.64126805226E+02 -0.91132335220E+02  0.11152827272E+03  0.41800000000E+01 0. -1.
        -11    1    1    2    0    0  0.29495661557E+02 -0.23041602745E+02  0.68549520421E+02  0.78102152709E+02  0.00000000000E+00 0. -1.
         11    1    1    2    0    0  0.27401933090E+02  0.79130617323E+02  0.17680551950E+03  0.19563412857E+03  0.00000000000E+00 0.  1.
</event>
<event>
 7    1  0.2380582E-009  0.1179838E+03  0.7561462E-02  0.1246461E+00
          1   -1    0    0  501    0  0.00000000000E+00  0.00000000000E+00  0.63958319877E+02  0.63958319877E+02  0.00000000000E+00 0.  1.
         -1   -1    0    0    0  501 -0.00000000000E+00 -0.00000000000E+00 -0.36720618969E+03  0.36720618969E+03  0.00000000000E+00 0. -1.
         25    2    1    2    0    0  0.10314061664E+03 -0.22794697681E+02 -0.18414705961E+03  0.24640457880E+03  0.12508993502E+03 0.  0.
          5    1    3    3  502    0 -0.96027833305E+01  0.80820744156E+01 -0.10346600669E+03  0.10430829456E+03  0.41800000000E+01 0.  1.
         -5    1    3    3    0  502  0.11274339997E+03 -0.30876772096E+02 -0.80681052926E+02  0.14209628424E+03  0.41800000000E+01 0.  1.
        -11    1    1    2    0    0 -0.45724433458E+02  0.73479670367E+01  0.55620193837E+01  0.46643890214E+02  0.00000000000E+00 0.  1.
         11    1    1    2    0    0 -0.57416183184E+02  0.15446730644E+02 -0.12466282959E+03  0.13811604056E+03  0.00000000000E+00 0. -1.
</event>
<event>
 7    1  0.2380582E-009  0.1884045E+03  0.7561462E-02  0.1159908E+00
          1   -1    0    0  501    0  0.00000000000E+00  0.00000000000E+00  0.14237066348E+04  0.14237066348E+04  0.00000000000E+00 0. -1.
         -1   -1    0    0    0  501 -0.00000000000E+00 -0.00000000000E+00 -0.32711545809E+02  0.32711545809E+02  0.00000000000E+00 0.  1.
         25    2    1    2    0    0  0.13161572630E+03  0.10879680015E+03  0.47115620223E+03  0.51652250632E+03  0.12509152452E+03 0.  0.
          5    1    3    3  502    0  0.16356609970E+02 -0.22896545744E+02  0.27451600143E+02  0.39532938762E+02  0.41800000000E+01 0.  1.
         -5    1    3    3    0  502  0.11525911633E+03  0.13169334589E+03  0.44370460208E+03  0.47698956756E+03  0.41800000000E+01 0.  1.
        -11    1    1    2    0    0 -0.70597063360E+01 -0.17502888126E+02  0.22510034708E+02  0.29375026959E+02  0.00000000000E+00 0.  1.
         11    1    1    2    0    0 -0.12455601996E+03 -0.91293912021E+02  0.89732885206E+03  0.91052064733E+03  0.00000000000E+00 0. -1.
</event>
<event>
 7    1  0.2380582E-009  0.1114286E+03  0.7561462E-02  0.1257947E+00
          2   -1    0    0  501    0  0.00000000000E+00  0.00000000000E+00  0.46674322447E+03  0.46674322447E+03  0.00000000000E+00 0. -1.
         -2   -1    0    0    0  501 -0.00000000000E+00 -0.00000000000E+00 -0.53974995720E+02  0.53974995720E+02  0.00000000000E+00 0.  1.
         25    2    1    2    0    0  0.40139359871E+02 -0.37167589816E+02  0.52616260536E+02  0.14631486003E+03  0.12508784693E+03 0.  0.
          5    1    3    3  502    0  0.16849650180E+01  0.38488725888E+02  0.47342682809E+02  0.61180251251E+02  0.41800000000E+01 0.  1.
         -5    1    3    3    0  502  0.38454394853E+02 -0.75656315704E+02  0.52735777269E+01  0.85134608776E+02  0.41800000000E+01 0.  1.
        -11    1    1    2    0    0  0.16853527830E+02  0.38604961784E+02  0.20051117234E+03  0.20488805409E+03  0.00000000000E+00 0. -1.
         11    1    1    2    0    0 -0.56992887701E+02 -0.14373719684E+01  0.15964079587E+03  0.16951530607E+03  0.00000000000E+00 0.  1.
</event>
<event>
 7    1  0.2380582E-009  0.1371963E+03  0.7561462E-02  0.1217152E+00
         -3   -1    0    0    0  501 -0.00000000000E+00  0.00000000000E+00  0.10696740113E+03  0.10696740113E+03  0.00000000000E+00 0.  1.
          3   -1    0    0  501    0  0.00000000000E+00 -0.00000000000E+00 -0.19238804055E+03  0.19238804055E+03  0.00000000000E+00 0. -1.
         25    2    1    2    0    0  0.24456816457E+02 -0.93768901342E+02 -0.80044301239E+02  0.17732816390E+03  0.12508974706E+03 0.  0.
          5    1    3    3  502    0 -0.47327840633E+02 -0.54158083966E+02 -0.57545988689E+02  0.92206484436E+02  0.41800000000E+01 0. -1.
         -5    1    3    3    0  502  0.71784657090E+02 -0.39610817376E+02 -0.22498312549E+02  0.85121679461E+02  0.41800000000E+01 0. -1.
        -11    1    1    2    0    0 -0.33187689039E+02  0.10260026930E+03  0.14744411538E+01  0.10784438762E+03  0.00000000000E+00 0.  1.
         11    1    1    2    0    0  0.87308725822E+01 -0.88313679550E+01 -0.68507793281E+01  0.14182890164E+02  0.00000000000E+00 0. -1.
</event>
<event>
 7    1  0.2380582E-009  0.1197689E+03  0.7561462E-02  0.1243479E+00
          1   -1    0    0  501    0  0.00000000000E+00  0.00000000000E+00  0.74093316175E+03  0.74093316175E+03  0.00000000000E+00 0.  1.
         -1   -1    0    0    0  501 -0.00000000000E+00 -0.00000000000E+00 -0.34874617618E+02  0.34874617618E+02  0.00000000000E+00 0. -1.
         25    2    1    2    0    0  0.48944670774E+02  0.99626138094E+02  0.48064794954E+03  0.50891090701E+03  0.12508761606E+03 0.  0.
          5    1    3    3  502    0  0.45567997050E+02  0.87852796975E+02  0.48518775407E+03  0.49519610801E+03  0.41800000000E+01 0. -1.
         -5    1    3    3    0  502  0.33766737241E+01  0.11773341119E+02 -0.45398045267E+01  0.13714799003E+02  0.41800000000E+01 0. -1.
        -11    1    1    2    0    0 -0.53560557124E+02 -0.37832190214E+02  0.55056003903E+02  0.85622260315E+02  0.00000000000E+00 0. -1.
         11    1    1    2    0    0  0.46158863491E+01 -0.61793947880E+02  0.17035459069E+03  0.18127461204E+03  0.00000000000E+00 0.  1.
</event>
<event>
 7    1  0.2380582E-009  0.1131819E+03  0.7561462E-02  0.1254788E+00
          2   -1    0    0  501    0  0.00000000000E+00  0.00000000000E+00  0.11218970678E+04  0.11218970678E+04  0.00000000000E+00 0. -1.
         -2   -1    0    0    0  501 -0.00000000000E+00 -0.00000000000E+00 -0.19021610495E+02  0.19021610495E+02  0.00000000000E+00 0.  1.
         25    2    1    2    0    0  0.56789026951E+00  0.80381310202E+02  0.82237365791E+03  0.83570581615E+03  0.12507717772E+03 0.  0.
          5    1    3    3  502    0  0.55801896527E+02  0.10805948285E+02  0.40269455453E+03  0.40670750770E+03  0.41800000000E+01 0. -1.
         -5    1    3    3    0  502 -0.55234006257E+02  0.69575361917E+02  0.41967910339E+03  0.42899830845E+03  0.41800000000E+01 0. -1.
        -11    1    1    2    0    0  0.94867963996E+00 -0.10847794551E+02 -0.45480486371E+01  0.11800821416E+02  0.00000000000E+00 0.  1.
         11    1    1    2    0    0 -0.15165699095E+01 -0.69533515651E+02  0.28504984802E+03  0.29341204072E+03  0.00000000000E+00 0. -1.
</event>
<event>
 7    1  0.2380582E-009  0.1083391E+03  0.7561462E-02  0.1263677E+00
          2   -1    0    0  501    0  0.00000000000E+00  0.00000000000E+00  0.11210851430E+03  0.11210851430E+03  0.00000000000E+00 0. -1.
         -2   -1    0    0    0  501 -0.00000000000E+00 -0.00000000000E+00 -0.17466704166E+03  0.17466704166E+03  0.00000000000E+00 0.  1.
         25    2    1    2    0    0  0.48280340360E+02  0.45475300932E+02  0.26892741142E+02  0.14411613791E+03  0.12508895803E+03 0.  0.
          5    1    3    3  502    0 -0.88429797646E+01 -0.18951032086E+02  0.50431398530E+02  0.54755257884E+02  0.41800000000E+01 0. -1.
         -5    1    3    3    0  502  0.57123320125E+02  0.64426333018E+02 -0.23538657388E+02  0.89360880031E+02  0.41800000000E+01 0. -1.
        -11    1    1    2    0    0 -0.28350788743E+02 -0.71181750842E+02 -0.74472302953E+02  0.10684911222E+03  0.00000000000E+00 0.  1.
         11    1    1    2    0    0 -0.19929551617E+02  0.25706449910E+02 -0.14978965543E+02  0.35810305826E+02  0.00000000000E+00 0. -1.
</event>
<event>
 7    1  0.2380582E-009  0.1426197E+03  0.7561462E-02  0.1209847E+00
          2   -1    0    0  501    0  0.00000000000E+00  0.00000000000E+00  0.80826585212E+03  0.80826585212E+03  0.00000000000E+00 0. -1.
         -2   -1    0    0    0  501 -0.00000000000E+00 -0.00000000000E+00 -0.40285029854E+02  0.40285029854E+02  0.00000000000E+00 0.  1.
         25    2    1    2    0    0 -0.62969884612E+02 -0.11303616813E+03  0.25787828190E+03  0.31447029785E+03  0.12509187937E+03 0.  0.
          5    1    3    3  502    0 -0.18979423978E+02 -0.54837429876E+02  0.13945219779E+02  0.59827283112E+02  0.41800000000E+01 0.  1.
         -5    1    3    3    0  502 -0.43990460634E+02 -0.58198738253E+02  0.24393306212E+03  0.25464301474E+03  0.41800000000E+01 0.  1.
        -11    1    1    2    0    0  0.75185158624E+01 -0.13712742597E+02  0.23772757407E+02  0.28455428042E+02  0.00000000000E+00 0. -1.
         11    1    1    2    0    0  0.55451368749E+02  0.12674891073E+03  0.48632978296E+03  0.50562515608E+03  0.00000000000E+00 0.  1.
</event>
<event>
 7    1  0.2380582E-009  0.1195555E+03  0.7561462E-02  0.1243832E+00
          2   -1    0    0  501    0  0.00000000000E+00  0.00000000000E+00  0.83276762764E+02  0.83276762764E+02  0.00000000000E+00 0. -1.
         -2   -1    0    0    0  501 -0.00000000000E+00 -0.00000000000E+00 -0.19676320512E+03  0.19676320512E+03  0.00000000000E+00 0.  1.
         25    2    1    2    0    0 -0.14424481177E+01  0.62225185911E+02 -0.92704277111E+02  0.16767525676E+03  0.12508738673E+03 0.  0.
          5    1    3    3  502    0  0.51798022437E+02 -0.52754970302E+01 -0.23704806789E+02  0.57360755419E+02  0.41800000000E+01 0. -1.
         -5    1    3    3    0  502 -0.53240470555E+02  0.67500682941E+02 -0.68999470323E+02  0.11031450135E+03  0.41800000000E+01 0. -1.
        -11    1    1    2    0    0 -0.38220450817E+02 -0.21046627742E+02  0.13534350804E+02  0.45683060883E+02  0.00000000000E+00 0. -1.
         11    1    1    2    0    0  0.39662898934E+02 -0.41178558169E+02 -0.34316516050E+02  0.66681650238E+02  0.00000000000E+00 0.  1.
</event>
<event>
 7    1  0.2380582E-009  0.1115940E+03  0.7561462E-02  0.1257646E+00
          2   -1    0    0  501    0  0.00000000000E+00  0.00000000000E+00  0.12557108229E+03  0.12557108229E+03  0.00000000000E+00 0. -1.
         -2   -1    0    0    0  501 -0.00000000000E+00 -0.00000000000E+00 -0.11097818439E+03  0.11097818439E+03  0.00000000000E+00 0.  1.
         25    2    1    2    0    0  0.39423601754E+02 -0.20688207224E+02  0.12859814001E+02  0.13339963139E+03  0.12509142475E+03 0.  0.
          5    1    3    3  502    0  0.80451673294E+02  0.96604648988E+01  0.26049831951E+01  0.81179151605E+02  0.41800000000E+01 0.  1.
         -5    1    3    3    0  502 -0.41028071540E+02 -0.30348672122E+02  0.10254830806E+02  0.52220479783E+02  0.41800000000E+01 0.  1.
        -11    1    1    2    0    0 -0.47211905338E+02  0.45058320523E+02 -0.21375465640E+02  0.68674061954E+02  0.00000000000E+00 0.  1.
         11    1    1    2    0    0  0.77883035834E+01 -0.24370113299E+02  0.23108549538E+02  0.34475573334E+02  0.00000000000E+00 0. -1.
</event>
<event>
 7    1  0.2380582E-009  0.1051985E+03  0.7561462E-02  0.1269729E+00
          1   -1    0    0  501    0  0.00000000000E+00  0.00000000000E+00  0.67189960628E+03  0.67189960628E+03  0.00000000000E+00 0. -1.
         -1   -1    0    0    0  501 -0.00000000000E+00 -0.00000000000E+00 -0.58851018364E+02  0.58851018364E+02  0.00000000000E+00 0.  1.
         25    2    1    2    0    0 -0.65451850263E+02  0.17221914788E+02  0.58518002309E+03  0.60221393980E+03  0.12508169657E+03 0.  0.
          5    1    3    3  502    0 -0.46249483446E+02 -0.16578618210E+02  0.54089981894E+03  0.54314266250E+03  0.41800000000E+01 0. -1.
         -5    1    3    3    0  502 -0.19202366818E+02  0.33800532998E+02  0.44280204155E+02  0.59071277304E+02  0.41800000000E+01 0. -1.
        -11    1    1    2    0    0  0.34036712863E+02 -0.59960571871E+02  0.72252890889E+00  0.68951360028E+02  0.00000000000E+00 0.  1.
         11    1    1    2    0    0  0.31415137400E+02  0.42738657084E+02  0.27146035917E+02  0.59585324814E+02  0.00000000000E+00 0. -1.
</event>
<event>
 7    1  0.2380582E-009  0.1243133E+03  0.7561462E-02  0.1236146E+00
          2   -1    0    0  501    0  0.00000000000E+00  0.00000000000E+00  0.33324239426E+02  0.33324239426E+02  0.00000000000E+00 0. -1.
         -2   -1    0    0    0  501 -0.00000000000E+00 -0.00000000000E+00 -0.61937411367E+03  0.61937411367E+03  0.00000000000E+00 0.  1.
         25    2    1    2    0    0  0.65397679315E+02  0.63899388675E+02 -0.35517980968E+03  0.38750393653E+03  0.12508643127E+03 0.  0.
          5    1    3    3  502    0  0.28455657877E+02  0.77071832876E+02 -0.33137839123E+03  0.34143652772E+03  0.41800000000E+01 0.  1.
         -5    1    3    3    0  502  0.36942021437E+02 -0.13172444201E+02 -0.23801418454E+02  0.46067408811E+02  0.41800000000E+01 0.  1.
        -11    1    1    2    0    0  0.10805611108E-01 -0.61467214072E+02 -0.81227970847E+02  0.10186364303E+03  0.00000000000E+00 0. -1.
         11    1    1    2    0    0 -0.65408484926E+02 -0.24321746025E+01 -0.14964209371E+03  0.16333077354E+03  0.00000000000E+00 0.  1.
</event>
<event>
 7    1  0.2380582E-009  0.2432994E+03  0.7561462E-02  0.1117614E+00
         -2   -1    0    0    0  501 -0.00000000000E+00  0.00000000000E+00  0.50679987918E+02  0.50679987918E+02  0.00000000000E+00 0.  1.
          2   -1    0    0  501    0  0.00000000000E+00 -0.00000000000E+00 -0.12897333274E+04  0.12897333274E+04  0.00000000000E+00 0. -1.
         25    2    1    2    0    0 -0.19091691189E+03  0.12747297955E+03 -0.71415109659E+03  0.76049899131E+03  0.12509316232E+03 0.  0.
          5    1    3    3  502    0 -0.19264462799E+03  0.80147974811E+02 -0.63221830819E+03  0.66577256790E+03  0.41800000000E+01 0. -1.
         -5    1    3    3    0  502  0.17277160963E+01  0.47325004741E+02 -0.81932788401E+02  0.94726423409E+02  0.41800000000E+01 0. -1.
        -11    1    1    2    0    0  0.10842529430E+03 -0.60880466104E+02 -0.17769644235E+03  0.21688361216E+03  0.00000000000E+00 0.  1.
         11    1    1    2    0    0  0.82491617588E+02 -0.66592513449E+02 -0.34720580053E+03  0.36303071184E+03  0.00000000000E+00 0. -1.
</event>
<event>
 7    1  0.2380582E-009  0.1059007E+03  0.7561462E-02  0.1268355E+00
          2   -1    0    0  501    0  0.00000000000E+00  0.00000000000E+00  0.38596000434E+03  0.38596000434E+03  0.00000000000E+00 0. -1.
         -2   -1    0    0    0  501 -0.00000000000E+00 -0.00000000000E+00 -0.39213839114E+02  0.39213839114E+02  0.00000000000E+00 0.  1.
         25    2    1    2    0    0  0.46281409523E+02  0.13250132630E+02  0.25176587673E+03  0.28522147785E+03  0.12509076650E+03 0.  0.
          5    1    3    3  502    0 -0.39044042721E+02  0.22947025591E+02  0.62048532564E+02  0.76931762289E+02  0.41800000000E+01 0. -1.
         -5    1    3    3    0  502  0.85325452245E+02 -0.96968929608E+01  0.18971734416E+03  0.20828971557E+03  0.41800000000E+01 0. -1.
        -11    1    1    2    0    0 -0.61331579194E+02 -0.19040159201E+02  0.10343160977E+03  0.12174640926E+03  0.00000000000E+00 0. -1.
         11    1    1    2    0    0  0.15050169671E+02  0.57900265711E+01 -0.84513212734E+01  0.18205956335E+02  0.00000000000E+00 0.  1.
</event>
<event>
 7    1  0.2380582E-009  0.2309633E+03  0.7561462E-02  0.1125964E+00
          1   -1    0    0  501    0  0.00000000000E+00  0.00000000000E+00  0.23921297058E+03  0.23921297058E+03  0.00000000000E+00 0. -1.
         -1   -1    0    0    0  501 -0.00000000000E+00 -0.00000000000E+00 -0.29444560640E+03  0.29444560640E+03  0.00000000000E+00 0.  1.
         25    2    1    2    0    0 -0.21886600116E+03  0.24281796023E+02  0.72976104773E+02  0.26356819924E+03  0.12510296440E+03 0.  0.
          5    1    3    3  502    0 -0.18320560943E+03 -0.91775930382E+01  0.10038830495E+02  0.18375737824E+03  0.41800000000E+01 0. -1.
         -5    1    3    3    0  502 -0.35660391728E+02  0.33459389061E+02  0.62937274277E+02  0.79810820996E+02  0.41800000000E+01 0. -1.
        -11    1    1    2    0    0  0.11935308039E+03 -0.45293622151E+02 -0.10613399198E+03  0.16601534345E+03  0.00000000000E+00 0.  1.
         11    1    1    2    0    0  0.99512920769E+02  0.21011826128E+02 -0.22074748624E+02  0.10407503430E+03  0.00000000000E+00 0. -1.
</event>
<event>
 7    1  0.2380582E-009  0.2776734E+03  0.7561462E-02  0.1096966E+00
          2   -1    0    0  501    0  0.00000000000E+00  0.00000000000E+00  0.13030524144E+04  0.13030524144E+04  0.00000000000E+00 0. -1.
         -2   -1    0    0    0  501 -0.00000000000E+00 -0.00000000000E+00 -0.85909882358E+02  0.85909882358E+02  0.00000000000E+00 0.  1.
         25    2    1    2    0    0  0.13714200381E+03  0.23364379877E+03  0.95484013884E+03  0.10003822099E+04  0.12509005283E+03 0.  0.
          5    1    3    3  502    0  0.10807185070E+03  0.18831683828E+03  0.88941902155E+03  0.91554706312E+03  0.41800000000E+01 0. -1.
         -5    1    3    3    0  502  0.29070153106E+02  0.45326960487E+02  0.65421117285E+02  0.84835146816E+02  0.41800000000E+01 0. -1.
        -11    1    1    2    0    0 -0.12003407623E+03 -0.12172386479E+03  0.18250038611E+03  0.25006253148E+03  0.00000000000E+00 0. -1.
         11    1    1    2    0    0 -0.17107927575E+02 -0.11191993398E+03  0.79802007139E+02  0.13851755539E+03  0.00000000000E+00 0.  1.
</event>
<event>
 7    1  0.2380582E-009  0.1545961E+03  0.7561462E-02  0.1194936E+00
          1   -1    0    0  501    0  0.00000000000E+00  0.00000000000E+00  0.46151692472E+03  0.46151692472E+03  0.00000000000E+00 0. -1.
         -1   -1    0    0    0  501 -0.00000000000E+00 -0.00000000000E+00 -0.69019648788E+02  0.69019648788E+02  0.00000000000E+00 0.  1.
         25    2    1    2    0    0  0.85856238988E+02 -0.69068981310E+02  0.33536301150E+03  0.37450905866E+03  0.12508743976E+03 0.  0.
          5    1    3    3  502    0 -0.66491003551E+01 -0.71001153849E+02  0.11375193058E+03  0.13432180945E+03  0.41800000000E+01 0.  1.
         -5    1    3    3    0  502  0.92505339343E+02  0.19321725389E+01  0.22161108092E+03  0.24018724921E+03  0.41800000000E+01 0.  1.
        -11    1    1    2    0    0  0.22843543732E+01  0.55985168795E+02  0.20023533180E+02  0.59502094761E+02  0.00000000000E+00 0.  1.
         11    1    1    2    0    0 -0.88140593361E+02  0.13083812515E+02  0.37110731252E+02  0.96525420082E+02  0.00000000000E+00 0. -1.
</event>
<event>
 7    1  0.2380582E-009  0.1715123E+03  0.7561462E-02  0.1176280E+00
         -2   -1    0    0    0  501 -0.00000000000E+00  0.00000000000E+00  0.41984185311E+02  0.41984185311E+02  0.00000000000E+00 0.  1.
          2   -1    0    0  501    0  0.00000000000E+00 -0.00000000000E+00 -0.80940273230E+03  0.80940273230E+03  0.00000000000E+00 0. -1.
         25    2    1    2    0    0  0.13941619580E+03  0.50233381580E+02 -0.45541785261E+03  0.49498802392E+03  0.12508978803E+03 0.  0.
          5    1    3    3  502    0 -0.25121072682E+01  0.31198329193E+02 -0.21941385357E+02  0.38451829849E+02  0.41800000000E+01 0.  1.
         -5    1    3    3    0  502  0.14192830307E+03  0.19035052387E+02 -0.43347646726E+03  0.45653619407E+03  0.41800000000E+01 0.  1.
        -11    1    1    2    0    0 -0.18205570226E+02 -0.43076473411E+02 -0.55253288630E+02  0.72387507577E+02  0.00000000000E+00 0.  1.
         11    1    1    2    0    0 -0.12121062557E+03 -0.71569081699E+01 -0.25674740574E+03  0.28401138611E+03  0.00000000000E+00 0. -1.
</event>
<event>
 7    1  0.2380582E-009  0.1021943E+03  0.7561462E-02  0.1275748E+00
          2   -1    0    0  501    0  0.00000000000E+00  0.00000000000E+00  0.55108371226E+02  0.55108371226E+02  0.00000000000E+00 0. -1.
         -2   -1    0    0    0  501 -0.00000000000E+00 -0.00000000000E+00 -0.23863066927E+03  0.23863066927E+03  0.00000000000E+00 0.  1.
         25    2    1    2    0    0 -0.17509000931E+02 -0.30036658806E+02 -0.13047690981E+03  0.18406691324E+03  0.12509052150E+03 0.  0.
          5    1    3    3  502    0  0.49998700209E+02  0.74329960064E+01 -0.37152458950E+02  0.62872068983E+02  0.41800000000E+01 0.  1.
         -5    1    3    3    0  502 -0.67507701139E+02 -0.37469654813E+02 -0.93324450860E+02  0.12119484425E+03  0.41800000000E+01 0.  1.
        -11    1    1    2    0    0  0.27169372332E+02  0.48452286039E+02 -0.31761837871E+01  0.55640695168E+02  0.00000000000E+00 0. -1.
         11    1    1    2    0    0 -0.96603714010E+01 -0.18415627232E+02 -0.49869204444E+02  0.54031432092E+02  0.00000000000E+00 0.  1.
</event>
<event>
 7    1  0.3319764E-009  0.2743224E+03  0.7561462E-02  0.1098831E+00
          2   -1    0    0  501    0  0.00000000000E+00  0.00000000000E+00  0.19593675085E+04  0.19593675085E+04  0.00000000000E+00 0.  1.
         -2   -1    0    0    0  501 -0.00000000000E+00 -0.00000000000E+00 -0.38920772145E+02  0.38920772145E+02  0.00000000000E+00 0. -1.
         25    2    1    2    0    0  0.24311267026E+03  0.66316202898E+02  0.88072586886E+03  0.92456879769E+03  0.12509115227E+03 0.  0.
          5    1    3    3  502    0  0.13875883770E+03  0.10049484891E+03  0.52665611675E+03  0.55383875578E+03  0.41800000000E+01 0.  1.
         -5    1    3    3    0  502  0.10435383256E+03 -0.34178646014E+02  0.35406975211E+03  0.37073004191E+03  0.41800000000E+01 0.  1.
        -11    1    1    2    0    0 -0.11083635846E+03 -0.76556792009E+02  0.48563120990E+03  0.50396757117E+03  0.00000000000E+00 0.  1.
         11    1    1    2    0    0 -0.13227631180E+03  0.10240589111E+02  0.55408965758E+03  0.56975191177E+03  0.00000000000E+00 0. -1.
</event>
<event>
 7    1  0.2380582E-009  0.1063497E+03  0.7561462E-02  0.1267483E+00
         -2   -1    0    0    0  501 -0.00000000000E+00  0.00000000000E+00  0.38398653391E+03  0.38398653391E+03  0.00000000000E+00 0. -1.
          2   -1    0    0  501    0  0.00000000000E+00 -0.00000000000E+00 -0.36551769227E+02  0.36551769227E+02  0.00000000000E+00 0.  1.
         25    2    1    2    0    0  0.15495906697E+02  0.96402957918E+01  0.11430030111E+03  0.17042449024E+03  0.12508752781E+03 0.  0.
          5    1    3    3  502    0  0.56672074442E+02 -0.30536259121E+02  0.38333592389E+02  0.75040814549E+02  0.41800000000E+01 0.  1.
         -5    1    3    3    0  502 -0.41176167745E+02  0.40176554913E+02  0.75966708718E+02  0.95383675691E+02  0.41800000000E+01 0.  1.
        -11    1    1    2    0    0 -0.78222652589E+01  0.39756156815E+02  0.99314721346E+02  0.10726207957E+03  0.00000000000E+00 0.  1.
         11    1    1    2    0    0 -0.76736414382E+01 -0.49396452607E+02  0.13381974223E+03  0.14285173333E+03  0.00000000000E+00 0. -1.
</event>
<event>
 7    1  0.2380582E-009  0.1871960E+03  0.7561462E-02  0.1161015E+00
          2   -1    0    0  501    0  0.00000000000E+00  0.00000000000E+00  0.13582096546E+04  0.13582096546E+04  0.00000000000E+00 0. -1.
         -2   -1    0    0    0  501 -0.00000000000E+00 -0.00000000000E+00 -0.26785334026E+02  0.26785334026E+02  0.00000000000E+00 0.  1.
         25    2    1    2    0    0 -0.97103758024E+02 -0.11779642921E+03  0.57392092738E+03  0.60690654477E+03  0.12508071248E+03 0.  0.
          5    1    3    3  502    0  0.29078872510E+02 -0.11412755566E+02  0.11285310640E+03  0.11717136101E+03  0.41800000000E+01 0.  1.
         -5    1    3    3    0  502 -0.12618263053E+03 -0.10638367364E+03  0.46106782098E+03  0.48973518376E+03  0.41800000000E+01 0.  1.
        -11    1    1    2    0    0 -0.14291623353E+02  0.38429284731E+02  0.17055266254E+03  0.17541171888E+03  0.00000000000E+00 0. -1.
         11    1    1    2    0    0  0.11139538138E+03  0.79367144475E+02  0.58695073064E+03  0.60267672497E+03  0.00000000000E+00 0.  1.
</event>
<event>
 7    1  0.2380582E-009  0.1915594E+03  0.7561462E-02  0.1157062E+00
         -1   -1    0    0    0  501 -0.00000000000E+00  0.00000000000E+00  0.64644625820E+02  0.64644625820E+02  0.00000000000E+00 0.  1.
          1   -1    0    0  501    0  0.00000000000E+00 -0.00000000000E+00 -0.62647026190E+03  0.62647026190E+03  0.00000000000E+00 0. -1.
         25    2    1    2    0    0 -0.12173165171E+03  0.10877451913E+03 -0.21931954845E+03  0.30066367267E+03  0.12508832355E+03 0.  0.
          5    1    3    3  502    0 -0.36758657460E+02 -0.26714028874E+02 -0.46031527193E+02  0.64816758116E+02  0.41800000000E+01 0.  1.
         -5    1    3    3    0  502 -0.84972994252E+02  0.13548854800E+03 -0.17328802125E+03  0.23584691455E+03  0.41800000000E+01 0.  1.
        -11    1    1    2    0    0  0.70791627197E+02 -0.10471716050E+03 -0.29388549243E+03  0.31991533387E+03  0.00000000000E+00 0.  1.
         11    1    1    2    0    0  0.50940024515E+02 -0.40573586351E+01 -0.48620595201E+02  0.70535881183E+02  0.00000000000E+00 0. -1.
</event>
<event>
 7    1  0.2380582E-009  0.1073906E+03  0.7561462E-02  0.1265480E+00
          2   -1    0    0  501    0  0.00000000000E+00  0.00000000000E+00  0.22764401024E+03  0.22764401024E+03  0.00000000000E+00 0. -1.
         -2   -1    0    0    0  501 -0.00000000000E+00 -0.00000000000E+00 -0.65609735519E+02  0.65609735519E+02  0.00000000000E+00 0.  1.
         25    2    1    2    0    0  0.16515915419E+02  0.51448997628E+02  0.10718895981E+03  0.17336860151E+03  0.12508966410E+03 0.  0.
          5    1    3    3  502    0  0.44087919676E+02 -0.25948529014E+02  0.58278975278E+02  0.77659398522E+02  0.41800000000E+01 0.  1.
         -5    1    3    3    0  502 -0.27572004257E+02  0.77397526642E+02  0.48909984528E+02  0.95709202983E+02  0.41800000000E+01 0.  1.
        -11    1    1    2    0    0 -0.30425102246E+02 -0.58238759722E+02  0.29966466786E+01  0.65775526390E+02  0.00000000000E+00 0.  1.
         11    1    1    2    0    0  0.13909186827E+02  0.67897620942E+01  0.51848668239E+02  0.54109617867E+02  0.00000000000E+00 0. -1.
</event>
<event>
 7    1  0.2380582E-009  0.1456224E+03  0.7561462E-02  0.1205958E+00
         -1   -1    0    0    0  501 -0.00000000000E+00  0.00000000000E+00  0.68143795892E+02  0.68143795892E+02  0.00000000000E+00 0.  1.
          1   -1    0    0  501    0  0.00000000000E+00 -0.00000000000E+00 -0.60460701307E+03  0.60460701307E+03  0.00000000000E+00 0. -1.
         25    2    1    2    0    0  0.53793620975E+02 -0.99054342812E+02 -0.65091526606E+02  0.18052588241E+03  0.12508865215E+03 0.  0.
          5    1    3    3  502    0  0.80471373054E+02 -0.91256545517E+02 -0.82869064965E+02  0.14726898285E+03  0.41800000000E+01 0. -1.
         -5    1    3    3    0  502 -0.26677752078E+02 -0.77977972947E+01  0.17777538359E+02  0.33256899565E+02  0.41800000000E+01 0. -1.
        -11    1    1    2    0    0  0.26937229169E+01  0.82486121336E+02 -0.29213081902E+03  0.30356487244E+03  0.00000000000E+00 0. -1.
         11    1    1    2    0    0 -0.56487343892E+02  0.16568221476E+02 -0.17924087155E+03  0.18866005411E+03  0.00000000000E+00 0.  1.
</event>
<event>
 7    1  0.2380582E-009  0.1083394E+03  0.7561462E-02  0.1263676E+00
         -4   -1    0    0    0  501 -0.00000000000E+00  0.00000000000E+00  0.43614840188E+02  0.43614840188E+02  0.00000000000E+00 0.  1.
          4   -1    0    0  501    0  0.00000000000E+00 -0.00000000000E+00 -0.44110525196E+03  0.44110525196E+03  0.00000000000E+00 0. -1.
         25    2    1    2    0    0 -0.63665546170E+02 -0.56104969172E+02 -0.23467192506E+03  0.27914031470E+03  0.12508930227E+03 0.  0.
          5    1    3    3  502    0  0.87611056835E+00  0.65170435387E+01  0.13254461800E+02  0.15375063701E+02  0.41800000000E+01 0.  1.
         -5    1    3    3    0  502 -0.64541656738E+02 -0.62622012711E+02 -0.24792638686E+03  0.26376525100E+03  0.41800000000E+01 0.  1.
        -11    1    1    2    0    0 -0.10493621279E+02 -0.13537360464E+02 -0.50536130733E+01  0.17858197584E+02  0.00000000000E+00 0.  1.
         11    1    1    2    0    0  0.74159167449E+02  0.69642329636E+02 -0.15776487363E+03  0.18772157986E+03  0.00000000000E+00 0. -1.
</event>
<event>
 7    1  0.2380582E-009  0.1384844E+03  0.7561462E-02  0.1215383E+00
         -2   -1    0    0    0  501 -0.00000000000E+00  0.00000000000E+00  0.19467663763E+02  0.19467663763E+02  0.00000000000E+00 0. -1.
          2   -1    0    0  501    0  0.00000000000E+00 -0.00000000000E+00 -0.12840227588E+04  0.12840227588E+04  0.00000000000E+00 0.  1.
         25    2    1    2    0    0  0.10442300797E+03  0.45132754481E+02 -0.69830447165E+03  0.71848381352E+03  0.12509486417E+03 0.  0.
          5    1    3    3  502    0  0.12728495220E+02  0.38610549213E+02 -0.54421922443E+02  0.68058850589E+02  0.41800000000E+01 0.  1.
         -5    1    3    3    0  502  0.91694512750E+02  0.65222052685E+01 -0.64388254921E+03  0.65042496293E+03  0.41800000000E+01 0.  1.
        -11    1    1    2    0    0 -0.41149726719E+02  0.26157141802E+02 -0.24969909697E+03  0.25441528080E+03  0.00000000000E+00 0. -1.
         11    1    1    2    0    0 -0.63273281251E+02 -0.71289896284E+02 -0.31655152639E+03  0.33059132822E+03  0.00000000000E+00 0.  1.
</event>
<event>
 7    1  0.2380582E-009  0.1306157E+03  0.7561462E-02  0.1226545E+00
         -1   -1    0    0    0  501 -0.00000000000E+00  0.00000000000E+00  0.60216878209E+02  0.60216878209E+02  0.00000000000E+00 0.  1.
          1   -1    0    0  501    0  0.00000000000E+00 -0.00000000000E+00 -0.29817997856E+03  0.29817997856E+03  0.00000000000E+00 0. -1.
         25    2    1    2    0    0  0.23148630717E+02  0.72269791288E+02 -0.15075198853E+03  0.21007596638E+03  0.12508784022E+03 0.  0.
          5    1    3    3  502    0 -0.49699328722E+02  0.44151984239E+02 -0.84418166790E+02  0.10753287996E+03  0.41800000000E+01 0.  1.
         -5    1    3    3    0  502  0.72847959439E+02  0.28117807049E+02 -0.66333821738E+02  0.10254308643E+03  0.41800000000E+01 0.  1.
        -11    1    1    2    0    0  0.26982445859E+02 -0.58520111915E+02 -0.30193259089E+02  0.71163816491E+02  0.00000000000E+00 0.  1.
         11    1    1    2    0    0 -0.50131076576E+02 -0.13749679372E+02 -0.57017852737E+02  0.77157073897E+02  0.00000000000E+00 0. -1.
</event>
<event>
 7    1  0.2380582E-009  0.1005271E+03  0.7561462E-02  0.1279191E+00
         -1   -1    0    0    0  501 -0.00000000000E+00  0.00000000000E+00  0.11268969187E+03  0.11268969187E+03  0.00000000000E+00 0.  1.
          1   -1    0    0  501    0  0.00000000000E+00 -0.00000000000E+00 -0.11195235322E+03  0.11195235322E+03  0.00000000000E+00 0. -1.
         25    2    1    2    0    0 -0.23040531542E+02  0.20180070706E+02  0.54156138331E+01  0.12889772437E+03  0.12508874101E+03 0.  0.
          5    1    3    3  502    0  0.29215315014E+02  0.41090315364E+02 -0.33200682186E+02  0.60512034718E+02  0.41800000000E+01 0.  1.
         -5    1    3    3    0  502 -0.52255846556E+02 -0.20910244658E+02  0.38616296019E+02  0.68385689652E+02  0.41800000000E+01 0.  1.
        -11    1    1    2    0    0 -0.19262412491E+02 -0.42159913468E+02  0.64276066597E+01  0.46795437448E+02  0.00000000000E+00 0.  1.
         11    1    1    2    0    0  0.42302944033E+02  0.21979842762E+02 -0.11105881847E+02  0.48948883269E+02  0.00000000000E+00 0. -1.
</event>
<event>
 7    1  0.2380582E-009  0.6673526E+02  0.7561462E-02  0.1371561E+00
         -1   -1    0    0    0  501 -0.00000000000E+00  0.00000000000E+00  0.26535018296E+03  0.26535018296E+03  0.00000000000E+00 0. -1.
          1   -1    0    0  501    0  0.00000000000E+00 -0.00000000000E+00 -0.60012421260E+02  0.60012421260E+02  0.00000000000E+00 0.  1.
         25    2    1    2    0    0 -0.13636900636E+02 -0.28045160804E+02  0.41508959444E+02  0.13542365207E+03  0.12507627961E+03 0.  0.
          5    1    3    3  502    0 -0.55425266314E+01  0.20682333889E+01  0.83021129678E+02  0.83336531988E+02  0.41800000000E+01 0.  1.
         -5    1    3    3    0  502 -0.80943740042E+01 -0.30113394192E+02 -0.41512170235E+02  0.52087120077E+02  0.41800000000E+01 0.  1.
        -11    1    1    2    0    0 -0.12311826232E+01  0.59742170094E+02  0.87420235150E+02  0.10589117155E+03  0.00000000000E+00 0.  1.
         11    1    1    2    0    0  0.14868083259E+02 -0.31697009290E+02  0.76408567104E+02  0.84047780605E+02  0.00000000000E+00 0. -1.
</event>
<event>
 7    1  0.2380582E-009  0.9456915E+02  0.7561462E-02  0.1292149E+00
         -1   -1    0    0    0  501 -0.00000000000E+00  0.00000000000E+00  0.47755341581E+02  0.47755341581E+02  0.00000000000E+00 0.  1.
          1   -1    0    0  501    0  0.00000000000E+00 -0.00000000000E+00 -0.38090986597E+03  0.38090986597E+03  0.00000000000E+00 0. -1.
         25    2    1    2    0    0  0.45889735629E+02  0.30725238952E+02 -0.91962575852E+02  0.16478632345E+03  0.12509000318E+03 0.  0.
          5    1    3    3  502    0 -0.14245051657E+02  0.13849735389E+02 -0.99669325172E+02  0.10171619068E+03  0.41800000000E+01 0. -1.
         -5    1    3    3    0  502  0.60134787286E+02  0.16875503563E+02  0.77067493202E+01  0.63070132769E+02  0.41800000000E+01 0. -1.
        -11    1    1    2    0    0 -0.63474533264E+02 -0.49514959415E+02 -0.16794295978E+03  0.18624066505E+03  0.00000000000E+00 0.  1.
         11    1    1    2    0    0  0.17584797634E+02  0.18789720463E+02 -0.73248988753E+02  0.77638219044E+02  0.00000000000E+00 0. -1.
</event>
<event>
 7    1  0.2380582E-009  0.1297011E+03  0.7561462E-02  0.1227900E+00
         -2   -1    0    0    0  501 -0.00000000000E+00  0.00000000000E+00  0.56562718125E+02  0.56562718125E+02  0.00000000000E+00 0.  1.
          2   -1    0    0  501    0  0.00000000000E+00 -0.00000000000E+00 -0.38277695079E+03  0.38277695079E+03  0.00000000000E+00 0. -1.
         25    2    1    2    0    0  0.66894526019E+02 -0.48845069274E+02 -0.95487871611E+02  0.17783716330E+03  0.12508958639E+03 0.  0.
          5    1    3    3  502    0  0.36440978437E+02 -0.83161815766E+02 -0.95399236927E+02  0.13176615391E+03  0.41800000000E+01 0. -1.
         -5    1    3    3    0  502  0.30453547581E+02  0.34316746492E+02 -0.88634684583E-01  0.46071009390E+02  0.41800000000E+01 0. -1.
        -11    1    1    2    0    0  0.10304001294E+02  0.43888774650E+02 -0.72405590179E+02  0.85293414002E+02  0.00000000000E+00 0. -1.
         11    1    1    2    0    0 -0.77198527312E+02  0.49562946239E+01 -0.15832077088E+03  0.17620909161E+03  0.00000000000E+00 0.  1.
</event>
<event>
 7    1  0.2380582E-009  0.1168701E+03  0.7561462E-02  0.1248351E+00
         -2   -1    0    0    0  501 -0.00000000000E+00  0.00000000000E+00  0.37698028904E+02  0.37698028904E+02  0.00000000000E+00 0.  1.
          2   -1    0    0  501    0  0.00000000000E+00 -0.00000000000E+00 -0.48265136977E+03  0.48265136977E+03  0.00000000000E+00 0. -1.
         25    2    1    2    0    0  0.42950875045E+02  0.24920449793E+02 -0.36671535232E+03  0.39063446090E+03  0.12509726587E+03 0.  0.
          5    1    3    3  502    0 -0.43956103416E+02  0.10937050048E+02 -0.10338562851E+03  0.11295051427E+03  0.41800000000E+01 0.  1.
         -5    1    3    3    0  502  0.86906978461E+02  0.13983399745E+02 -0.26332972381E+03  0.27768394663E+03  0.41800000000E+01 0.  1.
        -11    1    1    2    0    0  0.26992654003E+02 -0.56451405158E+01 -0.79495313243E+01  0.28699582398E+02  0.00000000000E+00 0.  1.
         11    1    1    2    0    0 -0.69943529048E+02 -0.19275309277E+02 -0.70288457221E+02  0.10101535538E+03  0.00000000000E+00 0. -1.
</event>
<event>
 7    1  0.3215342E-009  0.1022998E+03  0.7561462E-02  0.1275533E+00
         -1   -1    0    0    0  501 -0.00000000000E+00  0.00000000000E+00  0.76457614684E+02  0.76457614684E+02  0.00000000000E+00 0.  1.
          1   -1    0    0  501    0  0.00000000000E+00 -0.00000000000E+00 -0.22299221723E+03  0.22299221723E+03  0.00000000000E+00 0. -1.
         25    2    1    2    0    0 -0.68716129016E+02  0.58441980428E+01 -0.10677361133E+03  0.17832998480E+03  0.12507964808E+03 0.  0.
          5    1    3    3  502    0 -0.94201702009E+02  0.54223895960E+01 -0.11716018200E+03  0.15049034393E+03  0.41800000000E+01 0. -1.
         -5    1    3    3    0  502  0.25485572993E+02  0.42180844686E+00  0.10386570670E+02  0.27839640864E+02  0.41800000000E+01 0. -1.
        -11    1    1    2    0    0  0.43040195913E+02  0.20377819094E+02  0.19465012107E+02  0.51445122914E+02  0.00000000000E+00 0.  1.
         11    1    1    2    0    0  0.25675933102E+02 -0.26222017137E+02 -0.59226003323E+02  0.69674724205E+02  0.00000000000E+00 0. -1.
</event>
<event>
 7    1  0.2380582E-009  0.1098513E+03  0.7561462E-02  0.1260846E+00
         -1   -1    0    0    0  501 -0.00000000000E+00  0.00000000000E+00  0.36593457902E+02  0.36593457902E+02  0.00000000000E+00 0.  1.
          1   -1    0    0  501    0  0.00000000000E+00 -0.00000000000E+00 -0.57616149394E+03  0.57616149394E+03  0.00000000000E+00 0. -1.
         25    2    1    2    0    0  0.56915626772E+02 -0.48186945521E+02 -0.41973409088E+03  0.44428094396E+03  0.12508988700E+03 0.  0.
          5    1    3    3  502    0  0.61224120075E+02 -0.65583541854E+02 -0.15678962426E+03  0.18069325531E+03  0.41800000000E+01 0. -1.
         -5    1    3    3    0  502 -0.43084933038E+01  0.17396596334E+02 -0.26294446662E+03  0.26358768865E+03  0.41800000000E+01 0. -1.
        -11    1    1    2    0    0 -0.15775539977E+02  0.65112840821E+02 -0.98530306055E+02  0.11915020316E+03  0.00000000000E+00 0. -1.
         11    1    1    2    0    0 -0.41140086794E+02 -0.16925895300E+02 -0.21303639099E+02  0.49323804720E+02  0.00000000000E+00 0.  1.
</event>
<event>
 7    1  0.2754053E-009  0.1537357E+03  0.7561462E-02  0.1195956E+00
          2   -1    0    0  501    0  0.00000000000E+00  0.00000000000E+00  0.10213962446E+04  0.10213962446E+04  0.00000000000E+00 0. -1.
         -2   -1    0    0    0  501 -0.00000000000E+00 -0.00000000000E+00 -0.32898177731E+02  0.32898177731E+02  0.00000000000E+00 0.  1.
         25    2    1    2    0    0  0.22614111472E+02  0.13974566584E+03  0.40539654135E+03  0.44725262729E+03  0.12509319614E+03 0.  0.
          5    1    3    3  502    0  0.42441636955E+02  0.54586993036E+02  0.31056202635E+03  0.31819377267E+03  0.41800000000E+01 0.  1.
         -5    1    3    3    0  502 -0.19827525483E+02  0.85158672802E+02  0.94834515003E+02  0.12905885462E+03  0.41800000000E+01 0.  1.
        -11    1    1    2    0    0 -0.35626408778E+02 -0.59348764950E+02  0.40920538652E+03  0.41501875290E+03  0.00000000000E+00 0. -1.
         11    1    1    2    0    0  0.13012297305E+02 -0.80396900887E+02  0.17389613899E+03  0.19202304213E+03  0.00000000000E+00 0.  1.
</event>
<event>
 7    1  0.2380582E-009  0.1515893E+03  0.7561462E-02  0.1198534E+00
         -2   -1    0    0    0  501 -0.00000000000E+00  0.00000000000E+00  0.91149848276E+02  0.91149848276E+02  0.00000000000E+00 0. -1.
          2   -1    0    0  501    0  0.00000000000E+00 -0.00000000000E+00 -0.33062806001E+03  0.33062806001E+03  0.00000000000E+00 0.  1.
         25    2    1    2    0    0 -0.78209773878E+02  0.93917613859E+02 -0.55927698748E+02  0.18361433957E+03  0.12509608821E+03 0.  0.
          5    1    3    3  502    0 -0.10521316668E+03  0.36848779477E+02 -0.33399727743E+02  0.11645023488E+03  0.41800000000E+01 0.  1.
         -5    1    3    3    0  502  0.27003392799E+02  0.57068834382E+02 -0.22527971005E+02  0.67164104684E+02  0.41800000000E+01 0.  1.
        -11    1    1    2    0    0  0.42666056353E+02 -0.79030498383E+02 -0.17780723071E+03  0.19920246819E+03  0.00000000000E+00 0. -1.
         11    1    1    2    0    0  0.35543717525E+02 -0.14887115477E+02 -0.57432822674E+01  0.38961100522E+02  0.00000000000E+00 0.  1.
</event>
<event>
 7    1  0.2380582E-009  0.8046976E+02  0.7561462E-02  0.1327724E+00
         -2   -1    0    0    0  501 -0.00000000000E+00  0.00000000000E+00  0.11366927499E+03  0.11366927499E+03  0.00000000000E+00 0.  1.
          2   -1    0    0  501    0  0.00000000000E+00 -0.00000000000E+00 -0.15724144907E+03  0.15724144907E+03  0.00000000000E+00 0. -1.
         25    2    1    2    0    0 -0.77609297072E+02  0.11420735237E+02 -0.11921514664E+02  0.14812665433E+03  0.12508296057E+03 0.  0.
          5    1    3    3  502    0 -0.45842192749E+02  0.11343764598E+02  0.55792153224E+02  0.73214919194E+02  0.41800000000E+01 0.  1.
         -5    1    3    3    0  502 -0.31767104324E+02  0.76970639601E-01 -0.67713667887E+02  0.74911735131E+02  0.41800000000E+01 0.  1.
        -11    1    1    2    0    0  0.15971855463E+02 -0.11787323682E+02  0.29761382252E+02  0.35774027451E+02  0.00000000000E+00 0.  1.
         11    1    1    2    0    0  0.61637441610E+02  0.36658844438E+00 -0.61412041670E+02  0.87010042279E+02  0.00000000000E+00 0. -1.
</event>
<event>
 7    1  0.2380582E-009  0.9982486E+02  0.7561462E-02  0.1280665E+00
          3   -1    0    0  501    0  0.00000000000E+00  0.00000000000E+00  0.70248304867E+02  0.70248304867E+02  0.00000000000E+00 0. -1.
         -3   -1    0    0    0  501 -0.00000000000E+00 -0.00000000000E+00 -0.19394361288E+03  0.19394361288E+03  0.00000000000E+00 0.  1.
         25    2    1    2    0    0 -0.76363031448E+02 -0.19381602601E+02 -0.87848330536E+02  0.17196295617E+03  0.12508784923E+03 0.  0.
          5    1    3    3  502    0 -0.70573693823E+02  0.22895066842E+02 -0.11379926067E+00  0.74312284959E+02  0.41800000000E+01 0.  1.
         -5    1    3    3    0  502 -0.57893376249E+01 -0.42276669443E+02 -0.87734531276E+02  0.97650671209E+02  0.41800000000E+01 0.  1.
        -11    1    1    2    0    0  0.21362894682E+02  0.17186654984E+02 -0.22801218349E+02  0.35660201022E+02  0.00000000000E+00 0.  1.
         11    1    1    2    0    0  0.55000136766E+02  0.21949476170E+01 -0.13045759124E+02  0.56568760553E+02  0.00000000000E+00 0. -1.
</event>
<event>
 7    1  0.2380582E-009  0.1042572E+03  0.7561462E-02  0.1271590E+00
         -1   -1    0    0    0  501 -0.00000000000E+00  0.00000000000E+00  0.71799859219E+02  0.71799859219E+02  0.00000000000E+00 0.  1.
          1   -1    0    0  501    0  0.00000000000E+00 -0.00000000000E+00 -0.19774937024E+03  0.19774937024E+03  0.00000000000E+00 0. -1.
         25    2    1    2    0    0  0.44118545487E+02  0.22806713746E+02 -0.74326123787E+02  0.15374722137E+03  0.12508894097E+03 0.  0.
          5    1    3    3  502    0  0.10527699376E+02 -0.35610609323E+02  0.16272693126E+02  0.40758077630E+02  0.41800000000E+01 0. -1.
         -5    1    3    3    0  502  0.33590846111E+02  0.58417323069E+02 -0.90598816914E+02  0.11298914374E+03  0.41800000000E+01 0. -1.
        -11    1    1    2    0    0  0.22804655391E+02 -0.28458479392E+02 -0.19478931394E+02  0.41344481192E+02  0.00000000000E+00 0. -1.
         11    1    1    2    0    0 -0.66923200878E+02  0.56517656460E+01 -0.32144455841E+02  0.74457526899E+02  0.00000000000E+00 0.  1.
</event>
<event>
 7    1  0.2380582E-009  0.1420017E+03  0.7561462E-02  0.1210661E+00
          1   -1    0    0  501    0  0.00000000000E+00  0.00000000000E+00  0.30582642476E+02  0.30582642476E+02  0.00000000000E+00 0. -1.
         -1   -1    0    0    0  501 -0.00000000000E+00 -0.00000000000E+00 -0.16137747268E+04  0.16137747268E+04  0.00000000000E+00 0.  1.
         25    2    1    2    0    0 -0.16992233757E+02  0.11625012900E+03 -0.13883928868E+04  0.13989590628E+04  0.12509525519E+03 0.  0.
          5    1    3    3  502    0 -0.33973998220E+02 -0.15446066864E+01 -0.66057378792E+03  0.66146188102E+03  0.41800000000E+01 0.  1.
         -5    1    3    3    0  502  0.16981764464E+02  0.11779473569E+03 -0.72781909887E+03  0.73749718180E+03  0.41800000000E+01 0.  1.
        -11    1    1    2    0    0  0.36401033267E+01 -0.11720939025E+03 -0.11416699051E+03  0.16366243685E+03  0.00000000000E+00 0. -1.
         11    1    1    2    0    0  0.13352130430E+02  0.95926124365E+00 -0.80632207048E+02  0.81735869621E+02  0.00000000000E+00 0.  1.
</event>
<event>
 7    1  0.2380582E-009  0.9962611E+02  0.7561462E-02  0.1281084E+00
         -2   -1    0    0    0  501 -0.00000000000E+00  0.00000000000E+00  0.42442355695E+02  0.42442355695E+02  0.00000000000E+00 0.  1.
          2   -1    0    0  501    0  0.00000000000E+00 -0.00000000000E+00 -0.29262322512E+03  0.29262322512E+03  0.00000000000E+00 0. -1.
         25    2    1    2    0    0  0.58569192669E+01 -0.27073451518E+02 -0.13443055338E+03  0.18570023566E+03  0.12508288676E+03 0.  0.
          5    1    3    3  502    0  0.12987781198E+02  0.48732744347E+02 -0.66572158817E+02  0.83623486902E+02  0.41800000000E+01 0.  1.
         -5    1    3    3    0  502 -0.71308619309E+01 -0.75806195866E+02 -0.67858394564E+02  0.10207674875E+03  0.41800000000E+01 0.  1.
        -11    1    1    2    0    0 -0.35533036838E+02  0.61055374299E+01 -0.98067351619E+01  0.37363703628E+02  0.00000000000E+00 0.  1.
         11    1    1    2    0    0  0.29676117572E+02  0.20967914089E+02 -0.10594358088E+03  0.11200164153E+03  0.00000000000E+00 0. -1.
</event>
<event>
 7    1  0.2380582E-009  0.1878163E+03  0.7561462E-02  0.1160446E+00
         -2   -1    0    0    0  501 -0.00000000000E+00  0.00000000000E+00  0.28992417817E+02  0.28992417817E+02  0.00000000000E+00 0.  1.
          2   -1    0    0  501    0  0.00000000000E+00 -0.00000000000E+00 -0.15478194528E+04  0.15478194528E+04  0.00000000000E+00 0. -1.
         25    2    1    2    0    0 -0.64818151105E+02  0.17179774128E+03 -0.72949106525E+03  0.76257440429E+03  0.12508657476E+03 0.  0.
          5    1    3    3  502    0 -0.56740860044E+01  0.93670450501E+02 -0.16708125724E+03  0.19167672647E+03  0.41800000000E+01 0. -1.
         -5    1    3    3    0  502 -0.59144065101E+02  0.78127290775E+02 -0.56240980801E+03  0.57089767782E+03  0.41800000000E+01 0. -1.
        -11    1    1    2    0    0  0.15121005981E+02 -0.40476493238E+02 -0.77926697185E+02  0.89104216853E+02  0.00000000000E+00 0. -1.
         11    1    1    2    0    0  0.49697145124E+02 -0.13132124804E+03 -0.71140927259E+03  0.72513324951E+03  0.00000000000E+00 0.  1.
</event>
<event>
 7    1  0.2380582E-009  0.1344321E+03  0.7561462E-02  0.1221024E+00
         -2   -1    0    0    0  501 -0.00000000000E+00  0.00000000000E+00  0.33681715532E+02  0.33681715532E+02  0.00000000000E+00 0.  1.
          2   -1    0    0  501    0  0.00000000000E+00 -0.00000000000E+00 -0.60860436885E+03  0.60860436885E+03  0.00000000000E+00 0. -1.
         25    2    1    2    0    0  0.39502950190E+02 -0.83344558152E+02 -0.34725500901E+03  0.38044728855E+03  0.12508916672E+03 0.  0.
          5    1    3    3  502    0 -0.16064551793E+02  0.18510043539E+02 -0.14602222162E+03  0.14812377643E+03  0.41800000000E+01 0.  1.
         -5    1    3    3    0  502  0.55567501983E+02 -0.10185460169E+03 -0.20123278739E+03  0.23232351212E+03  0.41800000000E+01 0.  1.
        -11    1    1    2    0    0  0.19808380713E+02 -0.59671469640E+01 -0.52968686473E+02  0.56865284102E+02  0.00000000000E+00 0.  1.
         11    1    1    2    0    0 -0.59311330903E+02  0.89311705116E+02 -0.17469895783E+03  0.20497351173E+03  0.00000000000E+00 0. -1.
</event>
<event>
 7    1  0.2380582E-009  0.9936567E+02  0.7561462E-02  0.1281636E+00
         -2   -1    0    0    0  501 -0.00000000000E+00  0.00000000000E+00  0.45842752116E+02  0.45842752116E+02  0.00000000000E+00 0.  1.
          2   -1    0    0  501    0  0.00000000000E+00 -0.00000000000E+00 -0.27536481205E+03  0.27536481205E+03  0.00000000000E+00 0. -1.
         25    2    1    2    0    0  0.22056070211E+02  0.16497703582E+02 -0.14684248886E+03  0.19485613892E+03  0.12509018300E+03 0.  0.
          5    1    3    3  502    0  0.47394504538E+02  0.47029534688E+02 -0.13890863138E+03  0.15417878085E+03  0.41800000000E+01 0.  1.
         -5    1    3    3    0  502 -0.25338434327E+02 -0.30531831106E+02 -0.79338574782E+01  0.40677358067E+02  0.41800000000E+01 0.  1.
        -11    1    1    2    0    0 -0.12598299673E+02 -0.52872063842E+02 -0.31389745295E+02  0.62765343934E+02  0.00000000000E+00 0.  1.
         11    1    1    2    0    0 -0.94577705382E+01  0.36374360260E+02 -0.51289825782E+02  0.63586081312E+02  0.00000000000E+00 0. -1.
</event>
<event>
 7    1  0.2380582E-009  0.1246988E+03  0.7561462E-02  0.1235541E+00
          3   -1    0    0  501    0  0.00000000000E+00  0.00000000000E+00  0.22519476868E+03  0.22519476868E+03  0.00000000000E+00 0. -1.
         -3   -1    0    0    0  501 -0.00000000000E+00 -0.00000000000E+00 -0.96944162283E+02  0.96944162283E+02  0.00000000000E+00 0.  1.
         25    2    1    2    0    0 -0.62667763851E+02  0.63946769623E+02  0.22966283862E+02  0.15553777652E+03  0.12509241287E+03 0.  0.
          5    1    3    3  502    0 -0.46529541460E+02 -0.93495581402E+01  0.55919593482E+02  0.73463499788E+02  0.41800000000E+01 0.  1.
         -5    1    3    3    0  502 -0.16138222391E+02  0.73296327763E+02 -0.32953309620E+02  0.82074276728E+02  0.41800000000E+01 0.  1.
        -11    1    1    2    0    0  0.38756641480E+02  0.16897355353E+02  0.51361769251E+02  0.66525402797E+02  0.00000000000E+00 0.  1.
         11    1    1    2    0    0  0.23911122372E+02 -0.80844124976E+02  0.53922553288E+02  0.10007575165E+03  0.00000000000E+00 0. -1.
</event>
<event>
 7    1  0.2380582E-009  0.2287964E+03  0.7561462E-02  0.1127490E+00
         -1   -1    0    0    0  501 -0.00000000000E+00  0.00000000000E+00  0.54515650273E+03  0.54515650273E+03  0.00000000000E+00 0.  1.
          1   -1    0    0  501    0  0.00000000000E+00 -0.00000000000E+00 -0.10927596715E+03  0.10927596715E+03  0.00000000000E+00 0. -1.
         25    2    1    2    0    0 -0.21185283039E+03  0.15505329967E+02  0.27878789605E+03  0.37214582651E+03  0.12509111960E+03 0.  0.
          5    1    3    3  502    0 -0.20271204055E+03  0.41460983651E+02  0.19688948956E+03  0.28564685899E+03  0.41800000000E+01 0. -1.
         -5    1    3    3    0  502 -0.91407898436E+01 -0.25955653684E+02  0.81898406493E+02  0.86498967527E+02  0.41800000000E+01 0. -1.
        -11    1    1    2    0    0  0.71855171139E+02  0.26592254789E+02  0.14319750217E+02  0.77944652674E+02  0.00000000000E+00 0. -1.
         11    1    1    2    0    0  0.13999765925E+03 -0.42097584756E+02  0.14277288931E+03  0.20434199069E+03  0.00000000000E+00 0.  1.
</event>
<event>
 7    1  0.2380582E-009  0.1150492E+03  0.7561462E-02  0.1251495E+00
          1   -1    0    0  501    0  0.00000000000E+00  0.00000000000E+00  0.61039765721E+02  0.61039765721E+02  0.00000000000E+00 0. -1.
         -1   -1    0    0    0  501 -0.00000000000E+00 -0.00000000000E+00 -0.24271731877E+03  0.24271731877E+03  0.00000000000E+00 0.  1.
         25    2    1    2    0    0 -0.48323411627E+02  0.52275922236E+01 -0.69468013204E+02  0.15111603594E+03  0.12509105335E+03 0.  0.
          5    1    3    3  502    0 -0.54633223188E+02  0.57724575348E+02 -0.30215946573E+02  0.85131612826E+02  0.41800000000E+01 0. -1.
         -5    1    3    3    0  502  0.63098115609E+01 -0.52496983124E+02 -0.39252066630E+02  0.65984423115E+02  0.41800000000E+01 0. -1.
        -11    1    1    2    0    0  0.47348143547E+02  0.33961444252E+02 -0.91036639649E+02  0.10808744678E+03  0.00000000000E+00 0. -1.
         11    1    1    2    0    0  0.97526807992E+00 -0.39189036476E+02 -0.21172900193E+02  0.44553601766E+02  0.00000000000E+00 0.  1.
</event>
<event>
 7    1  0.2380582E-009  0.1460645E+03  0.7561462E-02  0.1205394E+00
         -1   -1    0    0    0  501 -0.00000000000E+00  0.00000000000E+00  0.17746840730E+03  0.17746840730E+03  0.00000000000E+00 0.  1.
          1   -1    0    0  501    0  0.00000000000E+00 -0.00000000000E+00 -0.27702997054E+03  0.27702997054E+03  0.00000000000E+00 0. -1.
         25    2    1    2    0    0  0.40865180367E+01 -0.12989683751E+03 -0.19793247697E+03  0.26779627405E+03  0.12509073079E+03 0.  0.
          5    1    3    3  502    0 -0.40171105780E+02 -0.10112603728E+03 -0.18271129615E+03  0.21269951410E+03  0.41800000000E+01 0. -1.
         -5    1    3    3    0  502  0.44257623817E+02 -0.28770800229E+02 -0.15221180819E+02  0.55096759953E+02  0.41800000000E+01 0. -1.
        -11    1    1    2    0    0 -0.29737891432E+01  0.11397580126E+02  0.61465406829E+02  0.62583899617E+02  0.00000000000E+00 0.  1.
         11    1    1    2    0    0 -0.11127288935E+01  0.11849925738E+03  0.36905506911E+02  0.12411820417E+03  0.00000000000E+00 0. -1.
</event>
<event>
 7    1  0.2380582E-009  0.7102806E+02  0.7561462E-02  0.1356632E+00
         -1   -1    0    0    0  501 -0.00000000000E+00  0.00000000000E+00  0.23458693688E+02  0.23458693688E+02  0.00000000000E+00 0.  1.
          1   -1    0    0  501    0  0.00000000000E+00 -0.00000000000E+00 -0.53821551575E+03  0.53821551575E+03  0.00000000000E+00 0. -1.
         25    2    1    2    0    0  0.39480309547E+01  0.90182061803E+01 -0.37402475485E+03  0.39451094778E+03  0.12508979051E+03 0.  0.
          5    1    3    3  502    0 -0.17479715304E+02 -0.12672305550E+02 -0.29797481302E+01  0.22191869546E+02  0.41800000000E+01 0.  1.
         -5    1    3    3    0  502  0.21427746259E+02  0.21690511730E+02 -0.37104500672E+03  0.37231907824E+03  0.41800000000E+01 0.  1.
        -11    1    1    2    0    0  0.29621526753E+02  0.26981106752E+02 -0.75148243366E+02  0.85162629420E+02  0.00000000000E+00 0. -1.
         11    1    1    2    0    0 -0.33569557708E+02 -0.35999312932E+02 -0.65583823846E+02  0.82000632233E+02  0.00000000000E+00 0.  1.
</event>
<event>
 7    1  0.2380582E-009  0.1587785E+03  0.7561462E-02  0.1190083E+00
         -2   -1    0    0    0  501 -0.00000000000E+00  0.00000000000E+00  0.92282755849E+02  0.92282755849E+02  0.00000000000E+00 0.  1.
          2   -1    0    0  501    0  0.00000000000E+00 -0.00000000000E+00 -0.32140537160E+03  0.32140537160E+03  0.00000000000E+00 0. -1.
         25    2    1    2    0    0 -0.60215491914E+01  0.13201128866E+03 -0.96081395657E+02  0.20577342464E+03  0.12509127991E+03 0.  0.
          5    1    3    3  502    0  0.50113206618E+02  0.15757121036E+02 -0.30978176491E+02  0.61128881550E+02  0.41800000000E+01 0.  1.
         -5    1    3    3    0  502 -0.56134755809E+02  0.11625416763E+03 -0.65103219166E+02  0.14464454309E+03  0.41800000000E+01 0.  1.
        -11    1    1    2    0    0  0.14162608831E+02 -0.28130996773E+02 -0.89687398739E+02  0.95056625024E+02  0.00000000000E+00 0. -1.
         11    1    1    2    0    0 -0.81410596398E+01 -0.10388029189E+03 -0.43353821357E+02  0.11285807778E+03  0.00000000000E+00 0.  1.
</event>
<event>
 7    1  0.2380582E-009  0.9950269E+02  0.7561462E-02  0.1281345E+00
         -2   -1    0    0    0  501 -0.00000000000E+00  0.00000000000E+00  0.64026903935E+02  0.64026903935E+02  0.00000000000E+00 0. -1.
          2   -1    0    0  501    0  0.00000000000E+00 -0.00000000000E+00 -0.24713123697E+03  0.24713123697E+03  0.00000000000E+00 0.  1.
         25    2    1    2    0    0 -0.53721555041E+02  0.32394068298E+02 -0.10386623938E+03  0.17427411446E+03  0.12509152709E+03 0.  0.
          5    1    3    3  502    0 -0.71119671372E+02  0.23829485191E+02 -0.12465387923E+03  0.14554007705E+03  0.41800000000E+01 0.  1.
         -5    1    3    3    0  502  0.17398116330E+02  0.85645831077E+01  0.20787639847E+02  0.28734037413E+02  0.41800000000E+01 0.  1.
        -11    1    1    2    0    0 -0.10683735108E+02  0.18899956078E+02 -0.40365171778E+02  0.45833368066E+02  0.00000000000E+00 0.  1.
         11    1    1    2    0    0  0.64405290149E+02 -0.51294024377E+02 -0.38872921878E+02  0.91050658379E+02  0.00000000000E+00 0. -1.
</event>
<event>
 7    1  0.2380582E-009  0.8132736E+02  0.7561462E-02  0.1325326E+00
         -1   -1    0    0    0  501 -0.00000000000E+00  0.00000000000E+00  0.47081318235E+02  0.47081318235E+02  0.00000000000E+00 0.  1.
          1   -1    0    0  501    0  0.00000000000E+00 -0.00000000000E+00 -0.37649555164E+03  0.37649555164E+03  0.00000000000E+00 0. -1.
         25    2    1    2    0    0  0.64443799072E+02 -0.23694593999E+02 -0.23266934875E+03  0.27293729617E+03  0.12508119271E+03 0.  0.
          5    1    3    3  502    0  0.51639019049E+02 -0.62074932537E+01 -0.24301937983E+03  0.24855786576E+03  0.41800000000E+01 0. -1.
         -5    1    3    3    0  502  0.12804780022E+02 -0.17487100745E+02  0.10350031073E+02  0.24379430410E+02  0.41800000000E+01 0. -1.
        -11    1    1    2    0    0 -0.32151750274E+01  0.26898979173E+02  0.88804103320E+01  0.28508842815E+02  0.00000000000E+00 0.  1.
         11    1    1    2    0    0 -0.61228624044E+02 -0.32043851744E+01 -0.10562529498E+03  0.12213073089E+03  0.00000000000E+00 0. -1.
</event>
<event>
 7    1  0.2380582E-009  0.9157706E+02  0.7561462E-02  0.1299077E+00
         -3   -1    0    0    0  501 -0.00000000000E+00  0.00000000000E+00  0.17930298238E+03  0.17930298238E+03  0.00000000000E+00 0.  1.
          3   -1    0    0  501    0  0.00000000000E+00 -0.00000000000E+00 -0.78634679622E+02  0.78634679622E+02  0.00000000000E+00 0. -1.
         25    2    1    2    0    0  0.40243406730E+02  0.27950479875E+02  0.63618982092E+02  0.14864835551E+03  0.12509275600E+03 0.  0.
          5    1    3    3  502    0  0.44190574401E+02  0.65345517199E+02  0.75215622795E+02  0.10907660517E+03  0.41800000000E+01 0. -1.
         -5    1    3    3    0  502 -0.39471676706E+01 -0.37395037324E+02 -0.11596640703E+02  0.39571750336E+02  0.41800000000E+01 0. -1.
        -11    1    1    2    0    0 -0.63394687338E+01  0.12215098589E+02 -0.24653035329E+02  0.28234192893E+02  0.00000000000E+00 0. -1.
         11    1    1    2    0    0 -0.33903937996E+02 -0.40165578464E+02  0.61702355992E+02  0.81055113595E+02  0.00000000000E+00 0.  1.
</event>
<event>
 7    1  0.2705401E-009  0.1178156E+03  0.7561462E-02  0.1246745E+00
          2   -1    0    0  501    0  0.00000000000E+00  0.00000000000E+00  0.38910764734E+03  0.38910764734E+03  0.00000000000E+00 0.  1.
         -2   -1    0    0    0  501 -0.00000000000E+00 -0.00000000000E+00 -0.50856061211E+02  0.50856061211E+02  0.00000000000E+00 0. -1.
         25    2    1    2    0    0  0.74464720437E+02 -0.31274579286E+02  0.12577013171E+03  0.19490686997E+03  0.12508983984E+03 0.  0.
          5    1    3    3  502    0  0.23194876410E+02  0.30229993216E+02  0.10543690976E+03  0.11218854274E+03  0.41800000000E+01 0.  1.
         -5    1    3    3    0  502  0.51269844028E+02 -0.61504572502E+02  0.20333221945E+02  0.82718327231E+02  0.41800000000E+01 0.  1.
        -11    1    1    2    0    0 -0.54360462046E+01  0.46180534466E+02  0.12000946167E+03  0.12870300405E+03  0.00000000000E+00 0.  1.
         11    1    1    2    0    0 -0.69028674233E+02 -0.14905955180E+02  0.92471992748E+02  0.11635383453E+03  0.00000000000E+00 0. -1.
</event>
<event>
 7    1  0.2380582E-009  0.1028233E+03  0.7561462E-02  0.1274469E+00
          2   -1    0    0  501    0  0.00000000000E+00  0.00000000000E+00  0.82318375623E+02  0.82318375623E+02  0.00000000000E+00 0. -1.
         -2   -1    0    0    0  501 -0.00000000000E+00 -0.00000000000E+00 -0.15125066880E+03  0.15125066880E+03  0.00000000000E+00 0.  1.
         25    2    1    2    0    0 -0.21226207461E+02 -0.49672723553E+01 -0.21860901935E+02  0.12884099588E+03  0.12508747942E+03 0.  0.
          5    1    3    3  502    0 -0.40438307938E+02  0.52044438641E+02 -0.50417048538E+01  0.66232707405E+02  0.41800000000E+01 0. -1.
         -5    1    3    3    0  502  0.19212100476E+02 -0.57011710996E+02 -0.16819197081E+02  0.62608288476E+02  0.41800000000E+01 0. -1.
        -11    1    1    2    0    0  0.43925837990E+02 -0.17572048262E+02 -0.54211029856E+02  0.71952010960E+02  0.00000000000E+00 0.  1.
         11    1    1    2    0    0 -0.22699630528E+02  0.22539320617E+02  0.71396386145E+01  0.32776037582E+02  0.00000000000E+00 0. -1.
</event>
<event>
 7    1  0.2380582E-009  0.1006213E+03  0.7561462E-02  0.1278995E+00
         -2   -1    0    0    0  501 -0.00000000000E+00  0.00000000000E+00  0.15934507268E+03  0.15934507268E+03  0.00000000000E+00 0.  1.
          2   -1    0    0  501    0  0.00000000000E+00 -0.00000000000E+00 -0.82607865931E+02  0.82607865931E+02  0.00000000000E+00 0. -1.
         25    2    1    2    0    0  0.32370992260E+01 -0.31942381185E+02  0.62900567896E+02  0.14365120267E+03  0.12509353325E+03 0.  0.
          5    1    3    3  502    0 -0.53134267390E+02 -0.37147474972E+02  0.57273332130E+02  0.86607691582E+02  0.41800000000E+01 0. -1.
         -5    1    3    3    0  502  0.56371366616E+02  0.52050937867E+01  0.56272357659E+01  0.57043511093E+02  0.41800000000E+01 0. -1.
        -11    1    1    2    0    0 -0.37673160352E+02  0.11167852446E+02  0.35207169952E+02  0.52759195930E+02  0.00000000000E+00 0.  1.
         11    1    1    2    0    0  0.34436061126E+02  0.20774528739E+02 -0.21370531105E+02  0.45542540002E+02  0.00000000000E+00 0. -1.
</event>
<event>
 7    1  0.2380582E-009  0.1384290E+03  0.7561462E-02  0.1215459E+00
         -2   -1    0    0    0  501 -0.00000000000E+00  0.00000000000E+00  0.39593576746E+03  0.39593576746E+03  0.00000000000E+00 0.  1.
          2   -1    0    0  501    0  0.00000000000E+00 -0.00000000000E+00 -0.63578093077E+02  0.63578093077E+02  0.00000000000E+00 0. -1.
         25    2    1    2    0    0  0.49444940025E+02 -0.71458911683E+02  0.28961431559E+03  0.32722690439E+03  0.12509922866E+03 0.  0.
          5    1    3    3  502    0 -0.26736007599E+02  0.19680056671E+02  0.63706529712E+02  0.71959106865E+02  0.41800000000E+01 0.  1.
         -5    1    3    3    0  502  0.76180947624E+02 -0.91138968354E+02  0.22590778587E+03  0.25526779752E+03  0.41800000000E+01 0.  1.
        -11    1    1    2    0    0  0.26247610781E+02  0.16581419446E+02  0.49236065090E+01  0.31434414956E+02  0.00000000000E+00 0. -1.
         11    1    1    2    0    0 -0.75692550806E+02  0.54877492236E+02  0.37819752286E+02  0.10085254119E+03  0.00000000000E+00 0.  1.
</event>
<event>
 7    1  0.2380582E-009  0.1129565E+03  0.7561462E-02  0.1255191E+00
          2   -1    0    0  501    0  0.00000000000E+00  0.00000000000E+00  0.35207751831E+03  0.35207751831E+03  0.00000000000E+00 0. -1.
         -2   -1    0    0    0  501 -0.00000000000E+00 -0.00000000000E+00 -0.39860095285E+02  0.39860095285E+02  0.00000000000E+00 0.  1.
         25    2    1    2    0    0  0.18838517725E+02  0.46750992464E+02  0.19089418158E+03  0.23372745114E+03  0.12508951917E+03 0.  0.
          5    1    3    3  502    0  0.62928269718E+02  0.11438366982E+01  0.54958499606E+02  0.83661129392E+02  0.41800000000E+01 0.  1.
         -5    1    3    3    0  502 -0.44089751993E+02  0.45607155766E+02  0.13593568197E+03  0.15006632174E+03  0.41800000000E+01 0.  1.
        -11    1    1    2    0    0 -0.30427711129E+02  0.16736694267E+02  0.27318867371E+02  0.44184647265E+02  0.00000000000E+00 0.  1.
         11    1    1    2    0    0  0.11589193403E+02 -0.63487686731E+02  0.94004374070E+02  0.11402551519E+03  0.00000000000E+00 0. -1.
</event>
<event>
 7    1  0.2380582E-009  0.7135700E+02  0.7561462E-02  0.1355538E+00
         -1   -1    0    0    0  501 -0.00000000000E+00  0.00000000000E+00  0.46845054208E+02  0.46845054208E+02  0.00000000000E+00 0.  1.
          1   -1    0    0  501    0  0.00000000000E+00 -0.00000000000E+00 -0.38606367700E+03  0.38606367700E+03  0.00000000000E+00 0. -1.
         25    2    1    2    0    0  0.28604415409E+02  0.21692512709E+02 -0.30314509136E+03  0.32989617360E+03  0.12508301744E+03 0.  0.
          5    1    3    3  502    0  0.43972206420E+02 -0.28249313295E+02 -0.24928076360E+03  0.25473505872E+03  0.41800000000E+01 0.  1.
         -5    1    3    3    0  502 -0.15367791011E+02  0.49941826004E+02 -0.53864327757E+02  0.75161114879E+02  0.41800000000E+01 0.  1.
        -11    1    1    2    0    0 -0.18363433757E+02 -0.63775150625E+01  0.29261233925E+02  0.35129876295E+02  0.00000000000E+00 0.  1.
         11    1    1    2    0    0 -0.10240981652E+02 -0.15314997647E+02 -0.65334765358E+02  0.67882681315E+02  0.00000000000E+00 0. -1.
</event>
<event>
 7    1  0.2380582E-009  0.1036356E+03  0.7561462E-02  0.1272831E+00
         -1   -1    0    0    0  501 -0.00000000000E+00  0.00000000000E+00  0.16322926673E+03  0.16322926673E+03  0.00000000000E+00 0.  1.
          1   -1    0    0  501    0  0.00000000000E+00 -0.00000000000E+00 -0.81972886371E+02  0.81972886371E+02  0.00000000000E+00 0. -1.
         25    2    1    2    0    0 -0.61766423774E+00 -0.37498990638E+02  0.55058065584E+02  0.14172332838E+03  0.12509018912E+03 0.  0.
          5    1    3    3  502    0  0.32033850983E+02  0.27623742657E+02  0.54031184746E+02  0.68746491490E+02  0.41800000000E+01 0. -1.
         -5    1    3    3    0  502 -0.32651515221E+02 -0.65122733295E+02  0.10268808386E+01  0.72976836889E+02  0.41800000000E+01 0. -1.
        -11    1    1    2    0    0  0.39431431605E+02  0.35294117343E+02  0.35221107925E+02  0.63569166747E+02  0.00000000000E+00 0.  1.
         11    1    1    2    0    0 -0.38813767368E+02  0.22048732951E+01 -0.90227931491E+01  0.39909657975E+02  0.00000000000E+00 0. -1.
</event>
<event>
 7    1  0.2380582E-009  0.1831122E+03  0.7561462E-02  0.1164825E+00
          2   -1    0    0  501    0  0.00000000000E+00  0.00000000000E+00  0.43755170417E+03  0.43755170417E+03  0.00000000000E+00 0. -1.
         -2   -1    0    0    0  501 -0.00000000000E+00 -0.00000000000E+00 -0.86270514221E+02  0.86270514221E+02  0.00000000000E+00 0.  1.
         25    2    1    2    0    0  0.16144443429E+03  0.29613904679E+02  0.22435561564E+03  0.30483400629E+03  0.12508813055E+03 0.  0.
          5    1    3    3  502    0  0.82743929741E+02 -0.39528337310E+02  0.15157959183E+03  0.17720861271E+03  0.41800000000E+01 0.  1.
         -5    1    3    3    0  502  0.78700504548E+02  0.69142241989E+02  0.72776023810E+02  0.12762539357E+03  0.41800000000E+01 0.  1.
        -11    1    1    2    0    0 -0.24225213988E+02  0.10822608396E+02  0.49901674854E+02  0.56516962042E+02  0.00000000000E+00 0.  1.
         11    1    1    2    0    0 -0.13721922030E+03 -0.40436513074E+02  0.77023899452E+02  0.16247125006E+03  0.00000000000E+00 0. -1.
</event>
<event>
 7    1  0.2380582E-009  0.1172120E+03  0.7561462E-02  0.1247769E+00
          3   -1    0    0  501    0  0.00000000000E+00  0.00000000000E+00  0.10259913207E+03  0.10259913207E+03  0.00000000000E+00 0. -1.
         -3   -1    0    0    0  501 -0.00000000000E+00 -0.00000000000E+00 -0.22765489347E+03  0.22765489347E+03  0.00000000000E+00 0.  1.
         25    2    1    2    0    0  0.34345000261E+02  0.83219976978E+02 -0.99467900579E+02  0.18342932964E+03  0.12508921662E+03 0.  0.
          5    1    3    3  502    0  0.23813223824E+02  0.77003765551E+02  0.23990897268E+01  0.80745758833E+02  0.41800000000E+01 0. -1.
         -5    1    3    3    0  502  0.10531776437E+02  0.62162114265E+01 -0.10186699031E+03  0.10268357081E+03  0.41800000000E+01 0. -1.
        -11    1    1    2    0    0 -0.67519592854E+02 -0.21744987623E+02  0.38071912487E+01  0.71036853894E+02  0.00000000000E+00 0. -1.
         11    1    1    2    0    0  0.33174592592E+02 -0.61474989354E+02 -0.29395052075E+02  0.75787842009E+02  0.00000000000E+00 0.  1.
</event>
<event>
 7    1  0.2380582E-009  0.2185756E+03  0.7561462E-02  0.1134949E+00
         -1   -1    0    0    0  501 -0.00000000000E+00  0.00000000000E+00  0.76162551351E+03  0.76162551351E+03  0.00000000000E+00 0.  1.
          1   -1    0    0  501    0  0.00000000000E+00 -0.00000000000E+00 -0.91944333515E+02  0.91944333515E+02  0.00000000000E+00 0. -1.
         25    2    1    2    0    0 -0.15759227560E+03  0.14280171025E+03  0.52634156854E+03  0.58130090946E+03  0.12509055435E+03 0.  0.
          5    1    3    3  502    0 -0.10140177486E+03  0.11062798368E+03  0.47618705916E+03  0.49929195710E+03  0.41800000000E+01 0.  1.
         -5    1    3    3    0  502 -0.56190500748E+02  0.32173726570E+02  0.50154509379E+02  0.82008952358E+02  0.41800000000E+01 0.  1.
        -11    1    1    2    0    0  0.80696853524E+02 -0.11475589850E+03  0.51985784812E+02  0.14961089610E+03  0.00000000000E+00 0. -1.
         11    1    1    2    0    0  0.76895422081E+02 -0.28045811755E+02  0.91353826648E+02  0.12265804147E+03  0.00000000000E+00 0.  1.
</event>
<event>
 7    1  0.2380582E-009  0.1216984E+03  0.7561462E-02  0.1240321E+00
          1   -1    0    0  501    0  0.00000000000E+00  0.00000000000E+00  0.11029395598E+03  0.11029395598E+03  0.00000000000E+00 0. -1.
         -1   -1    0    0    0  501 -0.00000000000E+00 -0.00000000000E+00 -0.18348553609E+03  0.18348553609E+03  0.00000000000E+00 0.  1.
         25    2    1    2    0    0  0.13251906652E+02 -0.60896821918E+02  0.29688866751E+02  0.14287456253E+03  0.12509067055E+03 0.  0.
          5    1    3    3  502    0  0.62690398549E+02 -0.64314816131E+02  0.21854745489E+02  0.92528827641E+02  0.41800000000E+01 0. -1.
         -5    1    3    3    0  502 -0.49438491897E+02  0.34179942134E+01  0.78341212624E+01  0.50345734888E+02  0.41800000000E+01 0. -1.
        -11    1    1    2    0    0 -0.30034984563E+02 -0.94074365540E+01 -0.57528077487E+02  0.65574994164E+02  0.00000000000E+00 0.  1.
         11    1    1    2    0    0  0.16783077912E+02  0.70304258472E+02 -0.45352369368E+02  0.85329935373E+02  0.00000000000E+00 0. -1.
</event>
<event>
 7    1  0.2380582E-009  0.1251650E+03  0.7561462E-02  0.1234812E+00
         -2   -1    0    0    0  501 -0.00000000000E+00  0.00000000000E+00  0.74054414458E+03  0.74054414458E+03  0.00000000000E+00 0.  1.
          2   -1    0    0  501    0  0.00000000000E+00 -0.00000000000E+00 -0.25745887307E+02  0.25745887307E+02  0.00000000000E+00 0. -1.
         25    2    1    2    0    0  0.39381564121E+02  0.58142716979E+02  0.53167658678E+03  0.55068953897E+03  0.12508993675E+03 0.  0.
          5    1    3    3  502    0  0.32405791815E+02 -0.34729793172E+02  0.23186868589E+03  0.23672104633E+03  0.41800000000E+01 0.  1.
         -5    1    3    3    0  502  0.69757723062E+01  0.92872510151E+02  0.29980790089E+03  0.31396849265E+03  0.41800000000E+01 0.  1.
        -11    1    1    2    0    0 -0.60017155263E+02 -0.15410263766E+02  0.73407416573E+02  0.96063437182E+02  0.00000000000E+00 0. -1.
         11    1    1    2    0    0  0.20635591142E+02 -0.42732453213E+02  0.10971425392E+03  0.11953705573E+03  0.00000000000E+00 0.  1.
</event>
<event>
 7    1  0.2380582E-009  0.9963504E+02  0.7561462E-02  0.1281065E+00
          2   -1    0    0  501    0  0.00000000000E+00  0.00000000000E+00  0.34426040737E+03  0.34426040737E+03  0.00000000000E+00 0. -1.
         -2   -1    0    0    0  501 -0.00000000000E+00 -0.00000000000E+00 -0.65018913479E+02  0.65018913479E+02  0.00000000000E+00 0.  1.
         25    2    1    2    0    0  0.76698069012E+02  0.65725934534E+01  0.24530807626E+03  0.28591709176E+03  0.12508692301E+03 0.  0.
          5    1    3    3  502    0  0.52231968079E+02 -0.83592083505E+01  0.16911889664E+02  0.55691464927E+02  0.41800000000E+01 0. -1.
         -5    1    3    3    0  502  0.24466100933E+02  0.14931801804E+02  0.22839618659E+03  0.23022562683E+03  0.41800000000E+01 0. -1.
        -11    1    1    2    0    0  0.13377411858E+02  0.19338445435E+02  0.14546074236E+02  0.27649934820E+02  0.00000000000E+00 0. -1.
         11    1    1    2    0    0 -0.90075480870E+02 -0.25911038889E+02  0.19387343395E+02  0.95712294269E+02  0.00000000000E+00 0.  1.
</event>
<event>
 7    1  0.2380582E-009  0.9268435E+02  0.7561462E-02  0.1296478E+00
         -2   -1    0    0    0  501 -0.00000000000E+00  0.00000000000E+00  0.40910776670E+02  0.40910776670E+02  0.00000000000E+00 0. -1.
          2   -1    0    0  501    0  0.00000000000E+00 -0.00000000000E+00 -0.63878694138E+03  0.63878694138E+03  0.00000000000E+00 0.  1.
         25    2    1    2    0    0 -0.84532449646E+02  0.16330931986E+02 -0.45570327963E+03  0.48034079951E+03  0.12509744291E+03 0.  0.
          5    1    3    3  502    0 -0.62441819658E+02  0.38961103482E+01 -0.44957658740E+03  0.45392812300E+03  0.41800000000E+01 0. -1.
         -5    1    3    3    0  502 -0.22090629987E+02  0.12434821638E+02 -0.61266922361E+01  0.26412676505E+02  0.41800000000E+01 0. -1.
        -11    1    1    2    0    0  0.65142821814E+02  0.82529736801E+01 -0.13639726206E+02  0.67065199168E+02  0.00000000000E+00 0. -1.
         11    1    1    2    0    0  0.19389627831E+02 -0.24583905666E+02 -0.12853315887E+03  0.13229171938E+03  0.00000000000E+00 0.  1.
</event>
<event>
 7    1  0.2380582E-009  0.2109437E+03  0.7561462E-02  0.1140821E+00
          2   -1    0    0  501    0  0.00000000000E+00  0.00000000000E+00  0.53222564253E+03  0.53222564253E+03  0.00000000000E+00 0. -1.
         -2   -1    0    0    0  501 -0.00000000000E+00 -0.00000000000E+00 -0.95737704091E+02  0.95737704091E+02  0.00000000000E+00 0.  1.
         25    2    1    2    0    0 -0.76653401952E+02 -0.18096921927E+03  0.25551598474E+03  0.34577885985E+03  0.12509595961E+03 0.  0.
          5    1    3    3  502    0 -0.39880538594E+02 -0.17758934971E+03  0.15671558541E+03  0.24022006910E+03  0.41800000000E+01 0. -1.
         -5    1    3    3    0  502 -0.36772863357E+02 -0.33798695585E+01  0.98800399326E+02  0.10555879075E+03  0.41800000000E+01 0. -1.
        -11    1    1    2    0    0  0.39316886992E+02  0.14706639676E+03  0.17412844163E+03  0.23128998431E+03  0.00000000000E+00 0. -1.
         11    1    1    2    0    0  0.37336514959E+02  0.33902822507E+02  0.68435120747E+01  0.50894502461E+02  0.00000000000E+00 0.  1.
</event>
<event>
 7    1  0.2380582E-009  0.1365964E+03  0.7561462E-02  0.1217984E+00
          2   -1    0    0  501    0  0.00000000000E+00  0.00000000000E+00  0.27989187199E+03  0.27989187199E+03  0.00000000000E+00 0.  1.
         -2   -1    0    0    0  501 -0.00000000000E+00 -0.00000000000E+00 -0.92041954531E+02  0.92041954531E+02  0.00000000000E+00 0. -1.
         25    2    1    2    0    0  0.36534536771E+02 -0.10741952517E+03  0.64603343028E+02  0.18082433350E+03  0.12510044321E+03 0.  0.
          5    1    3    3  502    0  0.42717982148E+02 -0.37810162279E+02  0.89757135786E+02  0.10643425292E+03  0.41800000000E+01 0.  1.
         -5    1    3    3    0  502 -0.61834453770E+01 -0.69609362890E+02 -0.25153792758E+02  0.74390080580E+02  0.41800000000E+01 0.  1.
        -11    1    1    2    0    0 -0.18994680521E+02  0.12181861731E+03  0.10182703342E+03  0.15990409046E+03  0.00000000000E+00 0.  1.
         11    1    1    2    0    0 -0.17539856250E+02 -0.14399092140E+02  0.21419541008E+02  0.31205402557E+02  0.00000000000E+00 0. -1.
</event>
<event>
 7    1  0.2380582E-009  0.1190741E+03  0.7561462E-02  0.1244632E+00
         -2   -1    0    0    0  501 -0.00000000000E+00  0.00000000000E+00  0.56514506500E+02  0.56514506500E+02  0.00000000000E+00 0.  1.
          2   -1    0    0  501    0  0.00000000000E+00 -0.00000000000E+00 -0.91225273270E+03  0.91225273270E+03  0.00000000000E+00 0. -1.
         25    2    1    2    0    0 -0.81849476476E+02  0.62493022674E+01 -0.83152106736E+03  0.84487493163E+03  0.12509186250E+03 0.  0.
          5    1    3    3  502    0 -0.88204483451E+02  0.28925387143E+02 -0.79963317491E+03  0.80501391027E+03  0.41800000000E+01 0. -1.
         -5    1    3    3    0  502  0.63550069747E+01 -0.22676084875E+02 -0.31887892453E+02  0.39861021362E+02  0.41800000000E+01 0. -1.
        -11    1    1    2    0    0  0.91033505250E+02  0.20255016523E+02 -0.15657064251E+02  0.94564837193E+02  0.00000000000E+00 0.  1.
         11    1    1    2    0    0 -0.91840287739E+01 -0.26504318790E+02 -0.85600945912E+01  0.29327470373E+02  0.00000000000E+00 0. -1.
</event>
<event>
 7    1  0.2380582E-009  0.1476149E+03  0.7561462E-02  0.1203435E+00
         -2   -1    0    0    0  501 -0.00000000000E+00  0.00000000000E+00  0.60527616568E+03  0.60527616568E+03  0.00000000000E+00 0.  1.
          2   -1    0    0  501    0  0.00000000000E+00 -0.00000000000E+00 -0.56041982734E+02  0.56041982734E+02  0.00000000000E+00 0. -1.
         25    2    1    2    0    0 -0.12393445645E+03  0.22503708756E+01  0.43587710245E+03  0.47010802898E+03  0.12509155368E+03 0.  0.
          5    1    3    3  502    0 -0.13490472212E+03  0.31578755297E+02  0.39385899006E+03  0.41753907397E+03  0.41800000000E+01 0. -1.
         -5    1    3    3    0  502  0.10970265676E+02 -0.29328384421E+02  0.42018112391E+02  0.52568955009E+02  0.41800000000E+01 0. -1.
        -11    1    1    2    0    0  0.92948852185E+02 -0.87662636408E+01  0.12625181437E+03  0.15702183648E+03  0.00000000000E+00 0.  1.
         11    1    1    2    0    0  0.30985604262E+02  0.65158927652E+01 -0.12894733873E+02  0.34188282958E+02  0.00000000000E+00 0. -1.
</event>
<event>
 7    1  0.2380582E-009  0.1950648E+03  0.7561462E-02  0.1153971E+00
         -1   -1    0    0    0  501 -0.00000000000E+00  0.00000000000E+00  0.10447607336E+03  0.10447607336E+03  0.00000000000E+00 0.  1.
          1   -1    0    0  501    0  0.00000000000E+00 -0.00000000000E+00 -0.42352005462E+03  0.42352005462E+03  0.00000000000E+00 0. -1.
         25    2    1    2    0    0 -0.14937341675E+03 -0.87770787598E+02 -0.23444966497E+03  0.31722271274E+03  0.12508986885E+03 0.  0.
          5    1    3    3  502    0 -0.13835932064E+03 -0.11541941082E+03 -0.21836477477E+03  0.28313528439E+03  0.41800000000E+01 0. -1.
         -5    1    3    3    0  502 -0.11014096110E+02  0.27648623226E+02 -0.16084890195E+02  0.34087428357E+02  0.41800000000E+01 0. -1.
        -11    1    1    2    0    0  0.53253049912E+02  0.59075233752E+02  0.28587774213E-01  0.79534718112E+02  0.00000000000E+00 0.  1.
         11    1    1    2    0    0  0.96120366839E+02  0.28695553846E+02 -0.84622904062E+02  0.13123869713E+03  0.00000000000E+00 0. -1.
</event>
<event>
 7    1  0.2380582E-009  0.1174860E+03  0.7561462E-02  0.1247303E+00
          2   -1    0    0  501    0  0.00000000000E+00  0.00000000000E+00  0.53324113160E+03  0.53324113160E+03  0.00000000000E+00 0. -1.
         -2   -1    0    0    0  501 -0.00000000000E+00 -0.00000000000E+00 -0.39961716294E+02  0.39961716294E+02  0.00000000000E+00 0.  1.
         25    2    1    2    0    0  0.51906584418E+01  0.50557440314E+02  0.10461418046E+03  0.17080318011E+03  0.12508637766E+03 0.  0.
          5    1    3    3  502    0 -0.11239361246E+02 -0.38438306964E+02  0.13899109747E+02  0.42596764375E+02  0.41800000000E+01 0. -1.
         -5    1    3    3    0  502  0.16430019688E+02  0.88995747278E+02  0.90715070718E+02  0.12820641574E+03  0.41800000000E+01 0. -1.
        -11    1    1    2    0    0  0.40238446886E+02 -0.63764853154E+01  0.14261918236E+03  0.14832404845E+03  0.00000000000E+00 0.  1.
         11    1    1    2    0    0 -0.45429105328E+02 -0.44180954998E+02  0.24604605249E+03  0.25407561933E+03  0.00000000000E+00 0. -1.
</event>
<event>
 7    1  0.2434481E-009  0.8374689E+02  0.7561462E-02  0.1318742E+00
         -3   -1    0    0    0  501 -0.00000000000E+00  0.00000000000E+00  0.57386310826E+02  0.57386310826E+02  0.00000000000E+00 0.  1.
          3   -1    0    0  501    0  0.00000000000E+00 -0.00000000000E+00 -0.29319441760E+03  0.29319441760E+03  0.00000000000E+00 0. -1.
         25    2    1    2    0    0  0.47752790082E+01 -0.27776616888E+01 -0.34893168451E+02  0.12998428842E+03  0.12509141992E+03 0.  0.
          5    1    3    3  502    0 -0.47101343679E+02 -0.20217791154E+02  0.17282648385E+02  0.54253644953E+02  0.41800000000E+01 0. -1.
         -5    1    3    3    0  502  0.51876622687E+02  0.17440129466E+02 -0.52175816836E+02  0.75730643465E+02  0.41800000000E+01 0. -1.
        -11    1    1    2    0    0 -0.14323351935E+02  0.29503820042E+02 -0.18534734649E+03  0.18822665236E+03  0.00000000000E+00 0. -1.
         11    1    1    2    0    0  0.95480729273E+01 -0.26726158353E+02 -0.15567591836E+02  0.32369787650E+02  0.00000000000E+00 0.  1.
</event>
<event>
 7    1  0.2380582E-009  0.1011803E+03  0.7561462E-02  0.1277833E+00
         -3   -1    0    0    0  501 -0.00000000000E+00  0.00000000000E+00  0.21058496071E+02  0.21058496071E+02  0.00000000000E+00 0.  1.
          3   -1    0    0  501    0  0.00000000000E+00 -0.00000000000E+00 -0.75497183871E+03  0.75497183871E+03  0.00000000000E+00 0. -1.
         25    2    1    2    0    0 -0.57072014851E+02  0.29651974393E+02 -0.38987764946E+03  0.41447441169E+03  0.12509197391E+03 0.  0.
          5    1    3    3  502    0 -0.13314468390E+02  0.46062049639E+02 -0.34882631769E+03  0.35213102647E+03  0.41800000000E+01 0.  1.
         -5    1    3    3    0  502 -0.43757546461E+02 -0.16410075246E+02 -0.41051331768E+02  0.62343385229E+02  0.41800000000E+01 0.  1.
        -11    1    1    2    0    0  0.51072145319E+01 -0.50910473588E+02 -0.21184032535E+03  0.21793183201E+03  0.00000000000E+00 0. -1.
         11    1    1    2    0    0  0.51964800319E+02  0.21258499195E+02 -0.13219536783E+03  0.14362409107E+03  0.00000000000E+00 0.  1.
</event>
<event>
 7    1  0.2380582E-009  0.1270469E+03  0.7561462E-02  0.1231905E+00
          2   -1    0    0  501    0  0.00000000000E+00  0.00000000000E+00  0.25932068421E+03  0.25932068421E+03  0.00000000000E+00 0.  1.
         -2   -1    0    0    0  501 -0.00000000000E+00 -0.00000000000E+00 -0.86385544012E+02  0.86385544012E+02  0.00000000000E+00 0. -1.
         25    2    1    2    0    0 -0.91469297076E+02  0.48612915164E+02  0.75239628157E+02  0.17899253327E+03  0.12508987766E+03 0.  0.
          5    1    3    3  502    0 -0.25235891672E+02  0.72290007028E+02  0.76778820144E+02  0.10851338612E+03  0.41800000000E+01 0. -1.
         -5    1    3    3    0  502 -0.66233405404E+02 -0.23677091864E+02 -0.15391919865E+01  0.70479147147E+02  0.41800000000E+01 0. -1.
        -11    1    1    2    0    0  0.52590176664E+02 -0.12881640120E+02  0.10015305538E+03  0.11385208753E+03  0.00000000000E+00 0.  1.
         11    1    1    2    0    0  0.38879120412E+02 -0.35731275044E+02 -0.24575433354E+01  0.52861607425E+02  0.00000000000E+00 0. -1.
</event>
<event>
 7    1  0.2380582E-009  0.2528137E+03  0.7561462E-02  0.1111539E+00
         -2   -1    0    0    0  501 -0.00000000000E+00  0.00000000000E+00  0.20883359929E+03  0.20883359929E+03  0.00000000000E+00 0.  1.
          2   -1    0    0  501    0  0.00000000000E+00 -0.00000000000E+00 -0.36924181152E+03  0.36924181152E+03  0.00000000000E+00 0. -1.
         25    2    1    2    0    0 -0.99237076948E+02  0.20804434700E+03 -0.19671470177E+03  0.32783439191E+03  0.12509303284E+03 0.  0.
          5    1    3    3  502    0 -0.12703859641E+03  0.19082994892E+03 -0.17133154712E+03  0.28622866002E+03  0.41800000000E+01 0. -1.
         -5    1    3    3    0  502  0.27801519458E+02  0.17214398086E+02 -0.25383154651E+02  0.41605731885E+02  0.41800000000E+01 0. -1.
        -11    1    1    2    0    0  0.81084412877E+02 -0.79501451640E+02  0.39928672017E+02  0.12037217982E+03  0.00000000000E+00 0.  1.
         11    1    1    2    0    0  0.18152664072E+02 -0.12854289536E+03 -0.36221824848E+01  0.12986883909E+03  0.00000000000E+00 0. -1.
</event>
<event>
 7    1  0.2380582E-009  0.2639437E+03  0.7561462E-02  0.1104797E+00
         -2   -1    0    0    0  501 -0.00000000000E+00  0.00000000000E+00  0.13621312636E+03  0.13621312636E+03  0.00000000000E+00 0. -1.
          2   -1    0    0  501    0  0.00000000000E+00 -0.00000000000E+00 -0.64055781699E+03  0.64055781699E+03  0.00000000000E+00 0.  1.
         25    2    1    2    0    0  0.25426920593E+03 -0.56876514357E+01 -0.12217847636E+03  0.30864046989E+03  0.12508469572E+03 0.  0.
          5    1    3    3  502    0  0.13654832969E+03  0.40652915203E+02 -0.11269663643E+03  0.18170335748E+03  0.41800000000E+01 0.  1.
         -5    1    3    3    0  502  0.11772087623E+03 -0.46340566638E+02 -0.94818399299E+01  0.12693711241E+03  0.41800000000E+01 0.  1.
        -11    1    1    2    0    0 -0.19397015050E+03 -0.16148423377E+02 -0.33874262852E+03  0.39068114779E+03  0.00000000000E+00 0. -1.
         11    1    1    2    0    0 -0.60299055431E+02  0.21836074812E+02 -0.43423585745E+02  0.77449325678E+02  0.00000000000E+00 0.  1.
</event>
<event>
 7    1  0.2380582E-009  0.1768324E+03  0.7561462E-02  0.1170904E+00
          1   -1    0    0  501    0  0.00000000000E+00  0.00000000000E+00  0.15980262162E+03  0.15980262162E+03  0.00000000000E+00 0. -1.
         -1   -1    0    0    0  501 -0.00000000000E+00 -0.00000000000E+00 -0.22819118340E+03  0.22819118340E+03  0.00000000000E+00 0.  1.
         25    2    1    2    0    0 -0.78558340062E+02  0.13362478240E+03 -0.14479197846E+02  0.19971030262E+03  0.12509021760E+03 0.  0.
          5    1    3    3  502    0 -0.44884552846E+02  0.43471814517E+01  0.34950776984E+02  0.57206208426E+02  0.41800000000E+01 0. -1.
         -5    1    3    3    0  502 -0.33673787216E+02  0.12927760094E+03 -0.49429974830E+02  0.14250409420E+03  0.41800000000E+01 0. -1.
        -11    1    1    2    0    0  0.93118286143E+02 -0.12965448663E+03 -0.61896266400E+02  0.17120878749E+03  0.00000000000E+00 0.  1.
         11    1    1    2    0    0 -0.14559946081E+02 -0.39702957622E+01  0.79869024656E+01  0.17074714912E+02  0.00000000000E+00 0. -1.
</event>
<event>
 7    1  0.2380582E-009  0.1276208E+03  0.7561462E-02  0.1231029E+00
          2   -1    0    0  501    0  0.00000000000E+00  0.00000000000E+00  0.19352056501E+03  0.19352056501E+03  0.00000000000E+00 0. -1.
         -2   -1    0    0    0  501 -0.00000000000E+00 -0.00000000000E+00 -0.12732433032E+03  0.12732433032E+03  0.00000000000E+00 0.  1.
         25    2    1    2    0    0 -0.28681535409E+02  0.97627259704E+02 -0.10422663987E+02  0.16158300637E+03  0.12508686467E+03 0.  0.
          5    1    3    3  502    0  0.38598032486E+02  0.67759790898E+01 -0.26250896052E+02  0.47352971902E+02  0.41800000000E+01 0. -1.
         -5    1    3    3    0  502 -0.67279567894E+02  0.90851280614E+02  0.15828232065E+02  0.11423003447E+03  0.41800000000E+01 0. -1.
        -11    1    1    2    0    0  0.20961935940E+02 -0.46632600444E+02 -0.15725227541E+02  0.53490980210E+02  0.00000000000E+00 0.  1.
         11    1    1    2    0    0  0.77195994685E+01 -0.50994659260E+02  0.92344126216E+02  0.10577090874E+03  0.00000000000E+00 0. -1.
</event>
<event>
 7    1  0.2380582E-009  0.8690773E+02  0.7561462E-02  0.1310518E+00
         -2   -1    0    0    0  501 -0.00000000000E+00  0.00000000000E+00  0.24561788241E+02  0.24561788241E+02  0.00000000000E+00 0.  1.
          2   -1    0    0  501    0  0.00000000000E+00 -0.00000000000E+00 -0.62973121279E+03  0.62973121279E+03  0.00000000000E+00 0. -1.
         25    2    1    2    0    0 -0.26012577957E+02 -0.19455115897E+01 -0.19254980758E+03  0.23109449154E+03  0.12509514936E+03 0.  0.
          5    1    3    3  502    0  0.26926510655E+02  0.38221341601E+01 -0.17147916270E+03  0.17367274203E+03  0.41800000000E+01 0.  1.
         -5    1    3    3    0  502 -0.52939088612E+02 -0.57676457498E+01 -0.21070644882E+02  0.57421749506E+02  0.41800000000E+01 0.  1.
        -11    1    1    2    0    0 -0.26815695849E+02  0.23664992670E+02 -0.12792072115E+03  0.13282629379E+03  0.00000000000E+00 0.  1.
         11    1    1    2    0    0  0.52828273806E+02 -0.21719481081E+02 -0.28469889581E+03  0.29037221570E+03  0.00000000000E+00 0. -1.
</event>
<event>
 7    1  0.2380582E-009  0.1413525E+03  0.7561462E-02  0.1211521E+00
         -3   -1    0    0    0  501 -0.00000000000E+00  0.00000000000E+00  0.88488492816E+03  0.88488492816E+03  0.00000000000E+00 0.  1.
          3   -1    0    0  501    0  0.00000000000E+00 -0.00000000000E+00 -0.35193861904E+02  0.35193861904E+02  0.00000000000E+00 0. -1.
         25    2    1    2    0    0 -0.57900986266E+00 -0.97109441698E+02  0.18934041307E+03  0.24683725543E+03  0.12509300431E+03 0.  0.
          5    1    3    3  502    0 -0.56379205722E+02 -0.29022333444E+02  0.11564326883E+03  0.13195358541E+03  0.41800000000E+01 0.  1.
         -5    1    3    3    0  502  0.55800195859E+02 -0.68087108254E+02  0.73697144242E+02  0.11488367002E+03  0.41800000000E+01 0.  1.
        -11    1    1    2    0    0 -0.32274532046E+02  0.92353142431E+02  0.48204481292E+03  0.49187188372E+03  0.00000000000E+00 0. -1.
         11    1    1    2    0    0  0.32853541909E+02  0.47562992676E+01  0.17830584027E+03  0.18136965092E+03  0.00000000000E+00 0.  1.
</event>
<event>
 7    1  0.2380582E-009  0.1431281E+03  0.7561462E-02  0.1209181E+00
          3   -1    0    0  501    0  0.00000000000E+00  0.00000000000E+00  0.22154329528E+03  0.22154329528E+03  0.00000000000E+00 0. -1.
         -3   -1    0    0    0  501 -0.00000000000E+00 -0.00000000000E+00 -0.13061210241E+03  0.13061210241E+03  0.00000000000E+00 0.  1.
         25    2    1    2    0    0  0.32044722161E+02  0.11259647480E+03  0.66978110744E+02  0.18395276207E+03  0.12509085098E+03 0.  0.
          5    1    3    3  502    0  0.78200388515E+00  0.70583611159E+02  0.99573806051E+02  0.12212728174E+03  0.41800000000E+01 0.  1.
         -5    1    3    3    0  502  0.31262718276E+02  0.42012863638E+02 -0.32595695307E+02  0.61825480326E+02  0.41800000000E+01 0.  1.
        -11    1    1    2    0    0  0.42512318704E+02 -0.31949862993E+02  0.24067963892E+02  0.58372578089E+02  0.00000000000E+00 0. -1.
         11    1    1    2    0    0 -0.74557040864E+02 -0.80646611804E+02 -0.11488176765E+00  0.10983005752E+03  0.00000000000E+00 0.  1.
</event>
<event>
 7    1  0.2380582E-009  0.1063725E+03  0.7561462E-02  0.1267439E+00
          4   -1    0    0  501    0  0.00000000000E+00  0.00000000000E+00  0.25769147470E+03  0.25769147470E+03  0.00000000000E+00 0. -1.
         -4   -1    0    0    0  501 -0.00000000000E+00 -0.00000000000E+00 -0.70106540058E+02  0.70106540058E+02  0.00000000000E+00 0.  1.
         25    2    1    2    0    0 -0.58836000350E+01 -0.60140041354E+02  0.16665999680E+03  0.21696710796E+03  0.12509088727E+03 0.  0.
          5    1    3    3  502    0 -0.39655480381E+02 -0.59981107052E+02  0.33332135678E+02  0.79364941859E+02  0.41800000000E+01 0. -1.
         -5    1    3    3    0  502  0.33771880346E+02 -0.15893430114E+00  0.13332786113E+03  0.13760216610E+03  0.41800000000E+01 0. -1.
        -11    1    1    2    0    0  0.13589417305E+02 -0.21092828310E+02  0.14502355663E+02  0.28980993575E+02  0.00000000000E+00 0.  1.
         11    1    1    2    0    0 -0.77058172703E+01  0.81232869663E+02  0.64225821746E+01  0.81849913227E+02  0.00000000000E+00 0. -1.
</event>
<event>
 7    1  0.2380582E-009  0.1058908E+03  0.7561462E-02  0.1268374E+00
          1   -1    0    0  501    0  0.00000000000E+00  0.00000000000E+00  0.51702324482E+03  0.51702324482E+03  0.00000000000E+00 0. -1.
         -1   -1    0    0    0  501 -0.00000000000E+00 -0.00000000000E+00 -0.32240331094E+02  0.32240331094E+02  0.00000000000E+00 0.  1.
         25    2    1    2    0    0 -0.14743326768E+02 -0.97770703401E+01  0.41397745037E+03  0.43282525612E+03  0.12508963238E+03 0.  0.
          5    1    3    3  502    0 -0.51911546305E+02 -0.44488864295E+02  0.16463576465E+03  0.17831566137E+03  0.41800000000E+01 0.  1.
         -5    1    3    3    0  502  0.37168219537E+02  0.34711793955E+02  0.24934168572E+03  0.25450959475E+03  0.41800000000E+01 0.  1.
        -11    1    1    2    0    0 -0.26603916417E+02 -0.26281962867E+02  0.25184613826E+02  0.45086302958E+02  0.00000000000E+00 0. -1.
         11    1    1    2    0    0  0.41347243185E+02  0.36059033207E+02  0.45620849522E+02  0.71352016831E+02  0.00000000000E+00 0.  1.
</event>
<event>
 7    1  0.2380582E-009  0.2357057E+03  0.7561462E-02  0.1122687E+00
          1   -1    0    0  501    0  0.00000000000E+00  0.00000000000E+00  0.25391768183E+03  0.25391768183E+03  0.00000000000E+00 0. -1.
         -1   -1    0    0    0  501 -0.00000000000E+00 -0.00000000000E+00 -0.26032088050E+03  0.26032088050E+03  0.00000000000E+00 0.  1.
         25    2    1    2    0    0  0.34213910892E+02  0.23099373865E+03 -0.11145006666E+02  0.26514209242E+03  0.12508964389E+03 0.  0.
          5    1    3    3  502    0  0.23583086179E+01  0.76383442346E+02  0.54678197610E+02  0.94059393885E+02  0.41800000000E+01 0. -1.
         -5    1    3    3    0  502  0.31855602274E+02  0.15461029630E+03 -0.65823204277E+02  0.17108269854E+03  0.41800000000E+01 0. -1.
        -11    1    1    2    0    0 -0.42250235671E+02 -0.15879741846E+03  0.38839556844E+02  0.16884967782E+03  0.00000000000E+00 0. -1.
         11    1    1    2    0    0  0.80363247785E+01 -0.72196320187E+02 -0.34097748842E+02  0.80246792089E+02  0.00000000000E+00 0.  1.
</event>
<event>
 7    1  0.2380582E-009  0.1135107E+03  0.7561462E-02  0.1254203E+00
         -2   -1    0    0    0  501 -0.00000000000E+00  0.00000000000E+00  0.46050481662E+02  0.46050481662E+02  0.00000000000E+00 0.  1.
          2   -1    0    0  501    0  0.00000000000E+00 -0.00000000000E+00 -0.35204349183E+03  0.35204349183E+03  0.00000000000E+00 0. -1.
         25    2    1    2    0    0 -0.66033402243E+00  0.65950026595E+02 -0.17607522955E+03  0.22583023928E+03  0.12508784299E+03 0.  0.
          5    1    3    3  502    0  0.57124475861E+02  0.14168261335E+02 -0.10540591919E+03  0.12079662898E+03  0.41800000000E+01 0. -1.
         -5    1    3    3    0  502 -0.57784809883E+02  0.51781765259E+02 -0.70669310363E+02  0.10503361031E+03  0.41800000000E+01 0. -1.
        -11    1    1    2    0    0  0.23195493402E+02 -0.29226715382E+01 -0.92854626807E+02  0.95752569901E+02  0.00000000000E+00 0. -1.
         11    1    1    2    0    0 -0.22535159379E+02 -0.63027355057E+02 -0.37063153805E+02  0.76511164307E+02  0.00000000000E+00 0.  1.
</event>
<event>
 7    1  0.2380582E-009  0.1731113E+03  0.7561462E-02  0.1174642E+00
         -2   -1    0    0    0  501 -0.00000000000E+00  0.00000000000E+00  0.63594824929E+02  0.63594824929E+02  0.00000000000E+00 0.  1.
          2   -1    0    0  501    0  0.00000000000E+00 -0.00000000000E+00 -0.15593845486E+04  0.15593845486E+04  0.00000000000E+00 0. -1.
         25    2    1    2    0    0 -0.13267660911E+03 -0.88556763421E+02 -0.14023964826E+04  0.14169721720E+04  0.12509539927E+03 0.  0.
          5    1    3    3  502    0 -0.23154534753E+01  0.15399953823E+02 -0.43530402650E+03  0.43560255714E+03  0.41800000000E+01 0.  1.
         -5    1    3    3    0  502 -0.13036115564E+03 -0.10395671724E+03 -0.96709245606E+03  0.98136961484E+03  0.41800000000E+01 0.  1.
        -11    1    1    2    0    0  0.10530913717E+03  0.51458923339E+02 -0.19365149828E+02  0.11879833412E+03  0.00000000000E+00 0.  1.
         11    1    1    2    0    0  0.27367471945E+02  0.37097840082E+02 -0.74028091311E+02  0.87208867453E+02  0.00000000000E+00 0. -1.
</event>
<event>
 7    1  0.2380582E-009  0.1122672E+03  0.7561462E-02  0.1256428E+00
          1   -1    0    0  501    0  0.00000000000E+00  0.00000000000E+00  0.80083680153E+03  0.80083680153E+03  0.00000000000E+00 0. -1.
         -1   -1    0    0    0  501 -0.00000000000E+00 -0.00000000000E+00 -0.19564432087E+02  0.19564432087E+02  0.00000000000E+00 0.  1.
         25    2    1    2    0    0  0.54780239586E+01 -0.40181014277E+02  0.59529568754E+03  0.60964872730E+03  0.12510032949E+03 0.  0.
          5    1    3    3  502    0  0.21014313744E+02 -0.80754283117E+02  0.45877919352E+03  0.46632464703E+03  0.41800000000E+01 0. -1.
         -5    1    3    3    0  502 -0.15536289785E+02  0.40573268839E+02  0.13651649402E+03  0.14332408027E+03  0.41800000000E+01 0. -1.
        -11    1    1    2    0    0 -0.38025156777E+02  0.50482189810E+02  0.10062251056E+03  0.11882446578E+03  0.00000000000E+00 0.  1.
         11    1    1    2    0    0  0.32547132819E+02 -0.10301175532E+02  0.85354171348E+02  0.91928040545E+02  0.00000000000E+00 0. -1.
</event>
<event>
 7    1  0.2380582E-009  0.1231797E+03  0.7561462E-02  0.1237942E+00
         -1   -1    0    0    0  501 -0.00000000000E+00  0.00000000000E+00  0.19601892055E+03  0.19601892055E+03  0.00000000000E+00 0.  1.
          1   -1    0    0  501    0  0.00000000000E+00 -0.00000000000E+00 -0.86660187987E+02  0.86660187987E+02  0.00000000000E+00 0. -1.
         25    2    1    2    0    0 -0.15720565454E+02  0.68850858164E+02  0.87245838660E+02  0.16806901097E+03  0.12509108376E+03 0.  0.
          5    1    3    3  502    0  0.41314420543E+02  0.73761650559E+02  0.64103031916E+02  0.10618066462E+03  0.41800000000E+01 0. -1.
         -5    1    3    3    0  502 -0.57034985997E+02 -0.49107923950E+01  0.23142806743E+02  0.61888346347E+02  0.41800000000E+01 0. -1.
        -11    1    1    2    0    0 -0.25235026185E+02 -0.12394303603E+01  0.24953136622E+02  0.35510586611E+02  0.00000000000E+00 0. -1.
         11    1    1    2    0    0  0.40955591639E+02 -0.67611427804E+02 -0.28402427134E+01  0.79099510965E+02  0.00000000000E+00 0.  1.
</event>
<event>
 7    1  0.2380582E-009  0.9944851E+02  0.7561462E-02  0.1281460E+00
         -2   -1    0    0    0  501 -0.00000000000E+00  0.00000000000E+00  0.16062557670E+03  0.16062557670E+03  0.00000000000E+00 0.  1.
          2   -1    0    0  501    0  0.00000000000E+00 -0.00000000000E+00 -0.82926612717E+02  0.82926612717E+02  0.00000000000E+00 0. -1.
         25    2    1    2    0    0 -0.40052900625E+02  0.75601756378E+01  0.38533203404E+02  0.13709142622E+03  0.12509140767E+03 0.  0.
          5    1    3    3  502    0 -0.28100576444E+02 -0.52667565355E+02 -0.73980964088E+01  0.60296924195E+02  0.41800000000E+01 0.  1.
         -5    1    3    3    0  502 -0.11952324181E+02  0.60227740993E+02  0.45931299813E+02  0.76794502023E+02  0.41800000000E+01 0.  1.
        -11    1    1    2    0    0 -0.10167048045E+02 -0.22854591043E+02 -0.16483813016E+02  0.29956923895E+02  0.00000000000E+00 0. -1.
         11    1    1    2    0    0  0.50219948670E+02  0.15294415405E+02  0.55649573597E+02  0.76503839306E+02  0.00000000000E+00 0.  1.
</event>
<event>
 7    1  0.2380582E-009  0.1517418E+03  0.7561462E-02  0.1198349E+00
         -2   -1    0    0    0  501 -0.00000000000E+00  0.00000000000E+00  0.37286557923E+02  0.37286557923E+02  0.00000000000E+00 0.  1.
          2   -1    0    0  501    0  0.00000000000E+00 -0.00000000000E+00 -0.87812391662E+03  0.87812391662E+03  0.00000000000E+00 0. -1.
         25    2    1    2    0    0 -0.14055457134E+03 -0.46849374519E+01 -0.50958854393E+03  0.54323689774E+03  0.12509319243E+03 0.  0.
          5    1    3    3  502    0 -0.35981615782E+02 -0.38036416699E+02 -0.57003870510E+02  0.77513607340E+02  0.41800000000E+01 0.  1.
         -5    1    3    3    0  502 -0.10457295556E+03  0.33351479248E+02 -0.45258467342E+03  0.46572329040E+03  0.41800000000E+01 0.  1.
        -11    1    1    2    0    0  0.82380062559E+02 -0.30088328315E+01 -0.28720802446E+03  0.29880424545E+03  0.00000000000E+00 0. -1.
         11    1    1    2    0    0  0.58174508785E+02  0.76937702835E+01 -0.44040790310E+02  0.73369331364E+02  0.00000000000E+00 0.  1.
</event>
<event>
 7    1  0.2380582E-009  0.1014709E+03  0.7561462E-02  0.1277233E+00
         -2   -1    0    0    0  501 -0.00000000000E+00  0.00000000000E+00  0.59818997421E+02  0.59818997421E+02  0.00000000000E+00 0.  1.
          2   -1    0    0  501    0  0.00000000000E+00 -0.00000000000E+00 -0.38859140523E+03  0.38859140523E+03  0.00000000000E+00 0. -1.
         25    2    1    2    0    0 -0.32858733770E+02 -0.61138795481E+02 -0.29760172710E+03  0.33019940411E+03  0.12508880766E+03 0.  0.
          5    1    3    3  502    0  0.43196233426E+01  0.28345546216E+02 -0.17663930793E+02  0.33935467983E+02  0.41800000000E+01 0.  1.
         -5    1    3    3    0  502 -0.37178357113E+02 -0.89484341698E+02 -0.27993779630E+03  0.29626393612E+03  0.41800000000E+01 0.  1.
        -11    1    1    2    0    0  0.13854027953E+01  0.37719348955E+02  0.28153837324E+02  0.47088291353E+02  0.00000000000E+00 0.  1.
         11    1    1    2    0    0  0.31473330975E+02  0.23419446526E+02 -0.59324518036E+02  0.71122707193E+02  0.00000000000E+00 0. -1.
</event>
<event>
 7    1  0.2380582E-009  0.1022134E+03  0.7561462E-02  0.1275709E+00
         -1   -1    0    0    0  501 -0.00000000000E+00  0.00000000000E+00  0.38875848538E+02  0.38875848538E+02  0.00000000000E+00 0.  1.
          1   -1    0    0  501    0  0.00000000000E+00 -0.00000000000E+00 -0.43496488848E+03  0.43496488848E+03  0.00000000000E+00 0. -1.
         25    2    1    2    0    0  0.25587525964E+02 -0.35847311659E+02 -0.32108694326E+03  0.34739567714E+03  0.12508868904E+03 0.  0.
          5    1    3    3  502    0  0.18537595351E+02 -0.68137024141E+02 -0.29940481038E+03  0.30764754083E+03  0.41800000000E+01 0. -1.
         -5    1    3    3    0  502  0.70499306133E+01  0.32289712482E+02 -0.21682132880E+02  0.39748136309E+02  0.41800000000E+01 0. -1.
        -11    1    1    2    0    0 -0.18792667282E+02 -0.29336072152E+02 -0.16306248304E+02  0.38466390611E+02  0.00000000000E+00 0. -1.
         11    1    1    2    0    0 -0.67948586824E+01  0.65183383812E+02 -0.58695848385E+02  0.87978669274E+02  0.00000000000E+00 0.  1.
</event>
<event>
 7    1  0.2380582E-009  0.1290980E+03  0.7561462E-02  0.1228800E+00
          2   -1    0    0  501    0  0.00000000000E+00  0.00000000000E+00  0.99269472097E+03  0.99269472097E+03  0.00000000000E+00 0. -1.
         -2   -1    0    0    0  501 -0.00000000000E+00 -0.00000000000E+00 -0.25312026077E+02  0.25312026077E+02  0.00000000000E+00 0.  1.
         25    2    1    2    0    0  0.97020388409E+02  0.14571264242E+02  0.33551858509E+03  0.37127624674E+03  0.12509217778E+03 0.  0.
          5    1    3    3  502    0  0.11004610160E+02  0.31669863081E+02  0.11683053505E+02  0.35749794566E+02  0.41800000000E+01 0. -1.
         -5    1    3    3    0  502  0.86015778249E+02 -0.17098598839E+02  0.32383553159E+03  0.33552645217E+03  0.41800000000E+01 0. -1.
        -11    1    1    2    0    0 -0.11393617967E+03  0.52621843481E+00  0.55583820380E+03  0.56739566331E+03  0.00000000000E+00 0.  1.
         11    1    1    2    0    0  0.16915791264E+02 -0.15097482677E+02  0.76025906002E+02  0.79334836993E+02  0.00000000000E+00 0. -1.
</event>
<event>
 7    1  0.2380582E-009  0.8506935E+02  0.7561462E-02  0.1315251E+00
          2   -1    0    0  501    0  0.00000000000E+00  0.00000000000E+00  0.18069156421E+03  0.18069156421E+03  0.00000000000E+00 0. -1.
         -2   -1    0    0    0  501 -0.00000000000E+00 -0.00000000000E+00 -0.78441750021E+02  0.78441750021E+02  0.00000000000E+00 0.  1.
         25    2    1    2    0    0  0.23175625998E+02 -0.41282726426E+02  0.43806911570E+02  0.14074234258E+03  0.12509191962E+03 0.  0.
          5    1    3    3  502    0  0.37025251580E+02 -0.68166383712E+02 -0.10550677479E+02  0.78398433136E+02  0.41800000000E+01 0. -1.
         -5    1    3    3    0  502 -0.13849625583E+02  0.26883657287E+02  0.54357589049E+02  0.62343909447E+02  0.41800000000E+01 0. -1.
        -11    1    1    2    0    0 -0.83942792062E+01  0.45725738280E+02 -0.10567354723E+02  0.47675738594E+02  0.00000000000E+00 0.  1.
         11    1    1    2    0    0 -0.14781346791E+02 -0.44430118544E+01  0.69010257339E+02  0.70715233050E+02  0.00000000000E+00 0. -1.
</event>
<event>
 7    1  0.2380582E-009  0.1142535E+03  0.7561462E-02  0.1252890E+00
         -1   -1    0    0    0  501 -0.00000000000E+00  0.00000000000E+00  0.65233610209E+02  0.65233610209E+02  0.00000000000E+00 0.  1.
          1   -1    0    0  501    0  0.00000000000E+00 -0.00000000000E+00 -0.30993347649E+03  0.30993347649E+03  0.00000000000E+00 0. -1.
         25    2    1    2    0    0  0.65610818759E+02 -0.60620847398E+02 -0.13752908682E+03  0.20626272185E+03  0.12510153487E+03 0.  0.
          5    1    3    3  502    0  0.54900373991E+02 -0.28145157237E+00  0.63076396121E+00  0.55063604518E+02  0.41800000000E+01 0.  1.
         -5    1    3    3    0  502  0.10710444768E+02 -0.60339395825E+02 -0.13815985078E+03  0.15119911733E+03  0.41800000000E+01 0.  1.
        -11    1    1    2    0    0 -0.69974710394E+01  0.52364660033E+02 -0.94660293353E+02  0.10840476631E+03  0.00000000000E+00 0. -1.
         11    1    1    2    0    0 -0.58613347719E+02  0.82561873647E+01 -0.12510486115E+02  0.60499598540E+02  0.00000000000E+00 0.  1.
</event>
<event>
 7    1  0.2380582E-009  0.9335355E+02  0.7561462E-02  0.1294928E+00
         -1   -1    0    0    0  501 -0.00000000000E+00  0.00000000000E+00  0.33673388569E+02  0.33673388569E+02  0.00000000000E+00 0.  1.
          1   -1    0    0  501    0  0.00000000000E+00 -0.00000000000E+00 -0.59322682580E+03  0.59322682580E+03  0.00000000000E+00 0. -1.
         25    2    1    2    0    0 -0.10353085383E+02  0.53225051314E+02 -0.14920367538E+03  0.20211348293E+03  0.12509208916E+03 0.  0.
          5    1    3    3  502    0  0.23060678430E+02  0.47668960759E+02 -0.15814884758E+03  0.16683121741E+03  0.41800000000E+01 0.  1.
         -5    1    3    3    0  502 -0.33413763812E+02  0.55560905550E+01  0.89451722078E+01  0.35282265519E+02  0.41800000000E+01 0.  1.
        -11    1    1    2    0    0 -0.33399713110E+02 -0.40613849456E+01 -0.64681952980E+02  0.72909469377E+02  0.00000000000E+00 0.  1.
         11    1    1    2    0    0  0.43752798493E+02 -0.49163666368E+02 -0.34566780888E+03  0.35187726207E+03  0.00000000000E+00 0. -1.
</event>
<event>
 7    1  0.2380582E-009  0.9443687E+02  0.7561462E-02  0.1292449E+00
          2   -1    0    0  501    0  0.00000000000E+00  0.00000000000E+00  0.42606078955E+03  0.42606078955E+03  0.00000000000E+00 0.  1.
         -2   -1    0    0    0  501 -0.00000000000E+00 -0.00000000000E+00 -0.32628342977E+02  0.32628342977E+02  0.00000000000E+00 0. -1.
         25    2    1    2    0    0 -0.34410735013E+02 -0.96461727661E+01  0.16198434412E+03  0.20775810808E+03  0.12508939364E+03 0.  0.
          5    1    3    3  502    0  0.18152226943E+02  0.33269217803E+02  0.12432142378E+03  0.13003704475E+03  0.41800000000E+01 0.  1.
         -5    1    3    3    0  502 -0.52562961956E+02 -0.42915390569E+02  0.37662920340E+02  0.77721063334E+02  0.41800000000E+01 0.  1.
        -11    1    1    2    0    0 -0.23263501420E+02 -0.37125531437E+01  0.14016759258E+03  0.14213348500E+03  0.00000000000E+00 0.  1.
         11    1    1    2    0    0  0.57674236433E+02  0.13358725910E+02  0.91280509874E+02  0.10879753944E+03  0.00000000000E+00 0. -1.
</event>
<event>
 7    1  0.2380582E-009  0.1602715E+03  0.7561462E-02  0.1188391E+00
          1   -1    0    0  501    0  0.00000000000E+00  0.00000000000E+00  0.38834407418E+03  0.38834407418E+03  0.00000000000E+00 0. -1.
         -1   -1    0    0    0  501 -0.00000000000E+00 -0.00000000000E+00 -0.93113363899E+02  0.93113363899E+02  0.00000000000E+00 0.  1.
         25    2    1    2    0    0  0.27498969754E+02 -0.11588329082E+03  0.45489440980E+02  0.17861330149E+03  0.12509313251E+03 0.  0.
          5    1    3    3  502    0 -0.49804403298E+02 -0.47066607527E+02  0.24739598774E+02  0.72974408387E+02  0.41800000000E+01 0.  1.
         -5    1    3    3    0  502  0.77303373052E+02 -0.68816683297E+02  0.20749842206E+02  0.10563889311E+03  0.41800000000E+01 0.  1.
        -11    1    1    2    0    0  0.14184019361E+02  0.10400359510E+03  0.93060812232E+02  0.14027918225E+03  0.00000000000E+00 0.  1.
         11    1    1    2    0    0 -0.41682989116E+02  0.11879695724E+02  0.15668045707E+03  0.16256495434E+03  0.00000000000E+00 0. -1.
</event>
<event>
 7    1  0.2380582E-009  0.1248804E+03  0.7561462E-02  0.1235256E+00
          1   -1    0    0  501    0  0.00000000000E+00  0.00000000000E+00  0.29216343525E+03  0.29216343525E+03  0.00000000000E+00 0. -1.
         -1   -1    0    0    0  501 -0.00000000000E+00 -0.00000000000E+00 -0.73492196328E+02  0.73492196328E+02  0.00000000000E+00 0.  1.
         25    2    1    2    0    0 -0.88515921623E+02 -0.20052471565E+02  0.17471558953E+03  0.23325917021E+03  0.12508850174E+03 0.  0.
          5    1    3    3  502    0 -0.61998290415E+02 -0.53829390854E+02  0.39274066461E+02  0.91111558161E+02  0.41800000000E+01 0. -1.
         -5    1    3    3    0  502 -0.26517631208E+02  0.33776919289E+02  0.13544152307E+03  0.14214761205E+03  0.41800000000E+01 0. -1.
        -11    1    1    2    0    0  0.10324275384E+03  0.28914563985E+02  0.41794494179E+02  0.11507344600E+03  0.00000000000E+00 0. -1.
         11    1    1    2    0    0 -0.14726832221E+02 -0.88620924196E+01  0.21611552164E+01  0.17323015361E+02  0.00000000000E+00 0.  1.
</event>
<event>
 7    1  0.2380582E-009  0.1395832E+03  0.7561462E-02  0.1213891E+00
          1   -1    0    0  501    0  0.00000000000E+00  0.00000000000E+00  0.36437416855E+03  0.36437416855E+03  0.00000000000E+00 0. -1.
         -1   -1    0    0    0  501 -0.00000000000E+00 -0.00000000000E+00 -0.83226002328E+02  0.83226002328E+02  0.00000000000E+00 0.  1.
         25    2    1    2    0    0  0.88833276637E+02  0.45865397903E+02  0.30581053228E+02  0.16302510619E+03  0.12508796372E+03 0.  0.
          5    1    3    3  502    0  0.45082195475E+02 -0.36363819234E+02 -0.13914212232E+02  0.59714398600E+02  0.41800000000E+01 0.  1.
         -5    1    3    3    0  502  0.43751081162E+02  0.82229217137E+02  0.44495265460E+02  0.10331070759E+03  0.41800000000E+01 0.  1.
        -11    1    1    2    0    0 -0.97031327449E+02 -0.58125850401E+02  0.18079871716E+03  0.21326478640E+03  0.00000000000E+00 0.  1.
         11    1    1    2    0    0  0.81980508111E+01  0.12260452499E+02  0.69768395832E+02  0.71310278288E+02  0.00000000000E+00 0. -1.
</event>
<event>
 7    1  0.2380582E-009  0.7802668E+02  0.7561462E-02  0.1334747E+00
         -1   -1    0    0    0  501 -0.00000000000E+00  0.00000000000E+00  0.87929777190E+02  0.87929777190E+02  0.00000000000E+00 0.  1.
          1   -1    0    0  501    0  0.00000000000E+00 -0.00000000000E+00 -0.23062220749E+03  0.23062220749E+03  0.00000000000E+00 0. -1.
         25    2    1    2    0    0 -0.23605761247E+02  0.77703485821E+01 -0.18036389865E+03  0.22089851592E+03  0.12508960036E+03 0.  0.
          5    1    3    3  502    0  0.13620069824E+02 -0.23002091323E+02  0.65181737993E+01  0.27830944952E+02  0.41800000000E+01 0. -1.
         -5    1    3    3    0  502 -0.37225831071E+02  0.30772439906E+02 -0.18688207245E+03  0.19306757097E+03  0.41800000000E+01 0. -1.
        -11    1    1    2    0    0 -0.15001615117E+02 -0.31717723920E+02 -0.48588925338E+01  0.35421339662E+02  0.00000000000E+00 0. -1.
         11    1    1    2    0    0  0.38607376364E+02  0.23947375338E+02  0.42530360883E+02  0.62232129098E+02  0.00000000000E+00 0.  1.
</event>
<event>
 7    1  0.2380582E-009  0.9672304E+02  0.7561462E-02  0.1287342E+00
          2   -1    0    0  501    0  0.00000000000E+00  0.00000000000E+00  0.72099665987E+03  0.72099665987E+03  0.00000000000E+00 0. -1.
         -2   -1    0    0    0  501 -0.00000000000E+00 -0.00000000000E+00 -0.19218679138E+02  0.19218679138E+02  0.00000000000E+00 0.  1.
         25    2    1    2    0    0 -0.16591065134E+02 -0.20166148163E+02  0.51861390068E+03  0.53412417957E+03  0.12508526792E+03 0.  0.
          5    1    3    3  502    0  0.24857742469E+02  0.29999238006E+02  0.36695384923E+03  0.36903991858E+03  0.41800000000E+01 0. -1.
         -5    1    3    3    0  502 -0.41448807603E+02 -0.50165386169E+02  0.15166005144E+03  0.16508426099E+03  0.41800000000E+01 0. -1.
        -11    1    1    2    0    0 -0.31563346758E+01 -0.32580508534E+02  0.10331994712E+03  0.10838110287E+03  0.00000000000E+00 0. -1.
         11    1    1    2    0    0  0.19747399809E+02  0.52746656697E+02  0.79844132933E+02  0.97710056574E+02  0.00000000000E+00 0.  1.
</event>
<event>
 7    1  0.2380582E-009  0.2943365E+03  0.7561462E-02  0.1088107E+00
         -2   -1    0    0    0  501 -0.00000000000E+00  0.00000000000E+00  0.12324824069E+03  0.12324824069E+03  0.00000000000E+00 0. -1.
          2   -1    0    0  501    0  0.00000000000E+00 -0.00000000000E+00 -0.77295137179E+03  0.77295137179E+03  0.00000000000E+00 0.  1.
         25    2    1    2    0    0 -0.25308433310E+03 -0.12410048368E+03 -0.42020335059E+03  0.52122068403E+03  0.12509011114E+03 0.  0.
          5    1    3    3  502    0 -0.56452441857E+02 -0.80942091160E+02 -0.85598321974E+02  0.13070212484E+03  0.41800000000E+01 0. -1.
         -5    1    3    3    0  502 -0.19663189124E+03 -0.43158392523E+02 -0.33460502862E+03  0.39051855919E+03  0.41800000000E+01 0. -1.
        -11    1    1    2    0    0  0.19123792877E+03  0.62342253222E+02 -0.19752389705E+03  0.28191167383E+03  0.00000000000E+00 0.  1.
         11    1    1    2    0    0  0.61846404329E+02  0.61758230461E+02 -0.31975883458E+02  0.93067254612E+02  0.00000000000E+00 0. -1.
</event>
<event>
 7    1  0.2380582E-009  0.1654258E+03  0.7561462E-02  0.1182704E+00
         -4   -1    0    0    0  501 -0.00000000000E+00  0.00000000000E+00  0.31290709515E+03  0.31290709515E+03  0.00000000000E+00 0. -1.
          4   -1    0    0  501    0  0.00000000000E+00 -0.00000000000E+00 -0.92170299886E+02  0.92170299886E+02  0.00000000000E+00 0.  1.
         25    2    1    2    0    0 -0.12330991632E+03  0.36388427507E+02  0.93907143652E+02  0.20247370272E+03  0.12509034953E+03 0.  0.
          5    1    3    3  502    0  0.18778552971E+02  0.30232666468E+02  0.28934118254E+02  0.46057613622E+02  0.41800000000E+01 0. -1.
         -5    1    3    3    0  502 -0.14208846929E+03  0.61557610389E+01  0.64973025399E+02  0.15641608910E+03  0.41800000000E+01 0. -1.
        -11    1    1    2    0    0  0.75277642824E+02  0.20753426268E+02  0.38830179485E+02  0.87207861170E+02  0.00000000000E+00 0.  1.
         11    1    1    2    0    0  0.48032273498E+02 -0.57141853775E+02  0.87999472124E+02  0.11539583114E+03  0.00000000000E+00 0. -1.
</event>
<event>
 7    1  0.2380582E-009  0.1496328E+03  0.7561462E-02  0.1200925E+00
         -2   -1    0    0    0  501 -0.00000000000E+00  0.00000000000E+00  0.19628421664E+03  0.19628421664E+03  0.00000000000E+00 0.  1.
          2   -1    0    0  501    0  0.00000000000E+00 -0.00000000000E+00 -0.15665056596E+03  0.15665056596E+03  0.00000000000E+00 0. -1.
         25    2    1    2    0    0  0.11161241998E+03 -0.10903272026E+02  0.10045887104E+03  0.19573345502E+03  0.12507352641E+03 0.  0.
          5    1    3    3  502    0  0.75071257372E+02 -0.58360486086E+02  0.96532679653E+02  0.13556426764E+03  0.41800000000E+01 0. -1.
         -5    1    3    3    0  502  0.36541162612E+02  0.47457214060E+02  0.39261913906E+01  0.60169187382E+02  0.41800000000E+01 0. -1.
        -11    1    1    2    0    0 -0.64434881443E+02  0.50964168761E+02 -0.43352287082E+02  0.92890372156E+02  0.00000000000E+00 0. -1.
         11    1    1    2    0    0 -0.47177538541E+02 -0.40060896735E+02 -0.17472933288E+02  0.64310955425E+02  0.00000000000E+00 0.  1.
</event>
<event>
 7    1  0.2380582E-009  0.1158880E+03  0.7561462E-02  0.1250039E+00
          2   -1    0    0  501    0  0.00000000000E+00  0.00000000000E+00  0.82667704537E+03  0.82667704537E+03  0.00000000000E+00 0. -1.
         -2   -1    0    0    0  501 -0.00000000000E+00 -0.00000000000E+00 -0.42546783846E+02  0.42546783846E+02  0.00000000000E+00 0.  1.
         25    2    1    2    0    0 -0.96697439830E+02  0.13568110390E+02  0.14068137263E+03  0.21207188030E+03  0.12509494523E+03 0.  0.
          5    1    3    3  502    0 -0.67392659577E+02  0.64147486325E+01 -0.31224028782E+00  0.67826908074E+02  0.41800000000E+01 0.  1.
         -5    1    3    3    0  502 -0.29304780253E+02  0.71533617579E+01  0.14099361292E+03  0.14424497223E+03  0.41800000000E+01 0.  1.
        -11    1    1    2    0    0  0.39686386807E+02  0.39222120728E+02  0.26657507201E+03  0.27235207558E+03  0.00000000000E+00 0. -1.
         11    1    1    2    0    0  0.57011053023E+02 -0.52790231118E+02  0.37687381687E+03  0.38479987333E+03  0.00000000000E+00 0.  1.
</event>
<event>
 7    1  0.2380582E-009  0.1120778E+03  0.7561462E-02  0.1256770E+00
         -3   -1    0    0    0  501 -0.00000000000E+00  0.00000000000E+00  0.16730371809E+02  0.16730371809E+02  0.00000000000E+00 0.  1.
          3   -1    0    0  501    0  0.00000000000E+00 -0.00000000000E+00 -0.86321022386E+03  0.86321022386E+03  0.00000000000E+00 0. -1.
         25    2    1    2    0    0 -0.43923524510E+02 -0.20344965683E+02 -0.39430343086E+03  0.41649297067E+03  0.12509198774E+03 0.  0.
          5    1    3    3  502    0 -0.57362255791E+02  0.33880757998E+02 -0.29518092791E+03  0.30263441106E+03  0.41800000000E+01 0.  1.
         -5    1    3    3    0  502  0.13438731281E+02 -0.54225723681E+02 -0.99122502948E+02  0.11385855962E+03  0.41800000000E+01 0.  1.
        -11    1    1    2    0    0 -0.68915045691E+00  0.48579816428E+02 -0.23150042188E+03  0.23654369327E+03  0.00000000000E+00 0. -1.
         11    1    1    2    0    0  0.44612674967E+02 -0.28234850744E+02 -0.22067599930E+03  0.22690393173E+03  0.00000000000E+00 0.  1.
</event>
<event>
 7    1  0.2380582E-009  0.9843382E+02  0.7561462E-02  0.1283624E+00
          2   -1    0    0  501    0  0.00000000000E+00  0.00000000000E+00  0.37843746777E+03  0.37843746777E+03  0.00000000000E+00 0. -1.
         -2   -1    0    0    0  501 -0.00000000000E+00 -0.00000000000E+00 -0.32106895726E+02  0.32106895726E+02  0.00000000000E+00 0.  1.
         25    2    1    2    0    0  0.10287643430E+02 -0.11841524301E+02  0.16609042820E+03  0.20851835484E+03  0.12509123335E+03 0.  0.
          5    1    3    3  502    0  0.13487474624E+02 -0.65592414721E+02  0.12014853615E+03  0.13761329871E+03  0.41800000000E+01 0. -1.
         -5    1    3    3    0  502 -0.31998311934E+01  0.53750890420E+02  0.45941892046E+02  0.70905056134E+02  0.41800000000E+01 0. -1.
        -11    1    1    2    0    0  0.28178951924E+02  0.22261734319E+02  0.14314365706E+03  0.14757962157E+03  0.00000000000E+00 0. -1.
         11    1    1    2    0    0 -0.38466595355E+02 -0.10420210018E+02  0.37096486788E+02  0.54446387089E+02  0.00000000000E+00 0.  1.
</event>
<event>
 7    1  0.2380582E-009  0.1645729E+03  0.7561462E-02  0.1183629E+00
         -2   -1    0    0    0  501 -0.00000000000E+00  0.00000000000E+00  0.11684899278E+03  0.11684899278E+03  0.00000000000E+00 0.  1.
          2   -1    0    0  501    0  0.00000000000E+00 -0.00000000000E+00 -0.29955203462E+03  0.29955203462E+03  0.00000000000E+00 0. -1.
         25    2    1    2    0    0 -0.10560487070E+03 -0.99443141404E+02 -0.41329395034E+02  0.19595060636E+03  0.12508874510E+03 0.  0.
          5    1    3    3  502    0 -0.11256522214E+03 -0.74450506581E+02  0.12951851912E+02  0.13564302427E+03  0.41800000000E+01 0.  1.
         -5    1    3    3    0  502  0.69603514330E+01 -0.24992634823E+02 -0.54281246946E+02  0.60307582090E+02  0.41800000000E+01 0.  1.
        -11    1    1    2    0    0  0.46850027390E+02  0.98508653783E+02 -0.78499899160E+02  0.13439164448E+03  0.00000000000E+00 0.  1.
         11    1    1    2    0    0  0.58754843312E+02  0.93448762098E+00 -0.62873747648E+02  0.86058776560E+02  0.00000000000E+00 0. -1.
</event>
<event>
 7    1  0.2757807E-009  0.1358262E+03  0.7561462E-02  0.1219058E+00
          2   -1    0    0  501    0  0.00000000000E+00  0.00000000000E+00  0.49489787672E+03  0.49489787672E+03  0.00000000000E+00 0. -1.
         -2   -1    0    0    0  501 -0.00000000000E+00 -0.00000000000E+00 -0.40232690945E+02  0.40232690945E+02  0.00000000000E+00 0.  1.
         25    2    1    2    0    0 -0.75074954490E+02  0.48917968939E+02  0.26224740738E+03  0.30405714741E+03  0.12509128561E+03 0.  0.
          5    1    3    3  502    0 -0.95485085250E+02  0.12558995244E+01  0.12553220327E+03  0.15778081393E+03  0.41800000000E+01 0. -1.
         -5    1    3    3    0  502  0.20410130760E+02  0.47662069415E+02  0.13671520412E+03  0.14627633348E+03  0.41800000000E+01 0. -1.
        -11    1    1    2    0    0  0.41282399446E+02  0.21057848378E+02  0.10077123582E+03  0.11091668699E+03  0.00000000000E+00 0. -1.
         11    1    1    2    0    0  0.33792555044E+02 -0.69975817317E+02  0.91646542572E+02  0.12015673327E+03  0.00000000000E+00 0.  1.
</event>
<event>
 7    1  0.2380582E-009  0.1795089E+03  0.7561462E-02  0.1168279E+00
         -2   -1    0    0    0  501 -0.00000000000E+00  0.00000000000E+00  0.82215517414E+02  0.82215517414E+02  0.00000000000E+00 0.  1.
          2   -1    0    0  501    0  0.00000000000E+00 -0.00000000000E+00 -0.43981952053E+03  0.43981952053E+03  0.00000000000E+00 0. -1.
         25    2    1    2    0    0 -0.81057400373E+02  0.13202098911E+03 -0.16867302842E+03  0.26095620551E+03  0.12509079486E+03 0.  0.
          5    1    3    3  502    0 -0.13350244329E+02  0.12540864600E+03 -0.81161492402E+02  0.15003405535E+03  0.41800000000E+01 0. -1.
         -5    1    3    3    0  502 -0.67707156044E+02  0.66123431086E+01 -0.87511536019E+02  0.11092215017E+03  0.41800000000E+01 0. -1.
        -11    1    1    2    0    0  0.80216441165E+02 -0.82230283220E+02 -0.76233976684E+02  0.13786992461E+03  0.00000000000E+00 0. -1.
         11    1    1    2    0    0  0.84095920774E+00 -0.49790705889E+02 -0.11269699802E+03  0.12320890782E+03  0.00000000000E+00 0.  1.
</event>
<event>
 7    1  0.2380582E-009  0.3067485E+03  0.7561462E-02  0.1081915E+00
         -1   -1    0    0    0  501 -0.00000000000E+00  0.00000000000E+00  0.97936424059E+02  0.97936424059E+02  0.00000000000E+00 0.  1.
          1   -1    0    0  501    0  0.00000000000E+00 -0.00000000000E+00 -0.10821396524E+04  0.10821396524E+04  0.00000000000E+00 0. -1.
         25    2    1    2    0    0  0.29848368220E+03  0.49149205149E+02 -0.40869418351E+03  0.52363054693E+03  0.12509940500E+03 0.  0.
          5    1    3    3  502    0  0.65853252965E+02 -0.64808316937E+01 -0.23791178824E+02  0.70442492115E+02  0.41800000000E+01 0.  1.
         -5    1    3    3    0  502  0.23263042924E+03  0.55630036843E+02 -0.38490300469E+03  0.45318805481E+03  0.41800000000E+01 0.  1.
        -11    1    1    2    0    0 -0.27963653427E+03 -0.30234943532E+02 -0.55690477305E+03  0.62390197095E+03  0.00000000000E+00 0. -1.
         11    1    1    2    0    0 -0.18847147934E+02 -0.18914261617E+02 -0.18604271813E+02  0.32543558617E+02  0.00000000000E+00 0.  1.
</event>
<event>
 7    1  0.2380582E-009  0.1227910E+03  0.7561462E-02  0.1238563E+00
         -2   -1    0    0    0  501 -0.00000000000E+00  0.00000000000E+00  0.29903213827E+02  0.29903213827E+02  0.00000000000E+00 0.  1.
          2   -1    0    0  501    0  0.00000000000E+00 -0.00000000000E+00 -0.57719175969E+03  0.57719175969E+03  0.00000000000E+00 0. -1.
         25    2    1    2    0    0  0.62741078914E+02 -0.28171780965E+02 -0.34674599669E+03  0.37498003323E+03  0.12508855611E+03 0.  0.
          5    1    3    3  502    0 -0.33559263454E+02 -0.11558948475E+02 -0.16246414236E+03  0.16634874032E+03  0.41800000000E+01 0. -1.
         -5    1    3    3    0  502  0.96300342369E+02 -0.16612832490E+02 -0.18428185433E+03  0.20863129290E+03  0.41800000000E+01 0. -1.
        -11    1    1    2    0    0  0.96322349916E+01  0.37810440219E+02 -0.40673937465E+02  0.56362918035E+02  0.00000000000E+00 0.  1.
         11    1    1    2    0    0 -0.72373313906E+02 -0.96386592539E+01 -0.15986861170E+03  0.17575202225E+03  0.00000000000E+00 0. -1.
</event>
<event>
 7    1  0.2380582E-009  0.1034814E+03  0.7561462E-02  0.1273141E+00
          1   -1    0    0  501    0  0.00000000000E+00  0.00000000000E+00  0.31511642257E+03  0.31511642257E+03  0.00000000000E+00 0. -1.
         -1   -1    0    0    0  501 -0.00000000000E+00 -0.00000000000E+00 -0.70709204147E+02  0.70709204147E+02  0.00000000000E+00 0.  1.
         25    2    1    2    0    0 -0.71823501582E+01  0.59069355097E+02  0.23794665349E+03  0.27532844122E+03  0.12508543390E+03 0.  0.
          5    1    3    3  502    0  0.33214106953E+02 -0.27217325079E+02  0.75404258999E+02  0.86874820059E+02  0.41800000000E+01 0.  1.
         -5    1    3    3    0  502 -0.40396457111E+02  0.86286680176E+02  0.16254239449E+03  0.18845362116E+03  0.41800000000E+01 0.  1.
        -11    1    1    2    0    0 -0.10802626522E+02 -0.42992806252E+02 -0.38993413283E+02  0.59038668758E+02  0.00000000000E+00 0.  1.
         11    1    1    2    0    0  0.17984976680E+02 -0.16076548845E+02  0.45453978220E+02  0.51458516739E+02  0.00000000000E+00 0. -1.
</event>
<event>
 7    1  0.2380582E-009  0.1910900E+03  0.7561462E-02  0.1157482E+00
         -1   -1    0    0    0  501 -0.00000000000E+00  0.00000000000E+00  0.70886095175E+03  0.70886095175E+03  0.00000000000E+00 0.  1.
          1   -1    0    0  501    0  0.00000000000E+00 -0.00000000000E+00 -0.62185515727E+02  0.62185515727E+02  0.00000000000E+00 0. -1.
         25    2    1    2    0    0  0.13399184095E+03  0.97002394213E+02  0.20477998223E+03  0.29145528530E+03  0.12509222311E+03 0.  0.
          5    1    3    3  502    0 -0.90499426888E+01  0.43447759737E+02  0.89715756642E+02  0.10017983170E+03  0.41800000000E+01 0. -1.
         -5    1    3    3    0  502  0.14304178364E+03  0.53554634476E+02  0.11506422559E+03  0.19127545360E+03  0.41800000000E+01 0. -1.
        -11    1    1    2    0    0 -0.14322237352E+03 -0.76612673987E+02  0.40605726545E+03  0.43733814482E+03  0.00000000000E+00 0.  1.
         11    1    1    2    0    0  0.92305325672E+01 -0.20389720226E+02  0.35838188339E+02  0.42253037356E+02  0.00000000000E+00 0. -1.
</event>
<event>
 7    1  0.2380582E-009  0.1036764E+03  0.7561462E-02  0.1272750E+00
          2   -1    0    0  501    0  0.00000000000E+00  0.00000000000E+00  0.91360615963E+02  0.91360615963E+02  0.00000000000E+00 0. -1.
         -2   -1    0    0    0  501 -0.00000000000E+00 -0.00000000000E+00 -0.19142190366E+03  0.19142190366E+03  0.00000000000E+00 0.  1.
         25    2    1    2    0    0 -0.21287216638E+02 -0.47580845284E+02  0.37327826320E+01  0.13556550804E+03  0.12508793257E+03 0.  0.
          5    1    3    3  502    0  0.33399850959E+02 -0.49236676237E+02  0.38143407358E+02  0.70796837894E+02  0.41800000000E+01 0.  1.
         -5    1    3    3    0  502 -0.54687067597E+02  0.16558309525E+01 -0.34410624726E+02  0.64768670146E+02  0.41800000000E+01 0.  1.
        -11    1    1    2    0    0  0.37118740570E+02 -0.54302172518E+01 -0.77201189380E+02  0.85833046098E+02  0.00000000000E+00 0.  1.
         11    1    1    2    0    0 -0.15831523932E+02  0.53011062536E+02 -0.26592880945E+02  0.61383965481E+02  0.00000000000E+00 0. -1.
</event>
<event>
 7    1  0.2380582E-009  0.1267234E+03  0.7561462E-02  0.1232400E+00
          3   -1    0    0  501    0  0.00000000000E+00  0.00000000000E+00  0.18630445411E+03  0.18630445411E+03  0.00000000000E+00 0. -1.
         -3   -1    0    0    0  501 -0.00000000000E+00 -0.00000000000E+00 -0.10410297132E+03  0.10410297132E+03  0.00000000000E+00 0.  1.
         25    2    1    2    0    0  0.12760164696E+02 -0.78108182735E+02  0.81136873741E+01  0.14824581189E+03  0.12508908348E+03 0.  0.
          5    1    3    3  502    0  0.65975589189E+02 -0.47732553063E+02 -0.14460728053E+02  0.82811593673E+02  0.41800000000E+01 0. -1.
         -5    1    3    3    0  502 -0.53215424493E+02 -0.30375629672E+02  0.22574415427E+02  0.65434218218E+02  0.41800000000E+01 0. -1.
        -11    1    1    2    0    0  0.10505652315E+02  0.85450388637E+02  0.28911425025E+02  0.90818545164E+02  0.00000000000E+00 0.  1.
         11    1    1    2    0    0 -0.23265817011E+02 -0.73422059018E+01  0.45176370390E+02  0.51343068377E+02  0.00000000000E+00 0. -1.
</event>
<event>
 7    1  0.2380582E-009  0.9297270E+02  0.7561462E-02  0.1295808E+00
          1   -1    0    0  501    0  0.00000000000E+00  0.00000000000E+00  0.53856170021E+02  0.53856170021E+02  0.00000000000E+00 0. -1.
         -1   -1    0    0    0  501 -0.00000000000E+00 -0.00000000000E+00 -0.23003719859E+03  0.23003719859E+03  0.00000000000E+00 0.  1.
         25    2    1    2    0    0 -0.40191783444E+01 -0.18815609428E+02 -0.13046666355E+03  0.18176589127E+03  0.12508840065E+03 0.  0.
          5    1    3    3  502    0 -0.43587926849E+02  0.21079959310E+02 -0.11262567250E+03  0.12266330567E+03  0.41800000000E+01 0.  1.
         -5    1    3    3    0  502  0.39568748504E+02 -0.39895568738E+02 -0.17840991052E+02  0.59102585602E+02  0.41800000000E+01 0.  1.
        -11    1    1    2    0    0 -0.25148072071E+02 -0.20223109322E+02  0.39936103074E+01  0.32516897189E+02  0.00000000000E+00 0. -1.
         11    1    1    2    0    0  0.29167250416E+02  0.39038718749E+02 -0.49707975331E+02  0.69610580158E+02  0.00000000000E+00 0.  1.
</event>
<event>
 7    1  0.2380582E-009  0.1600531E+03  0.7561462E-02  0.1188637E+00
          2   -1    0    0  501    0  0.00000000000E+00  0.00000000000E+00  0.22633687288E+04  0.22633687288E+04  0.00000000000E+00 0. -1.
         -2   -1    0    0    0  501 -0.00000000000E+00 -0.00000000000E+00 -0.25314009923E+02  0.25314009923E+02  0.00000000000E+00 0.  1.
         25    2    1    2    0    0 -0.25692202671E+02 -0.14602709778E+03  0.18800124818E+04  0.18899945683E+04  0.12509410054E+03 0.  0.
          5    1    3    3  502    0 -0.32037242370E+02 -0.67024929703E+02  0.34502976111E+03  0.35296137827E+03  0.41800000000E+01 0.  1.
         -5    1    3    3    0  502  0.63450396990E+01 -0.79002168080E+02  0.15349827207E+04  0.15370331900E+04  0.41800000000E+01 0.  1.
        -11    1    1    2    0    0  0.52654701059E+02  0.94556393992E+02  0.16698753372E+03  0.19899312955E+03  0.00000000000E+00 0.  1.
         11    1    1    2    0    0 -0.26962498388E+02  0.51470703790E+02  0.19105470333E+03  0.19969504083E+03  0.00000000000E+00 0. -1.
</event>
<event>
 7    1  0.2380582E-009  0.1265808E+03  0.7561462E-02  0.1232619E+00
         -2   -1    0    0    0  501 -0.00000000000E+00  0.00000000000E+00  0.16152602550E+03  0.16152602550E+03  0.00000000000E+00 0.  1.
          2   -1    0    0  501    0  0.00000000000E+00 -0.00000000000E+00 -0.16908613236E+03  0.16908613236E+03  0.00000000000E+00 0. -1.
         25    2    1    2    0    0  0.11089877900E+03 -0.56534525787E+02  0.50315562118E+01  0.17654289681E+03  0.12508951222E+03 0.  0.
          5    1    3    3  502    0  0.10434254189E+02 -0.63325924056E+01 -0.49835242057E+02  0.51478142332E+02  0.41800000000E+01 0. -1.
         -5    1    3    3    0  502  0.10046452481E+03 -0.50201933381E+02  0.54866798269E+02  0.12506475448E+03  0.41800000000E+01 0. -1.
        -11    1    1    2    0    0 -0.97147380526E+02  0.36937181936E+02  0.27378128677E+02  0.10747804837E+03  0.00000000000E+00 0.  1.
         11    1    1    2    0    0 -0.13751398476E+02  0.19597343851E+02 -0.39969791748E+02  0.46591212674E+02  0.00000000000E+00 0. -1.
</event>
<event>
 7    1  0.2380582E-009  0.1029959E+03  0.7561462E-02  0.1274119E+00
         -2   -1    0    0    0  501 -0.00000000000E+00  0.00000000000E+00  0.32566981084E+03  0.32566981084E+03  0.00000000000E+00 0.  1.
          2   -1    0    0  501    0  0.00000000000E+00 -0.00000000000E+00 -0.51360528824E+02  0.51360528824E+02  0.00000000000E+00 0. -1.
         25    2    1    2    0    0 -0.37718761356E+02  0.11810743518E+02  0.23646725962E+03  0.27042359700E+03  0.12509979345E+03 0.  0.
          5    1    3    3  502    0  0.24416706069E+02  0.51603760861E+02  0.10691608510E+03  0.12127508122E+03  0.41800000000E+01 0.  1.
         -5    1    3    3    0  502 -0.62135467425E+02 -0.39793017344E+02  0.12955117452E+03  0.14914851578E+03  0.41800000000E+01 0.  1.
        -11    1    1    2    0    0  0.32405639948E+02 -0.36952790114E+02 -0.11944347573E+02  0.50579656351E+02  0.00000000000E+00 0. -1.
         11    1    1    2    0    0  0.53131214087E+01  0.25142046596E+02  0.49786369965E+02  0.56027086310E+02  0.00000000000E+00 0.  1.
</event>
<event>
 7    1  0.2380582E-009  0.1913220E+03  0.7561462E-02  0.1157274E+00
         -1   -1    0    0    0  501 -0.00000000000E+00  0.00000000000E+00  0.23977505083E+03  0.23977505083E+03  0.00000000000E+00 0.  1.
          1   -1    0    0  501    0  0.00000000000E+00 -0.00000000000E+00 -0.17157267691E+03  0.17157267691E+03  0.00000000000E+00 0. -1.
         25    2    1    2    0    0  0.87396143063E+02 -0.14679662114E+03  0.52852688399E+02  0.21823994365E+03  0.12509169649E+03 0.  0.
          5    1    3    3  502    0  0.26506532309E+02 -0.12136817314E+03 -0.12932038843E+02  0.12497015538E+03  0.41800000000E+01 0.  1.
         -5    1    3    3    0  502  0.60889610754E+02 -0.25428448005E+02  0.65784727241E+02  0.93269788270E+02  0.41800000000E+01 0.  1.
        -11    1    1    2    0    0 -0.53325292371E+02  0.14005125856E+02 -0.21670626169E+00  0.55134175593E+02  0.00000000000E+00 0.  1.
         11    1    1    2    0    0 -0.34070850691E+02  0.13279149529E+03  0.15566391781E+02  0.13797360849E+03  0.00000000000E+00 0. -1.
</event>
<event>
 7    1  0.2380582E-009  0.7286297E+02  0.7561462E-02  0.1350619E+00
          4   -1    0    0  501    0  0.00000000000E+00  0.00000000000E+00  0.41356841676E+02  0.41356841676E+02  0.00000000000E+00 0. -1.
         -4   -1    0    0    0  501 -0.00000000000E+00 -0.00000000000E+00 -0.28393116372E+03  0.28393116372E+03  0.00000000000E+00 0.  1.
         25    2    1    2    0    0 -0.13363145313E+01 -0.82504099392E+01 -0.13155597356E+03  0.18172469703E+03  0.12508811427E+03 0.  0.
          5    1    3    3  502    0  0.15542053090E+02  0.21132330760E+02 -0.14320656113E+03  0.14564931297E+03  0.41800000000E+01 0. -1.
         -5    1    3    3    0  502 -0.16878367621E+02 -0.29382740699E+02  0.11650587571E+02  0.36075384063E+02  0.41800000000E+01 0. -1.
        -11    1    1    2    0    0 -0.91648570699E+01  0.45451149916E+02 -0.85446671105E+02  0.97215920696E+02  0.00000000000E+00 0.  1.
         11    1    1    2    0    0  0.10501171601E+02 -0.37200739977E+02 -0.25571677384E+02  0.46347387672E+02  0.00000000000E+00 0. -1.
</event>
<event>
 7    1  0.2380582E-009  0.1109885E+03  0.7561462E-02  0.1258750E+00
          3   -1    0    0  501    0  0.00000000000E+00  0.00000000000E+00  0.48859568822E+03  0.48859568822E+03  0.00000000000E+00 0. -1.
         -3   -1    0    0    0  501 -0.00000000000E+00 -0.00000000000E+00 -0.25806207214E+02  0.25806207214E+02  0.00000000000E+00 0.  1.
         25    2    1    2    0    0  0.20661556502E+02 -0.21714373144E+02  0.26771977432E+03  0.29701802610E+03  0.12508963326E+03 0.  0.
          5    1    3    3  502    0 -0.46766010159E+02 -0.36317938264E+02  0.13095933780E+03  0.14378411909E+03  0.41800000000E+01 0. -1.
         -5    1    3    3    0  502  0.67427566661E+02  0.14603565120E+02  0.13676043652E+03  0.15323390701E+03  0.41800000000E+01 0. -1.
        -11    1    1    2    0    0  0.28323988170E+02 -0.15217121186E+02  0.45428812796E+02  0.55655962080E+02  0.00000000000E+00 0.  1.
         11    1    1    2    0    0 -0.48985544672E+02  0.36931494331E+02  0.14964089388E+03  0.16172790725E+03  0.00000000000E+00 0. -1.
</event>
<event>
 7    1  0.2380582E-009  0.1040922E+03  0.7561462E-02  0.1271919E+00
          2   -1    0    0  501    0  0.00000000000E+00  0.00000000000E+00  0.67026525868E+03  0.67026525868E+03  0.00000000000E+00 0.  1.
         -2   -1    0    0    0  501 -0.00000000000E+00 -0.00000000000E+00 -0.19101444515E+02  0.19101444515E+02  0.00000000000E+00 0. -1.
         25    2    1    2    0    0  0.57193874610E+01  0.16757587663E+02  0.44765422336E+03  0.46513912221E+03  0.12508625494E+03 0.  0.
          5    1    3    3  502    0 -0.47108929500E+02 -0.26561579159E+02  0.25449864475E+03  0.26021491369E+03  0.41800000000E+01 0.  1.
         -5    1    3    3    0  502  0.52828316961E+02  0.43319166822E+02  0.19315557862E+03  0.20492420852E+03  0.41800000000E+01 0.  1.
        -11    1    1    2    0    0  0.20039739376E+02  0.27655832445E+02  0.13101372499E+03  0.13539214290E+03  0.00000000000E+00 0.  1.
         11    1    1    2    0    0 -0.25759126837E+02 -0.44413420108E+02  0.72495865811E+02  0.88835438091E+02  0.00000000000E+00 0. -1.
</event>
<event>
 7    1  0.2380582E-009  0.9386817E+02  0.7561462E-02  0.1293746E+00
          3   -1    0    0  501    0  0.00000000000E+00  0.00000000000E+00  0.34296544847E+02  0.34296544847E+02  0.00000000000E+00 0. -1.
         -3   -1    0    0    0  501 -0.00000000000E+00 -0.00000000000E+00 -0.47559685876E+03  0.47559685876E+03  0.00000000000E+00 0.  1.
         25    2    1    2    0    0  0.59193901953E+02 -0.34670965791E+02 -0.27634391582E+03  0.31099887323E+03  0.12509334692E+03 0.  0.
          5    1    3    3  502    0  0.81978576810E+02 -0.36256569424E+02 -0.27320966988E+03  0.28756916037E+03  0.41800000000E+01 0. -1.
         -5    1    3    3    0  502 -0.22784674857E+02  0.15856036324E+01 -0.31342459475E+01  0.23429712864E+02  0.41800000000E+01 0. -1.
        -11    1    1    2    0    0 -0.26057292064E+02 -0.10229879716E+01 -0.14319458626E+03  0.14554971146E+03  0.00000000000E+00 0.  1.
         11    1    1    2    0    0 -0.33136609889E+02  0.35693953763E+02 -0.21761811834E+02  0.53344818909E+02  0.00000000000E+00 0. -1.
</event>
<event>
 7    1  0.2380582E-009  0.1047022E+03  0.7561462E-02  0.1270707E+00
          1   -1    0    0  501    0  0.00000000000E+00  0.00000000000E+00  0.80983823737E+03  0.80983823737E+03  0.00000000000E+00 0. -1.
         -1   -1    0    0    0  501 -0.00000000000E+00 -0.00000000000E+00 -0.15711065128E+02  0.15711065128E+02  0.00000000000E+00 0.  1.
         25    2    1    2    0    0 -0.74567331372E+01  0.32807960269E+02  0.49841931675E+03  0.51497680433E+03  0.12508928236E+03 0.  0.
          5    1    3    3  502    0  0.19237978900E+01 -0.41692302321E+02  0.85152386692E+02  0.94922865689E+02  0.41800000000E+01 0. -1.
         -5    1    3    3    0  502 -0.93805310272E+01  0.74500262590E+02  0.41326693005E+03  0.42005393864E+03  0.41800000000E+01 0. -1.
        -11    1    1    2    0    0 -0.28935584406E+02 -0.45321274742E+02  0.20713757226E+03  0.21400294351E+03  0.00000000000E+00 0. -1.
         11    1    1    2    0    0  0.36392317543E+02  0.12513314473E+02  0.88570283235E+02  0.96569554661E+02  0.00000000000E+00 0.  1.
</event>
<event>
 7    1  0.2380582E-009  0.1255751E+03  0.7561462E-02  0.1234173E+00
         -1   -1    0    0    0  501 -0.00000000000E+00  0.00000000000E+00  0.14593682339E+03  0.14593682339E+03  0.00000000000E+00 0.  1.
          1   -1    0    0  501    0  0.00000000000E+00 -0.00000000000E+00 -0.12246083019E+03  0.12246083019E+03  0.00000000000E+00 0. -1.
         25    2    1    2    0    0  0.73346731823E+02 -0.17904073280E+02  0.30286716732E+02  0.14921484878E+03  0.12508991557E+03 0.  0.
          5    1    3    3  502    0 -0.93366057192E+01  0.33486899172E+02 -0.19192718453E+02  0.39929656449E+02  0.41800000000E+01 0. -1.
         -5    1    3    3    0  502  0.82683337542E+02 -0.51390972452E+02  0.49479435185E+02  0.10928519233E+03  0.41800000000E+01 0. -1.
        -11    1    1    2    0    0 -0.58131313357E+02 -0.32113996976E+02 -0.79718895281E+01  0.66888783941E+02  0.00000000000E+00 0. -1.
         11    1    1    2    0    0 -0.15215418465E+02  0.50018070256E+02  0.11611659967E+01  0.52294020860E+02  0.00000000000E+00 0.  1.
</event>
<event>
 7    1  0.2380582E-009  0.1119730E+03  0.7561462E-02  0.1256959E+00
         -2   -1    0    0    0  501 -0.00000000000E+00  0.00000000000E+00  0.25622108057E+02  0.25622108057E+02  0.00000000000E+00 0.  1.
          2   -1    0    0  501    0  0.00000000000E+00 -0.00000000000E+00 -0.50976667724E+03  0.50976667724E+03  0.00000000000E+00 0. -1.
         25    2    1    2    0    0  0.35483625917E+02  0.40353539377E+01 -0.28241142358E+03  0.31093178578E+03  0.12508793487E+03 0.  0.
          5    1    3    3  502    0  0.13720822467E+02  0.62993812871E+02 -0.11263576572E+03  0.12984902598E+03  0.41800000000E+01 0. -1.
         -5    1    3    3    0  502  0.21762803450E+02 -0.58958458934E+02 -0.16977565786E+03  0.18108275980E+03  0.41800000000E+01 0. -1.
        -11    1    1    2    0    0 -0.18273769537E+02  0.42756512134E+02 -0.12030662850E+03  0.12897959080E+03  0.00000000000E+00 0.  1.
         11    1    1    2    0    0 -0.17209856380E+02 -0.46791866071E+02 -0.81426517103E+02  0.95477408713E+02  0.00000000000E+00 0. -1.
</event>
<event>
 7    1  0.2380582E-009  0.1484473E+03  0.7561462E-02  0.1202394E+00
         -4   -1    0    0    0  501 -0.00000000000E+00  0.00000000000E+00  0.54280503405E+02  0.54280503405E+02  0.00000000000E+00 0. -1.
          4   -1    0    0  501    0  0.00000000000E+00 -0.00000000000E+00 -0.53473343485E+03  0.53473343485E+03  0.00000000000E+00 0.  1.
         25    2    1    2    0    0 -0.64602525386E+02 -0.91772136247E+02 -0.14649462293E+03  0.22294860042E+03  0.12509913111E+03 0.  0.
          5    1    3    3  502    0 -0.75164062069E+01  0.20513695857E+02 -0.74612155774E+02  0.77857268570E+02  0.41800000000E+01 0. -1.
         -5    1    3    3    0  502 -0.57086119179E+02 -0.11228583210E+03 -0.71882467153E+02  0.14509133185E+03  0.41800000000E+01 0. -1.
        -11    1    1    2    0    0  0.74968612769E+02  0.10672409079E+03 -0.27493991873E+03  0.30430623287E+03  0.00000000000E+00 0. -1.
         11    1    1    2    0    0 -0.10366087384E+02 -0.14951954542E+02 -0.59018389793E+02  0.61759104965E+02  0.00000000000E+00 0.  1.
</event>
<event>
 7    1  0.2380582E-009  0.1727301E+03  0.7561462E-02  0.1175030E+00
         -2   -1    0    0    0  501 -0.00000000000E+00  0.00000000000E+00  0.17605354863E+03  0.17605354863E+03  0.00000000000E+00 0. -1.
          2   -1    0    0  501    0  0.00000000000E+00 -0.00000000000E+00 -0.24818510889E+03  0.24818510889E+03  0.00000000000E+00 0.  1.
         25    2    1    2    0    0 -0.11055791034E+02  0.13378915895E+03  0.81270320090E+02  0.20068370735E+03  0.12508923176E+03 0.  0.
          5    1    3    3  502    0 -0.67577111884E+02  0.64807447821E+02  0.48938201404E+02  0.10573122198E+03  0.41800000000E+01 0.  1.
         -5    1    3    3    0  502  0.56521320851E+02  0.68981711127E+02  0.32332118686E+02  0.94952485378E+02  0.41800000000E+01 0.  1.
        -11    1    1    2    0    0  0.35336023605E+02 -0.10589484235E+02 -0.30758160252E+02  0.48029534275E+02  0.00000000000E+00 0.  1.
         11    1    1    2    0    0 -0.24280232571E+02 -0.12319967471E+03 -0.12264372011E+03  0.17552541589E+03  0.00000000000E+00 0. -1.
</event>
<event>
 7    1  0.2380582E-009  0.6627513E+02  0.7561462E-02  0.1373238E+00
          1   -1    0    0  501    0  0.00000000000E+00  0.00000000000E+00  0.89216930958E+03  0.89216930958E+03  0.00000000000E+00 0. -1.
         -1   -1    0    0    0  501 -0.00000000000E+00 -0.00000000000E+00 -0.15654031693E+02  0.15654031693E+02  0.00000000000E+00 0.  1.
         25    2    1    2    0    0 -0.35168925178E+02 -0.24728777558E+02  0.59472424249E+03  0.60925599162E+03  0.12509025931E+03 0.  0.
          5    1    3    3  502    0 -0.41711150839E+02 -0.37061179093E+02  0.10218723841E+03  0.11650345572E+03  0.41800000000E+01 0.  1.
         -5    1    3    3    0  502  0.65422256609E+01  0.12332401536E+02  0.49253700408E+03  0.49275253590E+03  0.41800000000E+01 0.  1.
        -11    1    1    2    0    0 -0.10193272013E+02  0.10129044598E+02  0.17218068621E+01  0.14472904258E+02  0.00000000000E+00 0.  1.
         11    1    1    2    0    0  0.45362197191E+02  0.14599732960E+02  0.28006922853E+03  0.28409444540E+03  0.00000000000E+00 0. -1.
</event>
<event>
 7    1  0.2380582E-009  0.1162016E+03  0.7561462E-02  0.1249498E+00
         -2   -1    0    0    0  501 -0.00000000000E+00  0.00000000000E+00  0.23787255537E+03  0.23787255537E+03  0.00000000000E+00 0.  1.
          2   -1    0    0  501    0  0.00000000000E+00 -0.00000000000E+00 -0.67068536486E+02  0.67068536486E+02  0.00000000000E+00 0. -1.
         25    2    1    2    0    0  0.21403643114E+02 -0.62637658210E+02  0.93265968470E+02  0.16948560365E+03  0.12508092103E+03 0.  0.
          5    1    3    3  502    0  0.53615658039E+02  0.99302140440E+01  0.65367722806E+02  0.85227105564E+02  0.41800000000E+01 0. -1.
         -5    1    3    3    0  502 -0.32212014925E+02 -0.72567872254E+02  0.27898245663E+02  0.84258498088E+02  0.41800000000E+01 0. -1.
        -11    1    1    2    0    0  0.26839573433E+02  0.28238451426E+02  0.63605112886E+02  0.74588090377E+02  0.00000000000E+00 0.  1.
         11    1    1    2    0    0 -0.48243216546E+02  0.34399206784E+02  0.13932937530E+02  0.60867397828E+02  0.00000000000E+00 0. -1.
</event>
<event>
 7    1  0.2380582E-009  0.9401089E+02  0.7561462E-02  0.1293419E+00
         -3   -1    0    0    0  501 -0.00000000000E+00  0.00000000000E+00  0.40210490275E+03  0.40210490275E+03  0.00000000000E+00 0.  1.
          3   -1    0    0  501    0  0.00000000000E+00 -0.00000000000E+00 -0.36638361043E+02  0.36638361043E+02  0.00000000000E+00 0. -1.
         25    2    1    2    0    0 -0.63272178477E+00  0.55453559844E+02  0.24677148403E+03  0.28216897205E+03  0.12509063042E+03 0.  0.
          5    1    3    3  502    0  0.26936368947E+02  0.63014976626E+02  0.24361585813E+03  0.25310593431E+03  0.41800000000E+01 0. -1.
         -5    1    3    3    0  502 -0.27569090732E+02 -0.75614167813E+01  0.31556258971E+01  0.29063037734E+02  0.41800000000E+01 0. -1.
        -11    1    1    2    0    0 -0.30721420054E+02 -0.49946577134E+02  0.10817688489E+03  0.12304757064E+03  0.00000000000E+00 0.  1.
         11    1    1    2    0    0  0.31354141839E+02 -0.55069827106E+01  0.10518172791E+02  0.33526721103E+02  0.00000000000E+00 0. -1.
</event>
<event>
 7    1  0.2380582E-009  0.1282446E+03  0.7561462E-02  0.1230084E+00
         -1   -1    0    0    0  501 -0.00000000000E+00  0.00000000000E+00  0.39974200827E+03  0.39974200827E+03  0.00000000000E+00 0.  1.
          1   -1    0    0  501    0  0.00000000000E+00 -0.00000000000E+00 -0.49424341590E+02  0.49424341590E+02  0.00000000000E+00 0. -1.
         25    2    1    2    0    0 -0.65753673748E+02  0.36716043243E+02  0.27895754299E+03  0.31486659647E+03  0.12510815057E+03 0.  0.
          5    1    3    3  502    0 -0.10189376857E+03  0.23074009255E+02  0.17462667250E+03  0.20353549353E+03  0.41800000000E+01 0. -1.
         -5    1    3    3    0  502  0.36140094825E+02  0.13642033987E+02  0.10433087049E+03  0.11133110294E+03  0.41800000000E+01 0. -1.
        -11    1    1    2    0    0 -0.20554319067E+02 -0.88915966334E+01  0.84676824521E+01  0.23942476252E+02  0.00000000000E+00 0. -1.
         11    1    1    2    0    0  0.86307992815E+02 -0.27824446609E+02  0.62892441242E+02  0.11035727714E+03  0.00000000000E+00 0.  1.
</event>
<event>
 7    1  0.2380582E-009  0.1660458E+03  0.7561462E-02  0.1182035E+00
          2   -1    0    0  501    0  0.00000000000E+00  0.00000000000E+00  0.64383536704E+03  0.64383536704E+03  0.00000000000E+00 0. -1.
         -2   -1    0    0    0  501 -0.00000000000E+00 -0.00000000000E+00 -0.65966143345E+02  0.65966143345E+02  0.00000000000E+00 0.  1.
         25    2    1    2    0    0  0.69141291305E+02  0.12911275677E+03  0.46653111089E+03  0.50472739124E+03  0.12509132630E+03 0.  0.
          5    1    3    3  502    0  0.95207680665E+02  0.84609547297E+02  0.23342510152E+03  0.26594741655E+03  0.41800000000E+01 0. -1.
         -5    1    3    3    0  502 -0.26066389360E+02  0.44503209470E+02  0.23310600937E+03  0.23877997468E+03  0.41800000000E+01 0. -1.
        -11    1    1    2    0    0 -0.12941738352E+02 -0.70605467151E+02  0.58804693226E+01  0.72022222283E+02  0.00000000000E+00 0.  1.
         11    1    1    2    0    0 -0.56199552953E+02 -0.58507289616E+02  0.10545764349E+03  0.13305189687E+03  0.00000000000E+00 0. -1.
</event>
<event>
 7    1  0.2380582E-009  0.1038715E+03  0.7561462E-02  0.1272359E+00
          3   -1    0    0  501    0  0.00000000000E+00  0.00000000000E+00  0.13589118283E+03  0.13589118283E+03  0.00000000000E+00 0. -1.
         -3   -1    0    0    0  501 -0.00000000000E+00 -0.00000000000E+00 -0.15351948799E+03  0.15351948799E+03  0.00000000000E+00 0.  1.
         25    2    1    2    0    0  0.56675095754E+02  0.61232096204E+02  0.33340339015E+02  0.15401499324E+03  0.12509038273E+03 0.  0.
          5    1    3    3  502    0  0.28337625284E+02  0.40557345652E+02  0.80808689363E+02  0.94844272202E+02  0.41800000000E+01 0.  1.
         -5    1    3    3    0  502  0.28337470471E+02  0.20674750553E+02 -0.47468350348E+02  0.59170721035E+02  0.41800000000E+01 0.  1.
        -11    1    1    2    0    0 -0.39337468863E+02  0.16839846605E+02 -0.48175613820E+01  0.43060722102E+02  0.00000000000E+00 0.  1.
         11    1    1    2    0    0 -0.17337626891E+02 -0.78071942809E+02 -0.46151082792E+02  0.92334955478E+02  0.00000000000E+00 0. -1.
</event>
<event>
 7    1  0.2380582E-009  0.1873470E+03  0.7561462E-02  0.1160876E+00
         -1   -1    0    0    0  501 -0.00000000000E+00  0.00000000000E+00  0.74251558250E+02  0.74251558250E+02  0.00000000000E+00 0.  1.
          1   -1    0    0  501    0  0.00000000000E+00 -0.00000000000E+00 -0.50706286456E+03  0.50706286456E+03  0.00000000000E+00 0. -1.
         25    2    1    2    0    0  0.87863517619E+02  0.13385825548E+03 -0.24645518683E+03  0.31941496014E+03  0.12509087640E+03 0.  0.
          5    1    3    3  502    0 -0.21191813805E+02  0.73605774721E+02 -0.73701587903E+02  0.10637809692E+03  0.41800000000E+01 0.  1.
         -5    1    3    3    0  502  0.10905533142E+03  0.60252480762E+02 -0.17275359892E+03  0.21303686322E+03  0.41800000000E+01 0.  1.
        -11    1    1    2    0    0 -0.66929850911E+02 -0.41794542544E+02 -0.12962281522E+03  0.15175131945E+03  0.00000000000E+00 0.  1.
         11    1    1    2    0    0 -0.20933666708E+02 -0.92063712939E+02 -0.56733304262E+02  0.11014814322E+03  0.00000000000E+00 0. -1.
</event>
<event>
 7    1  0.2380582E-009  0.1161982E+03  0.7561462E-02  0.1249504E+00
         -1   -1    0    0    0  501 -0.00000000000E+00  0.00000000000E+00  0.42042114235E+02  0.42042114235E+02  0.00000000000E+00 0.  1.
          1   -1    0    0  501    0  0.00000000000E+00 -0.00000000000E+00 -0.46458977444E+03  0.46458977444E+03  0.00000000000E+00 0. -1.
         25    2    1    2    0    0 -0.29662429126E+02 -0.52569032017E+02 -0.34419237760E+03  0.37116003243E+03  0.12509202231E+03 0.  0.
          5    1    3    3  502    0  0.17386251942E+02  0.33203106746E+02 -0.63210869502E+02  0.73605804645E+02  0.41800000000E+01 0.  1.
         -5    1    3    3    0  502 -0.47048681068E+02 -0.85772138764E+02 -0.28098150810E+03  0.29755422779E+03  0.41800000000E+01 0.  1.
        -11    1    1    2    0    0  0.12856575724E+02  0.70807748147E+02 -0.24229920444E+02  0.75934957574E+02  0.00000000000E+00 0.  1.
         11    1    1    2    0    0  0.16805853401E+02 -0.18238716129E+02 -0.54125362161E+02  0.59536898674E+02  0.00000000000E+00 0. -1.
</event>
<event>
 7    1  0.2380582E-009  0.1137212E+03  0.7561462E-02  0.1253830E+00
          1   -1    0    0  501    0  0.00000000000E+00  0.00000000000E+00  0.16545016554E+03  0.16545016554E+03  0.00000000000E+00 0. -1.
         -1   -1    0    0    0  501 -0.00000000000E+00 -0.00000000000E+00 -0.11383462921E+03  0.11383462921E+03  0.00000000000E+00 0.  1.
         25    2    1    2    0    0  0.34424953744E+02  0.73002768450E+02  0.19281465660E+02  0.15012794337E+03  0.12510852417E+03 0.  0.
          5    1    3    3  502    0  0.71824067546E+01  0.95451334649E+02 -0.19225543865E+02  0.97722250229E+02  0.41800000000E+01 0. -1.
         -5    1    3    3    0  502  0.27242546989E+02 -0.22448566199E+02  0.38507009525E+02  0.52405693139E+02  0.41800000000E+01 0. -1.
        -11    1    1    2    0    0  0.13714224912E+02 -0.22207612043E+02 -0.26892616803E+02  0.37476270307E+02  0.00000000000E+00 0.  1.
         11    1    1    2    0    0 -0.48139178655E+02 -0.50795156406E+02  0.59226687478E+02  0.91680581071E+02  0.00000000000E+00 0. -1.
</event>
<event>
 7    1  0.2380582E-009  0.1341242E+03  0.7561462E-02  0.1221461E+00
          1   -1    0    0  501    0  0.00000000000E+00  0.00000000000E+00  0.87327795905E+03  0.87327795905E+03  0.00000000000E+00 0. -1.
         -1   -1    0    0    0  501 -0.00000000000E+00 -0.00000000000E+00 -0.34017310696E+02  0.34017310696E+02  0.00000000000E+00 0.  1.
         25    2    1    2    0    0 -0.11579517154E+03 -0.20677764447E+01  0.58828961042E+03  0.61249044569E+03  0.12508830038E+03 0.  0.
          5    1    3    3  502    0  0.76057198898E+01  0.22052546088E+02  0.21803269903E+02  0.32202744331E+02  0.41800000000E+01 0. -1.
         -5    1    3    3    0  502 -0.12340089143E+03 -0.24120322533E+02  0.56648634051E+03  0.58028770136E+03  0.41800000000E+01 0. -1.
        -11    1    1    2    0    0  0.59696907242E+02 -0.12039936772E+02  0.32951789440E+02  0.69242337042E+02  0.00000000000E+00 0.  1.
         11    1    1    2    0    0  0.56098264302E+02  0.14107713216E+02  0.21801924850E+03  0.22556248701E+03  0.00000000000E+00 0. -1.
</event>
<event>
 7    1  0.2380582E-009  0.1170491E+03  0.7561462E-02  0.1248046E+00
          3   -1    0    0  501    0  0.00000000000E+00  0.00000000000E+00  0.44059682482E+02  0.44059682482E+02  0.00000000000E+00 0. -1.
         -3   -1    0    0    0  501 -0.00000000000E+00 -0.00000000000E+00 -0.35349261932E+03  0.35349261932E+03  0.00000000000E+00 0.  1.
         25    2    1    2    0    0  0.29075337132E+02  0.51026132367E+02 -0.20011852937E+03  0.24319498146E+03  0.12508929528E+03 0.  0.
          5    1    3    3  502    0  0.60696304682E+02 -0.10634881175E+02 -0.13295879569E+03  0.14660373750E+03  0.41800000000E+01 0. -1.
         -5    1    3    3    0  502 -0.31620967550E+02  0.61661013542E+02 -0.67159733683E+02  0.96591243952E+02  0.41800000000E+01 0. -1.
        -11    1    1    2    0    0  0.29186012307E+02 -0.73458972624E+01 -0.57781607346E+02  0.65149824777E+02  0.00000000000E+00 0.  1.
         11    1    1    2    0    0 -0.58261349439E+02 -0.43680235104E+02 -0.51532800121E+02  0.89207495568E+02  0.00000000000E+00 0. -1.
</event>
<event>
 7    1  0.2380582E-009  0.8363288E+02  0.7561462E-02  0.1319047E+00
          2   -1    0    0  501    0  0.00000000000E+00  0.00000000000E+00  0.84855109538E+03  0.84855109538E+03  0.00000000000E+00 0. -1.
         -2   -1    0    0    0  501 -0.00000000000E+00 -0.00000000000E+00 -0.14893200356E+02  0.14893200356E+02  0.00000000000E+00 0.  1.
         25    2    1    2    0    0  0.15902353589E+02 -0.15950682058E+02  0.54446363096E+03  0.55910131928E+03  0.12508529360E+03 0.  0.
          5    1    3    3  502    0  0.64415153054E+01 -0.47787573402E+02  0.80489090332E+02  0.93920771683E+02  0.41800000000E+01 0.  1.
         -5    1    3    3    0  502  0.94608382831E+01  0.31836891344E+02  0.46397454062E+03  0.46518054759E+03  0.41800000000E+01 0.  1.
        -11    1    1    2    0    0 -0.92844914251E+01 -0.33876385583E+02  0.58492203306E+02  0.68228653283E+02  0.00000000000E+00 0.  1.
         11    1    1    2    0    0 -0.66178621634E+01  0.49827067642E+02  0.23070206076E+03  0.23611432318E+03  0.00000000000E+00 0. -1.
</event>
<event>
 7    1  0.3024170E-009  0.1539333E+03  0.7561462E-02  0.1195721E+00
         -1   -1    0    0    0  501 -0.00000000000E+00  0.00000000000E+00  0.17592460260E+02  0.17592460260E+02  0.00000000000E+00 0.  1.
          1   -1    0    0  501    0  0.00000000000E+00 -0.00000000000E+00 -0.15334286376E+04  0.15334286376E+04  0.00000000000E+00 0. -1.
         25    2    1    2    0    0  0.10147627878E+03  0.52208432673E+02 -0.10266779537E+04  0.10405466866E+04  0.12508649312E+03 0.  0.
          5    1    3    3  502    0 -0.28550800626E+02  0.15939352395E+02 -0.25756569644E+03  0.25966665468E+03  0.41800000000E+01 0. -1.
         -5    1    3    3    0  502  0.13002707941E+03  0.36269080278E+02 -0.76911225725E+03  0.78088003190E+03  0.41800000000E+01 0. -1.
        -11    1    1    2    0    0 -0.89895348543E+02 -0.36965231819E+01 -0.23858130950E+03  0.25498211548E+03  0.00000000000E+00 0.  1.
         11    1    1    2    0    0 -0.11580930236E+02 -0.48511909491E+02 -0.25057691420E+03  0.25549229585E+03  0.00000000000E+00 0. -1.
</event>
<event>
 7    1  0.2380582E-009  0.9913469E+02  0.7561462E-02  0.1282126E+00
         -1   -1    0    0    0  501 -0.00000000000E+00  0.00000000000E+00  0.22159808817E+03  0.22159808817E+03  0.00000000000E+00 0.  1.
          1   -1    0    0  501    0  0.00000000000E+00 -0.00000000000E+00 -0.56689504506E+02  0.56689504506E+02  0.00000000000E+00 0. -1.
         25    2    1    2    0    0 -0.26711354630E+02  0.48341091523E+01  0.10862314429E+03  0.16787444169E+03  0.12508387435E+03 0.  0.
          5    1    3    3  502    0 -0.57350098490E+02  0.46898766787E+02  0.76503083648E+02  0.10657730683E+03  0.41800000000E+01 0. -1.
         -5    1    3    3    0  502  0.30638743860E+02 -0.42064657634E+02  0.32120060640E+02  0.61297134865E+02  0.41800000000E+01 0. -1.
        -11    1    1    2    0    0 -0.57050385060E+01  0.26300895674E+02  0.59549013479E+02  0.65348064883E+02  0.00000000000E+00 0.  1.
         11    1    1    2    0    0  0.32416393136E+02 -0.31135004827E+02 -0.32635741008E+01  0.45065086102E+02  0.00000000000E+00 0. -1.
</event>
<event>
 7    1  0.2380582E-009  0.1376259E+03  0.7561462E-02  0.1216560E+00
          2   -1    0    0  501    0  0.00000000000E+00  0.00000000000E+00  0.74252494711E+03  0.74252494711E+03  0.00000000000E+00 0. -1.
         -2   -1    0    0    0  501 -0.00000000000E+00 -0.00000000000E+00 -0.40019107606E+02  0.40019107606E+02  0.00000000000E+00 0.  1.
         25    2    1    2    0    0  0.81804321244E+02  0.77747086225E+02  0.21110508964E+03  0.27009205535E+03  0.12509117914E+03 0.  0.
          5    1    3    3  502    0  0.72651024237E+02  0.25883666791E+02  0.20228660268E+03  0.21653054646E+03  0.41800000000E+01 0. -1.
         -5    1    3    3    0  502  0.91532970066E+01  0.51863419434E+02  0.88184869663E+01  0.53561508884E+02  0.41800000000E+01 0. -1.
        -11    1    1    2    0    0 -0.97318341564E+02 -0.83902603062E+02  0.42614478970E+03  0.44509536977E+03  0.00000000000E+00 0.  1.
         11    1    1    2    0    0  0.15514020320E+02  0.61555168366E+01  0.65255960164E+02  0.67356629599E+02  0.00000000000E+00 0. -1.
</event>
<event>
 7    1  0.2380582E-009  0.1060596E+03  0.7561462E-02  0.1268046E+00
          2   -1    0    0  501    0  0.00000000000E+00  0.00000000000E+00  0.10374041158E+04  0.10374041158E+04  0.00000000000E+00 0.  1.
         -2   -1    0    0    0  501 -0.00000000000E+00 -0.00000000000E+00 -0.22080692620E+02  0.22080692620E+02  0.00000000000E+00 0. -1.
         25    2    1    2    0    0 -0.53544817226E+02  0.43628301659E+02  0.82609501632E+03  0.83836208063E+03  0.12509007190E+03 0.  0.
          5    1    3    3  502    0 -0.47845300675E+02 -0.23817459610E+02  0.59803458515E+03  0.60043257874E+03  0.41800000000E+01 0. -1.
         -5    1    3    3    0  502 -0.56995165510E+01  0.67445761269E+02  0.22806043117E+03  0.23792950188E+03  0.41800000000E+01 0. -1.
        -11    1    1    2    0    0  0.23325074504E+02 -0.53937806073E+02  0.46699974083E+02  0.75061532118E+02  0.00000000000E+00 0. -1.
         11    1    1    2    0    0  0.30219742722E+02  0.10309504414E+02  0.14252843275E+03  0.14606119565E+03  0.00000000000E+00 0.  1.
</event>
<event>
 7    1  0.2380582E-009  0.1001929E+03  0.7561462E-02  0.1279891E+00
          2   -1    0    0  501    0  0.00000000000E+00  0.00000000000E+00  0.26013010235E+03  0.26013010235E+03  0.00000000000E+00 0.  1.
         -2   -1    0    0    0  501 -0.00000000000E+00 -0.00000000000E+00 -0.58798856599E+02  0.58798856599E+02  0.00000000000E+00 0. -1.
         25    2    1    2    0    0  0.17433417033E+02  0.31462124426E+02  0.47823568319E+02  0.13866749392E+03  0.12509113030E+03 0.  0.
          5    1    3    3  502    0  0.11903230160E+02  0.70537771136E+02  0.63745026925E+02  0.95907063884E+02  0.41800000000E+01 0. -1.
         -5    1    3    3    0  502  0.55301868733E+01 -0.39075646709E+02 -0.15921458607E+02  0.42760430035E+02  0.41800000000E+01 0. -1.
        -11    1    1    2    0    0 -0.24632628133E+02  0.23242266325E+02  0.89843166364E+02  0.96014393999E+02  0.00000000000E+00 0. -1.
         11    1    1    2    0    0  0.71992111000E+01 -0.54704390751E+02  0.63664511071E+02  0.84247071034E+02  0.00000000000E+00 0.  1.
</event>
<event>
 7    1  0.2380582E-009  0.1534128E+03  0.7561462E-02  0.1196341E+00
          2   -1    0    0  501    0  0.00000000000E+00  0.00000000000E+00  0.23909123619E+03  0.23909123619E+03  0.00000000000E+00 0. -1.
         -2   -1    0    0    0  501 -0.00000000000E+00 -0.00000000000E+00 -0.15276874997E+03  0.15276874997E+03  0.00000000000E+00 0.  1.
         25    2    1    2    0    0  0.84018769735E+02  0.10621026498E+03 -0.34202676708E+02  0.18750004895E+03  0.12508665479E+03 0.  0.
          5    1    3    3  502    0  0.68422272940E+02  0.54370529925E+02  0.39466695398E+02  0.95983615291E+02  0.41800000000E+01 0. -1.
         -5    1    3    3    0  502  0.15596496795E+02  0.51839735057E+02 -0.73669372107E+02  0.91516433659E+02  0.41800000000E+01 0. -1.
        -11    1    1    2    0    0 -0.64185176400E+02 -0.78129771934E+01  0.47345203404E+02  0.80139551830E+02  0.00000000000E+00 0. -1.
         11    1    1    2    0    0 -0.19833593335E+02 -0.98397287789E+02  0.73179959528E+02  0.12422038539E+03  0.00000000000E+00 0.  1.
</event>
<event>
 7    1  0.2380582E-009  0.9968385E+02  0.7561462E-02  0.1280962E+00
          2   -1    0    0  501    0  0.00000000000E+00  0.00000000000E+00  0.19665464908E+03  0.19665464908E+03  0.00000000000E+00 0. -1.
         -2   -1    0    0    0  501 -0.00000000000E+00 -0.00000000000E+00 -0.61225897623E+02  0.61225897623E+02  0.00000000000E+00 0.  1.
         25    2    1    2    0    0  0.15980486501E+02 -0.33122491511E+02  0.11564075275E+03  0.17427658308E+03  0.12508824213E+03 0.  0.
          5    1    3    3  502    0 -0.99355086123E+01  0.39504443548E+02  0.78600619816E+02  0.88627564712E+02  0.41800000000E+01 0. -1.
         -5    1    3    3    0  502  0.25915995113E+02 -0.72626935060E+02  0.37040132939E+02  0.85649018366E+02  0.41800000000E+01 0. -1.
        -11    1    1    2    0    0 -0.43642993447E+02  0.30834388202E+02  0.14182175120E+02  0.55286566758E+02  0.00000000000E+00 0. -1.
         11    1    1    2    0    0  0.27662506946E+02  0.22881033090E+01  0.56058235836E+01  0.28317396867E+02  0.00000000000E+00 0.  1.
</event>
<event>
 7    1  0.2380582E-009  0.2215701E+03  0.7561462E-02  0.1132718E+00
          1   -1    0    0  501    0  0.00000000000E+00  0.00000000000E+00  0.87362396621E+03  0.87362396621E+03  0.00000000000E+00 0.  1.
         -1   -1    0    0    0  501 -0.00000000000E+00 -0.00000000000E+00 -0.63246716499E+02  0.63246716499E+02  0.00000000000E+00 0. -1.
         25    2    1    2    0    0  0.18727270194E+03  0.87739555690E+02  0.37388101884E+03  0.44520090889E+03  0.12509012151E+03 0.  0.
          5    1    3    3  502    0  0.17489528020E+03  0.11256605594E+03  0.29108554547E+03  0.35778169765E+03  0.41800000000E+01 0. -1.
         -5    1    3    3    0  502  0.12377421738E+02 -0.24826500251E+02  0.82795473367E+02  0.87419211239E+02  0.41800000000E+01 0. -1.
        -11    1    1    2    0    0 -0.30145752430E+02 -0.18322737711E+02  0.18675490829E+02  0.39915699474E+02  0.00000000000E+00 0. -1.
         11    1    1    2    0    0 -0.15712694951E+03 -0.69416817979E+02  0.41782074004E+03  0.45175407435E+03  0.00000000000E+00 0.  1.
</event>
<event>
 7    1  0.2386394E-009  0.9143987E+02  0.7561462E-02  0.1299402E+00
          1   -1    0    0  501    0  0.00000000000E+00  0.00000000000E+00  0.11799722556E+03  0.11799722556E+03  0.00000000000E+00 0. -1.
         -1   -1    0    0    0  501 -0.00000000000E+00 -0.00000000000E+00 -0.17428584857E+03  0.17428584857E+03  0.00000000000E+00 0.  1.
         25    2    1    2    0    0 -0.48286474552E+02  0.41375828949E+02  0.39126584903E+02  0.14567578775E+03  0.12508797961E+03 0.  0.
          5    1    3    3  502    0 -0.31428448025E+02 -0.16108763251E+02 -0.35256816961E+02  0.50077491361E+02  0.41800000000E+01 0.  1.
         -5    1    3    3    0  502 -0.16858026527E+02  0.57484592200E+02  0.74383401865E+02  0.95598296385E+02  0.41800000000E+01 0.  1.
        -11    1    1    2    0    0 -0.16763947780E+01 -0.37080755305E+02  0.18617885800E+01  0.37165292548E+02  0.00000000000E+00 0. -1.
         11    1    1    2    0    0  0.49962869330E+02 -0.42950736442E+01 -0.97276996487E+02  0.10944199384E+03  0.00000000000E+00 0.  1.
</event>
<event>
 7    1  0.2380582E-009  0.1374572E+03  0.7561462E-02  0.1216792E+00
         -2   -1    0    0    0  501 -0.00000000000E+00  0.00000000000E+00  0.39092672760E+02  0.39092672760E+02  0.00000000000E+00 0.  1.
          2   -1    0    0  501    0  0.00000000000E+00 -0.00000000000E+00 -0.81222630385E+03  0.81222630385E+03  0.00000000000E+00 0. -1.
         25    2    1    2    0    0  0.11263235380E+03 -0.69881054055E+02 -0.51717261479E+03  0.54834987449E+03  0.12510260799E+03 0.  0.
          5    1    3    3  502    0  0.92208441648E+02 -0.58094252374E+02 -0.51246622363E+03  0.52394316641E+03  0.41800000000E+01 0. -1.
         -5    1    3    3    0  502  0.20423912153E+02 -0.11786801681E+02 -0.47063911634E+01  0.24406708080E+02  0.41800000000E+01 0. -1.
        -11    1    1    2    0    0 -0.78844632763E+02  0.19465565072E+02 -0.21479325432E+03  0.22963346107E+03  0.00000000000E+00 0. -1.
         11    1    1    2    0    0 -0.33787721038E+02  0.50415488982E+02 -0.41167761975E+02  0.73335641051E+02  0.00000000000E+00 0.  1.
</event>
<event>
 7    1  0.2380582E-009  0.9848695E+02  0.7561462E-02  0.1283510E+00
         -1   -1    0    0    0  501 -0.00000000000E+00  0.00000000000E+00  0.12953815399E+03  0.12953815399E+03  0.00000000000E+00 0.  1.
          1   -1    0    0  501    0  0.00000000000E+00 -0.00000000000E+00 -0.14398808344E+03  0.14398808344E+03  0.00000000000E+00 0. -1.
         25    2    1    2    0    0 -0.49600468668E+02  0.13326300215E+02  0.56194501544E+02  0.14643497526E+03  0.12509030021E+03 0.  0.
          5    1    3    3  502    0  0.15244343283E+02 -0.45040573658E+02  0.23121439720E+02  0.53038822124E+02  0.41800000000E+01 0. -1.
         -5    1    3    3    0  502 -0.64844811951E+02  0.58366873873E+02  0.33073061824E+02  0.93396153138E+02  0.41800000000E+01 0. -1.
        -11    1    1    2    0    0  0.42685808890E+02 -0.24156092559E+02  0.59681790062E+01  0.49408645488E+02  0.00000000000E+00 0.  1.
         11    1    1    2    0    0  0.69146597779E+01  0.10829792345E+02 -0.76612610005E+02  0.77682616677E+02  0.00000000000E+00 0. -1.
</event>
<event>
 7    1  0.2380582E-009  0.6576179E+02  0.7561462E-02  0.1375129E+00
          1   -1    0    0  501    0  0.00000000000E+00  0.00000000000E+00  0.22906986238E+03  0.22906986238E+03  0.00000000000E+00 0. -1.
         -1   -1    0    0    0  501 -0.00000000000E+00 -0.00000000000E+00 -0.88910650772E+02  0.88910650772E+02  0.00000000000E+00 0.  1.
         25    2    1    2    0    0  0.60286424850E+02  0.13139523823E+02  0.15160454281E+03  0.20600891199E+03  0.12509450153E+03 0.  0.
          5    1    3    3  502    0  0.23553200345E+02  0.14894989739E+02 -0.17320310946E+02  0.33076873146E+02  0.41800000000E+01 0. -1.
         -5    1    3    3    0  502  0.36733224504E+02 -0.17554659158E+01  0.16892485376E+03  0.17293203885E+03  0.41800000000E+01 0. -1.
        -11    1    1    2    0    0 -0.42657634788E+02 -0.20377960867E+02 -0.50094474303E+02  0.68879543048E+02  0.00000000000E+00 0.  1.
         11    1    1    2    0    0 -0.17628790062E+02  0.72384370439E+01  0.38649143099E+02  0.43092058110E+02  0.00000000000E+00 0. -1.
</event>
<event>
 7    1  0.2380582E-009  0.1657272E+03  0.7561462E-02  0.1182378E+00
         -2   -1    0    0    0  501 -0.00000000000E+00  0.00000000000E+00  0.53523644835E+02  0.53523644835E+02  0.00000000000E+00 0.  1.
          2   -1    0    0  501    0  0.00000000000E+00 -0.00000000000E+00 -0.67237793312E+03  0.67237793312E+03  0.00000000000E+00 0. -1.
         25    2    1    2    0    0 -0.55128093072E+02  0.13658312784E+03 -0.41739954234E+03  0.45995848569E+03  0.12508146608E+03 0.  0.
          5    1    3    3  502    0 -0.55878808799E+02  0.14555626834E+03 -0.26689558110E+03  0.30912746907E+03  0.41800000000E+01 0.  1.
         -5    1    3    3    0  502  0.75071572725E+00 -0.89731404961E+01 -0.15050396124E+03  0.15083101662E+03  0.41800000000E+01 0.  1.
        -11    1    1    2    0    0 -0.18392966916E+02 -0.16256999292E+02 -0.65985746782E+02  0.70403906400E+02  0.00000000000E+00 0. -1.
         11    1    1    2    0    0  0.73521059987E+02 -0.12032612855E+03 -0.13546899916E+03  0.19553918586E+03  0.00000000000E+00 0.  1.
</event>
<event>
 7    1  0.2380582E-009  0.8095911E+02  0.7561462E-02  0.1326351E+00
         -1   -1    0    0    0  501 -0.00000000000E+00  0.00000000000E+00  0.72164456092E+02  0.72164456092E+02  0.00000000000E+00 0.  1.
          1   -1    0    0  501    0  0.00000000000E+00 -0.00000000000E+00 -0.19045721517E+03  0.19045721517E+03  0.00000000000E+00 0. -1.
         25    2    1    2    0    0  0.13764788878E+02 -0.38825295309E+02 -0.85752673438E+02  0.15714379504E+03  0.12507509084E+03 0.  0.
          5    1    3    3  502    0 -0.20043347432E+02 -0.96922622304E+01  0.27332221343E+02  0.35499273894E+02  0.41800000000E+01 0.  1.
         -5    1    3    3    0  502  0.33808136310E+02 -0.29133033078E+02 -0.11308489478E+03  0.12164452115E+03  0.41800000000E+01 0.  1.
        -11    1    1    2    0    0  0.15680792119E+02 -0.21910821318E+02  0.62069290270E+01  0.27649544305E+02  0.00000000000E+00 0.  1.
         11    1    1    2    0    0 -0.29445580997E+02  0.60736116627E+02 -0.38747014663E+02  0.77828331913E+02  0.00000000000E+00 0. -1.
</event>
<event>
 7    1  0.2380582E-009  0.7999454E+02  0.7561462E-02  0.1329067E+00
         -1   -1    0    0    0  501 -0.00000000000E+00  0.00000000000E+00  0.34214435990E+03  0.34214435990E+03  0.00000000000E+00 0.  1.
          1   -1    0    0  501    0  0.00000000000E+00 -0.00000000000E+00 -0.37521442135E+02  0.37521442135E+02  0.00000000000E+00 0. -1.
         25    2    1    2    0    0  0.25448621709E+02  0.14466980016E+02  0.15086304553E+03  0.19815144873E+03  0.12508961696E+03 0.  0.
          5    1    3    3  502    0 -0.19839473573E+00 -0.25471669246E+02 -0.11996619450E+02  0.28464654800E+02  0.41800000000E+01 0. -1.
         -5    1    3    3    0  502  0.25647016445E+02  0.39938649262E+02  0.16285966498E+03  0.16968679393E+03  0.41800000000E+01 0. -1.
        -11    1    1    2    0    0 -0.48001781196E+02  0.14194952160E+02  0.46873196269E+02  0.68576702992E+02  0.00000000000E+00 0. -1.
         11    1    1    2    0    0  0.22553159487E+02 -0.28661932176E+02  0.10688667597E+03  0.11293765032E+03  0.00000000000E+00 0.  1.
</event>
<event>
 7    1  0.2380582E-009  0.1005353E+03  0.7561462E-02  0.1279174E+00
         -1   -1    0    0    0  501 -0.00000000000E+00  0.00000000000E+00  0.67440332591E+02  0.67440332591E+02  0.00000000000E+00 0.  1.
          1   -1    0    0  501    0  0.00000000000E+00 -0.00000000000E+00 -0.30486848236E+03  0.30486848236E+03  0.00000000000E+00 0. -1.
         25    2    1    2    0    0 -0.16958222155E+02 -0.26586770182E+00 -0.11122308071E+02  0.12672431929E+03  0.12509074857E+03 0.  0.
          5    1    3    3  502    0 -0.25084520068E+02  0.55460165773E+02 -0.28914625488E+02  0.67517339267E+02  0.41800000000E+01 0. -1.
         -5    1    3    3    0  502  0.81262979131E+01 -0.55726033475E+02  0.17792317417E+02  0.59206980025E+02  0.41800000000E+01 0. -1.
        -11    1    1    2    0    0  0.29238684973E+02  0.35665376583E+02 -0.63245660614E+02  0.78274730100E+02  0.00000000000E+00 0.  1.
         11    1    1    2    0    0 -0.12280462818E+02 -0.35399508881E+02 -0.16306018108E+03  0.16730976555E+03  0.00000000000E+00 0. -1.
</event>
<event>
 7    1  0.2380582E-009  0.1199670E+03  0.7561462E-02  0.1243151E+00
         -2   -1    0    0    0  501 -0.00000000000E+00  0.00000000000E+00  0.56547758571E+02  0.56547758571E+02  0.00000000000E+00 0.  1.
          2   -1    0    0  501    0  0.00000000000E+00 -0.00000000000E+00 -0.29303169628E+03  0.29303169628E+03  0.00000000000E+00 0. -1.
         25    2    1    2    0    0  0.44379700361E+02 -0.50637856049E+02 -0.11196006925E+03  0.18086786171E+03  0.12507748009E+03 0.  0.
          5    1    3    3  502    0 -0.26924675948E+02 -0.47330820162E+02 -0.87513635777E+01  0.55310066684E+02  0.41800000000E+01 0. -1.
         -5    1    3    3    0  502  0.71304376309E+02 -0.33070358878E+01 -0.10320870567E+03  0.12555779503E+03  0.41800000000E+01 0. -1.
        -11    1    1    2    0    0 -0.70353156447E+02  0.52491771302E+02 -0.97106889418E+02  0.13089958231E+03  0.00000000000E+00 0. -1.
         11    1    1    2    0    0  0.25973456086E+02 -0.18539152525E+01 -0.27416979044E+02  0.37812010826E+02  0.00000000000E+00 0.  1.
</event>
<event>
 7    1  0.2380582E-009  0.8419581E+02  0.7561462E-02  0.1317549E+00
          2   -1    0    0  501    0  0.00000000000E+00  0.00000000000E+00  0.66748408246E+03  0.66748408246E+03  0.00000000000E+00 0. -1.
         -2   -1    0    0    0  501 -0.00000000000E+00 -0.00000000000E+00 -0.22873446512E+02  0.22873446512E+02  0.00000000000E+00 0.  1.
         25    2    1    2    0    0 -0.60708406823E+02 -0.92076948022E+01  0.35949478980E+03  0.38555617345E+03  0.12508703647E+03 0.  0.
          5    1    3    3  502    0 -0.57232129790E+02 -0.25699075055E+02  0.64589425326E+02  0.90140032189E+02  0.41800000000E+01 0. -1.
         -5    1    3    3    0  502 -0.34762770329E+01  0.16491380252E+02  0.29490536447E+03  0.29541614127E+03  0.41800000000E+01 0. -1.
        -11    1    1    2    0    0  0.42645967555E+02 -0.25024273878E+02  0.66955637581E+02  0.83234309247E+02  0.00000000000E+00 0.  1.
         11    1    1    2    0    0  0.18062439267E+02  0.34231968680E+02  0.21816020856E+03  0.22156704627E+03  0.00000000000E+00 0. -1.
</event>
<event>
 7    1  0.2380582E-009  0.1073489E+03  0.7561462E-02  0.1265560E+00
          2   -1    0    0  501    0  0.00000000000E+00  0.00000000000E+00  0.72741437661E+03  0.72741437661E+03  0.00000000000E+00 0. -1.
         -2   -1    0    0    0  501 -0.00000000000E+00 -0.00000000000E+00 -0.24310656473E+02  0.24310656473E+02  0.00000000000E+00 0.  1.
         25    2    1    2    0    0  0.88626828543E+01  0.60405004730E+02  0.50871237254E+03  0.52741260544E+03  0.12509383140E+03 0.  0.
          5    1    3    3  502    0 -0.45341068042E+02 -0.12984457663E+02  0.15275131932E+03  0.15992137614E+03  0.41800000000E+01 0.  1.
         -5    1    3    3    0  502  0.54203750897E+02  0.73389462392E+02  0.35596105322E+03  0.36749122930E+03  0.41800000000E+01 0.  1.
        -11    1    1    2    0    0 -0.10370143577E+02  0.43494375461E+01 -0.66705252042E+01  0.13074914580E+02  0.00000000000E+00 0.  1.
         11    1    1    2    0    0  0.15074607229E+01 -0.64754442276E+02  0.20106187280E+03  0.21123751307E+03  0.00000000000E+00 0. -1.
</event>
<event>
 7    1  0.2380582E-009  0.1065033E+03  0.7561462E-02  0.1267186E+00
         -2   -1    0    0    0  501 -0.00000000000E+00  0.00000000000E+00  0.10786982242E+03  0.10786982242E+03  0.00000000000E+00 0.  1.
          2   -1    0    0  501    0  0.00000000000E+00 -0.00000000000E+00 -0.11818849217E+03  0.11818849217E+03  0.00000000000E+00 0. -1.
         25    2    1    2    0    0 -0.20667657042E+02  0.66194656306E+00 -0.28390607809E+02  0.12992182036E+03  0.12508422191E+03 0.  0.
          5    1    3    3  502    0 -0.62417199190E+02 -0.27285143444E+02 -0.38710876126E+02  0.78462667160E+02  0.41800000000E+01 0.  1.
         -5    1    3    3    0  502  0.41749542148E+02  0.27947090007E+02  0.10320268317E+02  0.51459153195E+02  0.41800000000E+01 0.  1.
        -11    1    1    2    0    0 -0.36705793507E+02 -0.36920628626E+01  0.51609167530E+01  0.37250257273E+02  0.00000000000E+00 0. -1.
         11    1    1    2    0    0  0.57373450549E+02  0.30301162995E+01  0.12911021308E+02  0.58886236965E+02  0.00000000000E+00 0.  1.
</event>
<event>
 7    1  0.2380582E-009  0.1283325E+03  0.7561462E-02  0.1229951E+00
          3   -1    0    0  501    0  0.00000000000E+00  0.00000000000E+00  0.12319095628E+03  0.12319095628E+03  0.00000000000E+00 0. -1.
         -3   -1    0    0    0  501 -0.00000000000E+00 -0.00000000000E+00 -0.22032173077E+03  0.22032173077E+03  0.00000000000E+00 0.  1.
         25    2    1    2    0    0 -0.61463078816E+02  0.74738022694E+02  0.31670546084E+02  0.16128518135E+03  0.12508558725E+03 0.  0.
          5    1    3    3  502    0  0.37896321648E+02  0.13414237656E+02  0.15719955574E+02  0.43366604313E+02  0.41800000000E+01 0. -1.
         -5    1    3    3    0  502 -0.99359400464E+02  0.61323785039E+02  0.15950590510E+02  0.11791857703E+03  0.41800000000E+01 0. -1.
        -11    1    1    2    0    0  0.37621336212E+02 -0.61630509162E+02 -0.13609162833E+03  0.15406042938E+03  0.00000000000E+00 0.  1.
         11    1    1    2    0    0  0.23841742604E+02 -0.13107513532E+02  0.72903077604E+01  0.28167076324E+02  0.00000000000E+00 0. -1.
</event>
<event>
 7    1  0.2380582E-009  0.1601896E+03  0.7561462E-02  0.1188483E+00
         -1   -1    0    0    0  501 -0.00000000000E+00  0.00000000000E+00  0.13908321668E+03  0.13908321668E+03  0.00000000000E+00 0.  1.
          1   -1    0    0  501    0  0.00000000000E+00 -0.00000000000E+00 -0.21865590712E+03  0.21865590712E+03  0.00000000000E+00 0. -1.
         25    2    1    2    0    0  0.10921244771E+03 -0.80704383576E+02 -0.48384724003E+02  0.19086572129E+03  0.12509230905E+03 0.  0.
          5    1    3    3  502    0  0.34436997245E+02  0.33313095476E+02 -0.95839053986E+01  0.49040725444E+02  0.41800000000E+01 0. -1.
         -5    1    3    3    0  502  0.74775450468E+02 -0.11401747905E+03 -0.38800818604E+02  0.14182499584E+03  0.41800000000E+01 0. -1.
        -11    1    1    2    0    0 -0.44611583564E+02  0.30240315006E+02  0.32614774893E+02  0.62995186967E+02  0.00000000000E+00 0.  1.
         11    1    1    2    0    0 -0.64600864149E+02  0.50464068569E+02 -0.63802741330E+02  0.10387821555E+03  0.00000000000E+00 0. -1.
</event>
<event>
 7    1  0.2380582E-009  0.8076039E+02  0.7561462E-02  0.1326907E+00
         -2   -1    0    0    0  501 -0.00000000000E+00  0.00000000000E+00  0.36547940402E+03  0.36547940402E+03  0.00000000000E+00 0.  1.
          2   -1    0    0  501    0  0.00000000000E+00 -0.00000000000E+00 -0.52045567896E+02  0.52045567896E+02  0.00000000000E+00 0. -1.
         25    2    1    2    0    0  0.36392945273E+02  0.12370032121E+02  0.29295461368E+03  0.32085500927E+03  0.12509223451E+03 0.  0.
          5    1    3    3  502    0  0.30887035550E+02  0.56408928580E+02  0.77302083329E+02  0.10064323462E+03  0.41800000000E+01 0. -1.
         -5    1    3    3    0  502  0.55059097227E+01 -0.44038896460E+02  0.21565253036E+03  0.22021177464E+03  0.41800000000E+01 0. -1.
        -11    1    1    2    0    0 -0.69533149179E+01  0.12271137767E+02  0.47612958368E+02  0.49658062941E+02  0.00000000000E+00 0.  1.
         11    1    1    2    0    0 -0.29439630355E+02 -0.24641169888E+02 -0.27133735927E+02  0.47011899709E+02  0.00000000000E+00 0. -1.
</event>
<event>
 7    1  0.2630011E-009  0.1627988E+03  0.7561462E-02  0.1185573E+00
         -2   -1    0    0    0  501 -0.00000000000E+00  0.00000000000E+00  0.23179016804E+02  0.23179016804E+02  0.00000000000E+00 0.  1.
          2   -1    0    0  501    0  0.00000000000E+00 -0.00000000000E+00 -0.17017601714E+04  0.17017601714E+04  0.00000000000E+00 0. -1.
         25    2    1    2    0    0  0.13267121835E+03 -0.45083564848E+02 -0.12663784680E+04  0.12802329134E+04  0.12509079954E+03 0.  0.
          5    1    3    3  502    0  0.23102625862E+02 -0.43426540824E+02 -0.78373582987E+03  0.78528906728E+03  0.41800000000E+01 0. -1.
         -5    1    3    3    0  502  0.10956859249E+03 -0.16570240246E+01 -0.48264263818E+03  0.49494384609E+03  0.41800000000E+01 0. -1.
        -11    1    1    2    0    0 -0.70752875933E+02 -0.23137278018E+02 -0.19800251946E+03  0.21153321442E+03  0.00000000000E+00 0.  1.
         11    1    1    2    0    0 -0.61918342419E+02  0.68220842866E+02 -0.21420016711E+03  0.23317306045E+03  0.00000000000E+00 0. -1.
</event>
<event>
 7    1  0.2380582E-009  0.1482430E+03  0.7561462E-02  0.1202649E+00
         -2   -1    0    0    0  501 -0.00000000000E+00  0.00000000000E+00  0.95942770036E+02  0.95942770036E+02  0.00000000000E+00 0.  1.
          2   -1    0    0  501    0  0.00000000000E+00 -0.00000000000E+00 -0.32380673469E+03  0.32380673469E+03  0.00000000000E+00 0. -1.
         25    2    1    2    0    0  0.10429170180E+03 -0.81320338805E+02 -0.73400099974E+02  0.19628181596E+03  0.12509684262E+03 0.  0.
          5    1    3    3  502    0  0.29491267991E+02 -0.60072984390E-01  0.31886871619E+02  0.43634659139E+02  0.41800000000E+01 0. -1.
         -5    1    3    3    0  502  0.74800433807E+02 -0.81260265821E+02 -0.10528697159E+03  0.15264715682E+03  0.41800000000E+01 0. -1.
        -11    1    1    2    0    0 -0.11520522891E+03  0.86529457237E+02 -0.15465775694E+03  0.21137316178E+03  0.00000000000E+00 0. -1.
         11    1    1    2    0    0  0.10913527111E+02 -0.52091184321E+01  0.19389226023E+00  0.12094526988E+02  0.00000000000E+00 0.  1.
</event>
<event>
 7    1  0.2380582E-009  0.1036795E+03  0.7561462E-02  0.1272743E+00
          4   -1    0    0  501    0  0.00000000000E+00  0.00000000000E+00  0.95127530564E+02  0.95127530564E+02  0.00000000000E+00 0. -1.
         -4   -1    0    0    0  501 -0.00000000000E+00 -0.00000000000E+00 -0.15939242090E+03  0.15939242090E+03  0.00000000000E+00 0.  1.
         25    2    1    2    0    0  0.32350318574E+02 -0.87097589053E+01  0.97052136065E+01  0.12986342963E+03  0.12509163111E+03 0.  0.
          5    1    3    3  502    0  0.65364622833E+02 -0.25902238965E+02 -0.28846262269E+02  0.76112017109E+02  0.41800000000E+01 0. -1.
         -5    1    3    3    0  502 -0.33014304259E+02  0.17192480059E+02  0.38551475875E+02  0.53751412526E+02  0.41800000000E+01 0. -1.
        -11    1    1    2    0    0  0.32829774720E+02  0.98593340066E+01 -0.33477885229E+02  0.47914187614E+02  0.00000000000E+00 0.  1.
         11    1    1    2    0    0 -0.65180093294E+02 -0.11495751013E+01 -0.40492218715E+02  0.76742334218E+02  0.00000000000E+00 0. -1.
</event>
<event>
 7    1  0.2380582E-009  0.1368505E+03  0.7561462E-02  0.1217631E+00
          2   -1    0    0  501    0  0.00000000000E+00  0.00000000000E+00  0.86331514082E+03  0.86331514082E+03  0.00000000000E+00 0. -1.
         -2   -1    0    0    0  501 -0.00000000000E+00 -0.00000000000E+00 -0.31421794984E+02  0.31421794984E+02  0.00000000000E+00 0.  1.
         25    2    1    2    0    0  0.91426967438E+02  0.79509917053E+02  0.50031895907E+03  0.52976160072E+03  0.12509026943E+03 0.  0.
          5    1    3    3  502    0  0.38458246082E+02  0.34705513784E+02  0.43753714451E+02  0.67936509381E+02  0.41800000000E+01 0.  1.
         -5    1    3    3    0  502  0.52968721356E+02  0.44804403269E+02  0.45656524462E+03  0.46182509134E+03  0.41800000000E+01 0.  1.
        -11    1    1    2    0    0  0.34292458261E+01 -0.53853945400E+02  0.10673929478E+03  0.11960469979E+03  0.00000000000E+00 0. -1.
         11    1    1    2    0    0 -0.94856213264E+02 -0.25655971652E+02  0.22483509199E+03  0.24537063530E+03  0.00000000000E+00 0.  1.
</event>
<event>
 7    1  0.2380582E-009  0.8775151E+02  0.7561462E-02  0.1308390E+00
         -2   -1    0    0    0  501 -0.00000000000E+00  0.00000000000E+00  0.16279994450E+02  0.16279994450E+02  0.00000000000E+00 0.  1.
          2   -1    0    0  501    0  0.00000000000E+00 -0.00000000000E+00 -0.13739254424E+04  0.13739254424E+04  0.00000000000E+00 0. -1.
         25    2    1    2    0    0 -0.50140095806E+01  0.11973392892E+02 -0.12797631936E+04  0.12859269470E+04  0.12508308737E+03 0.  0.
          5    1    3    3  502    0  0.47561718566E+02 -0.10481395842E+02 -0.26008153843E+03  0.26463532599E+03  0.41800000000E+01 0. -1.
         -5    1    3    3    0  502 -0.52575728146E+02  0.22454788735E+02 -0.10196816552E+04  0.10212916210E+04  0.41800000000E+01 0. -1.
        -11    1    1    2    0    0  0.21627870815E+02  0.22389634318E+02 -0.36839146347E+02  0.48230521710E+02  0.00000000000E+00 0.  1.
         11    1    1    2    0    0 -0.16613861235E+02 -0.34363027210E+02 -0.41043107985E+02  0.56047968181E+02  0.00000000000E+00 0. -1.
</event>
<event>
 7    1  0.2380582E-009  0.8204518E+02  0.7561462E-02  0.1323346E+00
          1   -1    0    0  501    0  0.00000000000E+00  0.00000000000E+00  0.24107870443E+03  0.24107870443E+03  0.00000000000E+00 0. -1.
         -1   -1    0    0    0  501 -0.00000000000E+00 -0.00000000000E+00 -0.48674254986E+02  0.48674254986E+02  0.00000000000E+00 0.  1.
         25    2    1    2    0    0  0.10700252868E+02 -0.16291720868E+01  0.10879738960E+03  0.16614034925E+03  0.12509434061E+03 0.  0.
          5    1    3    3  502    0 -0.28685965824E+02 -0.36498150756E+02  0.15751760429E+01  0.46636393766E+02  0.41800000000E+01 0.  1.
         -5    1    3    3    0  502  0.39386218692E+02  0.34868978669E+02  0.10722221355E+03  0.11950395548E+03  0.41800000000E+01 0.  1.
        -11    1    1    2    0    0 -0.11365711691E+02 -0.30513634420E+02  0.85416062290E+02  0.91412061485E+02  0.00000000000E+00 0. -1.
         11    1    1    2    0    0  0.66545882315E+00  0.32142806507E+02 -0.18090024445E+01  0.32200548683E+02  0.00000000000E+00 0.  1.
</event>
<event>
 7    1  0.2380582E-009  0.9864645E+02  0.7561462E-02  0.1283168E+00
         -2   -1    0    0    0  501 -0.00000000000E+00  0.00000000000E+00  0.10230957523E+03  0.10230957523E+03  0.00000000000E+00 0. -1.
          2   -1    0    0  501    0  0.00000000000E+00 -0.00000000000E+00 -0.12244863980E+03  0.12244863980E+03  0.00000000000E+00 0.  1.
         25    2    1    2    0    0  0.25877570023E+01 -0.16677402963E+02  0.13227686031E+02  0.12691813108E+03  0.12509359721E+03 0.  0.
          5    1    3    3  502    0 -0.45985178228E+02  0.25489161971E+02 -0.17420012087E+02  0.55545145744E+02  0.41800000000E+01 0.  1.
         -5    1    3    3    0  502  0.48572935230E+02 -0.42166564933E+02  0.30647698118E+02  0.71372985331E+02  0.41800000000E+01 0.  1.
        -11    1    1    2    0    0 -0.71460100824E+01  0.47954828971E+02 -0.42991129341E+02  0.64799446632E+02  0.00000000000E+00 0.  1.
         11    1    1    2    0    0  0.45582530801E+01 -0.31277426008E+02  0.96243787429E+01  0.33040637328E+02  0.00000000000E+00 0. -1.
</event>
<event>
 7    1  0.2380582E-009  0.1195985E+03  0.7561462E-02  0.1243761E+00
          2   -1    0    0  501    0  0.00000000000E+00  0.00000000000E+00  0.70240239719E+03  0.70240239719E+03  0.00000000000E+00 0. -1.
         -2   -1    0    0    0  501 -0.00000000000E+00 -0.00000000000E+00 -0.26178416339E+02  0.26178416339E+02  0.00000000000E+00 0.  1.
         25    2    1    2    0    0  0.65849969406E+02 -0.14279769162E+01  0.50313481413E+03  0.52261877940E+03  0.12508992689E+03 0.  0.
          5    1    3    3  502    0  0.57341121615E+01 -0.52867564327E+02  0.11915154676E+03  0.13054663111E+03  0.41800000000E+01 0.  1.
         -5    1    3    3    0  502  0.60115857244E+02  0.51439587410E+02  0.38398326737E+03  0.39207214829E+03  0.41800000000E+01 0.  1.
        -11    1    1    2    0    0 -0.29539148437E+02 -0.41157674971E+02  0.11306250871E+03  0.12389368981E+03  0.00000000000E+00 0. -1.
         11    1    1    2    0    0 -0.36310820969E+02  0.42585651887E+02  0.60026658013E+02  0.82068344313E+02  0.00000000000E+00 0.  1.
</event>
<event>
 7    1  0.2380582E-009  0.1110818E+03  0.7561462E-02  0.1258580E+00
         -2   -1    0    0    0  501 -0.00000000000E+00  0.00000000000E+00  0.10132735586E+04  0.10132735586E+04  0.00000000000E+00 0.  1.
          2   -1    0    0  501    0  0.00000000000E+00 -0.00000000000E+00 -0.18420953832E+02  0.18420953832E+02  0.00000000000E+00 0. -1.
         25    2    1    2    0    0 -0.27416545339E+02  0.68116679049E+02  0.43936891770E+03  0.46269197782E+03  0.12508905457E+03 0.  0.
          5    1    3    3  502    0  0.11795192496E+02 -0.73124288779E+01  0.29312003865E+03  0.29347815530E+03  0.41800000000E+01 0.  1.
         -5    1    3    3    0  502 -0.39211737835E+02  0.75429107927E+02  0.14624887905E+03  0.16921382252E+03  0.41800000000E+01 0.  1.
        -11    1    1    2    0    0 -0.37057553953E+02 -0.20041054142E+02  0.22159434494E+03  0.22556364926E+03  0.00000000000E+00 0.  1.
         11    1    1    2    0    0  0.64474099292E+02 -0.48075624907E+02  0.33388934213E+03  0.34343888536E+03  0.00000000000E+00 0. -1.
</event>
<event>
 7    1  0.2380582E-009  0.1160898E+03  0.7561462E-02  0.1249691E+00
          1   -1    0    0  501    0  0.00000000000E+00  0.00000000000E+00  0.43596715697E+02  0.43596715697E+02  0.00000000000E+00 0. -1.
         -1   -1    0    0    0  501 -0.00000000000E+00 -0.00000000000E+00 -0.37965409783E+03  0.37965409783E+03  0.00000000000E+00 0.  1.
         25    2    1    2    0    0  0.73965865679E+02  0.14632793062E+02 -0.18542277979E+03  0.23604028519E+03  0.12509332935E+03 0.  0.
          5    1    3    3  502    0  0.91914742738E+02 -0.27782780005E+02 -0.14837404480E+03  0.17678385777E+03  0.41800000000E+01 0. -1.
         -5    1    3    3    0  502 -0.17948877059E+02  0.42415573067E+02 -0.37048734990E+02  0.59256427421E+02  0.41800000000E+01 0. -1.
        -11    1    1    2    0    0 -0.13048477629E+02 -0.24835546088E+02 -0.43100056710E+01  0.28383855742E+02  0.00000000000E+00 0. -1.
         11    1    1    2    0    0 -0.60917388050E+02  0.10202753026E+02 -0.14632459667E+03  0.15882667259E+03  0.00000000000E+00 0.  1.
</event>
<event>
 7    1  0.2380582E-009  0.1366869E+03  0.7561462E-02  0.1217858E+00
         -1   -1    0    0    0  501 -0.00000000000E+00  0.00000000000E+00  0.27877793879E+02  0.27877793879E+02  0.00000000000E+00 0.  1.
          1   -1    0    0  501    0  0.00000000000E+00 -0.00000000000E+00 -0.94156483389E+03  0.94156483389E+03  0.00000000000E+00 0. -1.
         25    2    1    2    0    0  0.86203226436E+02  0.77176547830E+02 -0.37483113048E+03  0.41174444195E+03  0.12509153975E+03 0.  0.
          5    1    3    3  502    0  0.10920603856E+03  0.52550337662E+02 -0.20195395607E+03  0.23556393955E+03  0.41800000000E+01 0.  1.
         -5    1    3    3    0  502 -0.23002812120E+02  0.24626210169E+02 -0.17287717441E+03  0.17618050240E+03  0.41800000000E+01 0.  1.
        -11    1    1    2    0    0 -0.74345763979E+02 -0.75869718263E+02 -0.53457113470E+03  0.54502275625E+03  0.00000000000E+00 0. -1.
         11    1    1    2    0    0 -0.11857462457E+02 -0.13068295675E+01 -0.42847748250E+01  0.12675429568E+02  0.00000000000E+00 0.  1.
</event>
<event>
 7    1  0.2380582E-009  0.1678384E+03  0.7561462E-02  0.1180121E+00
          1   -1    0    0  501    0  0.00000000000E+00  0.00000000000E+00  0.13096678226E+04  0.13096678226E+04  0.00000000000E+00 0. -1.
         -1   -1    0    0    0  501 -0.00000000000E+00 -0.00000000000E+00 -0.23070733434E+02  0.23070733434E+02  0.00000000000E+00 0.  1.
         25    2    1    2    0    0  0.10969035012E+03 -0.78141533753E+02  0.65347475796E+03  0.67883272511E+03  0.12508611907E+03 0.  0.
          5    1    3    3  502    0  0.11491480527E+03 -0.10513851673E+03  0.54322357598E+03  0.56512728307E+03  0.41800000000E+01 0.  1.
         -5    1    3    3    0  502 -0.52244551553E+01  0.26996982976E+02  0.11025118198E+03  0.11370544204E+03  0.41800000000E+01 0.  1.
        -11    1    1    2    0    0 -0.25734421550E+02  0.61218671218E+02  0.40153784773E+03  0.40699217353E+03  0.00000000000E+00 0. -1.
         11    1    1    2    0    0 -0.83955928569E+02  0.16922862535E+02  0.23158448347E+03  0.24691365738E+03  0.00000000000E+00 0.  1.
</event>
<event>
 7    1  0.2380582E-009  0.1148266E+03  0.7561462E-02  0.1251884E+00
          3   -1    0    0  501    0  0.00000000000E+00  0.00000000000E+00  0.15149470521E+02  0.15149470521E+02  0.00000000000E+00 0. -1.
         -3   -1    0    0    0  501 -0.00000000000E+00 -0.00000000000E+00 -0.89815147290E+03  0.89815147290E+03  0.00000000000E+00 0.  1.
         25    2    1    2    0    0  0.17195962739E+02  0.35535302417E+02 -0.56996229706E+03  0.58486182380E+03  0.12509146262E+03 0.  0.
          5    1    3    3  502    0 -0.53110069744E+02  0.28071007185E+02 -0.27497812034E+03  0.28149440495E+03  0.41800000000E+01 0. -1.
         -5    1    3    3    0  502  0.70306032483E+02  0.74642952320E+01 -0.29498417671E+03  0.30336741885E+03  0.41800000000E+01 0. -1.
        -11    1    1    2    0    0 -0.40467693893E+02 -0.54992323947E+02 -0.23476942297E+03  0.24449636378E+03  0.00000000000E+00 0.  1.
         11    1    1    2    0    0  0.23271731154E+02  0.19457021530E+02 -0.78270282356E+02  0.83942755839E+02  0.00000000000E+00 0. -1.
</event>
<event>
 7    1  0.2380582E-009  0.1406580E+03  0.7561462E-02  0.1212446E+00
         -3   -1    0    0    0  501 -0.00000000000E+00  0.00000000000E+00  0.39444236714E+03  0.39444236714E+03  0.00000000000E+00 0.  1.
          3   -1    0    0  501    0  0.00000000000E+00 -0.00000000000E+00 -0.53369768901E+02  0.53369768901E+02  0.00000000000E+00 0. -1.
         25    2    1    2    0    0 -0.18137115159E+02 -0.91482866619E+02  0.22151258434E+03  0.27094916049E+03  0.12509017835E+03 0.  0.
          5    1    3    3  502    0  0.35552332372E+02 -0.95290926632E+02  0.13731714803E+03  0.17093215198E+03  0.41800000000E+01 0.  1.
         -5    1    3    3    0  502 -0.53689447531E+02  0.38080600133E+01  0.84195436307E+02  0.10001700851E+03  0.41800000000E+01 0.  1.
        -11    1    1    2    0    0 -0.25300880377E+02  0.74871380304E+02  0.51139359931E+02  0.94133374903E+02  0.00000000000E+00 0.  1.
         11    1    1    2    0    0  0.43437995536E+02  0.16611486315E+02  0.68420653973E+02  0.82729600651E+02  0.00000000000E+00 0. -1.
</event>
<event>
 7    1  0.2380582E-009  0.1176640E+03  0.7561462E-02  0.1247001E+00
          2   -1    0    0  501    0  0.00000000000E+00  0.00000000000E+00  0.10418116049E+03  0.10418116049E+03  0.00000000000E+00 0.  1.
         -2   -1    0    0    0  501 -0.00000000000E+00 -0.00000000000E+00 -0.16920461714E+03  0.16920461714E+03  0.00000000000E+00 0. -1.
         25    2    1    2    0    0  0.69276995270E+02  0.62676457447E+01 -0.57247453311E+02  0.15415426621E+03  0.12509069279E+03 0.  0.
          5    1    3    3  502    0 -0.26877457126E+02 -0.24498497673E+02 -0.35093659500E+02  0.50711058231E+02  0.41800000000E+01 0.  1.
         -5    1    3    3    0  502  0.96154452396E+02  0.30766143418E+02 -0.22153793810E+02  0.10344320798E+03  0.41800000000E+01 0.  1.
        -11    1    1    2    0    0  0.12176905830E+02 -0.10550561676E+02 -0.30556164673E+02  0.34543748882E+02  0.00000000000E+00 0. -1.
         11    1    1    2    0    0 -0.81453901100E+02  0.42829159311E+01  0.22780161332E+02  0.84687762538E+02  0.00000000000E+00 0.  1.
</event>
<event>
 7    1  0.2380582E-009  0.1816161E+03  0.7561462E-02  0.1166248E+00
         -1   -1    0    0    0  501 -0.00000000000E+00  0.00000000000E+00  0.28627817998E+02  0.28627817998E+02  0.00000000000E+00 0.  1.
          1   -1    0    0  501    0  0.00000000000E+00 -0.00000000000E+00 -0.12191913505E+04  0.12191913505E+04  0.00000000000E+00 0. -1.
         25    2    1    2    0    0  0.15163525088E+03 -0.21125936604E+02 -0.64632911329E+03  0.67589088889E+03  0.12509043329E+03 0.  0.
          5    1    3    3  502    0  0.16013280880E+03  0.52988520584E+01 -0.45263667742E+03  0.48017499772E+03  0.41800000000E+01 0.  1.
         -5    1    3    3    0  502 -0.84975579245E+01 -0.26424788663E+02 -0.19369243587E+03  0.19571589118E+03  0.41800000000E+01 0.  1.
        -11    1    1    2    0    0 -0.16077953407E+03  0.10870549182E+02 -0.51505448417E+03  0.53967522555E+03  0.00000000000E+00 0.  1.
         11    1    1    2    0    0  0.91442831925E+01  0.10255387423E+02 -0.29179935088E+02  0.32253054089E+02  0.00000000000E+00 0. -1.
</event>
<event>
 7    1  0.2380582E-009  0.6451667E+02  0.7561462E-02  0.1379799E+00
         -1   -1    0    0    0  501 -0.00000000000E+00  0.00000000000E+00  0.45100380300E+02  0.45100380300E+02  0.00000000000E+00 0.  1.
          1   -1    0    0  501    0  0.00000000000E+00 -0.00000000000E+00 -0.31013934408E+03  0.31013934408E+03  0.00000000000E+00 0. -1.
         25    2    1    2    0    0  0.13153680835E+02 -0.22777736690E+02 -0.98114896766E+02  0.16114431415E+03  0.12509641245E+03 0.  0.
          5    1    3    3  502    0  0.14058494666E+02 -0.13848406168E+02 -0.12804243842E+03  0.12962159566E+03  0.41800000000E+01 0.  1.
         -5    1    3    3    0  502 -0.90481383140E+00 -0.89293305222E+01  0.29927541654E+02  0.31522718491E+02  0.41800000000E+01 0.  1.
        -11    1    1    2    0    0 -0.44342528304E+02  0.43017949632E+02 -0.10036734484E+03  0.11785757386E+03  0.00000000000E+00 0.  1.
         11    1    1    2    0    0  0.31188847470E+02 -0.20240212942E+02 -0.66556722172E+02  0.76237836359E+02  0.00000000000E+00 0. -1.
</event>
<event>
 7    1  0.2380582E-009  0.1076780E+03  0.7561462E-02  0.1264931E+00
         -1   -1    0    0    0  501 -0.00000000000E+00  0.00000000000E+00  0.21510545967E+02  0.21510545967E+02  0.00000000000E+00 0.  1.
          1   -1    0    0  501    0  0.00000000000E+00 -0.00000000000E+00 -0.61860736227E+03  0.61860736227E+03  0.00000000000E+00 0. -1.
         25    2    1    2    0    0 -0.64239323744E+01  0.38348345838E+02 -0.26203081934E+03  0.29294733500E+03  0.12508448451E+03 0.  0.
          5    1    3    3  502    0  0.57949201586E+02  0.19491529718E+02 -0.15364154667E+03  0.16541229386E+03  0.41800000000E+01 0.  1.
         -5    1    3    3    0  502 -0.64373133960E+02  0.18856816120E+02 -0.10838927267E+03  0.12753504115E+03  0.41800000000E+01 0.  1.
        -11    1    1    2    0    0 -0.26564917672E+02  0.99577364558E+01 -0.66338208020E+02  0.72149907897E+02  0.00000000000E+00 0.  1.
         11    1    1    2    0    0  0.32988850047E+02 -0.48306082293E+02 -0.26872778894E+03  0.27502066534E+03  0.00000000000E+00 0. -1.
</event>
<event>
 7    1  0.2380582E-009  0.7761662E+02  0.7561462E-02  0.1335954E+00
         -1   -1    0    0    0  501 -0.00000000000E+00  0.00000000000E+00  0.62544465376E+03  0.62544465376E+03  0.00000000000E+00 0.  1.
          1   -1    0    0  501    0  0.00000000000E+00 -0.00000000000E+00 -0.29490328695E+02  0.29490328695E+02  0.00000000000E+00 0. -1.
         25    2    1    2    0    0  0.56182442951E+02  0.48807427317E+02  0.39238037785E+03  0.41850799979E+03  0.12509177874E+03 0.  0.
          5    1    3    3  502    0  0.17122737014E+02  0.16769535264E+01  0.33184392176E+03  0.33231590558E+03  0.41800000000E+01 0. -1.
         -5    1    3    3    0  502  0.39059705937E+02  0.47130473790E+02  0.60536456094E+02  0.86192094208E+02  0.41800000000E+01 0. -1.
        -11    1    1    2    0    0 -0.31632901221E+02 -0.16744918940E+02  0.19071922125E+03  0.19404858696E+03  0.00000000000E+00 0.  1.
         11    1    1    2    0    0 -0.24549541730E+02 -0.32062508377E+02  0.12854725972E+02  0.42378395703E+02  0.00000000000E+00 0. -1.
</event>
<event>
 7    1  0.2380582E-009  0.1001271E+03  0.7561462E-02  0.1280029E+00
         -2   -1    0    0    0  501 -0.00000000000E+00  0.00000000000E+00  0.23621769878E+02  0.23621769878E+02  0.00000000000E+00 0.  1.
          2   -1    0    0  501    0  0.00000000000E+00 -0.00000000000E+00 -0.53320123057E+03  0.53320123057E+03  0.00000000000E+00 0. -1.
         25    2    1    2    0    0  0.23517649981E+01 -0.17682785879E+02 -0.23569022318E+03  0.26742414636E+03  0.12509029155E+03 0.  0.
          5    1    3    3  502    0  0.57637076888E+02 -0.11396808381E+02 -0.17654834749E+03  0.18611477984E+03  0.41800000000E+01 0. -1.
         -5    1    3    3    0  502 -0.55285311890E+02 -0.62859774988E+01 -0.59141875686E+02  0.81309366518E+02  0.41800000000E+01 0. -1.
        -11    1    1    2    0    0  0.18754137294E+02  0.46324156724E+02 -0.98677704717E+02  0.11061163849E+03  0.00000000000E+00 0.  1.
         11    1    1    2    0    0 -0.21105902292E+02 -0.28641370845E+02 -0.17521153280E+03  0.17878721560E+03  0.00000000000E+00 0. -1.
</event>
<event>
 7    1  0.2380582E-009  0.1296607E+03  0.7561462E-02  0.1227960E+00
          2   -1    0    0  501    0  0.00000000000E+00  0.00000000000E+00  0.73134063200E+03  0.73134063200E+03  0.00000000000E+00 0. -1.
         -2   -1    0    0    0  501 -0.00000000000E+00 -0.00000000000E+00 -0.37427621410E+02  0.37427621410E+02  0.00000000000E+00 0.  1.
         25    2    1    2    0    0 -0.88797199643E+02  0.26711088398E+02  0.56758887537E+03  0.58856028899E+03  0.12509059687E+03 0.  0.
          5    1    3    3  502    0 -0.11255489127E+03  0.78553820255E+01  0.51892497374E+03  0.53106582581E+03  0.41800000000E+01 0. -1.
         -5    1    3    3    0  502  0.23757691628E+02  0.18855706373E+02  0.48663901631E+02  0.57494463179E+02  0.41800000000E+01 0. -1.
        -11    1    1    2    0    0  0.89873257779E+02 -0.81272551694E+00  0.57580394171E+02  0.10673970573E+03  0.00000000000E+00 0. -1.
         11    1    1    2    0    0 -0.10760581366E+01 -0.25898362881E+02  0.68743741050E+02  0.73468258687E+02  0.00000000000E+00 0.  1.
</event>
<event>
 7    1  0.2380582E-009  0.1331692E+03  0.7561462E-02  0.1222828E+00
         -2   -1    0    0    0  501 -0.00000000000E+00  0.00000000000E+00  0.47209018477E+02  0.47209018477E+02  0.00000000000E+00 0.  1.
          2   -1    0    0  501    0  0.00000000000E+00 -0.00000000000E+00 -0.46172268490E+03  0.46172268490E+03  0.00000000000E+00 0. -1.
         25    2    1    2    0    0  0.44303945584E+02  0.86713240147E+02 -0.19471628663E+03  0.25108588039E+03  0.12509061291E+03 0.  0.
          5    1    3    3  502    0  0.35079992630E+02  0.10612060866E+03 -0.88466003724E+02  0.14260398200E+03  0.41800000000E+01 0.  1.
         -5    1    3    3    0  502  0.92239529536E+01 -0.19407368516E+02 -0.10625028291E+03  0.10848189839E+03  0.41800000000E+01 0.  1.
        -11    1    1    2    0    0 -0.60229476007E+02 -0.19171249468E+02 -0.12815255084E+03  0.14289227717E+03  0.00000000000E+00 0. -1.
         11    1    1    2    0    0  0.15925530423E+02 -0.67541990679E+02 -0.91644828949E+02  0.11495354582E+03  0.00000000000E+00 0.  1.
</event>
<event>
 7    1  0.2380582E-009  0.1305630E+03  0.7561462E-02  0.1226623E+00
         -1   -1    0    0    0  501 -0.00000000000E+00  0.00000000000E+00  0.53506310064E+02  0.53506310064E+02  0.00000000000E+00 0. -1.
          1   -1    0    0  501    0  0.00000000000E+00 -0.00000000000E+00 -0.47680159254E+03  0.47680159254E+03  0.00000000000E+00 0.  1.
         25    2    1    2    0    0  0.87056892532E+02 -0.19757331255E+02 -0.34991372594E+03  0.38217123830E+03  0.12508391227E+03 0.  0.
          5    1    3    3  502    0 -0.20301076291E+02 -0.16818106049E+02 -0.17390135976E+03  0.17593788027E+03  0.41800000000E+01 0.  1.
         -5    1    3    3    0  502  0.10735796882E+03 -0.29392252061E+01 -0.17601236619E+03  0.20623335803E+03  0.41800000000E+01 0.  1.
        -11    1    1    2    0    0 -0.10616548568E+03  0.14618923918E+02 -0.70154671187E+02  0.12808786506E+03  0.00000000000E+00 0. -1.
         11    1    1    2    0    0  0.19108593148E+02  0.51384073371E+01 -0.32268853492E+01  0.20048799244E+02  0.00000000000E+00 0.  1.
</event>
<event>
 7    1  0.2380582E-009  0.1130004E+03  0.7561462E-02  0.1255112E+00
         -2   -1    0    0    0  501 -0.00000000000E+00  0.00000000000E+00  0.16496874453E+02  0.16496874453E+02  0.00000000000E+00 0.  1.
          2   -1    0    0  501    0  0.00000000000E+00 -0.00000000000E+00 -0.10174831870E+04  0.10174831870E+04  0.00000000000E+00 0. -1.
         25    2    1    2    0    0  0.34835647648E+02 -0.60905729570E+02 -0.51141349934E+03  0.53114481704E+03  0.12509204262E+03 0.  0.
          5    1    3    3  502    0  0.29923771249E+02  0.17389214691E+02 -0.39274404017E+02  0.52514455955E+02  0.41800000000E+01 0.  1.
         -5    1    3    3    0  502  0.49118763989E+01 -0.78294944261E+02 -0.47213909532E+03  0.47863036109E+03  0.41800000000E+01 0.  1.
        -11    1    1    2    0    0 -0.12645440010E+01  0.75830159190E+02 -0.37214885472E+03  0.37979808081E+03  0.00000000000E+00 0. -1.
         11    1    1    2    0    0 -0.33571103647E+02 -0.14924429620E+02 -0.11742395846E+03  0.12303716358E+03  0.00000000000E+00 0.  1.
</event>
<event>
 7    1  0.2380582E-009  0.1090701E+03  0.7561462E-02  0.1262302E+00
         -2   -1    0    0    0  501 -0.00000000000E+00  0.00000000000E+00  0.80905834252E+02  0.80905834252E+02  0.00000000000E+00 0.  1.
          2   -1    0    0  501    0  0.00000000000E+00 -0.00000000000E+00 -0.28174118233E+03  0.28174118233E+03  0.00000000000E+00 0. -1.
         25    2    1    2    0    0 -0.59784907575E+02 -0.25517318596E+02 -0.10218371251E+02  0.14134329908E+03  0.12509254319E+03 0.  0.
          5    1    3    3  502    0 -0.24928609595E+02  0.39101710154E+02  0.32047277487E+02  0.56523266958E+02  0.41800000000E+01 0. -1.
         -5    1    3    3    0  502 -0.34856297980E+02 -0.64619028750E+02 -0.42265648737E+02  0.84820032119E+02  0.41800000000E+01 0. -1.
        -11    1    1    2    0    0  0.11909526156E+02  0.44853510706E+02 -0.37342432411E+02  0.59566194223E+02  0.00000000000E+00 0.  1.
         11    1    1    2    0    0  0.47875381419E+02 -0.19336192109E+02 -0.15327454442E+03  0.16173752328E+03  0.00000000000E+00 0. -1.
</event>
<event>
 7    1  0.2380582E-009  0.8681023E+02  0.7561462E-02  0.1310765E+00
          4   -1    0    0  501    0  0.00000000000E+00  0.00000000000E+00  0.44838317529E+03  0.44838317529E+03  0.00000000000E+00 0. -1.
         -4   -1    0    0    0  501 -0.00000000000E+00 -0.00000000000E+00 -0.28812601670E+02  0.28812601670E+02  0.00000000000E+00 0.  1.
         25    2    1    2    0    0  0.73794241033E+01 -0.25277593376E+02  0.18587476894E+03  0.22558892707E+03  0.12509005421E+03 0.  0.
          5    1    3    3  502    0  0.52776949842E+02  0.85146246406E+01  0.34086355001E+02  0.63539415048E+02  0.41800000000E+01 0. -1.
         -5    1    3    3    0  502 -0.45397525739E+02 -0.33792218016E+02  0.15178841393E+03  0.16204951202E+03  0.41800000000E+01 0. -1.
        -11    1    1    2    0    0  0.24626877085E+02  0.43473223337E+01  0.14105602706E+02  0.28711501426E+02  0.00000000000E+00 0.  1.
         11    1    1    2    0    0 -0.32006301188E+02  0.20930271042E+02  0.21959020198E+03  0.22289534846E+03  0.00000000000E+00 0. -1.
</event>
<event>
 7    1  0.2380582E-009  0.1715424E+03  0.7561462E-02  0.1176249E+00
         -2   -1    0    0    0  501 -0.00000000000E+00  0.00000000000E+00  0.58225929104E+02  0.58225929104E+02  0.00000000000E+00 0.  1.
          2   -1    0    0  501    0  0.00000000000E+00 -0.00000000000E+00 -0.72358488981E+03  0.72358488981E+03  0.00000000000E+00 0. -1.
         25    2    1    2    0    0  0.89856803536E+02 -0.12150535902E+03 -0.16624292785E+03  0.25714010564E+03  0.12508607219E+03 0.  0.
          5    1    3    3  502    0  0.96341863183E+02 -0.34194037490E+02 -0.12113456198E+03  0.15856242086E+03  0.41800000000E+01 0.  1.
         -5    1    3    3    0  502 -0.64850596471E+01 -0.87311321527E+02 -0.45108365867E+02  0.98577684780E+02  0.41800000000E+01 0.  1.
        -11    1    1    2    0    0 -0.61826829325E+02  0.63135991129E+02 -0.36769253358E+03  0.37816201482E+03  0.00000000000E+00 0. -1.
         11    1    1    2    0    0 -0.28029974211E+02  0.58369367888E+02 -0.13142349927E+03  0.14650869846E+03  0.00000000000E+00 0.  1.
</event>
<event>
 7    1  0.2380582E-009  0.1026390E+03  0.7561462E-02  0.1274842E+00
          2   -1    0    0  501    0  0.00000000000E+00  0.00000000000E+00  0.12170136247E+03  0.12170136247E+03  0.00000000000E+00 0. -1.
         -2   -1    0    0    0  501 -0.00000000000E+00 -0.00000000000E+00 -0.97647551971E+02  0.97647551971E+02  0.00000000000E+00 0.  1.
         25    2    1    2    0    0 -0.23693905121E+01  0.20525646757E+02  0.29460699354E+02  0.13016256151E+03  0.12508974150E+03 0.  0.
          5    1    3    3  502    0  0.10579066711E+02 -0.46760243105E+02  0.37549323350E+02  0.61039831845E+02  0.41800000000E+01 0. -1.
         -5    1    3    3    0  502 -0.12948457223E+02  0.67285889861E+02 -0.80886239960E+01  0.69122729670E+02  0.41800000000E+01 0. -1.
        -11    1    1    2    0    0 -0.17015343490E+02  0.29944689354E+02 -0.67872525559E+01  0.35103748117E+02  0.00000000000E+00 0.  1.
         11    1    1    2    0    0  0.19384734002E+02 -0.50470336111E+02  0.13803637051E+01  0.54082604814E+02  0.00000000000E+00 0. -1.
</event>
<event>
 7    1  0.2380582E-009  0.2501487E+03  0.7561462E-02  0.1113211E+00
          1   -1    0    0  501    0  0.00000000000E+00  0.00000000000E+00  0.37641090366E+03  0.37641090366E+03  0.00000000000E+00 0. -1.
         -1   -1    0    0    0  501 -0.00000000000E+00 -0.00000000000E+00 -0.19518652119E+03  0.19518652119E+03  0.00000000000E+00 0.  1.
         25    2    1    2    0    0 -0.23611408709E+03  0.59713367363E+02  0.41593695327E+02  0.27693533351E+03  0.12509034773E+03 0.  0.
          5    1    3    3  502    0 -0.42720990756E+02  0.41195439338E+02  0.56491985657E+02  0.82042453138E+02  0.41800000000E+01 0. -1.
         -5    1    3    3    0  502 -0.19339309633E+03  0.18517928024E+02 -0.14898290330E+02  0.19489288038E+03  0.41800000000E+01 0. -1.
        -11    1    1    2    0    0  0.13155100755E+03 -0.13773239604E+02  0.12036562540E+03  0.17883862417E+03  0.00000000000E+00 0.  1.
         11    1    1    2    0    0  0.10456307954E+03 -0.45940127758E+02  0.19265061739E+02  0.11582346716E+03  0.00000000000E+00 0. -1.
</event>
<event>
 7    1  0.2380582E-009  0.1153208E+03  0.7561462E-02  0.1251022E+00
         -1   -1    0    0    0  501 -0.00000000000E+00  0.00000000000E+00  0.44039660302E+02  0.44039660302E+02  0.00000000000E+00 0.  1.
          1   -1    0    0  501    0  0.00000000000E+00 -0.00000000000E+00 -0.34571606814E+03  0.34571606814E+03  0.00000000000E+00 0. -1.
         25    2    1    2    0    0  0.39290382366E+02 -0.32569865044E+02 -0.12066967664E+03  0.18114419583E+03  0.12509004184E+03 0.  0.
          5    1    3    3  502    0  0.55037686411E+02  0.32453606825E+02 -0.81002315118E+02  0.10325323712E+03  0.41800000000E+01 0. -1.
         -5    1    3    3    0  502 -0.15747304045E+02 -0.65023471869E+02 -0.39667361523E+02  0.77890958710E+02  0.41800000000E+01 0. -1.
        -11    1    1    2    0    0 -0.20881830548E+02  0.61689270790E+02 -0.14404711898E+03  0.15808601919E+03  0.00000000000E+00 0. -1.
         11    1    1    2    0    0 -0.18408551818E+02 -0.29119405746E+02 -0.36959612215E+02  0.50525513417E+02  0.00000000000E+00 0.  1.
</event>
<event>
 7    1  0.2380582E-009  0.1450776E+03  0.7561462E-02  0.1206655E+00
         -2   -1    0    0    0  501 -0.00000000000E+00  0.00000000000E+00  0.61212062364E+03  0.61212062364E+03  0.00000000000E+00 0.  1.
          2   -1    0    0  501    0  0.00000000000E+00 -0.00000000000E+00 -0.49681318400E+02  0.49681318400E+02  0.00000000000E+00 0. -1.
         25    2    1    2    0    0  0.12040437909E+03 -0.13186670059E+01  0.41343517394E+03  0.44841373117E+03  0.12508907969E+03 0.  0.
          5    1    3    3  502    0  0.75900844165E+02 -0.56272189461E+02  0.30114113874E+03  0.31564371575E+03  0.41800000000E+01 0. -1.
         -5    1    3    3    0  502  0.44503534923E+02  0.54953522456E+02  0.11229403521E+03  0.13277001542E+03  0.41800000000E+01 0. -1.
        -11    1    1    2    0    0 -0.14101719986E+02 -0.10781286043E+02  0.88935708882E+02  0.90689883392E+02  0.00000000000E+00 0.  1.
         11    1    1    2    0    0 -0.10630265910E+03  0.12099953049E+02  0.60068422416E+02  0.12269832748E+03  0.00000000000E+00 0. -1.
</event>
<event>
 7    1  0.2380582E-009  0.9365643E+02  0.7561462E-02  0.1294231E+00
         -2   -1    0    0    0  501 -0.00000000000E+00  0.00000000000E+00  0.42787091367E+03  0.42787091367E+03  0.00000000000E+00 0.  1.
          2   -1    0    0  501    0  0.00000000000E+00 -0.00000000000E+00 -0.30862117110E+02  0.30862117110E+02  0.00000000000E+00 0. -1.
         25    2    1    2    0    0  0.14096751280E+02  0.18448883608E+02  0.26642655638E+03  0.29524571100E+03  0.12509132749E+03 0.  0.
          5    1    3    3  502    0  0.16368433821E+02  0.52980706839E+02  0.46254668618E+02  0.72331512440E+02  0.41800000000E+01 0.  1.
         -5    1    3    3    0  502 -0.22716825413E+01 -0.34531823231E+02  0.22017188776E+03  0.22291419856E+03  0.41800000000E+01 0.  1.
        -11    1    1    2    0    0 -0.54578161078E+02 -0.98034461387E+01  0.88657109753E+02  0.10457038937E+03  0.00000000000E+00 0.  1.
         11    1    1    2    0    0  0.40481409798E+02 -0.86454374691E+01  0.41925130427E+02  0.58916930416E+02  0.00000000000E+00 0. -1.
</event>
<event>
 7    1  0.2380582E-009  0.9468390E+02  0.7561462E-02  0.1291890E+00
          2   -1    0    0  501    0  0.00000000000E+00  0.00000000000E+00  0.62184099883E+03  0.62184099883E+03  0.00000000000E+00 0.  1.
         -2   -1    0    0    0  501 -0.00000000000E+00 -0.00000000000E+00 -0.22518302338E+02  0.22518302338E+02  0.00000000000E+00 0. -1.
         25    2    1    2    0    0 -0.24593710544E+02  0.34141731292E+02  0.40788258249E+03  0.42870281901E+03  0.12508955798E+03 0.  0.
          5    1    3    3  502    0 -0.42082641412E+02  0.51115081636E+02  0.10108577800E+03  0.12091115413E+03  0.41800000000E+01 0. -1.
         -5    1    3    3    0  502  0.17488930868E+02 -0.16973350344E+02  0.30679680450E+03  0.30779166489E+03  0.41800000000E+01 0. -1.
        -11    1    1    2    0    0  0.19315388378E+02  0.29051219806E+02  0.53943723044E+02  0.64241597554E+02  0.00000000000E+00 0. -1.
         11    1    1    2    0    0  0.52783221660E+01 -0.63192951097E+02  0.13749639096E+03  0.15141488460E+03  0.00000000000E+00 0.  1.
</event>
<event>
 7    1  0.2380582E-009  0.1011931E+03  0.7561462E-02  0.1277807E+00
         -1   -1    0    0    0  501 -0.00000000000E+00  0.00000000000E+00  0.11881101196E+04  0.11881101196E+04  0.00000000000E+00 0.  1.
          1   -1    0    0  501    0  0.00000000000E+00 -0.00000000000E+00 -0.10030807325E+02  0.10030807325E+02  0.00000000000E+00 0. -1.
         25    2    1    2    0    0  0.18487510217E+02 -0.24660462056E+01  0.73301521973E+03  0.74384778537E+03  0.12510134308E+03 0.  0.
          5    1    3    3  502    0  0.14137124943E+02  0.53243540736E+02  0.18771660954E+03  0.19567761964E+03  0.41800000000E+01 0. -1.
         -5    1    3    3    0  502  0.43503852743E+01 -0.55709586941E+02  0.54529861018E+03  0.54817016573E+03  0.41800000000E+01 0. -1.
        -11    1    1    2    0    0 -0.45587364054E+02 -0.25439629066E+02  0.25625501046E+03  0.26151866640E+03  0.00000000000E+00 0. -1.
         11    1    1    2    0    0  0.27099853837E+02  0.27905675272E+02  0.18880908205E+03  0.19277447511E+03  0.00000000000E+00 0.  1.
</event>
<event>
 7    1  0.2380582E-009  0.9756622E+02  0.7561462E-02  0.1285499E+00
         -2   -1    0    0    0  501 -0.00000000000E+00  0.00000000000E+00  0.75099318666E+02  0.75099318666E+02  0.00000000000E+00 0.  1.
          2   -1    0    0  501    0  0.00000000000E+00 -0.00000000000E+00 -0.16054455731E+03  0.16054455731E+03  0.00000000000E+00 0. -1.
         25    2    1    2    0    0 -0.20737746292E+01  0.36871168444E+01 -0.71713453050E+02  0.14425207201E+03  0.12509174856E+03 0.  0.
          5    1    3    3  502    0  0.16646180106E+02  0.58130768800E+02 -0.13148112161E+02  0.62021180631E+02  0.41800000000E+01 0.  1.
         -5    1    3    3    0  502 -0.18719954735E+02 -0.54443651956E+02 -0.58565340889E+02  0.82230891379E+02  0.41800000000E+01 0.  1.
        -11    1    1    2    0    0 -0.37189991186E+02 -0.49209211296E+01 -0.30821989513E+02  0.48552095184E+02  0.00000000000E+00 0. -1.
         11    1    1    2    0    0  0.39263765815E+02  0.12338042852E+01  0.17090203915E+02  0.42839708786E+02  0.00000000000E+00 0.  1.
</event>
<event>
 7    1  0.3075530E-009  0.1181595E+03  0.7561462E-02  0.1246164E+00
         -1   -1    0    0    0  501 -0.00000000000E+00  0.00000000000E+00  0.12438181174E+02  0.12438181174E+02  0.00000000000E+00 0.  1.
          1   -1    0    0  501    0  0.00000000000E+00 -0.00000000000E+00 -0.16392283876E+04  0.16392283876E+04  0.00000000000E+00 0. -1.
         25    2    1    2    0    0 -0.13708708890E+02  0.85194433119E+02 -0.10706006944E+04  0.10813322040E+04  0.12508984108E+03 0.  0.
          5    1    3    3  502    0 -0.36084401537E+02 -0.23309460085E+01 -0.65475952255E+03  0.65577055600E+03  0.41800000000E+01 0.  1.
         -5    1    3    3    0  502  0.22375692647E+02  0.87525379128E+02 -0.41584117186E+03  0.42556164798E+03  0.41800000000E+01 0.  1.
        -11    1    1    2    0    0 -0.21053163087E+02 -0.43741501951E+01 -0.30406524629E+02  0.37241450105E+02  0.00000000000E+00 0.  1.
         11    1    1    2    0    0  0.34761871977E+02 -0.80820282924E+02 -0.52578298739E+03  0.53309291470E+03  0.00000000000E+00 0. -1.
</event>
<event>
 7    1  0.2380582E-009  0.1005276E+03  0.7561462E-02  0.1279190E+00
         -2   -1    0    0    0  501 -0.00000000000E+00  0.00000000000E+00  0.20400955287E+02  0.20400955287E+02  0.00000000000E+00 0.  1.
          2   -1    0    0  501    0  0.00000000000E+00 -0.00000000000E+00 -0.91888099531E+03  0.91888099531E+03  0.00000000000E+00 0. -1.
         25    2    1    2    0    0  0.75440595789E+02 -0.27164112022E+02 -0.41428000184E+03  0.44011945308E+03  0.12509212837E+03 0.  0.
          5    1    3    3  502    0  0.54496492717E+02 -0.14264849638E+02 -0.51369094095E+02  0.76351881979E+02  0.41800000000E+01 0.  1.
         -5    1    3    3    0  502  0.20944103072E+02 -0.12899262385E+02 -0.36291090775E+03  0.36376757110E+03  0.41800000000E+01 0.  1.
        -11    1    1    2    0    0 -0.50814989782E+02  0.59965873190E+02 -0.27669450706E+03  0.28764199862E+03  0.00000000000E+00 0.  1.
         11    1    1    2    0    0 -0.24625606007E+02 -0.32801761167E+02 -0.20750553112E+03  0.21152049889E+03  0.00000000000E+00 0. -1.
</event>
<event>
 7    1  0.2380582E-009  0.1141651E+03  0.7561462E-02  0.1253045E+00
          2   -1    0    0  501    0  0.00000000000E+00  0.00000000000E+00  0.25647286724E+03  0.25647286724E+03  0.00000000000E+00 0. -1.
         -2   -1    0    0    0  501 -0.00000000000E+00 -0.00000000000E+00 -0.86802021009E+02  0.86802021009E+02  0.00000000000E+00 0.  1.
         25    2    1    2    0    0  0.98653686450E+02  0.17482516986E+02  0.64034601884E+02  0.17258621570E+03  0.12508950140E+03 0.  0.
          5    1    3    3  502    0 -0.11213544669E+02  0.90023024559E+01  0.60425921474E+02  0.62253910877E+02  0.41800000000E+01 0. -1.
         -5    1    3    3    0  502  0.10986723112E+03  0.84802145305E+01  0.36086804102E+01  0.11033230482E+03  0.41800000000E+01 0. -1.
        -11    1    1    2    0    0 -0.42460727808E+02  0.45923371227E+01 -0.66285974787E+01  0.43219686148E+02  0.00000000000E+00 0.  1.
         11    1    1    2    0    0 -0.56192958642E+02 -0.22074854109E+02  0.11226484183E+03  0.12746898640E+03  0.00000000000E+00 0. -1.
</event>
<event>
 7    1  0.2380582E-009  0.1131460E+03  0.7561462E-02  0.1254852E+00
          3   -1    0    0  501    0  0.00000000000E+00  0.00000000000E+00  0.36683424420E+03  0.36683424420E+03  0.00000000000E+00 0. -1.
         -3   -1    0    0    0  501 -0.00000000000E+00 -0.00000000000E+00 -0.56516540398E+02  0.56516540398E+02  0.00000000000E+00 0.  1.
         25    2    1    2    0    0  0.61493802683E+02  0.25781890424E+02  0.70827590136E+02  0.15846129952E+03  0.12508893747E+03 0.  0.
          5    1    3    3  502    0  0.97421075313E+02  0.26678093888E+02  0.33558385048E+02  0.10651865666E+03  0.41800000000E+01 0.  1.
         -5    1    3    3    0  502 -0.35927272631E+02 -0.89620346425E+00  0.37269205088E+02  0.51942642859E+02  0.41800000000E+01 0.  1.
        -11    1    1    2    0    0 -0.12425813644E+02  0.18922821431E+02  0.79039698171E+01  0.23978047345E+02  0.00000000000E+00 0.  1.
         11    1    1    2    0    0 -0.49067989039E+02 -0.44704711855E+02  0.23158614385E+03  0.24091143774E+03  0.00000000000E+00 0. -1.
</event>
<event>
 7    1  0.2380582E-009  0.2016993E+03  0.7561462E-02  0.1148313E+00
         -1   -1    0    0    0  501 -0.00000000000E+00  0.00000000000E+00  0.17989958683E+03  0.17989958683E+03  0.00000000000E+00 0.  1.
          1   -1    0    0  501    0  0.00000000000E+00 -0.00000000000E+00 -0.24167246164E+03  0.24167246164E+03  0.00000000000E+00 0. -1.
         25    2    1    2    0    0 -0.76078216327E+01  0.17697232156E+03 -0.18235299624E+02  0.21761610069E+03  0.12508860691E+03 0.  0.
          5    1    3    3  502    0  0.18240168487E+02 -0.14288537134E+02  0.13324912092E+01  0.23582068880E+02  0.41800000000E+01 0. -1.
         -5    1    3    3    0  502 -0.25847990119E+02  0.19126085870E+03 -0.19567790834E+02  0.19403403181E+03  0.41800000000E+01 0. -1.
        -11    1    1    2    0    0  0.30513322267E+02 -0.56835313744E+02  0.18101673690E+02  0.66999897869E+02  0.00000000000E+00 0.  1.
         11    1    1    2    0    0 -0.22905500634E+02 -0.12013700782E+03 -0.61639248870E+02  0.13695604991E+03  0.00000000000E+00 0. -1.
</event>
<event>
 7    1  0.2380582E-009  0.1166865E+03  0.7561462E-02  0.1248665E+00
          1   -1    0    0  501    0  0.00000000000E+00  0.00000000000E+00  0.56615200203E+03  0.56615200203E+03  0.00000000000E+00 0. -1.
         -1   -1    0    0    0  501 -0.00000000000E+00 -0.00000000000E+00 -0.25931460431E+02  0.25931460431E+02  0.00000000000E+00 0.  1.
         25    2    1    2    0    0 -0.49850591484E+02  0.37949056979E+01  0.25682005507E+03  0.29000613386E+03  0.12509010437E+03 0.  0.
          5    1    3    3  502    0  0.31561453530E+02  0.34012975752E+02  0.10857540645E+03  0.11814863162E+03  0.41800000000E+01 0.  1.
         -5    1    3    3    0  502 -0.81412045014E+02 -0.30218070054E+02  0.14824464862E+03  0.17185750224E+03  0.41800000000E+01 0.  1.
        -11    1    1    2    0    0 -0.24941242401E+02  0.26975662057E+00  0.37625726356E+02  0.45142370617E+02  0.00000000000E+00 0.  1.
         11    1    1    2    0    0  0.74791833885E+02 -0.40646623185E+01  0.24577476017E+03  0.25693495798E+03  0.00000000000E+00 0. -1.
</event>
<event>
 7    1  0.2380582E-009  0.1486485E+03  0.7561462E-02  0.1202144E+00
          2   -1    0    0  501    0  0.00000000000E+00  0.00000000000E+00  0.66169016402E+02  0.66169016402E+02  0.00000000000E+00 0. -1.
         -2   -1    0    0    0  501 -0.00000000000E+00 -0.00000000000E+00 -0.46302634266E+03  0.46302634266E+03  0.00000000000E+00 0.  1.
         25    2    1    2    0    0  0.11346720239E+03 -0.50146215247E+02 -0.12256132582E+03  0.21461193938E+03  0.12509019552E+03 0.  0.
          5    1    3    3  502    0  0.12813492874E+03 -0.20657530084E+02 -0.58429836196E+02  0.14239667015E+03  0.41800000000E+01 0.  1.
         -5    1    3    3    0  502 -0.14667726344E+02 -0.29488685164E+02 -0.64131489620E+02  0.72215269228E+02  0.41800000000E+01 0.  1.
        -11    1    1    2    0    0 -0.25638288168E+02 -0.10291281892E+02 -0.96402738192E+01  0.29260334627E+02  0.00000000000E+00 0. -1.
         11    1    1    2    0    0 -0.87828914224E+02  0.60437497139E+02 -0.26465572662E+03  0.28532308506E+03  0.00000000000E+00 0.  1.
</event>
<event>
 7    1  0.2442984E-009  0.9371986E+02  0.7561462E-02  0.1294086E+00
          1   -1    0    0  501    0  0.00000000000E+00  0.00000000000E+00  0.29782262438E+03  0.29782262438E+03  0.00000000000E+00 0. -1.
         -1   -1    0    0    0  501 -0.00000000000E+00 -0.00000000000E+00 -0.48462722634E+02  0.48462722634E+02  0.00000000000E+00 0.  1.
         25    2    1    2    0    0  0.30654888473E+02  0.17257785890E+02  0.19309113639E+03  0.23274310117E+03  0.12509041063E+03 0.  0.
          5    1    3    3  502    0  0.41155926677E+02  0.64162865812E+02  0.84284530232E+02  0.11371911926E+03  0.41800000000E+01 0. -1.
         -5    1    3    3    0  502 -0.10501038203E+02 -0.46905079923E+02  0.10880660616E+03  0.11902398191E+03  0.41800000000E+01 0. -1.
        -11    1    1    2    0    0 -0.45087628054E+02 -0.17630831488E+02 -0.67592687104E+01  0.48881777136E+02  0.00000000000E+00 0.  1.
         11    1    1    2    0    0  0.14432739580E+02  0.37304559866E+00  0.63028034070E+02  0.64660468708E+02  0.00000000000E+00 0. -1.
</event>
<event>
 7    1  0.2380582E-009  0.1308157E+03  0.7561462E-02  0.1226250E+00
         -1   -1    0    0    0  501 -0.00000000000E+00  0.00000000000E+00  0.49127282651E+02  0.49127282651E+02  0.00000000000E+00 0.  1.
          1   -1    0    0  501    0  0.00000000000E+00 -0.00000000000E+00 -0.49226435537E+03  0.49226435537E+03  0.00000000000E+00 0. -1.
         25    2    1    2    0    0 -0.19655766275E+01 -0.10135549444E+03 -0.31630008751E+03  0.35492103265E+03  0.12508554799E+03 0.  0.
          5    1    3    3  502    0 -0.25670853625E+02  0.22310753187E+02 -0.82564041447E+02  0.89392705372E+02  0.41800000000E+01 0.  1.
         -5    1    3    3    0  502  0.23705276997E+02 -0.12366624762E+03 -0.23373604607E+03  0.26552832728E+03  0.41800000000E+01 0.  1.
        -11    1    1    2    0    0  0.13489383773E+01  0.51112152908E+02 -0.11842586733E+01  0.51143663129E+02  0.00000000000E+00 0.  1.
         11    1    1    2    0    0  0.61663825027E+00  0.50243341528E+02 -0.12565272653E+03  0.13532694224E+03  0.00000000000E+00 0. -1.
</event>
<event>
 7    1  0.2380582E-009  0.1142560E+03  0.7561462E-02  0.1252885E+00
         -2   -1    0    0    0  501 -0.00000000000E+00  0.00000000000E+00  0.51264930242E+02  0.51264930242E+02  0.00000000000E+00 0.  1.
          2   -1    0    0  501    0  0.00000000000E+00 -0.00000000000E+00 -0.39161304622E+03  0.39161304622E+03  0.00000000000E+00 0. -1.
         25    2    1    2    0    0  0.61510891646E+01  0.87540087777E+02 -0.14886352204E+03  0.21333044716E+03  0.12509367940E+03 0.  0.
          5    1    3    3  502    0  0.22629644132E+02  0.62701257974E+01  0.16012881342E+02  0.28728035783E+02  0.41800000000E+01 0.  1.
         -5    1    3    3    0  502 -0.16478554967E+02  0.81269961979E+02 -0.16487640338E+03  0.18460241138E+03  0.41800000000E+01 0.  1.
        -11    1    1    2    0    0 -0.43983722301E+02 -0.61875370466E+02 -0.86789334828E+02  0.11530619210E+03  0.00000000000E+00 0.  1.
         11    1    1    2    0    0  0.37832633137E+02 -0.25664717311E+02 -0.10469525911E+03  0.11424133720E+03  0.00000000000E+00 0. -1.
</event>
<event>
 7    1  0.2380582E-009  0.1782373E+03  0.7561462E-02  0.1169520E+00
         -1   -1    0    0    0  501 -0.00000000000E+00  0.00000000000E+00  0.21290511830E+02  0.21290511830E+02  0.00000000000E+00 0.  1.
          1   -1    0    0  501    0  0.00000000000E+00 -0.00000000000E+00 -0.20969286541E+04  0.20969286541E+04  0.00000000000E+00 0. -1.
         25    2    1    2    0    0 -0.10291291301E+03 -0.12013994159E+03 -0.15278426573E+04  0.15410956679E+04  0.12509196282E+03 0.  0.
          5    1    3    3  502    0 -0.19434002137E+02  0.24036931406E+02 -0.14982988735E+03  0.15304222311E+03  0.41800000000E+01 0. -1.
         -5    1    3    3    0  502 -0.83478910878E+02 -0.14417687300E+03 -0.13780127699E+04  0.13880534448E+04  0.41800000000E+01 0. -1.
        -11    1    1    2    0    0  0.45052180418E+02  0.43738248732E+02 -0.36859096174E+03  0.37390109713E+03  0.00000000000E+00 0. -1.
         11    1    1    2    0    0  0.57860732596E+02  0.76401692862E+02 -0.17920452326E+03  0.20322240085E+03  0.00000000000E+00 0.  1.
</event>
<event>
 7    1  0.2380582E-009  0.9638829E+02  0.7561462E-02  0.1288080E+00
          2   -1    0    0  501    0  0.00000000000E+00  0.00000000000E+00  0.19442747419E+03  0.19442747419E+03  0.00000000000E+00 0. -1.
         -2   -1    0    0    0  501 -0.00000000000E+00 -0.00000000000E+00 -0.77266975106E+02  0.77266975106E+02  0.00000000000E+00 0.  1.
         25    2    1    2    0    0  0.41605983353E+02  0.23567556424E+02  0.10422630975E+03  0.16969688430E+03  0.12508965318E+03 0.  0.
          5    1    3    3  502    0 -0.28331464269E+02  0.32819762932E+02  0.86483295858E+02  0.96833060310E+02  0.41800000000E+01 0.  1.
         -5    1    3    3    0  502  0.69937447622E+02 -0.92522065083E+01  0.17743013891E+02  0.72863823994E+02  0.41800000000E+01 0.  1.
        -11    1    1    2    0    0 -0.46297066798E+02  0.76980457242E+01  0.39000291374E+02  0.61022135569E+02  0.00000000000E+00 0. -1.
         11    1    1    2    0    0  0.46910834458E+01 -0.31265602148E+02 -0.26066102034E+02  0.40975429428E+02  0.00000000000E+00 0.  1.
</event>
<event>
 7    1  0.2380582E-009  0.1548325E+03  0.7561462E-02  0.1194658E+00
          1   -1    0    0  501    0  0.00000000000E+00  0.00000000000E+00  0.22691471510E+03  0.22691471510E+03  0.00000000000E+00 0. -1.
         -1   -1    0    0    0  501 -0.00000000000E+00 -0.00000000000E+00 -0.13816197675E+03  0.13816197675E+03  0.00000000000E+00 0.  1.
         25    2    1    2    0    0  0.13405261075E+03 -0.37541704191E+02  0.53550165326E+02  0.19466886171E+03  0.12509541762E+03 0.  0.
          5    1    3    3  502    0  0.45918571577E+02  0.90236720017E+01  0.78811780221E+02  0.91753533848E+02  0.41800000000E+01 0. -1.
         -5    1    3    3    0  502  0.88134039176E+02 -0.46565376193E+02 -0.25261614895E+02  0.10291532786E+03  0.41800000000E+01 0. -1.
        -11    1    1    2    0    0 -0.80364440543E+02  0.64305776844E+02  0.45142469907E+01  0.10302453429E+03  0.00000000000E+00 0.  1.
         11    1    1    2    0    0 -0.53688170210E+02 -0.26764072652E+02  0.30688326039E+02  0.67383295857E+02  0.00000000000E+00 0. -1.
</event>
<event>
 7    1  0.2380582E-009  0.1093774E+03  0.7561462E-02  0.1261727E+00
          2   -1    0    0  501    0  0.00000000000E+00  0.00000000000E+00  0.52773640897E+03  0.52773640897E+03  0.00000000000E+00 0. -1.
         -2   -1    0    0    0  501 -0.00000000000E+00 -0.00000000000E+00 -0.28014706078E+02  0.28014706078E+02  0.00000000000E+00 0.  1.
         25    2    1    2    0    0 -0.34135518263E+02 -0.33935525229E+02  0.35603579149E+03  0.38043086998E+03  0.12509719634E+03 0.  0.
          5    1    3    3  502    0  0.39497303877E+02  0.17448375988E+02  0.97514233420E+02  0.10672853863E+03  0.41800000000E+01 0. -1.
         -5    1    3    3    0  502 -0.73632822140E+02 -0.51383901217E+02  0.25852155807E+03  0.27370233135E+03  0.41800000000E+01 0. -1.
        -11    1    1    2    0    0 -0.22142299328E+02  0.83235316525E+01  0.60244270178E+01  0.24410168365E+02  0.00000000000E+00 0.  1.
         11    1    1    2    0    0  0.56277817591E+02  0.25611993577E+02  0.13766148439E+03  0.15091007671E+03  0.00000000000E+00 0. -1.
</event>
<event>
 7    1  0.2380582E-009  0.1249185E+03  0.7561462E-02  0.1235197E+00
         -1   -1    0    0    0  501 -0.00000000000E+00  0.00000000000E+00  0.60548647535E+03  0.60548647535E+03  0.00000000000E+00 0.  1.
          1   -1    0    0  501    0  0.00000000000E+00 -0.00000000000E+00 -0.47738549531E+02  0.47738549531E+02  0.00000000000E+00 0. -1.
         25    2    1    2    0    0 -0.59169634740E+02  0.10803175517E+03  0.36912327469E+03  0.40874329803E+03  0.12508871239E+03 0.  0.
          5    1    3    3  502    0 -0.59825627867E+02  0.98467205811E+02  0.37789626519E+03  0.39509233859E+03  0.41800000000E+01 0. -1.
         -5    1    3    3    0  502  0.65599312660E+00  0.95645493615E+01 -0.87729904963E+01  0.13650959443E+02  0.41800000000E+01 0. -1.
        -11    1    1    2    0    0  0.36087263149E+02 -0.80078489026E+02  0.18879815595E+03  0.20822967765E+03  0.00000000000E+00 0.  1.
         11    1    1    2    0    0  0.23082371591E+02 -0.27953266147E+02 -0.17350482437E+00  0.36252049190E+02  0.00000000000E+00 0. -1.
</event>
<event>
 7    1  0.2380582E-009  0.1626272E+03  0.7561462E-02  0.1185762E+00
         -3   -1    0    0    0  501 -0.00000000000E+00  0.00000000000E+00  0.11610097967E+03  0.11610097967E+03  0.00000000000E+00 0.  1.
          3   -1    0    0  501    0  0.00000000000E+00 -0.00000000000E+00 -0.27093664599E+03  0.27093664599E+03  0.00000000000E+00 0. -1.
         25    2    1    2    0    0 -0.13732538411E+03  0.17958388316E+02 -0.61057980103E+02  0.19635921672E+03  0.12509236677E+03 0.  0.
          5    1    3    3  502    0 -0.14156976635E+03  0.48914984019E+02 -0.31438755637E+02  0.15310304426E+03  0.41800000000E+01 0.  1.
         -5    1    3    3    0  502  0.42443822355E+01 -0.30956595703E+02 -0.29619224467E+02  0.43256172462E+02  0.41800000000E+01 0.  1.
        -11    1    1    2    0    0  0.35943406954E+02  0.12461146959E+02 -0.73706516545E+02  0.82944917072E+02  0.00000000000E+00 0. -1.
         11    1    1    2    0    0  0.10138197716E+03 -0.30419535275E+02 -0.20071169672E+02  0.10773349187E+03  0.00000000000E+00 0.  1.
</event>
<event>
 7    1  0.2380582E-009  0.1605892E+03  0.7561462E-02  0.1188033E+00
          1   -1    0    0  501    0  0.00000000000E+00  0.00000000000E+00  0.15712158859E+03  0.15712158859E+03  0.00000000000E+00 0. -1.
         -1   -1    0    0    0  501 -0.00000000000E+00 -0.00000000000E+00 -0.24568201721E+03  0.24568201721E+03  0.00000000000E+00 0.  1.
         25    2    1    2    0    0  0.11761328806E+03 -0.69497515082E+02 -0.13826788207E+03  0.23114558786E+03  0.12508990944E+03 0.  0.
          5    1    3    3  502    0 -0.24154099409E+02 -0.27059453615E+02 -0.35538508451E+02  0.50951864845E+02  0.41800000000E+01 0.  1.
         -5    1    3    3    0  502  0.14176738746E+03 -0.42438061467E+02 -0.10272937362E+03  0.18019372301E+03  0.41800000000E+01 0.  1.
        -11    1    1    2    0    0 -0.98197021685E+02  0.58826220356E+02 -0.29735392837E+01  0.11450773426E+03  0.00000000000E+00 0.  1.
         11    1    1    2    0    0 -0.19416266371E+02  0.10671294726E+02  0.52680992725E+02  0.57150283686E+02  0.00000000000E+00 0. -1.
</event>
<event>
 7    1  0.2380582E-009  0.1195615E+03  0.7561462E-02  0.1243822E+00
         -2   -1    0    0    0  501 -0.00000000000E+00  0.00000000000E+00  0.12981826278E+02  0.12981826278E+02  0.00000000000E+00 0. -1.
          2   -1    0    0  501    0  0.00000000000E+00 -0.00000000000E+00 -0.12207504771E+04  0.12207504771E+04  0.00000000000E+00 0.  1.
         25    2    1    2    0    0  0.29608150793E+02  0.53715545888E+02 -0.75463379026E+03  0.76738623762E+03  0.12508987900E+03 0.  0.
          5    1    3    3  502    0 -0.24677247731E+01  0.88417283404E+02 -0.56564462997E+03  0.57253386405E+03  0.41800000000E+01 0. -1.
         -5    1    3    3    0  502  0.32075875566E+02 -0.34701737516E+02 -0.18898916029E+03  0.19485237357E+03  0.41800000000E+01 0. -1.
        -11    1    1    2    0    0  0.13586106484E+02 -0.58145646616E+02 -0.33924103260E+03  0.34445605919E+03  0.00000000000E+00 0.  1.
         11    1    1    2    0    0 -0.43194257277E+02  0.44301007280E+01 -0.11389382798E+03  0.12189000659E+03  0.00000000000E+00 0. -1.
</event>
<event>
 7    1  0.2380582E-009  0.2022717E+03  0.7561462E-02  0.1147836E+00
          2   -1    0    0  501    0  0.00000000000E+00  0.00000000000E+00  0.28943485335E+03  0.28943485335E+03  0.00000000000E+00 0. -1.
         -2   -1    0    0    0  501 -0.00000000000E+00 -0.00000000000E+00 -0.17195572856E+03  0.17195572856E+03  0.00000000000E+00 0.  1.
         25    2    1    2    0    0  0.26468831320E+02  0.18994844381E+03  0.40372038658E+02  0.23250490020E+03  0.12509043439E+03 0.  0.
          5    1    3    3  502    0 -0.15375853879E+01  0.42988709818E+02 -0.43184971122E+02  0.61096705897E+02  0.41800000000E+01 0. -1.
         -5    1    3    3    0  502  0.28006416708E+02  0.14695973399E+03  0.83557009780E+02  0.17140819431E+03  0.41800000000E+01 0. -1.
        -11    1    1    2    0    0  0.12385835465E+02 -0.16504950594E+03  0.41607665015E+02  0.17066325357E+03  0.00000000000E+00 0.  1.
         11    1    1    2    0    0 -0.38854666786E+02 -0.24898937875E+02  0.35499421117E+02  0.58222428135E+02  0.00000000000E+00 0. -1.
</event>
<event>
 7    1  0.2380582E-009  0.1000116E+03  0.7561462E-02  0.1280271E+00
         -1   -1    0    0    0  501 -0.00000000000E+00  0.00000000000E+00  0.10437911345E+03  0.10437911345E+03  0.00000000000E+00 0.  1.
          1   -1    0    0  501    0  0.00000000000E+00 -0.00000000000E+00 -0.13947223334E+03  0.13947223334E+03  0.00000000000E+00 0. -1.
         25    2    1    2    0    0 -0.18979617572E+01 -0.39282078357E+02 -0.57792544850E+02  0.14329294266E+03  0.12508479219E+03 0.  0.
          5    1    3    3  502    0  0.11042260731E+02  0.37431897797E+02 -0.52024528117E+02  0.65169796843E+02  0.41800000000E+01 0. -1.
         -5    1    3    3    0  502 -0.12940222488E+02 -0.76713976154E+02 -0.57680167328E+01  0.78123145818E+02  0.41800000000E+01 0. -1.
        -11    1    1    2    0    0 -0.51459333390E+01 -0.21279909355E+02 -0.17072445187E+02  0.27762988974E+02  0.00000000000E+00 0. -1.
         11    1    1    2    0    0  0.70438950962E+01  0.60561987713E+02  0.39771870147E+02  0.72795415164E+02  0.00000000000E+00 0.  1.
</event>
<event>
 7    1  0.2380582E-009  0.8780277E+02  0.7561462E-02  0.1308262E+00
          1   -1    0    0  501    0  0.00000000000E+00  0.00000000000E+00  0.11286016120E+03  0.11286016120E+03  0.00000000000E+00 0. -1.
         -1   -1    0    0    0  501 -0.00000000000E+00 -0.00000000000E+00 -0.14210938547E+03  0.14210938547E+03  0.00000000000E+00 0.  1.
         25    2    1    2    0    0 -0.41879559222E+02 -0.80233579535E+01  0.31046531634E+02  0.13575667813E+03  0.12509083410E+03 0.  0.
          5    1    3    3  502    0 -0.68089280534E+02 -0.41283571061E+02 -0.51347749096E+01  0.79901950393E+02  0.41800000000E+01 0. -1.
         -5    1    3    3    0  502  0.26209721313E+02  0.33260213108E+02  0.36181306544E+02  0.55854727736E+02  0.41800000000E+01 0. -1.
        -11    1    1    2    0    0  0.31101805301E+02 -0.96951373208E+01 -0.82578506163E+02  0.88772336123E+02  0.00000000000E+00 0.  1.
         11    1    1    2    0    0  0.10777753921E+02  0.17718495274E+02  0.22282750267E+02  0.30440532417E+02  0.00000000000E+00 0. -1.
</event>
<event>
 7    1  0.2380582E-009  0.9921505E+02  0.7561462E-02  0.1281955E+00
          1   -1    0    0  501    0  0.00000000000E+00  0.00000000000E+00  0.98659089650E+02  0.98659089650E+02  0.00000000000E+00 0. -1.
         -1   -1    0    0    0  501 -0.00000000000E+00 -0.00000000000E+00 -0.18953936370E+03  0.18953936370E+03  0.00000000000E+00 0.  1.
         25    2    1    2    0    0 -0.28594419360E+02 -0.45743148737E+02  0.16631028027E+02  0.13723536129E+03  0.12508747667E+03 0.  0.
          5    1    3    3  502    0 -0.67944957228E+02 -0.62474421030E+02  0.18504621354E+02  0.94230907388E+02  0.41800000000E+01 0. -1.
         -5    1    3    3    0  502  0.39350537868E+02  0.16731272293E+02 -0.18735933264E+01  0.43004453897E+02  0.41800000000E+01 0. -1.
        -11    1    1    2    0    0 -0.53505579780E+01  0.19338189406E+02  0.12390432943E+02  0.23582130283E+02  0.00000000000E+00 0. -1.
         11    1    1    2    0    0  0.33944977338E+02  0.26404959331E+02 -0.11990173502E+03  0.12738096178E+03  0.00000000000E+00 0.  1.
</event>
<event>
 7    1  0.2380582E-009  0.1303574E+03  0.7561462E-02  0.1226926E+00
         -3   -1    0    0    0  501 -0.00000000000E+00  0.00000000000E+00  0.13417648145E+03  0.13417648145E+03  0.00000000000E+00 0.  1.
          3   -1    0    0  501    0  0.00000000000E+00 -0.00000000000E+00 -0.17879058274E+03  0.17879058274E+03  0.00000000000E+00 0. -1.
         25    2    1    2    0    0 -0.10811909097E+03  0.63784827350E+00 -0.41945656227E+02  0.17057713130E+03  0.12508786898E+03 0.  0.
          5    1    3    3  502    0 -0.10624972189E+03 -0.32274626604E+02  0.70841927566E+01  0.11134771264E+03  0.41800000000E+01 0. -1.
         -5    1    3    3    0  502 -0.18693690766E+01  0.32912474877E+02 -0.49029848983E+02  0.59229418658E+02  0.41800000000E+01 0. -1.
        -11    1    1    2    0    0  0.61577232915E+02  0.20970076140E+02 -0.42265559126E+02  0.77574977893E+02  0.00000000000E+00 0. -1.
         11    1    1    2    0    0  0.46541858050E+02 -0.21607924414E+02  0.39597114069E+02  0.64814954994E+02  0.00000000000E+00 0.  1.
</event>
<event>
 7    1  0.2380582E-009  0.1086450E+03  0.7561462E-02  0.1263100E+00
          2   -1    0    0  501    0  0.00000000000E+00  0.00000000000E+00  0.78182478339E+02  0.78182478339E+02  0.00000000000E+00 0. -1.
         -2   -1    0    0    0  501 -0.00000000000E+00 -0.00000000000E+00 -0.21808466521E+03  0.21808466521E+03  0.00000000000E+00 0.  1.
         25    2    1    2    0    0  0.30343915019E+02 -0.37148524098E+02 -0.15102827055E+02  0.13481726097E+03  0.12508729932E+03 0.  0.
          5    1    3    3  502    0  0.28545848455E+01 -0.73620156962E+02 -0.38607251576E+02  0.83283062143E+02  0.41800000000E+01 0.  1.
         -5    1    3    3    0  502  0.27489330174E+02  0.36471632864E+02  0.23504424521E+02  0.51534198831E+02  0.41800000000E+01 0.  1.
        -11    1    1    2    0    0  0.28460841966E+02  0.73953182826E+00 -0.61163544421E+02  0.67465143585E+02  0.00000000000E+00 0. -1.
         11    1    1    2    0    0 -0.58804756986E+02  0.36408992270E+02 -0.63635815396E+02  0.93984738992E+02  0.00000000000E+00 0.  1.
</event>
<event>
 7    1  0.2380582E-009  0.8549258E+02  0.7561462E-02  0.1314149E+00
         -2   -1    0    0    0  501 -0.00000000000E+00  0.00000000000E+00  0.39037382823E+02  0.39037382823E+02  0.00000000000E+00 0. -1.
          2   -1    0    0  501    0  0.00000000000E+00 -0.00000000000E+00 -0.47602454373E+03  0.47602454373E+03  0.00000000000E+00 0.  1.
         25    2    1    2    0    0 -0.52323890990E+02 -0.31712386478E+02 -0.32269910441E+03  0.35145646279E+03  0.12507385110E+03 0.  0.
          5    1    3    3  502    0 -0.80969041735E+01 -0.15984591137E+02 -0.29740075073E+03  0.29796937082E+03  0.41800000000E+01 0. -1.
         -5    1    3    3    0  502 -0.44226986817E+02 -0.15727795341E+02 -0.25298353678E+02  0.53487091975E+02  0.41800000000E+01 0. -1.
        -11    1    1    2    0    0 -0.22150658522E+02  0.20433295479E+02 -0.45113408530E+01  0.30471682483E+02  0.00000000000E+00 0. -1.
         11    1    1    2    0    0  0.74474549512E+02  0.11279090999E+02 -0.10977671565E+03  0.13313378128E+03  0.00000000000E+00 0.  1.
</event>
<event>
 7    1  0.2380582E-009  0.1196772E+03  0.7561462E-02  0.1243631E+00
         -1   -1    0    0    0  501 -0.00000000000E+00  0.00000000000E+00  0.58065191559E+02  0.58065191559E+02  0.00000000000E+00 0.  1.
          1   -1    0    0  501    0  0.00000000000E+00 -0.00000000000E+00 -0.36495300462E+03  0.36495300462E+03  0.00000000000E+00 0. -1.
         25    2    1    2    0    0 -0.36757460594E+02  0.64430576211E+02 -0.74966370021E+02  0.16361863369E+03  0.12509472649E+03 0.  0.
          5    1    3    3  502    0 -0.73249396954E+02  0.51736162727E+02 -0.13338383998E+02  0.90760616875E+02  0.41800000000E+01 0.  1.
         -5    1    3    3    0  502  0.36491936361E+02  0.12694413484E+02 -0.61627986023E+02  0.72858016816E+02  0.41800000000E+01 0.  1.
        -11    1    1    2    0    0 -0.11761251350E+02 -0.60949053125E+02 -0.16781316320E+03  0.17892560425E+03  0.00000000000E+00 0. -1.
         11    1    1    2    0    0  0.48518711943E+02 -0.34815230868E+01 -0.64108279832E+02  0.80473958239E+02  0.00000000000E+00 0.  1.
</event>
<event>
 7    1  0.2380582E-009  0.1423590E+03  0.7561462E-02  0.1210190E+00
          1   -1    0    0  501    0  0.00000000000E+00  0.00000000000E+00  0.79544539053E+02  0.79544539053E+02  0.00000000000E+00 0. -1.
         -1   -1    0    0    0  501 -0.00000000000E+00 -0.00000000000E+00 -0.42163315708E+03  0.42163315708E+03  0.00000000000E+00 0.  1.
         25    2    1    2    0    0 -0.10493100346E+02 -0.12984473701E+03 -0.87086685537E+02  0.20050437791E+03  0.12509258123E+03 0.  0.
          5    1    3    3  502    0 -0.42791783064E+01 -0.12245442027E+03 -0.11658664526E+03  0.16918426245E+03  0.41800000000E+01 0. -1.
         -5    1    3    3    0  502 -0.62139220398E+01 -0.73903167376E+01  0.29499959718E+02  0.31320115452E+02  0.41800000000E+01 0. -1.
        -11    1    1    2    0    0 -0.33465113164E+02  0.67139984635E+02 -0.80111466918E+02  0.10975216840E+03  0.00000000000E+00 0. -1.
         11    1    1    2    0    0  0.43958213510E+02  0.62704752370E+02 -0.17489046557E+03  0.19092114983E+03  0.00000000000E+00 0.  1.
</event>
<event>
 7    1  0.2380582E-009  0.1287304E+03  0.7561462E-02  0.1229352E+00
         -1   -1    0    0    0  501 -0.00000000000E+00  0.00000000000E+00  0.22970533044E+03  0.22970533044E+03  0.00000000000E+00 0.  1.
          1   -1    0    0  501    0  0.00000000000E+00 -0.00000000000E+00 -0.80187534962E+02  0.80187534962E+02  0.00000000000E+00 0. -1.
         25    2    1    2    0    0 -0.38015325603E+01 -0.79835447032E+02  0.99451096963E+02  0.17867912651E+03  0.12509020469E+03 0.  0.
          5    1    3    3  502    0 -0.41146759695E+01  0.27861016587E+02 -0.46341883359E+01  0.28846401944E+02  0.41800000000E+01 0.  1.
         -5    1    3    3    0  502  0.31314340919E+00 -0.10769646362E+03  0.10408528530E+03  0.14983272457E+03  0.41800000000E+01 0.  1.
        -11    1    1    2    0    0 -0.43504180110E+02  0.43893829149E+02  0.23215443741E+02  0.66016958068E+02  0.00000000000E+00 0. -1.
         11    1    1    2    0    0  0.47305712670E+02  0.35941617884E+02  0.26851254778E+02  0.65196780829E+02  0.00000000000E+00 0.  1.
</event>
<event>
 7    1  0.2380582E-009  0.1969122E+03  0.7561462E-02  0.1152371E+00
         -2   -1    0    0    0  501 -0.00000000000E+00  0.00000000000E+00  0.61549610361E+02  0.61549610361E+02  0.00000000000E+00 0.  1.
          2   -1    0    0  501    0  0.00000000000E+00 -0.00000000000E+00 -0.77161844684E+03  0.77161844684E+03  0.00000000000E+00 0. -1.
         25    2    1    2    0    0  0.13356924414E+03  0.14107489968E+03 -0.42702601259E+03  0.48553275113E+03  0.12509183303E+03 0.  0.
          5    1    3    3  502    0  0.69756886390E+02  0.45570889783E+02 -0.65179502827E+02  0.10587053029E+03  0.41800000000E+01 0. -1.
         -5    1    3    3    0  502  0.63812357752E+02  0.95504009900E+02 -0.36184650976E+03  0.37966222084E+03  0.41800000000E+01 0. -1.
        -11    1    1    2    0    0 -0.74853965879E+02 -0.94254265843E+02 -0.21449296411E+03  0.24595571652E+03  0.00000000000E+00 0. -1.
         11    1    1    2    0    0 -0.58715278263E+02 -0.46820633840E+02 -0.68549859779E+02  0.10167958955E+03  0.00000000000E+00 0.  1.
</event>
<event>
 7    1  0.2380582E-009  0.1044148E+03  0.7561462E-02  0.1271277E+00
         -2   -1    0    0    0  501 -0.00000000000E+00  0.00000000000E+00  0.20512067528E+03  0.20512067528E+03  0.00000000000E+00 0.  1.
          2   -1    0    0  501    0  0.00000000000E+00 -0.00000000000E+00 -0.86724296586E+02  0.86724296586E+02  0.00000000000E+00 0. -1.
         25    2    1    2    0    0  0.22316300122E+02  0.64167054602E+02  0.28290108594E+02  0.14512146189E+03  0.12507789697E+03 0.  0.
          5    1    3    3  502    0  0.99090456987E+01  0.76183020032E+02 -0.31207537801E+02  0.83026649598E+02  0.41800000000E+01 0. -1.
         -5    1    3    3    0  502  0.12407254423E+02 -0.12015965431E+02  0.59497646395E+02  0.62094812296E+02  0.41800000000E+01 0. -1.
        -11    1    1    2    0    0  0.17631215104E+02  0.16472320793E+02  0.30024753786E+02  0.38518605093E+02  0.00000000000E+00 0.  1.
         11    1    1    2    0    0 -0.39947515226E+02 -0.80639375395E+02  0.60081516310E+02  0.10820490487E+03  0.00000000000E+00 0. -1.
</event>
<event>
 7    1  0.2380582E-009  0.1330397E+03  0.7561462E-02  0.1223014E+00
         -1   -1    0    0    0  501 -0.00000000000E+00  0.00000000000E+00  0.15740386975E+03  0.15740386975E+03  0.00000000000E+00 0.  1.
          1   -1    0    0  501    0  0.00000000000E+00 -0.00000000000E+00 -0.15430912479E+03  0.15430912479E+03  0.00000000000E+00 0. -1.
         25    2    1    2    0    0 -0.99946594186E+02  0.43158126714E+02  0.23263393274E+02  0.16745079810E+03  0.12508652497E+03 0.  0.
          5    1    3    3  502    0 -0.96442895333E+02  0.68916575926E+02 -0.16509049822E+02  0.11975286061E+03  0.41800000000E+01 0.  1.
         -5    1    3    3    0  502 -0.35036988524E+01 -0.25758449212E+02  0.39772443097E+02  0.47697937496E+02  0.41800000000E+01 0.  1.
        -11    1    1    2    0    0  0.87627934587E+02 -0.13030390499E+02  0.21719082383E+02  0.91214935927E+02  0.00000000000E+00 0.  1.
         11    1    1    2    0    0  0.12318659599E+02 -0.30127736214E+02 -0.41887730697E+02  0.53047260501E+02  0.00000000000E+00 0. -1.
</event>
<event>
 7    1  0.2380582E-009  0.1239372E+03  0.7561462E-02  0.1236740E+00
          1   -1    0    0  501    0  0.00000000000E+00  0.00000000000E+00  0.97705415006E+02  0.97705415006E+02  0.00000000000E+00 0. -1.
         -1   -1    0    0    0  501 -0.00000000000E+00 -0.00000000000E+00 -0.23085672145E+03  0.23085672145E+03  0.00000000000E+00 0.  1.
         25    2    1    2    0    0 -0.68143413052E+02  0.49901055419E+02 -0.13766601637E+03  0.20429162896E+03  0.12509795172E+03 0.  0.
          5    1    3    3  502    0  0.33030434257E+02  0.16329863675E+02 -0.66222530990E+02  0.75898419256E+02  0.41800000000E+01 0.  1.
         -5    1    3    3    0  502 -0.10117384731E+03  0.33571191744E+02 -0.71443485375E+02  0.12839320970E+03  0.41800000000E+01 0.  1.
        -11    1    1    2    0    0  0.59867561167E+02 -0.68339579201E+01  0.36084059112E+02  0.70234515610E+02  0.00000000000E+00 0. -1.
         11    1    1    2    0    0  0.82758518851E+01 -0.43067097498E+02 -0.31569349190E+02  0.54035991891E+02  0.00000000000E+00 0.  1.
</event>
<event>
 7    1  0.2380582E-009  0.1170380E+03  0.7561462E-02  0.1248065E+00
         -2   -1    0    0    0  501 -0.00000000000E+00  0.00000000000E+00  0.18843414151E+02  0.18843414151E+02  0.00000000000E+00 0. -1.
          2   -1    0    0  501    0  0.00000000000E+00 -0.00000000000E+00 -0.10344830730E+04  0.10344830730E+04  0.00000000000E+00 0.  1.
         25    2    1    2    0    0 -0.34017691017E+02 -0.77970487333E+02 -0.61300484577E+03  0.63139467397E+03  0.12509073979E+03 0.  0.
          5    1    3    3  502    0 -0.66502310367E+02 -0.14272823584E+02 -0.17925560130E+03  0.19177151451E+03  0.41800000000E+01 0.  1.
         -5    1    3    3    0  502  0.32484619350E+02 -0.63697663749E+02 -0.43374924447E+03  0.43962315946E+03  0.41800000000E+01 0.  1.
        -11    1    1    2    0    0 -0.91928805061E+01  0.86603964078E+01 -0.16781408138E+01  0.12740787830E+02  0.00000000000E+00 0. -1.
         11    1    1    2    0    0  0.43210571523E+02  0.69310090925E+02 -0.40095667231E+03  0.40919102540E+03  0.00000000000E+00 0.  1.
</event>
<event>
 7    1  0.2380582E-009  0.3488164E+03  0.7561462E-02  0.1063102E+00
          2   -1    0    0  501    0  0.00000000000E+00  0.00000000000E+00  0.17252343574E+04  0.17252343574E+04  0.00000000000E+00 0. -1.
         -2   -1    0    0    0  501 -0.00000000000E+00 -0.00000000000E+00 -0.76139587067E+02  0.76139587067E+02  0.00000000000E+00 0.  1.
         25    2    1    2    0    0 -0.14761714495E+02 -0.34490283894E+03  0.86703828244E+03  0.94158232870E+03  0.12508405969E+03 0.  0.
          5    1    3    3  502    0  0.22431349853E+02 -0.22925035124E+03  0.68487022733E+03  0.72258119937E+03  0.41800000000E+01 0.  1.
         -5    1    3    3    0  502 -0.37193064347E+02 -0.11565248770E+03  0.18216805511E+03  0.21900112934E+03  0.41800000000E+01 0.  1.
        -11    1    1    2    0    0  0.11617008124E+01  0.22765053386E+03  0.40387989629E+03  0.46362170542E+03  0.00000000000E+00 0.  1.
         11    1    1    2    0    0  0.13600013682E+02  0.11725230508E+03  0.37817659160E+03  0.39616991033E+03  0.00000000000E+00 0. -1.
</event>
<event>
 7    1  0.2380582E-009  0.8949066E+02  0.7561462E-02  0.1304090E+00
         -1   -1    0    0    0  501 -0.00000000000E+00  0.00000000000E+00  0.33134585169E+03  0.33134585169E+03  0.00000000000E+00 0.  1.
          1   -1    0    0  501    0  0.00000000000E+00 -0.00000000000E+00 -0.45745038015E+02  0.45745038015E+02  0.00000000000E+00 0. -1.
         25    2    1    2    0    0 -0.52057197692E+02  0.90109711061E+01  0.12265160499E+03  0.18298162562E+03  0.12509080572E+03 0.  0.
          5    1    3    3  502    0  0.56465090576E+00 -0.15439208538E+02 -0.21921728446E+02  0.27142633789E+02  0.41800000000E+01 0.  1.
         -5    1    3    3    0  502 -0.52621848598E+02  0.24450179644E+02  0.14457333344E+03  0.15583899184E+03  0.41800000000E+01 0.  1.
        -11    1    1    2    0    0  0.95371260493E+01  0.39301690814E+02  0.73823820001E+02  0.84175626364E+02  0.00000000000E+00 0.  1.
         11    1    1    2    0    0  0.42520071643E+02 -0.48312661920E+02  0.89125388674E+02  0.10993363771E+03  0.00000000000E+00 0. -1.
</event>
<event>
 7    1  0.2380582E-009  0.1459512E+03  0.7561462E-02  0.1205538E+00
         -2   -1    0    0    0  501 -0.00000000000E+00  0.00000000000E+00  0.41438188275E+02  0.41438188275E+02  0.00000000000E+00 0.  1.
          2   -1    0    0  501    0  0.00000000000E+00 -0.00000000000E+00 -0.59415283165E+03  0.59415283165E+03  0.00000000000E+00 0. -1.
         25    2    1    2    0    0 -0.99718464240E+02  0.14038496110E+02 -0.33714746104E+03  0.37344027402E+03  0.12509347021E+03 0.  0.
          5    1    3    3  502    0  0.20377008818E+02  0.84162808257E+01 -0.94299871636E+01  0.24340364196E+02  0.41800000000E+01 0.  1.
         -5    1    3    3    0  502 -0.12009547306E+03  0.56222152846E+01 -0.32771747388E+03  0.34909990982E+03  0.41800000000E+01 0.  1.
        -11    1    1    2    0    0  0.45755995235E+02  0.48422210642E+02 -0.94513529288E+02  0.11563359720E+03  0.00000000000E+00 0. -1.
         11    1    1    2    0    0  0.53962469006E+02 -0.62460706752E+02 -0.12105365305E+03  0.14651714871E+03  0.00000000000E+00 0.  1.
</event>
<event>
 7    1  0.3111108E-009  0.2373102E+03  0.7561462E-02  0.1121598E+00
          1   -1    0    0  501    0  0.00000000000E+00  0.00000000000E+00  0.59691354402E+03  0.59691354402E+03  0.00000000000E+00 0. -1.
         -1   -1    0    0    0  501 -0.00000000000E+00 -0.00000000000E+00 -0.11133253327E+03  0.11133253327E+03  0.00000000000E+00 0.  1.
         25    2    1    2    0    0 -0.83029793520E+02  0.21282360335E+03  0.31570185837E+03  0.40927570655E+03  0.12510438778E+03 0.  0.
          5    1    3    3  502    0 -0.49126980720E+02  0.14130255548E+03  0.28932924070E+03  0.32574338726E+03  0.41800000000E+01 0.  1.
         -5    1    3    3    0  502 -0.33902812799E+02  0.71521047868E+02  0.26372617674E+02  0.83532319295E+02  0.41800000000E+01 0.  1.
        -11    1    1    2    0    0  0.54592513110E+00 -0.12579672946E+03  0.79425462038E+02  0.14877338202E+03  0.00000000000E+00 0. -1.
         11    1    1    2    0    0  0.82483868389E+02 -0.87026873890E+02  0.90453690351E+02  0.15019698872E+03  0.00000000000E+00 0.  1.
</event>
<event>
 7    1  0.2380582E-009  0.1168693E+03  0.7561462E-02  0.1248353E+00
         -4   -1    0    0    0  501 -0.00000000000E+00  0.00000000000E+00  0.66574535224E+02  0.66574535224E+02  0.00000000000E+00 0.  1.
          4   -1    0    0  501    0  0.00000000000E+00 -0.00000000000E+00 -0.31321874730E+03  0.31321874730E+03  0.00000000000E+00 0. -1.
         25    2    1    2    0    0  0.79306497486E+02 -0.15170528654E+02 -0.20280215934E+03  0.25158649785E+03  0.12508950630E+03 0.  0.
          5    1    3    3  502    0  0.57501147202E+02 -0.61356745873E+02 -0.70866355303E+02  0.11004792096E+03  0.41800000000E+01 0.  1.
         -5    1    3    3    0  502  0.21805350284E+02  0.46186217219E+02 -0.13193580404E+03  0.14153857689E+03  0.41800000000E+01 0.  1.
        -11    1    1    2    0    0 -0.51994588607E+02 -0.18281074595E+02  0.13188318571E+02  0.56670686245E+02  0.00000000000E+00 0.  1.
         11    1    1    2    0    0 -0.27311908879E+02  0.33451603249E+02 -0.57030371309E+02  0.71536098427E+02  0.00000000000E+00 0. -1.
</event>
<event>
 7    1  0.2380582E-009  0.1587384E+03  0.7561462E-02  0.1190128E+00
          1   -1    0    0  501    0  0.00000000000E+00  0.00000000000E+00  0.13494153815E+03  0.13494153815E+03  0.00000000000E+00 0. -1.
         -1   -1    0    0    0  501 -0.00000000000E+00 -0.00000000000E+00 -0.25830817547E+03  0.25830817547E+03  0.00000000000E+00 0.  1.
         25    2    1    2    0    0  0.11998673537E+03  0.62787735098E+02  0.66230719384E+01  0.18447735932E+03  0.12509562213E+03 0.  0.
          5    1    3    3  502    0  0.10648496385E+03 -0.10200969546E+02  0.20090074859E+02  0.10892286635E+03  0.41800000000E+01 0.  1.
         -5    1    3    3    0  502  0.13501771518E+02  0.72988704644E+02 -0.13467002921E+02  0.75554492967E+02  0.41800000000E+01 0.  1.
        -11    1    1    2    0    0 -0.47574525456E+02 -0.32335656594E+02 -0.11530444525E+03  0.12885668494E+03  0.00000000000E+00 0.  1.
         11    1    1    2    0    0 -0.72412209915E+02 -0.30452078504E+02 -0.14685264012E+02  0.79915669359E+02  0.00000000000E+00 0. -1.
</event>
<event>
 7    1  0.2380582E-009  0.1659445E+03  0.7561462E-02  0.1182144E+00
          1   -1    0    0  501    0  0.00000000000E+00  0.00000000000E+00  0.89829014285E+03  0.89829014285E+03  0.00000000000E+00 0. -1.
         -1   -1    0    0    0  501 -0.00000000000E+00 -0.00000000000E+00 -0.35953025040E+02  0.35953025040E+02  0.00000000000E+00 0.  1.
         25    2    1    2    0    0 -0.12924026063E+03 -0.15260785131E+02  0.61274131711E+03  0.63877634521E+03  0.12508941194E+03 0.  0.
          5    1    3    3  502    0 -0.83214155851E+02 -0.66554728853E+02  0.44023535097E+03  0.45296662605E+03  0.41800000000E+01 0. -1.
         -5    1    3    3    0  502 -0.46026104783E+02  0.51293943722E+02  0.17250596614E+03  0.18580971917E+03  0.41800000000E+01 0. -1.
        -11    1    1    2    0    0  0.12798150281E+03  0.37945747286E+02  0.22751699457E+03  0.26378613993E+03  0.00000000000E+00 0. -1.
         11    1    1    2    0    0  0.12587578199E+01 -0.22684962155E+02  0.22078806131E+02  0.31680682748E+02  0.00000000000E+00 0.  1.
</event>
<event>
 7    1  0.2380582E-009  0.1054955E+03  0.7561462E-02  0.1269147E+00
         -1   -1    0    0    0  501 -0.00000000000E+00  0.00000000000E+00  0.75271750586E+03  0.75271750586E+03  0.00000000000E+00 0.  1.
          1   -1    0    0  501    0  0.00000000000E+00 -0.00000000000E+00 -0.31885988378E+02  0.31885988378E+02  0.00000000000E+00 0. -1.
         25    2    1    2    0    0 -0.16475861596E+02  0.83986704771E+02  0.21182863499E+03  0.26046658179E+03  0.12508496726E+03 0.  0.
          5    1    3    3  502    0 -0.20727103786E+02  0.35269738266E+02 -0.19086511564E+01  0.41166523025E+02  0.41800000000E+01 0.  1.
         -5    1    3    3    0  502  0.42512421903E+01  0.48716966504E+02  0.21373728614E+03  0.21930005876E+03  0.41800000000E+01 0.  1.
        -11    1    1    2    0    0 -0.34776600591E+02 -0.42032368715E+02  0.29901669418E+03  0.30395248866E+03  0.00000000000E+00 0. -1.
         11    1    1    2    0    0  0.51252462187E+02 -0.41954336056E+02  0.20998618832E+03  0.22018442379E+03  0.00000000000E+00 0.  1.
</event>
<event>
 7    1  0.2380582E-009  0.8287432E+02  0.7561462E-02  0.1321087E+00
          2   -1    0    0  501    0  0.00000000000E+00  0.00000000000E+00  0.33847251202E+03  0.33847251202E+03  0.00000000000E+00 0. -1.
         -2   -1    0    0    0  501 -0.00000000000E+00 -0.00000000000E+00 -0.41009558438E+02  0.41009558438E+02  0.00000000000E+00 0.  1.
         25    2    1    2    0    0  0.22671316371E+02 -0.33791717410E+02  0.13490253225E+03  0.18842396709E+03  0.12509608073E+03 0.  0.
          5    1    3    3  502    0  0.60339251577E+02 -0.46747242634E+02  0.41922535955E+02  0.87184295580E+02  0.41800000000E+01 0.  1.
         -5    1    3    3    0  502 -0.37667935207E+02  0.12955525224E+02  0.92979996293E+02  0.10123967151E+03  0.41800000000E+01 0.  1.
        -11    1    1    2    0    0  0.29574484407E+01  0.19866222042E+02 -0.52271524223E+01  0.20754189985E+02  0.00000000000E+00 0.  1.
         11    1    1    2    0    0 -0.25628764811E+02  0.13925495368E+02  0.16778757375E+03  0.17030391338E+03  0.00000000000E+00 0. -1.
</event>
<event>
 7    1  0.2380582E-009  0.1065971E+03  0.7561462E-02  0.1267005E+00
         -1   -1    0    0    0  501 -0.00000000000E+00  0.00000000000E+00  0.20711486894E+02  0.20711486894E+02  0.00000000000E+00 0.  1.
          1   -1    0    0  501    0  0.00000000000E+00 -0.00000000000E+00 -0.59056024639E+03  0.59056024639E+03  0.00000000000E+00 0. -1.
         25    2    1    2    0    0  0.22014201435E+01 -0.16245214540E+02 -0.34415866444E+03  0.36655474254E+03  0.12509372374E+03 0.  0.
          5    1    3    3  502    0 -0.58162288560E+02 -0.63855128390E+00 -0.11380941285E+03  0.12788007824E+03  0.41800000000E+01 0.  1.
         -5    1    3    3    0  502  0.60363708704E+02 -0.15606663256E+02 -0.23034925160E+03  0.23867466430E+03  0.41800000000E+01 0.  1.
        -11    1    1    2    0    0  0.71832111321E+01  0.53495488219E+02 -0.10499856050E+03  0.11805957601E+03  0.00000000000E+00 0.  1.
         11    1    1    2    0    0 -0.93846312756E+01 -0.37250273679E+02 -0.12069153456E+03  0.12665741473E+03  0.00000000000E+00 0. -1.
</event>
<event>
 7    1  0.2664715E-009  0.9992227E+02  0.7561462E-02  0.1280459E+00
          1   -1    0    0  501    0  0.00000000000E+00  0.00000000000E+00  0.90369916318E+02  0.90369916318E+02  0.00000000000E+00 0. -1.
         -1   -1    0    0    0  501 -0.00000000000E+00 -0.00000000000E+00 -0.15583725171E+03  0.15583725171E+03  0.00000000000E+00 0.  1.
         25    2    1    2    0    0  0.15634389123E+02 -0.43262442443E+02 -0.54451166816E+02  0.14397846516E+03  0.12509514704E+03 0.  0.
          5    1    3    3  502    0  0.14748803580E+02 -0.78315246476E+02 -0.86831134061E+00  0.79806211552E+02  0.41800000000E+01 0.  1.
         -5    1    3    3    0  502  0.88558554284E+00  0.35052804033E+02 -0.53582855476E+02  0.64172253609E+02  0.41800000000E+01 0.  1.
        -11    1    1    2    0    0  0.22791487293E+02  0.40164170969E+02 -0.34000151696E+02  0.57346515483E+02  0.00000000000E+00 0.  1.
         11    1    1    2    0    0 -0.38425876416E+02  0.30982714741E+01  0.22983983120E+02  0.44882187386E+02  0.00000000000E+00 0. -1.
</event>
<event>
 7    1  0.2380582E-009  0.1281212E+03  0.7561462E-02  0.1230270E+00
         -2   -1    0    0    0  501 -0.00000000000E+00  0.00000000000E+00  0.28446481943E+02  0.28446481943E+02  0.00000000000E+00 0.  1.
          2   -1    0    0  501    0  0.00000000000E+00 -0.00000000000E+00 -0.83497950891E+03  0.83497950891E+03  0.00000000000E+00 0. -1.
         25    2    1    2    0    0  0.82544063193E+02 -0.45019674716E+02 -0.28119409409E+03  0.32180747303E+03  0.12509851184E+03 0.  0.
          5    1    3    3  502    0  0.99052818906E+01  0.36324698745E+02 -0.12954346685E+03  0.13496881326E+03  0.41800000000E+01 0.  1.
         -5    1    3    3    0  502  0.72638781302E+02 -0.81344373461E+02 -0.15165062724E+03  0.18683865977E+03  0.41800000000E+01 0.  1.
        -11    1    1    2    0    0 -0.21629791894E+02 -0.12886775486E+02 -0.29842579911E+02  0.39044800622E+02  0.00000000000E+00 0.  1.
         11    1    1    2    0    0 -0.60914271298E+02  0.57906450202E+02 -0.49549635297E+03  0.50257371721E+03  0.00000000000E+00 0. -1.
</event>
<event>
 7    1  0.2380582E-009  0.8860395E+02  0.7561462E-02  0.1306268E+00
         -1   -1    0    0    0  501 -0.00000000000E+00  0.00000000000E+00  0.99270320456E+02  0.99270320456E+02  0.00000000000E+00 0.  1.
          1   -1    0    0  501    0  0.00000000000E+00 -0.00000000000E+00 -0.13381023366E+03  0.13381023366E+03  0.00000000000E+00 0. -1.
         25    2    1    2    0    0 -0.27732739723E+02  0.41595456991E+02 -0.40114496404E+02  0.14055114201E+03  0.12508462656E+03 0.  0.
          5    1    3    3  502    0 -0.66249306626E+02  0.54987752779E+02 -0.46105157398E+01  0.86321218941E+02  0.41800000000E+01 0.  1.
         -5    1    3    3    0  502  0.38516566903E+02 -0.13392295788E+02 -0.35503980665E+02  0.54229923064E+02  0.41800000000E+01 0.  1.
        -11    1    1    2    0    0  0.11255760892E+02 -0.18291327084E+02 -0.36107674443E+02  0.42012247659E+02  0.00000000000E+00 0. -1.
         11    1    1    2    0    0  0.16476978831E+02 -0.23304129907E+02  0.41682257642E+02  0.50517164452E+02  0.00000000000E+00 0.  1.
</event>
<event>
 7    1  0.2380582E-009  0.6891166E+02  0.7561462E-02  0.1363834E+00
         -1   -1    0    0    0  501 -0.00000000000E+00  0.00000000000E+00  0.31137326122E+03  0.31137326122E+03  0.00000000000E+00 0.  1.
          1   -1    0    0  501    0  0.00000000000E+00 -0.00000000000E+00 -0.47739605891E+02  0.47739605891E+02  0.00000000000E+00 0. -1.
         25    2    1    2    0    0  0.28263663667E+02 -0.16740589843E+00  0.77846599268E+02  0.15001989883E+03  0.12508802628E+03 0.  0.
          5    1    3    3  502    0  0.32597183330E+02 -0.61266803545E+01  0.11093582842E+03  0.11586346707E+03  0.41800000000E+01 0.  1.
         -5    1    3    3    0  502 -0.43335196634E+01  0.59592744561E+01 -0.33089229155E+02  0.34156431763E+02  0.41800000000E+01 0.  1.
        -11    1    1    2    0    0 -0.51117082905E+02 -0.29075707137E+02  0.11542958089E+03  0.12954667520E+03  0.00000000000E+00 0. -1.
         11    1    1    2    0    0  0.22853419238E+02  0.29243113035E+02  0.70357475173E+02  0.79546293085E+02  0.00000000000E+00 0.  1.
</event>
<event>
 7    1  0.2380582E-009  0.1358779E+03  0.7561462E-02  0.1218986E+00
         -2   -1    0    0    0  501 -0.00000000000E+00  0.00000000000E+00  0.20974141182E+02  0.20974141182E+02  0.00000000000E+00 0.  1.
          2   -1    0    0  501    0  0.00000000000E+00 -0.00000000000E+00 -0.99159049741E+03  0.99159049741E+03  0.00000000000E+00 0. -1.
         25    2    1    2    0    0 -0.35423599120E+02  0.86712542530E+02 -0.59154274547E+03  0.61183664611E+03  0.12508942960E+03 0.  0.
          5    1    3    3  502    0 -0.72996287314E+02  0.92416078724E+02 -0.43297048921E+03  0.44872052159E+03  0.41800000000E+01 0. -1.
         -5    1    3    3    0  502  0.37572688194E+02 -0.57035361936E+01 -0.15857225626E+03  0.16311612452E+03  0.41800000000E+01 0. -1.
        -11    1    1    2    0    0 -0.17439387253E+02 -0.45262422228E+02 -0.74971628878E+02  0.89294816369E+02  0.00000000000E+00 0.  1.
         11    1    1    2    0    0  0.52862986373E+02 -0.41450120303E+02 -0.30410198188E+03  0.31143317611E+03  0.00000000000E+00 0. -1.
</event>
<event>
 7    1  0.2380582E-009  0.2834744E+03  0.7561462E-02  0.1093806E+00
          1   -1    0    0  501    0  0.00000000000E+00  0.00000000000E+00  0.55130364887E+03  0.55130364887E+03  0.00000000000E+00 0. -1.
         -1   -1    0    0    0  501 -0.00000000000E+00 -0.00000000000E+00 -0.29243877552E+03  0.29243877552E+03  0.00000000000E+00 0.  1.
         25    2    1    2    0    0  0.23864788252E+02  0.26851923187E+03 -0.15978770126E+03  0.33742219104E+03  0.12509803969E+03 0.  0.
          5    1    3    3  502    0 -0.62661194425E+01  0.25974067754E+03 -0.11903711028E+03  0.28581775635E+03  0.41800000000E+01 0.  1.
         -5    1    3    3    0  502  0.30130907695E+02  0.87785543238E+01 -0.40750590973E+02  0.51604434685E+02  0.41800000000E+01 0.  1.
        -11    1    1    2    0    0 -0.42605545564E+02 -0.18742352831E+03  0.22744210122E+03  0.29777965157E+03  0.00000000000E+00 0.  1.
         11    1    1    2    0    0  0.18740757311E+02 -0.81095703553E+02  0.19121047338E+03  0.20854058178E+03  0.00000000000E+00 0. -1.
</event>
<event>
 7    1  0.2380582E-009  0.8607305E+02  0.7561462E-02  0.1312650E+00
          1   -1    0    0  501    0  0.00000000000E+00  0.00000000000E+00  0.34693327929E+03  0.34693327929E+03  0.00000000000E+00 0. -1.
         -1   -1    0    0    0  501 -0.00000000000E+00 -0.00000000000E+00 -0.37330280232E+02  0.37330280232E+02  0.00000000000E+00 0.  1.
         25    2    1    2    0    0 -0.24508892979E+02 -0.25700475923E+02  0.19004287477E+03  0.23026960545E+03  0.12508635675E+03 0.  0.
          5    1    3    3  502    0 -0.12006838760E+02  0.22598715191E+02  0.17651368577E+03  0.17840801487E+03  0.41800000000E+01 0. -1.
         -5    1    3    3    0  502 -0.12502054219E+02 -0.48299191114E+02  0.13529188991E+02  0.51861590573E+02  0.41800000000E+01 0. -1.
        -11    1    1    2    0    0 -0.68585130046E+01 -0.30785274077E+02  0.49453688776E+02  0.58655260925E+02  0.00000000000E+00 0. -1.
         11    1    1    2    0    0  0.31367405983E+02  0.56485750000E+02  0.70106435519E+02  0.95338693154E+02  0.00000000000E+00 0.  1.
</event>
<event>
 7    1  0.2380582E-009  0.1230548E+03  0.7561462E-02  0.1238141E+00
         -1   -1    0    0    0  501 -0.00000000000E+00  0.00000000000E+00  0.32376278715E+02  0.32376278715E+02  0.00000000000E+00 0.  1.
          1   -1    0    0  501    0  0.00000000000E+00 -0.00000000000E+00 -0.66719140625E+03  0.66719140625E+03  0.00000000000E+00 0. -1.
         25    2    1    2    0    0  0.72136020334E+02 -0.56784783821E+02 -0.44615469407E+03  0.47236555706E+03  0.12508833420E+03 0.  0.
          5    1    3    3  502    0  0.10457880537E+03 -0.24980410316E+02 -0.27697501401E+03  0.29714201692E+03  0.41800000000E+01 0.  1.
         -5    1    3    3    0  502 -0.32442785036E+02 -0.31804373504E+02 -0.16917968006E+03  0.17522354014E+03  0.41800000000E+01 0.  1.
        -11    1    1    2    0    0 -0.46169665300E+02  0.27475618491E+02 -0.25614582481E+02  0.59520201958E+02  0.00000000000E+00 0.  1.
         11    1    1    2    0    0 -0.25966355034E+02  0.29309165330E+02 -0.16304585098E+03  0.16768192595E+03  0.00000000000E+00 0. -1.
</event>
<event>
 7    1  0.2380582E-009  0.2196020E+03  0.7561462E-02  0.1134180E+00
          2   -1    0    0  501    0  0.00000000000E+00  0.00000000000E+00  0.32080795914E+02  0.32080795914E+02  0.00000000000E+00 0. -1.
         -2   -1    0    0    0  501 -0.00000000000E+00 -0.00000000000E+00 -0.16239318427E+04  0.16239318427E+04  0.00000000000E+00 0.  1.
         25    2    1    2    0    0 -0.14245694912E+03 -0.13708135657E+03 -0.70557919317E+03  0.74335329581E+03  0.12508734505E+03 0.  0.
          5    1    3    3  502    0 -0.72297228296E+02 -0.42417965918E+01 -0.13433340297E+03  0.15266898052E+03  0.41800000000E+01 0.  1.
         -5    1    3    3    0  502 -0.70159720821E+02 -0.13283955997E+03 -0.57124579020E+03  0.59068431530E+03  0.41800000000E+01 0.  1.
        -11    1    1    2    0    0  0.26018603957E+02  0.84865629601E+02 -0.41726427985E+03  0.42660124481E+03  0.00000000000E+00 0.  1.
         11    1    1    2    0    0  0.11643834516E+03  0.52215726966E+02 -0.46900757376E+03  0.48605809798E+03  0.00000000000E+00 0. -1.
</event>
<event>
 7    1  0.2380582E-009  0.1091516E+03  0.7561462E-02  0.1262149E+00
         -1   -1    0    0    0  501 -0.00000000000E+00  0.00000000000E+00  0.22285515641E+03  0.22285515641E+03  0.00000000000E+00 0.  1.
          1   -1    0    0  501    0  0.00000000000E+00 -0.00000000000E+00 -0.75360138079E+02  0.75360138079E+02  0.00000000000E+00 0. -1.
         25    2    1    2    0    0 -0.45897281646E+02  0.45780464227E+02  0.43008361342E+02  0.14732044741E+03  0.12510469100E+03 0.  0.
          5    1    3    3  502    0  0.38441830223E+02  0.84787785646E+01  0.37994244951E+02  0.54869837308E+02  0.41800000000E+01 0.  1.
         -5    1    3    3    0  502 -0.84339111869E+02  0.37301685662E+02  0.50141163914E+01  0.92450610097E+02  0.41800000000E+01 0.  1.
        -11    1    1    2    0    0  0.12087863823E+01 -0.41489994097E+02  0.50756099331E+01  0.41816774037E+02  0.00000000000E+00 0. -1.
         11    1    1    2    0    0  0.44688495264E+02 -0.42904701304E+01  0.99411047055E+02  0.10907807305E+03  0.00000000000E+00 0.  1.
</event>
<event>
 7    1  0.2380582E-009  0.1345321E+03  0.7561462E-02  0.1220882E+00
         -2   -1    0    0    0  501 -0.00000000000E+00  0.00000000000E+00  0.52374001877E+02  0.52374001877E+02  0.00000000000E+00 0.  1.
          2   -1    0    0  501    0  0.00000000000E+00 -0.00000000000E+00 -0.42441590046E+03  0.42441590046E+03  0.00000000000E+00 0. -1.
         25    2    1    2    0    0 -0.91694544772E+02 -0.13367103237E+02 -0.13943691138E+03  0.20899023023E+03  0.12509074741E+03 0.  0.
          5    1    3    3  502    0 -0.25403994213E+01 -0.54602916512E+02 -0.32524635712E+02  0.63743677718E+02  0.41800000000E+01 0. -1.
         -5    1    3    3    0  502 -0.89154145351E+02  0.41235813274E+02 -0.10691227566E+03  0.14524655251E+03  0.41800000000E+01 0. -1.
        -11    1    1    2    0    0  0.10342242477E+03  0.12193220932E+02 -0.23380867290E+03  0.25595188631E+03  0.00000000000E+00 0. -1.
         11    1    1    2    0    0 -0.11727880002E+02  0.11738823051E+01  0.12036856913E+01  0.11847785795E+02  0.00000000000E+00 0.  1.
</event>
<event>
 7    1  0.2380582E-009  0.1048520E+03  0.7561462E-02  0.1270411E+00
         -3   -1    0    0    0  501 -0.00000000000E+00  0.00000000000E+00  0.23757613116E+03  0.23757613116E+03  0.00000000000E+00 0.  1.
          3   -1    0    0  501    0  0.00000000000E+00 -0.00000000000E+00 -0.12492922154E+03  0.12492922154E+03  0.00000000000E+00 0. -1.
         25    2    1    2    0    0  0.54546828150E+02 -0.35755823697E+02 -0.65045952242E+02  0.15534800591E+03  0.12509273219E+03 0.  0.
          5    1    3    3  502    0 -0.16336379769E+02 -0.37483380203E+02 -0.73102741717E+02  0.83865155708E+02  0.41800000000E+01 0. -1.
         -5    1    3    3    0  502  0.70883207919E+02  0.17275565059E+01  0.80567894752E+01  0.71482850202E+02  0.41800000000E+01 0. -1.
        -11    1    1    2    0    0 -0.63934160829E+02  0.35541145194E+01  0.15190019295E+03  0.16484500984E+03  0.00000000000E+00 0.  1.
         11    1    1    2    0    0  0.93873326786E+01  0.32201709178E+02  0.25792668915E+02  0.42312336955E+02  0.00000000000E+00 0. -1.
</event>
<event>
 7    1  0.2800855E-009  0.2267056E+03  0.7561462E-02  0.1128980E+00
          2   -1    0    0  501    0  0.00000000000E+00  0.00000000000E+00  0.15337674000E+04  0.15337674000E+04  0.00000000000E+00 0. -1.
         -2   -1    0    0    0  501 -0.00000000000E+00 -0.00000000000E+00 -0.41214193293E+02  0.41214193293E+02  0.00000000000E+00 0.  1.
         25    2    1    2    0    0  0.19453326356E+03 -0.95549948978E+02  0.97552712061E+03  0.10071117118E+04  0.12509138086E+03 0.  0.
          5    1    3    3  502    0  0.22756712078E+02 -0.22301399063E+01  0.16881516704E+02  0.28728025948E+02  0.41800000000E+01 0. -1.
         -5    1    3    3    0  502  0.17177655149E+03 -0.93319809072E+02  0.95864560390E+03  0.97838368583E+03  0.41800000000E+01 0. -1.
        -11    1    1    2    0    0 -0.82961910182E+02  0.90753719160E+02  0.28343605579E+03  0.30895778644E+03  0.00000000000E+00 0. -1.
         11    1    1    2    0    0 -0.11157135338E+03  0.47962298183E+01  0.23359003029E+03  0.25891209505E+03  0.00000000000E+00 0.  1.
</event>
<event>
 7    1  0.2380582E-009  0.6909879E+02  0.7561462E-02  0.1363185E+00
         -1   -1    0    0    0  501 -0.00000000000E+00  0.00000000000E+00  0.15419313009E+03  0.15419313009E+03  0.00000000000E+00 0.  1.
          1   -1    0    0  501    0  0.00000000000E+00 -0.00000000000E+00 -0.83473356001E+02  0.83473356001E+02  0.00000000000E+00 0. -1.
         25    2    1    2    0    0 -0.29112266565E+02  0.13291103737E+02  0.28684720492E+02  0.13226679735E+03  0.12509002754E+03 0.  0.
          5    1    3    3  502    0 -0.31354355016E+02  0.18916342084E+02 -0.45027492214E+02  0.58188237913E+02  0.41800000000E+01 0. -1.
         -5    1    3    3    0  502  0.22420884512E+01 -0.56252383468E+01  0.73712212705E+02  0.74078559442E+02  0.41800000000E+01 0. -1.
        -11    1    1    2    0    0  0.27348266731E+02  0.35693772439E+02  0.32455659395E+02  0.55455774369E+02  0.00000000000E+00 0.  1.
         11    1    1    2    0    0  0.17639998339E+01 -0.48984876176E+02  0.95793942068E+01  0.49943914372E+02  0.00000000000E+00 0. -1.
</event>
<event>
 7    1  0.2380582E-009  0.1017282E+03  0.7561462E-02  0.1276703E+00
         -2   -1    0    0    0  501 -0.00000000000E+00  0.00000000000E+00  0.39026612912E+02  0.39026612912E+02  0.00000000000E+00 0.  1.
          2   -1    0    0  501    0  0.00000000000E+00 -0.00000000000E+00 -0.49728427558E+03  0.49728427558E+03  0.00000000000E+00 0. -1.
         25    2    1    2    0    0  0.40826032316E+02 -0.87921398389E+00 -0.41049075978E+03  0.43106662080E+03  0.12509288456E+03 0.  0.
          5    1    3    3  502    0  0.75834167519E+02  0.32366873248E+02 -0.27757442061E+03  0.28959189703E+03  0.41800000000E+01 0. -1.
         -5    1    3    3    0  502 -0.35008135203E+02 -0.33246087231E+02 -0.13291633917E+03  0.14147472377E+03  0.41800000000E+01 0. -1.
        -11    1    1    2    0    0  0.84538522847E+01 -0.17825007549E+02 -0.48680672891E+02  0.52526245113E+02  0.00000000000E+00 0. -1.
         11    1    1    2    0    0 -0.49279884601E+02  0.18704221533E+02  0.91377000364E+00  0.52718022583E+02  0.00000000000E+00 0.  1.
</event>
<event>
 7    1  0.2380582E-009  0.1760359E+03  0.7561462E-02  0.1171696E+00
          3   -1    0    0  501    0  0.00000000000E+00  0.00000000000E+00  0.14381973155E+03  0.14381973155E+03  0.00000000000E+00 0. -1.
         -3   -1    0    0    0  501 -0.00000000000E+00 -0.00000000000E+00 -0.22764954090E+03  0.22764954090E+03  0.00000000000E+00 0.  1.
         25    2    1    2    0    0  0.13814272655E+03 -0.16311592425E+02 -0.47924595582E+01  0.18713580871E+03  0.12508941716E+03 0.  0.
          5    1    3    3  502    0  0.14728621420E+03  0.19678279431E+02  0.41550314337E+01  0.14871180270E+03  0.41800000000E+01 0.  1.
         -5    1    3    3    0  502 -0.91434876530E+01 -0.35989871856E+02 -0.89474909919E+01  0.38424006008E+02  0.41800000000E+01 0.  1.
        -11    1    1    2    0    0 -0.34153938624E+02  0.46567247623E+02 -0.20902794104E+02  0.61416014818E+02  0.00000000000E+00 0.  1.
         11    1    1    2    0    0 -0.10398878792E+03 -0.30255655199E+02 -0.58134555689E+02  0.12291744893E+03  0.00000000000E+00 0. -1.
</event>
<event>
 7    1  0.2380582E-009  0.9404824E+02  0.7561462E-02  0.1293334E+00
         -1   -1    0    0    0  501 -0.00000000000E+00  0.00000000000E+00  0.10383406657E+03  0.10383406657E+03  0.00000000000E+00 0.  1.
          1   -1    0    0  501    0  0.00000000000E+00 -0.00000000000E+00 -0.19843868851E+03  0.19843868851E+03  0.00000000000E+00 0. -1.
         25    2    1    2    0    0 -0.95947738945E+01  0.42439906677E+02 -0.13772236352E+03  0.19107026439E+03  0.12508873312E+03 0.  0.
          5    1    3    3  502    0  0.27886863912E+02 -0.18728897029E+02  0.20432172295E+01  0.33913063846E+02  0.41800000000E+01 0. -1.
         -5    1    3    3    0  502 -0.37481637806E+02  0.61168803707E+02 -0.13976558075E+03  0.15715720054E+03  0.41800000000E+01 0. -1.
        -11    1    1    2    0    0 -0.26657198013E+02 -0.11647143552E+00  0.48369374581E+02  0.55228762152E+02  0.00000000000E+00 0.  1.
         11    1    1    2    0    0  0.36251971907E+02 -0.42323435242E+02 -0.52516330068E+01  0.55973728543E+02  0.00000000000E+00 0. -1.
</event>
<event>
 7    1  0.2380582E-009  0.1405461E+03  0.7561462E-02  0.1212596E+00
          2   -1    0    0  501    0  0.00000000000E+00  0.00000000000E+00  0.46085645728E+03  0.46085645728E+03  0.00000000000E+00 0.  1.
         -2   -1    0    0    0  501 -0.00000000000E+00 -0.00000000000E+00 -0.54948162537E+02  0.54948162537E+02  0.00000000000E+00 0. -1.
         25    2    1    2    0    0  0.67959317287E+02 -0.85679021091E+02  0.27710694553E+03  0.32310151512E+03  0.12508783454E+03 0.  0.
          5    1    3    3  502    0  0.58541156187E+01  0.17947917943E+02 -0.15057158442E+01  0.19394277723E+02  0.41800000000E+01 0. -1.
         -5    1    3    3    0  502  0.62105201668E+02 -0.10362693903E+03  0.27861266138E+03  0.30370723740E+03  0.41800000000E+01 0. -1.
        -11    1    1    2    0    0  0.15656510270E+02  0.45471372613E+02  0.27770519784E+02  0.55533537706E+02  0.00000000000E+00 0. -1.
         11    1    1    2    0    0 -0.83615827557E+02  0.40207648478E+02  0.10103082943E+03  0.13716956699E+03  0.00000000000E+00 0.  1.
</event>
<event>
 7    1  0.2380582E-009  0.1138042E+03  0.7561462E-02  0.1253683E+00
          1   -1    0    0  501    0  0.00000000000E+00  0.00000000000E+00  0.72815364212E+03  0.72815364212E+03  0.00000000000E+00 0. -1.
         -1   -1    0    0    0  501 -0.00000000000E+00 -0.00000000000E+00 -0.19333453218E+02  0.19333453218E+02  0.00000000000E+00 0.  1.
         25    2    1    2    0    0 -0.39360076348E+02  0.19438235062E+02  0.46095288071E+03  0.47963614094E+03  0.12508480672E+03 0.  0.
          5    1    3    3  502    0  0.27140606912E+02  0.51651707053E+02  0.19658280383E+03  0.20510188334E+03  0.41800000000E+01 0. -1.
         -5    1    3    3    0  502 -0.66500683260E+02 -0.32213471990E+02  0.26437007688E+03  0.27453425761E+03  0.41800000000E+01 0. -1.
        -11    1    1    2    0    0  0.54524547415E+02 -0.41365619977E+02  0.21442385614E+03  0.22508138721E+03  0.00000000000E+00 0. -1.
         11    1    1    2    0    0 -0.15164471066E+02  0.21927384915E+02  0.33443452053E+02  0.42769567184E+02  0.00000000000E+00 0.  1.
</event>
<event>
 7    1  0.2380582E-009  0.1172262E+03  0.7561462E-02  0.1247744E+00
         -2   -1    0    0    0  501 -0.00000000000E+00  0.00000000000E+00  0.40963846660E+02  0.40963846660E+02  0.00000000000E+00 0.  1.
          2   -1    0    0  501    0  0.00000000000E+00 -0.00000000000E+00 -0.43337942623E+03  0.43337942623E+03  0.00000000000E+00 0. -1.
         25    2    1    2    0    0 -0.39179765483E+02  0.63532938209E+02 -0.19045573567E+03  0.23977447501E+03  0.12508766268E+03 0.  0.
          5    1    3    3  502    0 -0.42459919114E+02  0.99590400427E+02 -0.13054457661E+03  0.16964802230E+03  0.41800000000E+01 0. -1.
         -5    1    3    3    0  502  0.32801536304E+01 -0.36057462219E+02 -0.59911159057E+02  0.70126452706E+02  0.41800000000E+01 0. -1.
        -11    1    1    2    0    0  0.35877567940E+02 -0.11720705915E+02 -0.16879333303E+03  0.17296174174E+03  0.00000000000E+00 0. -1.
         11    1    1    2    0    0  0.33021975437E+01 -0.51812232294E+02 -0.33166510873E+02  0.61607056149E+02  0.00000000000E+00 0.  1.
</event>
<event>
 7    1  0.2380582E-009  0.3461232E+03  0.7561462E-02  0.1064218E+00
         -1   -1    0    0    0  501 -0.00000000000E+00  0.00000000000E+00  0.37161211193E+03  0.37161211193E+03  0.00000000000E+00 0.  1.
          1   -1    0    0  501    0  0.00000000000E+00 -0.00000000000E+00 -0.41094699622E+03  0.41094699622E+03  0.00000000000E+00 0. -1.
         25    2    1    2    0    0  0.18609297609E+03 -0.27612304980E+03  0.15157486172E+03  0.38664604288E+03  0.12508273016E+03 0.  0.
          5    1    3    3  502    0  0.16383829665E+03 -0.16709353731E+03  0.14450013788E+03  0.27506544659E+03  0.41800000000E+01 0.  1.
         -5    1    3    3    0  502  0.22254679448E+02 -0.10902951249E+03  0.70747238383E+01  0.11158059629E+03  0.41800000000E+01 0.  1.
        -11    1    1    2    0    0 -0.10894271633E+03  0.77328690840E+02 -0.74702212091E+02  0.15306424259E+03  0.00000000000E+00 0.  1.
         11    1    1    2    0    0 -0.77150259762E+02  0.19879435896E+03 -0.11620753392E+03  0.24284882268E+03  0.00000000000E+00 0. -1.
</event>
<event>
 7    1  0.2380582E-009  0.1003517E+03  0.7561462E-02  0.1279558E+00
          1   -1    0    0  501    0  0.00000000000E+00  0.00000000000E+00  0.63509309875E+02  0.63509309875E+02  0.00000000000E+00 0. -1.
         -1   -1    0    0    0  501 -0.00000000000E+00 -0.00000000000E+00 -0.21941031612E+03  0.21941031612E+03  0.00000000000E+00 0.  1.
         25    2    1    2    0    0  0.32995553999E+02 -0.23201105657E+02 -0.62278030736E+02  0.14543890702E+03  0.12508766796E+03 0.  0.
          5    1    3    3  502    0 -0.44175181407E+02  0.52614006974E+01 -0.46582871700E+01  0.44925505329E+02  0.41800000000E+01 0.  1.
         -5    1    3    3    0  502  0.77170735406E+02 -0.28462506354E+02 -0.57619743565E+02  0.10051340169E+03  0.41800000000E+01 0.  1.
        -11    1    1    2    0    0  0.15445917205E+01 -0.19036714394E+02  0.91074876583E+01  0.21159598057E+02  0.00000000000E+00 0. -1.
         11    1    1    2    0    0 -0.34540145719E+02  0.42237820050E+02 -0.10273046317E+03  0.11632112092E+03  0.00000000000E+00 0.  1.
</event>
<event>
 7    1  0.2380582E-009  0.1051465E+03  0.7561462E-02  0.1269831E+00
         -2   -1    0    0    0  501 -0.00000000000E+00  0.00000000000E+00  0.52102895630E+02  0.52102895630E+02  0.00000000000E+00 0. -1.
          2   -1    0    0  501    0  0.00000000000E+00 -0.00000000000E+00 -0.27671038064E+03  0.27671038064E+03  0.00000000000E+00 0.  1.
         25    2    1    2    0    0 -0.26596629616E+02  0.40318928255E+02 -0.15144906744E+03  0.20227804348E+03  0.12508633083E+03 0.  0.
          5    1    3    3  502    0 -0.71174343170E+02  0.51282389690E+02 -0.10406304607E+03  0.13616996943E+03  0.41800000000E+01 0.  1.
         -5    1    3    3    0  502  0.44577713555E+02 -0.10963461435E+02 -0.47386021369E+02  0.66108074042E+02  0.41800000000E+01 0.  1.
        -11    1    1    2    0    0 -0.16431829320E+02 -0.26497168956E+02 -0.75084192784E+02  0.81300313551E+02  0.00000000000E+00 0. -1.
         11    1    1    2    0    0  0.43028458935E+02 -0.13821759299E+02  0.19257752170E+01  0.45234919240E+02  0.00000000000E+00 0.  1.
</event>
<event>
 7    1  0.2380582E-009  0.1092260E+03  0.7561462E-02  0.1262010E+00
          2   -1    0    0  501    0  0.00000000000E+00  0.00000000000E+00  0.88168833163E+02  0.88168833163E+02  0.00000000000E+00 0. -1.
         -2   -1    0    0    0  501 -0.00000000000E+00 -0.00000000000E+00 -0.18663410857E+03  0.18663410857E+03  0.00000000000E+00 0.  1.
         25    2    1    2    0    0  0.15889297998E+02 -0.60673079797E+02 -0.83582403096E+02  0.16299434572E+03  0.12508975269E+03 0.  0.
          5    1    3    3  502    0 -0.11889612389E+02 -0.93361199159E+02 -0.71391958923E+02  0.11820304814E+03  0.41800000000E+01 0. -1.
         -5    1    3    3    0  502  0.27778910387E+02  0.32688119362E+02 -0.12190444174E+02  0.44791297580E+02  0.41800000000E+01 0. -1.
        -11    1    1    2    0    0 -0.25181380804E+02  0.65854316457E+02 -0.42423865970E+02  0.82284125680E+02  0.00000000000E+00 0.  1.
         11    1    1    2    0    0  0.92920828061E+01 -0.51812366601E+01  0.27540993663E+02  0.29524470328E+02  0.00000000000E+00 0. -1.
</event>
<event>
 7    1  0.2380582E-009  0.1051059E+03  0.7561462E-02  0.1269911E+00
          2   -1    0    0  501    0  0.00000000000E+00  0.00000000000E+00  0.69416984973E+03  0.69416984973E+03  0.00000000000E+00 0. -1.
         -2   -1    0    0    0  501 -0.00000000000E+00 -0.00000000000E+00 -0.21970635673E+02  0.21970635673E+02  0.00000000000E+00 0.  1.
         25    2    1    2    0    0  0.17824997434E+02 -0.31577570108E+02  0.48514040196E+03  0.50231929592E+03  0.12509433228E+03 0.  0.
          5    1    3    3  502    0 -0.42270773704E+02  0.24116847313E+01  0.73644785633E+02  0.85050934055E+02  0.41800000000E+01 0. -1.
         -5    1    3    3    0  502  0.60095771138E+02 -0.33989254839E+02  0.41149561633E+03  0.41726836186E+03  0.41800000000E+01 0. -1.
        -11    1    1    2    0    0 -0.41792794563E+02 -0.16377445587E+02  0.53084297972E+02  0.69518350761E+02  0.00000000000E+00 0.  1.
         11    1    1    2    0    0  0.23967797128E+02  0.47955015695E+02  0.13397451413E+03  0.14430283873E+03  0.00000000000E+00 0. -1.
</event>
<event>
 7    1  0.2380582E-009  0.1585410E+03  0.7561462E-02  0.1190354E+00
         -1   -1    0    0    0  501 -0.00000000000E+00  0.00000000000E+00  0.69328040811E+02  0.69328040811E+02  0.00000000000E+00 0.  1.
          1   -1    0    0  501    0  0.00000000000E+00 -0.00000000000E+00 -0.41387670353E+03  0.41387670353E+03  0.00000000000E+00 0. -1.
         25    2    1    2    0    0 -0.12702289344E+03  0.27888023001E+02 -0.18591875335E+03  0.25908823302E+03  0.12509345450E+03 0.  0.
          5    1    3    3  502    0  0.92115889399E+01  0.26913798550E+02 -0.84318034400E+02  0.89085404238E+02  0.41800000000E+01 0.  1.
         -5    1    3    3    0  502 -0.13623448238E+03  0.97422445141E+00 -0.10160071895E+03  0.17000282878E+03  0.41800000000E+01 0.  1.
        -11    1    1    2    0    0  0.20989253327E+02  0.25732841584E+02 -0.11821590619E+02  0.35248799922E+02  0.00000000000E+00 0.  1.
         11    1    1    2    0    0  0.10603364011E+03 -0.53620864585E+02 -0.14680831876E+03  0.18886771141E+03  0.00000000000E+00 0. -1.
</event>
<event>
 7    1  0.2380582E-009  0.1311716E+03  0.7561462E-02  0.1225728E+00
         -2   -1    0    0    0  501 -0.00000000000E+00  0.00000000000E+00  0.34959109790E+02  0.34959109790E+02  0.00000000000E+00 0.  1.
          2   -1    0    0  501    0  0.00000000000E+00 -0.00000000000E+00 -0.68461742321E+03  0.68461742321E+03  0.00000000000E+00 0. -1.
         25    2    1    2    0    0  0.30300497841E+01  0.10875399865E+03 -0.32466144762E+03  0.36453960726E+03  0.12508979281E+03 0.  0.
          5    1    3    3  502    0  0.28060692015E+02  0.36861096621E+02 -0.26129774350E+03  0.26540558781E+03  0.41800000000E+01 0.  1.
         -5    1    3    3    0  502 -0.25030642231E+02  0.71892902031E+02 -0.63363704114E+02  0.99134019449E+02  0.41800000000E+01 0.  1.
        -11    1    1    2    0    0  0.41424601121E+02 -0.65918969365E+02 -0.14249326789E+03  0.16237499652E+03  0.00000000000E+00 0.  1.
         11    1    1    2    0    0 -0.44454650905E+02 -0.42835029287E+02 -0.18250359791E+03  0.19266192922E+03  0.00000000000E+00 0. -1.
</event>
<event>
 7    1  0.2380582E-009  0.4647777E+02  0.7561462E-02  0.1465322E+00
         -1   -1    0    0    0  501 -0.00000000000E+00  0.00000000000E+00  0.20359005163E+02  0.20359005163E+02  0.00000000000E+00 0.  1.
          1   -1    0    0  501    0  0.00000000000E+00 -0.00000000000E+00 -0.61601297169E+03  0.61601297169E+03  0.00000000000E+00 0. -1.
         25    2    1    2    0    0  0.77427177659E+01  0.18554640398E+01 -0.41345605733E+03  0.43203777310E+03  0.12508930254E+03 0.  0.
          5    1    3    3  502    0 -0.89718585921E+01 -0.12056070660E+02 -0.40918859281E+03  0.40948579948E+03  0.41800000000E+01 0. -1.
         -5    1    3    3    0  502  0.16714576358E+02  0.13911534699E+02 -0.42674645202E+01  0.22551973615E+02  0.41800000000E+01 0. -1.
        -11    1    1    2    0    0  0.76694580240E+01  0.23953776387E+02 -0.63573485034E+01  0.25942626497E+02  0.00000000000E+00 0.  1.
         11    1    1    2    0    0 -0.15412175790E+02 -0.25809240427E+02 -0.17584056069E+03  0.17839157726E+03  0.00000000000E+00 0. -1.
</event>
<event>
 7    1  0.2380582E-009  0.1018723E+03  0.7561462E-02  0.1276407E+00
          2   -1    0    0  501    0  0.00000000000E+00  0.00000000000E+00  0.24824238737E+03  0.24824238737E+03  0.00000000000E+00 0.  1.
         -2   -1    0    0    0  501 -0.00000000000E+00 -0.00000000000E+00 -0.52381002204E+02  0.52381002204E+02  0.00000000000E+00 0. -1.
         25    2    1    2    0    0  0.27232455492E+02 -0.22060375439E+02  0.12747999883E+03  0.18200883956E+03  0.12509116988E+03 0.  0.
          5    1    3    3  502    0 -0.14473806741E+01  0.39594431432E+02  0.28113023093E+01  0.39939826388E+02  0.41800000000E+01 0. -1.
         -5    1    3    3    0  502  0.28679836166E+02 -0.61654806871E+02  0.12466869652E+03  0.14206901317E+03  0.41800000000E+01 0. -1.
        -11    1    1    2    0    0 -0.31290984455E+02 -0.30123890999E+02  0.40128483827E+02  0.59134336315E+02  0.00000000000E+00 0.  1.
         11    1    1    2    0    0  0.40585289630E+01  0.52184266438E+02  0.28252902512E+02  0.59480213696E+02  0.00000000000E+00 0. -1.
</event>
<event>
 7    1  0.2719053E-009  0.1153595E+03  0.7561462E-02  0.1250955E+00
         -1   -1    0    0    0  501 -0.00000000000E+00  0.00000000000E+00  0.47737283011E+02  0.47737283011E+02  0.00000000000E+00 0.  1.
          1   -1    0    0  501    0  0.00000000000E+00 -0.00000000000E+00 -0.46271358793E+03  0.46271358793E+03  0.00000000000E+00 0. -1.
         25    2    1    2    0    0  0.34523673316E+02 -0.92292907833E+02 -0.18409823880E+03  0.24341376192E+03  0.12509289791E+03 0.  0.
          5    1    3    3  502    0 -0.13123392602E+02 -0.11970117609E+02  0.14895113001E+02  0.23555125562E+02  0.41800000000E+01 0.  1.
         -5    1    3    3    0  502  0.47647065917E+02 -0.80322790224E+02 -0.19899335180E+03  0.21985863635E+03  0.41800000000E+01 0.  1.
        -11    1    1    2    0    0 -0.24873270053E+02 -0.12902774214E+01 -0.97847552953E+01  0.26759779803E+02  0.00000000000E+00 0.  1.
         11    1    1    2    0    0 -0.96504032629E+01  0.93583185254E+02 -0.22109331083E+03  0.24027732922E+03  0.00000000000E+00 0. -1.
</event>
<event>
 7    1  0.2380582E-009  0.1911962E+03  0.7561462E-02  0.1157387E+00
         -2   -1    0    0    0  501 -0.00000000000E+00  0.00000000000E+00  0.46278903818E+03  0.46278903818E+03  0.00000000000E+00 0.  1.
          2   -1    0    0  501    0  0.00000000000E+00 -0.00000000000E+00 -0.89087213329E+02  0.89087213329E+02  0.00000000000E+00 0. -1.
         25    2    1    2    0    0  0.44841396767E+02 -0.16396239645E+03  0.19330878102E+03  0.28620023823E+03  0.12509145945E+03 0.  0.
          5    1    3    3  502    0  0.87043758198E+02 -0.10233588514E+03  0.10567980478E+03  0.17098228787E+03  0.41800000000E+01 0.  1.
         -5    1    3    3    0  502 -0.42202361431E+02 -0.61626511316E+02  0.87628976242E+02  0.11521795036E+03  0.41800000000E+01 0.  1.
        -11    1    1    2    0    0 -0.13435017309E+01  0.65675694410E+02  0.13335811890E+02  0.67029439144E+02  0.00000000000E+00 0. -1.
         11    1    1    2    0    0 -0.43497895036E+02  0.98286702044E+02  0.16705723193E+03  0.19864657413E+03  0.00000000000E+00 0.  1.
</event>
<event>
 7    1  0.2380582E-009  0.2147209E+03  0.7561462E-02  0.1137881E+00
         -2   -1    0    0    0  501 -0.00000000000E+00  0.00000000000E+00  0.66133905154E+03  0.66133905154E+03  0.00000000000E+00 0. -1.
          2   -1    0    0  501    0  0.00000000000E+00 -0.00000000000E+00 -0.39656458174E+03  0.39656458174E+03  0.00000000000E+00 0.  1.
         25    2    1    2    0    0 -0.48041052374E+02 -0.19112008072E+03  0.60839322893E+03  0.65163223462E+03  0.12508964874E+03 0.  0.
          5    1    3    3  502    0 -0.65816420730E+02 -0.34073324203E+02  0.22458725181E+03  0.23653688662E+03  0.41800000000E+01 0. -1.
         -5    1    3    3    0  502  0.17775368356E+02 -0.15704675651E+03  0.38380597712E+03  0.41509534799E+03  0.41800000000E+01 0. -1.
        -11    1    1    2    0    0  0.25780506273E+02  0.94378913836E+02 -0.86267779827E+02  0.13043827551E+03  0.00000000000E+00 0. -1.
         11    1    1    2    0    0  0.22260546101E+02  0.96741166882E+02 -0.25735097930E+03  0.27583312316E+03  0.00000000000E+00 0.  1.
</event>
<event>
 7    1  0.2380582E-009  0.6788894E+02  0.7561462E-02  0.1367423E+00
          1   -1    0    0  501    0  0.00000000000E+00  0.00000000000E+00  0.29057103295E+02  0.29057103295E+02  0.00000000000E+00 0. -1.
         -1   -1    0    0    0  501 -0.00000000000E+00 -0.00000000000E+00 -0.52252323140E+03  0.52252323140E+03  0.00000000000E+00 0.  1.
         25    2    1    2    0    0  0.34968697606E+02  0.26286867220E+02 -0.40682420183E+03  0.42786367639E+03  0.12509030808E+03 0.  0.
          5    1    3    3  502    0  0.35617964798E+02  0.15060396651E+02 -0.41268337994E+03  0.41451236344E+03  0.41800000000E+01 0.  1.
         -5    1    3    3    0  502 -0.64926719166E+00  0.11226470569E+02  0.58591781111E+01  0.13351312949E+02  0.41800000000E+01 0.  1.
        -11    1    1    2    0    0 -0.50106843747E+02  0.47713128182E+01 -0.33971418173E+02  0.60724941079E+02  0.00000000000E+00 0.  1.
         11    1    1    2    0    0  0.15138146141E+02 -0.31058180038E+02 -0.52670508106E+02  0.62991717234E+02  0.00000000000E+00 0. -1.
</event>
<event>
 7    1  0.2380582E-009  0.9739913E+02  0.7561462E-02  0.1285862E+00
         -2   -1    0    0    0  501 -0.00000000000E+00  0.00000000000E+00  0.17382102573E+03  0.17382102573E+03  0.00000000000E+00 0. -1.
          2   -1    0    0  501    0  0.00000000000E+00 -0.00000000000E+00 -0.76460105434E+02  0.76460105434E+02  0.00000000000E+00 0.  1.
         25    2    1    2    0    0 -0.22284907879E+02 -0.30909638113E+02  0.43025999961E+02  0.13766135584E+03  0.12508952543E+03 0.  0.
          5    1    3    3  502    0 -0.52611934019E+02 -0.63061604232E+02  0.43981479965E+02  0.93255694247E+02  0.41800000000E+01 0.  1.
         -5    1    3    3    0  502  0.30327026140E+02  0.32151966119E+02 -0.95548000385E+00  0.44405661597E+02  0.41800000000E+01 0.  1.
        -11    1    1    2    0    0  0.28116043426E+02  0.44920567173E+02 -0.32257582597E+01  0.53092134722E+02  0.00000000000E+00 0.  1.
         11    1    1    2    0    0 -0.58311355464E+01 -0.14010929059E+02  0.57560678597E+02  0.59527640600E+02  0.00000000000E+00 0. -1.
</event>
<event>
 7    1  0.2380582E-009  0.1255699E+03  0.7561462E-02  0.1234181E+00
          2   -1    0    0  501    0  0.00000000000E+00  0.00000000000E+00  0.54767715089E+02  0.54767715089E+02  0.00000000000E+00 0. -1.
         -2   -1    0    0    0  501 -0.00000000000E+00 -0.00000000000E+00 -0.45537453769E+03  0.45537453769E+03  0.00000000000E+00 0.  1.
         25    2    1    2    0    0 -0.68712009109E+02  0.22229320236E+02 -0.34899235036E+03  0.37770192874E+03  0.12509038131E+03 0.  0.
          5    1    3    3  502    0  0.34567016762E+02  0.20832270721E+02 -0.84857084017E+02  0.94058807451E+02  0.41800000000E+01 0. -1.
         -5    1    3    3    0  502 -0.10327902587E+03  0.13970495148E+01 -0.26413526634E+03  0.28364312129E+03  0.41800000000E+01 0. -1.
        -11    1    1    2    0    0  0.65666750173E+02 -0.47938186413E+02 -0.79667389372E+01  0.81692476545E+02  0.00000000000E+00 0. -1.
         11    1    1    2    0    0  0.30452589358E+01  0.25708866177E+02 -0.43647733311E+02  0.50747847494E+02  0.00000000000E+00 0.  1.
</event>
<event>
 7    1  0.2380582E-009  0.7091570E+02  0.7561462E-02  0.1357007E+00
         -1   -1    0    0    0  501 -0.00000000000E+00  0.00000000000E+00  0.20656911583E+03  0.20656911583E+03  0.00000000000E+00 0.  1.
          1   -1    0    0  501    0  0.00000000000E+00 -0.00000000000E+00 -0.96497500603E+02  0.96497500603E+02  0.00000000000E+00 0. -1.
         25    2    1    2    0    0  0.23947830361E+02  0.59360154499E+02 -0.98718784848E+01  0.14086186166E+03  0.12508990193E+03 0.  0.
          5    1    3    3  502    0  0.26430279058E+02  0.53360583993E+02  0.51601344695E+02  0.78905530538E+02  0.41800000000E+01 0. -1.
         -5    1    3    3    0  502 -0.24824486970E+01  0.59995705064E+01 -0.61473223179E+02  0.61956331120E+02  0.41800000000E+01 0. -1.
        -11    1    1    2    0    0 -0.27823198534E+02 -0.18591901759E+02 -0.20451648319E+01  0.33525689954E+02  0.00000000000E+00 0. -1.
         11    1    1    2    0    0  0.38753681737E+01 -0.40768252740E+02  0.12198865854E+03  0.12867906482E+03  0.00000000000E+00 0.  1.
</event>
<event>
 7    1  0.2380582E-009  0.1394664E+03  0.7561462E-02  0.1214049E+00
         -2   -1    0    0    0  501 -0.00000000000E+00  0.00000000000E+00  0.24287052590E+02  0.24287052590E+02  0.00000000000E+00 0.  1.
          2   -1    0    0  501    0  0.00000000000E+00 -0.00000000000E+00 -0.11906904806E+04  0.11906904806E+04  0.00000000000E+00 0. -1.
         25    2    1    2    0    0 -0.62958566935E+02  0.11249332479E+03 -0.55235860350E+03  0.58083231957E+03  0.12509047655E+03 0.  0.
          5    1    3    3  502    0 -0.33503664595E+02  0.21435872407E+02 -0.30611206901E+02  0.50363782176E+02  0.41800000000E+01 0. -1.
         -5    1    3    3    0  502 -0.29454902340E+02  0.91057452379E+02 -0.52174739660E+03  0.53046853739E+03  0.41800000000E+01 0. -1.
        -11    1    1    2    0    0  0.41554141113E+02 -0.11434441899E+03 -0.58765180849E+03  0.60011335664E+03  0.00000000000E+00 0. -1.
         11    1    1    2    0    0  0.21404425822E+02  0.18510942070E+01 -0.26393015999E+02  0.34031856958E+02  0.00000000000E+00 0.  1.
</event>
<event>
 7    1  0.3534241E-009  0.7910750E+02  0.7561462E-02  0.1331603E+00
         -2   -1    0    0    0  501 -0.00000000000E+00  0.00000000000E+00  0.56815849598E+02  0.56815849598E+02  0.00000000000E+00 0.  1.
          2   -1    0    0  501    0  0.00000000000E+00 -0.00000000000E+00 -0.26881505891E+03  0.26881505891E+03  0.00000000000E+00 0. -1.
         25    2    1    2    0    0 -0.31627771518E+02 -0.24183155300E+02 -0.61191389960E+02  0.14483399162E+03  0.12508940000E+03 0.  0.
          5    1    3    3  502    0 -0.31247606318E+02 -0.63852061775E+02 -0.74232431410E+02  0.10286605352E+03  0.41800000000E+01 0.  1.
         -5    1    3    3    0  502 -0.38016520028E+00  0.39668906475E+02  0.13041041450E+02  0.41967938102E+02  0.41800000000E+01 0.  1.
        -11    1    1    2    0    0 -0.21063858533E+01  0.10501848698E+02  0.10757953030E+02  0.15180884060E+02  0.00000000000E+00 0.  1.
         11    1    1    2    0    0  0.33734157371E+02  0.13681306603E+02 -0.16156577238E+03  0.16561603283E+03  0.00000000000E+00 0. -1.
</event>
<event>
 7    1  0.2380582E-009  0.9962341E+02  0.7561462E-02  0.1281090E+00
          1   -1    0    0  501    0  0.00000000000E+00  0.00000000000E+00  0.12623116491E+02  0.12623116491E+02  0.00000000000E+00 0. -1.
         -1   -1    0    0    0  501 -0.00000000000E+00 -0.00000000000E+00 -0.13160624233E+04  0.13160624233E+04  0.00000000000E+00 0.  1.
         25    2    1    2    0    0 -0.27695201245E+02  0.19850850628E+02 -0.10495131625E+04  0.10574908058E+04  0.12509134964E+03 0.  0.
          5    1    3    3  502    0  0.21371603308E+02  0.50283867483E+02 -0.77528092825E+03  0.77721503000E+03  0.41800000000E+01 0. -1.
         -5    1    3    3    0  502 -0.49066804553E+02 -0.30433016855E+02 -0.27423223422E+03  0.28027577582E+03  0.41800000000E+01 0. -1.
        -11    1    1    2    0    0  0.38720162356E+02  0.21138458040E+02 -0.72476096670E+02  0.84846154714E+02  0.00000000000E+00 0. -1.
         11    1    1    2    0    0 -0.11024961111E+02 -0.40989308667E+02 -0.18145004771E+03  0.18634857930E+03  0.00000000000E+00 0.  1.
</event>
<event>
 7    1  0.2380582E-009  0.1189440E+03  0.7561462E-02  0.1244849E+00
         -4   -1    0    0    0  501 -0.00000000000E+00  0.00000000000E+00  0.31525957166E+03  0.31525957166E+03  0.00000000000E+00 0. -1.
          4   -1    0    0  501    0  0.00000000000E+00 -0.00000000000E+00 -0.84087626672E+02  0.84087626672E+02  0.00000000000E+00 0.  1.
         25    2    1    2    0    0  0.47657197264E+02  0.13786962916E+02  0.25934782022E+03  0.29218175508E+03  0.12509035674E+03 0.  0.
          5    1    3    3  502    0  0.23292835990E+01  0.65483084505E+02  0.12345163190E+03  0.13982574061E+03  0.41800000000E+01 0. -1.
         -5    1    3    3    0  502  0.45327913665E+02 -0.51696121590E+02  0.13589618832E+03  0.15235601447E+03  0.41800000000E+01 0. -1.
        -11    1    1    2    0    0 -0.71779693412E+02  0.61662769259E+01 -0.18172426766E+02  0.74300635610E+02  0.00000000000E+00 0.  1.
         11    1    1    2    0    0  0.24122496148E+02 -0.19953239841E+02 -0.10003448462E+02  0.32864807647E+02  0.00000000000E+00 0. -1.
</event>
<event>
 7    1  0.2380582E-009  0.1268490E+03  0.7561462E-02  0.1232208E+00
          2   -1    0    0  501    0  0.00000000000E+00  0.00000000000E+00  0.42038273397E+03  0.42038273397E+03  0.00000000000E+00 0.  1.
         -2   -1    0    0    0  501 -0.00000000000E+00 -0.00000000000E+00 -0.41951067012E+02  0.41951067012E+02  0.00000000000E+00 0. -1.
         25    2    1    2    0    0  0.36929063861E+02  0.56971889574E+02  0.26282346872E+03  0.29888656125E+03  0.12508976308E+03 0.  0.
          5    1    3    3  502    0 -0.30284408963E+01  0.89412245612E+02  0.14804815302E+03  0.17303019717E+03  0.41800000000E+01 0. -1.
         -5    1    3    3    0  502  0.39957504758E+02 -0.32440356038E+02  0.11477531570E+03  0.12585636409E+03  0.41800000000E+01 0. -1.
        -11    1    1    2    0    0 -0.15004917083E+02 -0.79594250010E+02  0.98746355918E+02  0.12771544534E+03  0.00000000000E+00 0. -1.
         11    1    1    2    0    0 -0.21924146779E+02  0.22622360436E+02  0.16861842315E+02  0.35731794384E+02  0.00000000000E+00 0.  1.
</event>
<event>
 7    1  0.2380582E-009  0.1180996E+03  0.7561462E-02  0.1246265E+00
          2   -1    0    0  501    0  0.00000000000E+00  0.00000000000E+00  0.23085862203E+03  0.23085862203E+03  0.00000000000E+00 0.  1.
         -2   -1    0    0    0  501 -0.00000000000E+00 -0.00000000000E+00 -0.70557269712E+02  0.70557269712E+02  0.00000000000E+00 0. -1.
         25    2    1    2    0    0 -0.53490562488E+02 -0.85996903772E+01  0.13442952107E+03  0.19145175461E+03  0.12508910127E+03 0.  0.
          5    1    3    3  502    0 -0.72276095929E+02  0.36851681708E+02  0.10895870483E+03  0.13590935304E+03  0.41800000000E+01 0.  1.
         -5    1    3    3    0  502  0.18785533441E+02 -0.45451372085E+02  0.25470816244E+02  0.55542401561E+02  0.41800000000E+01 0.  1.
        -11    1    1    2    0    0  0.75770929488E+02 -0.10198076916E+02  0.26178162109E+02  0.80811699027E+02  0.00000000000E+00 0. -1.
         11    1    1    2    0    0 -0.22280367000E+02  0.18797767294E+02 -0.30633086645E+00  0.29152438105E+02  0.00000000000E+00 0.  1.
</event>
<event>
 7    1  0.2380582E-009  0.1110049E+03  0.7561462E-02  0.1258720E+00
          2   -1    0    0  501    0  0.00000000000E+00  0.00000000000E+00  0.13210601603E+03  0.13210601603E+03  0.00000000000E+00 0. -1.
         -2   -1    0    0    0  501 -0.00000000000E+00 -0.00000000000E+00 -0.17399892679E+03  0.17399892679E+03  0.00000000000E+00 0.  1.
         25    2    1    2    0    0 -0.18035519557E+02 -0.87196666465E+02  0.34328632639E+02  0.15733475533E+03  0.12508889483E+03 0.  0.
          5    1    3    3  502    0 -0.56184873770E+02 -0.29606445474E+02 -0.22788895368E+02  0.67602424559E+02  0.41800000000E+01 0. -1.
         -5    1    3    3    0  502  0.38149354213E+02 -0.57590220991E+02  0.57117528007E+02  0.89732330775E+02  0.41800000000E+01 0. -1.
        -11    1    1    2    0    0  0.10964731662E+02  0.63100644222E+02  0.45279243286E+01  0.64206064670E+02  0.00000000000E+00 0. -1.
         11    1    1    2    0    0  0.70707878945E+01  0.24096022243E+02 -0.80749467727E+02  0.84564122816E+02  0.00000000000E+00 0.  1.
</event>
<event>
 7    1  0.2380582E-009  0.1132325E+03  0.7561462E-02  0.1254698E+00
          2   -1    0    0  501    0  0.00000000000E+00  0.00000000000E+00  0.20662790679E+03  0.20662790679E+03  0.00000000000E+00 0. -1.
         -2   -1    0    0    0  501 -0.00000000000E+00 -0.00000000000E+00 -0.65053747109E+02  0.65053747109E+02  0.00000000000E+00 0.  1.
         25    2    1    2    0    0  0.26920560276E+02  0.30645643604E+02  0.87060433225E+02  0.15776799634E+03  0.12508936645E+03 0.  0.
          5    1    3    3  502    0 -0.30782589764E+02 -0.33002296992E+02  0.25599254145E+02  0.52052988887E+02  0.41800000000E+01 0.  1.
         -5    1    3    3    0  502  0.57703150040E+02  0.63647940596E+02  0.61461179080E+02  0.10571500745E+03  0.41800000000E+01 0.  1.
        -11    1    1    2    0    0 -0.57856329743E+02 -0.27421398403E+02  0.19172237647E+02  0.66834591927E+02  0.00000000000E+00 0.  1.
         11    1    1    2    0    0  0.30935769467E+02 -0.32242452004E+01  0.35341488803E+02  0.47079065628E+02  0.00000000000E+00 0. -1.
</event>
<event>
 7    1  0.2380582E-009  0.7726930E+02  0.7561462E-02  0.1336984E+00
         -1   -1    0    0    0  501 -0.00000000000E+00  0.00000000000E+00  0.46394114813E+03  0.46394114813E+03  0.00000000000E+00 0.  1.
          1   -1    0    0  501    0  0.00000000000E+00 -0.00000000000E+00 -0.26036285531E+02  0.26036285531E+02  0.00000000000E+00 0. -1.
         25    2    1    2    0    0  0.18545151625E+02 -0.37972708811E+01  0.22660371087E+03  0.25952797430E+03  0.12508871152E+03 0.  0.
          5    1    3    3  502    0 -0.25587861701E+02  0.87563014132E+01  0.20807708303E+03  0.20986890280E+03  0.41800000000E+01 0.  1.
         -5    1    3    3    0  502  0.44133013326E+02 -0.12553572294E+02  0.18526627834E+02  0.49659071492E+02  0.41800000000E+01 0.  1.
        -11    1    1    2    0    0 -0.45266659134E+02 -0.15818229740E+02  0.67007107317E+02  0.82396840062E+02  0.00000000000E+00 0. -1.
         11    1    1    2    0    0  0.26721507509E+02  0.19615500621E+02  0.14429404442E+03  0.14805261930E+03  0.00000000000E+00 0.  1.
</event>
<event>
 7    1  0.2380582E-009  0.1212592E+03  0.7561462E-02  0.1241034E+00
         -2   -1    0    0    0  501 -0.00000000000E+00  0.00000000000E+00  0.19656661566E+02  0.19656661566E+02  0.00000000000E+00 0.  1.
          2   -1    0    0  501    0  0.00000000000E+00 -0.00000000000E+00 -0.16389617790E+04  0.16389617790E+04  0.00000000000E+00 0. -1.
         25    2    1    2    0    0  0.10418060955E+03  0.23025451313E+02 -0.12941033343E+04  0.13045054500E+04  0.12508900260E+03 0.  0.
          5    1    3    3  502    0  0.99585107132E+02  0.34876155389E+01 -0.12648910956E+04  0.12688168950E+04  0.41800000000E+01 0.  1.
         -5    1    3    3    0  502  0.45955024157E+01  0.19537835774E+02 -0.29212238708E+02  0.35688555022E+02  0.41800000000E+01 0.  1.
        -11    1    1    2    0    0 -0.91060420455E+02 -0.41134856583E+02 -0.31315941553E+03  0.32871400356E+03  0.00000000000E+00 0. -1.
         11    1    1    2    0    0 -0.13120189093E+02  0.18109405271E+02 -0.12042367624E+02  0.25398986970E+02  0.00000000000E+00 0.  1.
</event>
<event>
 7    1  0.2380582E-009  0.1644150E+03  0.7561462E-02  0.1183801E+00
          4   -1    0    0  501    0  0.00000000000E+00  0.00000000000E+00  0.30163789981E+03  0.30163789981E+03  0.00000000000E+00 0. -1.
         -4   -1    0    0    0  501 -0.00000000000E+00 -0.00000000000E+00 -0.14901041731E+03  0.14901041731E+03  0.00000000000E+00 0.  1.
         25    2    1    2    0    0  0.14878298901E+03 -0.14019202034E+02 -0.31156517007E+02  0.19735952224E+03  0.12508851515E+03 0.  0.
          5    1    3    3  502    0  0.14046179483E+03 -0.33828795336E+02  0.15949842674E+02  0.14541586256E+03  0.41800000000E+01 0. -1.
         -5    1    3    3    0  502  0.83211941817E+01  0.19809593303E+02 -0.47106359682E+02  0.51943659689E+02  0.41800000000E+01 0. -1.
        -11    1    1    2    0    0 -0.52764842047E+02 -0.25458241057E+02  0.25268662215E+02  0.63802475533E+02  0.00000000000E+00 0.  1.
         11    1    1    2    0    0 -0.96018146968E+02  0.39477443091E+02  0.15851533729E+03  0.18948631934E+03  0.00000000000E+00 0. -1.
</event>
<event>
 7    1  0.2380582E-009  0.9619751E+02  0.7561462E-02  0.1288502E+00
         -1   -1    0    0    0  501 -0.00000000000E+00  0.00000000000E+00  0.23596867124E+03  0.23596867124E+03  0.00000000000E+00 0.  1.
          1   -1    0    0  501    0  0.00000000000E+00 -0.00000000000E+00 -0.58097596432E+02  0.58097596432E+02  0.00000000000E+00 0. -1.
         25    2    1    2    0    0  0.56002385249E+01  0.47156552122E+02  0.91467453641E+02  0.16207766234E+03  0.12509104874E+03 0.  0.
          5    1    3    3  502    0 -0.29107471290E+02 -0.34224412900E+02  0.27822953219E+02  0.53010795590E+02  0.41800000000E+01 0.  1.
         -5    1    3    3    0  502  0.34707709815E+02  0.81380965022E+02  0.63644500421E+02  0.10906686675E+03  0.41800000000E+01 0.  1.
        -11    1    1    2    0    0 -0.19153546205E+02 -0.37340358947E+02 -0.20011472563E+01  0.42013870672E+02  0.00000000000E+00 0. -1.
         11    1    1    2    0    0  0.13553307680E+02 -0.98161931750E+01  0.88404768426E+02  0.89974734665E+02  0.00000000000E+00 0.  1.
</event>
<event>
 7    1  0.2380582E-009  0.1211144E+03  0.7561462E-02  0.1241270E+00
         -2   -1    0    0    0  501 -0.00000000000E+00  0.00000000000E+00  0.60680320934E+02  0.60680320934E+02  0.00000000000E+00 0.  1.
          2   -1    0    0  501    0  0.00000000000E+00 -0.00000000000E+00 -0.31415202172E+03  0.31415202172E+03  0.00000000000E+00 0. -1.
         25    2    1    2    0    0  0.58428712040E+02 -0.55482741030E+02 -0.15187825993E+03  0.21261912453E+03  0.12509051656E+03 0.  0.
          5    1    3    3  502    0  0.63796501826E+02  0.15530314348E+02 -0.32098749772E+02  0.73205098497E+02  0.41800000000E+01 0. -1.
         -5    1    3    3    0  502 -0.53677897861E+01 -0.71013055378E+02 -0.11977951016E+03  0.13941402603E+03  0.41800000000E+01 0. -1.
        -11    1    1    2    0    0 -0.63574508988E+02  0.67074207679E+02 -0.42402933651E+02  0.10167928162E+03  0.00000000000E+00 0.  1.
         11    1    1    2    0    0  0.51457969482E+01 -0.11591466649E+02 -0.59190507203E+02  0.60533936501E+02  0.00000000000E+00 0. -1.
</event>
<event>
 7    1  0.2380582E-009  0.8182630E+02  0.7561462E-02  0.1323947E+00
         -1   -1    0    0    0  501 -0.00000000000E+00  0.00000000000E+00  0.63145062538E+02  0.63145062538E+02  0.00000000000E+00 0.  1.
          1   -1    0    0  501    0  0.00000000000E+00 -0.00000000000E+00 -0.20471573692E+03  0.20471573692E+03  0.00000000000E+00 0. -1.
         25    2    1    2    0    0 -0.67894036126E+01 -0.32983036396E+02 -0.45538974586E+02  0.13730598787E+03  0.12508061163E+03 0.  0.
          5    1    3    3  502    0 -0.34435387065E+02  0.97006614837E+00  0.32616481205E+02  0.47623987200E+02  0.41800000000E+01 0.  1.
         -5    1    3    3    0  502  0.27645983453E+02 -0.33953102545E+02 -0.78155455791E+02  0.89682000666E+02  0.41800000000E+01 0.  1.
        -11    1    1    2    0    0 -0.56332066215E+01  0.57344745188E+02 -0.80835572247E+02  0.99270048645E+02  0.00000000000E+00 0.  1.
         11    1    1    2    0    0  0.12422610234E+02 -0.24361708792E+02 -0.15196127553E+02  0.31284762951E+02  0.00000000000E+00 0. -1.
</event>
<event>
 7    1  0.2380582E-009  0.1308290E+03  0.7561462E-02  0.1226231E+00
          2   -1    0    0  501    0  0.00000000000E+00  0.00000000000E+00  0.48014767313E+03  0.48014767313E+03  0.00000000000E+00 0. -1.
         -2   -1    0    0    0  501 -0.00000000000E+00 -0.00000000000E+00 -0.54705008950E+02  0.54705008950E+02  0.00000000000E+00 0.  1.
         25    2    1    2    0    0  0.48188180872E+02 -0.74811532145E+02  0.90043823555E+02  0.17797418214E+03  0.12509217893E+03 0.  0.
          5    1    3    3  502    0  0.89997741448E+02 -0.62731117550E+02  0.65412253275E+02  0.12779288655E+03  0.41800000000E+01 0. -1.
         -5    1    3    3    0  502 -0.41809560576E+02 -0.12080414595E+02  0.24631570279E+02  0.50181295587E+02  0.41800000000E+01 0. -1.
        -11    1    1    2    0    0  0.13963602571E+02  0.53665809944E+01  0.90509306006E+01  0.17484328214E+02  0.00000000000E+00 0.  1.
         11    1    1    2    0    0 -0.62151783443E+02  0.69444951150E+02  0.32634791003E+03  0.33939417173E+03  0.00000000000E+00 0. -1.
</event>
<event>
 7    1  0.2614468E-009  0.9026908E+02  0.7561462E-02  0.1302201E+00
          2   -1    0    0  501    0  0.00000000000E+00  0.00000000000E+00  0.69939667078E+03  0.69939667078E+03  0.00000000000E+00 0. -1.
         -2   -1    0    0    0  501 -0.00000000000E+00 -0.00000000000E+00 -0.20181897123E+02  0.20181897123E+02  0.00000000000E+00 0.  1.
         25    2    1    2    0    0  0.18190210844E+02  0.38613772754E+02  0.31340084773E+03  0.34013219410E+03  0.12509160999E+03 0.  0.
          5    1    3    3  502    0 -0.29826950272E+02  0.35944220182E+02  0.37512257870E+02  0.60052275706E+02  0.41800000000E+01 0.  1.
         -5    1    3    3    0  502  0.48017161116E+02  0.26695525727E+01  0.27588858986E+03  0.28007991840E+03  0.41800000000E+01 0.  1.
        -11    1    1    2    0    0  0.35282424831E+01 -0.56881799624E+02  0.32359620026E+03  0.32857645753E+03  0.00000000000E+00 0. -1.
         11    1    1    2    0    0 -0.21718453327E+02  0.18268026870E+02  0.42217725665E+02  0.50869916266E+02  0.00000000000E+00 0.  1.
</event>
<event>
 7    1  0.2380582E-009  0.1347433E+03  0.7561462E-02  0.1220583E+00
         -1   -1    0    0    0  501 -0.00000000000E+00  0.00000000000E+00  0.44562688512E+02  0.44562688512E+02  0.00000000000E+00 0.  1.
          1   -1    0    0  501    0  0.00000000000E+00 -0.00000000000E+00 -0.42011345483E+03  0.42011345483E+03  0.00000000000E+00 0. -1.
         25    2    1    2    0    0 -0.75315652074E+02  0.96588215757E+01 -0.16936958838E+03  0.22382792395E+03  0.12508853581E+03 0.  0.
          5    1    3    3  502    0 -0.10033475969E+03 -0.23830428509E+02 -0.10733934515E+03  0.14890990814E+03  0.41800000000E+01 0.  1.
         -5    1    3    3    0  502  0.25019107621E+02  0.33489250085E+02 -0.62030243229E+02  0.74918015807E+02  0.41800000000E+01 0.  1.
        -11    1    1    2    0    0 -0.16670025334E+02 -0.25954282476E+02 -0.57597725004E+02  0.65337680164E+02  0.00000000000E+00 0. -1.
         11    1    1    2    0    0  0.91985677408E+02  0.16295460901E+02 -0.14858345294E+03  0.17551053923E+03  0.00000000000E+00 0.  1.
</event>
<event>
 7    1  0.3391744E-009  0.1011101E+03  0.7561462E-02  0.1277979E+00
         -2   -1    0    0    0  501 -0.00000000000E+00  0.00000000000E+00  0.59253679455E+03  0.59253679455E+03  0.00000000000E+00 0.  1.
          2   -1    0    0  501    0  0.00000000000E+00 -0.00000000000E+00 -0.37029212945E+02  0.37029212945E+02  0.00000000000E+00 0. -1.
         25    2    1    2    0    0  0.46821765826E+02 -0.85095855891E+02  0.24577445740E+03  0.29238171601E+03  0.12509357098E+03 0.  0.
          5    1    3    3  502    0  0.96831488615E+01  0.15675040422E+01  0.17267766781E+03  0.17300656000E+03  0.41800000000E+01 0. -1.
         -5    1    3    3    0  502  0.37138616965E+02 -0.86663359933E+02  0.73096789590E+02  0.11937515601E+03  0.41800000000E+01 0. -1.
        -11    1    1    2    0    0 -0.26146041631E+02  0.50779238890E+02  0.28372992699E+03  0.28942152315E+03  0.00000000000E+00 0.  1.
         11    1    1    2    0    0 -0.20675724195E+02  0.34316617001E+02  0.26003197216E+02  0.47762768333E+02  0.00000000000E+00 0. -1.
</event>
<event>
 7    1  0.2380582E-009  0.1143033E+03  0.7561462E-02  0.1252802E+00
         -2   -1    0    0    0  501 -0.00000000000E+00  0.00000000000E+00  0.16604597636E+02  0.16604597636E+02  0.00000000000E+00 0.  1.
          2   -1    0    0  501    0  0.00000000000E+00 -0.00000000000E+00 -0.84371172887E+03  0.84371172887E+03  0.00000000000E+00 0. -1.
         25    2    1    2    0    0  0.32870485028E+02  0.26325480805E+02 -0.39022417839E+03  0.41193768384E+03  0.12507696126E+03 0.  0.
          5    1    3    3  502    0 -0.46171797553E+02  0.22644570002E+02 -0.12815416370E+03  0.13815054656E+03  0.41800000000E+01 0. -1.
         -5    1    3    3    0  502  0.79042282582E+02  0.36809108027E+01 -0.26207001469E+03  0.27378713728E+03  0.41800000000E+01 0. -1.
        -11    1    1    2    0    0 -0.37861899796E+02  0.25538177260E+02 -0.26003489462E+03  0.26401490180E+03  0.00000000000E+00 0. -1.
         11    1    1    2    0    0  0.49914147674E+01 -0.51863658065E+02 -0.17684805822E+03  0.18436374087E+03  0.00000000000E+00 0.  1.
</event>
<event>
 7    1  0.2380582E-009  0.8425386E+02  0.7561462E-02  0.1317395E+00
         -2   -1    0    0    0  501 -0.00000000000E+00  0.00000000000E+00  0.12164997691E+03  0.12164997691E+03  0.00000000000E+00 0. -1.
          2   -1    0    0  501    0  0.00000000000E+00 -0.00000000000E+00 -0.12416668204E+03  0.12416668204E+03  0.00000000000E+00 0.  1.
         25    2    1    2    0    0  0.83505596218E+01 -0.37447575581E+02 -0.44340313299E+02  0.13814971308E+03  0.12508887671E+03 0.  0.
          5    1    3    3  502    0 -0.57552509739E+02 -0.24112617022E+02 -0.13130017428E+02  0.63902890659E+02  0.41800000000E+01 0. -1.
         -5    1    3    3    0  502  0.65903069361E+02 -0.13334958559E+02 -0.31210295871E+02  0.74246822419E+02  0.41800000000E+01 0. -1.
        -11    1    1    2    0    0 -0.35401479350E+01  0.25098120777E+02 -0.27318600604E+02  0.37265993250E+02  0.00000000000E+00 0.  1.
         11    1    1    2    0    0 -0.48104116868E+01  0.12349454804E+02  0.69142208773E+02  0.70400952611E+02  0.00000000000E+00 0. -1.
</event>
<event>
 7    1  0.2380582E-009  0.4724917E+03  0.7561462E-02  0.1021219E+00
          1   -1    0    0  501    0  0.00000000000E+00  0.00000000000E+00  0.22869133220E+03  0.22869133220E+03  0.00000000000E+00 0. -1.
         -1   -1    0    0    0  501 -0.00000000000E+00 -0.00000000000E+00 -0.11597456742E+04  0.11597456742E+04  0.00000000000E+00 0.  1.
         25    2    1    2    0    0  0.34960591960E+03  0.31254092015E+03 -0.22244306195E+03  0.53388633173E+03  0.12509026187E+03 0.  0.
          5    1    3    3  502    0  0.29940918091E+03  0.24279125490E+03 -0.22763715750E+03  0.44769364408E+03  0.41800000000E+01 0.  1.
         -5    1    3    3    0  502  0.50196738687E+02  0.69749665241E+02  0.51940955531E+01  0.86192687652E+02  0.41800000000E+01 0.  1.
        -11    1    1    2    0    0 -0.24800304075E+03 -0.17998681662E+03 -0.51076877099E+03  0.59563873262E+03  0.00000000000E+00 0.  1.
         11    1    1    2    0    0 -0.10160287885E+03 -0.13255410353E+03 -0.19784250910E+03  0.25891194210E+03  0.00000000000E+00 0. -1.
</event>
<event>
 7    1  0.2380582E-009  0.1566590E+03  0.7561462E-02  0.1192521E+00
          2   -1    0    0  501    0  0.00000000000E+00  0.00000000000E+00  0.40410208429E+03  0.40410208429E+03  0.00000000000E+00 0. -1.
         -2   -1    0    0    0  501 -0.00000000000E+00 -0.00000000000E+00 -0.82137030434E+02  0.82137030434E+02  0.00000000000E+00 0.  1.
         25    2    1    2    0    0  0.51523144110E+02  0.11256082501E+03  0.27218818984E+03  0.32412603505E+03  0.12508677869E+03 0.  0.
          5    1    3    3  502    0 -0.32888529591E+02  0.72630016212E+02  0.97649542275E+02  0.12613358054E+03  0.41800000000E+01 0. -1.
         -5    1    3    3    0  502  0.84411673701E+02  0.39930808800E+02  0.17453864756E+03  0.19799245451E+03  0.41800000000E+01 0. -1.
        -11    1    1    2    0    0 -0.22464030815E+02 -0.10833670088E+03  0.78413386535E+01  0.11091870911E+03  0.00000000000E+00 0.  1.
         11    1    1    2    0    0 -0.29059113295E+02 -0.42241241290E+01  0.41935525361E+02  0.51194370564E+02  0.00000000000E+00 0. -1.
</event>
<event>
 7    1  0.2380582E-009  0.1714395E+03  0.7561462E-02  0.1176355E+00
         -2   -1    0    0    0  501 -0.00000000000E+00  0.00000000000E+00  0.55526162191E+02  0.55526162191E+02  0.00000000000E+00 0.  1.
          2   -1    0    0  501    0  0.00000000000E+00 -0.00000000000E+00 -0.69587697635E+03  0.69587697635E+03  0.00000000000E+00 0. -1.
         25    2    1    2    0    0 -0.69234043033E+02 -0.12030223250E+03 -0.20284908634E+03  0.27578933516E+03  0.12508407452E+03 0.  0.
          5    1    3    3  502    0 -0.56974740139E+02 -0.15463241796E+02 -0.16266408882E+02  0.61378345682E+02  0.41800000000E+01 0. -1.
         -5    1    3    3    0  502 -0.12259302894E+02 -0.10483899070E+03 -0.18658267746E+03  0.21441098947E+03  0.41800000000E+01 0. -1.
        -11    1    1    2    0    0  0.80535702363E+02  0.28296588634E+02 -0.28141192651E+03  0.29407374699E+03  0.00000000000E+00 0. -1.
         11    1    1    2    0    0 -0.11301659330E+02  0.92005643862E+02 -0.15608980130E+03  0.18154005639E+03  0.00000000000E+00 0.  1.
</event>
<event>
 7    1  0.2380582E-009  0.1311521E+03  0.7561462E-02  0.1225756E+00
         -2   -1    0    0    0  501 -0.00000000000E+00  0.00000000000E+00  0.21530817205E+02  0.21530817205E+02  0.00000000000E+00 0.  1.
          2   -1    0    0  501    0  0.00000000000E+00 -0.00000000000E+00 -0.97601369429E+03  0.97601369429E+03  0.00000000000E+00 0. -1.
         25    2    1    2    0    0  0.42829015200E+02 -0.63878740579E+02 -0.71009455396E+03  0.72511890734E+03  0.12509330989E+03 0.  0.
          5    1    3    3  502    0 -0.32546128272E+02  0.14349002408E+02 -0.12587438765E+03  0.13087008138E+03  0.41800000000E+01 0. -1.
         -5    1    3    3    0  502  0.75375143472E+02 -0.78227742987E+02 -0.58422016631E+03  0.59424882596E+03  0.41800000000E+01 0. -1.
        -11    1    1    2    0    0 -0.70793616407E+02  0.49041124392E+02 -0.20138381897E+03  0.21902559337E+03  0.00000000000E+00 0. -1.
         11    1    1    2    0    0  0.27964601207E+02  0.14837616187E+02 -0.43004504162E+02  0.53400010796E+02  0.00000000000E+00 0.  1.
</event>
<event>
 7    1  0.2380582E-009  0.1202044E+03  0.7561462E-02  0.1242760E+00
          1   -1    0    0  501    0  0.00000000000E+00  0.00000000000E+00  0.51008442799E+02  0.51008442799E+02  0.00000000000E+00 0. -1.
         -1   -1    0    0    0  501 -0.00000000000E+00 -0.00000000000E+00 -0.39600739375E+03  0.39600739375E+03  0.00000000000E+00 0.  1.
         25    2    1    2    0    0 -0.98899582384E+01  0.88994283265E+02 -0.18972603280E+03  0.24425646779E+03  0.12508981095E+03 0.  0.
          5    1    3    3  502    0 -0.25189134087E+02 -0.13908258665E+02 -0.10814155003E+03  0.11198213866E+03  0.41800000000E+01 0. -1.
         -5    1    3    3    0  502  0.15299175848E+02  0.10290254193E+03 -0.81584482774E+02  0.13227432913E+03  0.41800000000E+01 0. -1.
        -11    1    1    2    0    0 -0.18862635331E+02 -0.66579737471E+01 -0.94172488442E+02  0.96273491706E+02  0.00000000000E+00 0.  1.
         11    1    1    2    0    0  0.28752593570E+02 -0.82336309518E+02 -0.61100429704E+02  0.10648587705E+03  0.00000000000E+00 0. -1.
</event>
<event>
 7    1  0.2380582E-009  0.1225921E+03  0.7561462E-02  0.1238881E+00
          3   -1    0    0  501    0  0.00000000000E+00  0.00000000000E+00  0.45223778277E+02  0.45223778277E+02  0.00000000000E+00 0. -1.
         -3   -1    0    0    0  501 -0.00000000000E+00 -0.00000000000E+00 -0.48342823069E+03  0.48342823069E+03  0.00000000000E+00 0.  1.
         25    2    1    2    0    0 -0.82055521262E+02  0.51850503185E+02 -0.26784107012E+03  0.31114026428E+03  0.12509133448E+03 0.  0.
          5    1    3    3  502    0  0.23783104533E+02 -0.91944582786E+01 -0.10130793709E+03  0.10455115801E+03  0.41800000000E+01 0. -1.
         -5    1    3    3    0  502 -0.10583862580E+03  0.61044961463E+02 -0.16653313303E+03  0.20658910626E+03  0.41800000000E+01 0. -1.
        -11    1    1    2    0    0  0.61634677416E+02 -0.37752073790E+02 -0.35760050472E+02  0.80640149711E+02  0.00000000000E+00 0. -1.
         11    1    1    2    0    0  0.20420843846E+02 -0.14098429395E+02 -0.13460333182E+03  0.13687159498E+03  0.00000000000E+00 0.  1.
</event>
<event>
 7    1  0.2380582E-009  0.1165213E+03  0.7561462E-02  0.1248949E+00
          2   -1    0    0  501    0  0.00000000000E+00  0.00000000000E+00  0.22501227000E+03  0.22501227000E+03  0.00000000000E+00 0.  1.
         -2   -1    0    0    0  501 -0.00000000000E+00 -0.00000000000E+00 -0.70313924220E+02  0.70313924220E+02  0.00000000000E+00 0. -1.
         25    2    1    2    0    0  0.52954661006E+02  0.21385656408E+00  0.39028656875E+02  0.14132072940E+03  0.12507625931E+03 0.  0.
          5    1    3    3  502    0  0.71657618268E+02  0.46628103996E+02  0.23593493174E+02  0.88786934051E+02  0.41800000000E+01 0.  1.
         -5    1    3    3    0  502 -0.18702957262E+02 -0.46414247431E+02  0.15435163701E+02  0.52533795346E+02  0.41800000000E+01 0.  1.
        -11    1    1    2    0    0  0.10546015187E+02  0.26363434776E+02  0.56494878704E+02  0.63229110775E+02  0.00000000000E+00 0.  1.
         11    1    1    2    0    0 -0.63500676193E+02 -0.26577291340E+02  0.59174810198E+02  0.90776354046E+02  0.00000000000E+00 0. -1.
</event>
<event>
 7    1  0.2380582E-009  0.1121322E+03  0.7561462E-02  0.1256672E+00
         -1   -1    0    0    0  501 -0.00000000000E+00  0.00000000000E+00  0.30737453650E+03  0.30737453650E+03  0.00000000000E+00 0.  1.
          1   -1    0    0  501    0  0.00000000000E+00 -0.00000000000E+00 -0.56143958564E+02  0.56143958564E+02  0.00000000000E+00 0. -1.
         25    2    1    2    0    0  0.65549440058E+02  0.34637044792E+02  0.13439706434E+03  0.19800479612E+03  0.12508746707E+03 0.  0.
          5    1    3    3  502    0 -0.89808720460E+01  0.34027146592E+02  0.11576020653E+03  0.12106362205E+03  0.41800000000E+01 0.  1.
         -5    1    3    3    0  502  0.74530312103E+02  0.60989819944E+00  0.18636857812E+02  0.76941174069E+02  0.41800000000E+01 0.  1.
        -11    1    1    2    0    0 -0.87112296483E+02 -0.29870480706E+02  0.10746376151E+03  0.14152476057E+03  0.00000000000E+00 0.  1.
         11    1    1    2    0    0  0.21562856426E+02 -0.47665640855E+01  0.93697520854E+01  0.23988938379E+02  0.00000000000E+00 0. -1.
</event>
<event>
 7    1  0.2380582E-009  0.1395297E+03  0.7561462E-02  0.1213963E+00
          2   -1    0    0  501    0  0.00000000000E+00  0.00000000000E+00  0.89488902136E+03  0.89488902136E+03  0.00000000000E+00 0.  1.
         -2   -1    0    0    0  501 -0.00000000000E+00 -0.00000000000E+00 -0.31011942654E+02  0.31011942654E+02  0.00000000000E+00 0. -1.
         25    2    1    2    0    0  0.96785041299E+02  0.42560550254E+01  0.23568938860E+03  0.28386974163E+03  0.12508830518E+03 0.  0.
          5    1    3    3  502    0 -0.42636725512E+01 -0.44991167800E+02  0.76430610197E+02  0.88890351887E+02  0.41800000000E+01 0. -1.
         -5    1    3    3    0  502  0.10104871385E+03  0.49247222825E+02  0.15925877840E+03  0.19497938975E+03  0.41800000000E+01 0. -1.
        -11    1    1    2    0    0 -0.10776126602E+03 -0.10970817832E+02  0.61118126222E+03  0.62070555385E+03  0.00000000000E+00 0.  1.
         11    1    1    2    0    0  0.10976224722E+02  0.67147628069E+01  0.17006427892E+02  0.21325668532E+02  0.00000000000E+00 0. -1.
</event>
<event>
 7    1  0.2380582E-009  0.1215452E+03  0.7561462E-02  0.1240570E+00
          1   -1    0    0  501    0  0.00000000000E+00  0.00000000000E+00  0.68434129927E+03  0.68434129927E+03  0.00000000000E+00 0. -1.
         -1   -1    0    0    0  501 -0.00000000000E+00 -0.00000000000E+00 -0.39843662174E+02  0.39843662174E+02  0.00000000000E+00 0.  1.
         25    2    1    2    0    0  0.21889648238E+01 -0.81714704239E+02  0.13947242995E+03  0.20440752634E+03  0.12509114139E+03 0.  0.
          5    1    3    3  502    0  0.70636899077E+01  0.28862174701E+02  0.53811117502E+01  0.30485235890E+02  0.41800000000E+01 0. -1.
         -5    1    3    3    0  502 -0.48747250839E+01 -0.11057687894E+03  0.13409131820E+03  0.17392229046E+03  0.41800000000E+01 0. -1.
        -11    1    1    2    0    0 -0.10900474210E+02  0.89785681341E+02  0.49764089709E+03  0.50579319032E+03  0.00000000000E+00 0. -1.
         11    1    1    2    0    0  0.87115093867E+01 -0.80709771024E+01  0.73843100564E+01  0.13984244784E+02  0.00000000000E+00 0.  1.
</event>
<event>
 7    1  0.2380582E-009  0.1284506E+03  0.7561462E-02  0.1229773E+00
         -1   -1    0    0    0  501 -0.00000000000E+00  0.00000000000E+00  0.42671331981E+02  0.42671331981E+02  0.00000000000E+00 0. -1.
          1   -1    0    0  501    0  0.00000000000E+00 -0.00000000000E+00 -0.52065135246E+03  0.52065135246E+03  0.00000000000E+00 0.  1.
         25    2    1    2    0    0  0.87376994705E+02  0.34860759653E+02 -0.32849766349E+03  0.36387553346E+03  0.12507868390E+03 0.  0.
          5    1    3    3  502    0  0.46701908319E+01  0.47749964681E+02 -0.22793733662E+03  0.23296946503E+03  0.41800000000E+01 0. -1.
         -5    1    3    3    0  502  0.82706803873E+02 -0.12889205028E+02 -0.10056032687E+03  0.13090606844E+03  0.41800000000E+01 0. -1.
        -11    1    1    2    0    0 -0.58085967257E+02  0.21075230104E+02 -0.41745137418E+02  0.74570781236E+02  0.00000000000E+00 0.  1.
         11    1    1    2    0    0 -0.29291027448E+02 -0.55935989757E+02 -0.10773721958E+03  0.12487636975E+03  0.00000000000E+00 0. -1.
</event>
<event>
 7    1  0.2380582E-009  0.1014481E+03  0.7561462E-02  0.1277280E+00
         -2   -1    0    0    0  501 -0.00000000000E+00  0.00000000000E+00  0.59391220639E+02  0.59391220639E+02  0.00000000000E+00 0.  1.
          2   -1    0    0  501    0  0.00000000000E+00 -0.00000000000E+00 -0.20551106341E+03  0.20551106341E+03  0.00000000000E+00 0. -1.
         25    2    1    2    0    0  0.11865572479E+02  0.15427719840E+02 -0.70114752179E+02  0.14471418032E+03  0.12508920482E+03 0.  0.
          5    1    3    3  502    0  0.61109392877E+02 -0.20531411174E+02 -0.44500101685E+02  0.78445064807E+02  0.41800000000E+01 0. -1.
         -5    1    3    3    0  502 -0.49243820398E+02  0.35959131015E+02 -0.25614650494E+02  0.66269115511E+02  0.41800000000E+01 0. -1.
        -11    1    1    2    0    0  0.31871050261E+02 -0.71429379995E+01 -0.65120119939E+00  0.32668172140E+02  0.00000000000E+00 0. -1.
         11    1    1    2    0    0 -0.43736622740E+02 -0.82847818409E+01 -0.75353889388E+02  0.87519931586E+02  0.00000000000E+00 0.  1.
</event>
<event>
 7    1  0.2380582E-009  0.9898092E+02  0.7561462E-02  0.1282454E+00
         -1   -1    0    0    0  501 -0.00000000000E+00  0.00000000000E+00  0.37962045131E+03  0.37962045131E+03  0.00000000000E+00 0.  1.
          1   -1    0    0  501    0  0.00000000000E+00 -0.00000000000E+00 -0.51278640254E+02  0.51278640254E+02  0.00000000000E+00 0. -1.
         25    2    1    2    0    0 -0.50934464300E+02  0.34406381618E+02  0.27648208002E+03  0.30962648616E+03  0.12509237230E+03 0.  0.
          5    1    3    3  502    0 -0.49472877374E+02 -0.29659799270E+02  0.58020079402E+02  0.81921128546E+02  0.41800000000E+01 0. -1.
         -5    1    3    3    0  502 -0.14615869255E+01  0.64066180888E+02  0.21846200062E+03  0.22770535761E+03  0.41800000000E+01 0. -1.
        -11    1    1    2    0    0  0.59193061791E+02 -0.28135565494E+02 -0.28376969192E+01  0.65600923269E+02  0.00000000000E+00 0. -1.
         11    1    1    2    0    0 -0.82585974913E+01 -0.62708161237E+01  0.54697427957E+02  0.55671682142E+02  0.00000000000E+00 0.  1.
</event>
<event>
 7    1  0.2380582E-009  0.1160861E+03  0.7561462E-02  0.1249697E+00
         -1   -1    0    0    0  501 -0.00000000000E+00  0.00000000000E+00  0.72218557849E+02  0.72218557849E+02  0.00000000000E+00 0.  1.
          1   -1    0    0  501    0  0.00000000000E+00 -0.00000000000E+00 -0.23089723223E+03  0.23089723223E+03  0.00000000000E+00 0. -1.
         25    2    1    2    0    0  0.34506489206E+02  0.54815373535E+02 -0.92889503315E+02  0.16873288131E+03  0.12508757906E+03 0.  0.
          5    1    3    3  502    0  0.17008380116E+02 -0.40349753814E+02 -0.30492488640E+02  0.53522442867E+02  0.41800000000E+01 0.  1.
         -5    1    3    3    0  502  0.17498109090E+02  0.95165127349E+02 -0.62397014674E+02  0.11521043844E+03  0.41800000000E+01 0.  1.
        -11    1    1    2    0    0 -0.51632693945E+02 -0.25989619370E+02  0.29732971906E+01  0.57881222302E+02  0.00000000000E+00 0.  1.
         11    1    1    2    0    0  0.17126204739E+02 -0.28825754166E+02 -0.68762468257E+02  0.76501686470E+02  0.00000000000E+00 0. -1.
</event>
<event>
 7    1  0.2380582E-009  0.1030462E+03  0.7561462E-02  0.1274018E+00
          2   -1    0    0  501    0  0.00000000000E+00  0.00000000000E+00  0.62287675046E+02  0.62287675046E+02  0.00000000000E+00 0.  1.
         -2   -1    0    0    0  501 -0.00000000000E+00 -0.00000000000E+00 -0.20030598419E+03  0.20030598419E+03  0.00000000000E+00 0. -1.
         25    2    1    2    0    0 -0.10668041583E+02 -0.23390009602E+02 -0.66362865777E+02  0.14391943125E+03  0.12509145885E+03 0.  0.
          5    1    3    3  502    0 -0.55166255055E+02  0.25045524972E+02 -0.22557050944E+02  0.64783384947E+02  0.41800000000E+01 0.  1.
         -5    1    3    3    0  502  0.44498213472E+02 -0.48435534574E+02 -0.43805814833E+02  0.79136046305E+02  0.41800000000E+01 0.  1.
        -11    1    1    2    0    0  0.42822893548E+02  0.70862508614E+01 -0.60625976463E+01  0.43826592992E+02  0.00000000000E+00 0.  1.
         11    1    1    2    0    0 -0.32154851965E+02  0.16303758741E+02 -0.65592845721E+02  0.74847634991E+02  0.00000000000E+00 0. -1.
</event>
<event>
 7    1  0.2380582E-009  0.8395915E+02  0.7561462E-02  0.1318177E+00
          3   -1    0    0  501    0  0.00000000000E+00  0.00000000000E+00  0.47703918549E+03  0.47703918549E+03  0.00000000000E+00 0. -1.
         -3   -1    0    0    0  501 -0.00000000000E+00 -0.00000000000E+00 -0.30458546517E+02  0.30458546517E+02  0.00000000000E+00 0.  1.
         25    2    1    2    0    0  0.18471108300E+02  0.44416606139E+02  0.28787547254E+03  0.31754296966E+03  0.12508890098E+03 0.  0.
          5    1    3    3  502    0  0.31994421236E+02  0.20140730649E+02  0.11491868815E+02  0.39734461997E+02  0.41800000000E+01 0.  1.
         -5    1    3    3    0  502 -0.13523312936E+02  0.24275875490E+02  0.27638360372E+03  0.27780850766E+03  0.41800000000E+01 0.  1.
        -11    1    1    2    0    0 -0.45376630987E+02 -0.56348982399E+02  0.91959247472E+02  0.11700747691E+03  0.00000000000E+00 0.  1.
         11    1    1    2    0    0  0.26905522687E+02  0.11932376260E+02  0.66745918963E+02  0.72947285436E+02  0.00000000000E+00 0. -1.
</event>
<event>
 7    1  0.2380582E-009  0.9713667E+02  0.7561462E-02  0.1286435E+00
          1   -1    0    0  501    0  0.00000000000E+00  0.00000000000E+00  0.45309820916E+02  0.45309820916E+02  0.00000000000E+00 0. -1.
         -1   -1    0    0    0  501 -0.00000000000E+00 -0.00000000000E+00 -0.29610736095E+03  0.29610736095E+03  0.00000000000E+00 0.  1.
         25    2    1    2    0    0 -0.64424237193E+02 -0.11254620289E+02 -0.17805610700E+03  0.22722004107E+03  0.12509125072E+03 0.  0.
          5    1    3    3  502    0  0.97019445302E+01 -0.31655997039E+02 -0.15592901514E+00  0.33372542457E+02  0.41800000000E+01 0. -1.
         -5    1    3    3    0  502 -0.74126181723E+02  0.20401376750E+02 -0.17790017798E+03  0.19384749861E+03  0.41800000000E+01 0. -1.
        -11    1    1    2    0    0  0.48165932416E+02  0.31791431956E+02 -0.64914559663E+02  0.86859382035E+02  0.00000000000E+00 0.  1.
         11    1    1    2    0    0  0.16258304777E+02 -0.20536811667E+02 -0.78268733764E+01  0.27337758769E+02  0.00000000000E+00 0. -1.
</event>
<event>
 7    1  0.2460857E-009  0.9418258E+02  0.7561462E-02  0.1293028E+00
         -1   -1    0    0    0  501 -0.00000000000E+00  0.00000000000E+00  0.55553225239E+02  0.55553225239E+02  0.00000000000E+00 0.  1.
          1   -1    0    0  501    0  0.00000000000E+00 -0.00000000000E+00 -0.33998495045E+03  0.33998495045E+03  0.00000000000E+00 0. -1.
         25    2    1    2    0    0  0.37746562169E+02 -0.72573155130E+02 -0.12963293921E+03  0.19785080695E+03  0.12509427278E+03 0.  0.
          5    1    3    3  502    0  0.57421704904E+01 -0.44695099261E+02 -0.14547709838E+03  0.15235380853E+03  0.41800000000E+01 0. -1.
         -5    1    3    3    0  502  0.32004391678E+02 -0.27878055869E+02  0.15844159173E+02  0.45496998424E+02  0.41800000000E+01 0. -1.
        -11    1    1    2    0    0 -0.53463002544E+02  0.52103232878E+02 -0.50223354526E+02  0.89974578950E+02  0.00000000000E+00 0.  1.
         11    1    1    2    0    0  0.15716440375E+02  0.20469922252E+02 -0.10457543147E+03  0.10771278978E+03  0.00000000000E+00 0. -1.
</event>
<event>
 7    1  0.2380582E-009  0.2520733E+03  0.7561462E-02  0.1112002E+00
          1   -1    0    0  501    0  0.00000000000E+00  0.00000000000E+00  0.57058871446E+03  0.57058871446E+03  0.00000000000E+00 0. -1.
         -1   -1    0    0    0  501 -0.00000000000E+00 -0.00000000000E+00 -0.12097660136E+03  0.12097660136E+03  0.00000000000E+00 0.  1.
         25    2    1    2    0    0  0.21442794473E+03  0.75474801052E+02  0.32713033977E+03  0.41753649882E+03  0.12508668824E+03 0.  0.
          5    1    3    3  502    0  0.16083975609E+03 -0.65057545950E+01  0.19183751959E+03  0.25046129103E+03  0.41800000000E+01 0. -1.
         -5    1    3    3    0  502  0.53588188641E+02  0.81980555647E+02  0.13529282018E+03  0.16707520779E+03  0.41800000000E+01 0. -1.
        -11    1    1    2    0    0 -0.15201091797E+03 -0.95523148114E+02  0.87460407218E+02  0.19970306417E+03  0.00000000000E+00 0. -1.
         11    1    1    2    0    0 -0.62417026758E+02  0.20048347062E+02  0.35021366105E+02  0.74325752825E+02  0.00000000000E+00 0.  1.
</event>
<event>
 7    1  0.2380582E-009  0.1466574E+03  0.7561462E-02  0.1204642E+00
         -2   -1    0    0    0  501 -0.00000000000E+00  0.00000000000E+00  0.41188023540E+02  0.41188023540E+02  0.00000000000E+00 0.  1.
          2   -1    0    0  501    0  0.00000000000E+00 -0.00000000000E+00 -0.69815259104E+03  0.69815259104E+03  0.00000000000E+00 0. -1.
         25    2    1    2    0    0  0.11578626389E+03  0.48864072608E+02 -0.42752212549E+03  0.46283625373E+03  0.12509225989E+03 0.  0.
          5    1    3    3  502    0  0.12579740656E+03  0.16980326435E+02 -0.23250861755E+03  0.26493593305E+03  0.41800000000E+01 0. -1.
         -5    1    3    3    0  502 -0.10011142671E+02  0.31883746173E+02 -0.19501350794E+03  0.19790032068E+03  0.41800000000E+01 0. -1.
        -11    1    1    2    0    0 -0.47789220567E+02  0.18144155069E+01 -0.22485586127E+02  0.52846033810E+02  0.00000000000E+00 0.  1.
         11    1    1    2    0    0 -0.67997043324E+02 -0.50678488115E+02 -0.20695685588E+03  0.22365832704E+03  0.00000000000E+00 0. -1.
</event>
<event>
 7    1  0.2380582E-009  0.1388256E+03  0.7561462E-02  0.1214918E+00
          2   -1    0    0  501    0  0.00000000000E+00  0.00000000000E+00  0.22696449319E+03  0.22696449319E+03  0.00000000000E+00 0. -1.
         -2   -1    0    0    0  501 -0.00000000000E+00 -0.00000000000E+00 -0.10021739713E+03  0.10021739713E+03  0.00000000000E+00 0.  1.
         25    2    1    2    0    0  0.12520413511E+02  0.98232417557E+02  0.10004389357E+03  0.18830664309E+03  0.12507694663E+03 0.  0.
          5    1    3    3  502    0  0.47345344144E+02  0.10742127767E+03  0.96225219850E+02  0.15184754803E+03  0.41800000000E+01 0. -1.
         -5    1    3    3    0  502 -0.34824930633E+02 -0.91888601091E+01  0.38186737184E+01  0.36459095061E+02  0.41800000000E+01 0. -1.
        -11    1    1    2    0    0 -0.43343891223E+02 -0.45462865766E+02  0.42393250991E+02  0.75780952749E+02  0.00000000000E+00 0. -1.
         11    1    1    2    0    0  0.30823477711E+02 -0.52769551791E+02 -0.15690048491E+02  0.63094294481E+02  0.00000000000E+00 0.  1.
</event>
<event>
 7    1  0.2380582E-009  0.1340981E+03  0.7561462E-02  0.1221499E+00
         -1   -1    0    0    0  501 -0.00000000000E+00  0.00000000000E+00  0.18976926479E+03  0.18976926479E+03  0.00000000000E+00 0.  1.
          1   -1    0    0  501    0  0.00000000000E+00 -0.00000000000E+00 -0.17147279101E+03  0.17147279101E+03  0.00000000000E+00 0. -1.
         25    2    1    2    0    0 -0.92216899699E+02  0.47150929152E+02 -0.85952131457E+02  0.18374453122E+03  0.12508843729E+03 0.  0.
          5    1    3    3  502    0  0.12440901222E+02  0.35176334894E+02  0.12427120921E+02  0.39548151590E+02  0.41800000000E+01 0.  1.
         -5    1    3    3    0  502 -0.10465780092E+03  0.11974594259E+02 -0.98379252378E+02  0.14419637963E+03  0.41800000000E+01 0.  1.
        -11    1    1    2    0    0  0.57941221898E+02  0.97939729657E+01  0.62617819967E+01  0.59095829085E+02  0.00000000000E+00 0. -1.
         11    1    1    2    0    0  0.34275677801E+02 -0.56944902118E+02  0.97986823238E+02  0.11840169549E+03  0.00000000000E+00 0.  1.
</event>
<event>
 7    1  0.2380582E-009  0.1434055E+03  0.7561462E-02  0.1208819E+00
          2   -1    0    0  501    0  0.00000000000E+00  0.00000000000E+00  0.11386490336E+03  0.11386490336E+03  0.00000000000E+00 0. -1.
         -2   -1    0    0    0  501 -0.00000000000E+00 -0.00000000000E+00 -0.62726943363E+03  0.62726943363E+03  0.00000000000E+00 0.  1.
         25    2    1    2    0    0  0.54927582962E+02 -0.10804313892E+03  0.30182506143E+02  0.17677400770E+03  0.12509079456E+03 0.  0.
          5    1    3    3  502    0  0.14981069618E+02 -0.89792915611E+02 -0.35374635064E+02  0.97754986301E+02  0.41800000000E+01 0. -1.
         -5    1    3    3    0  502  0.39946513344E+02 -0.18250223305E+02  0.65557141207E+02  0.79019021395E+02  0.41800000000E+01 0. -1.
        -11    1    1    2    0    0 -0.78327856685E+02  0.61926493264E+02 -0.36964306163E+03  0.38289180810E+03  0.00000000000E+00 0. -1.
         11    1    1    2    0    0  0.23400273723E+02  0.46116645652E+02 -0.17394397478E+03  0.18146852118E+03  0.00000000000E+00 0.  1.
</event>
<event>
 7    1  0.2380582E-009  0.1157910E+03  0.7561462E-02  0.1250207E+00
         -2   -1    0    0    0  501 -0.00000000000E+00  0.00000000000E+00  0.89754058572E+02  0.89754058572E+02  0.00000000000E+00 0.  1.
          2   -1    0    0  501    0  0.00000000000E+00 -0.00000000000E+00 -0.25127830761E+03  0.25127830761E+03  0.00000000000E+00 0. -1.
         25    2    1    2    0    0 -0.91814361977E+02  0.11298273057E+02 -0.13954014190E+03  0.20898969639E+03  0.12509082284E+03 0.  0.
          5    1    3    3  502    0 -0.10399420381E+02  0.22055936872E+02 -0.12255197830E+03  0.12502428596E+03  0.41800000000E+01 0. -1.
         -5    1    3    3    0  502 -0.81414941595E+02 -0.10757663816E+02 -0.16988163596E+02  0.83965410427E+02  0.41800000000E+01 0. -1.
        -11    1    1    2    0    0  0.20471932270E+02  0.34298718079E+02 -0.25346595699E+02  0.47306997223E+02  0.00000000000E+00 0. -1.
         11    1    1    2    0    0  0.71342429707E+02 -0.45596991136E+02  0.33624885532E+01  0.84735672573E+02  0.00000000000E+00 0.  1.
</event>
<event>
 7    1  0.2380582E-009  0.1513308E+03  0.7561462E-02  0.1198847E+00
         -1   -1    0    0    0  501 -0.00000000000E+00  0.00000000000E+00  0.20092224453E+02  0.20092224453E+02  0.00000000000E+00 0.  1.
          1   -1    0    0  501    0  0.00000000000E+00 -0.00000000000E+00 -0.12552534539E+04  0.12552534539E+04  0.00000000000E+00 0. -1.
         25    2    1    2    0    0 -0.81178305849E+02 -0.79680107175E+02 -0.60221595632E+03  0.62549990013E+03  0.12508888917E+03 0.  0.
          5    1    3    3  502    0  0.75243603874E+01  0.22295743431E+02 -0.34950691107E+02  0.42340753220E+02  0.41800000000E+01 0. -1.
         -5    1    3    3    0  502 -0.88702666236E+02 -0.10197585061E+03 -0.56726526521E+03  0.58315914691E+03  0.41800000000E+01 0. -1.
        -11    1    1    2    0    0  0.36567259546E+02 -0.14493985294E+02 -0.11556889667E+03  0.12207952309E+03  0.00000000000E+00 0.  1.
         11    1    1    2    0    0  0.44611046303E+02  0.94174092469E+02 -0.51737637649E+03  0.52776625517E+03  0.00000000000E+00 0. -1.
</event>
<event>
 7    1  0.2380582E-009  0.1904848E+03  0.7561462E-02  0.1158025E+00
          2   -1    0    0  501    0  0.00000000000E+00  0.00000000000E+00  0.69834017188E+03  0.69834017188E+03  0.00000000000E+00 0.  1.
         -2   -1    0    0    0  501 -0.00000000000E+00 -0.00000000000E+00 -0.58401394408E+02  0.58401394408E+02  0.00000000000E+00 0. -1.
         25    2    1    2    0    0 -0.13622826317E+03  0.10035487271E+03  0.36899355490E+03  0.42477428011E+03  0.12509078832E+03 0.  0.
          5    1    3    3  502    0 -0.15934701387E+03  0.79841505653E+02  0.29844827633E+03  0.34764203270E+03  0.41800000000E+01 0. -1.
         -5    1    3    3    0  502  0.23118750705E+02  0.20513367053E+02  0.70545278569E+02  0.77132247409E+02  0.41800000000E+01 0. -1.
        -11    1    1    2    0    0  0.57338548519E+02 -0.25511588819E+02  0.34268788159E+02  0.71504546375E+02  0.00000000000E+00 0. -1.
         11    1    1    2    0    0  0.78889714648E+02 -0.74843283887E+02  0.23667643441E+03  0.26046273980E+03  0.00000000000E+00 0.  1.
</event>
<event>
 7    1  0.2380582E-009  0.2216415E+03  0.7561462E-02  0.1132665E+00
          2   -1    0    0  501    0  0.00000000000E+00  0.00000000000E+00  0.59340125682E+03  0.59340125682E+03  0.00000000000E+00 0. -1.
         -2   -1    0    0    0  501 -0.00000000000E+00 -0.00000000000E+00 -0.94290490416E+02  0.94290490416E+02  0.00000000000E+00 0.  1.
         25    2    1    2    0    0  0.20401326490E+03  0.17951764603E+02  0.18943812431E+03  0.30574058036E+03  0.12508725526E+03 0.  0.
          5    1    3    3  502    0  0.12316925161E+03 -0.47237403491E+02  0.13341176419E+03  0.18766514875E+03  0.41800000000E+01 0. -1.
         -5    1    3    3    0  502  0.80844013282E+02  0.65189168094E+02  0.56026360126E+02  0.11807543161E+03  0.41800000000E+01 0. -1.
        -11    1    1    2    0    0 -0.70305934590E+02  0.92655921908E+01  0.44467623238E+02  0.83702718914E+02  0.00000000000E+00 0. -1.
         11    1    1    2    0    0 -0.13370733031E+03 -0.27217356794E+02  0.26520501885E+03  0.29824844796E+03  0.00000000000E+00 0.  1.
</event>
<event>
 7    1  0.2380582E-009  0.1561030E+03  0.7561462E-02  0.1193168E+00
         -2   -1    0    0    0  501 -0.00000000000E+00  0.00000000000E+00  0.55838905922E+02  0.55838905922E+02  0.00000000000E+00 0.  1.
          2   -1    0    0  501    0  0.00000000000E+00 -0.00000000000E+00 -0.54114425091E+03  0.54114425091E+03  0.00000000000E+00 0. -1.
         25    2    1    2    0    0  0.12152616408E+03 -0.61293112563E+02 -0.26731366468E+03  0.32500620389E+03  0.12508790125E+03 0.  0.
          5    1    3    3  502    0  0.20542958035E+01  0.19344306898E+02 -0.10925939467E+03  0.11105633735E+03  0.41800000000E+01 0.  1.
         -5    1    3    3    0  502  0.11947186827E+03 -0.80637419461E+02 -0.15805427000E+03  0.21394986654E+03  0.41800000000E+01 0.  1.
        -11    1    1    2    0    0 -0.16939112333E+02  0.37066332360E+02 -0.11960139459E+03  0.12635402688E+03  0.00000000000E+00 0. -1.
         11    1    1    2    0    0 -0.10458705174E+03  0.24226780203E+02 -0.98390285723E+02  0.14562292607E+03  0.00000000000E+00 0.  1.
</event>
<event>
 7    1  0.2380582E-009  0.2450441E+03  0.7561462E-02  0.1116478E+00
         -1   -1    0    0    0  501 -0.00000000000E+00  0.00000000000E+00  0.10891210095E+03  0.10891210095E+03  0.00000000000E+00 0.  1.
          1   -1    0    0  501    0  0.00000000000E+00 -0.00000000000E+00 -0.65771016597E+03  0.65771016597E+03  0.00000000000E+00 0. -1.
         25    2    1    2    0    0  0.17256777989E+03  0.15999345233E+03 -0.36748772183E+03  0.45395100151E+03  0.12508694030E+03 0.  0.
          5    1    3    3  502    0  0.10683763422E+03  0.10048725801E+03 -0.11533846077E+03  0.18663440744E+03  0.41800000000E+01 0.  1.
         -5    1    3    3    0  502  0.65730145670E+02  0.59506194315E+02 -0.25214926106E+03  0.26731659407E+03  0.41800000000E+01 0.  1.
        -11    1    1    2    0    0 -0.64234380369E+02 -0.12536383749E+03 -0.10544162878E+03  0.17595477957E+03  0.00000000000E+00 0.  1.
         11    1    1    2    0    0 -0.10833339952E+03 -0.34629614836E+02 -0.75868714408E+02  0.13671648584E+03  0.00000000000E+00 0. -1.
</event>
<event>
 7    1  0.2380582E-009  0.2395154E+03  0.7561462E-02  0.1120116E+00
         -1   -1    0    0    0  501 -0.00000000000E+00  0.00000000000E+00  0.63951714099E+03  0.63951714099E+03  0.00000000000E+00 0.  1.
          1   -1    0    0  501    0  0.00000000000E+00 -0.00000000000E+00 -0.10213462067E+03  0.10213462067E+03  0.00000000000E+00 0. -1.
         25    2    1    2    0    0 -0.19970302417E+03  0.90986197352E+02  0.17416785857E+03  0.30682560898E+03  0.12509086855E+03 0.  0.
          5    1    3    3  502    0 -0.24856398416E+02  0.60359258216E+02  0.87495479081E+02  0.10924290299E+03  0.41800000000E+01 0. -1.
         -5    1    3    3    0  502 -0.17484662575E+03  0.30626939136E+02  0.86672379488E+02  0.19758270598E+03  0.41800000000E+01 0. -1.
        -11    1    1    2    0    0  0.13924933977E+03 -0.16640832203E+02  0.24864341189E+03  0.28546600883E+03  0.00000000000E+00 0.  1.
         11    1    1    2    0    0  0.60453684395E+02 -0.74345365149E+02  0.11457124986E+03  0.14936014385E+03  0.00000000000E+00 0. -1.
</event>
<event>
 7    1  0.2380582E-009  0.2474151E+03  0.7561462E-02  0.1114949E+00
          4   -1    0    0  501    0  0.00000000000E+00  0.00000000000E+00  0.36133269743E+03  0.36133269743E+03  0.00000000000E+00 0. -1.
         -4   -1    0    0    0  501 -0.00000000000E+00 -0.00000000000E+00 -0.24548491834E+03  0.24548491834E+03  0.00000000000E+00 0.  1.
         25    2    1    2    0    0 -0.17191454799E+03 -0.17308546913E+03 -0.74390665452E+02  0.28406819930E+03  0.12509028464E+03 0.  0.
          5    1    3    3  502    0 -0.16283373994E+03 -0.13562728531E+03 -0.10321779002E+03  0.23575617057E+03  0.41800000000E+01 0. -1.
         -5    1    3    3    0  502 -0.90808080555E+01 -0.37458183820E+02  0.28827124565E+02  0.48312028737E+02  0.41800000000E+01 0. -1.
        -11    1    1    2    0    0  0.10809979101E+03  0.10296564850E+03  0.16917430375E+03  0.22562675958E+03  0.00000000000E+00 0. -1.
         11    1    1    2    0    0  0.63814756982E+02  0.70119820633E+02  0.21064140798E+02  0.97122656893E+02  0.00000000000E+00 0.  1.
</event>
<event>
 7    1  0.2380582E-009  0.1343578E+03  0.7561462E-02  0.1221129E+00
         -1   -1    0    0    0  501 -0.00000000000E+00  0.00000000000E+00  0.47325789379E+03  0.47325789379E+03  0.00000000000E+00 0.  1.
          1   -1    0    0  501    0  0.00000000000E+00 -0.00000000000E+00 -0.48539029227E+02  0.48539029227E+02  0.00000000000E+00 0. -1.
         25    2    1    2    0    0  0.36092063353E+02  0.95767421001E+02  0.27438894431E+03  0.31845144206E+03  0.12509193510E+03 0.  0.
          5    1    3    3  502    0 -0.92609669573E+01  0.11191187656E+03  0.17559997922E+03  0.20847747774E+03  0.41800000000E+01 0. -1.
         -5    1    3    3    0  502  0.45353030311E+02 -0.16144455557E+02  0.98788965095E+02  0.10997396432E+03  0.41800000000E+01 0. -1.
        -11    1    1    2    0    0 -0.40511113487E+02 -0.62625539969E+02  0.33388995174E+02  0.81718624383E+02  0.00000000000E+00 0. -1.
         11    1    1    2    0    0  0.44190501332E+01 -0.33141881031E+02  0.11694092507E+03  0.12162685657E+03  0.00000000000E+00 0.  1.
</event>
<event>
 7    1  0.2380582E-009  0.1390036E+03  0.7561462E-02  0.1214676E+00
          1   -1    0    0  501    0  0.00000000000E+00  0.00000000000E+00  0.20087903365E+03  0.20087903365E+03  0.00000000000E+00 0. -1.
         -1   -1    0    0    0  501 -0.00000000000E+00 -0.00000000000E+00 -0.12680271097E+03  0.12680271097E+03  0.00000000000E+00 0.  1.
         25    2    1    2    0    0 -0.65332839763E+02 -0.63057658623E+02  0.94783762798E+01  0.15486035544E+03  0.12508893559E+03 0.  0.
          5    1    3    3  502    0  0.18873034806E+02 -0.33632162448E+01 -0.36769776518E+02  0.41677230372E+02  0.41800000000E+01 0. -1.
         -5    1    3    3    0  502 -0.84205874569E+02 -0.59694442378E+02  0.46248152798E+02  0.11318312507E+03  0.41800000000E+01 0. -1.
        -11    1    1    2    0    0  0.10264461061E+03  0.56603994738E+02  0.28779702400E+02  0.12069879692E+03  0.00000000000E+00 0.  1.
         11    1    1    2    0    0 -0.37311770848E+02  0.64536638849E+01  0.35818243992E+02  0.52122592261E+02  0.00000000000E+00 0. -1.
</event>
<event>
 7    1  0.2380582E-009  0.9687171E+02  0.7561462E-02  0.1287015E+00
          1   -1    0    0  501    0  0.00000000000E+00  0.00000000000E+00  0.15516866706E+03  0.15516866706E+03  0.00000000000E+00 0. -1.
         -1   -1    0    0    0  501 -0.00000000000E+00 -0.00000000000E+00 -0.11434555647E+03  0.11434555647E+03  0.00000000000E+00 0.  1.
         25    2    1    2    0    0  0.11578404913E+01 -0.37408091906E+02  0.86955440658E+02  0.15686665869E+03  0.12508074998E+03 0.  0.
          5    1    3    3  502    0 -0.60869653785E+02 -0.23350088401E+02  0.55830502204E+02  0.85935200917E+02  0.41800000000E+01 0.  1.
         -5    1    3    3    0  502  0.62027494276E+02 -0.14058003505E+02  0.31124938454E+02  0.70931457778E+02  0.41800000000E+01 0.  1.
        -11    1    1    2    0    0 -0.24066408716E+02  0.33790235058E+02 -0.68721560653E+02  0.80272192646E+02  0.00000000000E+00 0.  1.
         11    1    1    2    0    0  0.22908568225E+02  0.36178568483E+01  0.22589230586E+02  0.32375372195E+02  0.00000000000E+00 0. -1.
</event>
<event>
 7    1  0.2380582E-009  0.1225234E+03  0.7561462E-02  0.1238991E+00
         -3   -1    0    0    0  501 -0.00000000000E+00  0.00000000000E+00  0.62316860475E+02  0.62316860475E+02  0.00000000000E+00 0.  1.
          3   -1    0    0  501    0  0.00000000000E+00 -0.00000000000E+00 -0.35382610320E+03  0.35382610320E+03  0.00000000000E+00 0. -1.
         25    2    1    2    0    0  0.48127776762E+02  0.66759590072E+02 -0.23882823111E+03  0.28188543166E+03  0.12508935544E+03 0.  0.
          5    1    3    3  502    0  0.17876643497E+02 -0.33165503236E+02 -0.29879569012E+02  0.48267857131E+02  0.41800000000E+01 0. -1.
         -5    1    3    3    0  502  0.30251133265E+02  0.99925093308E+02 -0.20894866210E+03  0.23361757453E+03  0.41800000000E+01 0. -1.
        -11    1    1    2    0    0  0.12228357484E+02 -0.28960173508E+02  0.16039975120E+02  0.35291715434E+02  0.00000000000E+00 0.  1.
         11    1    1    2    0    0 -0.60356134247E+02 -0.37799416564E+02 -0.68720986734E+02  0.98965816581E+02  0.00000000000E+00 0. -1.
</event>
<event>
 7    1  0.2380582E-009  0.7216048E+02  0.7561462E-02  0.1352897E+00
          1   -1    0    0  501    0  0.00000000000E+00  0.00000000000E+00  0.60324642461E+03  0.60324642461E+03  0.00000000000E+00 0. -1.
         -1   -1    0    0    0  501 -0.00000000000E+00 -0.00000000000E+00 -0.27909832968E+02  0.27909832968E+02  0.00000000000E+00 0.  1.
         25    2    1    2    0    0  0.49406200068E+02  0.28745386041E+02  0.45166219406E+03  0.47213691929E+03  0.12508902105E+03 0.  0.
          5    1    3    3  502    0  0.62906962673E+01  0.38860045365E+02  0.40762572154E+03  0.40954349860E+03  0.41800000000E+01 0. -1.
         -5    1    3    3    0  502  0.43115503800E+02 -0.10114659324E+02  0.44036472524E+02  0.62593420689E+02  0.41800000000E+01 0. -1.
        -11    1    1    2    0    0 -0.16384700308E+02  0.12981095100E+00 -0.94079285753E+01  0.18894030145E+02  0.00000000000E+00 0.  1.
         11    1    1    2    0    0 -0.33021499760E+02 -0.28875196992E+02  0.13308232615E+03  0.14012530814E+03  0.00000000000E+00 0. -1.
</event>
<event>
 7    1  0.2380582E-009  0.1329654E+03  0.7561462E-02  0.1223121E+00
         -1   -1    0    0    0  501 -0.00000000000E+00  0.00000000000E+00  0.52159143372E+02  0.52159143372E+02  0.00000000000E+00 0.  1.
          1   -1    0    0  501    0  0.00000000000E+00 -0.00000000000E+00 -0.41525349388E+03  0.41525349388E+03  0.00000000000E+00 0. -1.
         25    2    1    2    0    0 -0.74002638823E+02  0.84051281821E+02 -0.22336777575E+03  0.27943108498E+03  0.12509020539E+03 0.  0.
          5    1    3    3  502    0 -0.41468088735E+02  0.96898833399E+02 -0.22007650076E+03  0.24404943123E+03  0.41800000000E+01 0.  1.
         -5    1    3    3    0  502 -0.32534550088E+02 -0.12847551578E+02 -0.32912749833E+01  0.35381653749E+02  0.41800000000E+01 0.  1.
        -11    1    1    2    0    0 -0.18008210059E+01 -0.34746525435E+02 -0.31345044511E+02  0.46830287224E+02  0.00000000000E+00 0. -1.
         11    1    1    2    0    0  0.75803459829E+02 -0.49304756386E+02 -0.10838153025E+03  0.14115126504E+03  0.00000000000E+00 0.  1.
</event>
<event>
 7    1  0.2380582E-009  0.1121183E+03  0.7561462E-02  0.1256697E+00
         -2   -1    0    0    0  501 -0.00000000000E+00  0.00000000000E+00  0.22522245530E+02  0.22522245530E+02  0.00000000000E+00 0.  1.
          2   -1    0    0  501    0  0.00000000000E+00 -0.00000000000E+00 -0.88386867778E+03  0.88386867778E+03  0.00000000000E+00 0. -1.
         25    2    1    2    0    0  0.57068657382E+02  0.25230645726E+02 -0.26354987645E+03  0.29832424529E+03  0.12508157663E+03 0.  0.
          5    1    3    3  502    0  0.10974734251E+01 -0.32321231017E+02 -0.12847583645E+02  0.35048526758E+02  0.41800000000E+01 0. -1.
         -5    1    3    3    0  502  0.55971183957E+02  0.57551876743E+02 -0.25070229280E+03  0.26327571853E+03  0.41800000000E+01 0. -1.
        -11    1    1    2    0    0 -0.32012908201E+01  0.32280945863E+02 -0.16641933081E+03  0.16955147123E+03  0.00000000000E+00 0.  1.
         11    1    1    2    0    0 -0.53867366562E+02 -0.57511591589E+02 -0.43137722499E+03  0.43851520679E+03  0.00000000000E+00 0. -1.
</event>
<event>
 7    1  0.2380582E-009  0.9599948E+02  0.7561462E-02  0.1288941E+00
          1   -1    0    0  501    0  0.00000000000E+00  0.00000000000E+00  0.10161165590E+04  0.10161165590E+04  0.00000000000E+00 0. -1.
         -1   -1    0    0    0  501 -0.00000000000E+00 -0.00000000000E+00 -0.23046915946E+02  0.23046915946E+02  0.00000000000E+00 0.  1.
         25    2    1    2    0    0 -0.21430384716E+02 -0.11874987786E+02  0.89365008587E+03  0.90269529179E+03  0.12509211459E+03 0.  0.
          5    1    3    3  502    0 -0.44295550058E+02  0.28775716668E+02  0.74412745944E+03  0.74601158565E+03  0.41800000000E+01 0. -1.
         -5    1    3    3    0  502  0.22865165342E+02 -0.40650704454E+02  0.14952262643E+03  0.15668370615E+03  0.41800000000E+01 0. -1.
        -11    1    1    2    0    0 -0.25065894380E+02 -0.23034433039E+02  0.48025955228E+02  0.58867448917E+02  0.00000000000E+00 0. -1.
         11    1    1    2    0    0  0.46496279096E+02  0.34909420825E+02  0.51393601969E+02  0.77600734246E+02  0.00000000000E+00 0.  1.
</event>
<event>
 7    1  0.2380582E-009  0.7843870E+02  0.7561462E-02  0.1333541E+00
         -2   -1    0    0    0  501 -0.00000000000E+00  0.00000000000E+00  0.20474532677E+02  0.20474532677E+02  0.00000000000E+00 0. -1.
          2   -1    0    0  501    0  0.00000000000E+00 -0.00000000000E+00 -0.64904770266E+03  0.64904770266E+03  0.00000000000E+00 0.  1.
         25    2    1    2    0    0 -0.26765564918E+02 -0.49370726975E+01 -0.50241552599E+03  0.51846927357E+03  0.12509299233E+03 0.  0.
          5    1    3    3  502    0 -0.57095029435E+02 -0.14189271474E+02 -0.46715717681E+03  0.47086566881E+03  0.41800000000E+01 0.  1.
         -5    1    3    3    0  502  0.30329464518E+02  0.92521987766E+01 -0.35258349175E+02  0.47603604765E+02  0.41800000000E+01 0.  1.
        -11    1    1    2    0    0  0.45413101972E+02  0.10186157636E+02 -0.12288880501E+03  0.13140687210E+03  0.00000000000E+00 0.  1.
         11    1    1    2    0    0 -0.18647537054E+02 -0.52490849383E+01 -0.32688389827E+01  0.19646089666E+02  0.00000000000E+00 0. -1.
</event>
<event>
 7    1  0.2380582E-009  0.1037383E+03  0.7561462E-02  0.1272626E+00
         -2   -1    0    0    0  501 -0.00000000000E+00  0.00000000000E+00  0.55716700242E+02  0.55716700242E+02  0.00000000000E+00 0.  1.
          2   -1    0    0  501    0  0.00000000000E+00 -0.00000000000E+00 -0.28650413992E+03  0.28650413992E+03  0.00000000000E+00 0. -1.
         25    2    1    2    0    0  0.41463431034E+02  0.37044113447E+02 -0.85181985860E+02  0.16122961870E+03  0.12509011463E+03 0.  0.
          5    1    3    3  502    0  0.29887292237E+02  0.64122274199E+02  0.14293980126E+00  0.70868957362E+02  0.41800000000E+01 0.  1.
         -5    1    3    3    0  502  0.11576138797E+02 -0.27078160752E+02 -0.85324925662E+02  0.90360661343E+02  0.41800000000E+01 0.  1.
        -11    1    1    2    0    0 -0.69858809140E+02 -0.16402306903E+02 -0.10673974061E+03  0.12861827674E+03  0.00000000000E+00 0.  1.
         11    1    1    2    0    0  0.28395378106E+02 -0.20641806544E+02 -0.38865713213E+02  0.52372944720E+02  0.00000000000E+00 0. -1.
</event>
<event>
 7    1  0.2380582E-009  0.2136201E+03  0.7561462E-02  0.1138731E+00
         -2   -1    0    0    0  501 -0.00000000000E+00  0.00000000000E+00  0.10607314482E+03  0.10607314482E+03  0.00000000000E+00 0.  1.
          2   -1    0    0  501    0  0.00000000000E+00 -0.00000000000E+00 -0.45819087974E+03  0.45819087974E+03  0.00000000000E+00 0. -1.
         25    2    1    2    0    0 -0.18894035411E+03 -0.24031202786E+02 -0.15699835542E+03  0.27671840787E+03  0.12509451439E+03 0.  0.
          5    1    3    3  502    0 -0.19260315629E+02  0.41220163062E+02 -0.25623867672E+02  0.52384316312E+02  0.41800000000E+01 0.  1.
         -5    1    3    3    0  502 -0.16968003848E+03 -0.65251365848E+02 -0.13137448775E+03  0.22433409156E+03  0.41800000000E+01 0.  1.
        -11    1    1    2    0    0  0.16342444219E+03  0.41714355873E+02 -0.19316779479E+03  0.25643992032E+03  0.00000000000E+00 0. -1.
         11    1    1    2    0    0  0.25515911917E+02 -0.17683153087E+02 -0.19515847097E+01  0.31105696374E+02  0.00000000000E+00 0.  1.
</event>
<event>
 7    1  0.2380582E-009  0.1522202E+03  0.7561462E-02  0.1197771E+00
         -1   -1    0    0    0  501 -0.00000000000E+00  0.00000000000E+00  0.98142859159E+02  0.98142859159E+02  0.00000000000E+00 0.  1.
          1   -1    0    0  501    0  0.00000000000E+00 -0.00000000000E+00 -0.28136865984E+03  0.28136865984E+03  0.00000000000E+00 0. -1.
         25    2    1    2    0    0  0.11916805454E+02  0.12440125821E+03 -0.99805529957E+02  0.20304156650E+03  0.12508817138E+03 0.  0.
          5    1    3    3  502    0 -0.38324474037E+02  0.14353198653E+02  0.68588763149E+01  0.41704870293E+02  0.41800000000E+01 0.  1.
         -5    1    3    3    0  502  0.50241279492E+02  0.11004805956E+03 -0.10666440627E+03  0.16133669621E+03  0.41800000000E+01 0.  1.
        -11    1    1    2    0    0  0.20008721490E+02 -0.79860417287E+01 -0.44830478761E+02  0.49738291327E+02  0.00000000000E+00 0. -1.
         11    1    1    2    0    0 -0.31925526945E+02 -0.11641521648E+03 -0.38589791963E+02  0.12673166117E+03  0.00000000000E+00 0.  1.
</event>
<event>
 7    1  0.2380582E-009  0.1839715E+03  0.7561462E-02  0.1164014E+00
          2   -1    0    0  501    0  0.00000000000E+00  0.00000000000E+00  0.19237894879E+04  0.19237894879E+04  0.00000000000E+00 0.  1.
         -2   -1    0    0    0  501 -0.00000000000E+00 -0.00000000000E+00 -0.33516158424E+02  0.33516158424E+02  0.00000000000E+00 0. -1.
         25    2    1    2    0    0 -0.21046080502E+02  0.15723293679E+03  0.16114611619E+04  0.16240751453E+04  0.12509143561E+03 0.  0.
          5    1    3    3  502    0  0.42886971761E+02  0.82030679673E+02  0.10416292950E+04  0.10457425044E+04  0.41800000000E+01 0. -1.
         -5    1    3    3    0  502 -0.63933052263E+02  0.75202257114E+02  0.56983186686E+03  0.57833264090E+03  0.41800000000E+01 0. -1.
        -11    1    1    2    0    0  0.49725917518E+02 -0.81068058338E+02  0.19182943584E+03  0.21411032065E+03  0.00000000000E+00 0.  1.
         11    1    1    2    0    0 -0.28679837017E+02 -0.76164878449E+02  0.86982731776E+02  0.11912018044E+03  0.00000000000E+00 0. -1.
</event>
<event>
 7    1  0.2380582E-009  0.1031960E+03  0.7561462E-02  0.1273715E+00
         -3   -1    0    0    0  501 -0.00000000000E+00  0.00000000000E+00  0.10699922845E+03  0.10699922845E+03  0.00000000000E+00 0.  1.
          3   -1    0    0  501    0  0.00000000000E+00 -0.00000000000E+00 -0.12726344133E+03  0.12726344133E+03  0.00000000000E+00 0. -1.
         25    2    1    2    0    0 -0.12862637502E+02  0.13388766327E+02 -0.53578556040E+02  0.13734986208E+03  0.12509842701E+03 0.  0.
          5    1    3    3  502    0 -0.60230324849E+02 -0.14325703344E+02 -0.22518603353E+01  0.62092359294E+02  0.41800000000E+01 0.  1.
         -5    1    3    3    0  502  0.47367687348E+02  0.27714469671E+02 -0.51326695705E+02  0.75257502787E+02  0.41800000000E+01 0.  1.
        -11    1    1    2    0    0  0.48836096871E+02  0.46535836101E+01  0.27532041995E+02  0.56255075632E+02  0.00000000000E+00 0.  1.
         11    1    1    2    0    0 -0.35973459369E+02 -0.18042349937E+02  0.57823011603E+01  0.40657732068E+02  0.00000000000E+00 0. -1.
</event>
<event>
 7    1  0.2380582E-009  0.1436875E+03  0.7561462E-02  0.1208452E+00
         -1   -1    0    0    0  501 -0.00000000000E+00  0.00000000000E+00  0.17164972217E+03  0.17164972217E+03  0.00000000000E+00 0.  1.
          1   -1    0    0  501    0  0.00000000000E+00 -0.00000000000E+00 -0.19918397462E+03  0.19918397462E+03  0.00000000000E+00 0. -1.
         25    2    1    2    0    0  0.80453512351E+02 -0.64038124182E+02  0.94392070443E+02  0.18743157312E+03  0.12508829939E+03 0.  0.
          5    1    3    3  502    0  0.69722927250E+02  0.19331345314E+02  0.67604616183E+02  0.99110261957E+02  0.41800000000E+01 0.  1.
         -5    1    3    3    0  502  0.10730585102E+02 -0.83369469496E+02  0.26787454260E+02  0.88321311168E+02  0.41800000000E+01 0.  1.
        -11    1    1    2    0    0 -0.56104959828E+02  0.82788462612E+02 -0.11402975110E+03  0.15167227893E+03  0.00000000000E+00 0.  1.
         11    1    1    2    0    0 -0.24348552523E+02 -0.18750338430E+02 -0.78965717926E+01  0.31729844741E+02  0.00000000000E+00 0. -1.
</event>
<event>
 7    1  0.2380582E-009  0.9204314E+02  0.7561462E-02  0.1297978E+00
         -1   -1    0    0    0  501 -0.00000000000E+00  0.00000000000E+00  0.26829858753E+03  0.26829858753E+03  0.00000000000E+00 0.  1.
          1   -1    0    0  501    0  0.00000000000E+00 -0.00000000000E+00 -0.70353299077E+02  0.70353299077E+02  0.00000000000E+00 0. -1.
         25    2    1    2    0    0 -0.63851520545E+02  0.46981684762E+02  0.72409253865E+02  0.16484502163E+03  0.12508591340E+03 0.  0.
          5    1    3    3  502    0 -0.32173185896E+02 -0.85747544349E+01  0.91917724349E+02  0.97851830611E+02  0.41800000000E+01 0. -1.
         -5    1    3    3    0  502 -0.31678334649E+02  0.55556439197E+02 -0.19508470484E+02  0.66993191020E+02  0.41800000000E+01 0. -1.
        -11    1    1    2    0    0  0.15513362549E+02 -0.32443567271E+02  0.11726666435E+03  0.12265692008E+03  0.00000000000E+00 0.  1.
         11    1    1    2    0    0  0.48338157997E+02 -0.14538117491E+02  0.82693702324E+01  0.51149944895E+02  0.00000000000E+00 0. -1.
</event>
<event>
 7    1  0.2380582E-009  0.1725762E+03  0.7561462E-02  0.1175188E+00
         -1   -1    0    0    0  501 -0.00000000000E+00  0.00000000000E+00  0.57024108026E+03  0.57024108026E+03  0.00000000000E+00 0.  1.
          1   -1    0    0  501    0  0.00000000000E+00 -0.00000000000E+00 -0.88875283920E+02  0.88875283920E+02  0.00000000000E+00 0. -1.
         25    2    1    2    0    0 -0.23385651546E+02  0.14599752318E+03  0.44031603535E+03  0.48102724277E+03  0.12508729683E+03 0.  0.
          5    1    3    3  502    0 -0.70462629756E+02  0.56886193174E+02  0.17300891542E+03  0.19532173044E+03  0.41800000000E+01 0.  1.
         -5    1    3    3    0  502  0.47076978210E+02  0.89111330006E+02  0.26730711993E+03  0.28570551233E+03  0.41800000000E+01 0.  1.
        -11    1    1    2    0    0  0.65291404317E+00 -0.11593839636E+03  0.65502283202E+02  0.13316413613E+03  0.00000000000E+00 0.  1.
         11    1    1    2    0    0  0.22732737503E+02 -0.30059126818E+02 -0.24452522211E+02  0.44924985275E+02  0.00000000000E+00 0. -1.
</event>
<event>
 7    1  0.2380582E-009  0.9759055E+02  0.7561462E-02  0.1285446E+00
         -2   -1    0    0    0  501 -0.00000000000E+00  0.00000000000E+00  0.11378836072E+03  0.11378836072E+03  0.00000000000E+00 0.  1.
          2   -1    0    0  501    0  0.00000000000E+00 -0.00000000000E+00 -0.13536549537E+03  0.13536549537E+03  0.00000000000E+00 0. -1.
         25    2    1    2    0    0 -0.31234516754E+02  0.30503765194E+02  0.22055711433E+02  0.13431426923E+03  0.12509114191E+03 0.  0.
          5    1    3    3  502    0 -0.74979770888E+02  0.30897275912E+02  0.35111361900E+02  0.88469700099E+02  0.41800000000E+01 0.  1.
         -5    1    3    3    0  502  0.43745254133E+02 -0.39351071835E+00 -0.13055650467E+02  0.45844569133E+02  0.41800000000E+01 0.  1.
        -11    1    1    2    0    0 -0.15837151413E+02 -0.96598996816E+01 -0.58406320703E+02  0.61281541469E+02  0.00000000000E+00 0. -1.
         11    1    1    2    0    0  0.47071668167E+02 -0.20843865512E+02  0.14773474617E+02  0.53558045388E+02  0.00000000000E+00 0.  1.
</event>
<event>
 7    1  0.2380582E-009  0.1137868E+03  0.7561462E-02  0.1253714E+00
         -2   -1    0    0    0  501 -0.00000000000E+00  0.00000000000E+00  0.10610142845E+03  0.10610142845E+03  0.00000000000E+00 0.  1.
          2   -1    0    0  501    0  0.00000000000E+00 -0.00000000000E+00 -0.31792392154E+03  0.31792392154E+03  0.00000000000E+00 0. -1.
         25    2    1    2    0    0 -0.20210340947E+02 -0.38749987420E+02 -0.76361324432E+02  0.15293618283E+03  0.12509358394E+03 0.  0.
          5    1    3    3  502    0  0.37196103721E+02  0.90726126908E+01 -0.67320707053E+02  0.77559089932E+02  0.41800000000E+01 0.  1.
         -5    1    3    3    0  502 -0.57406444668E+02 -0.47822600110E+02 -0.90406173793E+01  0.75377092895E+02  0.41800000000E+01 0.  1.
        -11    1    1    2    0    0 -0.43553367597E+02  0.12914732790E+02 -0.18229007736E+03  0.18786526676E+03  0.00000000000E+00 0. -1.
         11    1    1    2    0    0  0.63763708544E+02  0.25835254630E+02  0.46828908699E+02  0.83223900407E+02  0.00000000000E+00 0.  1.
</event>
<event>
 7    1  0.2380582E-009  0.1115633E+03  0.7561462E-02  0.1257702E+00
          2   -1    0    0  501    0  0.00000000000E+00  0.00000000000E+00  0.12034640456E+03  0.12034640456E+03  0.00000000000E+00 0. -1.
         -2   -1    0    0    0  501 -0.00000000000E+00 -0.00000000000E+00 -0.18283190513E+03  0.18283190513E+03  0.00000000000E+00 0.  1.
         25    2    1    2    0    0  0.11753423634E+02 -0.83981763729E+02  0.20589067169E+02  0.15251982216E+03  0.12508919561E+03 0.  0.
          5    1    3    3  502    0  0.51064766776E+02 -0.80093783164E+02 -0.18417534872E+02  0.96846799111E+02  0.41800000000E+01 0. -1.
         -5    1    3    3    0  502 -0.39311343142E+02 -0.38879805654E+01  0.39006602041E+02  0.55673023048E+02  0.41800000000E+01 0. -1.
        -11    1    1    2    0    0  0.26174017317E+01  0.62035394520E+02 -0.10123052943E+03  0.11875546747E+03  0.00000000000E+00 0.  1.
         11    1    1    2    0    0 -0.14370825366E+02  0.21946369209E+02  0.18155961699E+02  0.31903020050E+02  0.00000000000E+00 0. -1.
</event>
<event>
 7    1  0.2380582E-009  0.1070095E+03  0.7561462E-02  0.1266210E+00
          1   -1    0    0  501    0  0.00000000000E+00  0.00000000000E+00  0.25822815977E+02  0.25822815977E+02  0.00000000000E+00 0. -1.
         -1   -1    0    0    0  501 -0.00000000000E+00 -0.00000000000E+00 -0.66955969884E+03  0.66955969884E+03  0.00000000000E+00 0.  1.
         25    2    1    2    0    0  0.71088976821E+02 -0.16693936669E+02 -0.36972596305E+03  0.39708556128E+03  0.12508926843E+03 0.  0.
          5    1    3    3  502    0  0.99284549672E+01 -0.52819687125E+02 -0.66410308265E+02  0.85535343629E+02  0.41800000000E+01 0. -1.
         -5    1    3    3    0  502  0.61160521853E+02  0.36125750456E+02 -0.30331565479E+03  0.31155021765E+03  0.41800000000E+01 0. -1.
        -11    1    1    2    0    0 -0.77854078476E+02  0.84795285716E+01 -0.27649275572E+03  0.28736980340E+03  0.00000000000E+00 0.  1.
         11    1    1    2    0    0  0.67651016556E+01  0.82144080974E+01  0.24818359038E+01  0.10927150143E+02  0.00000000000E+00 0. -1.
</event>
<event>
 7    1  0.2380582E-009  0.8559926E+02  0.7561462E-02  0.1313873E+00
          1   -1    0    0  501    0  0.00000000000E+00  0.00000000000E+00  0.13551437360E+03  0.13551437360E+03  0.00000000000E+00 0. -1.
         -1   -1    0    0    0  501 -0.00000000000E+00 -0.00000000000E+00 -0.90538510609E+02  0.90538510609E+02  0.00000000000E+00 0.  1.
         25    2    1    2    0    0  0.78682046449E+01  0.24833157006E+01  0.49565625737E+02  0.13480366342E+03  0.12508877214E+03 0.  0.
          5    1    3    3  502    0  0.48588802804E+02 -0.19037345655E+01 -0.20980211323E+02  0.53123795331E+02  0.41800000000E+01 0. -1.
         -5    1    3    3    0  502 -0.40720598159E+02  0.43870502662E+01  0.70545837059E+02  0.81679868088E+02  0.41800000000E+01 0. -1.
        -11    1    1    2    0    0  0.23441512815E+02 -0.31006243966E+02  0.18458325370E+02  0.43030238942E+02  0.00000000000E+00 0. -1.
         11    1    1    2    0    0 -0.31309717460E+02  0.28522928265E+02 -0.23048088118E+02  0.48218981845E+02  0.00000000000E+00 0.  1.
</event>
<event>
 7    1  0.2380582E-009  0.2387589E+03  0.7561462E-02  0.1120622E+00
          2   -1    0    0  501    0  0.00000000000E+00  0.00000000000E+00  0.89755829618E+03  0.89755829618E+03  0.00000000000E+00 0. -1.
         -2   -1    0    0    0  501 -0.00000000000E+00 -0.00000000000E+00 -0.14362322321E+03  0.14362322321E+03  0.00000000000E+00 0.  1.
         25    2    1    2    0    0  0.14028194274E+03  0.16436602346E+03  0.76662559722E+03  0.80626142308E+03  0.12508981936E+03 0.  0.
          5    1    3    3  502    0  0.34586594809E+02 -0.12609748203E+02  0.19739188397E+03  0.20083890696E+03  0.41800000000E+01 0. -1.
         -5    1    3    3    0  502  0.10569534793E+03  0.17697577166E+03  0.56923371325E+03  0.60542251612E+03  0.41800000000E+01 0. -1.
        -11    1    1    2    0    0 -0.14532056261E+03 -0.11675558549E+03 -0.53972576353E+01  0.18649145570E+03  0.00000000000E+00 0.  1.
         11    1    1    2    0    0  0.50386198652E+01 -0.47610437968E+02 -0.72932666137E+01  0.48428640612E+02  0.00000000000E+00 0. -1.
</event>
<event>
 7    1  0.2380582E-009  0.1192592E+03  0.7561462E-02  0.1244324E+00
          2   -1    0    0  501    0  0.00000000000E+00  0.00000000000E+00  0.16525290071E+03  0.16525290071E+03  0.00000000000E+00 0. -1.
         -2   -1    0    0    0  501 -0.00000000000E+00 -0.00000000000E+00 -0.87784923580E+02  0.87784923580E+02  0.00000000000E+00 0.  1.
         25    2    1    2    0    0 -0.33533406439E+02 -0.42253190852E+02  0.35040494925E+02  0.14066264142E+03  0.12509324890E+03 0.  0.
          5    1    3    3  502    0 -0.58392036250E+02 -0.74395785540E+02  0.17803125510E+02  0.96326457847E+02  0.41800000000E+01 0.  1.
         -5    1    3    3    0  502  0.24858629810E+02  0.32142594687E+02  0.17237369415E+02  0.44336183571E+02  0.41800000000E+01 0.  1.
        -11    1    1    2    0    0  0.63294278207E+02  0.22017297806E+02  0.19857515380E+02  0.69894548954E+02  0.00000000000E+00 0.  1.
         11    1    1    2    0    0 -0.29760871768E+02  0.20235893046E+02  0.22569966829E+02  0.42480633922E+02  0.00000000000E+00 0. -1.
</event>
<event>
 7    1  0.2380582E-009  0.1149592E+03  0.7561462E-02  0.1251652E+00
          1   -1    0    0  501    0  0.00000000000E+00  0.00000000000E+00  0.82166823099E+03  0.82166823099E+03  0.00000000000E+00 0. -1.
         -1   -1    0    0    0  501 -0.00000000000E+00 -0.00000000000E+00 -0.26067640335E+02  0.26067640335E+02  0.00000000000E+00 0.  1.
         25    2    1    2    0    0  0.70294007167E+02 -0.34315353421E+02  0.59118636691E+03  0.60931416967E+03  0.12507456185E+03 0.  0.
          5    1    3    3  502    0  0.40195446930E+02 -0.71504468197E+02  0.21638922824E+03  0.23145265914E+03  0.41800000000E+01 0. -1.
         -5    1    3    3    0  502  0.30098560237E+02  0.37189114776E+02  0.37479713867E+03  0.37786151053E+03  0.41800000000E+01 0. -1.
        -11    1    1    2    0    0 -0.15423914970E+02 -0.18166282263E+02  0.40748974481E+01  0.24176760608E+02  0.00000000000E+00 0.  1.
         11    1    1    2    0    0 -0.54870092197E+02  0.52481635684E+02  0.20033932630E+03  0.21424494105E+03  0.00000000000E+00 0. -1.
</event>
<event>
 7    1  0.2380582E-009  0.3304931E+03  0.7561462E-02  0.1070919E+00
         -1   -1    0    0    0  501 -0.00000000000E+00  0.00000000000E+00  0.39887578527E+03  0.39887578527E+03  0.00000000000E+00 0.  1.
          1   -1    0    0  501    0  0.00000000000E+00 -0.00000000000E+00 -0.41208443129E+03  0.41208443129E+03  0.00000000000E+00 0. -1.
         25    2    1    2    0    0  0.27371487999E+03  0.15799354258E+03 -0.23589559570E+03  0.41373480341E+03  0.12509180812E+03 0.  0.
          5    1    3    3  502    0  0.13165679876E+03  0.14643249388E+03 -0.12756976587E+03  0.23466466604E+03  0.41800000000E+01 0. -1.
         -5    1    3    3    0  502  0.14205808123E+03  0.11561048694E+02 -0.10832582984E+03  0.17907013737E+03  0.41800000000E+01 0. -1.
        -11    1    1    2    0    0 -0.10751839012E+03 -0.29880106032E+02  0.11908628308E+03  0.16320100419E+03  0.00000000000E+00 0.  1.
         11    1    1    2    0    0 -0.16619648986E+03 -0.12811343654E+03  0.10360066661E+03  0.23402440896E+03  0.00000000000E+00 0. -1.
</event>
<event>
 7    1  0.2380582E-009  0.7998919E+02  0.7561462E-02  0.1329082E+00
         -3   -1    0    0    0  501 -0.00000000000E+00  0.00000000000E+00  0.92503703461E+02  0.92503703461E+02  0.00000000000E+00 0.  1.
          3   -1    0    0  501    0  0.00000000000E+00 -0.00000000000E+00 -0.14101155554E+03  0.14101155554E+03  0.00000000000E+00 0. -1.
         25    2    1    2    0    0  0.69692973779E+00  0.12343243382E+02 -0.59042322836E+02  0.13887501694E+03  0.12508970012E+03 0.  0.
          5    1    3    3  502    0  0.15924049787E+02 -0.34889538609E+02 -0.76845825957E+02  0.85986095579E+02  0.41800000000E+01 0.  1.
         -5    1    3    3    0  502 -0.15227120049E+02  0.47232781991E+02  0.17803503121E+02  0.52888921363E+02  0.41800000000E+01 0.  1.
        -11    1    1    2    0    0  0.13829357560E+02 -0.38923104492E+02  0.36210799350E+02  0.54931604595E+02  0.00000000000E+00 0.  1.
         11    1    1    2    0    0 -0.14526287298E+02  0.26579861110E+02 -0.25676328590E+02  0.39708637462E+02  0.00000000000E+00 0. -1.
</event>
<event>
 7    1  0.2380582E-009  0.1402640E+03  0.7561462E-02  0.1212974E+00
          2   -1    0    0  501    0  0.00000000000E+00  0.00000000000E+00  0.94102355215E+03  0.94102355215E+03  0.00000000000E+00 0. -1.
         -2   -1    0    0    0  501 -0.00000000000E+00 -0.00000000000E+00 -0.34723065353E+02  0.34723065353E+02  0.00000000000E+00 0.  1.
         25    2    1    2    0    0  0.68615640334E+02  0.99348949784E+02  0.26521686995E+03  0.31712059452E+03  0.12508862236E+03 0.  0.
          5    1    3    3  502    0  0.28576763757E+01  0.41659002631E+02  0.46408952025E+01  0.42221429663E+02  0.41800000000E+01 0. -1.
         -5    1    3    3    0  502  0.65757963958E+02  0.57689947152E+02  0.26057597474E+03  0.27489916486E+03  0.41800000000E+01 0. -1.
        -11    1    1    2    0    0 -0.88832856219E+02 -0.95457754638E+02  0.55638571243E+03  0.57146173998E+03  0.00000000000E+00 0.  1.
         11    1    1    2    0    0  0.20217215885E+02 -0.38911951459E+01  0.84697904420E+02  0.87164283000E+02  0.00000000000E+00 0. -1.
</event>
<event>
 7    1  0.2380582E-009  0.9960594E+02  0.7561462E-02  0.1281127E+00
         -2   -1    0    0    0  501 -0.00000000000E+00  0.00000000000E+00  0.27648051955E+02  0.27648051955E+02  0.00000000000E+00 0.  1.
          2   -1    0    0  501    0  0.00000000000E+00 -0.00000000000E+00 -0.42770664600E+03  0.42770664600E+03  0.00000000000E+00 0. -1.
         25    2    1    2    0    0 -0.28496490994E+02  0.68849327886E+01 -0.23259383926E+03  0.26572076524E+03  0.12509268053E+03 0.  0.
          5    1    3    3  502    0  0.44616564004E+02  0.20107655579E+02 -0.58474040194E+02  0.76365184299E+02  0.41800000000E+01 0. -1.
         -5    1    3    3    0  502 -0.73113054998E+02 -0.13222722790E+02 -0.17411979906E+03  0.18935558095E+03  0.41800000000E+01 0. -1.
        -11    1    1    2    0    0 -0.91407085298E+01  0.24831205760E+02 -0.17312238766E+02  0.31620482966E+02  0.00000000000E+00 0.  1.
         11    1    1    2    0    0  0.37637199524E+02 -0.31716138549E+02 -0.15015251602E+03  0.15801344974E+03  0.00000000000E+00 0. -1.
</event>
<event>
 7    1  0.2380582E-009  0.1330017E+03  0.7561462E-02  0.1223068E+00
         -2   -1    0    0    0  501 -0.00000000000E+00  0.00000000000E+00  0.26640507529E+02  0.26640507529E+02  0.00000000000E+00 0. -1.
          2   -1    0    0  501    0  0.00000000000E+00 -0.00000000000E+00 -0.95751789453E+03  0.95751789453E+03  0.00000000000E+00 0.  1.
         25    2    1    2    0    0  0.68318690655E+02  0.50442109613E+02 -0.26035651486E+03  0.30107312028E+03  0.12509060321E+03 0.  0.
          5    1    3    3  502    0  0.68985262007E+02 -0.14483806167E+02 -0.20084920337E+03  0.21290049767E+03  0.41800000000E+01 0. -1.
         -5    1    3    3    0  502 -0.66657135238E+00  0.64925915780E+02 -0.59507311498E+02  0.88172622616E+02  0.41800000000E+01 0. -1.
        -11    1    1    2    0    0  0.34519971409E+01  0.25560303126E+02 -0.12311665515E+03  0.12578933244E+03  0.00000000000E+00 0. -1.
         11    1    1    2    0    0 -0.71770687796E+02 -0.76002412738E+02 -0.54740421698E+03  0.55729594933E+03  0.00000000000E+00 0.  1.
</event>
<event>
 7    1  0.2380582E-009  0.9177210E+02  0.7561462E-02  0.1298616E+00
          1   -1    0    0  501    0  0.00000000000E+00  0.00000000000E+00  0.26404481083E+02  0.26404481083E+02  0.00000000000E+00 0.  1.
         -1   -1    0    0    0  501 -0.00000000000E+00 -0.00000000000E+00 -0.50845996033E+03  0.50845996033E+03  0.00000000000E+00 0. -1.
         25    2    1    2    0    0  0.38465066770E+02 -0.20596730270E+02 -0.25590233435E+03  0.28815888989E+03  0.12508299021E+03 0.  0.
          5    1    3    3  502    0  0.20038699760E+02 -0.54828760712E+02 -0.45438141338E+02  0.74093451651E+02  0.41800000000E+01 0. -1.
         -5    1    3    3    0  502  0.18426367010E+02  0.34232030442E+02 -0.21046419301E+03  0.21406543824E+03  0.41800000000E+01 0. -1.
        -11    1    1    2    0    0 -0.28735090736E+02  0.48496743227E+02 -0.81690836802E+02  0.99252367028E+02  0.00000000000E+00 0.  1.
         11    1    1    2    0    0 -0.97299760343E+01 -0.27900012957E+02 -0.14446230809E+03  0.14745318449E+03  0.00000000000E+00 0. -1.
</event>
<event>
 7    1  0.2380582E-009  0.1956150E+03  0.7561462E-02  0.1153492E+00
          2   -1    0    0  501    0  0.00000000000E+00  0.00000000000E+00  0.97295203545E+03  0.97295203545E+03  0.00000000000E+00 0. -1.
         -2   -1    0    0    0  501 -0.00000000000E+00 -0.00000000000E+00 -0.44835533143E+02  0.44835533143E+02  0.00000000000E+00 0.  1.
         25    2    1    2    0    0  0.12635282691E+03  0.11349712582E+03  0.61325275522E+03  0.64851577654E+03  0.12508851348E+03 0.  0.
          5    1    3    3  502    0  0.46163877425E+02 -0.18276635382E+02  0.23057120373E+03  0.23589338984E+03  0.41800000000E+01 0. -1.
         -5    1    3    3    0  502  0.80188949487E+02  0.13177376121E+03  0.38268155149E+03  0.41262238671E+03  0.41800000000E+01 0. -1.
        -11    1    1    2    0    0 -0.49962739041E+02  0.38338771476E+00  0.48242320055E+02  0.69453176479E+02  0.00000000000E+00 0.  1.
         11    1    1    2    0    0 -0.76390087871E+02 -0.11388051354E+03  0.26662142704E+03  0.29981861557E+03  0.00000000000E+00 0. -1.
</event>
<event>
 7    1  0.2415357E-009  0.7082535E+02  0.7561462E-02  0.1357309E+00
          1   -1    0    0  501    0  0.00000000000E+00  0.00000000000E+00  0.36204461366E+03  0.36204461366E+03  0.00000000000E+00 0.  1.
         -1   -1    0    0    0  501 -0.00000000000E+00 -0.00000000000E+00 -0.47683266633E+02  0.47683266633E+02  0.00000000000E+00 0. -1.
         25    2    1    2    0    0  0.67170499326E+02  0.65071249382E+01  0.12558118289E+03  0.18966460352E+03  0.12509120545E+03 0.  0.
          5    1    3    3  502    0  0.21857172155E+02 -0.86202334606E+01 -0.23238326742E+02  0.33309707734E+02  0.41800000000E+01 0.  1.
         -5    1    3    3    0  502  0.45313327171E+02  0.15127358399E+02  0.14881950963E+03  0.15635489579E+03  0.41800000000E+01 0.  1.
        -11    1    1    2    0    0 -0.36408850684E+02  0.54766741020E+01  0.98503291678E+01  0.38113348739E+02  0.00000000000E+00 0. -1.
         11    1    1    2    0    0 -0.30761648642E+02 -0.11983799040E+02  0.17892983497E+03  0.18194992803E+03  0.00000000000E+00 0.  1.
</event>
<event>
 7    1  0.2380582E-009  0.1109414E+03  0.7561462E-02  0.1258836E+00
          1   -1    0    0  501    0  0.00000000000E+00  0.00000000000E+00  0.27155465345E+02  0.27155465345E+02  0.00000000000E+00 0. -1.
         -1   -1    0    0    0  501 -0.00000000000E+00 -0.00000000000E+00 -0.51532471889E+03  0.51532471889E+03  0.00000000000E+00 0.  1.
         25    2    1    2    0    0 -0.29115922430E+02 -0.39457260221E+02 -0.24334384454E+03  0.27797224383E+03  0.12509088433E+03 0.  0.
          5    1    3    3  502    0 -0.55745741739E+02 -0.67969119836E+02 -0.12190454642E+03  0.15035152081E+03  0.41800000000E+01 0. -1.
         -5    1    3    3    0  502  0.26629819309E+02  0.28511859616E+02 -0.12143929812E+03  0.12762072302E+03  0.41800000000E+01 0. -1.
        -11    1    1    2    0    0 -0.32251633941E+01 -0.23575733588E+02 -0.10614460851E+03  0.10877911017E+03  0.00000000000E+00 0.  1.
         11    1    1    2    0    0  0.32341085825E+02  0.63032993809E+02 -0.13868080049E+03  0.15572883023E+03  0.00000000000E+00 0. -1.
</event>
<event>
 7    1  0.2380582E-009  0.6935804E+02  0.7561462E-02  0.1362290E+00
         -1   -1    0    0    0  501 -0.00000000000E+00  0.00000000000E+00  0.62704051302E+02  0.62704051302E+02  0.00000000000E+00 0.  1.
          1   -1    0    0  501    0  0.00000000000E+00 -0.00000000000E+00 -0.23613618583E+03  0.23613618583E+03  0.00000000000E+00 0. -1.
         25    2    1    2    0    0 -0.43851574950E+02 -0.11881560149E+02 -0.58451529907E+02  0.14535412469E+03  0.12508840122E+03 0.  0.
          5    1    3    3  502    0 -0.94523394015E+00 -0.39631591971E+01 -0.90731794205E+02  0.90919365251E+02  0.41800000000E+01 0. -1.
         -5    1    3    3    0  502 -0.42906341010E+02 -0.79184009522E+01  0.32280264298E+02  0.54434759443E+02  0.41800000000E+01 0. -1.
        -11    1    1    2    0    0  0.62736289772E+02 -0.60234177611E+01 -0.11031272729E+03  0.12704731960E+03  0.00000000000E+00 0.  1.
         11    1    1    2    0    0 -0.18884714822E+02  0.17904977910E+02 -0.46678773318E+01  0.26438792837E+02  0.00000000000E+00 0. -1.
</event>
<event>
 7    1  0.2380582E-009  0.7478123E+02  0.7561462E-02  0.1344550E+00
          1   -1    0    0  501    0  0.00000000000E+00  0.00000000000E+00  0.25161690036E+03  0.25161690036E+03  0.00000000000E+00 0. -1.
         -1   -1    0    0    0  501 -0.00000000000E+00 -0.00000000000E+00 -0.48559121390E+02  0.48559121390E+02  0.00000000000E+00 0.  1.
         25    2    1    2    0    0 -0.24449537727E+00  0.20522828687E+02  0.11478116491E+03  0.17099756824E+03  0.12507680141E+03 0.  0.
          5    1    3    3  502    0  0.26025388160E+02  0.59498480172E+01  0.13293197935E+03  0.13565067288E+03  0.41800000000E+01 0.  1.
         -5    1    3    3    0  502 -0.26269883537E+02  0.14572980670E+02 -0.18150814438E+02  0.35346895358E+02  0.41800000000E+01 0.  1.
        -11    1    1    2    0    0 -0.44693948219E+02 -0.66999876071E+01  0.29752445302E+02  0.54107733669E+02  0.00000000000E+00 0.  1.
         11    1    1    2    0    0  0.44938443597E+02 -0.13822841080E+02  0.58524168761E+02  0.75070719842E+02  0.00000000000E+00 0. -1.
</event>
<event>
 7    1  0.2380582E-009  0.1198489E+03  0.7561462E-02  0.1243347E+00
          2   -1    0    0  501    0  0.00000000000E+00  0.00000000000E+00  0.84157461309E+03  0.84157461309E+03  0.00000000000E+00 0. -1.
         -2   -1    0    0    0  501 -0.00000000000E+00 -0.00000000000E+00 -0.20007581828E+02  0.20007581828E+02  0.00000000000E+00 0.  1.
         25    2    1    2    0    0  0.65943544249E+02  0.28138397264E+02  0.46857751668E+03  0.49025949340E+03  0.12509660787E+03 0.  0.
          5    1    3    3  502    0  0.88078178755E+02 -0.88968891389E+01  0.39536711760E+03  0.40517841784E+03  0.41800000000E+01 0.  1.
         -5    1    3    3    0  502 -0.22134634506E+02  0.37035286403E+02  0.73210399082E+02  0.85081075553E+02  0.41800000000E+01 0.  1.
        -11    1    1    2    0    0  0.93980755524E+01 -0.30935502823E+02  0.53689187045E+02  0.62672625320E+02  0.00000000000E+00 0.  1.
         11    1    1    2    0    0 -0.75341619801E+02  0.27971055592E+01  0.29930032753E+03  0.30865007620E+03  0.00000000000E+00 0. -1.
</event>
<event>
 7    1  0.2380582E-009  0.1098950E+03  0.7561462E-02  0.1260765E+00
          1   -1    0    0  501    0  0.00000000000E+00  0.00000000000E+00  0.26073685362E+02  0.26073685362E+02  0.00000000000E+00 0. -1.
         -1   -1    0    0    0  501 -0.00000000000E+00 -0.00000000000E+00 -0.10338152437E+04  0.10338152437E+04  0.00000000000E+00 0.  1.
         25    2    1    2    0    0 -0.48592296839E+01  0.57317190798E+02 -0.89164453551E+03  0.90221245896E+03  0.12509384847E+03 0.  0.
          5    1    3    3  502    0 -0.52792260276E+02  0.36623163262E+02 -0.71694334455E+03  0.71982880640E+03  0.41800000000E+01 0. -1.
         -5    1    3    3    0  502  0.47933030592E+02  0.20694027536E+02 -0.17470119096E+03  0.18238365256E+03  0.41800000000E+01 0. -1.
        -11    1    1    2    0    0 -0.40371057347E+02 -0.27767999188E+02 -0.75875068434E+02  0.90321149573E+02  0.00000000000E+00 0.  1.
         11    1    1    2    0    0  0.45230287031E+02 -0.29549191609E+02 -0.40221954417E+02  0.67355320553E+02  0.00000000000E+00 0. -1.
</event>
<event>
 7    1  0.2380582E-009  0.1733018E+03  0.7561462E-02  0.1174448E+00
          2   -1    0    0  501    0  0.00000000000E+00  0.00000000000E+00  0.94009713531E+03  0.94009713531E+03  0.00000000000E+00 0. -1.
         -2   -1    0    0    0  501 -0.00000000000E+00 -0.00000000000E+00 -0.34715734980E+02  0.34715734980E+02  0.00000000000E+00 0.  1.
         25    2    1    2    0    0  0.55956663699E+02  0.12872068273E+03  0.44945859143E+03  0.48719738486E+03  0.12509238201E+03 0.  0.
          5    1    3    3  502    0  0.95261909647E+02  0.10187703648E+03  0.35222627177E+03  0.37885957942E+03  0.41800000000E+01 0.  1.
         -5    1    3    3    0  502 -0.39305245948E+02  0.26843646243E+02  0.97232319658E+02  0.10833780545E+03  0.41800000000E+01 0.  1.
        -11    1    1    2    0    0  0.18729589843E+02 -0.32074578170E+02  0.20740614788E+03  0.21070568640E+03  0.00000000000E+00 0. -1.
         11    1    1    2    0    0 -0.74686253542E+02 -0.96646104556E+02  0.24851666102E+03  0.27690979903E+03  0.00000000000E+00 0.  1.
</event>
<event>
 7    1  0.2380582E-009  0.1404625E+03  0.7561462E-02  0.1212708E+00
         -1   -1    0    0    0  501 -0.00000000000E+00  0.00000000000E+00  0.17076396955E+02  0.17076396955E+02  0.00000000000E+00 0.  1.
          1   -1    0    0  501    0  0.00000000000E+00 -0.00000000000E+00 -0.22650140936E+04  0.22650140936E+04  0.00000000000E+00 0. -1.
         25    2    1    2    0    0  0.27098802077E+02  0.10960612810E+03 -0.19864715591E+04  0.19936058589E+04  0.12508883701E+03 0.  0.
          5    1    3    3  502    0  0.38639125454E+02 -0.15415422656E+02 -0.59992501997E+03  0.60138017864E+03  0.41800000000E+01 0. -1.
         -5    1    3    3    0  502 -0.11540323377E+02  0.12502155075E+03 -0.13865465391E+04  0.13922256802E+04  0.41800000000E+01 0. -1.
        -11    1    1    2    0    0 -0.19473045871E+02 -0.54775507734E+02 -0.18612299802E+03  0.19499057965E+03  0.00000000000E+00 0. -1.
         11    1    1    2    0    0 -0.76257562064E+01 -0.54830620363E+02 -0.75343139582E+02  0.93494052053E+02  0.00000000000E+00 0.  1.
</event>
<event>
 7    1  0.2380582E-009  0.2418832E+03  0.7561462E-02  0.1118545E+00
         -2   -1    0    0    0  501 -0.00000000000E+00  0.00000000000E+00  0.14541989742E+03  0.14541989742E+03  0.00000000000E+00 0.  1.
          2   -1    0    0  501    0  0.00000000000E+00 -0.00000000000E+00 -0.44520101143E+03  0.44520101143E+03  0.00000000000E+00 0. -1.
         25    2    1    2    0    0  0.28563232465E+02  0.22491909886E+03 -0.11120385633E+03  0.28181368976E+03  0.12509276075E+03 0.  0.
          5    1    3    3  502    0  0.73510392368E+02  0.10125006183E+03 -0.36305853380E+02  0.13034930071E+03  0.41800000000E+01 0. -1.
         -5    1    3    3    0  502 -0.44947159903E+02  0.12366903704E+03 -0.74898002945E+02  0.15146438905E+03  0.41800000000E+01 0. -1.
        -11    1    1    2    0    0 -0.56884238538E+00 -0.30067775089E+02  0.74677376947E+01  0.30986477482E+02  0.00000000000E+00 0.  1.
         11    1    1    2    0    0 -0.27994390079E+02 -0.19485132377E+03 -0.19604499538E+03  0.27782074161E+03  0.00000000000E+00 0. -1.
</event>
<event>
 7    1  0.2380582E-009  0.1466458E+03  0.7561462E-02  0.1204656E+00
         -2   -1    0    0    0  501 -0.00000000000E+00  0.00000000000E+00  0.31609188931E+03  0.31609188931E+03  0.00000000000E+00 0.  1.
          2   -1    0    0  501    0  0.00000000000E+00 -0.00000000000E+00 -0.96702963626E+02  0.96702963626E+02  0.00000000000E+00 0. -1.
         25    2    1    2    0    0 -0.90754767034E+02 -0.59562588775E+02  0.17959322138E+02  0.16659402581E+03  0.12508757918E+03 0.  0.
          5    1    3    3  502    0 -0.68323207845E+02  0.27269598335E+02 -0.52274883439E+01  0.73868063180E+02  0.41800000000E+01 0. -1.
         -5    1    3    3    0  502 -0.22431559189E+02 -0.86832187110E+02  0.23186810482E+02  0.92725962634E+02  0.41800000000E+01 0. -1.
        -11    1    1    2    0    0 -0.54897445859E+01 -0.97732807434E+01  0.62606124764E+02  0.63601738734E+02  0.00000000000E+00 0.  1.
         11    1    1    2    0    0  0.96244511620E+02  0.69335869519E+02  0.13882347878E+03  0.18259908839E+03  0.00000000000E+00 0. -1.
</event>
<event>
 7    1  0.2380582E-009  0.1253052E+03  0.7561462E-02  0.1234593E+00
          2   -1    0    0  501    0  0.00000000000E+00  0.00000000000E+00  0.32861324008E+03  0.32861324008E+03  0.00000000000E+00 0. -1.
         -2   -1    0    0    0  501 -0.00000000000E+00 -0.00000000000E+00 -0.86884131210E+02  0.86884131210E+02  0.00000000000E+00 0.  1.
         25    2    1    2    0    0  0.11639131426E+02  0.93185476194E+02  0.21897062726E+02  0.15794126116E+03  0.12508780223E+03 0.  0.
          5    1    3    3  502    0  0.44816791088E+02  0.40043648796E+01 -0.25144013928E+02  0.51713378713E+02  0.41800000000E+01 0.  1.
         -5    1    3    3    0  502 -0.33177659662E+02  0.89181111315E+02  0.47041076654E+02  0.10622788244E+03  0.41800000000E+01 0.  1.
        -11    1    1    2    0    0 -0.35149384564E+02 -0.59294028530E+02  0.56589803390E+02  0.89183333097E+02  0.00000000000E+00 0.  1.
         11    1    1    2    0    0  0.23510253138E+02 -0.33891447664E+02  0.16324224275E+03  0.16837277703E+03  0.00000000000E+00 0. -1.
</event>
<event>
 7    1  0.2380582E-009  0.9863286E+02  0.7561462E-02  0.1283197E+00
          1   -1    0    0  501    0  0.00000000000E+00  0.00000000000E+00  0.48551897872E+03  0.48551897872E+03  0.00000000000E+00 0. -1.
         -1   -1    0    0    0  501 -0.00000000000E+00 -0.00000000000E+00 -0.23643667178E+02  0.23643667178E+02  0.00000000000E+00 0.  1.
         25    2    1    2    0    0  0.91508725613E+00 -0.90594771754E+01  0.27024719691E+03  0.29793187760E+03  0.12508774816E+03 0.  0.
          5    1    3    3  502    0 -0.39168823637E+02  0.39596077119E+02  0.80779638711E+02  0.98208291395E+02  0.41800000000E+01 0. -1.
         -5    1    3    3    0  502  0.40083910894E+02 -0.48655554295E+02  0.18946755820E+03  0.19972358620E+03  0.41800000000E+01 0. -1.
        -11    1    1    2    0    0  0.37568844929E+02 -0.35526223769E+01  0.14326148998E+03  0.14814821547E+03  0.00000000000E+00 0. -1.
         11    1    1    2    0    0 -0.38483932185E+02  0.12612099552E+02  0.48366624656E+02  0.63082552835E+02  0.00000000000E+00 0.  1.
</event>
<event>
 7    1  0.2380582E-009  0.8310486E+02  0.7561462E-02  0.1320464E+00
          1   -1    0    0  501    0  0.00000000000E+00  0.00000000000E+00  0.98087168182E+02  0.98087168182E+02  0.00000000000E+00 0. -1.
         -1   -1    0    0    0  501 -0.00000000000E+00 -0.00000000000E+00 -0.12628810102E+03  0.12628810102E+03  0.00000000000E+00 0.  1.
         25    2    1    2    0    0 -0.14072728790E+02  0.91297897171E+01 -0.16527554986E+02  0.12728968076E+03  0.12509239785E+03 0.  0.
          5    1    3    3  502    0  0.19500118081E+02 -0.38640438590E+02 -0.44669459138E+02  0.62339161683E+02  0.41800000000E+01 0.  1.
         -5    1    3    3    0  502 -0.33572846872E+02  0.47770228307E+02  0.28141904152E+02  0.64950519081E+02  0.41800000000E+01 0.  1.
        -11    1    1    2    0    0  0.38655854927E+02 -0.85963398291E+01  0.29326955173E+02  0.49277200390E+02  0.00000000000E+00 0. -1.
         11    1    1    2    0    0 -0.24583126137E+02 -0.53344988798E+00 -0.41000333021E+02  0.47808388043E+02  0.00000000000E+00 0.  1.
</event>
<event>
 7    1  0.2380582E-009  0.1132595E+03  0.7561462E-02  0.1254650E+00
          2   -1    0    0  501    0  0.00000000000E+00  0.00000000000E+00  0.93806168892E+02  0.93806168892E+02  0.00000000000E+00 0. -1.
         -2   -1    0    0    0  501 -0.00000000000E+00 -0.00000000000E+00 -0.26814477248E+03  0.26814477248E+03  0.00000000000E+00 0.  1.
         25    2    1    2    0    0 -0.78336337496E+02 -0.40243840645E+02 -0.18133135867E+03  0.23724435766E+03  0.12509066760E+03 0.  0.
          5    1    3    3  502    0 -0.52759625869E+02  0.14201089943E+02 -0.10118148108E+02  0.55723409789E+02  0.41800000000E+01 0.  1.
         -5    1    3    3    0  502 -0.25576711627E+02 -0.54444930588E+02 -0.17121321057E+03  0.18152094787E+03  0.41800000000E+01 0.  1.
        -11    1    1    2    0    0  0.90245176500E+02  0.28352179440E+02  0.27182715406E+02  0.98422243306E+02  0.00000000000E+00 0. -1.
         11    1    1    2    0    0 -0.11908839004E+02  0.11891661205E+02 -0.20189960318E+02  0.26284340400E+02  0.00000000000E+00 0.  1.
</event>
<event>
 7    1  0.2380582E-009  0.7778115E+02  0.7561462E-02  0.1335469E+00
         -1   -1    0    0    0  501 -0.00000000000E+00  0.00000000000E+00  0.45976689026E+03  0.45976689026E+03  0.00000000000E+00 0.  1.
          1   -1    0    0  501    0  0.00000000000E+00 -0.00000000000E+00 -0.37398706009E+02  0.37398706009E+02  0.00000000000E+00 0. -1.
         25    2    1    2    0    0 -0.60022753494E+02 -0.37389273158E+01  0.31350001305E+03  0.34285073453E+03  0.12509059705E+03 0.  0.
          5    1    3    3  502    0 -0.85465596424E+01 -0.27019574996E+02  0.48603027637E+01  0.29055052188E+02  0.41800000000E+01 0. -1.
         -5    1    3    3    0  502 -0.51476193852E+02  0.23280647680E+02  0.30863971029E+03  0.31379568234E+03  0.41800000000E+01 0. -1.
        -11    1    1    2    0    0  0.80651477989E+01 -0.13327303581E+02 -0.13288169619E+02  0.20475328608E+02  0.00000000000E+00 0. -1.
         11    1    1    2    0    0  0.51957605695E+02  0.17066230897E+02  0.12215634082E+03  0.13383953313E+03  0.00000000000E+00 0.  1.
</event>
<event>
 7    1  0.2380582E-009  0.1444001E+03  0.7561462E-02  0.1207528E+00
          1   -1    0    0  501    0  0.00000000000E+00  0.00000000000E+00  0.69368445213E+02  0.69368445213E+02  0.00000000000E+00 0. -1.
         -1   -1    0    0    0  501 -0.00000000000E+00 -0.00000000000E+00 -0.38795896720E+03  0.38795896720E+03  0.00000000000E+00 0.  1.
         25    2    1    2    0    0  0.11332490734E+03 -0.38823390760E+02 -0.13946812594E+03  0.22237061842E+03  0.12509014146E+03 0.  0.
          5    1    3    3  502    0  0.88859638805E+01 -0.31278660963E+02  0.14723554286E+02  0.35938425627E+02  0.41800000000E+01 0. -1.
         -5    1    3    3    0  502  0.10443894346E+03 -0.75447297962E+01 -0.15419168022E+03  0.18643219279E+03  0.41800000000E+01 0. -1.
        -11    1    1    2    0    0 -0.84911328872E+01 -0.26415159565E+02 -0.43008916429E+02  0.51182290736E+02  0.00000000000E+00 0.  1.
         11    1    1    2    0    0 -0.10483377445E+03  0.65238550325E+02 -0.13611347962E+03  0.18377450326E+03  0.00000000000E+00 0. -1.
</event>
<event>
 7    1  0.2380582E-009  0.1642417E+03  0.7561462E-02  0.1183989E+00
         -2   -1    0    0    0  501 -0.00000000000E+00  0.00000000000E+00  0.90472504544E+02  0.90472504544E+02  0.00000000000E+00 0.  1.
          2   -1    0    0  501    0  0.00000000000E+00 -0.00000000000E+00 -0.75957712353E+03  0.75957712353E+03  0.00000000000E+00 0. -1.
         25    2    1    2    0    0  0.11811386386E+03 -0.73256664219E+02 -0.29357742503E+02  0.18928027760E+03  0.12509085800E+03 0.  0.
          5    1    3    3  502    0  0.39238465504E+02 -0.96797218682E+02 -0.14499859298E+02  0.10553235068E+03  0.41800000000E+01 0.  1.
         -5    1    3    3    0  502  0.78875398359E+02  0.23540554463E+02 -0.14857883205E+02  0.83747926924E+02  0.41800000000E+01 0.  1.
        -11    1    1    2    0    0 -0.35554444428E+02  0.83706921560E+01 -0.50996808678E+02  0.62728474404E+02  0.00000000000E+00 0. -1.
         11    1    1    2    0    0 -0.82559419435E+02  0.64885972063E+02 -0.58875006781E+03  0.59804087607E+03  0.00000000000E+00 0.  1.
</event>
<event>
 7    1  0.2380582E-009  0.9248167E+02  0.7561462E-02  0.1296951E+00
         -1   -1    0    0    0  501 -0.00000000000E+00  0.00000000000E+00  0.82093068292E+02  0.82093068292E+02  0.00000000000E+00 0.  1.
          1   -1    0    0  501    0  0.00000000000E+00 -0.00000000000E+00 -0.17476606188E+03  0.17476606188E+03  0.00000000000E+00 0. -1.
         25    2    1    2    0    0  0.59061202928E+01  0.45128321578E+02 -0.24384351790E+02  0.13533204661E+03  0.12509483827E+03 0.  0.
          5    1    3    3  502    0  0.46461289360E+02 -0.23777451991E+02 -0.29178540503E+01  0.52440489170E+02  0.41800000000E+01 0.  1.
         -5    1    3    3    0  502 -0.40555169067E+02  0.68905773569E+02 -0.21466497740E+02  0.82891557437E+02  0.41800000000E+01 0.  1.
        -11    1    1    2    0    0 -0.16124389098E+02 -0.22197094692E+02  0.17231656501E+02  0.32398100597E+02  0.00000000000E+00 0.  1.
         11    1    1    2    0    0  0.10218268805E+02 -0.22931226886E+02 -0.85520298302E+02  0.89128982972E+02  0.00000000000E+00 0. -1.
</event>
<event>
 7    1  0.2380582E-009  0.1206910E+03  0.7561462E-02  0.1241961E+00
         -1   -1    0    0    0  501 -0.00000000000E+00  0.00000000000E+00  0.14578000138E+03  0.14578000138E+03  0.00000000000E+00 0.  1.
          1   -1    0    0  501    0  0.00000000000E+00 -0.00000000000E+00 -0.14529944880E+03  0.14529944880E+03  0.00000000000E+00 0. -1.
         25    2    1    2    0    0  0.77417679522E+02  0.46215893334E+02  0.34500784313E+02  0.15801147415E+03  0.12509163020E+03 0.  0.
          5    1    3    3  502    0 -0.18105066952E+02  0.50922273523E+02 -0.50328606456E+01  0.54439631487E+02  0.41800000000E+01 0.  1.
         -5    1    3    3    0  502  0.95522746475E+02 -0.47063801890E+01  0.39533644959E+02  0.10357184266E+03  0.41800000000E+01 0.  1.
        -11    1    1    2    0    0 -0.22894895637E+02 -0.59190034718E+01  0.31094667793E+02  0.39065191840E+02  0.00000000000E+00 0.  1.
         11    1    1    2    0    0 -0.54522783886E+02 -0.40296889863E+02 -0.65114899531E+02  0.94002784194E+02  0.00000000000E+00 0. -1.
</event>
<event>
 7    1  0.2380582E-009  0.1010206E+03  0.7561462E-02  0.1278164E+00
          2   -1    0    0  501    0  0.00000000000E+00  0.00000000000E+00  0.19367654407E+02  0.19367654407E+02  0.00000000000E+00 0. -1.
         -2   -1    0    0    0  501 -0.00000000000E+00 -0.00000000000E+00 -0.99723260284E+03  0.99723260284E+03  0.00000000000E+00 0.  1.
         25    2    1    2    0    0  0.22618708050E+02  0.53400711921E+02 -0.70409144301E+03  0.71746440519E+03  0.12508865101E+03 0.  0.
          5    1    3    3  502    0  0.38424395815E+02 -0.73384856372E+00 -0.57778356780E+03  0.57907538054E+03  0.41800000000E+01 0. -1.
         -5    1    3    3    0  502 -0.15805687765E+02  0.54134560484E+02 -0.12630787521E+03  0.13838902465E+03  0.41800000000E+01 0. -1.
        -11    1    1    2    0    0 -0.25901107806E+02 -0.77911557313E+02 -0.13370906073E+03  0.15690503838E+03  0.00000000000E+00 0.  1.
         11    1    1    2    0    0  0.32823997562E+01  0.24510845392E+02 -0.14006444471E+03  0.14223081368E+03  0.00000000000E+00 0. -1.
</event>
<event>
 7    1  0.2380582E-009  0.1092133E+03  0.7561462E-02  0.1262034E+00
         -2   -1    0    0    0  501 -0.00000000000E+00  0.00000000000E+00  0.62783618771E+02  0.62783618771E+02  0.00000000000E+00 0.  1.
          2   -1    0    0  501    0  0.00000000000E+00 -0.00000000000E+00 -0.32407926700E+03  0.32407926700E+03  0.00000000000E+00 0. -1.
         25    2    1    2    0    0 -0.89980496884E+00 -0.72963809671E+02 -0.66325272721E+02  0.15928344361E+03  0.12509055294E+03 0.  0.
          5    1    3    3  502    0 -0.17402122143E+01 -0.98105670184E+02 -0.11580232448E+02  0.98890469937E+02  0.41800000000E+01 0. -1.
         -5    1    3    3    0  502  0.84040724545E+00  0.25141860513E+02 -0.54745040273E+02  0.60392973671E+02  0.41800000000E+01 0. -1.
        -11    1    1    2    0    0  0.27639475719E+02  0.57571145014E+02 -0.55100909658E+02  0.84347422020E+02  0.00000000000E+00 0.  1.
         11    1    1    2    0    0 -0.26739670750E+02  0.15392664657E+02 -0.13986946585E+03  0.14323202015E+03  0.00000000000E+00 0. -1.
</event>
<event>
 7    1  0.2380582E-009  0.1103442E+03  0.7561462E-02  0.1259934E+00
          2   -1    0    0  501    0  0.00000000000E+00  0.00000000000E+00  0.27103213452E+03  0.27103213452E+03  0.00000000000E+00 0. -1.
         -2   -1    0    0    0  501 -0.00000000000E+00 -0.00000000000E+00 -0.10244419680E+03  0.10244419680E+03  0.00000000000E+00 0.  1.
         25    2    1    2    0    0 -0.68302623207E+02 -0.86236605615E+02  0.19236989035E+02  0.16768866320E+03  0.12508966997E+03 0.  0.
          5    1    3    3  502    0 -0.43062008314E+02 -0.47587408999E+02  0.72610901238E+02  0.96998522843E+02  0.41800000000E+01 0.  1.
         -5    1    3    3    0  502 -0.25240614894E+02 -0.38649196616E+02 -0.53373912203E+02  0.70690140353E+02  0.41800000000E+01 0.  1.
        -11    1    1    2    0    0  0.33016846422E+02  0.43137609395E+02  0.93613762751E+01  0.55123505492E+02  0.00000000000E+00 0.  1.
         11    1    1    2    0    0  0.35285776786E+02  0.43098996221E+02  0.13998957241E+03  0.15066416263E+03  0.00000000000E+00 0. -1.
</event>
<event>
 7    1  0.2380582E-009  0.4434267E+03  0.7561462E-02  0.1029701E+00
         -1   -1    0    0    0  501 -0.00000000000E+00  0.00000000000E+00  0.31705986249E+03  0.31705986249E+03  0.00000000000E+00 0.  1.
          1   -1    0    0  501    0  0.00000000000E+00 -0.00000000000E+00 -0.85149894859E+03  0.85149894859E+03  0.00000000000E+00 0. -1.
         25    2    1    2    0    0 -0.21606778883E+03  0.38653578181E+03  0.10651222214E+02  0.46027840315E+03  0.12509020697E+03 0.  0.
          5    1    3    3  502    0 -0.18139624320E+03  0.34448760996E+03 -0.32406493345E+02  0.39069676691E+03  0.41800000000E+01 0. -1.
         -5    1    3    3    0  502 -0.34671545622E+02  0.42048171853E+02  0.43057715560E+02  0.69581636235E+02  0.41800000000E+01 0. -1.
        -11    1    1    2    0    0  0.15638019312E+03 -0.27613409102E+03 -0.32064930056E+03  0.45113276868E+03  0.00000000000E+00 0.  1.
         11    1    1    2    0    0  0.59687595701E+02 -0.11040169079E+03 -0.22444100776E+03  0.25714763925E+03  0.00000000000E+00 0. -1.
</event>
<event>
 7    1  0.2380582E-009  0.1150874E+03  0.7561462E-02  0.1251429E+00
          2   -1    0    0  501    0  0.00000000000E+00  0.00000000000E+00  0.55119816735E+02  0.55119816735E+02  0.00000000000E+00 0.  1.
         -2   -1    0    0    0  501 -0.00000000000E+00 -0.00000000000E+00 -0.42431589005E+03  0.42431589005E+03  0.00000000000E+00 0. -1.
         25    2    1    2    0    0 -0.30252726995E+02 -0.71881997841E+02 -0.31550619853E+03  0.34824452154E+03  0.12509131212E+03 0.  0.
          5    1    3    3  502    0 -0.19468858588E+02 -0.10779747923E+03 -0.23893136208E+03  0.26287830106E+03  0.41800000000E+01 0. -1.
         -5    1    3    3    0  502 -0.10783868407E+02  0.35915481392E+02 -0.76574836455E+02  0.85366220483E+02  0.41800000000E+01 0. -1.
        -11    1    1    2    0    0 -0.54348380729E+01  0.87230204744E+01  0.23264622922E+02  0.25433663338E+02  0.00000000000E+00 0.  1.
         11    1    1    2    0    0  0.35687565068E+02  0.63158977366E+02 -0.76954497707E+02  0.10575752191E+03  0.00000000000E+00 0. -1.
</event>
<event>
 7    1  0.3019076E-009  0.1019186E+03  0.7561462E-02  0.1276312E+00
         -2   -1    0    0    0  501 -0.00000000000E+00  0.00000000000E+00  0.36119596825E+02  0.36119596825E+02  0.00000000000E+00 0.  1.
          2   -1    0    0  501    0  0.00000000000E+00 -0.00000000000E+00 -0.44527982015E+03  0.44527982015E+03  0.00000000000E+00 0. -1.
         25    2    1    2    0    0 -0.43239271411E+02 -0.48279781026E+02 -0.23959215360E+03  0.27794318307E+03  0.12508973219E+03 0.  0.
          5    1    3    3  502    0 -0.76413934401E+02 -0.25324656332E+02 -0.81109883082E+02  0.11435345698E+03  0.41800000000E+01 0. -1.
         -5    1    3    3    0  502  0.33174662990E+02 -0.22955124694E+02 -0.15848227052E+03  0.16358972609E+03  0.41800000000E+01 0. -1.
        -11    1    1    2    0    0  0.54557114217E+02  0.33380008033E+02 -0.17299008369E+03  0.18443500943E+03  0.00000000000E+00 0. -1.
         11    1    1    2    0    0 -0.11317842806E+02  0.14899772993E+02  0.34220139655E+01  0.19021224477E+02  0.00000000000E+00 0.  1.
</event>
<event>
 7    1  0.2380582E-009  0.2222608E+03  0.7561462E-02  0.1132209E+00
          1   -1    0    0  501    0  0.00000000000E+00  0.00000000000E+00  0.90051009373E+03  0.90051009373E+03  0.00000000000E+00 0. -1.
         -1   -1    0    0    0  501 -0.00000000000E+00 -0.00000000000E+00 -0.70383077517E+02  0.70383077517E+02  0.00000000000E+00 0.  1.
         25    2    1    2    0    0  0.16300599410E+03 -0.12605474622E+03  0.24853115755E+03  0.34623229692E+03  0.12509322125E+03 0.  0.
          5    1    3    3  502    0  0.36420877388E+02 -0.99317608444E+02  0.14979052609E+03  0.18342612072E+03  0.41800000000E+01 0.  1.
         -5    1    3    3    0  502  0.12658511671E+03 -0.26737137778E+02  0.98740631459E+02  0.16280617620E+03  0.41800000000E+01 0.  1.
        -11    1    1    2    0    0 -0.41245583378E+02  0.53201338375E+02  0.32057284611E+03  0.32756454359E+03  0.00000000000E+00 0. -1.
         11    1    1    2    0    0 -0.12176041072E+03  0.72853407847E+02  0.26102301255E+03  0.29709633073E+03  0.00000000000E+00 0.  1.
</event>
<event>
 7    1  0.2380582E-009  0.1056030E+03  0.7561462E-02  0.1268936E+00
          1   -1    0    0  501    0  0.00000000000E+00  0.00000000000E+00  0.40061641818E+02  0.40061641818E+02  0.00000000000E+00 0. -1.
         -1   -1    0    0    0  501 -0.00000000000E+00 -0.00000000000E+00 -0.35964217496E+03  0.35964217496E+03  0.00000000000E+00 0.  1.
         25    2    1    2    0    0 -0.25666814531E+02 -0.15837693134E+02 -0.10941274257E+03  0.16890385531E+03  0.12509095175E+03 0.  0.
          5    1    3    3  502    0 -0.12279111699E+02  0.53905545565E+02 -0.33089509930E+02  0.64567580830E+02  0.41800000000E+01 0. -1.
         -5    1    3    3    0  502 -0.13387702833E+02 -0.69743238700E+02 -0.76323232645E+02  0.10433627448E+03  0.41800000000E+01 0. -1.
        -11    1    1    2    0    0  0.54127536655E+02  0.57733753066E+01 -0.18028274017E+03  0.18832150299E+03  0.00000000000E+00 0.  1.
         11    1    1    2    0    0 -0.28460722124E+02  0.10064317828E+02 -0.29885050405E+02  0.42478458480E+02  0.00000000000E+00 0. -1.
</event>
<event>
 7    1  0.2380582E-009  0.1487132E+03  0.7561462E-02  0.1202063E+00
          2   -1    0    0  501    0  0.00000000000E+00  0.00000000000E+00  0.24361475522E+04  0.24361475522E+04  0.00000000000E+00 0.  1.
         -2   -1    0    0    0  501 -0.00000000000E+00 -0.00000000000E+00 -0.10850813044E+02  0.10850813044E+02  0.00000000000E+00 0. -1.
         25    2    1    2    0    0  0.83998459980E+00 -0.10087097730E+03  0.17725510435E+04  0.17798212365E+04  0.12510304683E+03 0.  0.
          5    1    3    3  502    0  0.17265559888E+02 -0.12730369638E+03  0.14886787130E+04  0.14942175590E+04  0.41800000000E+01 0.  1.
         -5    1    3    3    0  502 -0.16425575289E+02  0.26432719080E+02  0.28387233053E+03  0.28560367750E+03  0.41800000000E+01 0.  1.
        -11    1    1    2    0    0 -0.34139714035E+02  0.98335382282E+02  0.46791034992E+03  0.47934899921E+03  0.00000000000E+00 0.  1.
         11    1    1    2    0    0  0.33299729435E+02  0.25355950158E+01  0.18483534570E+03  0.18782812953E+03  0.00000000000E+00 0. -1.
</event>
<event>
 7    1  0.2380582E-009  0.1304717E+03  0.7561462E-02  0.1226757E+00
          3   -1    0    0  501    0  0.00000000000E+00  0.00000000000E+00  0.24778955401E+03  0.24778955401E+03  0.00000000000E+00 0. -1.
         -3   -1    0    0    0  501 -0.00000000000E+00 -0.00000000000E+00 -0.10616837506E+03  0.10616837506E+03  0.00000000000E+00 0.  1.
         25    2    1    2    0    0 -0.10115596349E+02  0.10653879786E+03  0.10977411421E+03  0.19786477118E+03  0.12508905142E+03 0.  0.
          5    1    3    3  502    0 -0.12814451416E+02  0.23746141689E+02 -0.26683010253E+02  0.38177805678E+02  0.41800000000E+01 0.  1.
         -5    1    3    3    0  502  0.26988550665E+01  0.82792656175E+02  0.13645712447E+03  0.15968696551E+03  0.41800000000E+01 0.  1.
        -11    1    1    2    0    0 -0.97167990204E+01 -0.12393511961E+03  0.35917182688E+02  0.12940005436E+03  0.00000000000E+00 0. -1.
         11    1    1    2    0    0  0.19832395370E+02  0.17396321742E+02 -0.40701179543E+01  0.26693103536E+02  0.00000000000E+00 0.  1.
</event>
<event>
 7    1  0.2380582E-009  0.1018090E+03  0.7561462E-02  0.1276537E+00
          2   -1    0    0  501    0  0.00000000000E+00  0.00000000000E+00  0.19868004671E+03  0.19868004671E+03  0.00000000000E+00 0. -1.
         -2   -1    0    0    0  501 -0.00000000000E+00 -0.00000000000E+00 -0.10387165018E+03  0.10387165018E+03  0.00000000000E+00 0.  1.
         25    2    1    2    0    0 -0.89551964835E+02  0.24104153747E+02  0.30902409814E+02  0.15875085912E+03  0.12508521777E+03 0.  0.
          5    1    3    3  502    0 -0.59611044903E+02 -0.93831561579E+01  0.74532530509E+02  0.95990055724E+02  0.41800000000E+01 0. -1.
         -5    1    3    3    0  502 -0.29940919932E+02  0.33487309905E+02 -0.43630120695E+02  0.62760803396E+02  0.41800000000E+01 0. -1.
        -11    1    1    2    0    0  0.53763291638E+02 -0.30268313273E+02 -0.89996895673E+01  0.62351076402E+02  0.00000000000E+00 0.  1.
         11    1    1    2    0    0  0.35788673197E+02  0.61641595255E+01  0.72905676281E+02  0.81449761362E+02  0.00000000000E+00 0. -1.
</event>
<event>
 7    1  0.2380582E-009  0.1939179E+03  0.7561462E-02  0.1154974E+00
          1   -1    0    0  501    0  0.00000000000E+00  0.00000000000E+00  0.90410573611E+03  0.90410573611E+03  0.00000000000E+00 0. -1.
         -1   -1    0    0    0  501 -0.00000000000E+00 -0.00000000000E+00 -0.47888815228E+02  0.47888815228E+02  0.00000000000E+00 0.  1.
         25    2    1    2    0    0  0.13757435587E+03  0.11056304327E+03  0.47860217432E+03  0.52522052567E+03  0.12508265025E+03 0.  0.
          5    1    3    3  502    0  0.79811543695E+02  0.11782205902E+03  0.23533219590E+03  0.27504660501E+03  0.41800000000E+01 0. -1.
         -5    1    3    3    0  502  0.57762812175E+02 -0.72590157535E+01  0.24326997842E+03  0.25017392066E+03  0.41800000000E+01 0.  1.
        -11    1    1    2    0    0 -0.10582435948E+03 -0.11353882397E+03  0.24226925102E+03  0.28772252189E+03  0.00000000000E+00 0.  1.
         11    1    1    2    0    0 -0.31749996390E+02  0.29757807044E+01  0.13534549554E+03  0.13905150378E+03  0.00000000000E+00 0. -1.
</event>
<event>
 7    1  0.2380582E-009  0.1102439E+03  0.7561462E-02  0.1260119E+00
         -1   -1    0    0    0  501 -0.00000000000E+00  0.00000000000E+00  0.20933458823E+03  0.20933458823E+03  0.00000000000E+00 0.  1.
          1   -1    0    0  501    0  0.00000000000E+00 -0.00000000000E+00 -0.13666364349E+03  0.13666364349E+03  0.00000000000E+00 0. -1.
         25    2    1    2    0    0 -0.52290573648E+02  0.76220448891E+02 -0.53755353041E+02  0.16456402267E+03  0.12509124132E+03 0.  0.
          5    1    3    3  502    0 -0.33019419513E+02  0.34168834618E+02  0.38485732592E+02  0.61289602196E+02  0.41800000000E+01 0. -1.
         -5    1    3    3    0  502 -0.19271154136E+02  0.42051614273E+02 -0.92241085633E+02  0.10327442047E+03  0.41800000000E+01 0. -1.
        -11    1    1    2    0    0 -0.24169373558E+02 -0.21123879107E+02  0.53004578353E+02  0.61966621765E+02  0.00000000000E+00 0.  1.
         11    1    1    2    0    0  0.76459947206E+02 -0.55096569785E+02  0.73421719427E+02  0.11946758729E+03  0.00000000000E+00 0. -1.
</event>
<event>
 7    1  0.2380582E-009  0.1292297E+03  0.7561462E-02  0.1228603E+00
         -2   -1    0    0    0  501 -0.00000000000E+00  0.00000000000E+00  0.16897249951E+03  0.16897249951E+03  0.00000000000E+00 0.  1.
          2   -1    0    0  501    0  0.00000000000E+00 -0.00000000000E+00 -0.18337877694E+03  0.18337877694E+03  0.00000000000E+00 0. -1.
         25    2    1    2    0    0  0.49115986736E+02 -0.97875657227E+02 -0.92540929977E+02  0.19027116878E+03  0.12508904636E+03 0.  0.
          5    1    3    3  502    0  0.42028146569E+01 -0.55490233350E+02 -0.11221286136E+03  0.12532369410E+03  0.41800000000E+01 0.  1.
         -5    1    3    3    0  502  0.44913172079E+02 -0.42385423877E+02  0.19671931382E+02  0.64947474683E+02  0.41800000000E+01 0.  1.
        -11    1    1    2    0    0  0.25948793608E+02  0.21928031925E+02  0.10013728481E+02  0.35418261277E+02  0.00000000000E+00 0.  1.
         11    1    1    2    0    0 -0.75064780343E+02  0.75947625303E+02  0.68120924065E+02  0.12666184640E+03  0.00000000000E+00 0. -1.
</event>
<event>
 7    1  0.2380582E-009  0.7726812E+02  0.7561462E-02  0.1336988E+00
         -1   -1    0    0    0  501 -0.00000000000E+00  0.00000000000E+00  0.73332381500E+02  0.73332381500E+02  0.00000000000E+00 0.  1.
          1   -1    0    0  501    0  0.00000000000E+00 -0.00000000000E+00 -0.16612881637E+03  0.16612881637E+03  0.00000000000E+00 0. -1.
         25    2    1    2    0    0  0.18685863459E+02 -0.99978847420E+01 -0.66491119230E+02  0.14324450338E+03  0.12509516225E+03 0.  0.
          5    1    3    3  502    0 -0.36615653370E+02  0.21997179832E+02  0.94165028557E+01  0.43940015001E+02  0.41800000000E+01 0.  1.
         -5    1    3    3    0  502  0.55301516829E+02 -0.31995064574E+02 -0.75907622086E+02  0.99304488375E+02  0.41800000000E+01 0.  1.
        -11    1    1    2    0    0  0.13882927532E+02  0.17443480532E+01  0.28604494962E+02  0.31843296925E+02  0.00000000000E+00 0.  1.
         11    1    1    2    0    0 -0.32568790991E+02  0.82535366888E+01 -0.54909810606E+02  0.64373397574E+02  0.00000000000E+00 0. -1.
</event>
<event>
 7    1  0.2380582E-009  0.1677711E+03  0.7561462E-02  0.1180192E+00
         -2   -1    0    0    0  501 -0.00000000000E+00  0.00000000000E+00  0.12536216850E+03  0.12536216850E+03  0.00000000000E+00 0.  1.
          2   -1    0    0  501    0  0.00000000000E+00 -0.00000000000E+00 -0.36678470279E+03  0.36678470279E+03  0.00000000000E+00 0. -1.
         25    2    1    2    0    0 -0.33236692902E+02  0.16255354302E+03 -0.21874978965E+03  0.30170762488E+03  0.12509072043E+03 0.  0.
          5    1    3    3  502    0  0.13367467920E+01  0.35723015221E+02  0.10426894085E+02  0.37471498885E+02  0.41800000000E+01 0.  1.
         -5    1    3    3    0  502 -0.34573439694E+02  0.12683052780E+03 -0.22917668373E+03  0.26423612600E+03  0.41800000000E+01 0.  1.
        -11    1    1    2    0    0  0.25233653946E+02 -0.59080078346E+02  0.33475434739E+02  0.72441684683E+02  0.00000000000E+00 0.  1.
         11    1    1    2    0    0  0.80030389552E+01 -0.10347346467E+03 -0.56148179384E+02  0.11799756172E+03  0.00000000000E+00 0. -1.
</event>
<event>
 7    1  0.2380582E-009  0.1282552E+03  0.7561462E-02  0.1230068E+00
         -1   -1    0    0    0  501 -0.00000000000E+00  0.00000000000E+00  0.30931977489E+03  0.30931977489E+03  0.00000000000E+00 0.  1.
          1   -1    0    0  501    0  0.00000000000E+00 -0.00000000000E+00 -0.21969328316E+03  0.21969328316E+03  0.00000000000E+00 0. -1.
         25    2    1    2    0    0  0.10299021299E+03 -0.51619212969E+02 -0.16491748974E+03  0.23689040272E+03  0.12509099632E+03 0.  0.
          5    1    3    3  502    0  0.78367382379E+02 -0.26464391160E+02 -0.18017518361E+03  0.19829871359E+03  0.41800000000E+01 0.  1.
         -5    1    3    3    0  502  0.24622830609E+02 -0.25154821809E+02  0.15257693878E+02  0.38591689130E+02  0.41800000000E+01 0.  1.
        -11    1    1    2    0    0 -0.77163901502E+01 -0.18435335654E+02  0.15032759816E+02  0.25007761702E+02  0.00000000000E+00 0.  1.
         11    1    1    2    0    0 -0.95273822837E+02  0.70054548623E+02  0.23951122165E+03  0.26711489363E+03  0.00000000000E+00 0. -1.
</event>
<event>
 7    1  0.2380582E-009  0.9191738E+02  0.7561462E-02  0.1298274E+00
         -2   -1    0    0    0  501 -0.00000000000E+00  0.00000000000E+00  0.27348259946E+03  0.27348259946E+03  0.00000000000E+00 0.  1.
          2   -1    0    0  501    0  0.00000000000E+00 -0.00000000000E+00 -0.85631037229E+02  0.85631037229E+02  0.00000000000E+00 0. -1.
         25    2    1    2    0    0 -0.39730842540E+02 -0.33201597526E+02  0.20723088885E+03  0.24753582802E+03  0.12509380054E+03 0.  0.
          5    1    3    3  502    0  0.12831794539E+01  0.20375376119E+02 -0.77059356539E+01  0.22218378560E+02  0.41800000000E+01 0.  1.
         -5    1    3    3    0  502 -0.41014021994E+02 -0.53576973646E+02  0.21493682450E+03  0.22531744946E+03  0.41800000000E+01 0.  1.
        -11    1    1    2    0    0  0.64471589561E+02  0.26927449861E+02 -0.38418661496E+02  0.79734979574E+02  0.00000000000E+00 0. -1.
         11    1    1    2    0    0 -0.24740747021E+02  0.62741476650E+01  0.19039334881E+02  0.31842829095E+02  0.00000000000E+00 0.  1.
</event>
<event>
 7    1  0.2380582E-009  0.3122425E+03  0.7561462E-02  0.1079276E+00
          1   -1    0    0  501    0  0.00000000000E+00  0.00000000000E+00  0.37845381290E+03  0.37845381290E+03  0.00000000000E+00 0. -1.
         -1   -1    0    0    0  501 -0.00000000000E+00 -0.00000000000E+00 -0.27220340779E+03  0.27220340779E+03  0.00000000000E+00 0.  1.
         25    2    1    2    0    0  0.70357853928E+02  0.29156921783E+03  0.89137421790E+02  0.33698293313E+03  0.12509668606E+03 0.  0.
          5    1    3    3  502    0  0.92179327324E+02  0.12637382174E+03  0.60979207377E+02  0.16793840341E+03  0.41800000000E+01 0. -1.
         -5    1    3    3    0  502 -0.21821473395E+02  0.16519539608E+03  0.28158214413E+02  0.16904452972E+03  0.41800000000E+01 0. -1.
        -11    1    1    2    0    0 -0.27143115726E+02 -0.61358015761E+02 -0.32022803303E+02  0.74343895249E+02  0.00000000000E+00 0.  1.
         11    1    1    2    0    0 -0.43214738202E+02 -0.23021120207E+03  0.49135786627E+02  0.23933039231E+03  0.00000000000E+00 0. -1.
</event>
<event>
 7    1  0.3887141E-009  0.1061454E+03  0.7561462E-02  0.1267879E+00
          2   -1    0    0  501    0  0.00000000000E+00  0.00000000000E+00  0.21358270314E+04  0.21358270314E+04  0.00000000000E+00 0. -1.
         -2   -1    0    0    0  501 -0.00000000000E+00 -0.00000000000E+00 -0.98409474956E+01  0.98409474956E+01  0.00000000000E+00 0.  1.
         25    2    1    2    0    0  0.75384588939E+02 -0.42149574070E+02  0.14681834160E+04  0.14760313128E+04  0.12508585225E+03 0.  0.
          5    1    3    3  502    0  0.42474250604E+02 -0.18832277919E+02  0.13550110705E+04  0.13558138479E+04  0.41800000000E+01 0.  1.
         -5    1    3    3    0  502  0.32910338335E+02 -0.23317296150E+02  0.11317234555E+03  0.12021746489E+03  0.41800000000E+01 0.  1.
        -11    1    1    2    0    0 -0.52814667849E+02 -0.21904992138E+02  0.27999237964E+03  0.28577080061E+03  0.00000000000E+00 0. -1.
         11    1    1    2    0    0 -0.22569921090E+02  0.64054566208E+02  0.37781028820E+03  0.38386586546E+03  0.00000000000E+00 0.  1.
</event>
<event>
 7    1  0.2380582E-009  0.9096475E+02  0.7561462E-02  0.1300532E+00
          2   -1    0    0  501    0  0.00000000000E+00  0.00000000000E+00  0.32335673455E+04  0.32335673455E+04  0.00000000000E+00 0. -1.
         -2   -1    0    0    0  501 -0.00000000000E+00 -0.00000000000E+00 -0.11341891824E+02  0.11341891824E+02  0.00000000000E+00 0.  1.
         25    2    1    2    0    0  0.51852099431E+02  0.44070675110E+02  0.28933180926E+04  0.28968202994E+04  0.12508955657E+03 0.  0.
          5    1    3    3  502    0  0.41389171539E+02  0.35749472918E+02  0.28618516675E+04  0.28623772510E+04  0.41800000000E+01 0.  1.
         -5    1    3    3    0  502  0.10462927891E+02  0.83212021920E+01  0.31466425137E+02  0.34443048310E+02  0.41800000000E+01 0.  1.
        -11    1    1    2    0    0 -0.77096216819E+02 -0.23767338502E+02  0.21400126841E+03  0.22870342348E+03  0.00000000000E+00 0.  1.
         11    1    1    2    0    0  0.25244117388E+02 -0.20303336608E+02  0.11490609268E+03  0.11938551452E+03  0.00000000000E+00 0. -1.
</event>
<event>
 7    1  0.2380582E-009  0.1010508E+03  0.7561462E-02  0.1278102E+00
          1   -1    0    0  501    0  0.00000000000E+00  0.00000000000E+00  0.45323532387E+03  0.45323532387E+03  0.00000000000E+00 0. -1.
         -1   -1    0    0    0  501 -0.00000000000E+00 -0.00000000000E+00 -0.28673776091E+02  0.28673776091E+02  0.00000000000E+00 0.  1.
         25    2    1    2    0    0  0.31861270080E+02  0.17665974787E+02  0.27624411514E+03  0.30542583914E+03  0.12508758878E+03 0.  0.
          5    1    3    3  502    0 -0.34239172461E+02 -0.32050804614E+02  0.11160925532E+03  0.12113493831E+03  0.41800000000E+01 0.  1.
         -5    1    3    3    0  502  0.66100442541E+02  0.49716779401E+02  0.16463485982E+03  0.18429090083E+03  0.41800000000E+01 0.  1.
        -11    1    1    2    0    0  0.15623992139E+02 -0.19120926629E+02  0.46000629476E+01  0.25117315634E+02  0.00000000000E+00 0.  1.
         11    1    1    2    0    0 -0.47485262218E+02  0.14549518422E+01  0.14371736969E+03  0.15136594519E+03  0.00000000000E+00 0. -1.
</event>
<event>
 7    1  0.2380582E-009  0.1065329E+03  0.7561462E-02  0.1267129E+00
         -2   -1    0    0    0  501 -0.00000000000E+00  0.00000000000E+00  0.30097607589E+02  0.30097607589E+02  0.00000000000E+00 0.  1.
          2   -1    0    0  501    0  0.00000000000E+00 -0.00000000000E+00 -0.42246550122E+03  0.42246550122E+03  0.00000000000E+00 0. -1.
         25    2    1    2    0    0 -0.29123664100E+02 -0.15692057504E+02 -0.20549632111E+03  0.24283781159E+03  0.12508811402E+03 0.  0.
          5    1    3    3  502    0 -0.30184930165E+02 -0.63417838595E+02 -0.16751434458E+03  0.18169061699E+03  0.41800000000E+01 0. -1.
         -5    1    3    3    0  502  0.10612660645E+01  0.47725781091E+02 -0.37981976525E+02  0.61147194598E+02  0.41800000000E+01 0. -1.
        -11    1    1    2    0    0  0.42154175572E+02 -0.27060292180E+02 -0.88919437292E+02  0.10205831793E+03  0.00000000000E+00 0. -1.
         11    1    1    2    0    0 -0.13030511471E+02  0.42752349684E+02 -0.97952135232E+02  0.10766697929E+03  0.00000000000E+00 0.  1.
</event>
<event>
 7    1  0.2380582E-009  0.6587847E+02  0.7561462E-02  0.1374697E+00
         -3   -1    0    0    0  501 -0.00000000000E+00  0.00000000000E+00  0.63927082222E+02  0.63927082222E+02  0.00000000000E+00 0.  1.
          3   -1    0    0  501    0  0.00000000000E+00 -0.00000000000E+00 -0.23059955443E+03  0.23059955443E+03  0.00000000000E+00 0. -1.
         25    2    1    2    0    0  0.40985877715E+02  0.32401429711E+02 -0.11254592251E+03  0.17619226743E+03  0.12508971025E+03 0.  0.
          5    1    3    3  502    0  0.48836119132E+02  0.23937944944E+02 -0.13774995863E+03  0.14815706275E+03  0.41800000000E+01 0. -1.
         -5    1    3    3    0  502 -0.78502414168E+01  0.84634847668E+01  0.25204036123E+02  0.28035204682E+02  0.41800000000E+01 0. -1.
        -11    1    1    2    0    0 -0.78542696508E+01 -0.30773892138E+02  0.19716641025E+02  0.37382722244E+02  0.00000000000E+00 0.  1.
         11    1    1    2    0    0 -0.33131608064E+02 -0.16275375729E+01 -0.73843190722E+02  0.80951646972E+02  0.00000000000E+00 0. -1.
</event>
<event>
 7    1  0.2380582E-009  0.1389684E+03  0.7561462E-02  0.1214724E+00
          4   -1    0    0  501    0  0.00000000000E+00  0.00000000000E+00  0.45730854171E+03  0.45730854171E+03  0.00000000000E+00 0. -1.
         -4   -1    0    0    0  501 -0.00000000000E+00 -0.00000000000E+00 -0.62048309372E+02  0.62048309372E+02  0.00000000000E+00 0.  1.
         25    2    1    2    0    0  0.60946365059E+02 -0.92259394687E+02  0.30778903579E+03  0.35015488526E+03  0.12509235706E+03 0.  0.
          5    1    3    3  502    0 -0.28163377232E+02 -0.55846731342E+02  0.72152256510E+02  0.95579567577E+02  0.41800000000E+01 0.  1.
         -5    1    3    3    0  502  0.89109742291E+02 -0.36412663345E+02  0.23563677928E+03  0.25457531768E+03  0.41800000000E+01 0.  1.
        -11    1    1    2    0    0 -0.75144942274E+01  0.50573429644E+02  0.87603711701E+02  0.10143248845E+03  0.00000000000E+00 0. -1.
         11    1    1    2    0    0 -0.53431870831E+02  0.41685965042E+02 -0.13251516188E+00  0.67769477365E+02  0.00000000000E+00 0.  1.
</event>
<event>
 7    1  0.2380582E-009  0.8777025E+02  0.7561462E-02  0.1308343E+00
          2   -1    0    0  501    0  0.00000000000E+00  0.00000000000E+00  0.11040327064E+03  0.11040327064E+03  0.00000000000E+00 0. -1.
         -2   -1    0    0    0  501 -0.00000000000E+00 -0.00000000000E+00 -0.16760717046E+03  0.16760717046E+03  0.00000000000E+00 0.  1.
         25    2    1    2    0    0  0.21780339518E+02 -0.77825279148E+02 -0.30185842238E+02  0.15195285186E+03  0.12508927553E+03 0.  0.
          5    1    3    3  502    0 -0.38175257692E+00 -0.65665462675E+02  0.40159428352E+02  0.77086644816E+02  0.41800000000E+01 0. -1.
         -5    1    3    3    0  502  0.22162092095E+02 -0.12159816473E+02 -0.70345270591E+02  0.74866207044E+02  0.41800000000E+01 0. -1.
        -11    1    1    2    0    0  0.14641144445E+01  0.37839374313E+02  0.33039212988E+02  0.50254865181E+02  0.00000000000E+00 0. -1.
         11    1    1    2    0    0 -0.23244453962E+02  0.39985904835E+02 -0.60057270574E+02  0.75802724056E+02  0.00000000000E+00 0.  1.
</event>
<event>
 7    1  0.2380582E-009  0.1091729E+03  0.7561462E-02  0.1262109E+00
         -1   -1    0    0    0  501 -0.00000000000E+00  0.00000000000E+00  0.46469458727E+03  0.46469458727E+03  0.00000000000E+00 0.  1.
          1   -1    0    0  501    0  0.00000000000E+00 -0.00000000000E+00 -0.10364050353E+03  0.10364050353E+03  0.00000000000E+00 0. -1.
         25    2    1    2    0    0  0.30399156644E+02 -0.13351141112E+02 -0.55496493108E+02  0.14081861915E+03  0.12509061140E+03 0.  0.
          5    1    3    3  502    0 -0.40533230511E+02 -0.28191560613E+02 -0.46001634859E+02  0.67611609027E+02  0.41800000000E+01 0. -1.
         -5    1    3    3    0  502  0.70932387155E+02  0.14840419502E+02 -0.94948582488E+01  0.73207010127E+02  0.41800000000E+01 0. -1.
        -11    1    1    2    0    0 -0.32917866162E+02 -0.34851058226E+02  0.20827441999E+03  0.21372041596E+03  0.00000000000E+00 0.  1.
         11    1    1    2    0    0  0.25187095186E+01  0.48202199337E+02  0.20827615685E+03  0.21379605570E+03  0.00000000000E+00 0. -1.
</event>
<event>
 7    1  0.2380582E-009  0.7570104E+02  0.7561462E-02  0.1341714E+00
         -2   -1    0    0    0  501 -0.00000000000E+00  0.00000000000E+00  0.33903659168E+02  0.33903659168E+02  0.00000000000E+00 0.  1.
          2   -1    0    0  501    0  0.00000000000E+00 -0.00000000000E+00 -0.38534296381E+03  0.38534296381E+03  0.00000000000E+00 0. -1.
         25    2    1    2    0    0 -0.22563944010E+02 -0.22726057648E+02 -0.17212203147E+03  0.21516527546E+03  0.12507796280E+03 0.  0.
          5    1    3    3  502    0  0.11611977361E+02 -0.16220653169E+02 -0.17840599601E+03  0.17956647633E+03  0.41800000000E+01 0.  1.
         -5    1    3    3    0  502 -0.34175921372E+02 -0.65054044782E+01  0.62839645377E+01  0.35598799128E+02  0.41800000000E+01 0.  1.
        -11    1    1    2    0    0 -0.27762639065E+02 -0.16390386548E+02 -0.44458229977E+02  0.54917602931E+02  0.00000000000E+00 0. -1.
         11    1    1    2    0    0  0.50326583075E+02  0.39116444196E+02 -0.13485904319E+03  0.14916374459E+03  0.00000000000E+00 0.  1.
</event>
<event>
 7    1  0.2380582E-009  0.1383400E+03  0.7561462E-02  0.1215580E+00
         -1   -1    0    0    0  501 -0.00000000000E+00  0.00000000000E+00  0.50552524499E+03  0.50552524499E+03  0.00000000000E+00 0.  1.
          1   -1    0    0  501    0  0.00000000000E+00 -0.00000000000E+00 -0.52707243537E+02  0.52707243537E+02  0.00000000000E+00 0. -1.
         25    2    1    2    0    0  0.38354087126E+01  0.11828149829E+03  0.30038229954E+03  0.34623978931E+03  0.12508893886E+03 0.  0.
          5    1    3    3  502    0 -0.22357591433E+02  0.33069286524E+02  0.22750787062E+03  0.23102108821E+03  0.41800000000E+01 0.  1.
         -5    1    3    3    0  502  0.26193000145E+02  0.85212211771E+02  0.72874428926E+02  0.11521870110E+03  0.41800000000E+01 0.  1.
        -11    1    1    2    0    0 -0.37819566121E+02 -0.18923482590E+02  0.45533131569E+02  0.62142448016E+02  0.00000000000E+00 0.  1.
         11    1    1    2    0    0  0.33984157409E+02 -0.99358015705E+02  0.10690257034E+03  0.14985025120E+03  0.00000000000E+00 0. -1.
</event>
<event>
 7    1  0.2380582E-009  0.2245832E+03  0.7561462E-02  0.1130511E+00
         -1   -1    0    0    0  501 -0.00000000000E+00  0.00000000000E+00  0.60130712046E+03  0.60130712046E+03  0.00000000000E+00 0.  1.
          1   -1    0    0  501    0  0.00000000000E+00 -0.00000000000E+00 -0.92662588068E+02  0.92662588068E+02  0.00000000000E+00 0. -1.
         25    2    1    2    0    0  0.20401051593E+03 -0.37308176892E+02  0.21769714730E+03  0.32565564273E+03  0.12508940411E+03 0.  0.
          5    1    3    3  502    0  0.10030071973E+03  0.41773726778E+02  0.12453874225E+03  0.16532588832E+03  0.41800000000E+01 0.  1.
         -5    1    3    3    0  502  0.10370979620E+03 -0.79081903670E+02  0.93158405056E+02  0.16032975441E+03  0.41800000000E+01 0.  1.
        -11    1    1    2    0    0 -0.17138553508E+03  0.43310555688E+02  0.28384427373E+03  0.33438955965E+03  0.00000000000E+00 0.  1.
         11    1    1    2    0    0 -0.32624980854E+02 -0.60023787957E+01  0.71031113556E+01  0.33924506155E+02  0.00000000000E+00 0. -1.
</event>
<event>
 7    1  0.2380582E-009  0.1787780E+03  0.7561462E-02  0.1168991E+00
          2   -1    0    0  501    0  0.00000000000E+00  0.00000000000E+00  0.44005384106E+03  0.44005384106E+03  0.00000000000E+00 0. -1.
         -2   -1    0    0    0  501 -0.00000000000E+00 -0.00000000000E+00 -0.87674493563E+02  0.87674493563E+02  0.00000000000E+00 0.  1.
         25    2    1    2    0    0  0.12554488612E+03 -0.10090631661E+03  0.22699140031E+03  0.30514913918E+03  0.12508916086E+03 0.  0.
          5    1    3    3  502    0  0.13279786004E+03 -0.72160273587E+02  0.11706210048E+03  0.19121554456E+03  0.41800000000E+01 0. -1.
         -5    1    3    3    0  502 -0.72529739174E+01 -0.28746043020E+02  0.10992929984E+03  0.11393359462E+03  0.41800000000E+01 0. -1.
        -11    1    1    2    0    0 -0.29672402746E+02  0.69444809158E+02  0.23277153617E+02  0.79024419544E+02  0.00000000000E+00 0.  1.
         11    1    1    2    0    0 -0.95872483376E+02  0.31461507449E+02  0.10211079357E+03  0.14355477590E+03  0.00000000000E+00 0. -1.
</event>
<event>
 7    1  0.2380582E-009  0.1231697E+03  0.7561462E-02  0.1237958E+00
         -3   -1    0    0    0  501 -0.00000000000E+00  0.00000000000E+00  0.94116001980E+02  0.94116001980E+02  0.00000000000E+00 0.  1.
          3   -1    0    0  501    0  0.00000000000E+00 -0.00000000000E+00 -0.22750094360E+03  0.22750094360E+03  0.00000000000E+00 0. -1.
         25    2    1    2    0    0 -0.92169567651E+02 -0.12280868936E+02 -0.38777814446E+02  0.16060990284E+03  0.12508306462E+03 0.  0.
          5    1    3    3  502    0  0.29116105252E+02 -0.30678283375E+01  0.73180790394E+01  0.30466142463E+02  0.41800000000E+01 0. -1.
         -5    1    3    3    0  502 -0.12128567290E+03 -0.92130405982E+01 -0.46095893485E+02  0.13014376038E+03  0.41800000000E+01 0. -1.
        -11    1    1    2    0    0  0.64636026295E+02  0.17658180462E+02 -0.50908546194E+01  0.67197797830E+02  0.00000000000E+00 0.  1.
         11    1    1    2    0    0  0.27533541356E+02 -0.53773115259E+01 -0.89516272559E+02  0.93809244915E+02  0.00000000000E+00 0. -1.
</event>
<event>
 7    1  0.2380582E-009  0.1224764E+03  0.7561462E-02  0.1239067E+00
         -2   -1    0    0    0  501 -0.00000000000E+00  0.00000000000E+00  0.25073129111E+02  0.25073129111E+02  0.00000000000E+00 0. -1.
          2   -1    0    0  501    0  0.00000000000E+00 -0.00000000000E+00 -0.95034805196E+03  0.95034805196E+03  0.00000000000E+00 0.  1.
         25    2    1    2    0    0  0.26990379167E+02  0.88236262388E+02 -0.68619708291E+03  0.70358278252E+03  0.12509267242E+03 0.  0.
          5    1    3    3  502    0 -0.20808259759E+02  0.61134519233E+02 -0.13576951876E+03  0.15040361611E+03  0.41800000000E+01 0.  1.
         -5    1    3    3    0  502  0.47798638926E+02  0.27101743155E+02 -0.55042756415E+03  0.55317916640E+03  0.41800000000E+01 0.  1.
        -11    1    1    2    0    0  0.26400280598E+02 -0.59813121349E+01 -0.27234503617E+02  0.38398816359E+02  0.00000000000E+00 0. -1.
         11    1    1    2    0    0 -0.53390659766E+02 -0.82254950254E+02 -0.21184333632E+03  0.23343958219E+03  0.00000000000E+00 0.  1.
</event>
<event>
 7    1  0.2380582E-009  0.9719224E+02  0.7561462E-02  0.1286314E+00
         -1   -1    0    0    0  501 -0.00000000000E+00  0.00000000000E+00  0.45192962510E+02  0.45192962510E+02  0.00000000000E+00 0.  1.
          1   -1    0    0  501    0  0.00000000000E+00 -0.00000000000E+00 -0.38644874273E+03  0.38644874273E+03  0.00000000000E+00 0. -1.
         25    2    1    2    0    0 -0.37810047709E+02  0.15076434570E+01 -0.29422420317E+03  0.32194260832E+03  0.12508912274E+03 0.  0.
          5    1    3    3  502    0 -0.58285348305E+02  0.30921012222E+02 -0.27119810498E+03  0.27914006407E+03  0.41800000000E+01 0.  1.
         -5    1    3    3    0  502  0.20475300596E+02 -0.29413368765E+02 -0.23026098184E+02  0.42802544249E+02  0.41800000000E+01 0.  1.
        -11    1    1    2    0    0  0.36257212555E+02  0.38076081019E+02 -0.46332038428E+02  0.70078749938E+02  0.00000000000E+00 0. -1.
         11    1    1    2    0    0  0.15528351538E+01 -0.39583724476E+02 -0.69953862344E+00  0.39620346978E+02  0.00000000000E+00 0.  1.
</event>
<event>
 7    1  0.2380582E-009  0.9153728E+02  0.7561462E-02  0.1299171E+00
          1   -1    0    0  501    0  0.00000000000E+00  0.00000000000E+00  0.35722326116E+03  0.35722326116E+03  0.00000000000E+00 0. -1.
         -1   -1    0    0    0  501 -0.00000000000E+00 -0.00000000000E+00 -0.41245086010E+02  0.41245086010E+02  0.00000000000E+00 0.  1.
         25    2    1    2    0    0  0.21627969828E+02  0.33513906144E+02  0.24044973529E+03  0.27395999552E+03  0.12508818075E+03 0.  0.
          5    1    3    3  502    0  0.44105199613E+02  0.45648047048E+02  0.47775230812E+02  0.79554747887E+02  0.41800000000E+01 0. -1.
         -5    1    3    3    0  502 -0.22477229785E+02 -0.12134140904E+02  0.19267450448E+03  0.19440524764E+03  0.41800000000E+01 0. -1.
        -11    1    1    2    0    0  0.10908409980E+02 -0.54026477100E+02  0.63770921059E+02  0.84288694431E+02  0.00000000000E+00 0. -1.
         11    1    1    2    0    0 -0.32536379807E+02  0.20512570956E+02  0.11757518806E+02  0.40219657217E+02  0.00000000000E+00 0.  1.
</event>
<event>
 7    1  0.2380582E-009  0.1502480E+03  0.7561462E-02  0.1200169E+00
          1   -1    0    0  501    0  0.00000000000E+00  0.00000000000E+00  0.43200867266E+03  0.43200867266E+03  0.00000000000E+00 0. -1.
         -1   -1    0    0    0  501 -0.00000000000E+00 -0.00000000000E+00 -0.67090133734E+02  0.67090133734E+02  0.00000000000E+00 0.  1.
         25    2    1    2    0    0 -0.96969426883E+02  0.87257927036E+02  0.22512256698E+03  0.28869481672E+03  0.12509001343E+03 0.  0.
          5    1    3    3  502    0  0.10126336596E+02 -0.14286453003E+02 -0.16679548899E+01  0.18080373497E+02  0.41800000000E+01 0.  1.
         -5    1    3    3    0  502 -0.10709576348E+03  0.10154438004E+03  0.22679052187E+03  0.27061444323E+03  0.41800000000E+01 0.  1.
        -11    1    1    2    0    0  0.58708999273E+02 -0.73774417715E+02  0.14123251396E+03  0.16981176139E+03  0.00000000000E+00 0. -1.
         11    1    1    2    0    0  0.38260427610E+02 -0.13483509322E+02 -0.14365420133E+01  0.40592228289E+02  0.00000000000E+00 0.  1.
</event>
<event>
 7    1  0.2380582E-009  0.9739167E+02  0.7561462E-02  0.1285879E+00
         -1   -1    0    0    0  501 -0.00000000000E+00  0.00000000000E+00  0.29264733472E+03  0.29264733472E+03  0.00000000000E+00 0.  1.
          1   -1    0    0  501    0  0.00000000000E+00 -0.00000000000E+00 -0.69409504561E+02  0.69409504561E+02  0.00000000000E+00 0. -1.
         25    2    1    2    0    0 -0.85956812666E+02  0.33131488502E+02  0.13116042865E+03  0.20331491397E+03  0.12509047536E+03 0.  0.
          5    1    3    3  502    0 -0.11778199331E+02 -0.19600045760E+01 -0.24345318882E+02  0.27436008253E+02  0.41800000000E+01 0.  1.
         -5    1    3    3    0  502 -0.74178613336E+02  0.35091493078E+02  0.15550574753E+03  0.17587890572E+03  0.41800000000E+01 0.  1.
        -11    1    1    2    0    0  0.72164418740E+02 -0.97505477083E+01  0.11509924797E+02  0.73724181118E+02  0.00000000000E+00 0. -1.
         11    1    1    2    0    0  0.13792393926E+02 -0.23380940794E+02  0.80567476711E+02  0.85017744184E+02  0.00000000000E+00 0.  1.
</event>
<event>
 7    1  0.2380582E-009  0.1312131E+03  0.7561462E-02  0.1225667E+00
         -1   -1    0    0    0  501 -0.00000000000E+00  0.00000000000E+00  0.18713792359E+02  0.18713792359E+02  0.00000000000E+00 0.  1.
          1   -1    0    0  501    0  0.00000000000E+00 -0.00000000000E+00 -0.13236044720E+04  0.13236044720E+04  0.00000000000E+00 0. -1.
         25    2    1    2    0    0  0.57319021884E+02  0.97502314430E+02 -0.74108935067E+03  0.76003475807E+03  0.12508891322E+03 0.  0.
          5    1    3    3  502    0  0.32129165287E+02  0.98067686591E+02 -0.71866027607E+03  0.72604381356E+03  0.41800000000E+01 0. -1.
         -5    1    3    3    0  502  0.25189856597E+02 -0.56537216026E+00 -0.22429074601E+02  0.33990944508E+02  0.41800000000E+01 0. -1.
        -11    1    1    2    0    0 -0.16151517119E+02 -0.90396513954E+02 -0.47932388258E+03  0.48804076228E+03  0.00000000000E+00 0. -1.
         11    1    1    2    0    0 -0.41167504764E+02 -0.71058004767E+01 -0.84477446430E+02  0.94242744040E+02  0.00000000000E+00 0.  1.
</event>
<event>
 7    1  0.2380582E-009  0.1107593E+03  0.7561462E-02  0.1259170E+00
          3   -1    0    0  501    0  0.00000000000E+00  0.00000000000E+00  0.95405833941E+02  0.95405833941E+02  0.00000000000E+00 0. -1.
         -3   -1    0    0    0  501 -0.00000000000E+00 -0.00000000000E+00 -0.24142235956E+03  0.24142235956E+03  0.00000000000E+00 0.  1.
         25    2    1    2    0    0 -0.68932314169E+02  0.75470095925E+02 -0.10180222435E+03  0.19094167289E+03  0.12509048824E+03 0.  0.
          5    1    3    3  502    0 -0.11603829448E+02  0.29863340445E+02  0.27395860803E+02  0.42361226960E+02  0.41800000000E+01 0. -1.
         -5    1    3    3    0  502 -0.57328484721E+02  0.45606755479E+02 -0.12919808515E+03  0.14858044593E+03  0.41800000000E+01 0. -1.
        -11    1    1    2    0    0  0.16854540954E+02 -0.58775594789E+02  0.17331894024E+02  0.63553447145E+02  0.00000000000E+00 0. -1.
         11    1    1    2    0    0  0.52077773215E+02 -0.16694501135E+02 -0.61546195293E+02  0.82333073465E+02  0.00000000000E+00 0.  1.
</event>
<event>
 7    1  0.2380582E-009  0.9987754E+02  0.7561462E-02  0.1280554E+00
          2   -1    0    0  501    0  0.00000000000E+00  0.00000000000E+00  0.90479552485E+03  0.90479552485E+03  0.00000000000E+00 0. -1.
         -2   -1    0    0    0  501 -0.00000000000E+00 -0.00000000000E+00 -0.18528783655E+02  0.18528783655E+02  0.00000000000E+00 0.  1.
         25    2    1    2    0    0  0.42739966568E+02  0.51903091899E+02  0.54169560281E+03  0.56000192352E+03  0.12508953816E+03 0.  0.
          5    1    3    3  502    0  0.21885546817E+02  0.62554887403E+02  0.52878215786E+03  0.53293539380E+03  0.41800000000E+01 0. -1.
         -5    1    3    3    0  502  0.20854419751E+02 -0.10651795504E+02  0.12913444946E+02  0.27066529718E+02  0.41800000000E+01 0. -1.
        -11    1    1    2    0    0 -0.13890289452E+01 -0.65894605135E+02  0.14880560036E+03  0.16274868689E+03  0.00000000000E+00 0.  1.
         11    1    1    2    0    0 -0.41350937623E+02  0.13991513236E+02  0.19576553802E+03  0.20057369808E+03  0.00000000000E+00 0. -1.
</event>
<event>
 7    1  0.2380582E-009  0.1109509E+03  0.7561462E-02  0.1258819E+00
         -2   -1    0    0    0  501 -0.00000000000E+00  0.00000000000E+00  0.19078322250E+03  0.19078322250E+03  0.00000000000E+00 0.  1.
          2   -1    0    0  501    0  0.00000000000E+00 -0.00000000000E+00 -0.88943969699E+02  0.88943969699E+02  0.00000000000E+00 0. -1.
         25    2    1    2    0    0 -0.39624549245E+02  0.25328879828E+02 -0.39603344988E+01  0.13369542896E+03  0.12508847437E+03 0.  0.
          5    1    3    3  502    0 -0.79128846138E+02  0.42642331147E+02 -0.69916809446E+01  0.90255740533E+02  0.41800000000E+01 0.  1.
         -5    1    3    3    0  502  0.39504296893E+02 -0.17313451319E+02  0.30313464459E+01  0.43439688429E+02  0.41800000000E+01 0.  1.
        -11    1    1    2    0    0  0.17870851987E+02  0.26734930350E+02  0.75325519222E+02  0.81902733151E+02  0.00000000000E+00 0.  1.
         11    1    1    2    0    0  0.21753697259E+02 -0.52063810178E+02  0.30474068080E+02  0.64129030088E+02  0.00000000000E+00 0. -1.
</event>
<event>
 7    1  0.2380582E-009  0.1306547E+03  0.7561462E-02  0.1226488E+00
          2   -1    0    0  501    0  0.00000000000E+00  0.00000000000E+00  0.66177205552E+03  0.66177205552E+03  0.00000000000E+00 0. -1.
         -2   -1    0    0    0  501 -0.00000000000E+00 -0.00000000000E+00 -0.38770276770E+02  0.38770276770E+02  0.00000000000E+00 0.  1.
         25    2    1    2    0    0 -0.10560320646E+03 -0.48250032677E+02  0.29727892506E+03  0.34278668804E+03  0.12509137197E+03 0.  0.
          5    1    3    3  502    0 -0.16008164947E+02 -0.23294630896E+00 -0.98428687014E+01  0.19252793907E+02  0.41800000000E+01 0.  1.
         -5    1    3    3    0  502 -0.89595041517E+02 -0.48017086368E+02  0.30712179376E+03  0.32353389413E+03  0.41800000000E+01 0.  1.
        -11    1    1    2    0    0  0.63695782284E+02 -0.16591060648E+02  0.10505374484E+03  0.12397058231E+03  0.00000000000E+00 0. -1.
         11    1    1    2    0    0  0.41907424180E+02  0.64841093325E+02  0.22066910885E+03  0.23378506194E+03  0.00000000000E+00 0.  1.
</event>
<event>
 7    1  0.2380582E-009  0.8950403E+02  0.7561462E-02  0.1304057E+00
         -1   -1    0    0    0  501 -0.00000000000E+00  0.00000000000E+00  0.73069080880E+02  0.73069080880E+02  0.00000000000E+00 0.  1.
          1   -1    0    0  501    0  0.00000000000E+00 -0.00000000000E+00 -0.21436190056E+03  0.21436190056E+03  0.00000000000E+00 0. -1.
         25    2    1    2    0    0 -0.11770812032E+02 -0.34824038778E+02 -0.20636185473E+02  0.13200118668E+03  0.12508875026E+03 0.  0.
          5    1    3    3  502    0  0.12576918026E+02  0.22506241159E+02  0.38161997055E+02  0.46244136681E+02  0.41800000000E+01 0.  1.
         -5    1    3    3    0  502 -0.24347730058E+02 -0.57330279936E+02 -0.58798182528E+02  0.85757050002E+02  0.41800000000E+01 0.  1.
        -11    1    1    2    0    0  0.33563552316E+02  0.52561977288E+02 -0.51836803426E+02  0.81094560175E+02  0.00000000000E+00 0.  1.
         11    1    1    2    0    0 -0.21792740284E+02 -0.17737938511E+02 -0.68819830786E+02  0.74335234587E+02  0.00000000000E+00 0. -1.
</event>
<event>
 7    1  0.2380582E-009  0.2085392E+03  0.7561462E-02  0.1142728E+00
          1   -1    0    0  501    0  0.00000000000E+00  0.00000000000E+00  0.15881072415E+04  0.15881072415E+04  0.00000000000E+00 0. -1.
         -1   -1    0    0    0  501 -0.00000000000E+00 -0.00000000000E+00 -0.37033750368E+02  0.37033750368E+02  0.00000000000E+00 0.  1.
         25    2    1    2    0    0  0.10075654867E+03 -0.15820187313E+03  0.11635767160E+04  0.11852167474E+04  0.12509296304E+03 0.  0.
          5    1    3    3  502    0 -0.12246816455E+02  0.20763936523E+01  0.14612644975E+02  0.19629001937E+02  0.41800000000E+01 0. -1.
         -5    1    3    3    0  502  0.11300336513E+03 -0.16027826679E+03  0.11489640711E+04  0.11655877454E+04  0.41800000000E+01 0. -1.
        -11    1    1    2    0    0  0.15715979101E+02  0.34509288905E+02  0.82538778803E+02  0.90832444788E+02  0.00000000000E+00 0. -1.
         11    1    1    2    0    0 -0.11647252777E+03  0.12369258423E+03  0.30495799633E+03  0.34909179974E+03  0.00000000000E+00 0.  1.
</event>
<event>
 7    1  0.2380582E-009  0.1582357E+03  0.7561462E-02  0.1190703E+00
         -1   -1    0    0    0  501 -0.00000000000E+00  0.00000000000E+00  0.55881009037E+03  0.55881009037E+03  0.00000000000E+00 0.  1.
          1   -1    0    0  501    0  0.00000000000E+00 -0.00000000000E+00 -0.52764560701E+02  0.52764560701E+02  0.00000000000E+00 0. -1.
         25    2    1    2    0    0  0.28378800995E+02 -0.11610754002E+03  0.16892854052E+03  0.24180596563E+03  0.12508779323E+03 0.  0.
          5    1    3    3  502    0  0.39026045848E+02  0.11596089044E+02  0.20845557905E+02  0.45929415629E+02  0.41800000000E+01 0.  1.
         -5    1    3    3    0  502 -0.10647244854E+02 -0.12770362906E+03  0.14808298262E+03  0.19587655000E+03  0.41800000000E+01 0.  1.
        -11    1    1    2    0    0 -0.59489322014E+02  0.73033978658E+02  0.25618337870E+03  0.27295212949E+03  0.00000000000E+00 0. -1.
         11    1    1    2    0    0  0.31110521020E+02  0.43073561361E+02  0.80933610455E+02  0.96816555958E+02  0.00000000000E+00 0.  1.
</event>
<event>
 7    1  0.2380582E-009  0.9020509E+02  0.7561462E-02  0.1302356E+00
          4   -1    0    0  501    0  0.00000000000E+00  0.00000000000E+00  0.14212315276E+03  0.14212315276E+03  0.00000000000E+00 0. -1.
         -4   -1    0    0    0  501 -0.00000000000E+00 -0.00000000000E+00 -0.13357627658E+03  0.13357627658E+03  0.00000000000E+00 0.  1.
         25    2    1    2    0    0 -0.47801845527E+02  0.43561098111E+02 -0.51243883160E+02  0.14985518533E+03  0.12509218723E+03 0.  0.
          5    1    3    3  502    0  0.28496248213E+02  0.22266497169E+02 -0.59863673891E+02  0.70064005810E+02  0.41800000000E+01 0.  1.
         -5    1    3    3    0  502 -0.76298093740E+02  0.21294600941E+02  0.86197907303E+01  0.79791179524E+02  0.41800000000E+01 0.  1.
        -11    1    1    2    0    0  0.22947510221E+02 -0.20211514407E+02  0.80385951320E+02  0.86005783001E+02  0.00000000000E+00 0. -1.
         11    1    1    2    0    0  0.24854335306E+02 -0.23349583704E+02 -0.20595191979E+02  0.39838461006E+02  0.00000000000E+00 0.  1.
</event>
<event>
 7    1  0.2380582E-009  0.1193132E+03  0.7561462E-02  0.1244234E+00
          1   -1    0    0  501    0  0.00000000000E+00  0.00000000000E+00  0.26099140501E+03  0.26099140501E+03  0.00000000000E+00 0. -1.
         -1   -1    0    0    0  501 -0.00000000000E+00 -0.00000000000E+00 -0.57078628660E+02  0.57078628660E+02  0.00000000000E+00 0.  1.
         25    2    1    2    0    0 -0.45712345246E+02  0.31079693790E+02  0.95546325819E+02  0.16682819252E+03  0.12508788737E+03 0.  0.
          5    1    3    3  502    0 -0.77772518049E+00 -0.44712295487E+02  0.14933491791E+02  0.47331551857E+02  0.41800000000E+01 0. -1.
         -5    1    3    3    0  502 -0.44934620065E+02  0.75791989276E+02  0.80612834028E+02  0.11949664066E+03  0.41800000000E+01 0. -1.
        -11    1    1    2    0    0  0.69347467994E+02 -0.38620031842E+01  0.71487979759E+02  0.99672050424E+02  0.00000000000E+00 0.  1.
         11    1    1    2    0    0 -0.23635122748E+02 -0.27217690606E+02  0.36878470770E+02  0.51569790726E+02  0.00000000000E+00 0. -1.
</event>
<event>
 7    1  0.2380582E-009  0.1076175E+03  0.7561462E-02  0.1265047E+00
         -4   -1    0    0    0  501 -0.00000000000E+00  0.00000000000E+00  0.10107083175E+03  0.10107083175E+03  0.00000000000E+00 0.  1.
          4   -1    0    0  501    0  0.00000000000E+00 -0.00000000000E+00 -0.12564380956E+03  0.12564380956E+03  0.00000000000E+00 0. -1.
         25    2    1    2    0    0  0.19293862557E+02  0.27391144985E+02  0.90210230266E+01  0.12982802181E+03  0.12510558915E+03 0.  0.
          5    1    3    3  502    0  0.65956631753E+02  0.43649150463E+02 -0.11253642294E+01  0.79210254721E+02  0.41800000000E+01 0. -1.
         -5    1    3    3    0  502 -0.46662769196E+02 -0.16258005478E+02  0.10146387256E+02  0.50617767093E+02  0.41800000000E+01 0. -1.
        -11    1    1    2    0    0  0.27017104183E+02 -0.29603354010E+02 -0.30603048765E+02  0.50426472024E+02  0.00000000000E+00 0. -1.
         11    1    1    2    0    0 -0.46310966740E+02  0.22122090245E+01 -0.29909520650E+01  0.46460147475E+02  0.00000000000E+00 0.  1.
</event>
<event>
 7    1  0.2380582E-009  0.1080288E+03  0.7561462E-02  0.1264264E+00
         -2   -1    0    0    0  501 -0.00000000000E+00  0.00000000000E+00  0.22613078446E+02  0.22613078446E+02  0.00000000000E+00 0.  1.
          2   -1    0    0  501    0  0.00000000000E+00 -0.00000000000E+00 -0.72629029667E+03  0.72629029667E+03  0.00000000000E+00 0. -1.
         25    2    1    2    0    0 -0.54460871570E+02 -0.22084236027E+02 -0.29562793931E+03  0.32633852617E+03  0.12508898891E+03 0.  0.
          5    1    3    3  502    0  0.35864195356E+02 -0.16833903275E+02 -0.46362931400E+02  0.61127854665E+02  0.41800000000E+01 0.  1.
         -5    1    3    3    0  502 -0.90325066926E+02 -0.52503327518E+01 -0.24926500791E+03  0.26521067150E+03  0.41800000000E+01 0.  1.
        -11    1    1    2    0    0  0.68565469914E+02  0.19709269791E+02 -0.39967116917E+03  0.40598857428E+03  0.00000000000E+00 0. -1.
         11    1    1    2    0    0 -0.14104598344E+02  0.23749662362E+01 -0.83781097421E+01  0.16576274670E+02  0.00000000000E+00 0.  1.
</event>
<event>
 7    1  0.2380582E-009  0.1042424E+03  0.7561462E-02  0.1271620E+00
         -2   -1    0    0    0  501 -0.00000000000E+00  0.00000000000E+00  0.14552430949E+03  0.14552430949E+03  0.00000000000E+00 0.  1.
          2   -1    0    0  501    0  0.00000000000E+00 -0.00000000000E+00 -0.12211453488E+03  0.12211453488E+03  0.00000000000E+00 0. -1.
         25    2    1    2    0    0  0.25430048450E+02 -0.61570994500E+02  0.52890615430E+02  0.15127080805E+03  0.12509102861E+03 0.  0.
          5    1    3    3  502    0  0.62222219343E+02 -0.30642904495E+02  0.71368931565E+02  0.99607173279E+02  0.41800000000E+01 0. -1.
         -5    1    3    3    0  502 -0.36792170893E+02 -0.30928090005E+02 -0.18478316134E+02  0.51663634769E+02  0.41800000000E+01 0. -1.
        -11    1    1    2    0    0  0.19497249581E+02  0.86366796218E+01 -0.40785565743E+02  0.46023878032E+02  0.00000000000E+00 0. -1.
         11    1    1    2    0    0 -0.44927298031E+02  0.52934314878E+02  0.11304724929E+02  0.70344158291E+02  0.00000000000E+00 0.  1.
</event>
<event>
 7    1  0.2380582E-009  0.1991955E+03  0.7561462E-02  0.1150420E+00
         -1   -1    0    0    0  501 -0.00000000000E+00  0.00000000000E+00  0.61690703724E+03  0.61690703724E+03  0.00000000000E+00 0.  1.
          1   -1    0    0  501    0  0.00000000000E+00 -0.00000000000E+00 -0.74602727519E+02  0.74602727519E+02  0.00000000000E+00 0. -1.
         25    2    1    2    0    0 -0.17261651985E+03  0.51102865080E+01  0.18122441349E+03  0.27984411839E+03  0.12509142497E+03 0.  0.
          5    1    3    3  502    0 -0.19135577695E+03  0.48076076881E+01  0.15015201202E+03  0.24331717074E+03  0.41800000000E+01 0.  1.
         -5    1    3    3    0  502  0.18739257105E+02  0.30267881996E+00  0.31072401467E+02  0.36526947645E+02  0.41800000000E+01 0.  1.
        -11    1    1    2    0    0  0.16789752338E+03 -0.22782008110E+02  0.35322233147E+03  0.39175836137E+03  0.00000000000E+00 0.  1.
         11    1    1    2    0    0  0.47189964679E+01  0.17671721602E+02  0.78575647586E+01  0.19907284998E+02  0.00000000000E+00 0. -1.
</event>
<event>
 7    1  0.2380582E-009  0.8550370E+02  0.7561462E-02  0.1314121E+00
         -1   -1    0    0    0  501 -0.00000000000E+00  0.00000000000E+00  0.18065029679E+02  0.18065029679E+02  0.00000000000E+00 0.  1.
          1   -1    0    0  501    0  0.00000000000E+00 -0.00000000000E+00 -0.72806036181E+03  0.72806036181E+03  0.00000000000E+00 0. -1.
         25    2    1    2    0    0 -0.26330569760E+02  0.72670484967E+01 -0.48359381380E+03  0.50025648165E+03  0.12508981490E+03 0.  0.
          5    1    3    3  502    0  0.22517662922E+02  0.14388675794E+02 -0.41371358369E+03  0.41459676900E+03  0.41800000000E+01 0. -1.
         -5    1    3    3    0  502 -0.48848232681E+02 -0.71216272974E+01 -0.69880230106E+02  0.85659712649E+02  0.41800000000E+01 0. -1.
        -11    1    1    2    0    0 -0.22435683369E+02 -0.32515096218E+02 -0.74150731275E+02  0.84017392955E+02  0.00000000000E+00 0.  1.
         11    1    1    2    0    0  0.48766253128E+02  0.25248047722E+02 -0.15225078706E+03  0.16185151689E+03  0.00000000000E+00 0. -1.
</event>
<event>
 7    1  0.2380582E-009  0.1120918E+03  0.7561462E-02  0.1256744E+00
         -2   -1    0    0    0  501 -0.00000000000E+00  0.00000000000E+00  0.82201644748E+02  0.82201644748E+02  0.00000000000E+00 0.  1.
          2   -1    0    0  501    0  0.00000000000E+00 -0.00000000000E+00 -0.34085711092E+03  0.34085711092E+03  0.00000000000E+00 0. -1.
         25    2    1    2    0    0  0.34842057906E+02 -0.85858958445E+02 -0.24865564108E+03  0.29336494647E+03  0.12509050417E+03 0.  0.
          5    1    3    3  502    0  0.47915658067E+02 -0.18483119277E+02 -0.21155122660E+02  0.55700517062E+02  0.41800000000E+01 0. -1.
         -5    1    3    3    0  502 -0.13073600161E+02 -0.67375839168E+02 -0.22750051842E+03  0.23766442941E+03  0.41800000000E+01 0. -1.
        -11    1    1    2    0    0  0.10443046537E+02  0.31281454628E+02 -0.40726830523E+02  0.52404783647E+02  0.00000000000E+00 0. -1.
         11    1    1    2    0    0 -0.45285104443E+02  0.54577503817E+02  0.30727005433E+02  0.77289025548E+02  0.00000000000E+00 0.  1.
</event>
<event>
 7    1  0.2380582E-009  0.1449239E+03  0.7561462E-02  0.1206853E+00
          1   -1    0    0  501    0  0.00000000000E+00  0.00000000000E+00  0.46638735924E+03  0.46638735924E+03  0.00000000000E+00 0.  1.
         -1   -1    0    0    0  501 -0.00000000000E+00 -0.00000000000E+00 -0.55400286316E+02  0.55400286316E+02  0.00000000000E+00 0. -1.
         25    2    1    2    0    0 -0.11316739055E+03  0.20345236614E+02  0.17286140785E+03  0.24238272916E+03  0.12509010406E+03 0.  0.
          5    1    3    3  502    0 -0.18779000633E+02 -0.34807961132E+02  0.10825549052E+03  0.11532982550E+03  0.41800000000E+01 0.  1.
         -5    1    3    3    0  502 -0.94388389921E+02  0.55153197746E+02  0.64605917327E+02  0.12705290365E+03  0.41800000000E+01 0.  1.
        -11    1    1    2    0    0  0.10073178423E+03 -0.47079983575E+02  0.21455847982E+03  0.24165835072E+03  0.00000000000E+00 0.  1.
         11    1    1    2    0    0  0.12435606321E+02  0.26734746962E+02  0.23567185254E+02  0.37746565678E+02  0.00000000000E+00 0. -1.
</event>
<event>
 7    1  0.2380582E-009  0.8298239E+02  0.7561462E-02  0.1320795E+00
          2   -1    0    0  501    0  0.00000000000E+00  0.00000000000E+00  0.21974443103E+03  0.21974443103E+03  0.00000000000E+00 0. -1.
         -2   -1    0    0    0  501 -0.00000000000E+00 -0.00000000000E+00 -0.67269864894E+02  0.67269864894E+02  0.00000000000E+00 0.  1.
         25    2    1    2    0    0 -0.29295944525E+02 -0.44599485063E+02  0.48471875723E+02  0.14437749857E+03  0.12509185794E+03 0.  0.
          5    1    3    3  502    0 -0.81783183465E+01  0.76196110793E+01  0.79188782237E+02  0.80082950721E+02  0.41800000000E+01 0. -1.
         -5    1    3    3    0  502 -0.21117626178E+02 -0.52219096142E+02 -0.30716906514E+02  0.64294547849E+02  0.41800000000E+01 0. -1.
        -11    1    1    2    0    0  0.35954889221E+02  0.65987894708E+02  0.77867231840E+02  0.10821488854E+03  0.00000000000E+00 0. -1.
         11    1    1    2    0    0 -0.66589446966E+01 -0.21388409645E+02  0.26135458574E+02  0.34421908815E+02  0.00000000000E+00 0.  1.
</event>
<event>
 7    1  0.2380582E-009  0.1570747E+03  0.7561462E-02  0.1192040E+00
         -1   -1    0    0    0  501 -0.00000000000E+00  0.00000000000E+00  0.92955354058E+02  0.92955354058E+02  0.00000000000E+00 0.  1.
          1   -1    0    0  501    0  0.00000000000E+00 -0.00000000000E+00 -0.66660071259E+03  0.66660071259E+03  0.00000000000E+00 0. -1.
         25    2    1    2    0    0  0.11888725323E+03  0.91808258447E+02 -0.54966905628E+03  0.58339316113E+03  0.12509425936E+03 0.  0.
          5    1    3    3  502    0  0.12263350258E+03  0.81609785495E+02 -0.30794967174E+03  0.34139362292E+03  0.41800000000E+01 0.  1.
         -5    1    3    3    0  502 -0.37462493470E+01  0.10198472952E+02 -0.24171938454E+03  0.24199953821E+03  0.41800000000E+01 0.  1.
        -11    1    1    2    0    0 -0.42593665715E+02 -0.57327937037E+02  0.29004614143E+02  0.77084242006E+02  0.00000000000E+00 0.  1.
         11    1    1    2    0    0 -0.76293587518E+02 -0.34480321410E+02 -0.52980916398E+02  0.99078663512E+02  0.00000000000E+00 0. -1.
</event>
<event>
 7    1  0.2380582E-009  0.1364102E+03  0.7561462E-02  0.1218243E+00
          3   -1    0    0  501    0  0.00000000000E+00  0.00000000000E+00  0.93349831207E+02  0.93349831207E+02  0.00000000000E+00 0. -1.
         -3   -1    0    0    0  501 -0.00000000000E+00 -0.00000000000E+00 -0.31751623087E+03  0.31751623087E+03  0.00000000000E+00 0.  1.
         25    2    1    2    0    0  0.10402201761E+03 -0.30107494195E+02 -0.20923748968E+03  0.26675024235E+03  0.12509325861E+03 0.  0.
          5    1    3    3  502    0  0.87076575108E+02  0.15662520154E+02 -0.53467310584E+02  0.10345950982E+03  0.41800000000E+01 0. -1.
         -5    1    3    3    0  502  0.16945442499E+02 -0.45770014349E+02 -0.15577017910E+03  0.16329073253E+03  0.41800000000E+01 0. -1.
        -11    1    1    2    0    0 -0.60216090868E+02 -0.24712994611E+02  0.16617938274E+02  0.67177865213E+02  0.00000000000E+00 0.  1.
         11    1    1    2    0    0 -0.43805926739E+02  0.54820488806E+02 -0.31546848257E+02  0.76937954517E+02  0.00000000000E+00 0. -1.
</event>
<event>
 7    1  0.2380582E-009  0.1333901E+03  0.7561462E-02  0.1222510E+00
          2   -1    0    0  501    0  0.00000000000E+00  0.00000000000E+00  0.15916504382E+02  0.15916504382E+02  0.00000000000E+00 0.  1.
         -2   -1    0    0    0  501 -0.00000000000E+00 -0.00000000000E+00 -0.21012866342E+04  0.21012866342E+04  0.00000000000E+00 0. -1.
         25    2    1    2    0    0  0.81450937048E+02  0.91896305597E+02 -0.15403176896E+04  0.15502595623E+04  0.12508772687E+03 0.  0.
          5    1    3    3  502    0  0.70893357613E+02  0.25125474096E+02 -0.34991961798E+03  0.35793626394E+03  0.41800000000E+01 0.  1.
         -5    1    3    3    0  502  0.10557579435E+02  0.66770831501E+02 -0.11903980717E+04  0.11923232984E+04  0.41800000000E+01 0.  1.
        -11    1    1    2    0    0 -0.12731443770E+02 -0.71081335770E+01 -0.41784808198E+01  0.15168220904E+02  0.00000000000E+00 0.  1.
         11    1    1    2    0    0 -0.68719493277E+02 -0.84788172020E+02 -0.54087395936E+03  0.55177535536E+03  0.00000000000E+00 0. -1.
</event>
<event>
 7    1  0.2380582E-009  0.9223852E+02  0.7561462E-02  0.1297520E+00
          2   -1    0    0  501    0  0.00000000000E+00  0.00000000000E+00  0.15533548450E+03  0.15533548450E+03  0.00000000000E+00 0. -1.
         -2   -1    0    0    0  501 -0.00000000000E+00 -0.00000000000E+00 -0.11298023097E+03  0.11298023097E+03  0.00000000000E+00 0.  1.
         25    2    1    2    0    0 -0.49417726989E+02  0.39030435027E+02  0.71093856236E+02  0.15705764741E+03  0.12508909472E+03 0.  0.
          5    1    3    3  502    0  0.24369001429E+02  0.24863078184E+02 -0.18831110368E+02  0.39800804076E+02  0.41800000000E+01 0.  1.
         -5    1    3    3    0  502 -0.73786728418E+02  0.14167356843E+02  0.89924966604E+02  0.11725684334E+03  0.41800000000E+01 0.  1.
        -11    1    1    2    0    0  0.69737904666E+01  0.81322563401E+01 -0.44589885665E+02  0.45858753257E+02  0.00000000000E+00 0.  1.
         11    1    1    2    0    0  0.42443936522E+02 -0.47162691367E+02  0.15851282956E+02  0.65399314796E+02  0.00000000000E+00 0. -1.
</event>
<event>
 7    1  0.2380582E-009  0.1077661E+03  0.7561462E-02  0.1264763E+00
         -2   -1    0    0    0  501 -0.00000000000E+00  0.00000000000E+00  0.18371173092E+02  0.18371173092E+02  0.00000000000E+00 0.  1.
          2   -1    0    0  501    0  0.00000000000E+00 -0.00000000000E+00 -0.71598786960E+03  0.71598786960E+03  0.00000000000E+00 0. -1.
         25    2    1    2    0    0 -0.42115014687E+02  0.10515883588E+02 -0.35388351477E+03  0.37784418722E+03  0.12509368299E+03 0.  0.
          5    1    3    3  502    0 -0.54332773629E+01 -0.51189139566E+02 -0.84538656513E+02  0.99066166563E+02  0.41800000000E+01 0.  1.
         -5    1    3    3    0  502 -0.36681737324E+02  0.61705023155E+02 -0.26934485825E+03  0.27877802066E+03  0.41800000000E+01 0.  1.
        -11    1    1    2    0    0  0.65792144802E+02 -0.15926147782E+02 -0.28559180744E+03  0.29350456381E+03  0.00000000000E+00 0.  1.
         11    1    1    2    0    0 -0.23677130115E+02  0.54102641932E+01 -0.58141374304E+02  0.63010291660E+02  0.00000000000E+00 0. -1.
</event>
<event>
 7    1  0.2380582E-009  0.1618428E+03  0.7561462E-02  0.1186632E+00
          2   -1    0    0  501    0  0.00000000000E+00  0.00000000000E+00  0.10650475853E+04  0.10650475853E+04  0.00000000000E+00 0.  1.
         -2   -1    0    0    0  501 -0.00000000000E+00 -0.00000000000E+00 -0.27301612296E+02  0.27301612296E+02  0.00000000000E+00 0. -1.
         25    2    1    2    0    0 -0.93459807265E+02  0.84257542968E+02  0.51841288577E+03  0.54793530482E+03  0.12508840477E+03 0.  0.
          5    1    3    3  502    0 -0.63119349237E+02 -0.15156562004E+02  0.28600514941E+03  0.29330903755E+03  0.41800000000E+01 0. -1.
         -5    1    3    3    0  502 -0.30340458029E+02  0.99414104972E+02  0.23240773636E+03  0.25462626726E+03  0.41800000000E+01 0. -1.
        -11    1    1    2    0    0  0.12546629456E+02 -0.71629514991E+02  0.15822018183E+03  0.17413164924E+03  0.00000000000E+00 0. -1.
         11    1    1    2    0    0  0.80913177810E+02 -0.12628027977E+02  0.36111290539E+03  0.37028224353E+03  0.00000000000E+00 0.  1.
</event>
<event>
 7    1  0.2380582E-009  0.1067408E+03  0.7561462E-02  0.1266727E+00
          3   -1    0    0  501    0  0.00000000000E+00  0.00000000000E+00  0.30128705632E+02  0.30128705632E+02  0.00000000000E+00 0. -1.
         -3   -1    0    0    0  501 -0.00000000000E+00 -0.00000000000E+00 -0.44176332160E+03  0.44176332160E+03  0.00000000000E+00 0.  1.
         25    2    1    2    0    0  0.21617716233E+02  0.31098162559E+02 -0.24492577359E+03  0.27761594830E+03  0.12509020271E+03 0.  0.
          5    1    3    3  502    0 -0.30168359135E+02  0.61636246434E+02 -0.15246739093E+03  0.16725111200E+03  0.41800000000E+01 0.  1.
         -5    1    3    3    0  502  0.51786075368E+02 -0.30538083875E+02 -0.92458382659E+02  0.11036483631E+03  0.41800000000E+01 0.  1.
        -11    1    1    2    0    0 -0.49579091538E+02 -0.13339533720E+02 -0.14705503742E+03  0.15576011527E+03  0.00000000000E+00 0.  1.
         11    1    1    2    0    0  0.27961375305E+02 -0.17758628839E+02 -0.19653804952E+02  0.38515963655E+02  0.00000000000E+00 0. -1.
</event>
<event>
 7    1  0.2380582E-009  0.8950657E+02  0.7561462E-02  0.1304051E+00
          2   -1    0    0  501    0  0.00000000000E+00  0.00000000000E+00  0.16616526925E+04  0.16616526925E+04  0.00000000000E+00 0. -1.
         -2   -1    0    0    0  501 -0.00000000000E+00 -0.00000000000E+00 -0.14405861099E+02  0.14405861099E+02  0.00000000000E+00 0.  1.
         25    2    1    2    0    0  0.16479572681E+02  0.50914402036E+02  0.14157628926E+04  0.14222855195E+04  0.12509067986E+03 0.  0.
          5    1    3    3  502    0 -0.10204448488E+02  0.46736006836E+02  0.18225187668E+03  0.18847175931E+03  0.41800000000E+01 0.  1.
         -5    1    3    3    0  502  0.26684021169E+02  0.41783951997E+01  0.12335110159E+04  0.12338137601E+04  0.41800000000E+01 0.  1.
        -11    1    1    2    0    0 -0.49067515397E+02 -0.79019584247E+01  0.10081999791E+03  0.11240433263E+03  0.00000000000E+00 0. -1.
         11    1    1    2    0    0  0.32587942716E+02 -0.43012443611E+02  0.13066394092E+03  0.14136870153E+03  0.00000000000E+00 0.  1.
</event>
<event>
 7    1  0.2380582E-009  0.1033848E+03  0.7561462E-02  0.1273335E+00
          4   -1    0    0  501    0  0.00000000000E+00  0.00000000000E+00  0.45190030003E+02  0.45190030003E+02  0.00000000000E+00 0. -1.
         -4   -1    0    0    0  501 -0.00000000000E+00 -0.00000000000E+00 -0.25644792440E+03  0.25644792440E+03  0.00000000000E+00 0.  1.
         25    2    1    2    0    0  0.23761391705E+02 -0.22056314657E+02 -0.16928782660E+03  0.21297422556E+03  0.12509423554E+03 0.  0.
          5    1    3    3  502    0  0.68093171062E+02 -0.41749325745E+02 -0.95477897731E+02  0.12455194700E+03  0.41800000000E+01 0.  1.
         -5    1    3    3    0  502 -0.44331779356E+02  0.19693011088E+02 -0.73809928874E+02  0.88422278567E+02  0.41800000000E+01 0.  1.
        -11    1    1    2    0    0  0.18353485946E+02 -0.13659303100E+02 -0.12606315224E+02  0.26121757044E+02  0.00000000000E+00 0.  1.
         11    1    1    2    0    0 -0.42114877652E+02  0.35715617757E+02 -0.29363752569E+02  0.62541971798E+02  0.00000000000E+00 0. -1.
</event>
<event>
 7    1  0.2380582E-009  0.2635636E+03  0.7561462E-02  0.1105021E+00
          2   -1    0    0  501    0  0.00000000000E+00  0.00000000000E+00  0.22372713172E+04  0.22372713172E+04  0.00000000000E+00 0. -1.
         -2   -1    0    0    0  501 -0.00000000000E+00 -0.00000000000E+00 -0.35646531912E+02  0.35646531912E+02  0.00000000000E+00 0.  1.
         25    2    1    2    0    0 -0.68393606973E+02  0.23584799721E+03  0.14820979915E+04  0.15075026672E+04  0.12509145401E+03 0.  0.
          5    1    3    3  502    0 -0.10979643074E+02  0.20942638644E+03  0.10454676627E+04  0.10663020538E+04  0.41800000000E+01 0.  1.
         -5    1    3    3    0  502 -0.57413963899E+02  0.26421610765E+02  0.43663032885E+03  0.44120061337E+03  0.41800000000E+01 0.  1.
        -11    1    1    2    0    0 -0.12514522878E+01 -0.11151089760E+03  0.23073318776E+03  0.25626948775E+03  0.00000000000E+00 0.  1.
         11    1    1    2    0    0  0.69645059261E+02 -0.12433709961E+03  0.48879360602E+03  0.50914569418E+03  0.00000000000E+00 0. -1.
</event>
<event>
 7    1  0.2380582E-009  0.1185928E+03  0.7561462E-02  0.1245437E+00
          1   -1    0    0  501    0  0.00000000000E+00  0.00000000000E+00  0.11273477338E+03  0.11273477338E+03  0.00000000000E+00 0. -1.
         -1   -1    0    0    0  501 -0.00000000000E+00 -0.00000000000E+00 -0.19128766261E+03  0.19128766261E+03  0.00000000000E+00 0.  1.
         25    2    1    2    0    0  0.33953573919E+02  0.69477985737E+02  0.20409660567E+02  0.14848047952E+03  0.12509941195E+03 0.  0.
          5    1    3    3  502    0  0.71492523872E+02  0.37825559793E+02 -0.21493273687E+02  0.83793717885E+02  0.41800000000E+01 0. -1.
         -5    1    3    3    0  502 -0.37538949953E+02  0.31652425944E+02  0.41902934254E+02  0.64686761635E+02  0.41800000000E+01 0. -1.
        -11    1    1    2    0    0 -0.53163915113E+02 -0.25579431270E+02 -0.18389884688E+02  0.61797225124E+02  0.00000000000E+00 0. -1.
         11    1    1    2    0    0  0.19210341194E+02 -0.43898554467E+02 -0.80572665104E+02  0.93744731345E+02  0.00000000000E+00 0.  1.
</event>
<event>
 7    1  0.2425853E-009  0.1054504E+03  0.7561462E-02  0.1269235E+00
         -2   -1    0    0    0  501 -0.00000000000E+00  0.00000000000E+00  0.16043488722E+02  0.16043488722E+02  0.00000000000E+00 0.  1.
          2   -1    0    0  501    0  0.00000000000E+00 -0.00000000000E+00 -0.13492554719E+04  0.13492554719E+04  0.00000000000E+00 0. -1.
         25    2    1    2    0    0  0.20243833718E+02  0.53844110565E+02 -0.10882685960E+04  0.10969439947E+04  0.12509432231E+03 0.  0.
          5    1    3    3  502    0  0.15521986674E+02  0.92099951756E+02 -0.89172066768E+03  0.89660836197E+03  0.41800000000E+01 0.  1.
         -5    1    3    3    0  502  0.47218470440E+01 -0.38255841191E+02 -0.19654792834E+03  0.20033563278E+03  0.41800000000E+01 0.  1.
        -11    1    1    2    0    0 -0.34518315104E+02 -0.15723174313E+02 -0.26792670163E+02  0.46438986450E+02  0.00000000000E+00 0.  1.
         11    1    1    2    0    0  0.14274481386E+02 -0.38120936252E+02 -0.21815071695E+03  0.22191597938E+03  0.00000000000E+00 0. -1.
</event>
<event>
 7    1  0.2380582E-009  0.9106618E+02  0.7561462E-02  0.1300290E+00
         -1   -1    0    0    0  501 -0.00000000000E+00  0.00000000000E+00  0.42364098375E+03  0.42364098375E+03  0.00000000000E+00 0.  1.
          1   -1    0    0  501    0  0.00000000000E+00 -0.00000000000E+00 -0.34962171992E+02  0.34962171992E+02  0.00000000000E+00 0. -1.
         25    2    1    2    0    0  0.23060984584E+02  0.77133835476E+01  0.12548438599E+03  0.17885427263E+03  0.12510481371E+03 0.  0.
          5    1    3    3  502    0 -0.41402980033E+02 -0.58781168441E+01  0.99317948813E+02  0.10784380543E+03  0.41800000000E+01 0. -1.
         -5    1    3    3    0  502  0.64463964617E+02  0.13591500392E+02  0.26166437180E+02  0.71010467198E+02  0.41800000000E+01 0. -1.
        -11    1    1    2    0    0  0.18363675595E+02  0.17690268161E+02  0.21906689312E+02  0.33616561477E+02  0.00000000000E+00 0. -1.
         11    1    1    2    0    0 -0.41424660178E+02 -0.25403651708E+02  0.24128773645E+03  0.24613232163E+03  0.00000000000E+00 0.  1.
</event>
<event>
 7    1  0.2380582E-009  0.9658917E+02  0.7561462E-02  0.1287636E+00
         -2   -1    0    0    0  501 -0.00000000000E+00  0.00000000000E+00  0.27761189378E+03  0.27761189378E+03  0.00000000000E+00 0.  1.
          2   -1    0    0  501    0  0.00000000000E+00 -0.00000000000E+00 -0.51114613164E+02  0.51114613164E+02  0.00000000000E+00 0. -1.
         25    2    1    2    0    0 -0.32380159978E+02 -0.57403335832E+00  0.18017102351E+03  0.22171695008E+03  0.12509198202E+03 0.  0.
          5    1    3    3  502    0  0.44627764419E+02 -0.12532060352E+02  0.97437327889E+02  0.10798238356E+03  0.41800000000E+01 0. -1.
         -5    1    3    3    0  502 -0.77007924397E+02  0.11958026993E+02  0.82733695619E+02  0.11373456651E+03  0.41800000000E+01 0. -1.
        -11    1    1    2    0    0  0.68184400867E+01  0.29333809323E+02  0.59212848450E+02  0.66431354917E+02  0.00000000000E+00 0.  1.
         11    1    1    2    0    0  0.25561719891E+02 -0.28759775965E+02 -0.12886591340E+02  0.40578201953E+02  0.00000000000E+00 0. -1.
</event>
<event>
 7    1  0.2380582E-009  0.1409617E+03  0.7561462E-02  0.1212041E+00
         -1   -1    0    0    0  501 -0.00000000000E+00  0.00000000000E+00  0.59122505374E+02  0.59122505374E+02  0.00000000000E+00 0.  1.
          1   -1    0    0  501    0  0.00000000000E+00 -0.00000000000E+00 -0.35217217146E+03  0.35217217146E+03  0.00000000000E+00 0. -1.
         25    2    1    2    0    0  0.91475040997E+02  0.69216236447E+01 -0.16366178875E+03  0.22549390192E+03  0.12508687664E+03 0.  0.
          5    1    3    3  502    0  0.10377238512E+03 -0.31089673269E+02 -0.87219807688E+02  0.13914037139E+03  0.41800000000E+01 0. -1.
         -5    1    3    3    0  502 -0.12297344128E+02  0.38011296914E+02 -0.76441981064E+02  0.86353530528E+02  0.41800000000E+01 0. -1.
        -11    1    1    2    0    0 -0.22021585100E+02  0.42660203422E+02 -0.46491673956E+02  0.66830523816E+02  0.00000000000E+00 0.  1.
         11    1    1    2    0    0 -0.69453455897E+02 -0.49581827067E+02 -0.82896203380E+02  0.11897025110E+03  0.00000000000E+00 0. -1.
</event>
<event>
 7    1  0.2380582E-009  0.1124332E+03  0.7561462E-02  0.1256129E+00
         -2   -1    0    0    0  501 -0.00000000000E+00  0.00000000000E+00  0.85821226623E+02  0.85821226623E+02  0.00000000000E+00 0.  1.
          2   -1    0    0  501    0  0.00000000000E+00 -0.00000000000E+00 -0.21402791001E+03  0.21402791001E+03  0.00000000000E+00 0. -1.
         25    2    1    2    0    0  0.51259967320E+02  0.26526897274E+02 -0.13493503387E+03  0.19283981983E+03  0.12509385365E+03 0.  0.
          5    1    3    3  502    0  0.55037319098E+02  0.67867900026E+02 -0.12004858730E+03  0.14854054686E+03  0.41800000000E+01 0.  1.
         -5    1    3    3    0  502 -0.37773517774E+01 -0.41341002752E+02 -0.14886446567E+02  0.44299272978E+02  0.41800000000E+01 0.  1.
        -11    1    1    2    0    0  0.18936457168E+02 -0.15780380046E+02  0.23483369679E+02  0.34045241312E+02  0.00000000000E+00 0.  1.
         11    1    1    2    0    0 -0.70196424489E+02 -0.10746517227E+02 -0.16755019200E+02  0.72964075489E+02  0.00000000000E+00 0. -1.
</event>
<event>
 7    1  0.2380582E-009  0.7740829E+02  0.7561462E-02  0.1336571E+00
          2   -1    0    0  501    0  0.00000000000E+00  0.00000000000E+00  0.20072964535E+03  0.20072964535E+03  0.00000000000E+00 0. -1.
         -2   -1    0    0    0  501 -0.00000000000E+00 -0.00000000000E+00 -0.90813718356E+02  0.90813718356E+02  0.00000000000E+00 0.  1.
         25    2    1    2    0    0 -0.67968151834E+02  0.20229980550E+02  0.97624593963E+02  0.17380207943E+03  0.12509068586E+03 0.  0.
          5    1    3    3  502    0 -0.18780760331E+02  0.11717981563E+02  0.11769954947E+03  0.11983607301E+03  0.41800000000E+01 0. -1.
         -5    1    3    3    0  502 -0.49187391503E+02  0.85119989871E+01 -0.20074955504E+02  0.53966006412E+02  0.41800000000E+01 0. -1.
        -11    1    1    2    0    0 -0.17449184471E+01 -0.11853368047E+02  0.40377668019E+02  0.42117729629E+02  0.00000000000E+00 0. -1.
         11    1    1    2    0    0  0.69713070281E+02 -0.83766125037E+01 -0.28086334989E+02  0.75623554651E+02  0.00000000000E+00 0.  1.
</event>
<event>
 7    1  0.2380582E-009  0.1147008E+03  0.7561462E-02  0.1252104E+00
         -2   -1    0    0    0  501 -0.00000000000E+00  0.00000000000E+00  0.38175394959E+02  0.38175394959E+02  0.00000000000E+00 0.  1.
          2   -1    0    0  501    0  0.00000000000E+00 -0.00000000000E+00 -0.37774801514E+03  0.37774801514E+03  0.00000000000E+00 0. -1.
         25    2    1    2    0    0  0.30904116273E+02 -0.20768686006E+02 -0.13246770667E+03  0.18595867282E+03  0.12508609822E+03 0.  0.
          5    1    3    3  502    0  0.77094922904E+02 -0.29626961188E+02 -0.75623311081E+02  0.11206132939E+03  0.41800000000E+01 0. -1.
         -5    1    3    3    0  502 -0.46190806631E+02  0.88582751814E+01 -0.56844395584E+02  0.73897343428E+02  0.41800000000E+01 0. -1.
        -11    1    1    2    0    0  0.18175727444E+01  0.53308400477E+02 -0.99856282389E+02  0.11320939124E+03  0.00000000000E+00 0.  1.
         11    1    1    2    0    0 -0.32721689018E+02 -0.32539714471E+02 -0.10724863113E+03  0.11675534604E+03  0.00000000000E+00 0. -1.
</event>
<event>
 7    1  0.2380582E-009  0.7060791E+02  0.7561462E-02  0.1358038E+00
          1   -1    0    0  501    0  0.00000000000E+00  0.00000000000E+00  0.38531500940E+02  0.38531500940E+02  0.00000000000E+00 0. -1.
         -1   -1    0    0    0  501 -0.00000000000E+00 -0.00000000000E+00 -0.33359095514E+03  0.33359095514E+03  0.00000000000E+00 0.  1.
         25    2    1    2    0    0  0.19014283430E+02 -0.16507556695E+02 -0.19848974247E+03  0.23596731653E+03  0.12509338193E+03 0.  0.
          5    1    3    3  502    0  0.47910169987E+02 -0.18652056801E+02 -0.20371826985E+02  0.55459601025E+02  0.41800000000E+01 0.  1.
         -5    1    3    3    0  502 -0.28895886557E+02  0.21445001068E+01 -0.17811791548E+03  0.18050771551E+03  0.41800000000E+01 0.  1.
        -11    1    1    2    0    0  0.93946317683E+01 -0.15147544070E+02  0.10680077271E+02  0.20779106042E+02  0.00000000000E+00 0. -1.
         11    1    1    2    0    0 -0.28408915198E+02  0.31655100764E+02 -0.10724978900E+03  0.11537603351E+03  0.00000000000E+00 0.  1.
</event>
<event>
 7    1  0.2380582E-009  0.1240730E+03  0.7561462E-02  0.1236525E+00
         -1   -1    0    0    0  501 -0.00000000000E+00  0.00000000000E+00  0.14446855776E+03  0.14446855776E+03  0.00000000000E+00 0.  1.
          1   -1    0    0  501    0  0.00000000000E+00 -0.00000000000E+00 -0.12151944605E+03  0.12151944605E+03  0.00000000000E+00 0. -1.
         25    2    1    2    0    0 -0.54318982652E+02 -0.55577836476E+02  0.10239614073E+02  0.14762071583E+03  0.12509028044E+03 0.  0.
          5    1    3    3  502    0  0.29750562966E+02 -0.53749952943E+02  0.14710104799E+02  0.63308870005E+02  0.41800000000E+01 0. -1.
         -5    1    3    3    0  502 -0.84069545618E+02 -0.18278835333E+01 -0.44704907258E+01  0.84311845822E+02  0.41800000000E+01 0. -1.
        -11    1    1    2    0    0 -0.29262883654E+01  0.43843431600E+02  0.34638992312E+02  0.55952385530E+02  0.00000000000E+00 0. -1.
         11    1    1    2    0    0  0.57245271017E+02  0.11734404876E+02 -0.21929494671E+02  0.62414902453E+02  0.00000000000E+00 0.  1.
</event>
<event>
 7    1  0.2380582E-009  0.1173148E+03  0.7561462E-02  0.1247594E+00
         -2   -1    0    0    0  501 -0.00000000000E+00  0.00000000000E+00  0.10085179572E+03  0.10085179572E+03  0.00000000000E+00 0.  1.
          2   -1    0    0  501    0  0.00000000000E+00 -0.00000000000E+00 -0.21009939796E+03  0.21009939796E+03  0.00000000000E+00 0. -1.
         25    2    1    2    0    0 -0.53611491893E+02  0.54489929469E+02 -0.11917011760E+03  0.18892438827E+03  0.12509021975E+03 0.  0.
          5    1    3    3  502    0  0.81537823857E+01 -0.35518423357E+02 -0.22366231868E+02  0.42962347386E+02  0.41800000000E+01 0.  1.
         -5    1    3    3    0  502 -0.61765274279E+02  0.90008352826E+02 -0.96803885733E+02  0.14596204088E+03  0.41800000000E+01 0.  1.
        -11    1    1    2    0    0 -0.29215719608E+01 -0.24570791731E+02  0.43306322584E+02  0.49876817910E+02  0.00000000000E+00 0.  1.
         11    1    1    2    0    0  0.56533063854E+02 -0.29919137737E+02 -0.33383807228E+02  0.72149987503E+02  0.00000000000E+00 0. -1.
</event>
<event>
 7    1  0.2380582E-009  0.1415201E+03  0.7561462E-02  0.1211298E+00
          2   -1    0    0  501    0  0.00000000000E+00  0.00000000000E+00  0.65982166429E+03  0.65982166429E+03  0.00000000000E+00 0. -1.
         -2   -1    0    0    0  501 -0.00000000000E+00 -0.00000000000E+00 -0.40424093780E+02  0.40424093780E+02  0.00000000000E+00 0.  1.
         25    2    1    2    0    0  0.95182112084E+02 -0.46100319427E+02  0.45985377519E+03  0.48815845335E+03  0.12509319372E+03 0.  0.
          5    1    3    3  502    0  0.39911956831E+02  0.31154689767E+02  0.67700023615E+02  0.84642451465E+02  0.41800000000E+01 0. -1.
         -5    1    3    3    0  502  0.55270155253E+02 -0.77255009194E+02  0.39215375157E+03  0.40351600189E+03  0.41800000000E+01 0. -1.
        -11    1    1    2    0    0 -0.79543768684E+02  0.71743603876E+02  0.13989430615E+03  0.17619526874E+03  0.00000000000E+00 0. -1.
         11    1    1    2    0    0 -0.15638343400E+02 -0.25643284450E+02  0.19649489173E+02  0.35892035975E+02  0.00000000000E+00 0.  1.
</event>
<event>
 7    1  0.2380582E-009  0.1360039E+03  0.7561462E-02  0.1218809E+00
          3   -1    0    0  501    0  0.00000000000E+00  0.00000000000E+00  0.13640717786E+02  0.13640717786E+02  0.00000000000E+00 0. -1.
         -3   -1    0    0    0  501 -0.00000000000E+00 -0.00000000000E+00 -0.18205857508E+04  0.18205857508E+04  0.00000000000E+00 0.  1.
         25    2    1    2    0    0 -0.72389463482E+02  0.75208449570E+02 -0.12386425825E+04  0.12493116043E+04  0.12508993607E+03 0.  0.
          5    1    3    3  502    0  0.71484636865E+01  0.58020305387E+02 -0.86031898916E+03  0.86231298951E+03  0.41800000000E+01 0. -1.
         -5    1    3    3    0  502 -0.79537927168E+02  0.17188144183E+02 -0.37832359336E+03  0.38699861479E+03  0.41800000000E+01 0. -1.
        -11    1    1    2    0    0  0.88957839491E+02 -0.50869644695E+02 -0.50224736530E+03  0.51259499988E+03  0.00000000000E+00 0.  1.
         11    1    1    2    0    0 -0.16568376009E+02 -0.24338804875E+02 -0.66055085197E+02  0.72319864399E+02  0.00000000000E+00 0. -1.
</event>
<event>
 7    1  0.2380582E-009  0.1498441E+03  0.7561462E-02  0.1200665E+00
         -1   -1    0    0    0  501 -0.00000000000E+00  0.00000000000E+00  0.69183087953E+03  0.69183087953E+03  0.00000000000E+00 0.  1.
          1   -1    0    0  501    0  0.00000000000E+00 -0.00000000000E+00 -0.43242850538E+02  0.43242850538E+02  0.00000000000E+00 0. -1.
         25    2    1    2    0    0  0.12574242011E+03 -0.23654503540E+01  0.24293077264E+03  0.30079903727E+03  0.12509176215E+03 0.  0.
          5    1    3    3  502    0  0.73677913045E+02  0.51131121923E+02  0.18697369537E+03  0.20741133445E+03  0.41800000000E+01 0. -1.
         -5    1    3    3    0  502  0.52064507067E+02 -0.53496572277E+02  0.55957077271E+02  0.93387702821E+02  0.41800000000E+01 0. -1.
        -11    1    1    2    0    0 -0.91879007128E+02 -0.20684436281E+02  0.36346444431E+03  0.37546770851E+03  0.00000000000E+00 0.  1.
         11    1    1    2    0    0 -0.33863412984E+02  0.23049886635E+02  0.42192812045E+02  0.58806984288E+02  0.00000000000E+00 0. -1.
</event>
<event>
 7    1  0.2380582E-009  0.1056491E+03  0.7561462E-02  0.1268846E+00
         -1   -1    0    0    0  501 -0.00000000000E+00  0.00000000000E+00  0.39635512338E+02  0.39635512338E+02  0.00000000000E+00 0.  1.
          1   -1    0    0  501    0  0.00000000000E+00 -0.00000000000E+00 -0.49910405187E+03  0.49910405187E+03  0.00000000000E+00 0. -1.
         25    2    1    2    0    0  0.64760836516E+02 -0.39485126438E+02 -0.16343295092E+03  0.21934079782E+03  0.12508802895E+03 0.  0.
          5    1    3    3  502    0  0.23471757894E+02  0.20529597744E+02  0.84793297652E+01  0.32584647235E+02  0.41800000000E+01 0.  1.
         -5    1    3    3    0  502  0.41289078622E+02 -0.60014724182E+02 -0.17191228068E+03  0.18675615059E+03  0.41800000000E+01 0.  1.
        -11    1    1    2    0    0 -0.79673244269E+02  0.19660620932E+02 -0.27464441562E+03  0.28664249667E+03  0.00000000000E+00 0. -1.
         11    1    1    2    0    0  0.14912407753E+02  0.19824505506E+02 -0.21391172998E+02  0.32756269717E+02  0.00000000000E+00 0.  1.
</event>
<event>
 7    1  0.2380582E-009  0.1050430E+03  0.7561462E-02  0.1270035E+00
          3   -1    0    0  501    0  0.00000000000E+00  0.00000000000E+00  0.21097865747E+03  0.21097865747E+03  0.00000000000E+00 0. -1.
         -3   -1    0    0    0  501 -0.00000000000E+00 -0.00000000000E+00 -0.89195616600E+02  0.89195616600E+02  0.00000000000E+00 0.  1.
         25    2    1    2    0    0  0.40281034171E+02  0.15656918564E+02 -0.11765736082E+02  0.13286674028E+03  0.12508971706E+03 0.  0.
          5    1    3    3  502    0 -0.41062137871E+02 -0.73908342288E+01  0.14289660380E+02  0.44298875730E+02  0.41800000000E+01 0.  1.
         -5    1    3    3    0  502  0.81343172042E+02  0.23047752793E+02 -0.26055396462E+02  0.88567864553E+02  0.41800000000E+01 0.  1.
        -11    1    1    2    0    0 -0.37027318339E+02  0.23734363204E+02  0.22434350811E+02  0.49372486228E+02  0.00000000000E+00 0.  1.
         11    1    1    2    0    0 -0.32537158315E+01 -0.39391281768E+02  0.11111442614E+03  0.11793504756E+03  0.00000000000E+00 0. -1.
</event>
<event>
 7    1  0.2380582E-009  0.9426199E+02  0.7561462E-02  0.1292847E+00
         -2   -1    0    0    0  501 -0.00000000000E+00  0.00000000000E+00  0.39304645092E+02  0.39304645092E+02  0.00000000000E+00 0.  1.
          2   -1    0    0  501    0  0.00000000000E+00 -0.00000000000E+00 -0.38410371430E+03  0.38410371430E+03  0.00000000000E+00 0. -1.
         25    2    1    2    0    0 -0.43405367216E+02 -0.79824193374E+01 -0.13241686988E+03  0.18742732653E+03  0.12508809048E+03 0.  0.
          5    1    3    3  502    0 -0.53927711729E+02 -0.54161030492E+02 -0.47441064815E+02  0.90054107886E+02  0.41800000000E+01 0. -1.
         -5    1    3    3    0  502  0.10522344514E+02  0.46178611155E+02 -0.84975805065E+02  0.97373218642E+02  0.41800000000E+01 0. -1.
        -11    1    1    2    0    0 -0.10264565722E+02  0.10916041214E+01  0.53495366424E+01  0.11626282781E+02  0.00000000000E+00 0.  1.
         11    1    1    2    0    0  0.53669932937E+02  0.68908152160E+01 -0.21773173597E+03  0.22435475008E+03  0.00000000000E+00 0. -1.
</event>
<event>
 7    1  0.2380582E-009  0.8624074E+02  0.7561462E-02  0.1312219E+00
         -2   -1    0    0    0  501 -0.00000000000E+00  0.00000000000E+00  0.36151936586E+03  0.36151936586E+03  0.00000000000E+00 0.  1.
          2   -1    0    0  501    0  0.00000000000E+00 -0.00000000000E+00 -0.44062561624E+02  0.44062561624E+02  0.00000000000E+00 0. -1.
         25    2    1    2    0    0 -0.43477384677E+02 -0.47474315335E+02  0.14993683809E+03  0.20560266450E+03  0.12508919473E+03 0.  0.
          5    1    3    3  502    0 -0.23798843321E+02 -0.48935064507E+01  0.15616462658E+03  0.15809868546E+03  0.41800000000E+01 0. -1.
         -5    1    3    3    0  502 -0.19678541356E+02 -0.42580808884E+02 -0.62277884893E+01  0.47503979040E+02  0.41800000000E+01 0. -1.
        -11    1    1    2    0    0  0.55505559087E+02  0.40260690134E+01  0.12969501092E+03  0.14113069184E+03  0.00000000000E+00 0. -1.
         11    1    1    2    0    0 -0.12028174410E+02  0.43448246322E+02  0.37824955219E+02  0.58848571142E+02  0.00000000000E+00 0.  1.
</event>
<event>
 7    1  0.2380582E-009  0.1221772E+03  0.7561462E-02  0.1239548E+00
          1   -1    0    0  501    0  0.00000000000E+00  0.00000000000E+00  0.14909995763E+03  0.14909995763E+03  0.00000000000E+00 0. -1.
         -1   -1    0    0    0  501 -0.00000000000E+00 -0.00000000000E+00 -0.11369396781E+03  0.11369396781E+03  0.00000000000E+00 0.  1.
         25    2    1    2    0    0  0.42641314743E+01 -0.66422201936E+02  0.51958297255E+02  0.15092237272E+03  0.12509119156E+03 0.  0.
          5    1    3    3  502    0  0.56846007600E+02 -0.68241003452E+02  0.33076155884E+02  0.94867315869E+02  0.41800000000E+01 0. -1.
         -5    1    3    3    0  502 -0.52581876125E+02  0.18188015155E+01  0.18882141370E+02  0.56055056851E+02  0.41800000000E+01 0. -1.
        -11    1    1    2    0    0 -0.40228622271E+02  0.46720681471E+02 -0.30200127733E+02  0.68652835644E+02  0.00000000000E+00 0.  1.
         11    1    1    2    0    0  0.35964490797E+02  0.19701520465E+02  0.13647820302E+02  0.43218717078E+02  0.00000000000E+00 0. -1.
</event>
<event>
 7    1  0.2380582E-009  0.9814649E+02  0.7561462E-02  0.1284243E+00
          1   -1    0    0  501    0  0.00000000000E+00  0.00000000000E+00  0.14204921789E+03  0.14204921789E+03  0.00000000000E+00 0. -1.
         -1   -1    0    0    0  501 -0.00000000000E+00 -0.00000000000E+00 -0.87562888413E+02  0.87562888413E+02  0.00000000000E+00 0.  1.
         25    2    1    2    0    0 -0.25234206733E+02 -0.17871934117E+02  0.31369889436E+02  0.13261780462E+03  0.12508893205E+03 0.  0.
          5    1    3    3  502    0  0.34659166855E+02 -0.41700539009E+02  0.39915100459E+02  0.67460213795E+02  0.41800000000E+01 0. -1.
         -5    1    3    3    0  502 -0.59893373587E+02  0.23828604892E+02 -0.85452110224E+01  0.65157590826E+02  0.41800000000E+01 0. -1.
        -11    1    1    2    0    0 -0.24935679912E+02  0.39371908890E+01 -0.17702181351E+02  0.30832723353E+02  0.00000000000E+00 0.  1.
         11    1    1    2    0    0  0.50169886645E+02  0.13934743228E+02  0.40818621394E+02  0.66161578331E+02  0.00000000000E+00 0. -1.
</event>
<event>
 7    1  0.2380582E-009  0.2340824E+03  0.7561462E-02  0.1123799E+00
          1   -1    0    0  501    0  0.00000000000E+00  0.00000000000E+00  0.74025519307E+03  0.74025519307E+03  0.00000000000E+00 0. -1.
         -1   -1    0    0    0  501 -0.00000000000E+00 -0.00000000000E+00 -0.82866382072E+02  0.82866382072E+02  0.00000000000E+00 0.  1.
         25    2    1    2    0    0  0.13051990761E+03  0.17049319835E+03  0.25113238393E+03  0.35329712000E+03  0.12509198125E+03 0.  0.
          5    1    3    3  502    0  0.68220060207E+02  0.16620190623E+03  0.21786579271E+03  0.28241817625E+03  0.41800000000E+01 0. -1.
         -5    1    3    3    0  502  0.62299847401E+02  0.42912921270E+01  0.33266591227E+02  0.70878943743E+02  0.41800000000E+01 0. -1.
        -11    1    1    2    0    0 -0.93000244160E+02 -0.16291892861E+03  0.27344898596E+03  0.33161117387E+03  0.00000000000E+00 0. -1.
         11    1    1    2    0    0 -0.37519663448E+02 -0.75742697424E+01  0.13280744111E+03  0.13821328127E+03  0.00000000000E+00 0.  1.
</event>
<event>
 7    1  0.2671186E-009  0.9340848E+02  0.7561462E-02  0.1294801E+00
          2   -1    0    0  501    0  0.00000000000E+00  0.00000000000E+00  0.99384175680E+02  0.99384175680E+02  0.00000000000E+00 0. -1.
         -2   -1    0    0    0  501 -0.00000000000E+00 -0.00000000000E+00 -0.16175312480E+03  0.16175312480E+03  0.00000000000E+00 0.  1.
         25    2    1    2    0    0 -0.11053804143E+02  0.13449400691E+02 -0.99569294551E+02  0.16083649709E+03  0.12510500155E+03 0.  0.
          5    1    3    3  502    0 -0.79972934717E+01 -0.49725197526E+02 -0.10666659058E+02  0.51650769475E+02  0.41800000000E+01 0.  1.
         -5    1    3    3    0  502 -0.30565106709E+01  0.63174598217E+02 -0.88902635492E+02  0.10918572762E+03  0.41800000000E+01 0.  1.
        -11    1    1    2    0    0  0.11294287862E+02 -0.42432070112E+02  0.51751564249E+02  0.67869477046E+02  0.00000000000E+00 0. -1.
         11    1    1    2    0    0 -0.24048371906E+00  0.28982669421E+02 -0.14551218816E+02  0.32431326341E+02  0.00000000000E+00 0.  1.
</event>
<event>
 7    1  0.2380582E-009  0.1578886E+03  0.7561462E-02  0.1191101E+00
         -1   -1    0    0    0  501 -0.00000000000E+00  0.00000000000E+00  0.80685024611E+02  0.80685024611E+02  0.00000000000E+00 0.  1.
          1   -1    0    0  501    0  0.00000000000E+00 -0.00000000000E+00 -0.40043956640E+03  0.40043956640E+03  0.00000000000E+00 0. -1.
         25    2    1    2    0    0  0.11655072262E+03 -0.24177977793E+01 -0.28173459673E+03  0.32956305695E+03  0.12509000287E+03 0.  0.
          5    1    3    3  502    0  0.37892150840E+02 -0.60282073219E+02 -0.14371670931E+03  0.16044222755E+03  0.41800000000E+01 0. -1.
         -5    1    3    3    0  502  0.78658571782E+02  0.57864275440E+02 -0.13801788743E+03  0.16912082940E+03  0.41800000000E+01 0. -1.
        -11    1    1    2    0    0 -0.12622384021E+03 -0.14674291202E+02 -0.33191199375E+02  0.13133715535E+03  0.00000000000E+00 0.  1.
         11    1    1    2    0    0  0.96731175861E+01  0.17092088981E+02 -0.48287456811E+01  0.20224378715E+02  0.00000000000E+00 0. -1.
</event>
<event>
 7    1  0.2380582E-009  0.1180295E+03  0.7561462E-02  0.1246384E+00
         -1   -1    0    0    0  501 -0.00000000000E+00  0.00000000000E+00  0.70550442021E+02  0.70550442021E+02  0.00000000000E+00 0.  1.
          1   -1    0    0  501    0  0.00000000000E+00 -0.00000000000E+00 -0.23812649461E+03  0.23812649461E+03  0.00000000000E+00 0. -1.
         25    2    1    2    0    0  0.31977730338E+01 -0.70543996628E+02 -0.84042174775E+02  0.16642459389E+03  0.12508947637E+03 0.  0.
          5    1    3    3  502    0  0.51434393860E+02 -0.54286344036E+02 -0.87565885869E+02  0.11522916640E+03  0.41800000000E+01 0. -1.
         -5    1    3    3    0  502 -0.48236620826E+02 -0.16257652593E+02  0.35237110937E+01  0.51195427495E+02  0.41800000000E+01 0. -1.
        -11    1    1    2    0    0 -0.39487590848E+02  0.12116064241E+02 -0.11992121164E+02  0.43010229175E+02  0.00000000000E+00 0.  1.
         11    1    1    2    0    0  0.36289817815E+02  0.58427932388E+02 -0.71541756650E+02  0.99242113564E+02  0.00000000000E+00 0. -1.
</event>
<event>
 7    1  0.2380582E-009  0.3137259E+03  0.7561462E-02  0.1078574E+00
          2   -1    0    0  501    0  0.00000000000E+00  0.00000000000E+00  0.14799939200E+04  0.14799939200E+04  0.00000000000E+00 0. -1.
         -2   -1    0    0    0  501 -0.00000000000E+00 -0.00000000000E+00 -0.76794478093E+02  0.76794478093E+02  0.00000000000E+00 0.  1.
         25    2    1    2    0    0  0.27067595183E+03 -0.12576429227E+03  0.97221122385E+03  0.10246581638E+04  0.12509021068E+03 0.  0.
          5    1    3    3  502    0  0.48294641247E+02 -0.76656866784E+02  0.20105118241E+03  0.22056223146E+03  0.41800000000E+01 0. -1.
         -5    1    3    3    0  502  0.22238131058E+03 -0.49107425481E+02  0.77116004144E+03  0.80409593236E+03  0.41800000000E+01 0. -1.
        -11    1    1    2    0    0 -0.15441185289E+03  0.27697085691E+02  0.25635224033E+03  0.30054387366E+03  0.00000000000E+00 0. -1.
         11    1    1    2    0    0 -0.11626409894E+03  0.98067206575E+02  0.17463597775E+03  0.23158636063E+03  0.00000000000E+00 0.  1.
</event>
<event>
 7    1  0.2380582E-009  0.8379497E+02  0.7561462E-02  0.1318614E+00
         -2   -1    0    0    0  501 -0.00000000000E+00  0.00000000000E+00  0.86395731800E+01  0.86395731800E+01  0.00000000000E+00 0.  1.
          2   -1    0    0  501    0  0.00000000000E+00 -0.00000000000E+00 -0.13164618892E+04  0.13164618892E+04  0.00000000000E+00 0. -1.
         25    2    1    2    0    0  0.22937890474E+01 -0.15062460613E+02 -0.80565346261E+03  0.81544887559E+03  0.12508887919E+03 0.  0.
          5    1    3    3  502    0  0.39610813240E+02  0.88732068258E+00 -0.87565027884E+02  0.96202444729E+02  0.41800000000E+01 0. -1.
         -5    1    3    3    0  502 -0.37317024193E+02 -0.15949781296E+02 -0.71808843473E+03  0.71924643086E+03  0.41800000000E+01 0. -1.
        -11    1    1    2    0    0 -0.19879759466E+02 -0.31461015055E+02 -0.22484151252E+03  0.22790064953E+03  0.00000000000E+00 0. -1.
         11    1    1    2    0    0  0.17585970418E+02  0.46523475668E+02 -0.27732734085E+03  0.28175193722E+03  0.00000000000E+00 0.  1.
</event>
<event>
 7    1  0.2380582E-009  0.2248894E+03  0.7561462E-02  0.1130289E+00
          2   -1    0    0  501    0  0.00000000000E+00  0.00000000000E+00  0.22970352742E+03  0.22970352742E+03  0.00000000000E+00 0. -1.
         -2   -1    0    0    0  501 -0.00000000000E+00 -0.00000000000E+00 -0.26207224081E+03  0.26207224081E+03  0.00000000000E+00 0.  1.
         25    2    1    2    0    0  0.33388464314E+02  0.20488837730E+03 -0.87014671247E+02  0.25751452115E+03  0.12509252130E+03 0.  0.
          5    1    3    3  502    0  0.58413185190E+02  0.32891848088E+02 -0.12308552723E+02  0.68285772638E+02  0.41800000000E+01 0. -1.
         -5    1    3    3    0  502 -0.25024720876E+02  0.17199652922E+03 -0.74706118523E+02  0.18922874851E+03  0.41800000000E+01 0. -1.
        -11    1    1    2    0    0 -0.20567272094E+02 -0.62670713223E+02  0.63014215775E+02  0.91221830540E+02  0.00000000000E+00 0. -1.
         11    1    1    2    0    0 -0.12821192220E+02 -0.14221766408E+03 -0.83682579218E+01  0.14303941655E+03  0.00000000000E+00 0.  1.
</event>
<event>
 7    1  0.2380582E-009  0.1139367E+03  0.7561462E-02  0.1253449E+00
         -1   -1    0    0    0  501 -0.00000000000E+00  0.00000000000E+00  0.18789072115E+03  0.18789072115E+03  0.00000000000E+00 0.  1.
          1   -1    0    0  501    0  0.00000000000E+00 -0.00000000000E+00 -0.83981890303E+02  0.83981890303E+02  0.00000000000E+00 0. -1.
         25    2    1    2    0    0 -0.34452787400E+02 -0.39719232604E+02  0.94311761281E+02  0.16524995224E+03  0.12509287111E+03 0.  0.
          5    1    3    3  502    0  0.41221546398E+02 -0.30465861535E+02  0.11669033999E+02  0.52735408986E+02  0.41800000000E+01 0. -1.
         -5    1    3    3    0  502 -0.75674333798E+02 -0.92533710693E+01  0.82642727281E+02  0.11251454326E+03  0.41800000000E+01 0. -1.
        -11    1    1    2    0    0 -0.19770588520E+02 -0.13638846091E+02 -0.12937285101E+02  0.27281269012E+02  0.00000000000E+00 0. -1.
         11    1    1    2    0    0  0.54223375919E+02  0.53358078695E+02  0.22534354667E+02  0.79341390197E+02  0.00000000000E+00 0.  1.
</event>
<event>
 7    1  0.2380582E-009  0.1814260E+03  0.7561462E-02  0.1166430E+00
         -2   -1    0    0    0  501 -0.00000000000E+00  0.00000000000E+00  0.77214099677E+02  0.77214099677E+02  0.00000000000E+00 0.  1.
          2   -1    0    0  501    0  0.00000000000E+00 -0.00000000000E+00 -0.82792731434E+03  0.82792731434E+03  0.00000000000E+00 0. -1.
         25    2    1    2    0    0  0.98735665356E+02 -0.14684523456E+03 -0.64164464328E+03  0.67725024811E+03  0.12509114994E+03 0.  0.
          5    1    3    3  502    0  0.40882719325E+02 -0.66281232606E+02 -0.48889417471E+03  0.49507533265E+03  0.41800000000E+01 0. -1.
         -5    1    3    3    0  502  0.57852946032E+02 -0.80564001954E+02 -0.15275046857E+03  0.18217491546E+03  0.41800000000E+01 0. -1.
        -11    1    1    2    0    0 -0.47223303859E+02  0.25282224239E+02 -0.73880672414E+02  0.91255602821E+02  0.00000000000E+00 0.  1.
         11    1    1    2    0    0 -0.51512361497E+02  0.12156301032E+03 -0.35187898973E+02  0.13663556308E+03  0.00000000000E+00 0. -1.
</event>
<event>
 7    1  0.2380582E-009  0.7882676E+02  0.7561462E-02  0.1332414E+00
          1   -1    0    0  501    0  0.00000000000E+00  0.00000000000E+00  0.94267493751E+02  0.94267493751E+02  0.00000000000E+00 0. -1.
         -1   -1    0    0    0  501 -0.00000000000E+00 -0.00000000000E+00 -0.14276877656E+03  0.14276877656E+03  0.00000000000E+00 0.  1.
         25    2    1    2    0    0  0.15521956773E+02  0.24929703013E+02 -0.61274243260E+02  0.14234749554E+03  0.12508339364E+03 0.  0.
          5    1    3    3  502    0  0.43205113714E+02  0.55872053866E+01 -0.88524715828E+02  0.98752197077E+02  0.41800000000E+01 0.  1.
         -5    1    3    3    0  502 -0.27683156941E+02  0.19342497626E+02  0.27250472568E+02  0.43595298460E+02  0.41800000000E+01 0.  1.
        -11    1    1    2    0    0 -0.36200649586E+02  0.11488767563E+02 -0.18668484315E+02  0.42320102991E+02  0.00000000000E+00 0.  1.
         11    1    1    2    0    0  0.20678692813E+02 -0.36418470576E+02  0.31441444765E+02  0.52368671784E+02  0.00000000000E+00 0. -1.
</event>
<event>
 7    1  0.2380582E-009  0.1067021E+03  0.7561462E-02  0.1266802E+00
         -1   -1    0    0    0  501 -0.00000000000E+00  0.00000000000E+00  0.19895035896E+02  0.19895035896E+02  0.00000000000E+00 0.  1.
          1   -1    0    0  501    0  0.00000000000E+00 -0.00000000000E+00 -0.67704795680E+03  0.67704795680E+03  0.00000000000E+00 0. -1.
         25    2    1    2    0    0 -0.14187551163E+01 -0.41184952104E+02 -0.37567209350E+03  0.39809010133E+03  0.12509194138E+03 0.  0.
          5    1    3    3  502    0 -0.40300912776E+02  0.23264796941E+02 -0.22273655274E+03  0.22758395962E+03  0.41800000000E+01 0. -1.
         -5    1    3    3    0  502  0.38882157660E+02 -0.64449749045E+02 -0.15293554076E+03  0.17050614172E+03  0.41800000000E+01 0. -1.
        -11    1    1    2    0    0 -0.39716286753E+02  0.14580462865E+02 -0.19428183013E+03  0.19883511473E+03  0.00000000000E+00 0. -1.
         11    1    1    2    0    0  0.41135041870E+02  0.26604489239E+02 -0.87198997279E+02  0.10001777664E+03  0.00000000000E+00 0.  1.
</event>
<event>
 7    1  0.2416135E-009  0.2246677E+03  0.7561462E-02  0.1130450E+00
         -1   -1    0    0    0  501 -0.00000000000E+00  0.00000000000E+00  0.46686244758E+02  0.46686244758E+02  0.00000000000E+00 0.  1.
          1   -1    0    0  501    0  0.00000000000E+00 -0.00000000000E+00 -0.11756372250E+04  0.11756372250E+04  0.00000000000E+00 0. -1.
         25    2    1    2    0    0  0.19562554880E+03  0.50542976140E+02 -0.70424671981E+03  0.74325950868E+03  0.12508919657E+03 0.  0.
          5    1    3    3  502    0  0.15464341282E+02 -0.27106392433E+02 -0.19480146355E+03  0.19732963529E+03  0.41800000000E+01 0. -1.
         -5    1    3    3    0  502  0.18016120751E+03  0.77649368573E+02 -0.50944525627E+03  0.54592987340E+03  0.41800000000E+01 0. -1.
        -11    1    1    2    0    0 -0.12286858292E+03 -0.76077746160E+02 -0.27334975871E+03  0.30919993971E+03  0.00000000000E+00 0.  1.
         11    1    1    2    0    0 -0.72756965874E+02  0.25534770020E+02 -0.15135450168E+03  0.16986402133E+03  0.00000000000E+00 0. -1.
</event>
<event>
 7    1  0.2380582E-009  0.1409152E+03  0.7561462E-02  0.1212103E+00
          4   -1    0    0  501    0  0.00000000000E+00  0.00000000000E+00  0.11935889134E+04  0.11935889134E+04  0.00000000000E+00 0. -1.
         -4   -1    0    0    0  501 -0.00000000000E+00 -0.00000000000E+00 -0.22927481276E+02  0.22927481276E+02  0.00000000000E+00 0.  1.
         25    2    1    2    0    0 -0.13374705464E+02 -0.10564239160E+03  0.85793483473E+03  0.87352210931E+03  0.12509795028E+03 0.  0.
          5    1    3    3  502    0  0.28225908450E+02 -0.94480312053E+02  0.76091255042E+03  0.76728652605E+03  0.41800000000E+01 0.  1.
         -5    1    3    3    0  502 -0.41600613915E+02 -0.11162079551E+02  0.97022284310E+02  0.10623558326E+03  0.41800000000E+01 0.  1.
        -11    1    1    2    0    0 -0.35354777164E+02  0.73283421356E+02  0.20188037584E+03  0.21766052987E+03  0.00000000000E+00 0.  1.
         11    1    1    2    0    0  0.48729482629E+02  0.32358970248E+02  0.11084622153E+03  0.12533375547E+03  0.00000000000E+00 0. -1.
</event>
<event>
 7    1  0.2380582E-009  0.1812485E+03  0.7561462E-02  0.1166600E+00
          1   -1    0    0  501    0  0.00000000000E+00  0.00000000000E+00  0.72444122037E+03  0.72444122037E+03  0.00000000000E+00 0. -1.
         -1   -1    0    0    0  501 -0.00000000000E+00 -0.00000000000E+00 -0.48632002782E+02  0.48632002782E+02  0.00000000000E+00 0.  1.
         25    2    1    2    0    0  0.12221098512E+03  0.96998081569E+02  0.35412897501E+03  0.40669181003E+03  0.12508694854E+03 0.  0.
          5    1    3    3  502    0  0.10658918188E+01  0.60335509575E+02  0.18992896504E+03  0.19932885893E+03  0.41800000000E+01 0.  1.
         -5    1    3    3    0  502  0.12114509330E+03  0.36662571994E+02  0.16420000997E+03  0.20736295110E+03  0.41800000000E+01 0.  1.
        -11    1    1    2    0    0 -0.39360266430E+02 -0.82293219433E+02  0.16538364260E+03  0.18887338028E+03  0.00000000000E+00 0. -1.
         11    1    1    2    0    0 -0.82850718692E+02 -0.14704862135E+02  0.15629659998E+03  0.17750803284E+03  0.00000000000E+00 0.  1.
</event>
<event>
 7    1  0.2380582E-009  0.1036699E+03  0.7561462E-02  0.1272763E+00
         -2   -1    0    0    0  501 -0.00000000000E+00  0.00000000000E+00  0.62986801933E+02  0.62986801933E+02  0.00000000000E+00 0. -1.
          2   -1    0    0  501    0  0.00000000000E+00 -0.00000000000E+00 -0.24320428831E+03  0.24320428831E+03  0.00000000000E+00 0.  1.
         25    2    1    2    0    0  0.27574420900E+02  0.47433212027E+02 -0.77184079397E+02  0.15689403951E+03  0.12509236280E+03 0.  0.
          5    1    3    3  502    0  0.73659160594E+02  0.29226031985E+02 -0.21455256943E+02  0.82204825500E+02  0.41800000000E+01 0. -1.
         -5    1    3    3    0  502 -0.46084739694E+02  0.18207180041E+02 -0.55728822454E+02  0.74689214013E+02  0.41800000000E+01 0. -1.
        -11    1    1    2    0    0 -0.43085653568E+02 -0.45438849628E+02 -0.21392494019E+02  0.66171756809E+02  0.00000000000E+00 0. -1.
         11    1    1    2    0    0  0.15511232668E+02 -0.19943623990E+01 -0.81640912956E+02  0.83125293916E+02  0.00000000000E+00 0.  1.
</event>
<event>
 7    1  0.2380582E-009  0.1057448E+03  0.7561462E-02  0.1268659E+00
          1   -1    0    0  501    0  0.00000000000E+00  0.00000000000E+00  0.92591604349E+03  0.92591604349E+03  0.00000000000E+00 0. -1.
         -1   -1    0    0    0  501 -0.00000000000E+00 -0.00000000000E+00 -0.21466122580E+02  0.21466122580E+02  0.00000000000E+00 0.  1.
         25    2    1    2    0    0 -0.67561910445E+02 -0.66079259622E+02  0.51963636544E+03  0.54277123541E+03  0.12509029298E+03 0.  0.
          5    1    3    3  502    0 -0.24354240168E+02 -0.16674767438E+02  0.43287913987E+03  0.43390436621E+03  0.41800000000E+01 0.  1.
         -5    1    3    3    0  502 -0.43207670277E+02 -0.49404492184E+02  0.86757225573E+02  0.10886686919E+03  0.41800000000E+01 0.  1.
        -11    1    1    2    0    0  0.67268161750E+02  0.20485008313E+02  0.15340799911E+03  0.16875620090E+03  0.00000000000E+00 0.  1.
         11    1    1    2    0    0  0.29374869494E+00  0.45594251309E+02  0.23140555635E+03  0.23585472976E+03  0.00000000000E+00 0. -1.
</event>
<event>
 7    1  0.2380582E-009  0.1989625E+03  0.7561462E-02  0.1150617E+00
         -2   -1    0    0    0  501 -0.00000000000E+00  0.00000000000E+00  0.44389750568E+02  0.44389750568E+02  0.00000000000E+00 0.  1.
          2   -1    0    0  501    0  0.00000000000E+00 -0.00000000000E+00 -0.16984652343E+04  0.16984652343E+04  0.00000000000E+00 0. -1.
         25    2    1    2    0    0  0.14797583986E+03 -0.91358230716E+02 -0.14256911444E+04  0.14416954930E+04  0.12508988667E+03 0.  0.
          5    1    3    3  502    0  0.13037475293E+03 -0.12121103700E+03 -0.11286090486E+04  0.11425697129E+04  0.41800000000E+01 0. -1.
         -5    1    3    3    0  502  0.17601086931E+02  0.29852806285E+02 -0.29708209579E+03  0.29912578014E+03  0.41800000000E+01 0. -1.
        -11    1    1    2    0    0 -0.12133988516E+03  0.99695570344E+02 -0.14694658754E+03  0.21507178817E+03  0.00000000000E+00 0.  1.
         11    1    1    2    0    0 -0.26635954695E+02 -0.83373396277E+01 -0.81437751747E+02  0.86087703676E+02  0.00000000000E+00 0. -1.
</event>
<event>
 7    1  0.2789883E-009  0.1182225E+03  0.7561462E-02  0.1246059E+00
         -1   -1    0    0    0  501 -0.00000000000E+00  0.00000000000E+00  0.29107136096E+02  0.29107136096E+02  0.00000000000E+00 0.  1.
          1   -1    0    0  501    0  0.00000000000E+00 -0.00000000000E+00 -0.61153281833E+03  0.61153281833E+03  0.00000000000E+00 0. -1.
         25    2    1    2    0    0 -0.75237958112E+02 -0.67017995953E+01 -0.27919515782E+03  0.31512464802E+03  0.12509173906E+03 0.  0.
          5    1    3    3  502    0  0.27388768524E+02 -0.20628909663E+02 -0.12228631708E+03  0.12707128826E+03  0.41800000000E+01 0.  1.
         -5    1    3    3    0  502 -0.10262672664E+03  0.13927110068E+02 -0.15690884074E+03  0.18805335976E+03  0.41800000000E+01 0.  1.
        -11    1    1    2    0    0 -0.83700970013E+01  0.11823346734E+02 -0.43597959984E+01  0.15128049211E+02  0.00000000000E+00 0.  1.
         11    1    1    2    0    0  0.83608055113E+02 -0.51215471383E+01 -0.29887072842E+03  0.31038725720E+03  0.00000000000E+00 0. -1.
</event>
<event>
 7    1  0.2380582E-009  0.6840178E+02  0.7561462E-02  0.1365614E+00
         -2   -1    0    0    0  501 -0.00000000000E+00  0.00000000000E+00  0.83042202530E+02  0.83042202530E+02  0.00000000000E+00 0.  1.
          2   -1    0    0  501    0  0.00000000000E+00 -0.00000000000E+00 -0.12733792856E+03  0.12733792856E+03  0.00000000000E+00 0. -1.
         25    2    1    2    0    0  0.11965797905E+02 -0.38886579195E+02 -0.63457292453E+02  0.14604794849E+03  0.12509128240E+03 0.  0.
          5    1    3    3  502    0  0.32054714290E+02 -0.18544307478E+00 -0.89450159789E+02  0.95112263056E+02  0.41800000000E+01 0.  1.
         -5    1    3    3    0  502 -0.20088916384E+02 -0.38701136120E+02  0.25992867337E+02  0.50935685436E+02  0.41800000000E+01 0.  1.
        -11    1    1    2    0    0  0.16908381838E+02  0.19909615385E+02  0.33513282779E+01  0.26334721612E+02  0.00000000000E+00 0.  1.
         11    1    1    2    0    0 -0.28874179743E+02  0.18976963810E+02  0.15810238143E+02  0.37997460987E+02  0.00000000000E+00 0. -1.
</event>
<event>
 7    1  0.2380582E-009  0.8600487E+02  0.7561462E-02  0.1312825E+00
          1   -1    0    0  501    0  0.00000000000E+00  0.00000000000E+00  0.18532693042E+03  0.18532693042E+03  0.00000000000E+00 0. -1.
         -1   -1    0    0    0  501 -0.00000000000E+00 -0.00000000000E+00 -0.77022493744E+02  0.77022493744E+02  0.00000000000E+00 0.  1.
         25    2    1    2    0    0  0.34820015979E+02 -0.33142650373E+02  0.49958827229E+02  0.14301741937E+03  0.12508888456E+03 0.  0.
          5    1    3    3  502    0 -0.12682045034E+02 -0.52680020022E+01  0.79220229897E+02  0.80510268515E+02  0.41800000000E+01 0. -1.
         -5    1    3    3    0  502  0.47502061013E+02 -0.27874648370E+02 -0.29261402668E+02  0.62507150858E+02  0.41800000000E+01 0. -1.
        -11    1    1    2    0    0 -0.36316113357E+02  0.62896744933E+02  0.31266142958E+02  0.79072323274E+02  0.00000000000E+00 0.  1.
         11    1    1    2    0    0  0.14960973782E+01 -0.29754094561E+02  0.27079466488E+02  0.40259681516E+02  0.00000000000E+00 0. -1.
</event>
<event>
 7    1  0.2380582E-009  0.1814252E+03  0.7561462E-02  0.1166431E+00
         -1   -1    0    0    0  501 -0.00000000000E+00  0.00000000000E+00  0.10052044303E+03  0.10052044303E+03  0.00000000000E+00 0.  1.
          1   -1    0    0  501    0  0.00000000000E+00 -0.00000000000E+00 -0.43340183120E+03  0.43340183120E+03  0.00000000000E+00 0. -1.
         25    2    1    2    0    0  0.15708889531E+03 -0.19096228612E+02 -0.27718303832E+03  0.34281095583E+03  0.12508927903E+03 0.  0.
          5    1    3    3  502    0  0.21459158503E+02  0.40722735107E+02 -0.31815706727E+02  0.56111925941E+02  0.41800000000E+01 0. -1.
         -5    1    3    3    0  502  0.13562973680E+03 -0.59818963719E+02 -0.24536733159E+03  0.28669902989E+03  0.41800000000E+01 0. -1.
        -11    1    1    2    0    0 -0.12163657637E+03  0.38927666185E+02 -0.72834535967E+02  0.14702275176E+03  0.00000000000E+00 0. -1.
         11    1    1    2    0    0 -0.35452318941E+02 -0.19831437572E+02  0.17136186114E+02  0.44088566647E+02  0.00000000000E+00 0.  1.
</event>
<event>
 7    1  0.2380582E-009  0.8257508E+02  0.7561462E-02  0.1321899E+00
          2   -1    0    0  501    0  0.00000000000E+00  0.00000000000E+00  0.38187458333E+03  0.38187458333E+03  0.00000000000E+00 0.  1.
         -2   -1    0    0    0  501 -0.00000000000E+00 -0.00000000000E+00 -0.43992117228E+02  0.43992117228E+02  0.00000000000E+00 0. -1.
         25    2    1    2    0    0  0.35988289834E+02  0.46031501936E+02  0.21208002035E+03  0.25306511797E+03  0.12509981107E+03 0.  0.
          5    1    3    3  502    0  0.28400431771E+01 -0.16958903259E+01 -0.16415505820E+02  0.17259290848E+02  0.41800000000E+01 0. -1.
         -5    1    3    3    0  502  0.33148246657E+02  0.47727392262E+02  0.22849552617E+03  0.23580582713E+03  0.41800000000E+01 0. -1.
        -11    1    1    2    0    0 -0.17868721371E+02 -0.69585371915E+02  0.12365075508E+03  0.14300672858E+03  0.00000000000E+00 0.  1.
         11    1    1    2    0    0 -0.18119568464E+02  0.23553869979E+02  0.21516906771E+01  0.29794854003E+02  0.00000000000E+00 0. -1.
</event>
<event>
 7    1  0.2380582E-009  0.1045307E+03  0.7561462E-02  0.1271047E+00
          2   -1    0    0  501    0  0.00000000000E+00  0.00000000000E+00  0.56583340977E+02  0.56583340977E+02  0.00000000000E+00 0. -1.
         -2   -1    0    0    0  501 -0.00000000000E+00 -0.00000000000E+00 -0.29652658635E+03  0.29652658635E+03  0.00000000000E+00 0.  1.
         25    2    1    2    0    0  0.10346133131E+02  0.70551400389E+02 -0.10563787516E+03  0.17858082857E+03  0.12508880484E+03 0.  0.
          5    1    3    3  502    0 -0.50774471391E+02  0.49864338370E+02 -0.25733411435E+02  0.75790369112E+02  0.41800000000E+01 0. -1.
         -5    1    3    3    0  502  0.61120604522E+02  0.20687062020E+02 -0.79904463723E+02  0.10279045946E+03  0.41800000000E+01 0. -1.
        -11    1    1    2    0    0 -0.12642111995E+02 -0.30794201559E+02 -0.13032279511E+03  0.13450701383E+03  0.00000000000E+00 0.  1.
         11    1    1    2    0    0  0.22959788642E+01 -0.39757198830E+02 -0.39825751114E+01  0.40022084931E+02  0.00000000000E+00 0. -1.
</event>
<event>
 7    1  0.2380582E-009  0.1068418E+03  0.7561462E-02  0.1266533E+00
         -1   -1    0    0    0  501 -0.00000000000E+00  0.00000000000E+00  0.45972141092E+03  0.45972141092E+03  0.00000000000E+00 0.  1.
          1   -1    0    0  501    0  0.00000000000E+00 -0.00000000000E+00 -0.50872729049E+02  0.50872729049E+02  0.00000000000E+00 0. -1.
         25    2    1    2    0    0  0.63537223457E+02 -0.85395117313E+02  0.25478137220E+03  0.30313136003E+03  0.12508304836E+03 0.  0.
          5    1    3    3  502    0  0.55409307901E+02 -0.75868783443E+02  0.26825906694E+03  0.28426512818E+03  0.41800000000E+01 0.  1.
         -5    1    3    3    0  502  0.81279155561E+01 -0.95263338695E+01 -0.13477694746E+02  0.18866231843E+02  0.41800000000E+01 0.  1.
        -11    1    1    2    0    0 -0.47944772169E+02  0.64041670189E+02  0.16130151683E+03  0.18005059298E+03  0.00000000000E+00 0.  1.
         11    1    1    2    0    0 -0.15592451287E+02  0.21353447124E+02 -0.72342071557E+01  0.27412186968E+02  0.00000000000E+00 0. -1.
</event>
<event>
 7    1  0.2380582E-009  0.1491492E+03  0.7561462E-02  0.1201522E+00
         -1   -1    0    0    0  501 -0.00000000000E+00  0.00000000000E+00  0.55473646009E+02  0.55473646009E+02  0.00000000000E+00 0.  1.
          1   -1    0    0  501    0  0.00000000000E+00 -0.00000000000E+00 -0.68449407214E+03  0.68449407214E+03  0.00000000000E+00 0. -1.
         25    2    1    2    0    0  0.82963418085E+02 -0.88004015552E+02 -0.12485057374E+03  0.21415539574E+03  0.12508889745E+03 0.  0.
          5    1    3    3  502    0  0.41436922609E+02 -0.10760195567E+03 -0.12206030020E+03  0.16796246219E+03  0.41800000000E+01 0.  1.
         -5    1    3    3    0  502  0.41526495476E+02  0.19597940120E+02 -0.27902735444E+01  0.46192933550E+02  0.41800000000E+01 0.  1.
        -11    1    1    2    0    0 -0.28356123954E+02  0.75694825748E+02 -0.18672667933E+03  0.20347144562E+03  0.00000000000E+00 0.  1.
         11    1    1    2    0    0 -0.54607294132E+02  0.12309189804E+02 -0.31744317307E+03  0.32234087679E+03  0.00000000000E+00 0. -1.
</event>
<event>
 7    1  0.2380582E-009  0.9111317E+02  0.7561462E-02  0.1300178E+00
          2   -1    0    0  501    0  0.00000000000E+00  0.00000000000E+00  0.24863544648E+03  0.24863544648E+03  0.00000000000E+00 0. -1.
         -2   -1    0    0    0  501 -0.00000000000E+00 -0.00000000000E+00 -0.62981391741E+02  0.62981391741E+02  0.00000000000E+00 0.  1.
         25    2    1    2    0    0  0.22924674711E+02  0.50454075193E+02  0.14076606063E+03  0.19630102502E+03  0.12509138333E+03 0.  0.
          5    1    3    3  502    0  0.49746733476E+02  0.74293090247E+02  0.13138228696E+03  0.15897477309E+03  0.41800000000E+01 0. -1.
         -5    1    3    3    0  502 -0.26822058766E+02 -0.23839015054E+02  0.93837736649E+01  0.37326251933E+02  0.41800000000E+01 0. -1.
        -11    1    1    2    0    0 -0.20086714085E+02 -0.31052474391E+02  0.72536372901E+02  0.81420253267E+02  0.00000000000E+00 0. -1.
         11    1    1    2    0    0 -0.28379606252E+01 -0.19401600802E+02 -0.27648378785E+02  0.33895559940E+02  0.00000000000E+00 0.  1.
</event>
<event>
 7    1  0.2380582E-009  0.1990553E+03  0.7561462E-02  0.1150539E+00
         -2   -1    0    0    0  501 -0.00000000000E+00  0.00000000000E+00  0.82070104799E+02  0.82070104799E+02  0.00000000000E+00 0. -1.
          2   -1    0    0  501    0  0.00000000000E+00 -0.00000000000E+00 -0.59671616555E+03  0.59671616555E+03  0.00000000000E+00 0.  1.
         25    2    1    2    0    0  0.14788070295E+03  0.10378944951E+03 -0.36774947156E+03  0.42840144388E+03  0.12508865319E+03 0.  0.
          5    1    3    3  502    0  0.12619422918E+03  0.12091381868E+03 -0.35868622807E+03  0.39902182601E+03  0.41800000000E+01 0.  1.
         -5    1    3    3    0  502  0.21686473766E+02 -0.17124369169E+02 -0.90632434871E+01  0.29379617872E+02  0.41800000000E+01 0.  1.
        -11    1    1    2    0    0 -0.29717906315E+02  0.99434035846E+01 -0.52534764994E+02  0.61171290354E+02  0.00000000000E+00 0.  1.
         11    1    1    2    0    0 -0.11816279664E+03 -0.11373285309E+03 -0.94361824201E+02  0.18921353611E+03  0.00000000000E+00 0. -1.
</event>
<event>
 7    1  0.2380582E-009  0.1052222E+03  0.7561462E-02  0.1269683E+00
         -1   -1    0    0    0  501 -0.00000000000E+00  0.00000000000E+00  0.51059389445E+02  0.51059389445E+02  0.00000000000E+00 0.  1.
          1   -1    0    0  501    0  0.00000000000E+00 -0.00000000000E+00 -0.23910826041E+03  0.23910826041E+03  0.00000000000E+00 0. -1.
         25    2    1    2    0    0  0.57210452224E+01  0.21914449641E+02 -0.10678982280E+03  0.16602134115E+03  0.12508415568E+03 0.  0.
          5    1    3    3  502    0  0.43075155308E+02  0.57068267690E+02 -0.82071018258E+02  0.10892832790E+03  0.41800000000E+01 0. -1.
         -5    1    3    3    0  502 -0.37354110085E+02 -0.35153818049E+02 -0.24718804544E+02  0.57093013249E+02  0.41800000000E+01 0. -1.
        -11    1    1    2    0    0  0.37786280557E+02  0.17581313854E+01 -0.13393300185E+02  0.40128225903E+02  0.00000000000E+00 0.  1.
         11    1    1    2    0    0 -0.43507325779E+02 -0.23672581026E+02 -0.67865747977E+02  0.84018082800E+02  0.00000000000E+00 0. -1.
</event>
<event>
 7    1  0.2380582E-009  0.1036791E+03  0.7561462E-02  0.1272744E+00
         -1   -1    0    0    0  501 -0.00000000000E+00  0.00000000000E+00  0.33226071505E+02  0.33226071505E+02  0.00000000000E+00 0.  1.
          1   -1    0    0  501    0  0.00000000000E+00 -0.00000000000E+00 -0.44875434339E+03  0.44875434339E+03  0.00000000000E+00 0. -1.
         25    2    1    2    0    0  0.48121153379E+02  0.74738481320E+01 -0.23522410276E+03  0.27083106291E+03  0.12509029664E+03 0.  0.
          5    1    3    3  502    0  0.44978907458E+02 -0.54509463412E+02 -0.10676440049E+03  0.12810344776E+03  0.41800000000E+01 0.  1.
         -5    1    3    3    0  502  0.31422459216E+01  0.61983311544E+02 -0.12845970227E+03  0.14272761515E+03  0.41800000000E+01 0.  1.
        -11    1    1    2    0    0 -0.61049846378E+02 -0.58325796094E+01 -0.18678432045E+03  0.19659472296E+03  0.00000000000E+00 0. -1.
         11    1    1    2    0    0  0.12928692999E+02 -0.16412685226E+01  0.64801513195E+01  0.14554629028E+02  0.00000000000E+00 0.  1.
</event>
<event>
 7    1  0.2380582E-009  0.1260186E+03  0.7561462E-02  0.1233486E+00
          2   -1    0    0  501    0  0.00000000000E+00  0.00000000000E+00  0.10345658196E+02  0.10345658196E+02  0.00000000000E+00 0. -1.
         -2   -1    0    0    0  501 -0.00000000000E+00 -0.00000000000E+00 -0.18024268644E+04  0.18024268644E+04  0.00000000000E+00 0.  1.
         25    2    1    2    0    0  0.25745312404E+02  0.64599652133E+02 -0.12771495715E+04  0.12851440656E+04  0.12509318632E+03 0.  0.
          5    1    3    3  502    0 -0.32028818959E+02 -0.20082730065E+02 -0.46203177193E+03  0.46359464186E+03  0.41800000000E+01 0.  1.
         -5    1    3    3    0  502  0.57774131363E+02  0.84682382198E+02 -0.81511779953E+03  0.82154942372E+03  0.41800000000E+01 0.  1.
        -11    1    1    2    0    0  0.22811658717E+02 -0.58095290848E+02 -0.22108687828E+03  0.22972775701E+03  0.00000000000E+00 0.  1.
         11    1    1    2    0    0 -0.48556971122E+02 -0.65043612854E+01 -0.29384475645E+03  0.29790069999E+03  0.00000000000E+00 0. -1.
</event>
<event>
 7    1  0.2380582E-009  0.1749403E+03  0.7561462E-02  0.1172792E+00
          1   -1    0    0  501    0  0.00000000000E+00  0.00000000000E+00  0.12363574235E+03  0.12363574235E+03  0.00000000000E+00 0. -1.
         -1   -1    0    0    0  501 -0.00000000000E+00 -0.00000000000E+00 -0.26697990576E+03  0.26697990576E+03  0.00000000000E+00 0.  1.
         25    2    1    2    0    0 -0.14413165748E+03 -0.75729951856E+01 -0.59960773043E+02  0.20018551755E+03  0.12509061591E+03 0.  0.
          5    1    3    3  502    0 -0.34326891564E+02  0.49991921291E+02 -0.44159648348E+02  0.75133711615E+02  0.41800000000E+01 0.  1.
         -5    1    3    3    0  502 -0.10980476591E+03 -0.57564916476E+02 -0.15801124695E+02  0.12505180594E+03  0.41800000000E+01 0.  1.
        -11    1    1    2    0    0  0.15448597887E+03  0.78651932603E+01 -0.89188082154E+02  0.17855613384E+03  0.00000000000E+00 0.  1.
         11    1    1    2    0    0 -0.10354321395E+02 -0.29219807475E+00  0.58046917915E+01  0.11873996718E+02  0.00000000000E+00 0. -1.
</event>
<event>
 7    1  0.2380582E-009  0.3030467E+03  0.7561462E-02  0.1083727E+00
          2   -1    0    0  501    0  0.00000000000E+00  0.00000000000E+00  0.71354258258E+03  0.71354258258E+03  0.00000000000E+00 0. -1.
         -2   -1    0    0    0  501 -0.00000000000E+00 -0.00000000000E+00 -0.24206879670E+03  0.24206879670E+03  0.00000000000E+00 0.  1.
         25    2    1    2    0    0  0.19773356425E+03  0.20236860271E+03 -0.88308215839E+02  0.32170995481E+03  0.12508932905E+03 0.  0.
          5    1    3    3  502    0  0.30322462389E+02  0.11786608540E+03 -0.35172791942E+02  0.12675355421E+03  0.41800000000E+01 0. -1.
         -5    1    3    3    0  502  0.16741110186E+03  0.84502517311E+02 -0.53135423898E+02  0.19495640059E+03  0.41800000000E+01 0. -1.
        -11    1    1    2    0    0 -0.16143041941E+02 -0.70492551682E+02  0.15585284285E+03  0.17181357999E+03  0.00000000000E+00 0. -1.
         11    1    1    2    0    0 -0.18159052231E+03 -0.13187605103E+03  0.40392915888E+03  0.46208784448E+03  0.00000000000E+00 0.  1.
</event>
<event>
 7    1  0.2380582E-009  0.1128328E+03  0.7561462E-02  0.1255412E+00
         -1   -1    0    0    0  501 -0.00000000000E+00  0.00000000000E+00  0.24193487482E+03  0.24193487482E+03  0.00000000000E+00 0.  1.
          1   -1    0    0  501    0  0.00000000000E+00 -0.00000000000E+00 -0.88416301101E+02  0.88416301101E+02  0.00000000000E+00 0. -1.
         25    2    1    2    0    0  0.45479209319E+02  0.48813786924E+02  0.33892014020E+01  0.14181389998E+03  0.12509416960E+03 0.  0.
          5    1    3    3  502    0  0.52143984422E+02 -0.98473800085E+01  0.44804493678E+02  0.69576440396E+02  0.41800000000E+01 0. -1.
         -5    1    3    3    0  502 -0.66647751031E+01  0.58661166933E+02 -0.41415292276E+02  0.72237459586E+02  0.41800000000E+01 0. -1.
        -11    1    1    2    0    0 -0.35851562001E+02 -0.76203962839E+02  0.10136865170E+03  0.13178763977E+03  0.00000000000E+00 0. -1.
         11    1    1    2    0    0 -0.96276473179E+01  0.27390175915E+02  0.48760720624E+02  0.56749636169E+02  0.00000000000E+00 0.  1.
</event>
<event>
 7    1  0.2380582E-009  0.1076978E+03  0.7561462E-02  0.1264894E+00
          2   -1    0    0  501    0  0.00000000000E+00  0.00000000000E+00  0.16914901631E+02  0.16914901631E+02  0.00000000000E+00 0. -1.
         -2   -1    0    0    0  501 -0.00000000000E+00 -0.00000000000E+00 -0.95153792905E+03  0.95153792905E+03  0.00000000000E+00 0.  1.
         25    2    1    2    0    0 -0.50298979548E+02  0.30745680515E+01 -0.67700312118E+03  0.69030445457E+03  0.12509026180E+03 0.  0.
          5    1    3    3  502    0 -0.52320661695E+01 -0.46899031819E+02 -0.11655101774E+03  0.12581138993E+03  0.41800000000E+01 0. -1.
         -5    1    3    3    0  502 -0.45066913379E+02  0.49973599871E+02 -0.56045210345E+03  0.56449306464E+03  0.41800000000E+01 0. -1.
        -11    1    1    2    0    0  0.25066250809E+02  0.42017237703E+02 -0.16486899818E+03  0.17197543939E+03  0.00000000000E+00 0.  1.
         11    1    1    2    0    0  0.25232728739E+02 -0.45091805754E+02 -0.92750908059E+02  0.10617293672E+03  0.00000000000E+00 0. -1.
</event>
<event>
 7    1  0.2380582E-009  0.2145171E+03  0.7561462E-02  0.1138038E+00
         -2   -1    0    0    0  501 -0.00000000000E+00  0.00000000000E+00  0.77189320854E+02  0.77189320854E+02  0.00000000000E+00 0.  1.
          2   -1    0    0  501    0  0.00000000000E+00 -0.00000000000E+00 -0.64787469680E+03  0.64787469680E+03  0.00000000000E+00 0. -1.
         25    2    1    2    0    0 -0.18051730812E+03  0.74866068393E+02 -0.29609355298E+03  0.37617829468E+03  0.12508913041E+03 0.  0.
          5    1    3    3  502    0 -0.20272089159E+02  0.66746439743E+02 -0.11121209449E+03  0.13134552592E+03  0.41800000000E+01 0.  1.
         -5    1    3    3    0  502 -0.16024521896E+03  0.81196286499E+01 -0.18488145849E+03  0.24483276877E+03  0.41800000000E+01 0.  1.
        -11    1    1    2    0    0  0.16035135557E+03 -0.77868811065E+02 -0.27587658799E+03  0.32845699988E+03  0.00000000000E+00 0. -1.
         11    1    1    2    0    0  0.20165952548E+02  0.30027426719E+01  0.12847650304E+01  0.20428723085E+02  0.00000000000E+00 0.  1.
</event>
<event>
 7    1  0.2380582E-009  0.9072053E+02  0.7561462E-02  0.1301116E+00
         -1   -1    0    0    0  501 -0.00000000000E+00  0.00000000000E+00  0.10493053199E+03  0.10493053199E+03  0.00000000000E+00 0.  1.
          1   -1    0    0  501    0  0.00000000000E+00 -0.00000000000E+00 -0.13821811142E+03  0.13821811142E+03  0.00000000000E+00 0. -1.
         25    2    1    2    0    0  0.93250199807E+01 -0.44062850374E+01 -0.70840986495E+02  0.14413209592E+03  0.12509693986E+03 0.  0.
          5    1    3    3  502    0  0.56541349812E+02 -0.20777098062E+02 -0.72002303431E+02  0.93970293933E+02  0.41800000000E+01 0.  1.
         -5    1    3    3    0  502 -0.47216329832E+02  0.16370813024E+02  0.11613169368E+01  0.50161801990E+02  0.41800000000E+01 0.  1.
        -11    1    1    2    0    0 -0.39776879340E+02 -0.18585412870E+01  0.51368880092E+02  0.64995508672E+02  0.00000000000E+00 0.  1.
         11    1    1    2    0    0  0.30451859359E+02  0.62648263243E+01 -0.13815473028E+02  0.34021038818E+02  0.00000000000E+00 0. -1.
</event>
<event>
 7    1  0.2380582E-009  0.1510837E+03  0.7561462E-02  0.1199148E+00
         -1   -1    0    0    0  501 -0.00000000000E+00  0.00000000000E+00  0.77079882119E+02  0.77079882119E+02  0.00000000000E+00 0.  1.
          1   -1    0    0  501    0  0.00000000000E+00 -0.00000000000E+00 -0.34473797862E+03  0.34473797862E+03  0.00000000000E+00 0. -1.
         25    2    1    2    0    0 -0.96502149548E+02 -0.52854761944E+02 -0.20946070629E+03  0.26763322223E+03  0.12508982147E+03 0.  0.
          5    1    3    3  502    0 -0.20016451166E+00  0.33860799543E+02 -0.65764673628E+02  0.74088180629E+02  0.41800000000E+01 0. -1.
         -5    1    3    3    0  502 -0.96301985036E+02 -0.86715561487E+02 -0.14369603266E+03  0.19354504160E+03  0.41800000000E+01 0. -1.
        -11    1    1    2    0    0  0.11218622282E+03  0.45377477401E+02 -0.36526516468E+02  0.12640826892E+03  0.00000000000E+00 0.  1.
         11    1    1    2    0    0 -0.15684073275E+02  0.74772845425E+01 -0.21670873747E+02  0.27776369590E+02  0.00000000000E+00 0. -1.
</event>
<event>
 7    1  0.2380582E-009  0.9582034E+02  0.7561462E-02  0.1289339E+00
          2   -1    0    0  501    0  0.00000000000E+00  0.00000000000E+00  0.71263778976E+03  0.71263778976E+03  0.00000000000E+00 0. -1.
         -2   -1    0    0    0  501 -0.00000000000E+00 -0.00000000000E+00 -0.19934776232E+02  0.19934776232E+02  0.00000000000E+00 0.  1.
         25    2    1    2    0    0 -0.39621174147E+02 -0.31570321581E+02  0.40503081188E+03  0.42692433099E+03  0.12509157917E+03 0.  0.
          5    1    3    3  502    0 -0.66439463569E+02 -0.30885925472E+02  0.38798885509E+03  0.39486829043E+03  0.41800000000E+01 0.  1.
         -5    1    3    3    0  502  0.26818289422E+02 -0.68439610930E+00  0.17041956787E+02  0.32056040565E+02  0.41800000000E+01 0.  1.
        -11    1    1    2    0    0  0.58506936215E+02  0.52966728173E+01  0.10667234447E+03  0.12177892019E+03  0.00000000000E+00 0.  1.
         11    1    1    2    0    0 -0.18885762068E+02  0.26273648764E+02  0.18099985719E+03  0.18386931481E+03  0.00000000000E+00 0. -1.
</event>
<event>
 7    1  0.2380582E-009  0.1466918E+03  0.7561462E-02  0.1204598E+00
         -2   -1    0    0    0  501 -0.00000000000E+00  0.00000000000E+00  0.73908597237E+02  0.73908597237E+02  0.00000000000E+00 0.  1.
          2   -1    0    0  501    0  0.00000000000E+00 -0.00000000000E+00 -0.34747896512E+03  0.34747896512E+03  0.00000000000E+00 0. -1.
         25    2    1    2    0    0  0.11426541659E+03 -0.34412045122E+02 -0.14023012542E+03  0.22260043404E+03  0.12508273615E+03 0.  0.
          5    1    3    3  502    0 -0.21078537778E+02  0.16540206369E+02 -0.31849689217E+02  0.41830112178E+02  0.41800000000E+01 0. -1.
         -5    1    3    3    0  502  0.13534395437E+03 -0.50952251491E+02 -0.10838043620E+03  0.18077032186E+03  0.41800000000E+01 0. -1.
        -11    1    1    2    0    0 -0.67107103723E+02  0.32058819244E+02 -0.21544564501E+02  0.77429319518E+02  0.00000000000E+00 0.  1.
         11    1    1    2    0    0 -0.47158312867E+02  0.23532258778E+01 -0.11179567797E+03  0.12135780880E+03  0.00000000000E+00 0. -1.
</event>
<event>
 7    1  0.2380582E-009  0.1979654E+03  0.7561462E-02  0.1151467E+00
         -2   -1    0    0    0  501 -0.00000000000E+00  0.00000000000E+00  0.21319328855E+02  0.21319328855E+02  0.00000000000E+00 0.  1.
          2   -1    0    0  501    0  0.00000000000E+00 -0.00000000000E+00 -0.22016439023E+04  0.22016439023E+04  0.00000000000E+00 0. -1.
         25    2    1    2    0    0  0.87240571096E+02  0.16163082974E+03 -0.12750426675E+04  0.12942620659E+04  0.12508016957E+03 0.  0.
          5    1    3    3  502    0  0.36095793465E+02  0.20316214845E+02 -0.65234874984E+03  0.65367577492E+03  0.41800000000E+01 0. -1.
         -5    1    3    3    0  502  0.51144777631E+02  0.14131461490E+03 -0.62269391767E+03  0.64058629096E+03  0.41800000000E+01 0. -1.
        -11    1    1    2    0    0 -0.10581580442E+03 -0.13700954577E+03 -0.81835458571E+03  0.83646448105E+03  0.00000000000E+00 0.  1.
         11    1    1    2    0    0  0.18575233324E+02 -0.24621283970E+02 -0.86927320215E+02  0.92236684226E+02  0.00000000000E+00 0. -1.
</event>
<event>
 7    1  0.2380582E-009  0.1632845E+03  0.7561462E-02  0.1185038E+00
          1   -1    0    0  501    0  0.00000000000E+00  0.00000000000E+00  0.18188425437E+03  0.18188425437E+03  0.00000000000E+00 0. -1.
         -1   -1    0    0    0  501 -0.00000000000E+00 -0.00000000000E+00 -0.19493586019E+03  0.19493586019E+03  0.00000000000E+00 0.  1.
         25    2    1    2    0    0  0.11286761976E+03  0.45735875549E+02 -0.97077896329E+02  0.19975641644E+03  0.12509051943E+03 0.  0.
          5    1    3    3  502    0  0.32990648555E+02  0.79968606669E+02 -0.58941538468E+02  0.10476133973E+03  0.41800000000E+01 0. -1.
         -5    1    3    3    0  502  0.79876971209E+02 -0.34232731120E+02 -0.38136357861E+02  0.94995076717E+02  0.41800000000E+01 0. -1.
        -11    1    1    2    0    0 -0.32758013336E+02  0.28738775175E+02  0.91996737284E+01  0.44538058254E+02  0.00000000000E+00 0.  1.
         11    1    1    2    0    0 -0.80109606428E+02 -0.74474650724E+02  0.74826616780E+02  0.13252563986E+03  0.00000000000E+00 0. -1.
</event>
<event>
 7    1  0.2380582E-009  0.1096466E+03  0.7561462E-02  0.1261226E+00
          2   -1    0    0  501    0  0.00000000000E+00  0.00000000000E+00  0.14923227777E+03  0.14923227777E+03  0.00000000000E+00 0. -1.
         -2   -1    0    0    0  501 -0.00000000000E+00 -0.00000000000E+00 -0.13285729997E+03  0.13285729997E+03  0.00000000000E+00 0.  1.
         25    2    1    2    0    0 -0.19169507244E+02  0.38855156476E+02 -0.68375756335E+02  0.14899644187E+03  0.12508997738E+03 0.  0.
          5    1    3    3  502    0 -0.67546698499E+02  0.46198783728E+02 -0.52786488553E+02  0.97471892717E+02  0.41800000000E+01 0.  1.
         -5    1    3    3    0  502  0.48377191256E+02 -0.73436272517E+01 -0.15589267782E+02  0.51524549149E+02  0.41800000000E+01 0.  1.
        -11    1    1    2    0    0  0.11886630230E+02  0.23037184077E+02 -0.23107791619E+01  0.26025824267E+02  0.00000000000E+00 0.  1.
         11    1    1    2    0    0  0.72828770135E+01 -0.61892340554E+02  0.87061513297E+02  0.10706731161E+03  0.00000000000E+00 0. -1.
</event>
<event>
 7    1  0.2380582E-009  0.8634990E+02  0.7561462E-02  0.1311940E+00
         -2   -1    0    0    0  501 -0.00000000000E+00  0.00000000000E+00  0.11246195302E+03  0.11246195302E+03  0.00000000000E+00 0.  1.
          2   -1    0    0  501    0  0.00000000000E+00 -0.00000000000E+00 -0.14781805938E+03  0.14781805938E+03  0.00000000000E+00 0. -1.
         25    2    1    2    0    0 -0.66305432627E+02  0.16873063225E+02 -0.13606097054E+02  0.14322886477E+03  0.12509305004E+03 0.  0.
          5    1    3    3  502    0 -0.39863280057E+02 -0.26634225285E+02  0.44720203541E+02  0.65694992642E+02  0.41800000000E+01 0. -1.
         -5    1    3    3    0  502 -0.26442152570E+02  0.43507288510E+02 -0.58326300595E+02  0.77533872128E+02  0.41800000000E+01 0. -1.
        -11    1    1    2    0    0  0.53324234754E+02 -0.24229885736E+02  0.28138209255E+02  0.64979382845E+02  0.00000000000E+00 0.  1.
         11    1    1    2    0    0  0.12981197874E+02  0.73568225114E+01 -0.49888218565E+02  0.52071764780E+02  0.00000000000E+00 0. -1.
</event>
<event>
 7    1  0.2380582E-009  0.1331233E+03  0.7561462E-02  0.1222894E+00
          1   -1    0    0  501    0  0.00000000000E+00  0.00000000000E+00  0.13144749579E+04  0.13144749579E+04  0.00000000000E+00 0. -1.
         -1   -1    0    0    0  501 -0.00000000000E+00 -0.00000000000E+00 -0.19185570426E+02  0.19185570426E+02  0.00000000000E+00 0.  1.
         25    2    1    2    0    0 -0.64187282542E+02 -0.45901001571E+02  0.10499550134E+04  0.10603208668E+04  0.12509157140E+03 0.  0.
          5    1    3    3  502    0 -0.80928245873E+02 -0.76841500894E+02  0.84131765190E+03  0.84869715508E+03  0.41800000000E+01 0. -1.
         -5    1    3    3    0  502  0.16740963332E+02  0.30940499323E+02  0.20863736146E+03  0.21162371169E+03  0.41800000000E+01 0. -1.
        -11    1    1    2    0    0  0.18995570437E+02 -0.27215415443E+02  0.88103945813E+02  0.94147840133E+02  0.00000000000E+00 0. -1.
         11    1    1    2    0    0  0.45191712105E+02  0.73116417014E+02  0.15723042825E+03  0.17919182137E+03  0.00000000000E+00 0.  1.
</event>
<event>
 7    1  0.2380582E-009  0.1024769E+03  0.7561462E-02  0.1275172E+00
          1   -1    0    0  501    0  0.00000000000E+00  0.00000000000E+00  0.17857216217E+03  0.17857216217E+03  0.00000000000E+00 0. -1.
         -1   -1    0    0    0  501 -0.00000000000E+00 -0.00000000000E+00 -0.12389262401E+03  0.12389262401E+03  0.00000000000E+00 0.  1.
         25    2    1    2    0    0  0.51916941492E+02  0.55003364012E+02  0.10293696234E+03  0.17878105911E+03  0.12508361209E+03 0.  0.
          5    1    3    3  502    0  0.80288579679E+02  0.47400358489E+02  0.11380858269E+03  0.14718327318E+03  0.41800000000E+01 0. -1.
         -5    1    3    3    0  502 -0.28371638187E+02  0.76030055230E+01 -0.10871620347E+02  0.31597785925E+02  0.41800000000E+01 0. -1.
        -11    1    1    2    0    0 -0.41805025187E+02 -0.21601660731E+02 -0.68675851116E+02  0.83250612032E+02  0.00000000000E+00 0.  1.
         11    1    1    2    0    0 -0.10111916304E+02 -0.33401703280E+02  0.20418426935E+02  0.40433115040E+02  0.00000000000E+00 0. -1.
</event>
<event>
 7    1  0.2380582E-009  0.8317615E+02  0.7561462E-02  0.1320272E+00
          1   -1    0    0  501    0  0.00000000000E+00  0.00000000000E+00  0.38091824961E+03  0.38091824961E+03  0.00000000000E+00 0. -1.
         -1   -1    0    0    0  501 -0.00000000000E+00 -0.00000000000E+00 -0.33405326852E+02  0.33405326852E+02  0.00000000000E+00 0.  1.
         25    2    1    2    0    0 -0.32053951501E+02  0.41141033288E+00  0.19736330831E+03  0.23585261029E+03  0.12508618327E+03 0.  0.
          5    1    3    3  502    0 -0.40047846286E+02  0.30541837817E+02  0.17839249950E+02  0.53594263575E+02  0.41800000000E+01 0.  1.
         -5    1    3    3    0  502  0.79938947853E+01 -0.30130427485E+02  0.17952405836E+03  0.18225834671E+03  0.41800000000E+01 0.  1.
        -11    1    1    2    0    0  0.41023528845E+02  0.31176395532E+02  0.45326337126E+02  0.68624881745E+02  0.00000000000E+00 0.  1.
         11    1    1    2    0    0 -0.89695773442E+01 -0.31587805865E+02  0.10482327732E+03  0.10984608443E+03  0.00000000000E+00 0. -1.
</event>
<event>
 7    1  0.2380582E-009  0.1017027E+03  0.7561462E-02  0.1276756E+00
          2   -1    0    0  501    0  0.00000000000E+00  0.00000000000E+00  0.45453062055E+03  0.45453062055E+03  0.00000000000E+00 0.  1.
         -2   -1    0    0    0  501 -0.00000000000E+00 -0.00000000000E+00 -0.42219638349E+02  0.42219638349E+02  0.00000000000E+00 0. -1.
         25    2    1    2    0    0  0.57269677818E+02  0.68797811842E+02  0.19869661774E+03  0.25127746248E+03  0.12508821822E+03 0.  0.
          5    1    3    3  502    0  0.42340489056E+02  0.62115224178E+02  0.28902958760E+02  0.80646584015E+02  0.41800000000E+01 0. -1.
         -5    1    3    3    0  502  0.14929188762E+02  0.66825876640E+01  0.16979365898E+03  0.17063087847E+03  0.41800000000E+01 0. -1.
        -11    1    1    2    0    0 -0.17535266017E+02 -0.69312330073E+02  0.86124841556E+02  0.11193378841E+03  0.00000000000E+00 0. -1.
         11    1    1    2    0    0 -0.39734411801E+02  0.51451823052E+00  0.12748952290E+03  0.13353900801E+03  0.00000000000E+00 0.  1.
</event>
<event>
 7    1  0.2380582E-009  0.9667520E+02  0.7561462E-02  0.1287447E+00
         -3   -1    0    0    0  501 -0.00000000000E+00  0.00000000000E+00  0.21043880271E+02  0.21043880271E+02  0.00000000000E+00 0.  1.
          3   -1    0    0  501    0  0.00000000000E+00 -0.00000000000E+00 -0.86094489195E+03  0.86094489195E+03  0.00000000000E+00 0. -1.
         25    2    1    2    0    0  0.16836157307E+02  0.59096852630E+02 -0.28824209400E+03  0.32016650681E+03  0.12508874110E+03 0.  0.
          5    1    3    3  502    0  0.33297763242E+02  0.62234115946E+02 -0.29367036401E+03  0.30206221433E+03  0.41800000000E+01 0. -1.
         -5    1    3    3    0  502 -0.16461605936E+02 -0.31372633158E+01  0.54282700172E+01  0.18104292487E+02  0.41800000000E+01 0. -1.
        -11    1    1    2    0    0  0.29642709803E+02 -0.49828992802E+02 -0.34137858744E+03  0.34626717825E+03  0.00000000000E+00 0. -1.
         11    1    1    2    0    0 -0.46478867109E+02 -0.92678598278E+01 -0.21028033024E+03  0.21555508716E+03  0.00000000000E+00 0.  1.
</event>
<event>
 7    1  0.2380582E-009  0.1217855E+03  0.7561462E-02  0.1240180E+00
          1   -1    0    0  501    0  0.00000000000E+00  0.00000000000E+00  0.20505792506E+04  0.20505792506E+04  0.00000000000E+00 0. -1.
         -1   -1    0    0    0  501 -0.00000000000E+00 -0.00000000000E+00 -0.10596384609E+02  0.10596384609E+02  0.00000000000E+00 0.  1.
         25    2    1    2    0    0 -0.20756656225E+02 -0.60487814004E+02  0.16538933748E+04  0.16598494510E+04  0.12508912964E+03 0.  0.
          5    1    3    3  502    0 -0.30042448828E+02  0.30594253677E+02  0.33213458816E+03  0.33491702576E+03  0.41800000000E+01 0.  1.
         -5    1    3    3    0  502  0.92857926034E+01 -0.91082067681E+02  0.13217587867E+04  0.13249324253E+04  0.41800000000E+01 0.  1.
        -11    1    1    2    0    0 -0.29964787794E+02  0.48030389000E+02  0.17818845562E+03  0.18696505687E+03  0.00000000000E+00 0.  1.
         11    1    1    2    0    0  0.50721444018E+02  0.12457425004E+02  0.20790103552E+03  0.21436112729E+03  0.00000000000E+00 0. -1.
</event>
<event>
 7    1  0.2380582E-009  0.1814779E+03  0.7561462E-02  0.1166380E+00
         -1   -1    0    0    0  501 -0.00000000000E+00  0.00000000000E+00  0.76359879711E+02  0.76359879711E+02  0.00000000000E+00 0.  1.
          1   -1    0    0  501    0  0.00000000000E+00 -0.00000000000E+00 -0.63005528589E+03  0.63005528589E+03  0.00000000000E+00 0. -1.
         25    2    1    2    0    0  0.14151774774E+01  0.16517801032E+03 -0.13088773835E+03  0.24508228872E+03  0.12509176782E+03 0.  0.
          5    1    3    3  502    0  0.47169849475E+02  0.11935693420E+03 -0.12617285974E+03  0.18002259685E+03  0.41800000000E+01 0. -1.
         -5    1    3    3    0  502 -0.45754671998E+02  0.45821076118E+02 -0.47148786045E+01  0.65059691873E+02  0.41800000000E+01 0. -1.
        -11    1    1    2    0    0  0.17457884183E+02 -0.50349695132E+02 -0.23030982815E+03  0.23639476827E+03  0.00000000000E+00 0. -1.
         11    1    1    2    0    0 -0.18873061660E+02 -0.11482831519E+03 -0.19249783968E+03  0.22493810861E+03  0.00000000000E+00 0.  1.
</event>
<event>
 7    1  0.2380582E-009  0.1495240E+03  0.7561462E-02  0.1201059E+00
         -2   -1    0    0    0  501 -0.00000000000E+00  0.00000000000E+00  0.22153242476E+03  0.22153242476E+03  0.00000000000E+00 0.  1.
          2   -1    0    0  501    0  0.00000000000E+00 -0.00000000000E+00 -0.17095497487E+03  0.17095497487E+03  0.00000000000E+00 0. -1.
         25    2    1    2    0    0  0.75978282687E+02 -0.10926350232E+03  0.11520072293E+03  0.21593972059E+03  0.12509014345E+03 0.  0.
          5    1    3    3  502    0  0.31603621783E+01 -0.44655146336E+02 -0.20063224953E+02  0.49234900009E+02  0.41800000000E+01 0. -1.
         -5    1    3    3    0  502  0.72817920509E+02 -0.64608355979E+02  0.13526394788E+03  0.16670482058E+03  0.41800000000E+01 0. -1.
        -11    1    1    2    0    0 -0.17541943730E+02  0.94853199777E+02 -0.65073728142E+02  0.11635909673E+03  0.00000000000E+00 0. -1.
         11    1    1    2    0    0 -0.58436338957E+02  0.14410302539E+02  0.45045510304E+00  0.60188582304E+02  0.00000000000E+00 0.  1.
</event>
<event>
 7    1  0.2380582E-009  0.1038529E+03  0.7561462E-02  0.1272396E+00
         -1   -1    0    0    0  501 -0.00000000000E+00  0.00000000000E+00  0.59214611115E+02  0.59214611115E+02  0.00000000000E+00 0.  1.
          1   -1    0    0  501    0  0.00000000000E+00 -0.00000000000E+00 -0.24453703979E+03  0.24453703979E+03  0.00000000000E+00 0. -1.
         25    2    1    2    0    0 -0.36509630263E+02 -0.33966443851E+02 -0.80454733741E+02  0.15686483484E+03  0.12508772849E+03 0.  0.
          5    1    3    3  502    0 -0.52900658301E+02  0.33502588750E+02 -0.23668995918E+02  0.67071580192E+02  0.41800000000E+01 0. -1.
         -5    1    3    3    0  502  0.16391028038E+02 -0.67469032601E+02 -0.56785737823E+02  0.89793254648E+02  0.41800000000E+01 0. -1.
        -11    1    1    2    0    0  0.56690213178E+01  0.42908479511E+02 -0.69467367393E+01  0.43835289072E+02  0.00000000000E+00 0.  1.
         11    1    1    2    0    0  0.30840608945E+02 -0.89420356607E+01 -0.97920958199E+02  0.10305152700E+03  0.00000000000E+00 0. -1.
</event>
<event>
 7    1  0.2568401E-009  0.1179817E+03  0.7561462E-02  0.1246464E+00
          2   -1    0    0  501    0  0.00000000000E+00  0.00000000000E+00  0.17952226160E+04  0.17952226160E+04  0.00000000000E+00 0. -1.
         -2   -1    0    0    0  501 -0.00000000000E+00 -0.00000000000E+00 -0.13120374840E+02  0.13120374840E+02  0.00000000000E+00 0.  1.
         25    2    1    2    0    0  0.46411491843E+02  0.69970319146E+02  0.13587881430E+04  0.13671148201E+04  0.12509133312E+03 0.  0.
          5    1    3    3  502    0 -0.18824612672E+02  0.43175485863E+02  0.17670686402E+03  0.18292423791E+03  0.41800000000E+01 0. -1.
         -5    1    3    3    0  502  0.65236104516E+02  0.26794833284E+02  0.11820812790E+04  0.11841905822E+04  0.41800000000E+01 0. -1.
        -11    1    1    2    0    0 -0.51908312320E+02 -0.42529043631E+01  0.25879840103E+03  0.26398706873E+03  0.00000000000E+00 0. -1.
         11    1    1    2    0    0  0.54968204764E+01 -0.65717414783E+02  0.16451569714E+03  0.17724110202E+03  0.00000000000E+00 0.  1.
</event>
<event>
 7    1  0.2380582E-009  0.1032589E+03  0.7561462E-02  0.1273588E+00
          2   -1    0    0  501    0  0.00000000000E+00  0.00000000000E+00  0.13161856027E+03  0.13161856027E+03  0.00000000000E+00 0. -1.
         -2   -1    0    0    0  501 -0.00000000000E+00 -0.00000000000E+00 -0.96415700259E+02  0.96415700259E+02  0.00000000000E+00 0.  1.
         25    2    1    2    0    0  0.21483032841E+02  0.14329089281E+02  0.28164704232E+01  0.12775436051E+03  0.12508557321E+03 0.  0.
          5    1    3    3  502    0 -0.29231831414E+02  0.53733024246E+02  0.12774576416E+02  0.62629067253E+02  0.41800000000E+01 0. -1.
         -5    1    3    3    0  502  0.50714864255E+02 -0.39403934965E+02 -0.99581059926E+01  0.65125293259E+02  0.41800000000E+01 0. -1.
        -11    1    1    2    0    0 -0.14065441231E+02  0.31459430371E+02 -0.11594304282E+02  0.36358771818E+02  0.00000000000E+00 0.  1.
         11    1    1    2    0    0 -0.74175916093E+01 -0.45788519652E+02  0.43980693874E+02  0.63921128204E+02  0.00000000000E+00 0. -1.
</event>
<event>
 7    1  0.2380582E-009  0.1439756E+03  0.7561462E-02  0.1208077E+00
          2   -1    0    0  501    0  0.00000000000E+00  0.00000000000E+00  0.81812826117E+03  0.81812826117E+03  0.00000000000E+00 0. -1.
         -2   -1    0    0    0  501 -0.00000000000E+00 -0.00000000000E+00 -0.31228975203E+02  0.31228975203E+02  0.00000000000E+00 0.  1.
         25    2    1    2    0    0  0.78233317392E+02 -0.83429864946E+02  0.37973119631E+03  0.41584188189E+03  0.12509074691E+03 0.  0.
          5    1    3    3  502    0  0.10115538011E+03 -0.74605171335E+02  0.21375522039E+03  0.24800626839E+03  0.41800000000E+01 0.  1.
         -5    1    3    3    0  502 -0.22922062714E+02 -0.88246936114E+01  0.16597597592E+03  0.16783561350E+03  0.41800000000E+01 0.  1.
        -11    1    1    2    0    0 -0.64905307657E+02  0.13767833802E+02  0.11411727835E+03  0.13200380838E+03  0.00000000000E+00 0.  1.
         11    1    1    2    0    0 -0.13328009735E+02  0.69662031145E+02  0.29305081131E+03  0.30151154611E+03  0.00000000000E+00 0. -1.
</event>
<event>
 7    1  0.2380582E-009  0.1054986E+03  0.7561462E-02  0.1269140E+00
         -4   -1    0    0    0  501 -0.00000000000E+00  0.00000000000E+00  0.89512693311E+03  0.89512693311E+03  0.00000000000E+00 0.  1.
          4   -1    0    0  501    0  0.00000000000E+00 -0.00000000000E+00 -0.14538436674E+02  0.14538436674E+02  0.00000000000E+00 0. -1.
         25    2    1    2    0    0  0.41580402788E+01 -0.36057227530E+02  0.49749061349E+03  0.51425822994E+03  0.12508878285E+03 0.  0.
          5    1    3    3  502    0 -0.18174144656E+02 -0.74345439039E+02  0.21442560173E+03  0.22771331739E+03  0.41800000000E+01 0. -1.
         -5    1    3    3    0  502  0.22332184935E+02  0.38288211510E+02  0.28306501177E+03  0.28654491256E+03  0.41800000000E+01 0. -1.
        -11    1    1    2    0    0 -0.42484966115E+02  0.27337774624E+02  0.28974960360E+03  0.29412099390E+03  0.00000000000E+00 0.  1.
         11    1    1    2    0    0  0.38326925836E+02  0.87194529060E+01  0.93348279346E+02  0.10128614594E+03  0.00000000000E+00 0. -1.
</event>
<event>
 7    1  0.2380582E-009  0.1805273E+03  0.7561462E-02  0.1167294E+00
          1   -1    0    0  501    0  0.00000000000E+00  0.00000000000E+00  0.54162093764E+03  0.54162093764E+03  0.00000000000E+00 0.  1.
         -1   -1    0    0    0  501 -0.00000000000E+00 -0.00000000000E+00 -0.97969488564E+02  0.97969488564E+02  0.00000000000E+00 0. -1.
         25    2    1    2    0    0 -0.74836596441E+02  0.14166867183E+03  0.53651058353E+02  0.21022878967E+03  0.12508868533E+03 0.  0.
          5    1    3    3  502    0 -0.91634294338E+02  0.44344741384E+02  0.10689430019E+02  0.10244528443E+03  0.41800000000E+01 0. -1.
         -5    1    3    3    0  502  0.16797697898E+02  0.97323930448E+02  0.42961628334E+02  0.10778350524E+03  0.41800000000E+01 0. -1.
        -11    1    1    2    0    0  0.21365985804E+02 -0.35229967058E+02  0.32312587935E+02  0.52361811154E+02  0.00000000000E+00 0. -1.
         11    1    1    2    0    0  0.53470610637E+02 -0.10643870477E+03  0.35768780279E+03  0.37699982538E+03  0.00000000000E+00 0.  1.
</event>
<event>
 7    1  0.2380582E-009  0.1103197E+03  0.7561462E-02  0.1259979E+00
          2   -1    0    0  501    0  0.00000000000E+00  0.00000000000E+00  0.11889643889E+03  0.11889643889E+03  0.00000000000E+00 0. -1.
         -2   -1    0    0    0  501 -0.00000000000E+00 -0.00000000000E+00 -0.14484540413E+03  0.14484540413E+03  0.00000000000E+00 0.  1.
         25    2    1    2    0    0 -0.57536918340E+02 -0.28909515453E+02  0.24988334193E+02  0.14289232408E+03  0.12509013702E+03 0.  0.
          5    1    3    3  502    0  0.10792504496E+02 -0.51183621445E+02 -0.22025549566E+02  0.56910794154E+02  0.41800000000E+01 0. -1.
         -5    1    3    3    0  502 -0.68329422836E+02  0.22274105992E+02  0.47013883760E+02  0.85981529929E+02  0.41800000000E+01 0. -1.
        -11    1    1    2    0    0  0.18447774980E+02 -0.24075242444E+02 -0.45632392029E+02  0.54792817985E+02  0.00000000000E+00 0.  1.
         11    1    1    2    0    0  0.39089143360E+02  0.52984757896E+02 -0.53049074075E+01  0.66056700951E+02  0.00000000000E+00 0. -1.
</event>
<event>
 7    1  0.2380582E-009  0.1487173E+03  0.7561462E-02  0.1202058E+00
          1   -1    0    0  501    0  0.00000000000E+00  0.00000000000E+00  0.57817762026E+02  0.57817762026E+02  0.00000000000E+00 0. -1.
         -1   -1    0    0    0  501 -0.00000000000E+00 -0.00000000000E+00 -0.42582292792E+03  0.42582292792E+03  0.00000000000E+00 0.  1.
         25    2    1    2    0    0 -0.62866447874E+01 -0.11117522552E+03 -0.22604809374E+03  0.28131875245E+03  0.12507216767E+03 0.  0.
          5    1    3    3  502    0  0.55720910143E+02 -0.27986527051E+02 -0.10107552526E+03  0.11883517884E+03  0.41800000000E+01 0. -1.
         -5    1    3    3    0  502 -0.62007554930E+02 -0.83188698467E+02 -0.12497256848E+03  0.16248357361E+03  0.41800000000E+01 0. -1.
        -11    1    1    2    0    0  0.21941737334E+02  0.11320706869E+03 -0.85103664047E+02  0.14331752814E+03  0.00000000000E+00 0. -1.
         11    1    1    2    0    0 -0.15655092547E+02 -0.20318431753E+01 -0.56853408101E+02  0.59004409345E+02  0.00000000000E+00 0.  1.
</event>
<event>
 7    1  0.2380582E-009  0.1195123E+03  0.7561462E-02  0.1243904E+00
         -3   -1    0    0    0  501 -0.00000000000E+00  0.00000000000E+00  0.20906715644E+03  0.20906715644E+03  0.00000000000E+00 0.  1.
          3   -1    0    0  501    0  0.00000000000E+00 -0.00000000000E+00 -0.94190321544E+02  0.94190321544E+02  0.00000000000E+00 0. -1.
         25    2    1    2    0    0 -0.40107813507E+02 -0.78288024076E+02  0.76375150963E+02  0.17092564588E+03  0.12507902029E+03 0.  0.
          5    1    3    3  502    0  0.25196323868E+02 -0.13494848167E+02  0.73299329335E+02  0.78785974288E+02  0.41800000000E+01 0.  1.
         -5    1    3    3    0  502 -0.65304137376E+02 -0.64793175909E+02  0.30758216275E+01  0.92139671594E+02  0.41800000000E+01 0.  1.
        -11    1    1    2    0    0  0.57391235572E+02  0.82273238177E+02  0.12831632480E+02  0.10113006691E+03  0.00000000000E+00 0. -1.
         11    1    1    2    0    0 -0.17283422064E+02 -0.39852141011E+01  0.25670051450E+02  0.31201765192E+02  0.00000000000E+00 0.  1.
</event>
<event>
 7    1  0.2380582E-009  0.1029731E+03  0.7561462E-02  0.1274165E+00
         -1   -1    0    0    0  501 -0.00000000000E+00  0.00000000000E+00  0.95983663655E+02  0.95983663655E+02  0.00000000000E+00 0.  1.
          1   -1    0    0  501    0  0.00000000000E+00 -0.00000000000E+00 -0.14570409995E+03  0.14570409995E+03  0.00000000000E+00 0. -1.
         25    2    1    2    0    0  0.22227943248E+02  0.21760999573E+02 -0.34291036491E+02  0.13338272446E+03  0.12508978150E+03 0.  0.
          5    1    3    3  502    0  0.12878099932E+02  0.73933078762E+02 -0.26226102027E+02  0.79606698340E+02  0.41800000000E+01 0. -1.
         -5    1    3    3    0  502  0.93498433162E+01 -0.52172079189E+02 -0.80649344633E+01  0.53776026116E+02  0.41800000000E+01 0. -1.
        -11    1    1    2    0    0 -0.43742210267E+02  0.41484071621E+01  0.28932088310E+02  0.52608516183E+02  0.00000000000E+00 0.  1.
         11    1    1    2    0    0  0.21514267018E+02 -0.25909406735E+02 -0.44361488110E+02  0.55696522962E+02  0.00000000000E+00 0. -1.
</event>
<event>
 7    1  0.2428103E-009  0.1040638E+03  0.7561462E-02  0.1271975E+00
         -1   -1    0    0    0  501 -0.00000000000E+00  0.00000000000E+00  0.33697663468E+02  0.33697663468E+02  0.00000000000E+00 0.  1.
          1   -1    0    0  501    0  0.00000000000E+00 -0.00000000000E+00 -0.62800003765E+03  0.62800003765E+03  0.00000000000E+00 0. -1.
         25    2    1    2    0    0 -0.62458143046E+02 -0.14786676099E+02 -0.15885835066E+03  0.21213960716E+03  0.12509025513E+03 0.  0.
          5    1    3    3  502    0 -0.61555095328E+02  0.22278886405E+02 -0.16192033216E+03  0.17470273297E+03  0.41800000000E+01 0.  1.
         -5    1    3    3    0  502 -0.90304771811E+00 -0.37065562504E+02  0.30619814951E+01  0.37436874196E+02  0.41800000000E+01 0.  1.
        -11    1    1    2    0    0  0.35967955879E+02 -0.34134749572E+02 -0.13096387575E+03  0.14003717982E+03  0.00000000000E+00 0. -1.
         11    1    1    2    0    0  0.26490187168E+02  0.48921425671E+02 -0.30448014777E+03  0.30952091414E+03  0.00000000000E+00 0.  1.
</event>
<event>
 7    1  0.2380582E-009  0.9392019E+02  0.7561462E-02  0.1293627E+00
          1   -1    0    0  501    0  0.00000000000E+00  0.00000000000E+00  0.34314166562E+03  0.34314166562E+03  0.00000000000E+00 0. -1.
         -1   -1    0    0    0  501 -0.00000000000E+00 -0.00000000000E+00 -0.39774963456E+02  0.39774963456E+02  0.00000000000E+00 0.  1.
         25    2    1    2    0    0 -0.46870060396E+01 -0.40747622255E+02  0.18007559262E+03  0.22306288741E+03  0.12508995139E+03 0.  0.
          5    1    3    3  502    0  0.40890987294E+02 -0.59581913775E+02  0.63020955207E+02  0.95974947180E+02  0.41800000000E+01 0.  1.
         -5    1    3    3    0  502 -0.45577993334E+02  0.18834291520E+02  0.11705463741E+03  0.12708794023E+03  0.41800000000E+01 0.  1.
        -11    1    1    2    0    0  0.67973459603E+01  0.53048425424E+02  0.13344570116E+03  0.14376402370E+03  0.00000000000E+00 0. -1.
         11    1    1    2    0    0 -0.21103399207E+01 -0.12300803169E+02 -0.10154591616E+02  0.16089717961E+02  0.00000000000E+00 0.  1.
</event>
<event>
 7    1  0.2380582E-009  0.1083536E+03  0.7561462E-02  0.1263650E+00
         -1   -1    0    0    0  501 -0.00000000000E+00  0.00000000000E+00  0.54672502920E+02  0.54672502920E+02  0.00000000000E+00 0.  1.
          1   -1    0    0  501    0  0.00000000000E+00 -0.00000000000E+00 -0.30514744825E+03  0.30514744825E+03  0.00000000000E+00 0. -1.
         25    2    1    2    0    0  0.63222455194E+02 -0.12821582650E+02 -0.15171207413E+03  0.20694349796E+03  0.12509031173E+03 0.  0.
          5    1    3    3  502    0 -0.22309964638E+02  0.27479005189E+02 -0.10881482074E+02  0.37265390116E+02  0.41800000000E+01 0. -1.
         -5    1    3    3    0  502  0.85532419833E+02 -0.40300587839E+02 -0.14083059205E+03  0.16967810784E+03  0.41800000000E+01 0. -1.
        -11    1    1    2    0    0 -0.58108734455E+02  0.32163190547E+02 -0.16800911591E+02  0.68508148978E+02  0.00000000000E+00 0.  1.
         11    1    1    2    0    0 -0.51137207393E+01 -0.19341607897E+02 -0.81961959610E+02  0.84368304232E+02  0.00000000000E+00 0. -1.
</event>
<event>
 7    1  0.2380582E-009  0.8070298E+02  0.7561462E-02  0.1327068E+00
          3   -1    0    0  501    0  0.00000000000E+00  0.00000000000E+00  0.36429828194E+03  0.36429828194E+03  0.00000000000E+00 0. -1.
         -3   -1    0    0    0  501 -0.00000000000E+00 -0.00000000000E+00 -0.47689223095E+02  0.47689223095E+02  0.00000000000E+00 0.  1.
         25    2    1    2    0    0  0.24943651895E+02  0.34918432292E+02  0.26566525788E+03  0.29676035795E+03  0.12508876098E+03 0.  0.
          5    1    3    3  502    0  0.37066600551E+02  0.95196856593E+01  0.26553154991E+03  0.26830772200E+03  0.41800000000E+01 0.  1.
         -5    1    3    3    0  502 -0.12122948656E+02  0.25398746633E+02  0.13370797342E+00  0.28452635949E+02  0.41800000000E+01 0.  1.
        -11    1    1    2    0    0 -0.44636207642E+02 -0.51899184951E+02  0.56355626656E+02  0.88667204124E+02  0.00000000000E+00 0. -1.
         11    1    1    2    0    0  0.19692555748E+02  0.16980752659E+02 -0.54118256890E+01  0.26559942960E+02  0.00000000000E+00 0.  1.
</event>
<event>
 7    1  0.2380582E-009  0.1165843E+03  0.7561462E-02  0.1248841E+00
          3   -1    0    0  501    0  0.00000000000E+00  0.00000000000E+00  0.46724938715E+02  0.46724938715E+02  0.00000000000E+00 0. -1.
         -3   -1    0    0    0  501 -0.00000000000E+00 -0.00000000000E+00 -0.38345470151E+03  0.38345470151E+03  0.00000000000E+00 0.  1.
         25    2    1    2    0    0 -0.25329760493E+02 -0.74128041035E+02 -0.20393419077E+03  0.25174667765E+03  0.12510264708E+03 0.  0.
          5    1    3    3  502    0  0.38684687369E+02 -0.57241438686E+02 -0.15360612520E+03  0.16847967663E+03  0.41800000000E+01 0. -1.
         -5    1    3    3    0  502 -0.64014447863E+02 -0.16886602349E+02 -0.50328065579E+02  0.83267001020E+02  0.41800000000E+01 0. -1.
        -11    1    1    2    0    0  0.41765467983E+02  0.68533174040E+02 -0.51626217499E+02  0.95427546301E+02  0.00000000000E+00 0. -1.
         11    1    1    2    0    0 -0.16435707490E+02  0.55948669952E+01 -0.81169354524E+02  0.83005416277E+02  0.00000000000E+00 0.  1.
</event>
<event>
 7    1  0.2380582E-009  0.1599307E+03  0.7561462E-02  0.1188775E+00
         -4   -1    0    0    0  501 -0.00000000000E+00  0.00000000000E+00  0.16788097568E+03  0.16788097568E+03  0.00000000000E+00 0. -1.
          4   -1    0    0  501    0  0.00000000000E+00 -0.00000000000E+00 -0.20336214394E+03  0.20336214394E+03  0.00000000000E+00 0.  1.
         25    2    1    2    0    0  0.10639359709E+03 -0.95554386945E+02 -0.60862568658E+02  0.19950578796E+03  0.12509224116E+03 0.  0.
          5    1    3    3  502    0  0.11779604890E+02 -0.61768777573E+02  0.24490678664E+02  0.67612178752E+02  0.41800000000E+01 0. -1.
         -5    1    3    3    0  502  0.94613992205E+02 -0.33785609372E+02 -0.85353247322E+02  0.13189360921E+03  0.41800000000E+01 0. -1.
        -11    1    1    2    0    0 -0.33212595221E+02 -0.32088062167E+01  0.35104179135E+02  0.48432182599E+02  0.00000000000E+00 0. -1.
         11    1    1    2    0    0 -0.73181001874E+02  0.98763193162E+02 -0.97227787367E+01  0.12330514906E+03  0.00000000000E+00 0.  1.
</event>
<event>
 7    1  0.2380582E-009  0.1869594E+03  0.7561462E-02  0.1161233E+00
          1   -1    0    0  501    0  0.00000000000E+00  0.00000000000E+00  0.10489714633E+03  0.10489714633E+03  0.00000000000E+00 0. -1.
         -1   -1    0    0    0  501 -0.00000000000E+00 -0.00000000000E+00 -0.34573717727E+03  0.34573717727E+03  0.00000000000E+00 0.  1.
         25    2    1    2    0    0 -0.14331251988E+03 -0.59344414702E+02 -0.14339223325E+03  0.24549780747E+03  0.12509037934E+03 0.  0.
          5    1    3    3  502    0 -0.14288841137E+03 -0.88130339094E+02 -0.10791123597E+03  0.19961553552E+03  0.41800000000E+01 0. -1.
         -5    1    3    3    0  502 -0.42410851182E+00  0.28785924392E+02 -0.35480997281E+02  0.45882271949E+02  0.41800000000E+01 0. -1.
        -11    1    1    2    0    0  0.82063049330E+02 -0.11921996518E+02 -0.66196944791E+02  0.10610614292E+03  0.00000000000E+00 0. -1.
         11    1    1    2    0    0  0.61249470550E+02  0.71266411221E+02 -0.31250852893E+02  0.99030373207E+02  0.00000000000E+00 0.  1.
</event>
<event>
 7    1  0.2380582E-009  0.1229493E+03  0.7561462E-02  0.1238309E+00
         -2   -1    0    0    0  501 -0.00000000000E+00  0.00000000000E+00  0.76397061592E+03  0.76397061592E+03  0.00000000000E+00 0.  1.
          2   -1    0    0  501    0  0.00000000000E+00 -0.00000000000E+00 -0.38534657473E+02  0.38534657473E+02  0.00000000000E+00 0. -1.
         25    2    1    2    0    0 -0.80848519378E+02  0.32775308702E+02  0.61656038177E+03  0.63514007708E+03  0.12508200987E+03 0.  0.
          5    1    3    3  502    0 -0.65402698043E+02  0.59394066038E+02  0.21640819139E+03  0.23378440002E+03  0.41800000000E+01 0.  1.
         -5    1    3    3    0  502 -0.15445821336E+02 -0.26618757337E+02  0.40015219038E+03  0.40135567706E+03  0.41800000000E+01 0.  1.
        -11    1    1    2    0    0 -0.19542750560E+02 -0.14546116775E+02  0.14339428234E+02  0.28268848841E+02  0.00000000000E+00 0.  1.
         11    1    1    2    0    0  0.10039126994E+03 -0.18229191927E+02  0.94536148435E+02  0.13909634747E+03  0.00000000000E+00 0. -1.
</event>
<event>
 7    1  0.2380582E-009  0.1112783E+03  0.7561462E-02  0.1258221E+00
         -1   -1    0    0    0  501 -0.00000000000E+00  0.00000000000E+00  0.79290483919E+02  0.79290483919E+02  0.00000000000E+00 0.  1.
          1   -1    0    0  501    0  0.00000000000E+00 -0.00000000000E+00 -0.33083956582E+03  0.33083956582E+03  0.00000000000E+00 0. -1.
         25    2    1    2    0    0 -0.53249060798E+02 -0.48695379831E+02 -0.25513699896E+03  0.29316918054E+03  0.12508628099E+03 0.  0.
          5    1    3    3  502    0 -0.90005303939E+02 -0.23570178782E+02 -0.20952900864E+03  0.22929541192E+03  0.41800000000E+01 0.  1.
         -5    1    3    3    0  502  0.36756243141E+02 -0.25125201050E+02 -0.45607990316E+02  0.63873768624E+02  0.41800000000E+01 0.  1.
        -11    1    1    2    0    0  0.29791820078E+02  0.53052532403E+02 -0.36030694286E+02  0.70713044544E+02  0.00000000000E+00 0. -1.
         11    1    1    2    0    0  0.23457240721E+02 -0.43571525720E+01  0.39618611340E+02  0.46247824655E+02  0.00000000000E+00 0.  1.
</event>
<event>
 7    1  0.2380582E-009  0.8949809E+02  0.7561462E-02  0.1304072E+00
         -1   -1    0    0    0  501 -0.00000000000E+00  0.00000000000E+00  0.10917901812E+02  0.10917901812E+02  0.00000000000E+00 0.  1.
          1   -1    0    0  501    0  0.00000000000E+00 -0.00000000000E+00 -0.10843336347E+04  0.10843336347E+04  0.00000000000E+00 0. -1.
         25    2    1    2    0    0  0.18455692390E+02 -0.39944231864E+01 -0.70943402157E+03  0.72062526159E+03  0.12509024216E+03 0.  0.
          5    1    3    3  502    0  0.25824849807E+02 -0.45965897988E+02 -0.14120007613E+03  0.15078037188E+03  0.41800000000E+01 0. -1.
         -5    1    3    3    0  502 -0.73691574173E+01  0.41971474802E+02 -0.56823394544E+03  0.56984488971E+03  0.41800000000E+01 0. -1.
        -11    1    1    2    0    0 -0.42952272854E+02  0.26127410993E+02 -0.27829110197E+03  0.28279582172E+03  0.00000000000E+00 0.  1.
         11    1    1    2    0    0  0.24496580464E+02 -0.22132987807E+02 -0.85690609300E+02  0.91830453151E+02  0.00000000000E+00 0. -1.
</event>
<event>
 7    1  0.2380582E-009  0.8308960E+02  0.7561462E-02  0.1320505E+00
          1   -1    0    0  501    0  0.00000000000E+00  0.00000000000E+00  0.23510542818E+03  0.23510542818E+03  0.00000000000E+00 0. -1.
         -1   -1    0    0    0  501 -0.00000000000E+00 -0.00000000000E+00 -0.53240648905E+02  0.53240648905E+02  0.00000000000E+00 0.  1.
         25    2    1    2    0    0 -0.21441803415E+02 -0.12510366858E+02  0.85223040422E+02  0.15337354667E+03  0.12507684832E+03 0.  0.
          5    1    3    3  502    0  0.34734923245E+02  0.14762045038E+02  0.82393968076E+02  0.90723046916E+02  0.41800000000E+01 0.  1.
         -5    1    3    3    0  502 -0.56176726660E+02 -0.27272411896E+02  0.28290723461E+01  0.62650499752E+02  0.41800000000E+01 0.  1.
        -11    1    1    2    0    0  0.36423474002E+02 -0.10728513545E+02  0.10014516609E+03  0.10710193627E+03  0.00000000000E+00 0. -1.
         11    1    1    2    0    0 -0.14981670587E+02  0.23238880403E+02 -0.35034272337E+01  0.27870594151E+02  0.00000000000E+00 0.  1.
</event>
<event>
 7    1  0.2380582E-009  0.7766633E+02  0.7561462E-02  0.1335808E+00
         -1   -1    0    0    0  501 -0.00000000000E+00  0.00000000000E+00  0.19286535207E+02  0.19286535207E+02  0.00000000000E+00 0.  1.
          1   -1    0    0  501    0  0.00000000000E+00 -0.00000000000E+00 -0.70570743682E+03  0.70570743682E+03  0.00000000000E+00 0. -1.
         25    2    1    2    0    0  0.24976351978E+02  0.33588636891E+02 -0.33770506814E+03  0.36255466816E+03  0.12509660135E+03 0.  0.
          5    1    3    3  502    0  0.13049115664E+02  0.52351394570E+02 -0.49117575148E+02  0.73081848098E+02  0.41800000000E+01 0. -1.
         -5    1    3    3    0  502  0.11927236315E+02 -0.18762757679E+02 -0.28858749299E+03  0.28947282006E+03  0.41800000000E+01 0. -1.
        -11    1    1    2    0    0  0.23037817542E+02 -0.11310590690E+02 -0.30544858973E+02  0.39895600115E+02  0.00000000000E+00 0.  1.
         11    1    1    2    0    0 -0.48014169520E+02 -0.22278046201E+02 -0.31817097450E+03  0.32254370375E+03  0.00000000000E+00 0. -1.
</event>
<event>
 7    1  0.2380582E-009  0.1258128E+03  0.7561462E-02  0.1233804E+00
          4   -1    0    0  501    0  0.00000000000E+00  0.00000000000E+00  0.96200717730E+02  0.96200717730E+02  0.00000000000E+00 0. -1.
         -4   -1    0    0    0  501 -0.00000000000E+00 -0.00000000000E+00 -0.19276080654E+03  0.19276080654E+03  0.00000000000E+00 0.  1.
         25    2    1    2    0    0  0.47021174429E+02 -0.75992964105E+02 -0.81262310028E+02  0.17388646524E+03  0.12508804229E+03 0.  0.
          5    1    3    3  502    0  0.11557523935E+02  0.28016481325E+02  0.87013719410E+01  0.31807009589E+02  0.41800000000E+01 0. -1.
         -5    1    3    3    0  502  0.35463650494E+02 -0.10400944543E+03 -0.89963681969E+02  0.14207945565E+03  0.41800000000E+01 0. -1.
        -11    1    1    2    0    0 -0.46099173472E+02  0.87828659085E+02 -0.21771719298E+02  0.10155301528E+03  0.00000000000E+00 0.  1.
         11    1    1    2    0    0 -0.92200095723E+00 -0.11835694980E+02  0.64739405125E+01  0.13522043750E+02  0.00000000000E+00 0. -1.
</event>
<event>
 7    1  0.2380582E-009  0.1567177E+03  0.7561462E-02  0.1192453E+00
         -4   -1    0    0    0  501 -0.00000000000E+00  0.00000000000E+00  0.31547484818E+02  0.31547484818E+02  0.00000000000E+00 0.  1.
          4   -1    0    0  501    0  0.00000000000E+00 -0.00000000000E+00 -0.91173882591E+03  0.91173882591E+03  0.00000000000E+00 0. -1.
         25    2    1    2    0    0  0.21289972948E+02 -0.12490593271E+03 -0.38778007100E+03  0.42670343298E+03  0.12509069221E+03 0.  0.
          5    1    3    3  502    0 -0.43269016411E+02 -0.99058616290E+02 -0.22570753299E+03  0.25029218943E+03  0.41800000000E+01 0. -1.
         -5    1    3    3    0  502  0.64558989359E+02 -0.25847316416E+02 -0.16207253801E+03  0.17641124355E+03  0.41800000000E+01 0. -1.
        -11    1    1    2    0    0  0.15675661904E+02  0.33145608807E+02 -0.43455377286E+02  0.56857080248E+02  0.00000000000E+00 0.  1.
         11    1    1    2    0    0 -0.36965634852E+02  0.91760323899E+02 -0.44895589281E+03  0.45972579751E+03  0.00000000000E+00 0. -1.
</event>
<event>
 7    1  0.2380582E-009  0.8965295E+02  0.7561462E-02  0.1303694E+00
          1   -1    0    0  501    0  0.00000000000E+00  0.00000000000E+00  0.32217682189E+02  0.32217682189E+02  0.00000000000E+00 0. -1.
         -1   -1    0    0    0  501 -0.00000000000E+00 -0.00000000000E+00 -0.46425750458E+03  0.46425750458E+03  0.00000000000E+00 0.  1.
         25    2    1    2    0    0  0.32651729231E+02  0.19515506898E+02 -0.32313400755E+03  0.34858501416E+03  0.12509570269E+03 0.  0.
          5    1    3    3  502    0  0.59159771882E+02  0.25042447677E+02 -0.74566922171E+02  0.98512441229E+02  0.41800000000E+01 0. -1.
         -5    1    3    3    0  502 -0.26508042651E+02 -0.55269407789E+01 -0.24856708538E+03  0.25007257293E+03  0.41800000000E+01 0. -1.
        -11    1    1    2    0    0  0.18060905250E+02  0.17184730631E+02 -0.69706396658E+02  0.74030351886E+02  0.00000000000E+00 0.  1.
         11    1    1    2    0    0 -0.50712634481E+02 -0.36700237528E+02 -0.39199418178E+02  0.73859820715E+02  0.00000000000E+00 0. -1.
</event>
<event>
 7    1  0.2380582E-009  0.7553399E+02  0.7561462E-02  0.1342225E+00
          2   -1    0    0  501    0  0.00000000000E+00  0.00000000000E+00  0.22748601984E+03  0.22748601984E+03  0.00000000000E+00 0. -1.
         -2   -1    0    0    0  501 -0.00000000000E+00 -0.00000000000E+00 -0.56333186888E+02  0.56333186888E+02  0.00000000000E+00 0.  1.
         25    2    1    2    0    0 -0.46706922022E+01 -0.13809694428E+02  0.13230869416E+03  0.18266117903E+03  0.12508794006E+03 0.  0.
          5    1    3    3  502    0 -0.27893103599E+02  0.37133523413E+02  0.94440143498E+01  0.47577154144E+02  0.41800000000E+01 0. -1.
         -5    1    3    3    0  502  0.23222411397E+02 -0.50943217840E+02  0.12286467981E+03  0.13508402489E+03  0.41800000000E+01 0. -1.
        -11    1    1    2    0    0 -0.20577036108E+02  0.28581661421E+01 -0.24483129949E+02  0.32109300534E+02  0.00000000000E+00 0.  1.
         11    1    1    2    0    0  0.25247728310E+02  0.10951528285E+02  0.63327268744E+02  0.69048727166E+02  0.00000000000E+00 0. -1.
</event>
<event>
 7    1  0.2380582E-009  0.1685704E+03  0.7561462E-02  0.1179347E+00
          1   -1    0    0  501    0  0.00000000000E+00  0.00000000000E+00  0.30485785935E+03  0.30485785935E+03  0.00000000000E+00 0. -1.
         -1   -1    0    0    0  501 -0.00000000000E+00 -0.00000000000E+00 -0.10966797752E+03  0.10966797752E+03  0.00000000000E+00 0.  1.
         25    2    1    2    0    0 -0.12579522463E+03  0.74171251768E+02  0.84824655230E+02  0.21016274666E+03  0.12508934735E+03 0.  0.
          5    1    3    3  502    0  0.24393794885E+02  0.57479959079E+01  0.21696452478E+02  0.33411152869E+02  0.41800000000E+01 0.  1.
         -5    1    3    3    0  502 -0.15018901951E+03  0.68423255860E+02  0.63128202751E+02  0.17675159379E+03  0.41800000000E+01 0.  1.
        -11    1    1    2    0    0  0.29865684462E+02 -0.11245383929E+02 -0.14275307339E+02  0.34960008119E+02  0.00000000000E+00 0.  1.
         11    1    1    2    0    0  0.95929540164E+02 -0.62925867839E+02  0.12464053394E+03  0.16940308209E+03  0.00000000000E+00 0. -1.
</event>
<event>
 7    1  0.2380582E-009  0.1204446E+03  0.7561462E-02  0.1242365E+00
         -2   -1    0    0    0  501 -0.00000000000E+00  0.00000000000E+00  0.23301349959E+02  0.23301349959E+02  0.00000000000E+00 0. -1.
          2   -1    0    0  501    0  0.00000000000E+00 -0.00000000000E+00 -0.65694496796E+03  0.65694496796E+03  0.00000000000E+00 0.  1.
         25    2    1    2    0    0 -0.54925981769E+02  0.19625512622E+02 -0.31191442202E+03  0.34108734260E+03  0.12509174393E+03 0.  0.
          5    1    3    3  502    0  0.12855247557E+02  0.55251392608E+02 -0.17682559770E+03  0.18574912699E+03  0.41800000000E+01 0.  1.
         -5    1    3    3    0  502 -0.67781229326E+02 -0.35625879986E+02 -0.13508882432E+03  0.15533821561E+03  0.41800000000E+01 0.  1.
        -11    1    1    2    0    0  0.10795137472E+02  0.35270587614E+02 -0.11234701421E+03  0.11824720269E+03  0.00000000000E+00 0.  1.
         11    1    1    2    0    0  0.44130844297E+02 -0.54896100236E+02 -0.20938218177E+03  0.22091177262E+03  0.00000000000E+00 0. -1.
</event>
<event>
 7    1  0.2380582E-009  0.1167632E+03  0.7561462E-02  0.1248534E+00
          1   -1    0    0  501    0  0.00000000000E+00  0.00000000000E+00  0.50238014399E+03  0.50238014399E+03  0.00000000000E+00 0. -1.
         -1   -1    0    0    0  501 -0.00000000000E+00 -0.00000000000E+00 -0.37159870484E+02  0.37159870484E+02  0.00000000000E+00 0.  1.
         25    2    1    2    0    0  0.69316136617E+02  0.40604577362E+02  0.30265289991E+03  0.33719384343E+03  0.12508977466E+03 0.  0.
          5    1    3    3  502    0 -0.14075068494E+02  0.27180492085E+02  0.98531742790E+01  0.32425979499E+02  0.41800000000E+01 0.  1.
         -5    1    3    3    0  502  0.83391205112E+02  0.13424085276E+02  0.29279972563E+03  0.30476786393E+03  0.41800000000E+01 0.  1.
        -11    1    1    2    0    0  0.10524962242E+02 -0.36644882784E+02  0.72546609467E+02  0.81955065796E+02  0.00000000000E+00 0.  1.
         11    1    1    2    0    0 -0.79841098860E+02 -0.39596945780E+01  0.90020764128E+02  0.12039110525E+03  0.00000000000E+00 0. -1.
</event>
<event>
 7    1  0.2380582E-009  0.1702712E+03  0.7561462E-02  0.1177565E+00
         -1   -1    0    0    0  501 -0.00000000000E+00  0.00000000000E+00  0.87035314619E+03  0.87035314619E+03  0.00000000000E+00 0.  1.
          1   -1    0    0  501    0  0.00000000000E+00 -0.00000000000E+00 -0.38750651664E+02  0.38750651664E+02  0.00000000000E+00 0. -1.
         25    2    1    2    0    0 -0.14339991021E+03  0.97703248181E+01  0.44892812949E+03  0.48769099780E+03  0.12508817048E+03 0.  0.
          5    1    3    3  502    0 -0.15514280355E+03  0.64815265210E+01  0.44866864807E+03  0.47479714389E+03  0.41800000000E+01 0.  1.
         -5    1    3    3    0  502  0.11742893337E+02  0.32887982971E+01  0.25948141402E+00  0.12893853914E+02  0.41800000000E+01 0.  1.
        -11    1    1    2    0    0  0.12642515173E+03  0.29249492806E+02  0.24404502759E+03  0.27639975997E+03  0.00000000000E+00 0. -1.
         11    1    1    2    0    0  0.16974758478E+02 -0.39019817624E+02  0.13862933745E+03  0.14501304008E+03  0.00000000000E+00 0.  1.
</event>
<event>
 7    1  0.2380582E-009  0.1183460E+03  0.7561462E-02  0.1245851E+00
          1   -1    0    0  501    0  0.00000000000E+00  0.00000000000E+00  0.67287638117E+02  0.67287638117E+02  0.00000000000E+00 0. -1.
         -1   -1    0    0    0  501 -0.00000000000E+00 -0.00000000000E+00 -0.23228239796E+03  0.23228239796E+03  0.00000000000E+00 0.  1.
         25    2    1    2    0    0 -0.40742072524E+01  0.56754952225E+02 -0.11530632069E+03  0.17940008401E+03  0.12510443152E+03 0.  0.
          5    1    3    3  502    0  0.59161934316E+02  0.19738564508E+02 -0.66470103450E+02  0.91244136544E+02  0.41800000000E+01 0. -1.
         -5    1    3    3    0  502 -0.63236141569E+02  0.37016387717E+02 -0.48836217238E+02  0.88155947470E+02  0.41800000000E+01 0. -1.
        -11    1    1    2    0    0  0.34453812730E+02 -0.61058492270E+02 -0.11279413609E+02  0.71010068732E+02  0.00000000000E+00 0.  1.
         11    1    1    2    0    0 -0.30379605478E+02  0.43035400453E+01 -0.38409025549E+02  0.49159883336E+02  0.00000000000E+00 0. -1.
</event>
<event>
 7    1  0.2380582E-009  0.1335524E+03  0.7561462E-02  0.1222278E+00
          1   -1    0    0  501    0  0.00000000000E+00  0.00000000000E+00  0.33457757264E+03  0.33457757264E+03  0.00000000000E+00 0. -1.
         -1   -1    0    0    0  501 -0.00000000000E+00 -0.00000000000E+00 -0.62826411561E+02  0.62826411561E+02  0.00000000000E+00 0.  1.
         25    2    1    2    0    0 -0.25223050036E+02  0.93171649471E+02  0.16379776969E+03  0.22758734007E+03  0.12509648070E+03 0.  0.
          5    1    3    3  502    0 -0.60005224920E+02  0.12343100043E+02  0.10512028912E+03  0.12174040710E+03  0.41800000000E+01 0. -1.
         -5    1    3    3    0  502  0.34782174885E+02  0.80828549429E+02  0.58677480579E+02  0.10584693297E+03  0.41800000000E+01 0. -1.
        -11    1    1    2    0    0 -0.76906214112E+01 -0.82715585482E+02  0.10674501514E+03  0.13526090343E+03  0.00000000000E+00 0. -1.
         11    1    1    2    0    0  0.32913671447E+02 -0.10456063990E+02  0.12083762431E+01  0.34555740701E+02  0.00000000000E+00 0.  1.
</event>
<event>
 7    1  0.2380582E-009  0.1942982E+03  0.7561462E-02  0.1154641E+00
         -2   -1    0    0    0  501 -0.00000000000E+00  0.00000000000E+00  0.93836747075E+02  0.93836747075E+02  0.00000000000E+00 0.  1.
          2   -1    0    0  501    0  0.00000000000E+00 -0.00000000000E+00 -0.51579122248E+03  0.51579122248E+03  0.00000000000E+00 0. -1.
         25    2    1    2    0    0 -0.14030711165E+03  0.10598161024E+03 -0.32195704492E+03  0.38758323748E+03  0.12508493078E+03 0.  0.
          5    1    3    3  502    0 -0.98766932202E+01  0.52945820285E+02 -0.26296941991E+02  0.60081698650E+02  0.41800000000E+01 0. -1.
         -5    1    3    3    0  502 -0.13043041843E+03  0.53035789959E+02 -0.29566010293E+03  0.32750153883E+03  0.41800000000E+01 0. -1.
        -11    1    1    2    0    0  0.88356412672E+02 -0.15974905824E+02 -0.70081383007E+02  0.11390106901E+03  0.00000000000E+00 0.  1.
         11    1    1    2    0    0  0.51950698982E+02 -0.90006704420E+02 -0.29916047471E+02  0.10814366307E+03  0.00000000000E+00 0. -1.
</event>
<event>
 7    1  0.2380582E-009  0.1651965E+03  0.7561462E-02  0.1182952E+00
         -2   -1    0    0    0  501 -0.00000000000E+00  0.00000000000E+00  0.14092094130E+03  0.14092094130E+03  0.00000000000E+00 0.  1.
          2   -1    0    0  501    0  0.00000000000E+00 -0.00000000000E+00 -0.28709238400E+03  0.28709238400E+03  0.00000000000E+00 0. -1.
         25    2    1    2    0    0  0.15300942213E+03 -0.36385946879E+02 -0.14279689778E+03  0.24652594513E+03  0.12509303424E+03 0.  0.
          5    1    3    3  502    0  0.77733187269E+02 -0.25960243797E+02 -0.14906416189E+03  0.17015868893E+03  0.41800000000E+01 0.  1.
         -5    1    3    3    0  502  0.75276234862E+02 -0.10425703082E+02  0.62672641024E+01  0.76367256197E+02  0.41800000000E+01 0.  1.
        -11    1    1    2    0    0 -0.80118847802E+02  0.54769698899E+02  0.26487955383E+02  0.10060000731E+03  0.00000000000E+00 0.  1.
         11    1    1    2    0    0 -0.72890574329E+02 -0.18383752020E+02 -0.29862500302E+02  0.80887372863E+02  0.00000000000E+00 0. -1.
</event>
<event>
 7    1  0.2380582E-009  0.1211515E+03  0.7561462E-02  0.1241210E+00
          2   -1    0    0  501    0  0.00000000000E+00  0.00000000000E+00  0.58183646575E+03  0.58183646575E+03  0.00000000000E+00 0. -1.
         -2   -1    0    0    0  501 -0.00000000000E+00 -0.00000000000E+00 -0.37764093561E+02  0.37764093561E+02  0.00000000000E+00 0.  1.
         25    2    1    2    0    0 -0.78280141985E+02  0.42349296854E+02  0.39760926335E+03  0.42621811178E+03  0.12509000334E+03 0.  0.
          5    1    3    3  502    0 -0.10580824783E+03  0.24551567732E+02  0.36048302214E+03  0.37651513441E+03  0.41800000000E+01 0.  1.
         -5    1    3    3    0  502  0.27528105845E+02  0.17797729122E+02  0.37126241210E+02  0.49702977373E+02  0.41800000000E+01 0.  1.
        -11    1    1    2    0    0  0.43970993917E+02 -0.48755988068E+02  0.30710967240E+02  0.72482813048E+02  0.00000000000E+00 0.  1.
         11    1    1    2    0    0  0.34309148068E+02  0.64066912138E+01  0.11575214159E+03  0.12089963448E+03  0.00000000000E+00 0. -1.
</event>
<event>
 7    1  0.2380582E-009  0.1225454E+03  0.7561462E-02  0.1238956E+00
         -1   -1    0    0    0  501 -0.00000000000E+00  0.00000000000E+00  0.33542903846E+03  0.33542903846E+03  0.00000000000E+00 0.  1.
          1   -1    0    0  501    0  0.00000000000E+00 -0.00000000000E+00 -0.76256031359E+02  0.76256031359E+02  0.00000000000E+00 0. -1.
         25    2    1    2    0    0  0.25207305054E+02 -0.76962812437E+02  0.29238989205E+02  0.15185534499E+03  0.12508574894E+03 0.  0.
          5    1    3    3  502    0  0.60084997912E+02 -0.36127634081E+02 -0.25819658025E+02  0.74830074562E+02  0.41800000000E+01 0.  1.
         -5    1    3    3    0  502 -0.34877692859E+02 -0.40835178356E+02  0.55058647229E+02  0.77025270433E+02  0.41800000000E+01 0.  1.
        -11    1    1    2    0    0  0.12381008570E+01 -0.20228541245E+02  0.37158641094E+02  0.42326013072E+02  0.00000000000E+00 0.  1.
         11    1    1    2    0    0 -0.26445405911E+02  0.97191353682E+02  0.19277537680E+03  0.21750371175E+03  0.00000000000E+00 0. -1.
</event>
<event>
 7    1  0.2380582E-009  0.9234782E+02  0.7561462E-02  0.1297264E+00
         -2   -1    0    0    0  501 -0.00000000000E+00  0.00000000000E+00  0.31442150840E+02  0.31442150840E+02  0.00000000000E+00 0.  1.
          2   -1    0    0  501    0  0.00000000000E+00 -0.00000000000E+00 -0.39435335082E+03  0.39435335082E+03  0.00000000000E+00 0. -1.
         25    2    1    2    0    0 -0.10005463481E+02  0.30151329779E+02 -0.22535561110E+03  0.25969566650E+03  0.12508987072E+03 0.  0.
          5    1    3    3  502    0  0.40348278418E+02  0.43258064357E+02 -0.52744181526E+02  0.79364127842E+02  0.41800000000E+01 0. -1.
         -5    1    3    3    0  502 -0.50353741899E+02 -0.13106734579E+02 -0.17261142957E+03  0.18033153866E+03  0.41800000000E+01 0. -1.
        -11    1    1    2    0    0 -0.28340758890E+02 -0.12224826267E+02 -0.11305186870E+03  0.11718946202E+03  0.00000000000E+00 0. -1.
         11    1    1    2    0    0  0.38346222371E+02 -0.17926503512E+02 -0.24503720179E+02  0.48910373142E+02  0.00000000000E+00 0.  1.
</event>
<event>
 7    1  0.2380582E-009  0.1415259E+03  0.7561462E-02  0.1211290E+00
          2   -1    0    0  501    0  0.00000000000E+00  0.00000000000E+00  0.49676947242E+03  0.49676947242E+03  0.00000000000E+00 0. -1.
         -2   -1    0    0    0  501 -0.00000000000E+00 -0.00000000000E+00 -0.59986352946E+02  0.59986352946E+02  0.00000000000E+00 0.  1.
         25    2    1    2    0    0 -0.12487652158E+03 -0.63770427267E+01  0.30739870437E+03  0.35464954418E+03  0.12509006124E+03 0.  0.
          5    1    3    3  502    0  0.21367372133E+01  0.11843233089E+02 -0.73621165418E+01  0.14713972132E+02  0.41800000000E+01 0.  1.
         -5    1    3    3    0  502 -0.12701325880E+03 -0.18220275816E+02  0.31476082091E+03  0.33993557204E+03  0.41800000000E+01 0.  1.
        -11    1    1    2    0    0  0.11714625254E+03  0.26731564439E+02  0.70470935101E+02  0.13929814685E+03  0.00000000000E+00 0.  1.
         11    1    1    2    0    0  0.77302690467E+01 -0.20354521712E+02  0.58913480002E+02  0.62808134343E+02  0.00000000000E+00 0. -1.
</event>
<event>
 7    1  0.2380582E-009  0.1174641E+03  0.7561462E-02  0.1247340E+00
          1   -1    0    0  501    0  0.00000000000E+00  0.00000000000E+00  0.33979049640E+03  0.33979049640E+03  0.00000000000E+00 0. -1.
         -1   -1    0    0    0  501 -0.00000000000E+00 -0.00000000000E+00 -0.63741154138E+02  0.63741154138E+02  0.00000000000E+00 0.  1.
         25    2    1    2    0    0 -0.93127724542E+02  0.35885846332E+02  0.15842098841E+03  0.22517586644E+03  0.12508554758E+03 0.  0.
          5    1    3    3  502    0 -0.50721225662E+02  0.33064188289E+02  0.17034791656E+03  0.18083630265E+03  0.41800000000E+01 0. -1.
         -5    1    3    3    0  502 -0.42406498880E+02  0.28216580426E+01 -0.11926928155E+02  0.44339563785E+02  0.41800000000E+01 0. -1.
        -11    1    1    2    0    0  0.10853719665E+03 -0.21905115814E+02  0.84708819442E+02  0.13941212733E+03  0.00000000000E+00 0.  1.
         11    1    1    2    0    0 -0.15409472112E+02 -0.13980730518E+02  0.32919534416E+02  0.38943656771E+02  0.00000000000E+00 0. -1.
</event>
<event>
 7    1  0.2380582E-009  0.1143924E+03  0.7561462E-02  0.1252645E+00
         -2   -1    0    0    0  501 -0.00000000000E+00  0.00000000000E+00  0.21764049075E+02  0.21764049075E+02  0.00000000000E+00 0. -1.
          2   -1    0    0  501    0  0.00000000000E+00 -0.00000000000E+00 -0.10455821814E+04  0.10455821814E+04  0.00000000000E+00 0.  1.
         25    2    1    2    0    0 -0.10167642813E+03 -0.14942230977E+02 -0.63893589127E+03  0.65912621120E+03  0.12508766062E+03 0.  0.
          5    1    3    3  502    0 -0.68237931325E+02 -0.31375614915E+02 -0.14125654673E+03  0.16003664855E+03  0.41800000000E+01 0. -1.
         -5    1    3    3    0  502 -0.33438496804E+02  0.16433383938E+02 -0.49767934453E+03  0.49908956265E+03  0.41800000000E+01 0. -1.
        -11    1    1    2    0    0  0.91410510989E+02  0.31417587998E+02 -0.37330938397E+03  0.38562007535E+03  0.00000000000E+00 0.  1.
         11    1    1    2    0    0  0.10265917141E+02 -0.16475357021E+02 -0.11572857075E+02  0.22599943907E+02  0.00000000000E+00 0. -1.
</event>
<event>
 7    1  0.2380582E-009  0.1048786E+03  0.7561462E-02  0.1270359E+00
         -1   -1    0    0    0  501 -0.00000000000E+00  0.00000000000E+00  0.54580283937E+03  0.54580283937E+03  0.00000000000E+00 0.  1.
          1   -1    0    0  501    0  0.00000000000E+00 -0.00000000000E+00 -0.29728041482E+02  0.29728041482E+02  0.00000000000E+00 0. -1.
         25    2    1    2    0    0 -0.10813613955E+02 -0.24435488068E+02  0.14754155235E+03  0.19526936752E+03  0.12509032296E+03 0.  0.
          5    1    3    3  502    0  0.54405143029E+02 -0.29313085540E+01  0.40467601141E+02  0.67997141851E+02  0.41800000000E+01 0. -1.
         -5    1    3    3    0  502 -0.65218756984E+02 -0.21504179514E+02  0.10707395121E+03  0.12727222567E+03  0.41800000000E+01 0. -1.
        -11    1    1    2    0    0  0.21535526028E+02  0.52244516508E+02  0.30360815014E+03  0.30882224210E+03  0.00000000000E+00 0.  1.
         11    1    1    2    0    0 -0.10721912073E+02 -0.27809028439E+02  0.64925095390E+02  0.71439271221E+02  0.00000000000E+00 0. -1.
</event>
<event>
 7    1  0.2380582E-009  0.2564766E+03  0.7561462E-02  0.1109279E+00
         -3   -1    0    0    0  501 -0.00000000000E+00  0.00000000000E+00  0.50801036908E+02  0.50801036908E+02  0.00000000000E+00 0.  1.
          3   -1    0    0  501    0  0.00000000000E+00 -0.00000000000E+00 -0.14230761331E+04  0.14230761331E+04  0.00000000000E+00 0. -1.
         25    2    1    2    0    0 -0.24551467796E+03 -0.68353798606E+01 -0.70703546047E+03  0.75886114402E+03  0.12508762539E+03 0.  0.
          5    1    3    3  502    0 -0.12610256479E+01  0.14101020870E+02 -0.14402334814E+03  0.14477785115E+03  0.41800000000E+01 0.  1.
         -5    1    3    3    0  502 -0.24425365231E+03 -0.20936400730E+02 -0.56301211233E+03  0.61408329287E+03  0.41800000000E+01 0.  1.
        -11    1    1    2    0    0  0.14326337854E+03  0.33930182209E+02 -0.29113791396E+03  0.32624674380E+03  0.00000000000E+00 0. -1.
         11    1    1    2    0    0  0.10225129942E+03 -0.27094802349E+02 -0.37410172172E+03  0.38876928215E+03  0.00000000000E+00 0.  1.
</event>
<event>
 7    1  0.2380582E-009  0.9812751E+02  0.7561462E-02  0.1284284E+00
          2   -1    0    0  501    0  0.00000000000E+00  0.00000000000E+00  0.21201255188E+03  0.21201255188E+03  0.00000000000E+00 0. -1.
         -2   -1    0    0    0  501 -0.00000000000E+00 -0.00000000000E+00 -0.68929184570E+02  0.68929184570E+02  0.00000000000E+00 0.  1.
         25    2    1    2    0    0 -0.16059037746E+02 -0.46675756172E+02  0.10095353430E+03  0.16815442397E+03  0.12509106805E+03 0.  0.
          5    1    3    3  502    0 -0.51547586235E+02 -0.27162098254E+02  0.11169346725E+03  0.12604696051E+03  0.41800000000E+01 0. -1.
         -5    1    3    3    0  502  0.35488548489E+02 -0.19513657918E+02 -0.10739932947E+02  0.42107463458E+02  0.41800000000E+01 0. -1.
        -11    1    1    2    0    0 -0.30781908229E+02  0.38959039018E+02  0.51134352651E+00  0.49654748692E+02  0.00000000000E+00 0.  1.
         11    1    1    2    0    0  0.46840945975E+02  0.77167171538E+01  0.41618489477E+02  0.63132563783E+02  0.00000000000E+00 0. -1.
</event>
<event>
 7    1  0.2380582E-009  0.9564810E+02  0.7561462E-02  0.1289723E+00
         -1   -1    0    0    0  501 -0.00000000000E+00  0.00000000000E+00  0.12710007360E+03  0.12710007360E+03  0.00000000000E+00 0.  1.
          1   -1    0    0  501    0  0.00000000000E+00 -0.00000000000E+00 -0.27045353102E+03  0.27045353102E+03  0.00000000000E+00 0. -1.
         25    2    1    2    0    0  0.29239012629E+02 -0.13054130824E+02  0.81716985565E+02  0.15280999976E+03  0.12509156689E+03 0.  0.
          5    1    3    3  502    0 -0.32524267593E+02  0.15121999451E+02  0.76500631643E+02  0.84595046496E+02  0.41800000000E+01 0. -1.
         -5    1    3    3    0  502  0.61763280222E+02 -0.28176130275E+02  0.52163539216E+01  0.68214953268E+02  0.41800000000E+01 0. -1.
        -11    1    1    2    0    0  0.66664263993E+01  0.41082913838E+02 -0.56796828414E+02  0.70413967139E+02  0.00000000000E+00 0.  1.
         11    1    1    2    0    0 -0.35905439029E+02 -0.28028783014E+02 -0.16827361457E+03  0.17432963773E+03  0.00000000000E+00 0. -1.
</event>
<event>
 7    1  0.2380582E-009  0.1874198E+03  0.7561462E-02  0.1160809E+00
          2   -1    0    0  501    0  0.00000000000E+00  0.00000000000E+00  0.19278001232E+04  0.19278001232E+04  0.00000000000E+00 0. -1.
         -2   -1    0    0    0  501 -0.00000000000E+00 -0.00000000000E+00 -0.20863909755E+02  0.20863909755E+02  0.00000000000E+00 0.  1.
         25    2    1    2    0    0  0.17035344947E+01 -0.16639013718E+03  0.11166786976E+04  0.11359158269E+04  0.12507946444E+03 0.  0.
          5    1    3    3  502    0 -0.31107897655E+02 -0.23520069902E+02  0.82015004068E+02  0.90911100955E+02  0.41800000000E+01 0.  1.
         -5    1    3    3    0  502  0.32811432149E+02 -0.14287006728E+03  0.10346636935E+04  0.10450047260E+04  0.41800000000E+01 0.  1.
        -11    1    1    2    0    0  0.29811898915E+02  0.15096566285E+03  0.61020893800E+03  0.62931258425E+03  0.00000000000E+00 0. -1.
         11    1    1    2    0    0 -0.31515433410E+02  0.15424474335E+02  0.18004857782E+03  0.18343562175E+03  0.00000000000E+00 0.  1.
</event>
<event>
 7    1  0.2380582E-009  0.5332843E+02  0.7561462E-02  0.1428173E+00
          2   -1    0    0  501    0  0.00000000000E+00  0.00000000000E+00  0.12042761786E+03  0.12042761786E+03  0.00000000000E+00 0. -1.
         -2   -1    0    0    0  501 -0.00000000000E+00 -0.00000000000E+00 -0.11592335047E+03  0.11592335047E+03  0.00000000000E+00 0.  1.
         25    2    1    2    0    0 -0.13702205596E+02  0.24103914232E+02 -0.20242986216E+02  0.12971340510E+03  0.12508812834E+03 0.  0.
          5    1    3    3  502    0 -0.10891432126E+02  0.27482649181E+01  0.52439230427E+02  0.53791463464E+02  0.41800000000E+01 0. -1.
         -5    1    3    3    0  502 -0.28107734701E+01  0.21355649314E+02 -0.72682216643E+02  0.75921941632E+02  0.41800000000E+01 0. -1.
        -11    1    1    2    0    0 -0.27347632507E+02 -0.12517060069E+02 -0.26413833738E+02  0.40028245144E+02  0.00000000000E+00 0.  1.
         11    1    1    2    0    0  0.41049838103E+02 -0.11586854163E+02  0.51161087351E+02  0.66609318092E+02  0.00000000000E+00 0. -1.
</event>
<event>
 7    1  0.2380582E-009  0.9737999E+02  0.7561462E-02  0.1285904E+00
         -4   -1    0    0    0  501 -0.00000000000E+00  0.00000000000E+00  0.39851351571E+03  0.39851351571E+03  0.00000000000E+00 0.  1.
          4   -1    0    0  501    0  0.00000000000E+00 -0.00000000000E+00 -0.38133879337E+02  0.38133879337E+02  0.00000000000E+00 0. -1.
         25    2    1    2    0    0 -0.11325927445E+02 -0.56791926907E+02  0.23248647994E+03  0.27027970002E+03  0.12509018066E+03 0.  0.
          5    1    3    3  502    0  0.29366684471E+02 -0.36791091380E+00  0.22769222179E+01  0.29752214877E+02  0.41800000000E+01 0.  1.
         -5    1    3    3    0  502 -0.40692611916E+02 -0.56424015993E+02  0.23020955772E+03  0.24052748515E+03  0.41800000000E+01 0.  1.
        -11    1    1    2    0    0  0.32759059063E+02 -0.20056521230E+01  0.12545275852E+02  0.35136342117E+02  0.00000000000E+00 0. -1.
         11    1    1    2    0    0 -0.21433131619E+02  0.58797579030E+02  0.11534788059E+03  0.13123135291E+03  0.00000000000E+00 0.  1.
</event>
<event>
 7    1  0.2380582E-009  0.9509436E+02  0.7561462E-02  0.1290964E+00
          1   -1    0    0  501    0  0.00000000000E+00  0.00000000000E+00  0.10015478038E+03  0.10015478038E+03  0.00000000000E+00 0. -1.
         -1   -1    0    0    0  501 -0.00000000000E+00 -0.00000000000E+00 -0.17657991514E+03  0.17657991514E+03  0.00000000000E+00 0.  1.
         25    2    1    2    0    0  0.49714617826E+02  0.31685710614E+02 -0.40045456192E+02  0.14396686747E+03  0.12508913975E+03 0.  0.
          5    1    3    3  502    0 -0.22753623621E+01 -0.32311058835E+02 -0.51126132095E+02  0.60667417779E+02  0.41800000000E+01 0. -1.
         -5    1    3    3    0  502  0.51989980188E+02  0.63996769449E+02  0.11080675903E+02  0.83299449688E+02  0.41800000000E+01 0. -1.
        -11    1    1    2    0    0  0.74698926705E+01 -0.12667188426E+02 -0.64579084674E+02  0.66232281679E+02  0.00000000000E+00 0.  1.
         11    1    1    2    0    0 -0.57184510496E+02 -0.19018522188E+02  0.28199406099E+02  0.66535546374E+02  0.00000000000E+00 0. -1.
</event>
<event>
 7    1  0.2380582E-009  0.1482992E+03  0.7561462E-02  0.1202579E+00
          1   -1    0    0  501    0  0.00000000000E+00  0.00000000000E+00  0.11295199138E+04  0.11295199138E+04  0.00000000000E+00 0. -1.
         -1   -1    0    0    0  501 -0.00000000000E+00 -0.00000000000E+00 -0.20054460564E+02  0.20054460564E+02  0.00000000000E+00 0.  1.
         25    2    1    2    0    0 -0.83749617399E+02 -0.59974369025E+02  0.65049708874E+03  0.67037691173E+03  0.12509123859E+03 0.  0.
          5    1    3    3  502    0 -0.11362600602E+03 -0.65673973615E+02  0.53280996273E+03  0.54875119029E+03  0.41800000000E+01 0. -1.
         -5    1    3    3    0  502  0.29876388620E+02  0.56996045904E+01  0.11768712601E+03  0.12162572145E+03  0.41800000000E+01 0. -1.
        -11    1    1    2    0    0  0.54990507830E+02  0.81745473124E+02  0.37667651985E+03  0.38934750408E+03  0.00000000000E+00 0. -1.
         11    1    1    2    0    0  0.28759109569E+02 -0.21771104099E+02  0.82291844690E+02  0.89849958594E+02  0.00000000000E+00 0.  1.
</event>
<event>
 7    1  0.2380582E-009  0.1065073E+03  0.7561462E-02  0.1267178E+00
          1   -1    0    0  501    0  0.00000000000E+00  0.00000000000E+00  0.32110809080E+02  0.32110809080E+02  0.00000000000E+00 0. -1.
         -1   -1    0    0    0  501 -0.00000000000E+00 -0.00000000000E+00 -0.40258209287E+03  0.40258209287E+03  0.00000000000E+00 0.  1.
         25    2    1    2    0    0  0.26375660089E+02  0.12165475378E+02 -0.24681301712E+03  0.27822439476E+03  0.12509386149E+03 0.  0.
          5    1    3    3  502    0 -0.45376759297E+02  0.81330324885E+01 -0.15376063133E+03  0.16057708632E+03  0.41800000000E+01 0.  1.
         -5    1    3    3    0  502  0.71752419386E+02  0.40324428895E+01 -0.93052385786E+02  0.11764730844E+03  0.41800000000E+01 0.  1.
        -11    1    1    2    0    0 -0.99324783228E+01 -0.51319530073E+02 -0.56157729289E+02  0.76720524317E+02  0.00000000000E+00 0. -1.
         11    1    1    2    0    0 -0.16443181766E+02  0.39154054695E+02 -0.67500537386E+02  0.79747982878E+02  0.00000000000E+00 0.  1.
</event>
<event>
 7    1  0.2380582E-009  0.3506921E+03  0.7561462E-02  0.1062331E+00
         -1   -1    0    0    0  501 -0.00000000000E+00  0.00000000000E+00  0.93968306216E+02  0.93968306216E+02  0.00000000000E+00 0.  1.
          1   -1    0    0  501    0  0.00000000000E+00 -0.00000000000E+00 -0.14459523309E+04  0.14459523309E+04  0.00000000000E+00 0. -1.
         25    2    1    2    0    0  0.11431339482E+03  0.32175270054E+03 -0.86035816180E+03  0.93405351722E+03  0.12508978337E+03 0.  0.
          5    1    3    3  502    0  0.13610947736E+03  0.27827483358E+03 -0.68076709152E+03  0.74794650753E+03  0.41800000000E+01 0.  1.
         -5    1    3    3    0  502 -0.21796082534E+02  0.43477866961E+02 -0.17959107028E+03  0.18610700968E+03  0.41800000000E+01 0.  1.
        -11    1    1    2    0    0 -0.34387274265E+02 -0.14091322994E+03 -0.13526126926E+03  0.19832960940E+03  0.00000000000E+00 0.  1.
         11    1    1    2    0    0 -0.79926120557E+02 -0.18083947061E+03 -0.35636459364E+03  0.40753751051E+03  0.00000000000E+00 0. -1.
</event>
<event>
 7    1  0.2380582E-009  0.1046715E+03  0.7561462E-02  0.1270768E+00
         -2   -1    0    0    0  501 -0.00000000000E+00  0.00000000000E+00  0.55290597359E+03  0.55290597359E+03  0.00000000000E+00 0.  1.
          2   -1    0    0  501    0  0.00000000000E+00 -0.00000000000E+00 -0.28886044719E+02  0.28886044719E+02  0.00000000000E+00 0. -1.
         25    2    1    2    0    0  0.32496080368E+02  0.47570814368E+02  0.22158416608E+03  0.26089588850E+03  0.12509254318E+03 0.  0.
          5    1    3    3  502    0  0.65965373667E+02  0.32182764621E+02  0.20930674658E+03  0.22184216783E+03  0.41800000000E+01 0.  1.
         -5    1    3    3    0  502 -0.33469293299E+02  0.15388049747E+02  0.12277419502E+02  0.39053720675E+02  0.41800000000E+01 0.  1.
        -11    1    1    2    0    0 -0.59176232037E+02 -0.26904555589E+02  0.25171918828E+03  0.25997736689E+03  0.00000000000E+00 0.  1.
         11    1    1    2    0    0  0.26680151669E+02 -0.20666258780E+02  0.50716574511E+02  0.60918762915E+02  0.00000000000E+00 0. -1.
</event>
<event>
 7    1  0.2380582E-009  0.1525186E+03  0.7561462E-02  0.1197412E+00
          2   -1    0    0  501    0  0.00000000000E+00  0.00000000000E+00  0.71206830700E+02  0.71206830700E+02  0.00000000000E+00 0. -1.
         -2   -1    0    0    0  501 -0.00000000000E+00 -0.00000000000E+00 -0.50507985542E+03  0.50507985542E+03  0.00000000000E+00 0.  1.
         25    2    1    2    0    0 -0.13396788964E+03 -0.67978382204E+02 -0.31270725687E+03  0.36878303444E+03  0.12508653838E+03 0.  0.
          5    1    3    3  502    0 -0.60177189158E+01  0.10006975872E-01  0.11506463034E+02  0.13641265801E+02  0.41800000000E+01 0. -1.
         -5    1    3    3    0  502 -0.12795017073E+03 -0.67988389180E+02 -0.32421371991E+03  0.35514176863E+03  0.41800000000E+01 0. -1.
        -11    1    1    2    0    0  0.85646912013E+02  0.28199506073E+02 -0.26436283527E+02  0.93965327472E+02  0.00000000000E+00 0. -1.
         11    1    1    2    0    0  0.48320977631E+02  0.39778876131E+02 -0.94729484316E+02  0.11353832421E+03  0.00000000000E+00 0.  1.
</event>
<event>
 7    1  0.2380582E-009  0.1143553E+03  0.7561462E-02  0.1252711E+00
         -1   -1    0    0    0  501 -0.00000000000E+00  0.00000000000E+00  0.18265228403E+02  0.18265228403E+02  0.00000000000E+00 0.  1.
          1   -1    0    0  501    0  0.00000000000E+00 -0.00000000000E+00 -0.11600144962E+04  0.11600144962E+04  0.00000000000E+00 0. -1.
         25    2    1    2    0    0 -0.41293268827E+02  0.80707756932E+02 -0.76417020227E+03  0.77962925765E+03  0.12508719066E+03 0.  0.
          5    1    3    3  502    0 -0.33468669024E+02  0.11420665105E+02 -0.46506032323E+02  0.58573601905E+02  0.41800000000E+01 0.  1.
         -5    1    3    3    0  502 -0.78245998033E+01  0.69287091827E+02 -0.71766416995E+03  0.72105565575E+03  0.41800000000E+01 0.  1.
        -11    1    1    2    0    0  0.48811506738E+02 -0.71797043010E+01 -0.20606099254E+03  0.21188497821E+03  0.00000000000E+00 0. -1.
         11    1    1    2    0    0 -0.75182379111E+01 -0.73528052631E+02 -0.17151807300E+03  0.18676548876E+03  0.00000000000E+00 0.  1.
</event>
<event>
 7    1  0.2380582E-009  0.2394775E+03  0.7561462E-02  0.1120141E+00
         -1   -1    0    0    0  501 -0.00000000000E+00  0.00000000000E+00  0.11941527939E+04  0.11941527939E+04  0.00000000000E+00 0.  1.
          1   -1    0    0  501    0  0.00000000000E+00 -0.00000000000E+00 -0.10210763044E+03  0.10210763044E+03  0.00000000000E+00 0. -1.
         25    2    1    2    0    0 -0.18571888845E+03 -0.12123817557E+03  0.10113624503E+04  0.10429246140E+04  0.12509014255E+03 0.  0.
          5    1    3    3  502    0 -0.20339161390E+03 -0.12040842897E+03  0.94457309849E+03  0.97370537082E+03  0.41800000000E+01 0. -1.
         -5    1    3    3    0  502  0.17672725452E+02 -0.82974659606E+00  0.66789351817E+02  0.69219243137E+02  0.41800000000E+01 0. -1.
        -11    1    1    2    0    0  0.12517295947E+03  0.62052112989E+02  0.92918764519E+02  0.16778745873E+03  0.00000000000E+00 0.  1.
         11    1    1    2    0    0  0.60545928983E+02  0.59186062576E+02 -0.12236051352E+02  0.85548351664E+02  0.00000000000E+00 0. -1.
</event>
<event>
 7    1  0.2380582E-009  0.1967692E+03  0.7561462E-02  0.1152494E+00
         -3   -1    0    0    0  501 -0.00000000000E+00  0.00000000000E+00  0.20274750405E+03  0.20274750405E+03  0.00000000000E+00 0.  1.
          3   -1    0    0  501    0  0.00000000000E+00 -0.00000000000E+00 -0.24714268969E+03  0.24714268969E+03  0.00000000000E+00 0. -1.
         25    2    1    2    0    0  0.98837177344E+02  0.13878633754E+03  0.73827339893E+02  0.22389290428E+03  0.12508845414E+03 0.  0.
          5    1    3    3  502    0  0.13945713221E+02 -0.22701578766E+02 -0.17597444908E+00  0.26969389365E+02  0.41800000000E+01 0.  1.
         -5    1    3    3    0  502  0.84891464123E+02  0.16148791631E+03  0.74003314342E+02  0.19692351492E+03  0.41800000000E+01 0.  1.
        -11    1    1    2    0    0 -0.10326017514E+03 -0.95763847450E+02 -0.11640220924E+03  0.18270974951E+03  0.00000000000E+00 0.  1.
         11    1    1    2    0    0  0.44229977939E+01 -0.43022490092E+02 -0.18203162879E+01  0.43287539946E+02  0.00000000000E+00 0. -1.
</event>
<event>
 7    1  0.2380582E-009  0.1188970E+03  0.7561462E-02  0.1244928E+00
         -1   -1    0    0    0  501 -0.00000000000E+00  0.00000000000E+00  0.85436028207E+03  0.85436028207E+03  0.00000000000E+00 0.  1.
          1   -1    0    0  501    0  0.00000000000E+00 -0.00000000000E+00 -0.17332754630E+02  0.17332754630E+02  0.00000000000E+00 0. -1.
         25    2    1    2    0    0 -0.50879226814E+02 -0.86579675732E+01  0.51190828081E+03  0.52949150224E+03  0.12508999504E+03 0.  0.
          5    1    3    3  502    0  0.15360018143E+02  0.46417753618E+02  0.18653696329E+03  0.19288351169E+03  0.41800000000E+01 0.  1.
         -5    1    3    3    0  502 -0.66239244958E+02 -0.55075721192E+02  0.32537131752E+03  0.33660799055E+03  0.41800000000E+01 0.  1.
        -11    1    1    2    0    0  0.76206049610E+02  0.11189529228E+02  0.19587222146E+03  0.21047207582E+03  0.00000000000E+00 0. -1.
         11    1    1    2    0    0 -0.25326822796E+02 -0.25315616552E+01  0.12924702518E+03  0.13172945864E+03  0.00000000000E+00 0.  1.
</event>
<event>
 7    1  0.2380582E-009  0.2523392E+03  0.7561462E-02  0.1111835E+00
         -1   -1    0    0    0  501 -0.00000000000E+00  0.00000000000E+00  0.15552904701E+03  0.15552904701E+03  0.00000000000E+00 0.  1.
          1   -1    0    0  501    0  0.00000000000E+00 -0.00000000000E+00 -0.46165532170E+03  0.46165532170E+03  0.00000000000E+00 0. -1.
         25    2    1    2    0    0 -0.12316280296E+03  0.20568176421E+03 -0.21442402333E+03  0.34510628472E+03  0.12508645736E+03 0.  0.
          5    1    3    3  502    0  0.99826680167E+01  0.73922269286E+02 -0.10256438140E+03  0.12689003227E+03  0.41800000000E+01 0. -1.
         -5    1    3    3    0  502 -0.13314547097E+03  0.13175949492E+03 -0.11185964193E+03  0.21821625245E+03  0.41800000000E+01 0. -1.
        -11    1    1    2    0    0  0.49957424110E+02 -0.50574864317E+02  0.11345495441E+02  0.71988064228E+02  0.00000000000E+00 0.  1.
         11    1    1    2    0    0  0.73205378845E+02 -0.15510689989E+03 -0.10304774681E+03  0.20009001976E+03  0.00000000000E+00 0. -1.
</event>
<event>
 7    1  0.2380582E-009  0.2120810E+03  0.7561462E-02  0.1139929E+00
         -1   -1    0    0    0  501 -0.00000000000E+00  0.00000000000E+00  0.29689002617E+03  0.29689002617E+03  0.00000000000E+00 0.  1.
          1   -1    0    0  501    0  0.00000000000E+00 -0.00000000000E+00 -0.34115716178E+03  0.34115716178E+03  0.00000000000E+00 0. -1.
         25    2    1    2    0    0 -0.90559774274E+02 -0.17279640715E+03 -0.24995032221E+03  0.34085899021E+03  0.12510002635E+03 0.  0.
          5    1    3    3  502    0  0.14890629993E+02 -0.73563887684E+02 -0.38257562673E+02  0.84347435850E+02  0.41800000000E+01 0.  1.
         -5    1    3    3    0  502 -0.10545040427E+03 -0.99232519465E+02 -0.21169275953E+03  0.25651155436E+03  0.41800000000E+01 0.  1.
        -11    1    1    2    0    0  0.44834658208E+02  0.29386566014E+02  0.17886016869E+02  0.56512179556E+02  0.00000000000E+00 0. -1.
         11    1    1    2    0    0  0.45725116066E+02  0.14340984114E+03  0.18779716973E+03  0.24067601819E+03  0.00000000000E+00 0.  1.
</event>
<event>
 7    1  0.2380582E-009  0.7699727E+02  0.7561462E-02  0.1337795E+00
          1   -1    0    0  501    0  0.00000000000E+00  0.00000000000E+00  0.31207890180E+03  0.31207890180E+03  0.00000000000E+00 0. -1.
         -1   -1    0    0    0  501 -0.00000000000E+00 -0.00000000000E+00 -0.84998159070E+02  0.84998159070E+02  0.00000000000E+00 0.  1.
         25    2    1    2    0    0 -0.46702383112E+01 -0.34137620703E+02 -0.20576175146E+02  0.13136503705E+03  0.12508479405E+03 0.  0.
          5    1    3    3  502    0 -0.57655374246E+01  0.23271794546E+02  0.40614725380E+02  0.47348137882E+02  0.41800000000E+01 0.  1.
         -5    1    3    3    0  502  0.10952991135E+01 -0.57409415249E+02 -0.61190900527E+02  0.84016899173E+02  0.41800000000E+01 0.  1.
        -11    1    1    2    0    0 -0.25969909810E+02  0.32223448871E+02  0.22163978849E+03  0.22547058060E+03  0.00000000000E+00 0. -1.
         11    1    1    2    0    0  0.30640148121E+02  0.19141718317E+01  0.26017129382E+02  0.40241443214E+02  0.00000000000E+00 0.  1.
</event>
<event>
 7    1  0.2380582E-009  0.1120007E+03  0.7561462E-02  0.1256909E+00
         -1   -1    0    0    0  501 -0.00000000000E+00  0.00000000000E+00  0.29373587868E+03  0.29373587868E+03  0.00000000000E+00 0.  1.
          1   -1    0    0  501    0  0.00000000000E+00 -0.00000000000E+00 -0.71335249713E+02  0.71335249713E+02  0.00000000000E+00 0. -1.
         25    2    1    2    0    0 -0.47078265260E+02 -0.10386672533E+02  0.16826999499E+02  0.13511374491E+03  0.12509328569E+03 0.  0.
          5    1    3    3  502    0 -0.30263993104E+02 -0.62151900387E+02  0.34978765601E+02  0.77587076522E+02  0.41800000000E+01 0. -1.
         -5    1    3    3    0  502 -0.16814272156E+02  0.51765227854E+02 -0.18151766102E+02  0.57526668385E+02  0.41800000000E+01 0. -1.
        -11    1    1    2    0    0  0.73345544930E+02  0.71662821754E+01  0.17262101604E+03  0.18769373921E+03  0.00000000000E+00 0.  1.
         11    1    1    2    0    0 -0.26267279670E+02  0.32203903576E+01  0.32952613423E+02  0.42263644266E+02  0.00000000000E+00 0. -1.
</event>
<event>
 7    1  0.2380582E-009  0.1920666E+03  0.7561462E-02  0.1156610E+00
         -2   -1    0    0    0  501 -0.00000000000E+00  0.00000000000E+00  0.66871806521E+02  0.66871806521E+02  0.00000000000E+00 0.  1.
          2   -1    0    0  501    0  0.00000000000E+00 -0.00000000000E+00 -0.91262260505E+03  0.91262260505E+03  0.00000000000E+00 0. -1.
         25    2    1    2    0    0  0.99840233967E+02 -0.14426796024E+03 -0.69796747956E+03  0.73047070051E+03  0.12509006802E+03 0.  0.
          5    1    3    3  502    0  0.57897628259E+02 -0.12560377920E+03 -0.64749757608E+03  0.66211708039E+03  0.41800000000E+01 0.  1.
         -5    1    3    3    0  502  0.41942605708E+02 -0.18664181039E+02 -0.50469903475E+02  0.68353620125E+02  0.41800000000E+01 0.  1.
        -11    1    1    2    0    0 -0.10146634209E+03  0.65258070535E+02 -0.78542626573E+02  0.14395477948E+03  0.00000000000E+00 0.  1.
         11    1    1    2    0    0  0.16261081228E+01  0.79009889704E+02 -0.69240692399E+02  0.10506893158E+03  0.00000000000E+00 0. -1.
</event>
<event>
 7    1  0.2380582E-009  0.1128880E+03  0.7561462E-02  0.1255313E+00
         -2   -1    0    0    0  501 -0.00000000000E+00  0.00000000000E+00  0.17897891118E+03  0.17897891118E+03  0.00000000000E+00 0. -1.
          2   -1    0    0  501    0  0.00000000000E+00 -0.00000000000E+00 -0.10240507845E+03  0.10240507845E+03  0.00000000000E+00 0.  1.
         25    2    1    2    0    0  0.77324047905E+02 -0.20960752227E+02  0.51010699453E+02  0.15706302526E+03  0.12509332887E+03 0.  0.
          5    1    3    3  502    0  0.96852794552E+02  0.16889670833E+02  0.57202433609E+02  0.11382141980E+03  0.41800000000E+01 0. -1.
         -5    1    3    3    0  502 -0.19528746647E+02 -0.37850423060E+02 -0.61917341559E+01  0.43241605466E+02  0.41800000000E+01 0. -1.
        -11    1    1    2    0    0 -0.33630788787E+02 -0.46190949651E+01  0.55825078160E+02  0.65336095264E+02  0.00000000000E+00 0. -1.
         11    1    1    2    0    0 -0.43693259118E+02  0.25579847192E+02 -0.30261944888E+02  0.58984869104E+02  0.00000000000E+00 0.  1.
</event>
<event>
 7    1  0.2380582E-009  0.1084221E+03  0.7561462E-02  0.1263520E+00
          2   -1    0    0  501    0  0.00000000000E+00  0.00000000000E+00  0.18579558242E+03  0.18579558242E+03  0.00000000000E+00 0. -1.
         -2   -1    0    0    0  501 -0.00000000000E+00 -0.00000000000E+00 -0.86574138603E+02  0.86574138603E+02  0.00000000000E+00 0.  1.
         25    2    1    2    0    0  0.38519495221E+02  0.51577269956E+02  0.60782684113E+02  0.15325371927E+03  0.12509277155E+03 0.  0.
          5    1    3    3  502    0  0.27610811017E+02 -0.26055533456E+02 -0.17832950354E+02  0.42151325329E+02  0.41800000000E+01 0.  1.
         -5    1    3    3    0  502  0.10908684204E+02  0.77632803412E+02  0.78615634467E+02  0.11110239394E+03  0.41800000000E+01 0.  1.
        -11    1    1    2    0    0  0.13292062119E+02 -0.46176820059E+02  0.45948888091E+02  0.66485170850E+02  0.00000000000E+00 0. -1.
         11    1    1    2    0    0 -0.51811557340E+02 -0.54004498971E+01 -0.75101283886E+01  0.52630830903E+02  0.00000000000E+00 0.  1.
</event>
<event>
 7    1  0.2380582E-009  0.1564839E+03  0.7561462E-02  0.1192725E+00
         -1   -1    0    0    0  501 -0.00000000000E+00  0.00000000000E+00  0.42763215422E+03  0.42763215422E+03  0.00000000000E+00 0.  1.
          1   -1    0    0  501    0  0.00000000000E+00 -0.00000000000E+00 -0.75201734867E+02  0.75201734867E+02  0.00000000000E+00 0. -1.
         25    2    1    2    0    0 -0.18090803541E+02 -0.13572016863E+03  0.25101992000E+03  0.31209918204E+03  0.12509059855E+03 0.  0.
          5    1    3    3  502    0  0.11529940200E+02 -0.11534852405E+03  0.89331643724E+02  0.14640982376E+03  0.41800000000E+01 0. -1.
         -5    1    3    3    0  502 -0.29620743741E+02 -0.20371644580E+02  0.16168827627E+03  0.16568935828E+03  0.41800000000E+01 0. -1.
        -11    1    1    2    0    0 -0.32105959578E+02  0.30911969123E+02  0.20019989374E+02  0.48858391807E+02  0.00000000000E+00 0. -1.
         11    1    1    2    0    0  0.50196763119E+02  0.10480819951E+03  0.81390509988E+02  0.14187631525E+03  0.00000000000E+00 0.  1.
</event>
<event>
 7    1  0.2380582E-009  0.8764834E+02  0.7561462E-02  0.1308649E+00
         -4   -1    0    0    0  501 -0.00000000000E+00  0.00000000000E+00  0.69970193651E+02  0.69970193651E+02  0.00000000000E+00 0.  1.
          4   -1    0    0  501    0  0.00000000000E+00 -0.00000000000E+00 -0.21023605123E+03  0.21023605123E+03  0.00000000000E+00 0. -1.
         25    2    1    2    0    0 -0.80403879423E+01  0.21984932133E+02 -0.13573163702E+03  0.18606070262E+03  0.12509005832E+03 0.  0.
          5    1    3    3  502    0  0.46789875085E+02  0.25855844121E+01 -0.11486841553E+03  0.12412978266E+03  0.41800000000E+01 0.  1.
         -5    1    3    3    0  502 -0.54830263027E+02  0.19399347721E+02 -0.20863221490E+02  0.61930919956E+02  0.41800000000E+01 0.  1.
        -11    1    1    2    0    0  0.36515436170E+02 -0.19392945580E+02  0.28680266873E+02  0.50319192411E+02  0.00000000000E+00 0.  1.
         11    1    1    2    0    0 -0.28475048228E+02 -0.25919865536E+01 -0.33214487429E+02  0.43826349848E+02  0.00000000000E+00 0. -1.
</event>
<event>
 7    1  0.2380582E-009  0.8958402E+02  0.7561462E-02  0.1303862E+00
          2   -1    0    0  501    0  0.00000000000E+00  0.00000000000E+00  0.36866380277E+02  0.36866380277E+02  0.00000000000E+00 0.  1.
         -2   -1    0    0    0  501 -0.00000000000E+00 -0.00000000000E+00 -0.34671122631E+03  0.34671122631E+03  0.00000000000E+00 0. -1.
         25    2    1    2    0    0 -0.14026350361E+02 -0.54167393174E+01 -0.12608411082E+03  0.17824254794E+03  0.12508846200E+03 0.  0.
          5    1    3    3  502    0 -0.37268290762E+02  0.29221902866E+02 -0.12772654944E+03  0.13628788991E+03  0.41800000000E+01 0.  1.
         -5    1    3    3    0  502  0.23241940401E+02 -0.34638642183E+02  0.16424386193E+01  0.41954658031E+02  0.41800000000E+01 0.  1.
        -11    1    1    2    0    0  0.51501509164E+02  0.80870555923E+01 -0.85543162663E+02  0.10017703625E+03  0.00000000000E+00 0.  1.
         11    1    1    2    0    0 -0.37475158803E+02 -0.26703162749E+01 -0.98217572553E+02  0.10515802240E+03  0.00000000000E+00 0. -1.
</event>
<event>
 7    1  0.2380582E-009  0.7821325E+02  0.7561462E-02  0.1334200E+00
          4   -1    0    0  501    0  0.00000000000E+00  0.00000000000E+00  0.29525355759E+03  0.29525355759E+03  0.00000000000E+00 0. -1.
         -4   -1    0    0    0  501 -0.00000000000E+00 -0.00000000000E+00 -0.48062417017E+02  0.48062417017E+02  0.00000000000E+00 0.  1.
         25    2    1    2    0    0 -0.30963432536E+02  0.25972188807E+02  0.10108004070E+03  0.16582729191E+03  0.12509287496E+03 0.  0.
          5    1    3    3  502    0 -0.58441483013E+01 -0.96639200694E+01  0.11819197752E+03  0.11880387776E+03  0.41800000000E+01 0. -1.
         -5    1    3    3    0  502 -0.25119284235E+02  0.35636108877E+02 -0.17111936818E+02  0.47023414146E+02  0.41800000000E+01 0. -1.
        -11    1    1    2    0    0  0.61394560968E+02 -0.12994384567E+01  0.94332528115E+02  0.11255934665E+03  0.00000000000E+00 0. -1.
         11    1    1    2    0    0 -0.30431128432E+02 -0.24672750350E+02  0.51778571751E+02  0.64929336051E+02  0.00000000000E+00 0.  1.
</event>
<event>
 7    1  0.2380582E-009  0.1405472E+03  0.7561462E-02  0.1212595E+00
          2   -1    0    0  501    0  0.00000000000E+00  0.00000000000E+00  0.35548231604E+03  0.35548231604E+03  0.00000000000E+00 0. -1.
         -2   -1    0    0    0  501 -0.00000000000E+00 -0.00000000000E+00 -0.14031007073E+03  0.14031007073E+03  0.00000000000E+00 0.  1.
         25    2    1    2    0    0  0.15517328485E+02 -0.10148543915E+03  0.29581370321E+03  0.33718393340E+03  0.12508867290E+03 0.  0.
          5    1    3    3  502    0 -0.35665589406E+02 -0.10146236694E+03  0.16894597799E+03  0.20031690406E+03  0.41800000000E+01 0.  1.
         -5    1    3    3    0  502  0.51182917891E+02 -0.23072212573E-01  0.12686772522E+03  0.13686702934E+03  0.41800000000E+01 0.  1.
        -11    1    1    2    0    0 -0.30616265901E+02  0.10250364007E+03 -0.90853368169E+02  0.14035200915E+03  0.00000000000E+00 0.  1.
         11    1    1    2    0    0  0.15098937416E+02 -0.10182009211E+01  0.10211910270E+02  0.18256444220E+02  0.00000000000E+00 0. -1.
</event>
<event>
 7    1  0.2380582E-009  0.1058873E+03  0.7561462E-02  0.1268381E+00
         -1   -1    0    0    0  501 -0.00000000000E+00  0.00000000000E+00  0.74862510794E+02  0.74862510794E+02  0.00000000000E+00 0.  1.
          1   -1    0    0  501    0  0.00000000000E+00 -0.00000000000E+00 -0.22471259190E+03  0.22471259190E+03  0.00000000000E+00 0. -1.
         25    2    1    2    0    0  0.13075234034E+02  0.22893891361E+02 -0.15437972385E+03  0.20043814707E+03  0.12508900694E+03 0.  0.
          5    1    3    3  502    0 -0.28433635881E+02  0.63118836040E+02 -0.93133414897E+02  0.11611961283E+03  0.41800000000E+01 0.  1.
         -5    1    3    3    0  502  0.41508869915E+02 -0.40224944679E+02 -0.61246308952E+02  0.84318534240E+02  0.41800000000E+01 0.  1.
        -11    1    1    2    0    0  0.31393984567E+01  0.29477565169E+02  0.26799452278E+02  0.39962398744E+02  0.00000000000E+00 0.  1.
         11    1    1    2    0    0 -0.16214632491E+02 -0.52371456531E+02 -0.22269809540E+02  0.59174556888E+02  0.00000000000E+00 0. -1.
</event>
<event>
 7    1  0.2380582E-009  0.1325832E+03  0.7561462E-02  0.1223672E+00
         -1   -1    0    0    0  501 -0.00000000000E+00  0.00000000000E+00  0.14682834415E+02  0.14682834415E+02  0.00000000000E+00 0.  1.
          1   -1    0    0  501    0  0.00000000000E+00 -0.00000000000E+00 -0.14252896650E+04  0.14252896650E+04  0.00000000000E+00 0. -1.
         25    2    1    2    0    0 -0.75404424287E+02 -0.20905593760E+01 -0.93917299403E+03  0.95046441912E+03  0.12508597703E+03 0.  0.
          5    1    3    3  502    0 -0.62207794598E+02 -0.53411982558E+02 -0.73165627861E+03  0.73624794194E+03  0.41800000000E+01 0.  1.
         -5    1    3    3    0  502 -0.13196629688E+02  0.51321423182E+02 -0.20751671543E+03  0.21421647718E+03  0.41800000000E+01 0.  1.
        -11    1    1    2    0    0  0.26447186027E+02 -0.51151022402E+02 -0.16882513022E+03  0.17837546169E+03  0.00000000000E+00 0.  1.
         11    1    1    2    0    0  0.48957238260E+02  0.53241581778E+02 -0.30260870631E+03  0.31113261858E+03  0.00000000000E+00 0. -1.
</event>
<event>
 7    1  0.2380582E-009  0.2150673E+03  0.7561462E-02  0.1137615E+00
         -1   -1    0    0    0  501 -0.00000000000E+00  0.00000000000E+00  0.75463464761E+03  0.75463464761E+03  0.00000000000E+00 0.  1.
          1   -1    0    0  501    0  0.00000000000E+00 -0.00000000000E+00 -0.64834621434E+02  0.64834621434E+02  0.00000000000E+00 0. -1.
         25    2    1    2    0    0 -0.17604023593E+03  0.71427196923E+02  0.30383625634E+03  0.37954632848E+03  0.12508771189E+03 0.  0.
          5    1    3    3  502    0 -0.17541659450E+03  0.30429026033E+02  0.28028855756E+03  0.33207838705E+03  0.41800000000E+01 0.  1.
         -5    1    3    3    0  502 -0.62364143703E+00  0.40998170890E+02  0.23547698785E+02  0.47467941424E+02  0.41800000000E+01 0.  1.
        -11    1    1    2    0    0  0.23496932365E+02 -0.51995120706E+02  0.94822315161E+02  0.11066557667E+03  0.00000000000E+00 0.  1.
         11    1    1    2    0    0  0.15254330357E+03 -0.19432076217E+02  0.29114145467E+03  0.32925736389E+03  0.00000000000E+00 0. -1.
</event>
<event>
 7    1  0.2380582E-009  0.1319646E+03  0.7561462E-02  0.1224569E+00
         -2   -1    0    0    0  501 -0.00000000000E+00  0.00000000000E+00  0.54780195324E+02  0.54780195324E+02  0.00000000000E+00 0.  1.
          2   -1    0    0  501    0  0.00000000000E+00 -0.00000000000E+00 -0.33682697700E+03  0.33682697700E+03  0.00000000000E+00 0. -1.
         25    2    1    2    0    0  0.50429884807E+02 -0.61044377730E+02 -0.16709307447E+03  0.22324120105E+03  0.12508776509E+03 0.  0.
          5    1    3    3  502    0 -0.39934858987E+02 -0.17530910263E+02 -0.29090926278E+02  0.52591635919E+02  0.41800000000E+01 0. -1.
         -5    1    3    3    0  502  0.90364743794E+02 -0.43513467468E+02 -0.13800214819E+03  0.17064956513E+03  0.41800000000E+01 0. -1.
        -11    1    1    2    0    0  0.18084855374E+02  0.46221283573E+02 -0.29122739207E+02  0.57546528896E+02  0.00000000000E+00 0.  1.
         11    1    1    2    0    0 -0.68514740181E+02  0.14823094158E+02 -0.85830967999E+02  0.11081944238E+03  0.00000000000E+00 0. -1.
</event>
<event>
 7    1  0.2380582E-009  0.1066603E+03  0.7561462E-02  0.1266882E+00
          1   -1    0    0  501    0  0.00000000000E+00  0.00000000000E+00  0.99607628903E+02  0.99607628903E+02  0.00000000000E+00 0. -1.
         -1   -1    0    0    0  501 -0.00000000000E+00 -0.00000000000E+00 -0.15257969261E+03  0.15257969261E+03  0.00000000000E+00 0.  1.
         25    2    1    2    0    0 -0.51513122674E+02  0.20266972888E+02 -0.55867305471E+02  0.14775967783E+03  0.12508962617E+03 0.  0.
          5    1    3    3  502    0  0.41692106862E+02  0.84462573744E+01 -0.17063062018E+02  0.46023814744E+02  0.41800000000E+01 0. -1.
         -5    1    3    3    0  502 -0.93205229536E+02  0.11820715514E+02 -0.38804243453E+02  0.10173586309E+03  0.41800000000E+01 0. -1.
        -11    1    1    2    0    0  0.59417441181E+02 -0.53595999252E+01  0.34271705695E+02  0.68801943570E+02  0.00000000000E+00 0. -1.
         11    1    1    2    0    0 -0.79043185067E+01 -0.14907372963E+02 -0.31376463934E+02  0.35625700116E+02  0.00000000000E+00 0.  1.
</event>
<event>
 7    1  0.2380582E-009  0.9002515E+02  0.7561462E-02  0.1302791E+00
          1   -1    0    0  501    0  0.00000000000E+00  0.00000000000E+00  0.42757420011E+03  0.42757420011E+03  0.00000000000E+00 0.  1.
         -1   -1    0    0    0  501 -0.00000000000E+00 -0.00000000000E+00 -0.53546350828E+02  0.53546350828E+02  0.00000000000E+00 0. -1.
         25    2    1    2    0    0 -0.43897808827E+02 -0.15687434430E+02  0.34772039443E+03  0.37246512662E+03  0.12509070559E+03 0.  0.
          5    1    3    3  502    0 -0.37917837644E+01  0.25995675681E+02  0.79258563735E+01  0.27756879822E+02  0.41800000000E+01 0. -1.
         -5    1    3    3    0  502 -0.40106025063E+02 -0.41683110111E+02  0.33979453806E+03  0.34470824679E+03  0.41800000000E+01 0. -1.
        -11    1    1    2    0    0 -0.25029590464E+02  0.69377680523E+01 -0.12766708561E+02  0.28941352281E+02  0.00000000000E+00 0. -1.
         11    1    1    2    0    0  0.68927399291E+02  0.87496663777E+01  0.39074163414E+02  0.79714072041E+02  0.00000000000E+00 0.  1.
</event>
<event>
 7    1  0.2380582E-009  0.1756918E+03  0.7561462E-02  0.1172039E+00
         -2   -1    0    0    0  501 -0.00000000000E+00  0.00000000000E+00  0.18982596066E+03  0.18982596066E+03  0.00000000000E+00 0.  1.
          2   -1    0    0  501    0  0.00000000000E+00 -0.00000000000E+00 -0.19124403053E+03  0.19124403053E+03  0.00000000000E+00 0. -1.
         25    2    1    2    0    0 -0.25603853284E+01  0.14308009724E+03  0.63157040235E+02  0.20029175670E+03  0.12509798668E+03 0.  0.
          5    1    3    3  502    0  0.26245412956E+02  0.15263565241E+03  0.35340371048E+02  0.15891154242E+03  0.41800000000E+01 0. -1.
         -5    1    3    3    0  502 -0.28805798284E+02 -0.95555551691E+01  0.27816669187E+02  0.41380214282E+02  0.41800000000E+01 0. -1.
        -11    1    1    2    0    0 -0.38722202052E+02 -0.44787813784E+02 -0.70094621021E+01  0.59619541714E+02  0.00000000000E+00 0.  1.
         11    1    1    2    0    0  0.41282587380E+02 -0.98292283455E+02 -0.57565648003E+02  0.12115869279E+03  0.00000000000E+00 0. -1.
</event>
<event>
 7    1  0.2380582E-009  0.1302299E+03  0.7561462E-02  0.1227115E+00
         -1   -1    0    0    0  501 -0.00000000000E+00  0.00000000000E+00  0.34102109709E+03  0.34102109709E+03  0.00000000000E+00 0.  1.
          1   -1    0    0  501    0  0.00000000000E+00 -0.00000000000E+00 -0.55332503507E+02  0.55332503507E+02  0.00000000000E+00 0. -1.
         25    2    1    2    0    0  0.51935980799E+02  0.66045488034E+02  0.15272323143E+03  0.21454951289E+03  0.12509098877E+03 0.  0.
          5    1    3    3  502    0  0.71578623651E+02 -0.93606742613E+01  0.66215204983E+02  0.98046149120E+02  0.41800000000E+01 0. -1.
         -5    1    3    3    0  502 -0.19642642852E+02  0.75406162295E+02  0.86508026450E+02  0.11650336377E+03  0.41800000000E+01 0. -1.
        -11    1    1    2    0    0 -0.31700302685E+02 -0.79654061631E+02  0.59388438830E+02  0.10429125271E+03  0.00000000000E+00 0. -1.
         11    1    1    2    0    0 -0.20235678114E+02  0.13608573597E+02  0.73576923323E+02  0.77512835000E+02  0.00000000000E+00 0.  1.
</event>
<event>
 7    1  0.2380582E-009  0.9161803E+02  0.7561462E-02  0.1298980E+00
          1   -1    0    0  501    0  0.00000000000E+00  0.00000000000E+00  0.83791170756E+02  0.83791170756E+02  0.00000000000E+00 0. -1.
         -1   -1    0    0    0  501 -0.00000000000E+00 -0.00000000000E+00 -0.25216437529E+03  0.25216437529E+03  0.00000000000E+00 0.  1.
         25    2    1    2    0    0  0.33648418976E+02  0.25025191328E+02 -0.19075551390E+03  0.23193443180E+03  0.12508972087E+03 0.  0.
          5    1    3    3  502    0  0.70374447553E+01 -0.31009803083E+02 -0.15884440820E+03  0.16204984398E+03  0.41800000000E+01 0.  1.
         -5    1    3    3    0  502  0.26610974221E+02  0.56034994411E+02 -0.31911105698E+02  0.69884587818E+02  0.41800000000E+01 0.  1.
        -11    1    1    2    0    0 -0.10062033113E+02 -0.52111690767E+02  0.37569452621E+02  0.65025661052E+02  0.00000000000E+00 0. -1.
         11    1    1    2    0    0 -0.23586385863E+02  0.27086499439E+02 -0.15187143255E+02  0.38995453199E+02  0.00000000000E+00 0.  1.
</event>
<event>
 7    1  0.2405566E-009  0.8304110E+02  0.7561462E-02  0.1320636E+00
          2   -1    0    0  501    0  0.00000000000E+00  0.00000000000E+00  0.15728003584E+03  0.15728003584E+03  0.00000000000E+00 0. -1.
         -2   -1    0    0    0  501 -0.00000000000E+00 -0.00000000000E+00 -0.96202986768E+02  0.96202986768E+02  0.00000000000E+00 0.  1.
         25    2    1    2    0    0  0.36926118438E+02 -0.16181735524E+02  0.77288906880E+02  0.15246476336E+03  0.12508613893E+03 0.  0.
          5    1    3    3  502    0  0.55076484687E+02 -0.92100599042E+01 -0.15069276375E+02  0.57989653038E+02  0.41800000000E+01 0. -1.
         -5    1    3    3    0  502 -0.18150366249E+02 -0.69716756203E+01  0.92358183255E+02  0.94475110321E+02  0.41800000000E+01 0. -1.
        -11    1    1    2    0    0 -0.58128970662E+02 -0.72697979202E+01  0.10638114689E+02  0.59539874674E+02  0.00000000000E+00 0. -1.
         11    1    1    2    0    0  0.21202852224E+02  0.23451533445E+02 -0.26849972501E+02  0.41478384571E+02  0.00000000000E+00 0.  1.
</event>
<event>
 7    1  0.2380582E-009  0.2695895E+03  0.7561462E-02  0.1101515E+00
          1   -1    0    0  501    0  0.00000000000E+00  0.00000000000E+00  0.13002526630E+03  0.13002526630E+03  0.00000000000E+00 0. -1.
         -1   -1    0    0    0  501 -0.00000000000E+00 -0.00000000000E+00 -0.60354720873E+03  0.60354720873E+03  0.00000000000E+00 0.  1.
         25    2    1    2    0    0  0.17498653336E+03  0.18917732376E+03 -0.25883076927E+03  0.38606927621E+03  0.12509105576E+03 0.  0.
          5    1    3    3  502    0  0.13058601305E+02  0.69591632748E+02 -0.20004836680E+02  0.73696596307E+02  0.41800000000E+01 0.  1.
         -5    1    3    3    0  502  0.16192793205E+03  0.11958569101E+03 -0.23882593259E+03  0.31237267990E+03  0.41800000000E+01 0.  1.
        -11    1    1    2    0    0 -0.45446382814E+02 -0.11249011510E+02 -0.69640160034E+02  0.83914634364E+02  0.00000000000E+00 0.  1.
         11    1    1    2    0    0 -0.12954015054E+03 -0.17792831225E+03 -0.14505101313E+03  0.26358856446E+03  0.00000000000E+00 0. -1.
</event>
<event>
 7    1  0.2380582E-009  0.1262147E+03  0.7561462E-02  0.1233183E+00
         -1   -1    0    0    0  501 -0.00000000000E+00  0.00000000000E+00  0.58582444009E+02  0.58582444009E+02  0.00000000000E+00 0.  1.
          1   -1    0    0  501    0  0.00000000000E+00 -0.00000000000E+00 -0.40474056930E+03  0.40474056930E+03  0.00000000000E+00 0. -1.
         25    2    1    2    0    0 -0.64410759799E+02 -0.52703746609E+01 -0.54437057439E+02  0.15095385817E+03  0.12508857361E+03 0.  0.
          5    1    3    3  502    0 -0.85753539756E+02  0.36791712367E+02 -0.37779468912E+02  0.10075743323E+03  0.41800000000E+01 0.  1.
         -5    1    3    3    0  502  0.21342779957E+02 -0.42062087028E+02 -0.16657588528E+02  0.50196424942E+02  0.41800000000E+01 0.  1.
        -11    1    1    2    0    0  0.27590062696E+02  0.47939100376E+02 -0.14687358102E+03  0.15694335828E+03  0.00000000000E+00 0. -1.
         11    1    1    2    0    0  0.36820697103E+02 -0.42668725715E+02 -0.14484748683E+03  0.15542579686E+03  0.00000000000E+00 0.  1.
</event>
<event>
 7    1  0.2380582E-009  0.1605960E+03  0.7561462E-02  0.1188025E+00
         -1   -1    0    0    0  501 -0.00000000000E+00  0.00000000000E+00  0.69553348158E+02  0.69553348158E+02  0.00000000000E+00 0.  1.
          1   -1    0    0  501    0  0.00000000000E+00 -0.00000000000E+00 -0.44725336294E+03  0.44725336294E+03  0.00000000000E+00 0. -1.
         25    2    1    2    0    0 -0.12704404682E+03 -0.24091511304E+02 -0.12780608566E+03  0.22068595680E+03  0.12508918918E+03 0.  0.
          5    1    3    3  502    0 -0.29280573670E+02 -0.56785597422E+02 -0.90749674749E+02  0.11106273874E+03  0.41800000000E+01 0. -1.
         -5    1    3    3    0  502 -0.97763473147E+02  0.32694086118E+02 -0.37056410911E+02  0.10962321806E+03  0.41800000000E+01 0. -1.
        -11    1    1    2    0    0 -0.64113084648E+01  0.19427762742E+02 -0.64317950231E+02  0.67493270504E+02  0.00000000000E+00 0. -1.
         11    1    1    2    0    0  0.13345535528E+03  0.46637485616E+01 -0.18557597889E+03  0.22862748379E+03  0.00000000000E+00 0.  1.
</event>
<event>
 7    1  0.2380582E-009  0.1473695E+03  0.7561462E-02  0.1203743E+00
         -1   -1    0    0    0  501 -0.00000000000E+00  0.00000000000E+00  0.13830050083E+03  0.13830050083E+03  0.00000000000E+00 0.  1.
          1   -1    0    0  501    0  0.00000000000E+00 -0.00000000000E+00 -0.35430384482E+03  0.35430384482E+03  0.00000000000E+00 0. -1.
         25    2    1    2    0    0 -0.30493380590E+01 -0.12257232342E+03  0.53968427689E+02  0.18328824126E+03  0.12509482509E+03 0.  0.
          5    1    3    3  502    0  0.48393323586E+02 -0.10742068751E+03  0.19746547201E+02  0.11953458244E+03  0.41800000000E+01 0. -1.
         -5    1    3    3    0  502 -0.51442661644E+02 -0.15151635904E+02  0.34221880488E+02  0.63753658811E+02  0.41800000000E+01 0. -1.
        -11    1    1    2    0    0 -0.38898638038E+01  0.37335716776E+02 -0.18496602444E+03  0.18873663392E+03  0.00000000000E+00 0. -1.
         11    1    1    2    0    0  0.69392018628E+01  0.85236606642E+02 -0.85005747244E+02  0.12057947047E+03  0.00000000000E+00 0.  1.
</event>
<event>
 7    1  0.2380582E-009  0.1095697E+03  0.7561462E-02  0.1261369E+00
         -3   -1    0    0    0  501 -0.00000000000E+00  0.00000000000E+00  0.21436499305E+02  0.21436499305E+02  0.00000000000E+00 0.  1.
          3   -1    0    0  501    0  0.00000000000E+00 -0.00000000000E+00 -0.68894778625E+03  0.68894778625E+03  0.00000000000E+00 0. -1.
         25    2    1    2    0    0  0.29475567442E+02 -0.45759148775E+02 -0.42290214614E+03  0.44436074488E+03  0.12509011793E+03 0.  0.
          5    1    3    3  502    0  0.57920921955E+02 -0.64302579767E+02 -0.18830610470E+03  0.20728317933E+03  0.41800000000E+01 0.  1.
         -5    1    3    3    0  502 -0.28445354513E+02  0.18543430992E+02 -0.23459604144E+03  0.23707756555E+03  0.41800000000E+01 0.  1.
        -11    1    1    2    0    0 -0.15911052933E+00 -0.23278643983E+02 -0.25967128679E+02  0.34874236245E+02  0.00000000000E+00 0.  1.
         11    1    1    2    0    0 -0.29316456912E+02  0.69037792757E+02 -0.21864201213E+03  0.23114930444E+03  0.00000000000E+00 0. -1.
</event>
<event>
 7    1  0.2380582E-009  0.1012159E+03  0.7561462E-02  0.1277760E+00
          1   -1    0    0  501    0  0.00000000000E+00  0.00000000000E+00  0.54136908127E+03  0.54136908127E+03  0.00000000000E+00 0. -1.
         -1   -1    0    0    0  501 -0.00000000000E+00 -0.00000000000E+00 -0.27466901627E+02  0.27466901627E+02  0.00000000000E+00 0.  1.
         25    2    1    2    0    0 -0.56716366948E+02  0.13892531971E+02  0.27532257497E+03  0.30799272793E+03  0.12508897410E+03 0.  0.
          5    1    3    3  502    0  0.27259647215E+02 -0.14634755122E+02  0.15693311756E+03  0.16000856293E+03  0.41800000000E+01 0.  1.
         -5    1    3    3    0  502 -0.83976014164E+02  0.28527287093E+02  0.11838945741E+03  0.14798416500E+03  0.41800000000E+01 0.  1.
        -11    1    1    2    0    0 -0.11327500118E+02  0.40902490864E+01 -0.58137951646E-01  0.12043495196E+02  0.00000000000E+00 0.  1.
         11    1    1    2    0    0  0.68043867066E+02 -0.17982781058E+02  0.23863774263E+03  0.24879975978E+03  0.00000000000E+00 0. -1.
</event>
<event>
 7    1  0.2380582E-009  0.1028080E+03  0.7561462E-02  0.1274499E+00
          2   -1    0    0  501    0  0.00000000000E+00  0.00000000000E+00  0.22626047750E+03  0.22626047750E+03  0.00000000000E+00 0. -1.
         -2   -1    0    0    0  501 -0.00000000000E+00 -0.00000000000E+00 -0.60725946005E+02  0.60725946005E+02  0.00000000000E+00 0.  1.
         25    2    1    2    0    0 -0.14414899996E+02 -0.93204086249E+01  0.40594284721E+02  0.13262077702E+03  0.12508283330E+03 0.  0.
          5    1    3    3  502    0  0.18711049457E+02  0.46610643847E+02 -0.84236003021E+01  0.51098776245E+02  0.41800000000E+01 0. -1.
         -5    1    3    3    0  502 -0.33125949453E+02 -0.55931052472E+02  0.49017885023E+02  0.81522000773E+02  0.41800000000E+01 0. -1.
        -11    1    1    2    0    0  0.44316122659E+02  0.30182136622E+02  0.82774131535E+02  0.98622699973E+02  0.00000000000E+00 0. -1.
         11    1    1    2    0    0 -0.29901222662E+02 -0.20861727997E+02  0.42166115235E+02  0.55742946511E+02  0.00000000000E+00 0.  1.
</event>
<event>
 7    1  0.2380582E-009  0.1151958E+03  0.7561462E-02  0.1251240E+00
          2   -1    0    0  501    0  0.00000000000E+00  0.00000000000E+00  0.53590408494E+03  0.53590408494E+03  0.00000000000E+00 0. -1.
         -2   -1    0    0    0  501 -0.00000000000E+00 -0.00000000000E+00 -0.26678243993E+02  0.26678243993E+02  0.00000000000E+00 0.  1.
         25    2    1    2    0    0  0.12693466160E+02  0.44042982033E+02  0.23426081553E+03  0.26949348316E+03  0.12509076474E+03 0.  0.
          5    1    3    3  502    0 -0.29901426819E+02  0.74663176536E+02  0.13763359888E+03  0.15946524762E+03  0.41800000000E+01 0. -1.
         -5    1    3    3    0  502  0.42594892979E+02 -0.30620194502E+02  0.96627216651E+02  0.11002823554E+03  0.41800000000E+01 0. -1.
        -11    1    1    2    0    0  0.73820665543E-01  0.26016458539E+02  0.41285113300E+02  0.48798792450E+02  0.00000000000E+00 0. -1.
         11    1    1    2    0    0 -0.12767286825E+02 -0.70059440572E+02  0.23367991211E+03  0.24429005332E+03  0.00000000000E+00 0.  1.
</event>
<event>
 7    1  0.2380582E-009  0.9999749E+02  0.7561462E-02  0.1280301E+00
         -1   -1    0    0    0  501 -0.00000000000E+00  0.00000000000E+00  0.15885742695E+02  0.15885742695E+02  0.00000000000E+00 0.  1.
          1   -1    0    0  501    0  0.00000000000E+00 -0.00000000000E+00 -0.10947948582E+04  0.10947948582E+04  0.00000000000E+00 0. -1.
         25    2    1    2    0    0 -0.16143788390E+02 -0.63836056139E+02 -0.73844304846E+03  0.75185121586E+03  0.12508577459E+03 0.  0.
          5    1    3    3  502    0  0.21963313250E+02 -0.17751889310E+02 -0.32055992017E+02  0.42925234154E+02  0.41800000000E+01 0. -1.
         -5    1    3    3    0  502 -0.38107101641E+02 -0.46084166829E+02 -0.70638705644E+03  0.70892598171E+03  0.41800000000E+01 0. -1.
        -11    1    1    2    0    0 -0.17749451522E+02 -0.16546786437E+02 -0.50545177432E+02  0.56068298818E+02  0.00000000000E+00 0.  1.
         11    1    1    2    0    0  0.33893239912E+02  0.80382842576E+02 -0.28992088958E+03  0.30276108618E+03  0.00000000000E+00 0. -1.
</event>
<event>
 7    1  0.2380582E-009  0.1389886E+03  0.7561462E-02  0.1214696E+00
         -1   -1    0    0    0  501 -0.00000000000E+00  0.00000000000E+00  0.73901025340E+02  0.73901025340E+02  0.00000000000E+00 0.  1.
          1   -1    0    0  501    0  0.00000000000E+00 -0.00000000000E+00 -0.30557195989E+03  0.30557195989E+03  0.00000000000E+00 0. -1.
         25    2    1    2    0    0  0.88768176301E+02  0.47236747286E+02 -0.14572770144E+03  0.21678745805E+03  0.12509652108E+03 0.  0.
          5    1    3    3  502    0  0.99161058994E+02  0.66541693531E+02 -0.71438876276E+02  0.13921816707E+03  0.41800000000E+01 0. -1.
         -5    1    3    3    0  502 -0.10392882693E+02 -0.19304946245E+02 -0.74288825160E+02  0.77569290985E+02  0.41800000000E+01 0. -1.
        -11    1    1    2    0    0 -0.26805507231E+02 -0.66155377555E+02 -0.58650867226E+02  0.92385028136E+02  0.00000000000E+00 0.  1.
         11    1    1    2    0    0 -0.61962669070E+02  0.18918630269E+02 -0.27292365889E+02  0.70300499040E+02  0.00000000000E+00 0. -1.
</event>
<event>
 7    1  0.2380582E-009  0.7751415E+02  0.7561462E-02  0.1336258E+00
          2   -1    0    0  501    0  0.00000000000E+00  0.00000000000E+00  0.11299757849E+03  0.11299757849E+03  0.00000000000E+00 0. -1.
         -2   -1    0    0    0  501 -0.00000000000E+00 -0.00000000000E+00 -0.11424075189E+03  0.11424075189E+03  0.00000000000E+00 0.  1.
         25    2    1    2    0    0 -0.17470014977E+02  0.30086225922E+02  0.37583798314E+01  0.12989157951E+03  0.12508922654E+03 0.  0.
          5    1    3    3  502    0  0.11894833307E+02 -0.10979064869E+02  0.55211205593E+02  0.57686883672E+02  0.41800000000E+01 0.  1.
         -5    1    3    3    0  502 -0.29364848284E+02  0.41065290791E+02 -0.51452825762E+02  0.72204695840E+02  0.41800000000E+01 0.  1.
        -11    1    1    2    0    0  0.17177806448E+02 -0.57615797089E+02  0.16578492157E+02  0.62365884190E+02  0.00000000000E+00 0. -1.
         11    1    1    2    0    0  0.29220852961E+00  0.27529571167E+02 -0.21580045395E+02  0.34980866680E+02  0.00000000000E+00 0.  1.
</event>
<event>
 7    1  0.2610401E-009  0.1870964E+03  0.7561462E-02  0.1161107E+00
          1   -1    0    0  501    0  0.00000000000E+00  0.00000000000E+00  0.11601509731E+04  0.11601509731E+04  0.00000000000E+00 0. -1.
         -1   -1    0    0    0  501 -0.00000000000E+00 -0.00000000000E+00 -0.39220534751E+02  0.39220534751E+02  0.00000000000E+00 0.  1.
         25    2    1    2    0    0  0.15394593438E+03  0.64274938846E+02  0.37053158675E+03  0.42517161353E+03  0.12508647289E+03 0.  0.
          5    1    3    3  502    0  0.12987667810E+03  0.17588982684E+02  0.33968225781E+03  0.36411376312E+03  0.41800000000E+01 0.  1.
         -5    1    3    3    0  502  0.24069256284E+02  0.46685956163E+02  0.30849328940E+02  0.61057850412E+02  0.41800000000E+01 0.  1.
        -11    1    1    2    0    0 -0.80312633352E+02  0.15516060330E+02  0.30893824479E+03  0.31958364523E+03  0.00000000000E+00 0.  1.
         11    1    1    2    0    0 -0.73633301027E+02 -0.79790999176E+02  0.44146060680E+03  0.45461624908E+03  0.00000000000E+00 0. -1.
</event>
<event>
 7    1  0.2380582E-009  0.9164206E+02  0.7561462E-02  0.1298923E+00
          2   -1    0    0  501    0  0.00000000000E+00  0.00000000000E+00  0.10927132599E+03  0.10927132599E+03  0.00000000000E+00 0. -1.
         -2   -1    0    0    0  501 -0.00000000000E+00 -0.00000000000E+00 -0.29586456126E+03  0.29586456126E+03  0.00000000000E+00 0.  1.
         25    2    1    2    0    0 -0.57143317696E+02 -0.11794606819E+02 -0.24577043401E+03  0.28187800127E+03  0.12509048669E+03 0.  0.
          5    1    3    3  502    0 -0.88692895265E+02  0.40711587043E+01 -0.22192303073E+03  0.23906130589E+03  0.41800000000E+01 0.  1.
         -5    1    3    3    0  502  0.31549577569E+02 -0.15865765523E+02 -0.23847403274E+02  0.42816695381E+02  0.41800000000E+01 0.  1.
        -11    1    1    2    0    0  0.17978744277E+02  0.73484886224E+01  0.77424097700E+02  0.79823094624E+02  0.00000000000E+00 0. -1.
         11    1    1    2    0    0  0.39164573419E+02  0.44461181965E+01 -0.18246898968E+02  0.43434791355E+02  0.00000000000E+00 0.  1.
</event>
<event>
 7    1  0.2380582E-009  0.1346296E+03  0.7561462E-02  0.1220744E+00
         -1   -1    0    0    0  501 -0.00000000000E+00  0.00000000000E+00  0.60200188930E+02  0.60200188930E+02  0.00000000000E+00 0.  1.
          1   -1    0    0  501    0  0.00000000000E+00 -0.00000000000E+00 -0.59832780660E+03  0.59832780660E+03  0.00000000000E+00 0. -1.
         25    2    1    2    0    0 -0.97155662294E+02  0.50994797376E+02 -0.47126354320E+03  0.49977761072E+03  0.12509452807E+03 0.  0.
          5    1    3    3  502    0 -0.96443376510E+02  0.37416533352E+01 -0.41540469229E+03  0.42649015888E+03  0.41800000000E+01 0.  1.
         -5    1    3    3    0  502 -0.71228578412E+00  0.47253144041E+02 -0.55858850910E+02  0.73287451843E+02  0.41800000000E+01 0.  1.
        -11    1    1    2    0    0  0.16462483302E+02 -0.40649045299E+02 -0.63697382565E+02  0.77335081210E+02  0.00000000000E+00 0. -1.
         11    1    1    2    0    0  0.80693178992E+02 -0.10345752077E+02 -0.31666919004E+01  0.81415303595E+02  0.00000000000E+00 0.  1.
</event>
<event>
 7    1  0.2380582E-009  0.9580602E+02  0.7561462E-02  0.1289371E+00
          2   -1    0    0  501    0  0.00000000000E+00  0.00000000000E+00  0.13366964296E+04  0.13366964296E+04  0.00000000000E+00 0. -1.
         -2   -1    0    0    0  501 -0.00000000000E+00 -0.00000000000E+00 -0.15206564262E+02  0.15206564262E+02  0.00000000000E+00 0.  1.
         25    2    1    2    0    0  0.33939612591E+02 -0.41746323297E+01  0.11441874084E+04  0.11515126880E+04  0.12508924940E+03 0.  0.
          5    1    3    3  502    0 -0.41212400296E+02 -0.96119882250E+01  0.20881109069E+03  0.21309715215E+03  0.41800000000E+01 0.  1.
         -5    1    3    3    0  502  0.75152012887E+02  0.54373558953E+01  0.93537631767E+03  0.93841553586E+03  0.41800000000E+01 0.  1.
        -11    1    1    2    0    0  0.39381659560E+01  0.28393094439E+02  0.15766853325E+02  0.32714990856E+02  0.00000000000E+00 0.  1.
         11    1    1    2    0    0 -0.37877778547E+02 -0.24218462109E+02  0.16153560361E+03  0.16767531496E+03  0.00000000000E+00 0. -1.
</event>
<event>
 7    1  0.2380582E-009  0.1246516E+03  0.7561462E-02  0.1235615E+00
          1   -1    0    0  501    0  0.00000000000E+00  0.00000000000E+00  0.32171610254E+03  0.32171610254E+03  0.00000000000E+00 0. -1.
         -1   -1    0    0    0  501 -0.00000000000E+00 -0.00000000000E+00 -0.51451248768E+02  0.51451248768E+02  0.00000000000E+00 0.  1.
         25    2    1    2    0    0 -0.46126367616E+02 -0.48743191119E+02  0.11884309225E+03  0.18513300021E+03  0.12508799591E+03 0.  0.
          5    1    3    3  502    0 -0.78392204915E+02  0.95216785080E+00  0.45453625836E+02  0.90717963583E+02  0.41800000000E+01 0. -1.
         -5    1    3    3    0  502  0.32265837299E+02 -0.49695358970E+02  0.73389466416E+02  0.94415036624E+02  0.41800000000E+01 0. -1.
        -11    1    1    2    0    0  0.44711190240E+02 -0.15360359584E+02  0.60603949830E+02  0.76862669185E+02  0.00000000000E+00 0.  1.
         11    1    1    2    0    0  0.14151773756E+01  0.64103550704E+02  0.90817811685E+02  0.11117168191E+03  0.00000000000E+00 0. -1.
</event>
<event>
 7    1  0.2380582E-009  0.8778067E+02  0.7561462E-02  0.1308317E+00
         -2   -1    0    0    0  501 -0.00000000000E+00  0.00000000000E+00  0.48915367900E+02  0.48915367900E+02  0.00000000000E+00 0.  1.
          2   -1    0    0  501    0  0.00000000000E+00 -0.00000000000E+00 -0.25431022631E+03  0.25431022631E+03  0.00000000000E+00 0. -1.
         25    2    1    2    0    0  0.18863585690E+02  0.14312274160E+02 -0.11592709509E+03  0.17218643213E+03  0.12509356489E+03 0.  0.
          5    1    3    3  502    0  0.66540638509E+02 -0.18029137242E+02 -0.55607718027E+02  0.88670158831E+02  0.41800000000E+01 0.  1.
         -5    1    3    3    0  502 -0.47677052820E+02  0.32341411402E+02 -0.60319377059E+02  0.83516273299E+02  0.41800000000E+01 0.  1.
        -11    1    1    2    0    0 -0.85815260835E+01  0.15213652548E+02 -0.97261404322E+02  0.98817400211E+02  0.00000000000E+00 0. -1.
         11    1    1    2    0    0 -0.10282059606E+02 -0.29525926708E+02  0.77936410013E+01  0.32221761866E+02  0.00000000000E+00 0.  1.
</event>
<event>
 7    1  0.2380582E-009  0.9498040E+02  0.7561462E-02  0.1291220E+00
         -1   -1    0    0    0  501 -0.00000000000E+00  0.00000000000E+00  0.18703160851E+03  0.18703160851E+03  0.00000000000E+00 0.  1.
          1   -1    0    0  501    0  0.00000000000E+00 -0.00000000000E+00 -0.77765417253E+02  0.77765417253E+02  0.00000000000E+00 0. -1.
         25    2    1    2    0    0  0.36994102796E+02  0.76318190623E+01  0.25662339774E+02  0.13316189463E+03  0.12508687459E+03 0.  0.
          5    1    3    3  502    0  0.13377333051E+02  0.52402192755E+02 -0.26488020141E+02  0.60365805355E+02  0.41800000000E+01 0.  1.
         -5    1    3    3    0  502  0.23616769745E+02 -0.44770373693E+02  0.52150359916E+02  0.72796089271E+02  0.41800000000E+01 0.  1.
        -11    1    1    2    0    0 -0.55345191461E+02  0.13470979098E+02  0.17071544793E+02  0.59464234102E+02  0.00000000000E+00 0. -1.
         11    1    1    2    0    0  0.18351088665E+02 -0.21102798160E+02  0.66532306687E+02  0.72170897033E+02  0.00000000000E+00 0.  1.
</event>
<event>
 7    1  0.2380582E-009  0.1074014E+03  0.7561462E-02  0.1265459E+00
         -1   -1    0    0    0  501 -0.00000000000E+00  0.00000000000E+00  0.44451801866E+02  0.44451801866E+02  0.00000000000E+00 0. -1.
          1   -1    0    0  501    0  0.00000000000E+00 -0.00000000000E+00 -0.29057168790E+03  0.29057168790E+03  0.00000000000E+00 0.  1.
         25    2    1    2    0    0 -0.35077304988E+02 -0.19647976416E+01 -0.15265075033E+03  0.20045863386E+03  0.12508850690E+03 0.  0.
          5    1    3    3  502    0  0.26255540369E+02  0.40475524882E+02 -0.93037894836E+02  0.10488633748E+03  0.41800000000E+01 0. -1.
         -5    1    3    3    0  502 -0.61332845357E+02 -0.42440322524E+02 -0.59612855490E+02  0.95572296379E+02  0.41800000000E+01 0. -1.
        -11    1    1    2    0    0  0.51931424983E+02 -0.26721951096E+02 -0.37352666166E+02  0.69326454120E+02  0.00000000000E+00 0.  1.
         11    1    1    2    0    0 -0.16854119995E+02  0.28686748737E+02 -0.56116469542E+02  0.65238401787E+02  0.00000000000E+00 0. -1.
</event>
<event>
 7    1  0.2380582E-009  0.1202260E+03  0.7561462E-02  0.1242725E+00
          2   -1    0    0  501    0  0.00000000000E+00  0.00000000000E+00  0.95692080235E+03  0.95692080235E+03  0.00000000000E+00 0. -1.
         -2   -1    0    0    0  501 -0.00000000000E+00 -0.00000000000E+00 -0.27404024415E+02  0.27404024415E+02  0.00000000000E+00 0.  1.
         25    2    1    2    0    0 -0.84167024770E+02 -0.24884989788E+02  0.74821218409E+03  0.76365714525E+03  0.12508961707E+03 0.  0.
          5    1    3    3  502    0  0.12383152935E+02 -0.50755888214E+02  0.23306912062E+03  0.23888949339E+03  0.41800000000E+01 0. -1.
         -5    1    3    3    0  502 -0.96550177705E+02  0.25870898426E+02  0.51514306348E+03  0.52476765187E+03  0.41800000000E+01 0. -1.
        -11    1    1    2    0    0  0.23854387645E+02  0.41061701418E+01 -0.41410112111E+01  0.24556881256E+02  0.00000000000E+00 0.  1.
         11    1    1    2    0    0  0.60312637124E+02  0.20778819646E+02  0.18544560505E+03  0.19611080025E+03  0.00000000000E+00 0. -1.
</event>
<event>
 7    1  0.2380582E-009  0.1317854E+03  0.7561462E-02  0.1224830E+00
          2   -1    0    0  501    0  0.00000000000E+00  0.00000000000E+00  0.21540307201E+04  0.21540307201E+04  0.00000000000E+00 0. -1.
         -2   -1    0    0    0  501 -0.00000000000E+00 -0.00000000000E+00 -0.14585904690E+02  0.14585904690E+02  0.00000000000E+00 0.  1.
         25    2    1    2    0    0  0.88907030702E+02 -0.39997293611E+02  0.17584104525E+04  0.17655477802E+04  0.12508957178E+03 0.  0.
          5    1    3    3  502    0 -0.11059678713E+02 -0.30419819261E+02  0.99673268387E+03  0.99726686368E+03  0.41800000000E+01 0. -1.
         -5    1    3    3    0  502  0.99966709415E+02 -0.95774743502E+01  0.76167776865E+03  0.76828091650E+03  0.41800000000E+01 0. -1.
        -11    1    1    2    0    0  0.11282168252E+02 -0.12890931718E+02  0.35132650421E+02  0.39086654585E+02  0.00000000000E+00 0. -1.
         11    1    1    2    0    0 -0.10018919895E+03  0.52888225329E+02  0.34590171246E+03  0.36398219001E+03  0.00000000000E+00 0.  1.
</event>
<event>
 7    1  0.2380582E-009  0.9139869E+02  0.7561462E-02  0.1299499E+00
         -2   -1    0    0    0  501 -0.00000000000E+00  0.00000000000E+00  0.27217948793E+03  0.27217948793E+03  0.00000000000E+00 0.  1.
          2   -1    0    0  501    0  0.00000000000E+00 -0.00000000000E+00 -0.53053017683E+02  0.53053017683E+02  0.00000000000E+00 0. -1.
         25    2    1    2    0    0 -0.45873834864E+02 -0.21442848082E+02  0.11809308774E+03  0.17932613919E+03  0.12509069655E+03 0.  0.
          5    1    3    3  502    0 -0.33473953805E+02 -0.71809061938E+02  0.50596996836E+02  0.94098753704E+02  0.41800000000E+01 0.  1.
         -5    1    3    3    0  502 -0.12399881059E+02  0.50366213857E+02  0.67496090905E+02  0.85227385482E+02  0.41800000000E+01 0.  1.
        -11    1    1    2    0    0  0.20317107358E+02  0.46546643199E+01 -0.15149294899E+02  0.25767263868E+02  0.00000000000E+00 0. -1.
         11    1    1    2    0    0  0.25556727506E+02  0.16788183762E+02  0.11618267741E+03  0.12013910256E+03  0.00000000000E+00 0.  1.
</event>
<event>
 7    1  0.2380582E-009  0.1482905E+03  0.7561462E-02  0.1202589E+00
          3   -1    0    0  501    0  0.00000000000E+00  0.00000000000E+00  0.38478325496E+02  0.38478325496E+02  0.00000000000E+00 0. -1.
         -3   -1    0    0    0  501 -0.00000000000E+00 -0.00000000000E+00 -0.62162875064E+03  0.62162875064E+03  0.00000000000E+00 0.  1.
         25    2    1    2    0    0 -0.10471709377E+03  0.31132881486E+02 -0.33631278555E+03  0.37508528538E+03  0.12509098906E+03 0.  0.
          5    1    3    3  502    0 -0.12469543852E+03  0.52976014993E+02 -0.26204146524E+03  0.29502307106E+03  0.41800000000E+01 0. -1.
         -5    1    3    3    0  502  0.19978344755E+02 -0.21843133507E+02 -0.74271320311E+02  0.80062214317E+02  0.41800000000E+01 0. -1.
        -11    1    1    2    0    0  0.11475712265E+03 -0.35596994444E+02 -0.24627295699E+03  0.27401954777E+03  0.00000000000E+00 0.  1.
         11    1    1    2    0    0 -0.10040028884E+02  0.44641129573E+01 -0.56468260707E+00  0.11002242996E+02  0.00000000000E+00 0. -1.
</event>
<event>
 7    1  0.2380582E-009  0.9978199E+02  0.7561462E-02  0.1280755E+00
         -1   -1    0    0    0  501 -0.00000000000E+00  0.00000000000E+00  0.72052373848E+02  0.72052373848E+02  0.00000000000E+00 0.  1.
          1   -1    0    0  501    0  0.00000000000E+00 -0.00000000000E+00 -0.19895528170E+03  0.19895528170E+03  0.00000000000E+00 0. -1.
         25    2    1    2    0    0 -0.39795375658E+02 -0.26548537262E+02 -0.10229657768E+03  0.16852090187E+03  0.12508480246E+03 0.  0.
          5    1    3    3  502    0 -0.63211203045E+02  0.31638876127E+02 -0.49056762750E+02  0.86143560667E+02  0.41800000000E+01 0. -1.
         -5    1    3    3    0  502  0.23415827386E+02 -0.58187413389E+02 -0.53239814930E+02  0.82377341198E+02  0.41800000000E+01 0. -1.
        -11    1    1    2    0    0  0.39348618530E+02  0.89288526318E-02  0.24722035842E+02  0.46470344480E+02  0.00000000000E+00 0.  1.
         11    1    1    2    0    0  0.44675712858E+00  0.26539608409E+02 -0.49328366018E+02  0.56016409207E+02  0.00000000000E+00 0. -1.
</event>
<event>
 7    1  0.2883963E-009  0.7123920E+02  0.7561462E-02  0.1355929E+00
          1   -1    0    0  501    0  0.00000000000E+00  0.00000000000E+00  0.84924463890E+02  0.84924463890E+02  0.00000000000E+00 0. -1.
         -1   -1    0    0    0  501 -0.00000000000E+00 -0.00000000000E+00 -0.15886925749E+03  0.15886925749E+03  0.00000000000E+00 0.  1.
         25    2    1    2    0    0 -0.22221657499E+02 -0.12191332249E+01 -0.43709932953E+01  0.12713223988E+03  0.12509281549E+03 0.  0.
          5    1    3    3  502    0  0.52705342399E+01 -0.16958811217E+02 -0.60146201768E+02  0.62852349170E+02  0.41800000000E+01 0.  1.
         -5    1    3    3    0  502 -0.27492191739E+02  0.15739677992E+02  0.55775208472E+02  0.64279890713E+02  0.41800000000E+01 0.  1.
        -11    1    1    2    0    0  0.12617793561E+02 -0.44144046125E+02 -0.44540616691E+02  0.63966960674E+02  0.00000000000E+00 0.  1.
         11    1    1    2    0    0  0.96038639378E+01  0.45363179350E+02 -0.25033183619E+02  0.52694520828E+02  0.00000000000E+00 0. -1.
</event>
<event>
 7    1  0.2380582E-009  0.1167981E+03  0.7561462E-02  0.1248475E+00
          2   -1    0    0  501    0  0.00000000000E+00  0.00000000000E+00  0.12286576187E+04  0.12286576187E+04  0.00000000000E+00 0. -1.
         -2   -1    0    0    0  501 -0.00000000000E+00 -0.00000000000E+00 -0.30678358573E+02  0.30678358573E+02  0.00000000000E+00 0.  1.
         25    2    1    2    0    0 -0.96582764023E+02  0.43283951839E+01  0.10431185862E+04  0.10550302652E+04  0.12508201452E+03 0.  0.
          5    1    3    3  502    0 -0.73598749947E+02  0.14025539220E+02  0.10126694523E+04  0.10154459039E+04  0.41800000000E+01 0.  1.
         -5    1    3    3    0  502 -0.22984014076E+02 -0.96971440359E+01  0.30449133895E+02  0.39584361312E+02  0.41800000000E+01 0.  1.
        -11    1    1    2    0    0  0.62854640677E+02 -0.47279563256E+02  0.91520629140E+02  0.12067347892E+03  0.00000000000E+00 0.  1.
         11    1    1    2    0    0  0.33728123346E+02  0.42951168073E+02  0.63340044759E+02  0.83632233100E+02  0.00000000000E+00 0. -1.
</event>
<event>
 7    1  0.2380582E-009  0.8336925E+02  0.7561462E-02  0.1319753E+00
         -2   -1    0    0    0  501 -0.00000000000E+00  0.00000000000E+00  0.41109445234E+02  0.41109445234E+02  0.00000000000E+00 0.  1.
          2   -1    0    0  501    0  0.00000000000E+00 -0.00000000000E+00 -0.33153594940E+03  0.33153594940E+03  0.00000000000E+00 0. -1.
         25    2    1    2    0    0 -0.23088052331E+02  0.10077471957E+02 -0.10782114211E+03  0.16705693690E+03  0.12509199766E+03 0.  0.
          5    1    3    3  502    0 -0.15039742565E+01 -0.41355987422E+02  0.42419606852E+01  0.41809643202E+02  0.41800000000E+01 0.  1.
         -5    1    3    3    0  502 -0.21584078074E+02  0.51433459379E+02 -0.11206310280E+03  0.12524729370E+03  0.41800000000E+01 0.  1.
        -11    1    1    2    0    0  0.21172319299E+02 -0.36779811294E+02 -0.17138509095E+03  0.17656123874E+03  0.00000000000E+00 0.  1.
         11    1    1    2    0    0  0.19157330320E+01  0.26702339338E+02 -0.11220271101E+02  0.29027218998E+02  0.00000000000E+00 0. -1.
</event>
<event>
 7    1  0.3169964E-009  0.9671340E+02  0.7561462E-02  0.1287363E+00
          1   -1    0    0  501    0  0.00000000000E+00  0.00000000000E+00  0.50984810780E+03  0.50984810780E+03  0.00000000000E+00 0. -1.
         -1   -1    0    0    0  501 -0.00000000000E+00 -0.00000000000E+00 -0.36009626346E+02  0.36009626346E+02  0.00000000000E+00 0.  1.
         25    2    1    2    0    0 -0.13187732921E+02 -0.29977773016E+02  0.40938236479E+03  0.42931755776E+03  0.12508821538E+03 0.  0.
          5    1    3    3  502    0 -0.51049423832E+02 -0.33691958455E+02  0.36751371348E+03  0.37259226204E+03  0.41800000000E+01 0. -1.
         -5    1    3    3    0  502  0.37861690911E+02  0.37141854388E+01  0.41868651310E+02  0.56725295721E+02  0.41800000000E+01 0. -1.
        -11    1    1    2    0    0 -0.37755653091E+02  0.94317516693E+01  0.12352795628E+02  0.40829386962E+02  0.00000000000E+00 0.  1.
         11    1    1    2    0    0  0.50943386012E+02  0.20546021347E+02  0.52103321033E+02  0.75710789418E+02  0.00000000000E+00 0. -1.
</event>
<event>
 7    1  0.2380582E-009  0.1951120E+03  0.7561462E-02  0.1153930E+00
         -2   -1    0    0    0  501 -0.00000000000E+00  0.00000000000E+00  0.44375370937E+02  0.44375370937E+02  0.00000000000E+00 0.  1.
          2   -1    0    0  501    0  0.00000000000E+00 -0.00000000000E+00 -0.11686470628E+04  0.11686470628E+04  0.00000000000E+00 0. -1.
         25    2    1    2    0    0  0.82503782402E+02  0.14123416856E+03 -0.27637837298E+03  0.34465423661E+03  0.12509026055E+03 0.  0.
          5    1    3    3  502    0  0.80479007765E+01  0.12656125814E+03 -0.20036370173E+03  0.23716156126E+03  0.41800000000E+01 0.  1.
         -5    1    3    3    0  502  0.74455881626E+02  0.14672910413E+02 -0.76014671253E+02  0.10749267535E+03  0.41800000000E+01 0.  1.
        -11    1    1    2    0    0 -0.28816156993E+02 -0.12912201412E+03 -0.58429623597E+03  0.59908676901E+03  0.00000000000E+00 0.  1.
         11    1    1    2    0    0 -0.53687625409E+02 -0.12112154438E+02 -0.26359708286E+03  0.26928142806E+03  0.00000000000E+00 0. -1.
</event>
<event>
 7    1  0.2380582E-009  0.1166826E+03  0.7561462E-02  0.1248672E+00
         -2   -1    0    0    0  501 -0.00000000000E+00  0.00000000000E+00  0.46550194378E+02  0.46550194378E+02  0.00000000000E+00 0.  1.
          2   -1    0    0  501    0  0.00000000000E+00 -0.00000000000E+00 -0.61622361489E+03  0.61622361489E+03  0.00000000000E+00 0. -1.
         25    2    1    2    0    0 -0.84279430226E+02 -0.22016205215E+02 -0.49054810614E+03  0.51368645988E+03  0.12509436026E+03 0.  0.
          5    1    3    3  502    0 -0.84706752994E+02  0.32995668087E+02 -0.22974930143E+03  0.24711568551E+03  0.41800000000E+01 0. -1.
         -5    1    3    3    0  502  0.42732276803E+00 -0.55011873303E+02 -0.26079880471E+03  0.26657077437E+03  0.41800000000E+01 0. -1.
        -11    1    1    2    0    0  0.53734698195E+02  0.15923307835E+02  0.79534744794E+01  0.56605894382E+02  0.00000000000E+00 0.  1.
         11    1    1    2    0    0  0.30544732031E+02  0.60928973799E+01 -0.87078788849E+02  0.92481455010E+02  0.00000000000E+00 0. -1.
</event>
<event>
 7    1  0.2380582E-009  0.1316173E+03  0.7561462E-02  0.1225076E+00
          3   -1    0    0  501    0  0.00000000000E+00  0.00000000000E+00  0.55535021164E+02  0.55535021164E+02  0.00000000000E+00 0. -1.
         -3   -1    0    0    0  501 -0.00000000000E+00 -0.00000000000E+00 -0.50963930347E+03  0.50963930347E+03  0.00000000000E+00 0.  1.
         25    2    1    2    0    0  0.12047288213E+03  0.11447780231E+02 -0.31368041778E+03  0.35873106167E+03  0.12509117919E+03 0.  0.
          5    1    3    3  502    0  0.12855294960E+03  0.14378067948E+02 -0.16480381564E+03  0.20954798910E+03  0.41800000000E+01 0. -1.
         -5    1    3    3    0  502 -0.80800674662E+01 -0.29302877166E+01 -0.14887660214E+03  0.14918307257E+03  0.41800000000E+01 0. -1.
        -11    1    1    2    0    0 -0.68994991888E+02 -0.20524348328E+02 -0.13613647964E+03  0.15399577549E+03  0.00000000000E+00 0.  1.
         11    1    1    2    0    0 -0.51477890245E+02  0.90765680974E+01 -0.42873848840E+01  0.52447487467E+02  0.00000000000E+00 0. -1.
</event>
<event>
 7    1  0.2380582E-009  0.1122364E+03  0.7561462E-02  0.1256484E+00
         -1   -1    0    0    0  501 -0.00000000000E+00  0.00000000000E+00  0.68550752671E+02  0.68550752671E+02  0.00000000000E+00 0.  1.
          1   -1    0    0  501    0  0.00000000000E+00 -0.00000000000E+00 -0.23466321703E+03  0.23466321703E+03  0.00000000000E+00 0. -1.
         25    2    1    2    0    0 -0.56081310218E+02 -0.36388854143E+02 -0.10256889345E+03  0.17503475082E+03  0.12509006367E+03 0.  0.
          5    1    3    3  502    0 -0.14452785792E+01  0.42586199159E+02 -0.48706255046E+02  0.64849401459E+02  0.41800000000E+01 0. -1.
         -5    1    3    3    0  502 -0.54636031639E+02 -0.78975053302E+02 -0.53862638409E+02  0.11018534936E+03  0.41800000000E+01 0. -1.
        -11    1    1    2    0    0  0.62834738747E+02  0.17132942093E+02 -0.79141659480E+02  0.10249460651E+03  0.00000000000E+00 0. -1.
         11    1    1    2    0    0 -0.67534285292E+01  0.19255912049E+02  0.15598088573E+02  0.25684612376E+02  0.00000000000E+00 0.  1.
</event>
<event>
 7    1  0.2380582E-009  0.9656649E+02  0.7561462E-02  0.1287686E+00
          2   -1    0    0  501    0  0.00000000000E+00  0.00000000000E+00  0.22905950258E+03  0.22905950258E+03  0.00000000000E+00 0. -1.
         -2   -1    0    0    0  501 -0.00000000000E+00 -0.00000000000E+00 -0.83626652359E+02  0.83626652359E+02  0.00000000000E+00 0.  1.
         25    2    1    2    0    0  0.15839813776E+01  0.54976062678E+02  0.56084368863E+01  0.13676190070E+03  0.12508991347E+03 0.  0.
          5    1    3    3  502    0  0.43124787902E+02 -0.10879654867E+02  0.31432197105E+02  0.54622061811E+02  0.41800000000E+01 0.  1.
         -5    1    3    3    0  502 -0.41540806525E+02  0.65855717545E+02 -0.25823760219E+02  0.82139838884E+02  0.41800000000E+01 0.  1.
        -11    1    1    2    0    0  0.13649924481E+02 -0.22141296473E+00 -0.91783138551E+01  0.16450255538E+02  0.00000000000E+00 0.  1.
         11    1    1    2    0    0 -0.15233905859E+02 -0.54754649713E+02  0.14900272719E+03  0.15947399871E+03  0.00000000000E+00 0. -1.
</event>
<event>
 7    1  0.2380582E-009  0.1285594E+03  0.7561462E-02  0.1229609E+00
          1   -1    0    0  501    0  0.00000000000E+00  0.00000000000E+00  0.16989196075E+03  0.16989196075E+03  0.00000000000E+00 0. -1.
         -1   -1    0    0    0  501 -0.00000000000E+00 -0.00000000000E+00 -0.22040314339E+03  0.22040314339E+03  0.00000000000E+00 0.  1.
         25    2    1    2    0    0 -0.31145708842E+00  0.98434983259E+02 -0.15345685255E+03  0.22110360303E+03  0.12509298439E+03 0.  0.
          5    1    3    3  502    0  0.39293500435E+02  0.49953775337E+02 -0.99301209005E+01  0.64462691132E+02  0.41800000000E+01 0.  1.
         -5    1    3    3    0  502 -0.39604957524E+02  0.48481207922E+02 -0.14352673165E+03  0.15664091190E+03  0.41800000000E+01 0.  1.
        -11    1    1    2    0    0 -0.38089012152E+02 -0.19244420049E+02  0.16282666906E+02  0.45675439694E+02  0.00000000000E+00 0. -1.
         11    1    1    2    0    0  0.38400469240E+02 -0.79190563210E+02  0.86663003001E+02  0.12351606142E+03  0.00000000000E+00 0.  1.
</event>
<event>
 7    1  0.2380582E-009  0.9009239E+02  0.7561462E-02  0.1302628E+00
         -1   -1    0    0    0  501 -0.00000000000E+00  0.00000000000E+00  0.30357044750E+02  0.30357044750E+02  0.00000000000E+00 0.  1.
          1   -1    0    0  501    0  0.00000000000E+00 -0.00000000000E+00 -0.62692164078E+03  0.62692164078E+03  0.00000000000E+00 0. -1.
         25    2    1    2    0    0  0.41942015913E+02 -0.12765648965E+02 -0.15794417884E+03  0.20619290054E+03  0.12508818534E+03 0.  0.
          5    1    3    3  502    0  0.44501798772E+02 -0.33679762149E+02 -0.17176313722E+03  0.18065100105E+03  0.41800000000E+01 0.  1.
         -5    1    3    3    0  502 -0.25597828597E+01  0.20914113184E+02  0.13818958384E+02  0.25541899486E+02  0.41800000000E+01 0.  1.
        -11    1    1    2    0    0 -0.57754709951E+02  0.40688726733E+02 -0.25152928075E+03  0.26126262281E+03  0.00000000000E+00 0.  1.
         11    1    1    2    0    0  0.15812694038E+02 -0.27923077768E+02 -0.18709113644E+03  0.18982316218E+03  0.00000000000E+00 0. -1.
</event>
<event>
 7    1  0.2380582E-009  0.3578737E+03  0.7561462E-02  0.1059429E+00
         -2   -1    0    0    0  501 -0.00000000000E+00  0.00000000000E+00  0.18827803795E+03  0.18827803795E+03  0.00000000000E+00 0.  1.
          2   -1    0    0  501    0  0.00000000000E+00 -0.00000000000E+00 -0.85505358559E+03  0.85505358559E+03  0.00000000000E+00 0. -1.
         25    2    1    2    0    0  0.30697580189E+03  0.18261444923E+03 -0.52684123040E+03  0.64868420817E+03  0.12508932757E+03 0.  0.
          5    1    3    3  502    0  0.20651106854E+03  0.12117881842E+03 -0.44458441129E+03  0.50497910712E+03  0.41800000000E+01 0. -1.
         -5    1    3    3    0  502  0.10046473334E+03  0.61435630810E+02 -0.82256819108E+02  0.14370510105E+03  0.41800000000E+01 0. -1.
        -11    1    1    2    0    0 -0.12777114904E+03 -0.93293700302E+02 -0.15645888859E+02  0.15897790689E+03  0.00000000000E+00 0.  1.
         11    1    1    2    0    0 -0.17920465285E+03 -0.89320748927E+02 -0.12428842839E+03  0.23566950847E+03  0.00000000000E+00 0. -1.
</event>
<event>
 7    1  0.2380582E-009  0.4179620E+03  0.7561462E-02  0.1037732E+00
         -1   -1    0    0    0  501 -0.00000000000E+00  0.00000000000E+00  0.49061632809E+03  0.49061632809E+03  0.00000000000E+00 0.  1.
          1   -1    0    0  501    0  0.00000000000E+00 -0.00000000000E+00 -0.40270877209E+03  0.40270877209E+03  0.00000000000E+00 0. -1.
         25    2    1    2    0    0 -0.41244922158E+03 -0.10868239237E+02 -0.80447615406E+02  0.43857837559E+03  0.12508674475E+03 0.  0.
          5    1    3    3  502    0 -0.13315065232E+03  0.12729030999E+02 -0.84419731173E+02  0.15822543365E+03  0.41800000000E+01 0.  1.
         -5    1    3    3    0  502 -0.27929856925E+03 -0.23597270236E+02  0.39721157677E+01  0.28035294194E+03  0.41800000000E+01 0.  1.
        -11    1    1    2    0    0  0.23450660529E+03  0.49534288284E+02  0.83061649562E+02  0.25366558945E+03  0.00000000000E+00 0. -1.
         11    1    1    2    0    0  0.17794261628E+03 -0.38666049047E+02  0.85293521846E+02  0.20108113513E+03  0.00000000000E+00 0.  1.
</event>
<event>
 7    1  0.2380582E-009  0.1337518E+03  0.7561462E-02  0.1221993E+00
         -4   -1    0    0    0  501 -0.00000000000E+00  0.00000000000E+00  0.78263750930E+03  0.78263750930E+03  0.00000000000E+00 0.  1.
          4   -1    0    0  501    0  0.00000000000E+00 -0.00000000000E+00 -0.30146665547E+02  0.30146665547E+02  0.00000000000E+00 0. -1.
         25    2    1    2    0    0 -0.84442767636E+02 -0.66837322031E+02  0.41207973613E+03  0.44390860879E+03  0.12508930970E+03 0.  0.
          5    1    3    3  502    0 -0.22846219628E+01  0.16782490879E+02  0.20635751037E+03  0.20709361647E+03  0.41800000000E+01 0.  1.
         -5    1    3    3    0  502 -0.82158145673E+02 -0.83619812911E+02  0.20572222577E+03  0.23681499232E+03  0.41800000000E+01 0.  1.
        -11    1    1    2    0    0  0.73005950199E+02  0.87204130128E+01  0.12079351719E+03  0.14141070738E+03  0.00000000000E+00 0. -1.
         11    1    1    2    0    0  0.11436817437E+02  0.58116909018E+02  0.21961759043E+03  0.22746485867E+03  0.00000000000E+00 0.  1.
</event>
<event>
 7    1  0.2380582E-009  0.1344307E+03  0.7561462E-02  0.1221026E+00
         -1   -1    0    0    0  501 -0.00000000000E+00  0.00000000000E+00  0.11794262893E+03  0.11794262893E+03  0.00000000000E+00 0.  1.
          1   -1    0    0  501    0  0.00000000000E+00 -0.00000000000E+00 -0.18319368238E+03  0.18319368238E+03  0.00000000000E+00 0. -1.
         25    2    1    2    0    0  0.18611669271E+02  0.97272481503E+02 -0.36065813664E+02  0.16358182787E+03  0.12509972663E+03 0.  0.
          5    1    3    3  502    0  0.90132251647E+01  0.12031789947E+03 -0.54309327248E+02  0.13238055215E+03  0.41800000000E+01 0. -1.
         -5    1    3    3    0  502  0.95984441066E+01 -0.23045417970E+02  0.18243513584E+02  0.31201275720E+02  0.41800000000E+01 0. -1.
        -11    1    1    2    0    0 -0.16543900172E+02  0.74039798957E+01  0.15376473387E+02  0.23768792250E+02  0.00000000000E+00 0.  1.
         11    1    1    2    0    0 -0.20677690994E+01 -0.10467646140E+03 -0.44561713170E+02  0.11378569120E+03  0.00000000000E+00 0. -1.
</event>
<event>
 7    1  0.2380582E-009  0.9974291E+02  0.7561462E-02  0.1280838E+00
          2   -1    0    0  501    0  0.00000000000E+00  0.00000000000E+00  0.44964420390E+03  0.44964420390E+03  0.00000000000E+00 0.  1.
         -2   -1    0    0    0  501 -0.00000000000E+00 -0.00000000000E+00 -0.27982549819E+02  0.27982549819E+02  0.00000000000E+00 0. -1.
         25    2    1    2    0    0  0.25412196479E+02 -0.25105090903E+01  0.21257911286E+03  0.24796717363E+03  0.12508300279E+03 0.  0.
          5    1    3    3  502    0 -0.35022528067E+02 -0.21186731584E+02  0.16119918356E+03  0.16636737735E+03  0.41800000000E+01 0. -1.
         -5    1    3    3    0  502  0.60434724546E+02  0.18676222494E+02  0.51379929306E+02  0.81599796281E+02  0.41800000000E+01 0. -1.
        -11    1    1    2    0    0  0.42877953401E+01  0.43842546260E+02  0.92686719095E+02  0.10262252164E+03  0.00000000000E+00 0.  1.
         11    1    1    2    0    0 -0.29699991819E+02 -0.41332037170E+02  0.11639582213E+03  0.12703705845E+03  0.00000000000E+00 0. -1.
</event>
<event>
 7    1  0.2383435E-009  0.2317652E+03  0.7561462E-02  0.1125403E+00
         -3   -1    0    0    0  501 -0.00000000000E+00  0.00000000000E+00  0.37454131504E+02  0.37454131504E+02  0.00000000000E+00 0.  1.
          3   -1    0    0  501    0  0.00000000000E+00 -0.00000000000E+00 -0.15923248679E+04  0.15923248679E+04  0.00000000000E+00 0. -1.
         25    2    1    2    0    0  0.63582440705E+02  0.19726558433E+03 -0.57308279091E+03  0.62211476610E+03  0.12508580828E+03 0.  0.
          5    1    3    3  502    0 -0.37835742348E+02  0.51056338610E+02 -0.13559729137E+03  0.14980784672E+03  0.41800000000E+01 0. -1.
         -5    1    3    3    0  502  0.10141818305E+03  0.14620924572E+03 -0.43748549954E+03  0.47230691938E+03  0.41800000000E+01 0. -1.
        -11    1    1    2    0    0 -0.17916856488E+01 -0.13188241460E+03 -0.68334244721E+03  0.69595479851E+03  0.00000000000E+00 0. -1.
         11    1    1    2    0    0 -0.61790755056E+02 -0.65383169733E+02 -0.29844549826E+03  0.31170943477E+03  0.00000000000E+00 0.  1.
</event>
<event>
 7    1  0.2380582E-009  0.1521126E+03  0.7561462E-02  0.1197901E+00
          1   -1    0    0  501    0  0.00000000000E+00  0.00000000000E+00  0.34443630036E+03  0.34443630036E+03  0.00000000000E+00 0. -1.
         -1   -1    0    0    0  501 -0.00000000000E+00 -0.00000000000E+00 -0.89511536371E+02  0.89511536371E+02  0.00000000000E+00 0.  1.
         25    2    1    2    0    0 -0.12513241594E+03 -0.46321525135E+02  0.17660151374E+03  0.25425209097E+03  0.12510885618E+03 0.  0.
          5    1    3    3  502    0 -0.70501270572E+00 -0.31653536104E+02  0.10529597723E+03  0.11003253433E+03  0.41800000000E+01 0.  1.
         -5    1    3    3    0  502 -0.12442740324E+03 -0.14667989031E+02  0.71305536511E+02  0.14421955663E+03  0.41800000000E+01 0.  1.
        -11    1    1    2    0    0  0.61301745789E+01  0.25367112223E+02 -0.12109161724E+02  0.28769797020E+02  0.00000000000E+00 0.  1.
         11    1    1    2    0    0  0.11900224136E+03  0.20954412912E+02  0.90432411969E+02  0.15092594874E+03  0.00000000000E+00 0. -1.
</event>
<event>
 7    1  0.2380582E-009  0.1575962E+03  0.7561462E-02  0.1191438E+00
         -1   -1    0    0    0  501 -0.00000000000E+00  0.00000000000E+00  0.44815735513E+03  0.44815735513E+03  0.00000000000E+00 0.  1.
          1   -1    0    0  501    0  0.00000000000E+00 -0.00000000000E+00 -0.62571998326E+02  0.62571998326E+02  0.00000000000E+00 0. -1.
         25    2    1    2    0    0  0.23837318239E+02  0.12190185891E+03  0.22426654722E+03  0.28525655849E+03  0.12509012356E+03 0.  0.
          5    1    3    3  502    0 -0.38148894126E+02  0.10020910482E+03  0.11188068335E+03  0.15502245811E+03  0.41800000000E+01 0.  1.
         -5    1    3    3    0  502  0.61986212365E+02  0.21692754087E+02  0.11238586387E+03  0.13023410038E+03  0.41800000000E+01 0.  1.
        -11    1    1    2    0    0  0.19899173811E+02 -0.76473788524E+02  0.39597704585E+02  0.88386626013E+02  0.00000000000E+00 0.  1.
         11    1    1    2    0    0 -0.43736492050E+02 -0.45428070385E+02  0.12172110500E+03  0.13708616895E+03  0.00000000000E+00 0. -1.
</event>
<event>
 7    1  0.2380582E-009  0.1160659E+03  0.7561462E-02  0.1249732E+00
         -2   -1    0    0    0  501 -0.00000000000E+00  0.00000000000E+00  0.45441875135E+02  0.45441875135E+02  0.00000000000E+00 0.  1.
          2   -1    0    0  501    0  0.00000000000E+00 -0.00000000000E+00 -0.49029413254E+03  0.49029413254E+03  0.00000000000E+00 0. -1.
         25    2    1    2    0    0 -0.62191865915E+02  0.76430633952E+02 -0.18640398934E+03  0.24516025132E+03  0.12509049361E+03 0.  0.
          5    1    3    3  502    0 -0.60027376195E+02  0.62791967083E+02 -0.20437753793E+03  0.22211206053E+03  0.41800000000E+01 0.  1.
         -5    1    3    3    0  502 -0.21644897200E+01  0.13638666869E+02  0.17973548588E+02  0.23048190787E+02  0.41800000000E+01 0.  1.
        -11    1    1    2    0    0  0.60464050253E+02 -0.65332847666E+01 -0.94975967386E+02  0.11277863079E+03  0.00000000000E+00 0.  1.
         11    1    1    2    0    0  0.17278156621E+01 -0.69897349186E+02 -0.16347230068E+03  0.17779712557E+03  0.00000000000E+00 0. -1.
</event>
<event>
 7    1  0.2380582E-009  0.9790352E+02  0.7561462E-02  0.1284767E+00
          3   -1    0    0  501    0  0.00000000000E+00  0.00000000000E+00  0.16711692202E+03  0.16711692202E+03  0.00000000000E+00 0. -1.
         -3   -1    0    0    0  501 -0.00000000000E+00 -0.00000000000E+00 -0.78576295882E+02  0.78576295882E+02  0.00000000000E+00 0.  1.
         25    2    1    2    0    0 -0.35965256858E+02  0.10283539467E+02  0.66884054771E+02  0.14668975506E+03  0.12508060030E+03 0.  0.
          5    1    3    3  502    0 -0.98591237886E+01  0.58295058406E+02 -0.12032989664E+01  0.59282682841E+02  0.41800000000E+01 0.  1.
         -5    1    3    3    0  502 -0.26106133069E+02 -0.48011518939E+02  0.68087353738E+02  0.87407072218E+02  0.41800000000E+01 0.  1.
        -11    1    1    2    0    0  0.72668351698E+00  0.28968493081E+02  0.34157438447E+02  0.44793216692E+02  0.00000000000E+00 0. -1.
         11    1    1    2    0    0  0.35238573341E+02 -0.39252032549E+02 -0.12500867079E+02  0.54210246154E+02  0.00000000000E+00 0.  1.
</event>
<event>
 7    1  0.2380582E-009  0.9393940E+02  0.7561462E-02  0.1293583E+00
          2   -1    0    0  501    0  0.00000000000E+00  0.00000000000E+00  0.69898479407E+02  0.69898479407E+02  0.00000000000E+00 0. -1.
         -2   -1    0    0    0  501 -0.00000000000E+00 -0.00000000000E+00 -0.20342394721E+03  0.20342394721E+03  0.00000000000E+00 0.  1.
         25    2    1    2    0    0  0.12041871056E+02  0.36001069317E+02 -0.38156968386E+02  0.13617803743E+03  0.12508964782E+03 0.  0.
          5    1    3    3  502    0 -0.30280858611E+02 -0.32472079518E+02 -0.32866631006E+02  0.55399044939E+02  0.41800000000E+01 0. -1.
         -5    1    3    3    0  502  0.42322729666E+02  0.68473148835E+02 -0.52903373798E+01  0.80778992488E+02  0.41800000000E+01 0. -1.
        -11    1    1    2    0    0 -0.28361333724E+02 -0.36652880886E+02 -0.65123350847E+01  0.46799673462E+02  0.00000000000E+00 0. -1.
         11    1    1    2    0    0  0.16319462668E+02  0.65181156940E+00 -0.88856164333E+02  0.90344715729E+02  0.00000000000E+00 0.  1.
</event>
<event>
 7    1  0.2380582E-009  0.1516250E+03  0.7561462E-02  0.1198490E+00
          2   -1    0    0  501    0  0.00000000000E+00  0.00000000000E+00  0.98045516184E+02  0.98045516184E+02  0.00000000000E+00 0. -1.
         -2   -1    0    0    0  501 -0.00000000000E+00 -0.00000000000E+00 -0.32525516751E+03  0.32525516751E+03  0.00000000000E+00 0.  1.
         25    2    1    2    0    0 -0.13442418896E+03 -0.50546611456E+00 -0.17318189331E+03  0.25240336626E+03  0.12508146567E+03 0.  0.
          5    1    3    3  502    0 -0.61645625017E+02  0.36321066275E+02 -0.13337614477E+02  0.72902450570E+02  0.41800000000E+01 0.  1.
         -5    1    3    3    0  502 -0.72778563945E+02 -0.36826532389E+02 -0.15984427884E+03  0.17950091569E+03  0.41800000000E+01 0.  1.
        -11    1    1    2    0    0  0.10396773052E+03  0.29273811459E+02 -0.66922607481E+02  0.12706250595E+03  0.00000000000E+00 0.  1.
         11    1    1    2    0    0  0.30456458440E+02 -0.28768345344E+02  0.12894849469E+02  0.43834811478E+02  0.00000000000E+00 0. -1.
</event>
<event>
 7    1  0.2380582E-009  0.1505163E+03  0.7561462E-02  0.1199840E+00
          2   -1    0    0  501    0  0.00000000000E+00  0.00000000000E+00  0.28099491079E+03  0.28099491079E+03  0.00000000000E+00 0. -1.
         -2   -1    0    0    0  501 -0.00000000000E+00 -0.00000000000E+00 -0.10915621294E+03  0.10915621294E+03  0.00000000000E+00 0.  1.
         25    2    1    2    0    0  0.99084447961E+02  0.98714893527E+02  0.12713537814E+03  0.22665379575E+03  0.12508469420E+03 0.  0.
          5    1    3    3  502    0  0.33791582161E+02 -0.11500298881E+01  0.98012214793E+02  0.10376444595E+03  0.41800000000E+01 0. -1.
         -5    1    3    3    0  502  0.65292865800E+02  0.99864923415E+02  0.29123163346E+02  0.12288934981E+03  0.41800000000E+01 0. -1.
        -11    1    1    2    0    0 -0.94668871826E+01  0.48354793515E+01 -0.11326288421E+02  0.15533467832E+02  0.00000000000E+00 0.  1.
         11    1    1    2    0    0 -0.89617560779E+02 -0.10355037288E+03  0.56029608131E+02  0.14796386015E+03  0.00000000000E+00 0. -1.
</event>
<event>
 7    1  0.2380582E-009  0.1061430E+03  0.7561462E-02  0.1267884E+00
         -2   -1    0    0    0  501 -0.00000000000E+00  0.00000000000E+00  0.74971051140E+02  0.74971051140E+02  0.00000000000E+00 0. -1.
          2   -1    0    0  501    0  0.00000000000E+00 -0.00000000000E+00 -0.22343627988E+03  0.22343627988E+03  0.00000000000E+00 0.  1.
         25    2    1    2    0    0 -0.31022703690E+02 -0.57749100037E+02 -0.11160526771E+03  0.18000203637E+03  0.12509048972E+03 0.  0.
          5    1    3    3  502    0  0.14713778066E+02  0.15357835617E+02  0.15286847979E+02  0.26523923182E+02  0.41800000000E+01 0.  1.
         -5    1    3    3    0  502 -0.45736481756E+02 -0.73106935654E+02 -0.12689211569E+03  0.15347811319E+03  0.41800000000E+01 0.  1.
        -11    1    1    2    0    0 -0.14650674227E+02 -0.13315801186E+02  0.95925478536E+01  0.21999313417E+02  0.00000000000E+00 0. -1.
         11    1    1    2    0    0  0.45673377916E+02  0.71064901223E+02 -0.46452508887E+02  0.96405981236E+02  0.00000000000E+00 0.  1.
</event>
<event>
 7    1  0.2380582E-009  0.1191096E+03  0.7561462E-02  0.1244573E+00
          4   -1    0    0  501    0  0.00000000000E+00  0.00000000000E+00  0.12591815484E+03  0.12591815484E+03  0.00000000000E+00 0.  1.
         -4   -1    0    0    0  501 -0.00000000000E+00 -0.00000000000E+00 -0.12921405317E+03  0.12921405317E+03  0.00000000000E+00 0. -1.
         25    2    1    2    0    0 -0.53279360483E+02 -0.38817714458E+02  0.18857706484E+02  0.14265016840E+03  0.12509177527E+03 0.  0.
          5    1    3    3  502    0 -0.27640876012E+02  0.44765186478E+02 -0.14565296022E+01  0.52797100542E+02  0.41800000000E+01 0. -1.
         -5    1    3    3    0  502 -0.25638484472E+02 -0.83582900936E+02  0.20314236086E+02  0.89853067854E+02  0.41800000000E+01 0. -1.
        -11    1    1    2    0    0  0.48784457168E+02  0.59390181105E+02 -0.38370505021E+02  0.85903507079E+02  0.00000000000E+00 0. -1.
         11    1    1    2    0    0  0.44949033147E+01 -0.20572466647E+02  0.16216900202E+02  0.26578532539E+02  0.00000000000E+00 0.  1.
</event>
<event>
 7    1  0.2380582E-009  0.9808915E+02  0.7561462E-02  0.1284366E+00
          1   -1    0    0  501    0  0.00000000000E+00  0.00000000000E+00  0.50687896850E+03  0.50687896850E+03  0.00000000000E+00 0. -1.
         -1   -1    0    0    0  501 -0.00000000000E+00 -0.00000000000E+00 -0.29549429957E+02  0.29549429957E+02  0.00000000000E+00 0.  1.
         25    2    1    2    0    0 -0.38244404664E+02 -0.10860538297E+02  0.17775420798E+03  0.22095453017E+03  0.12507501815E+03 0.  0.
          5    1    3    3  502    0 -0.73106810291E+02 -0.17278559063E+02  0.16780529124E+03  0.18390008831E+03  0.41800000000E+01 0.  1.
         -5    1    3    3    0  502  0.34862405627E+02  0.64180207661E+01  0.99489167416E+01  0.37054441852E+02  0.41800000000E+01 0.  1.
        -11    1    1    2    0    0  0.19022091440E+02 -0.32589709967E+02  0.21656522134E+03  0.21982816983E+03  0.00000000000E+00 0.  1.
         11    1    1    2    0    0  0.19222313224E+02  0.43450248264E+02  0.83010109223E+02  0.95645698455E+02  0.00000000000E+00 0. -1.
</event>
<event>
 7    1  0.2380582E-009  0.1264751E+03  0.7561462E-02  0.1232782E+00
         -2   -1    0    0    0  501 -0.00000000000E+00  0.00000000000E+00  0.28743637806E+02  0.28743637806E+02  0.00000000000E+00 0.  1.
          2   -1    0    0  501    0  0.00000000000E+00 -0.00000000000E+00 -0.68447003269E+03  0.68447003269E+03  0.00000000000E+00 0. -1.
         25    2    1    2    0    0 -0.78302024558E+02  0.30143437534E+02 -0.27762308159E+03  0.31585084670E+03  0.12508936026E+03 0.  0.
          5    1    3    3  502    0 -0.86737448183E+02 -0.16692767925E+02 -0.23762210718E+03  0.25354244544E+03  0.41800000000E+01 0.  1.
         -5    1    3    3    0  502  0.84354236247E+01  0.46836205460E+02 -0.40000974414E+02  0.62308401261E+02  0.41800000000E+01 0.  1.
        -11    1    1    2    0    0  0.50329974102E+02 -0.58327731279E+02 -0.30013801434E+03  0.30986780759E+03  0.00000000000E+00 0.  1.
         11    1    1    2    0    0  0.27972050457E+02  0.28184293745E+02 -0.77965298950E+02  0.87495016206E+02  0.00000000000E+00 0. -1.
</event>
<event>
 7    1  0.3295954E-009  0.1247569E+03  0.7561462E-02  0.1235450E+00
         -1   -1    0    0    0  501 -0.00000000000E+00  0.00000000000E+00  0.31824920343E+02  0.31824920343E+02  0.00000000000E+00 0. -1.
          1   -1    0    0  501    0  0.00000000000E+00 -0.00000000000E+00 -0.67139577409E+03  0.67139577409E+03  0.00000000000E+00 0.  1.
         25    2    1    2    0    0 -0.24021403333E+02 -0.66138549236E+02 -0.50865406086E+03  0.52851453872E+03  0.12508928209E+03 0.  0.
          5    1    3    3  502    0 -0.34733571860E+02 -0.98197397370E+02 -0.43577675840E+03  0.44807142893E+03  0.41800000000E+01 0.  1.
         -5    1    3    3    0  502  0.10712168527E+02  0.32058848133E+02 -0.72877302467E+02  0.80443109793E+02  0.41800000000E+01 0.  1.
        -11    1    1    2    0    0 -0.31717768376E+02  0.13249808840E+02 -0.64736428949E+02  0.73296517639E+02  0.00000000000E+00 0.  1.
         11    1    1    2    0    0  0.55739171709E+02  0.52888740396E+02 -0.66180363937E+02  0.10140963807E+03  0.00000000000E+00 0. -1.
</event>
<event>
 7    1  0.2380582E-009  0.1139914E+03  0.7561462E-02  0.1253352E+00
         -2   -1    0    0    0  501 -0.00000000000E+00  0.00000000000E+00  0.85239540929E+02  0.85239540929E+02  0.00000000000E+00 0. -1.
          2   -1    0    0  501    0  0.00000000000E+00 -0.00000000000E+00 -0.17613355342E+03  0.17613355342E+03  0.00000000000E+00 0.  1.
         25    2    1    2    0    0 -0.42401469888E+02  0.16701675273E+02 -0.15338327888E+02  0.13400919983E+03  0.12508545371E+03 0.  0.
          5    1    3    3  502    0  0.81652076217E+01  0.60585597855E+02  0.10409026042E+02  0.62153885688E+02  0.41800000000E+01 0.  1.
         -5    1    3    3    0  502 -0.50566677510E+02 -0.43883922582E+02 -0.25747353930E+02  0.71855314139E+02  0.41800000000E+01 0.  1.
        -11    1    1    2    0    0  0.68268600126E+02 -0.24617687563E+02 -0.67570962032E+02  0.99158797966E+02  0.00000000000E+00 0.  1.
         11    1    1    2    0    0 -0.25867130238E+02  0.79160122900E+01 -0.79847225718E+01  0.28205096558E+02  0.00000000000E+00 0. -1.
</event>
<event>
 7    1  0.2380582E-009  0.1034241E+03  0.7561462E-02  0.1273256E+00
          3   -1    0    0  501    0  0.00000000000E+00  0.00000000000E+00  0.45040337168E+02  0.45040337168E+02  0.00000000000E+00 0. -1.
         -3   -1    0    0    0  501 -0.00000000000E+00 -0.00000000000E+00 -0.28456520239E+03  0.28456520239E+03  0.00000000000E+00 0.  1.
         25    2    1    2    0    0  0.14853038428E+02  0.12713933220E+02 -0.99623469319E+02  0.16110487787E+03  0.12509072382E+03 0.  0.
          5    1    3    3  502    0 -0.48845900479E+02 -0.33621759123E+01 -0.10404743419E+02  0.50229048429E+02  0.41800000000E+01 0.  1.
         -5    1    3    3    0  502  0.63698938907E+02  0.16076109132E+02 -0.89218725901E+02  0.11087582944E+03  0.41800000000E+01 0.  1.
        -11    1    1    2    0    0  0.36013125959E+02  0.81114817667E+01 -0.73920103665E+02  0.82625196542E+02  0.00000000000E+00 0.  1.
         11    1    1    2    0    0 -0.50866164387E+02 -0.20825414986E+02 -0.65981292235E+02  0.85875465145E+02  0.00000000000E+00 0. -1.
</event>
<event>
 7    1  0.2380582E-009  0.6911600E+02  0.7561462E-02  0.1363125E+00
         -2   -1    0    0    0  501 -0.00000000000E+00  0.00000000000E+00  0.30870084655E+03  0.30870084655E+03  0.00000000000E+00 0.  1.
          2   -1    0    0  501    0  0.00000000000E+00 -0.00000000000E+00 -0.42122644958E+02  0.42122644958E+02  0.00000000000E+00 0. -1.
         25    2    1    2    0    0 -0.10993518441E+02 -0.16364249362E+02  0.19971034040E+03  0.23647507862E+03  0.12509035392E+03 0.  0.
          5    1    3    3  502    0  0.31863897668E+02 -0.28273670442E+02  0.13354980732E+02  0.44839004507E+02  0.41800000000E+01 0.  1.
         -5    1    3    3    0  502 -0.42857416109E+02  0.11909421080E+02  0.18635535967E+03  0.19163607412E+03  0.41800000000E+01 0.  1.
        -11    1    1    2    0    0 -0.13785813764E+02 -0.80504509767E+01 -0.17140042599E+02  0.23423054505E+02  0.00000000000E+00 0. -1.
         11    1    1    2    0    0  0.24779332205E+02  0.24414700338E+02  0.84007903792E+02  0.90925358381E+02  0.00000000000E+00 0.  1.
</event>
<event>
 7    1  0.2380582E-009  0.8691594E+02  0.7561462E-02  0.1310497E+00
          2   -1    0    0  501    0  0.00000000000E+00  0.00000000000E+00  0.18733821234E+02  0.18733821234E+02  0.00000000000E+00 0. -1.
         -2   -1    0    0    0  501 -0.00000000000E+00 -0.00000000000E+00 -0.13535037380E+04  0.13535037380E+04  0.00000000000E+00 0.  1.
         25    2    1    2    0    0 -0.15555764346E+02  0.53927632918E+02 -0.11501725446E+04  0.11583148327E+04  0.12508476244E+03 0.  0.
          5    1    3    3  502    0 -0.31381679046E+02  0.71247575219E+01 -0.71682279470E+02  0.78685408683E+02  0.41800000000E+01 0.  1.
         -5    1    3    3    0  502  0.15825914700E+02  0.46802875396E+02 -0.10784902651E+04  0.10796294240E+04  0.41800000000E+01 0.  1.
        -11    1    1    2    0    0 -0.13179837384E+02 -0.60833433568E+02 -0.62154241292E+02  0.87963426853E+02  0.00000000000E+00 0. -1.
         11    1    1    2    0    0  0.28735601730E+02  0.69058006493E+01 -0.12244313082E+03  0.12595929967E+03  0.00000000000E+00 0.  1.
</event>
<event>
 7    1  0.2380582E-009  0.1318482E+03  0.7561462E-02  0.1224739E+00
          1   -1    0    0  501    0  0.00000000000E+00  0.00000000000E+00  0.64741979569E+03  0.64741979569E+03  0.00000000000E+00 0. -1.
         -1   -1    0    0    0  501 -0.00000000000E+00 -0.00000000000E+00 -0.31067051962E+02  0.31067051962E+02  0.00000000000E+00 0.  1.
         25    2    1    2    0    0  0.45874854297E+02  0.66638175703E+02  0.23414341080E+03  0.27751600760E+03  0.12508736521E+03 0.  0.
          5    1    3    3  502    0  0.84332811970E+02  0.28808192423E+02  0.18039299904E+03  0.20124870591E+03  0.41800000000E+01 0.  1.
         -5    1    3    3    0  502 -0.38457957673E+02  0.37829983280E+02  0.53750411757E+02  0.76267301692E+02  0.41800000000E+01 0.  1.
        -11    1    1    2    0    0  0.24769877889E+02 -0.35218622077E+02  0.11481762573E+03  0.12262538632E+03  0.00000000000E+00 0. -1.
         11    1    1    2    0    0 -0.70644732186E+02 -0.31419553626E+02  0.26739170720E+03  0.27834545373E+03  0.00000000000E+00 0.  1.
</event>
<event>
 7    1  0.2380582E-009  0.1039858E+03  0.7561462E-02  0.1272131E+00
          2   -1    0    0  501    0  0.00000000000E+00  0.00000000000E+00  0.30247904466E+03  0.30247904466E+03  0.00000000000E+00 0. -1.
         -2   -1    0    0    0  501 -0.00000000000E+00 -0.00000000000E+00 -0.38134142488E+02  0.38134142488E+02  0.00000000000E+00 0.  1.
         25    2    1    2    0    0  0.33130958779E+02  0.12289280465E+02  0.12619289520E+03  0.18116555945E+03  0.12509047241E+03 0.  0.
          5    1    3    3  502    0  0.80846825568E+02  0.99050926285E+01  0.71917941102E+02  0.10873813828E+03  0.41800000000E+01 0. -1.
         -5    1    3    3    0  502 -0.47715866789E+02  0.23841878369E+01  0.54274954099E+02  0.72427421172E+02  0.41800000000E+01 0. -1.
        -11    1    1    2    0    0 -0.52060723441E+02 -0.22764536818E+02  0.87032603220E+02  0.10393852551E+03  0.00000000000E+00 0.  1.
         11    1    1    2    0    0  0.18929764662E+02  0.10475256352E+02  0.51119403754E+02  0.55509102190E+02  0.00000000000E+00 0. -1.
</event>
<event>
 7    1  0.2380582E-009  0.1090375E+03  0.7561462E-02  0.1262363E+00
         -3   -1    0    0    0  501 -0.00000000000E+00  0.00000000000E+00  0.36266673861E+03  0.36266673861E+03  0.00000000000E+00 0.  1.
          3   -1    0    0  501    0  0.00000000000E+00 -0.00000000000E+00 -0.45679277110E+02  0.45679277110E+02  0.00000000000E+00 0. -1.
         25    2    1    2    0    0 -0.58527033626E+00 -0.67661871473E+02  0.19676111193E+03  0.24277844665E+03  0.12509183666E+03 0.  0.
          5    1    3    3  502    0 -0.59440585182E+02 -0.37997122241E+02  0.68023892733E+02  0.98090197512E+02  0.41800000000E+01 0. -1.
         -5    1    3    3    0  502  0.58855314845E+02 -0.29664749232E+02  0.12873721920E+03  0.14468824914E+03  0.41800000000E+01 0. -1.
        -11    1    1    2    0    0 -0.19338606169E+02  0.13316140183E+02 -0.80621644354E+01  0.24825385662E+02  0.00000000000E+00 0. -1.
         11    1    1    2    0    0  0.19923876505E+02  0.54345731290E+02  0.12828851401E+03  0.14074218341E+03  0.00000000000E+00 0.  1.
</event>
<event>
 7    1  0.2380582E-009  0.1151676E+03  0.7561462E-02  0.1251289E+00
          2   -1    0    0  501    0  0.00000000000E+00  0.00000000000E+00  0.37515635636E+03  0.37515635636E+03  0.00000000000E+00 0. -1.
         -2   -1    0    0    0  501 -0.00000000000E+00 -0.00000000000E+00 -0.39364905848E+02  0.39364905848E+02  0.00000000000E+00 0.  1.
         25    2    1    2    0    0  0.18679918429E+02 -0.52520010416E+02  0.20071489296E+03  0.24299393613E+03  0.12510912792E+03 0.  0.
          5    1    3    3  502    0  0.32858712800E+02 -0.87280627231E+02  0.10727324057E+03  0.14220627075E+03  0.41800000000E+01 0.  1.
         -5    1    3    3    0  502 -0.14178794370E+02  0.34760616815E+02  0.93441652388E+02  0.10078766538E+03  0.41800000000E+01 0.  1.
        -11    1    1    2    0    0 -0.50877408771E+02  0.39772081577E+02  0.57078461588E+02  0.86187469933E+02  0.00000000000E+00 0.  1.
         11    1    1    2    0    0  0.32197490342E+02  0.12747928839E+02  0.77998095960E+02  0.85339856148E+02  0.00000000000E+00 0. -1.
</event>
<event>
 7    1  0.2380582E-009  0.1529082E+03  0.7561462E-02  0.1196944E+00
          3   -1    0    0  501    0  0.00000000000E+00  0.00000000000E+00  0.63269472050E+02  0.63269472050E+02  0.00000000000E+00 0. -1.
         -3   -1    0    0    0  501 -0.00000000000E+00 -0.00000000000E+00 -0.71058314425E+03  0.71058314425E+03  0.00000000000E+00 0.  1.
         25    2    1    2    0    0 -0.91272066625E+02  0.64243123381E+02 -0.60266053711E+03  0.62554187761E+03  0.12508056844E+03 0.  0.
          5    1    3    3  502    0 -0.59100684165E+02 -0.30941852893E+02 -0.25706385200E+03  0.26561171949E+03  0.41800000000E+01 0.  1.
         -5    1    3    3    0  502 -0.32171382460E+02  0.95184976273E+02 -0.34559668512E+03  0.35993015812E+03  0.41800000000E+01 0.  1.
        -11    1    1    2    0    0  0.44536551086E+02 -0.77892165842E+02 -0.43243068970E+02  0.99602494427E+02  0.00000000000E+00 0.  1.
         11    1    1    2    0    0  0.46735515539E+02  0.13649042461E+02 -0.14100661172E+01  0.48708244264E+02  0.00000000000E+00 0. -1.
</event>
<event>
 7    1  0.2380582E-009  0.1523210E+03  0.7561462E-02  0.1197650E+00
          1   -1    0    0  501    0  0.00000000000E+00  0.00000000000E+00  0.98435118553E+02  0.98435118553E+02  0.00000000000E+00 0. -1.
         -1   -1    0    0    0  501 -0.00000000000E+00 -0.00000000000E+00 -0.29772292160E+03  0.29772292160E+03  0.00000000000E+00 0.  1.
         25    2    1    2    0    0 -0.12495596673E+03 -0.24723762265E+02 -0.63352892268E+02  0.18943719062E+03  0.12509037609E+03 0.  0.
          5    1    3    3  502    0 -0.10426330325E+03 -0.51980059715E+02 -0.88834503220E+02  0.14656672329E+03  0.41800000000E+01 0.  1.
         -5    1    3    3    0  502 -0.20692663479E+02  0.27256297450E+02  0.25481610953E+02  0.42870467332E+02  0.41800000000E+01 0.  1.
        -11    1    1    2    0    0  0.13582713774E+03  0.11272205565E+02 -0.10813757753E+03  0.17398221070E+03  0.00000000000E+00 0.  1.
         11    1    1    2    0    0 -0.10871171014E+02  0.13451556700E+02 -0.27797333255E+02  0.32738638838E+02  0.00000000000E+00 0. -1.
</event>
<event>
 7    1  0.2380582E-009  0.1151211E+03  0.7561462E-02  0.1251370E+00
          2   -1    0    0  501    0  0.00000000000E+00  0.00000000000E+00  0.28658019958E+03  0.28658019958E+03  0.00000000000E+00 0. -1.
         -2   -1    0    0    0  501 -0.00000000000E+00 -0.00000000000E+00 -0.66523686459E+02  0.66523686459E+02  0.00000000000E+00 0.  1.
         25    2    1    2    0    0  0.89994250690E+02 -0.10195713191E+02  0.15807428451E+03  0.22099489678E+03  0.12509335415E+03 0.  0.
          5    1    3    3  502    0  0.65317756765E+02  0.28049694726E+02  0.17712184491E+02  0.73378393294E+02  0.41800000000E+01 0.  1.
         -5    1    3    3    0  502  0.24676493926E+02 -0.38245407917E+02  0.14036210002E+03  0.14761650348E+03  0.41800000000E+01 0.  1.
        -11    1    1    2    0    0 -0.38225358712E+02 -0.29340450337E+02  0.42141158565E+02  0.64014977309E+02  0.00000000000E+00 0.  1.
         11    1    1    2    0    0 -0.51768891978E+02  0.39536163528E+02  0.19841070048E+02  0.68094011953E+02  0.00000000000E+00 0. -1.
</event>
<event>
 7    1  0.2380582E-009  0.1229150E+03  0.7561462E-02  0.1238364E+00
         -1   -1    0    0    0  501 -0.00000000000E+00  0.00000000000E+00  0.62243456267E+02  0.62243456267E+02  0.00000000000E+00 0.  1.
          1   -1    0    0  501    0  0.00000000000E+00 -0.00000000000E+00 -0.34751856753E+03  0.34751856753E+03  0.00000000000E+00 0. -1.
         25    2    1    2    0    0 -0.12642299549E+02 -0.64861534566E+02 -0.25277010870E+03  0.28966901623E+03  0.12509422332E+03 0.  0.
          5    1    3    3  502    0  0.19165037449E+02  0.32267339316E+02 -0.51077184202E+02  0.63520319528E+02  0.41800000000E+01 0.  1.
         -5    1    3    3    0  502 -0.31807336998E+02 -0.97128873882E+02 -0.20169292450E+03  0.22614869671E+03  0.41800000000E+01 0.  1.
        -11    1    1    2    0    0 -0.33131889794E+02  0.44998981816E+02  0.71775267336E+01  0.56339572024E+02  0.00000000000E+00 0.  1.
         11    1    1    2    0    0  0.45774189343E+02  0.19862552750E+02 -0.39682529295E+02  0.63753435539E+02  0.00000000000E+00 0. -1.
</event>
<event>
 7    1  0.2380582E-009  0.1314284E+03  0.7561462E-02  0.1225351E+00
          2   -1    0    0  501    0  0.00000000000E+00  0.00000000000E+00  0.43723502780E+03  0.43723502780E+03  0.00000000000E+00 0. -1.
         -2   -1    0    0    0  501 -0.00000000000E+00 -0.00000000000E+00 -0.57351729125E+02  0.57351729125E+02  0.00000000000E+00 0.  1.
         25    2    1    2    0    0 -0.79480378857E+01  0.87651261201E+02  0.31582767454E+03  0.35091277108E+03  0.12508692181E+03 0.  0.
          5    1    3    3  502    0 -0.51287273139E+02  0.76525113067E+02  0.12784707495E+03  0.15763509853E+03  0.41800000000E+01 0.  1.
         -5    1    3    3    0  502  0.43339235253E+02  0.11126148134E+02  0.18798059959E+03  0.19327767255E+03  0.41800000000E+01 0.  1.
        -11    1    1    2    0    0 -0.40393235745E+02 -0.50873750643E+02  0.48225945044E+02  0.80904225933E+02  0.00000000000E+00 0. -1.
         11    1    1    2    0    0  0.48341273631E+02 -0.36777510559E+02  0.15829679095E+02  0.62769759912E+02  0.00000000000E+00 0.  1.
</event>
<event>
 7    1  0.2380582E-009  0.1403906E+03  0.7561462E-02  0.1212804E+00
         -1   -1    0    0    0  501 -0.00000000000E+00  0.00000000000E+00  0.19660507098E+03  0.19660507098E+03  0.00000000000E+00 0.  1.
          1   -1    0    0  501    0  0.00000000000E+00 -0.00000000000E+00 -0.12586288451E+03  0.12586288451E+03  0.00000000000E+00 0. -1.
         25    2    1    2    0    0  0.82482254358E+02  0.36796788920E+02 -0.32201073173E+02  0.15761104532E+03  0.12508799517E+03 0.  0.
          5    1    3    3  502    0  0.73391779220E+01 -0.42895620395E+02 -0.13503918090E+01  0.43740070184E+02  0.41800000000E+01 0.  1.
         -5    1    3    3    0  502  0.75143076436E+02  0.79692409315E+02 -0.30850681364E+02  0.11387097514E+03  0.41800000000E+01 0.  1.
        -11    1    1    2    0    0 -0.92164451907E+02 -0.54643557104E+02  0.77152969967E+02  0.13203327347E+03  0.00000000000E+00 0. -1.
         11    1    1    2    0    0  0.96821975485E+01  0.17846768185E+02  0.25790289676E+02  0.32823636691E+02  0.00000000000E+00 0.  1.
</event>
<event>
 7    1  0.2380582E-009  0.1298783E+03  0.7561462E-02  0.1227636E+00
          1   -1    0    0  501    0  0.00000000000E+00  0.00000000000E+00  0.23781055750E+03  0.23781055750E+03  0.00000000000E+00 0. -1.
         -1   -1    0    0    0  501 -0.00000000000E+00 -0.00000000000E+00 -0.99784897276E+02  0.99784897276E+02  0.00000000000E+00 0.  1.
         25    2    1    2    0    0  0.50906853845E+02  0.85091304690E+02  0.10337178304E+03  0.19017245035E+03  0.12509115652E+03 0.  0.
          5    1    3    3  502    0 -0.35084333208E+02  0.51016293035E+02  0.18984718224E+02  0.64895797381E+02  0.41800000000E+01 0.  1.
         -5    1    3    3    0  502  0.85991187053E+02  0.34075011655E+02  0.84387064816E+02  0.12527665297E+03  0.41800000000E+01 0.  1.
        -11    1    1    2    0    0 -0.19001852097E+02 -0.64247930237E+02  0.68959214203E+02  0.96146971592E+02  0.00000000000E+00 0. -1.
         11    1    1    2    0    0 -0.31905001747E+02 -0.20843374453E+02 -0.34305337020E+02  0.51276032834E+02  0.00000000000E+00 0.  1.
</event>
<event>
 7    1  0.2380582E-009  0.1238892E+03  0.7561462E-02  0.1236816E+00
         -1   -1    0    0    0  501 -0.00000000000E+00  0.00000000000E+00  0.73544000580E+02  0.73544000580E+02  0.00000000000E+00 0.  1.
          1   -1    0    0  501    0  0.00000000000E+00 -0.00000000000E+00 -0.27955587421E+03  0.27955587421E+03  0.00000000000E+00 0. -1.
         25    2    1    2    0    0  0.76725318465E+02 -0.44356760468E+02 -0.75228288858E+02  0.17076657400E+03  0.12509048988E+03 0.  0.
          5    1    3    3  502    0  0.10057850857E+03 -0.65216681278E+02 -0.68420965283E+02  0.13808748239E+03  0.41800000000E+01 0.  1.
         -5    1    3    3    0  502 -0.23853190101E+02  0.20859920811E+02 -0.68073235751E+01  0.32679091610E+02  0.41800000000E+01 0.  1.
        -11    1    1    2    0    0 -0.61690484794E+02  0.15930770929E+02 -0.19702216576E+02  0.66690949270E+02  0.00000000000E+00 0.  1.
         11    1    1    2    0    0 -0.15034833671E+02  0.28425989538E+02 -0.11108136820E+03  0.11564235152E+03  0.00000000000E+00 0. -1.
</event>
<event>
 7    1  0.2380582E-009  0.1788537E+03  0.7561462E-02  0.1168917E+00
          1   -1    0    0  501    0  0.00000000000E+00  0.00000000000E+00  0.16080965133E+04  0.16080965133E+04  0.00000000000E+00 0. -1.
         -1   -1    0    0    0  501 -0.00000000000E+00 -0.00000000000E+00 -0.28457124641E+02  0.28457124641E+02  0.00000000000E+00 0.  1.
         25    2    1    2    0    0  0.47744663886E+02  0.15929059855E+03  0.11345736658E+04  0.11534966038E+04  0.12507583362E+03 0.  0.
          5    1    3    3  502    0  0.16133911153E+02  0.87747935624E+01  0.16971018724E+02  0.25353263452E+02  0.41800000000E+01 0.  1.
         -5    1    3    3    0  502  0.31610752733E+02  0.15051580499E+03  0.11176026470E+04  0.11281433403E+04  0.41800000000E+01 0.  1.
        -11    1    1    2    0    0 -0.84956774246E+01 -0.14178609165E+03  0.37326986870E+03  0.39938185638E+03  0.00000000000E+00 0. -1.
         11    1    1    2    0    0 -0.39248986461E+02 -0.17504506895E+02  0.71795854217E+02  0.83675177816E+02  0.00000000000E+00 0.  1.
</event>
<event>
 7    1  0.2380582E-009  0.1288686E+03  0.7561462E-02  0.1229144E+00
         -4   -1    0    0    0  501 -0.00000000000E+00  0.00000000000E+00  0.18036841879E+03  0.18036841879E+03  0.00000000000E+00 0.  1.
          4   -1    0    0  501    0  0.00000000000E+00 -0.00000000000E+00 -0.13086567421E+03  0.13086567421E+03  0.00000000000E+00 0. -1.
         25    2    1    2    0    0  0.24096714620E+02  0.84386189752E+02  0.90901485913E+02  0.17779856086E+03  0.12509023713E+03 0.  0.
          5    1    3    3  502    0 -0.23866863604E+02 -0.12334763734E+02 -0.10955849799E+02  0.29313420467E+02  0.41800000000E+01 0. -1.
         -5    1    3    3    0  502  0.47963578224E+02  0.96720953485E+02  0.10185733571E+03  0.14848514039E+03  0.41800000000E+01 0. -1.
        -11    1    1    2    0    0  0.28448527313E+02 -0.75702249313E+01 -0.25647450941E+02  0.39043805546E+02  0.00000000000E+00 0.  1.
         11    1    1    2    0    0 -0.52545241933E+02 -0.76815964820E+02 -0.15751290390E+02  0.94391726597E+02  0.00000000000E+00 0. -1.
</event>
<event>
 7    1  0.2380582E-009  0.3423549E+03  0.7561462E-02  0.1065797E+00
         -2   -1    0    0    0  501 -0.00000000000E+00  0.00000000000E+00  0.13434014727E+03  0.13434014727E+03  0.00000000000E+00 0.  1.
          2   -1    0    0  501    0  0.00000000000E+00 -0.00000000000E+00 -0.10734124029E+04  0.10734124029E+04  0.00000000000E+00 0. -1.
         25    2    1    2    0    0  0.30101326668E+03  0.97067444746E+02 -0.22371283912E+03  0.40709454850E+03  0.12508981367E+03 0.  0.
          5    1    3    3  502    0  0.50882553954E+01  0.17965814540E+02  0.10176296237E+02  0.21672338133E+02  0.41800000000E+01 0. -1.
         -5    1    3    3    0  502  0.29592501129E+03  0.79101630207E+02 -0.23388913536E+03  0.38542221037E+03  0.41800000000E+01 0. -1.
        -11    1    1    2    0    0 -0.23051968795E+03  0.10346891952E+02 -0.47672134914E+03  0.52963159784E+03  0.00000000000E+00 0.  1.
         11    1    1    2    0    0 -0.70493578737E+02 -0.10741433670E+03 -0.23863806739E+03  0.27102640384E+03  0.00000000000E+00 0. -1.
</event>
<event>
 7    1  0.2380582E-009  0.7103100E+02  0.7561462E-02  0.1356622E+00
         -1   -1    0    0    0  501 -0.00000000000E+00  0.00000000000E+00  0.20465320549E+02  0.20465320549E+02  0.00000000000E+00 0.  1.
          1   -1    0    0  501    0  0.00000000000E+00 -0.00000000000E+00 -0.67397016210E+03  0.67397016210E+03  0.00000000000E+00 0. -1.
         25    2    1    2    0    0  0.13868395075E+02  0.33537252898E+02 -0.45995579572E+03  0.47804188388E+03  0.12509048327E+03 0.  0.
          5    1    3    3  502    0 -0.58436122679E+01 -0.21847973909E+02 -0.36864950747E+03  0.36936623225E+03  0.41800000000E+01 0. -1.
         -5    1    3    3    0  502  0.19712007343E+02  0.55385226806E+02 -0.91306288258E+02  0.10867565163E+03  0.41800000000E+01 0. -1.
        -11    1    1    2    0    0 -0.82340760433E+01  0.11828233299E+02  0.28956294789E+01  0.14700060589E+02  0.00000000000E+00 0.  1.
         11    1    1    2    0    0 -0.56343190314E+01 -0.45365486196E+02 -0.19644467530E+03  0.20169353818E+03  0.00000000000E+00 0. -1.
</event>
<event>
 7    1  0.2380582E-009  0.1043313E+03  0.7561462E-02  0.1271443E+00
          1   -1    0    0  501    0  0.00000000000E+00  0.00000000000E+00  0.29916827149E+02  0.29916827149E+02  0.00000000000E+00 0. -1.
         -1   -1    0    0    0  501 -0.00000000000E+00 -0.00000000000E+00 -0.56068659151E+03  0.56068659151E+03  0.00000000000E+00 0.  1.
         25    2    1    2    0    0 -0.55578816246E+02  0.37872747723E+02 -0.25019691485E+03  0.28769608836E+03  0.12508874138E+03 0.  0.
          5    1    3    3  502    0 -0.20518809491E+02  0.60737786466E+02 -0.45511444804E+02  0.78732866427E+02  0.41800000000E+01 0.  1.
         -5    1    3    3    0  502 -0.35060006754E+02 -0.22865038743E+02 -0.20468547005E+03  0.20896322193E+03  0.41800000000E+01 0.  1.
        -11    1    1    2    0    0 -0.11793172567E+02  0.13279961009E+02 -0.12273473748E+02  0.21588757292E+02  0.00000000000E+00 0. -1.
         11    1    1    2    0    0  0.67371988813E+02 -0.51152708732E+02 -0.26829937576E+03  0.28131857301E+03  0.00000000000E+00 0.  1.
</event>
<event>
 7    1  0.2380582E-009  0.1014184E+03  0.7561462E-02  0.1277341E+00
         -2   -1    0    0    0  501 -0.00000000000E+00  0.00000000000E+00  0.67523476899E+02  0.67523476899E+02  0.00000000000E+00 0.  1.
          2   -1    0    0  501    0  0.00000000000E+00 -0.00000000000E+00 -0.20450278797E+03  0.20450278797E+03  0.00000000000E+00 0. -1.
         25    2    1    2    0    0 -0.24048911437E+02  0.14257122374E+02 -0.37022360114E+02  0.13341629001E+03  0.12509050968E+03 0.  0.
          5    1    3    3  502    0 -0.58601828340E+02  0.45592620104E+02 -0.10679992306E+01  0.74373881941E+02  0.41800000000E+01 0. -1.
         -5    1    3    3    0  502  0.34552916903E+02 -0.31335497730E+02 -0.35954360884E+02  0.59042408073E+02  0.41800000000E+01 0. -1.
        -11    1    1    2    0    0 -0.13193170337E+02 -0.36119152739E+02 -0.11437359128E+02  0.40118152026E+02  0.00000000000E+00 0.  1.
         11    1    1    2    0    0  0.37242081774E+02  0.21862030366E+02 -0.88519591832E+02  0.98491822832E+02  0.00000000000E+00 0. -1.
</event>
<event>
 7    1  0.2380582E-009  0.9830333E+02  0.7561462E-02  0.1283905E+00
          1   -1    0    0  501    0  0.00000000000E+00  0.00000000000E+00  0.37070211984E+02  0.37070211984E+02  0.00000000000E+00 0. -1.
         -1   -1    0    0    0  501 -0.00000000000E+00 -0.00000000000E+00 -0.61581637591E+03  0.61581637591E+03  0.00000000000E+00 0.  1.
         25    2    1    2    0    0  0.15672682650E+02  0.53419449390E+02 -0.45513782385E+03  0.47528569414E+03  0.12508709689E+03 0.  0.
          5    1    3    3  502    0  0.28764132152E+02  0.43021640418E+02 -0.45510066495E+03  0.45805275295E+03  0.41800000000E+01 0.  1.
         -5    1    3    3    0  502 -0.13091449502E+02  0.10397808973E+02 -0.37158892266E-01  0.17232941196E+02  0.41800000000E+01 0.  1.
        -11    1    1    2    0    0 -0.65473808043E+02 -0.35836246238E+02 -0.69412529467E+02  0.10192720604E+03  0.00000000000E+00 0.  1.
         11    1    1    2    0    0  0.49801125393E+02 -0.17583203152E+02 -0.54195810611E+02  0.75673687707E+02  0.00000000000E+00 0. -1.
</event>
<event>
 7    1  0.2380582E-009  0.1671742E+03  0.7561462E-02  0.1180827E+00
         -2   -1    0    0    0  501 -0.00000000000E+00  0.00000000000E+00  0.47218182327E+03  0.47218182327E+03  0.00000000000E+00 0.  1.
          2   -1    0    0  501    0  0.00000000000E+00 -0.00000000000E+00 -0.10527552368E+03  0.10527552368E+03  0.00000000000E+00 0. -1.
         25    2    1    2    0    0 -0.10388021943E+03  0.11187390257E+03  0.34861153542E+02  0.20042379226E+03  0.12509007318E+03 0.  0.
          5    1    3    3  502    0 -0.31473734286E+02  0.45976953013E+01 -0.39666351040E+02  0.51015944143E+02  0.41800000000E+01 0.  1.
         -5    1    3    3    0  502 -0.72406485149E+02  0.10727620727E+03  0.74527504582E+02  0.14940784811E+03  0.41800000000E+01 0.  1.
        -11    1    1    2    0    0  0.86162408906E+02 -0.33537350777E+02  0.22461277333E+03  0.24289835848E+03  0.00000000000E+00 0. -1.
         11    1    1    2    0    0  0.17717810529E+02 -0.78336551796E+02  0.10743237271E+03  0.13413519622E+03  0.00000000000E+00 0.  1.
</event>
<event>
 7    1  0.2380582E-009  0.1100072E+03  0.7561462E-02  0.1260557E+00
          1   -1    0    0  501    0  0.00000000000E+00  0.00000000000E+00  0.15356856180E+03  0.15356856180E+03  0.00000000000E+00 0. -1.
         -1   -1    0    0    0  501 -0.00000000000E+00 -0.00000000000E+00 -0.79935050646E+02  0.79935050646E+02  0.00000000000E+00 0.  1.
         25    2    1    2    0    0 -0.99511573368E+01 -0.21185460550E+02  0.36692678039E+02  0.13244433210E+03  0.12508916505E+03 0.  0.
          5    1    3    3  502    0  0.15732741499E+01  0.52406070625E+02  0.13197393887E+02  0.54226515980E+02  0.41800000000E+01 0. -1.
         -5    1    3    3    0  502 -0.11524431487E+02 -0.73591531175E+02  0.23495284152E+02  0.78217816124E+02  0.41800000000E+01 0. -1.
        -11    1    1    2    0    0  0.74778764721E+01 -0.35395982263E+02  0.64837721325E+01  0.36753686862E+02  0.00000000000E+00 0.  1.
         11    1    1    2    0    0  0.24732808647E+01  0.56581442813E+02  0.30457060983E+02  0.64305593480E+02  0.00000000000E+00 0. -1.
</event>
<event>
 7    1  0.2380582E-009  0.3602066E+03  0.7561462E-02  0.1058502E+00
         -2   -1    0    0    0  501 -0.00000000000E+00  0.00000000000E+00  0.28886892145E+03  0.28886892145E+03  0.00000000000E+00 0.  1.
          2   -1    0    0  501    0  0.00000000000E+00 -0.00000000000E+00 -0.49316908362E+03  0.49316908362E+03  0.00000000000E+00 0. -1.
         25    2    1    2    0    0  0.31177360794E+03 -0.14940038061E+03 -0.21253050446E+03  0.42466317481E+03  0.12508533238E+03 0.  0.
          5    1    3    3  502    0  0.12776399233E+03 -0.12711981007E+03 -0.12676610476E+03  0.22038648226E+03  0.41800000000E+01 0. -1.
         -5    1    3    3    0  502  0.18400961561E+03 -0.22280570540E+02 -0.85764399700E+02  0.20427669255E+03  0.41800000000E+01 0. -1.
        -11    1    1    2    0    0 -0.24098019632E+03  0.75819605309E+02 -0.13478319397E+02  0.25298563726E+03  0.00000000000E+00 0. -1.
         11    1    1    2    0    0 -0.70793411621E+02  0.73580775301E+02  0.21708661683E+02  0.10438919300E+03  0.00000000000E+00 0.  1.
</event>
<event>
 7    1  0.2380582E-009  0.1429912E+03  0.7561462E-02  0.1209360E+00
          2   -1    0    0  501    0  0.00000000000E+00  0.00000000000E+00  0.78150709005E+03  0.78150709005E+03  0.00000000000E+00 0. -1.
         -2   -1    0    0    0  501 -0.00000000000E+00 -0.00000000000E+00 -0.26817225490E+02  0.26817225490E+02  0.00000000000E+00 0.  1.
         25    2    1    2    0    0 -0.95673183525E+02  0.18701090805E+02  0.44219311596E+03  0.46977159258E+03  0.12509000178E+03 0.  0.
          5    1    3    3  502    0  0.17156560367E+02  0.39964404108E+02  0.12361356156E+03  0.13110791800E+03  0.41800000000E+01 0.  1.
         -5    1    3    3    0  502 -0.11282974389E+03 -0.21263313304E+02  0.31857955440E+03  0.33866367458E+03  0.41800000000E+01 0.  1.
        -11    1    1    2    0    0  0.55011461049E+02 -0.51348555592E+02  0.21799817097E+03  0.23062119928E+03  0.00000000000E+00 0. -1.
         11    1    1    2    0    0  0.40661722475E+02  0.32647464787E+02  0.94498577619E+02  0.10793152368E+03  0.00000000000E+00 0.  1.
</event>
<event>
 7    1  0.2380582E-009  0.1953656E+03  0.7561462E-02  0.1153709E+00
          1   -1    0    0  501    0  0.00000000000E+00  0.00000000000E+00  0.76999752641E+03  0.76999752641E+03  0.00000000000E+00 0. -1.
         -1   -1    0    0    0  501 -0.00000000000E+00 -0.00000000000E+00 -0.59880044304E+02  0.59880044304E+02  0.00000000000E+00 0.  1.
         25    2    1    2    0    0 -0.17391410026E+03 -0.24541758243E+02  0.24702147313E+03  0.32789455488E+03  0.12508724461E+03 0.  0.
          5    1    3    3  502    0 -0.70514031220E+02 -0.63603870994E+02  0.65881007349E+02  0.11565232611E+03  0.41800000000E+01 0.  1.
         -5    1    3    3    0  502 -0.10340006904E+03  0.39062112751E+02  0.18114046578E+03  0.21224222877E+03  0.41800000000E+01 0.  1.
        -11    1    1    2    0    0  0.15355253864E+03  0.49022772018E+00  0.42851898979E+03  0.45520011760E+03  0.00000000000E+00 0. -1.
         11    1    1    2    0    0  0.20361561620E+02  0.24051530523E+02  0.34577019182E+02  0.46782898238E+02  0.00000000000E+00 0.  1.
</event>
<event>
 7    1  0.2380582E-009  0.1145644E+03  0.7561462E-02  0.1252343E+00
          3   -1    0    0  501    0  0.00000000000E+00  0.00000000000E+00  0.48141194396E+03  0.48141194396E+03  0.00000000000E+00 0. -1.
         -3   -1    0    0    0  501 -0.00000000000E+00 -0.00000000000E+00 -0.27554170776E+02  0.27554170776E+02  0.00000000000E+00 0.  1.
         25    2    1    2    0    0 -0.18660223645E+02 -0.37152787923E+02  0.27241109668E+03  0.30262807167E+03  0.12508961016E+03 0.  0.
          5    1    3    3  502    0  0.29093508635E+02  0.34673415940E+02  0.95685179753E+02  0.10593301677E+03  0.41800000000E+01 0. -1.
         -5    1    3    3    0  502 -0.47753732280E+02 -0.71826203863E+02  0.17672591693E+03  0.19669505490E+03  0.41800000000E+01 0. -1.
        -11    1    1    2    0    0 -0.35447405178E+02  0.19194488123E+02  0.89377739049E+02  0.98047575929E+02  0.00000000000E+00 0.  1.
         11    1    1    2    0    0  0.54107628824E+02  0.17958299800E+02  0.92068937452E+02  0.10829046713E+03  0.00000000000E+00 0. -1.
</event>
<event>
 7    1  0.2380582E-009  0.8745140E+02  0.7561462E-02  0.1309144E+00
         -2   -1    0    0    0  501 -0.00000000000E+00  0.00000000000E+00  0.76957268028E+02  0.76957268028E+02  0.00000000000E+00 0.  1.
          2   -1    0    0  501    0  0.00000000000E+00 -0.00000000000E+00 -0.16408598283E+03  0.16408598283E+03  0.00000000000E+00 0. -1.
         25    2    1    2    0    0 -0.14880143755E+02  0.27287954151E+02 -0.38215415743E+02  0.13444757512E+03  0.12509868639E+03 0.  0.
          5    1    3    3  502    0  0.27161767573E+02 -0.38919367534E+02 -0.27958262862E+02  0.55241430550E+02  0.41800000000E+01 0.  1.
         -5    1    3    3    0  502 -0.42041911328E+02  0.66207321685E+02 -0.10257152882E+02  0.79206144572E+02  0.41800000000E+01 0.  1.
        -11    1    1    2    0    0  0.26895255957E+02 -0.24508719257E+02 -0.71858613284E+02  0.80546212920E+02  0.00000000000E+00 0. -1.
         11    1    1    2    0    0 -0.12015112202E+02 -0.27792348934E+01  0.22945314229E+02  0.26049462813E+02  0.00000000000E+00 0.  1.
</event>
<event>
 7    1  0.2380582E-009  0.9410161E+02  0.7561462E-02  0.1293212E+00
         -1   -1    0    0    0  501 -0.00000000000E+00  0.00000000000E+00  0.50800314137E+02  0.50800314137E+02  0.00000000000E+00 0.  1.
          1   -1    0    0  501    0  0.00000000000E+00 -0.00000000000E+00 -0.41954594353E+03  0.41954594353E+03  0.00000000000E+00 0. -1.
         25    2    1    2    0    0  0.87173715245E+02  0.21278605394E+02 -0.28865155518E+03  0.32713750491E+03  0.12508873306E+03 0.  0.
          5    1    3    3  502    0  0.36201216906E+02 -0.10865922279E+02 -0.64834651624E+01  0.38575952263E+02  0.41800000000E+01 0. -1.
         -5    1    3    3    0  502  0.50972498338E+02  0.32144527672E+02 -0.28216809001E+03  0.28856155265E+03  0.41800000000E+01 0. -1.
        -11    1    1    2    0    0 -0.43181643295E+02 -0.92244743269E+01  0.71777737749E+01  0.44735508051E+02  0.00000000000E+00 0.  1.
         11    1    1    2    0    0 -0.43992071950E+02 -0.12054131067E+02 -0.87271847989E+02  0.98473244700E+02  0.00000000000E+00 0. -1.
</event>
<event>
 7    1  0.2380582E-009  0.9182484E+02  0.7561462E-02  0.1298492E+00
          1   -1    0    0  501    0  0.00000000000E+00  0.00000000000E+00  0.24382309716E+02  0.24382309716E+02  0.00000000000E+00 0. -1.
         -1   -1    0    0    0  501 -0.00000000000E+00 -0.00000000000E+00 -0.63604344861E+03  0.63604344861E+03  0.00000000000E+00 0.  1.
         25    2    1    2    0    0 -0.32442747525E+02 -0.36230886827E+02 -0.43167721477E+03  0.45205798296E+03  0.12508394453E+03 0.  0.
          5    1    3    3  502    0  0.40289894765E+02 -0.21993391431E+02 -0.77374116499E+02  0.90062262856E+02  0.41800000000E+01 0.  1.
         -5    1    3    3    0  502 -0.72732642290E+02 -0.14237495396E+02 -0.35430309827E+03  0.36199572010E+03  0.41800000000E+01 0.  1.
        -11    1    1    2    0    0 -0.82248890495E+01  0.15807120474E+02  0.44798079266E+01  0.18373419295E+02  0.00000000000E+00 0. -1.
         11    1    1    2    0    0  0.40667636575E+02  0.20423766354E+02 -0.18446373205E+03  0.18999435607E+03  0.00000000000E+00 0.  1.
</event>
<event>
 7    1  0.2380582E-009  0.9503084E+02  0.7561462E-02  0.1291107E+00
          1   -1    0    0  501    0  0.00000000000E+00  0.00000000000E+00  0.39130412439E+03  0.39130412439E+03  0.00000000000E+00 0. -1.
         -1   -1    0    0    0  501 -0.00000000000E+00 -0.00000000000E+00 -0.46813916902E+02  0.46813916902E+02  0.00000000000E+00 0.  1.
         25    2    1    2    0    0  0.71147356178E+02  0.37074065994E+02  0.20861298126E+03  0.25613137493E+03  0.12508985814E+03 0.  0.
          5    1    3    3  502    0  0.62033685552E+02  0.41082497395E+02  0.35259341303E+02  0.82441756923E+02  0.41800000000E+01 0. -1.
         -5    1    3    3    0  502  0.91136706254E+01 -0.40084314016E+01  0.17335363996E+03  0.17368961800E+03  0.41800000000E+01 0. -1.
        -11    1    1    2    0    0 -0.67369500953E+02  0.10720718861E+00  0.12670947647E+03  0.14350593221E+03  0.00000000000E+00 0. -1.
         11    1    1    2    0    0 -0.37778552242E+01 -0.37181273182E+02  0.91677497527E+01  0.38480734154E+02  0.00000000000E+00 0.  1.
</event>
<event>
 7    1  0.2380582E-009  0.9223117E+02  0.7561462E-02  0.1297537E+00
          2   -1    0    0  501    0  0.00000000000E+00  0.00000000000E+00  0.96473717641E+02  0.96473717641E+02  0.00000000000E+00 0. -1.
         -2   -1    0    0    0  501 -0.00000000000E+00 -0.00000000000E+00 -0.15591192701E+03  0.15591192701E+03  0.00000000000E+00 0.  1.
         25    2    1    2    0    0  0.27713601222E+02 -0.32893526109E+02 -0.14312872363E+02  0.13305097002E+03  0.12509066534E+03 0.  0.
          5    1    3    3  502    0 -0.40373051087E+02 -0.22432885527E+02 -0.38136536633E+02  0.60042363656E+02  0.41800000000E+01 0. -1.
         -5    1    3    3    0  502  0.68086652309E+02 -0.10460640582E+02  0.23823664270E+02  0.73008606364E+02  0.41800000000E+01 0. -1.
        -11    1    1    2    0    0  0.27029922313E+01  0.38116994371E+02  0.22960938867E+02  0.44580445719E+02  0.00000000000E+00 0. -1.
         11    1    1    2    0    0 -0.30416593453E+02 -0.52234682616E+01 -0.68086275875E+02  0.74754228914E+02  0.00000000000E+00 0.  1.
</event>
<event>
 7    1  0.2380582E-009  0.1229484E+03  0.7561462E-02  0.1238311E+00
          2   -1    0    0  501    0  0.00000000000E+00  0.00000000000E+00  0.20226559087E+03  0.20226559087E+03  0.00000000000E+00 0. -1.
         -2   -1    0    0    0  501 -0.00000000000E+00 -0.00000000000E+00 -0.92198152404E+02  0.92198152404E+02  0.00000000000E+00 0.  1.
         25    2    1    2    0    0 -0.36646727100E+02 -0.47917207497E+02 -0.10673775099E+01  0.13888130319E+03  0.12509130945E+03 0.  0.
          5    1    3    3  502    0  0.44301290461E+02  0.78233597035E-01  0.29500253887E+01  0.44595801448E+02  0.41800000000E+01 0. -1.
         -5    1    3    3    0  502 -0.80948017561E+02 -0.47995441094E+02 -0.40174028987E+01  0.94285501743E+02  0.41800000000E+01 0. -1.
        -11    1    1    2    0    0 -0.23170945344E+02 -0.87820918681E+01  0.15050793476E+02  0.28992140831E+02  0.00000000000E+00 0.  1.
         11    1    1    2    0    0  0.59817672444E+02  0.56699299365E+02  0.96084022504E+02  0.12659029926E+03  0.00000000000E+00 0. -1.
</event>
<event>
 7    1  0.2380582E-009  0.1614849E+03  0.7561462E-02  0.1187030E+00
         -1   -1    0    0    0  501 -0.00000000000E+00  0.00000000000E+00  0.41246442842E+02  0.41246442842E+02  0.00000000000E+00 0.  1.
          1   -1    0    0  501    0  0.00000000000E+00 -0.00000000000E+00 -0.91972439677E+03  0.91972439677E+03  0.00000000000E+00 0. -1.
         25    2    1    2    0    0  0.13385679071E+03 -0.85555978581E+02 -0.40972736188E+03  0.45690387024E+03  0.12508864729E+03 0.  0.
          5    1    3    3  502    0  0.88049799893E+02 -0.55690241789E+02 -0.10756975387E+03  0.14980952787E+03  0.41800000000E+01 0. -1.
         -5    1    3    3    0  502  0.45806990816E+02 -0.29865736792E+02 -0.30215760801E+03  0.30709434238E+03  0.41800000000E+01 0. -1.
        -11    1    1    2    0    0 -0.71644283217E+02  0.69032462886E+02 -0.38930667257E+03  0.40181845348E+03  0.00000000000E+00 0.  1.
         11    1    1    2    0    0 -0.62212507492E+02  0.16523515695E+02 -0.79443919478E+02  0.10224851589E+03  0.00000000000E+00 0. -1.
</event>
<event>
 7    1  0.2380582E-009  0.1280522E+03  0.7561462E-02  0.1230375E+00
         -2   -1    0    0    0  501 -0.00000000000E+00  0.00000000000E+00  0.42085241804E+02  0.42085241804E+02  0.00000000000E+00 0. -1.
          2   -1    0    0  501    0  0.00000000000E+00 -0.00000000000E+00 -0.42442899006E+03  0.42442899006E+03  0.00000000000E+00 0.  1.
         25    2    1    2    0    0 -0.11022052319E+02  0.70553776284E+02 -0.15647805546E+03  0.21267845951E+03  0.12508966510E+03 0.  0.
          5    1    3    3  502    0 -0.46966027112E+02 -0.13304691615E+02 -0.32907800688E+02  0.59018795886E+02  0.41800000000E+01 0. -1.
         -5    1    3    3    0  502  0.35943974794E+02  0.83858467899E+02 -0.12357025477E+03  0.15365966363E+03  0.41800000000E+01 0. -1.
        -11    1    1    2    0    0 -0.38671274575E+02 -0.15629097608E+02 -0.77666904792E+02  0.88158290985E+02  0.00000000000E+00 0.  1.
         11    1    1    2    0    0  0.49693326894E+02 -0.54924678676E+02 -0.14819878801E+03  0.16567748137E+03  0.00000000000E+00 0. -1.
</event>
<event>
 7    1  0.2380582E-009  0.1019990E+03  0.7561462E-02  0.1276148E+00
         -2   -1    0    0    0  501 -0.00000000000E+00  0.00000000000E+00  0.28705481325E+02  0.28705481325E+02  0.00000000000E+00 0.  1.
          2   -1    0    0  501    0  0.00000000000E+00 -0.00000000000E+00 -0.59424878512E+03  0.59424878512E+03  0.00000000000E+00 0. -1.
         25    2    1    2    0    0  0.25272365041E+02 -0.23575609024E+02 -0.47843187391E+03  0.49572015970E+03  0.12508763721E+03 0.  0.
          5    1    3    3  502    0  0.61950440896E+02 -0.50875569169E+02 -0.35661929291E+03  0.36554202650E+03  0.41800000000E+01 0.  1.
         -5    1    3    3    0  502 -0.36678075854E+02  0.27299960145E+02 -0.12181258101E+03  0.13017813320E+03  0.41800000000E+01 0.  1.
        -11    1    1    2    0    0  0.16119368929E+02  0.31762483712E+02 -0.64421327186E+01  0.36196553706E+02  0.00000000000E+00 0.  1.
         11    1    1    2    0    0 -0.41391733970E+02 -0.81868746876E+01 -0.80669297161E+02  0.91037553035E+02  0.00000000000E+00 0. -1.
</event>
<event>
 7    1  0.2380582E-009  0.1018823E+03  0.7561462E-02  0.1276387E+00
         -2   -1    0    0    0  501 -0.00000000000E+00  0.00000000000E+00  0.25200592963E+03  0.25200592963E+03  0.00000000000E+00 0.  1.
          2   -1    0    0  501    0  0.00000000000E+00 -0.00000000000E+00 -0.59515540834E+02  0.59515540834E+02  0.00000000000E+00 0. -1.
         25    2    1    2    0    0 -0.25327980437E+02  0.38943184047E+02  0.77443813663E+02  0.15427927500E+03  0.12508585949E+03 0.  0.
          5    1    3    3  502    0 -0.10649175363E+02  0.65474915715E+02 -0.46854118877E+01  0.66631786772E+02  0.41800000000E+01 0.  1.
         -5    1    3    3    0  502 -0.14678805074E+02 -0.26531731668E+02  0.82129225550E+02  0.87647488231E+02  0.41800000000E+01 0.  1.
        -11    1    1    2    0    0  0.13256559739E+02  0.32046722162E+02  0.44689152912E+02  0.56567209278E+02  0.00000000000E+00 0.  1.
         11    1    1    2    0    0  0.12071420697E+02 -0.70989906210E+02  0.70357422222E+02  0.10067498618E+03  0.00000000000E+00 0. -1.
</event>
<event>
 7    1  0.2380582E-009  0.9396914E+02  0.7561462E-02  0.1293515E+00
          4   -1    0    0  501    0  0.00000000000E+00  0.00000000000E+00  0.15288288268E+03  0.15288288268E+03  0.00000000000E+00 0. -1.
         -4   -1    0    0    0  501 -0.00000000000E+00 -0.00000000000E+00 -0.12020921463E+03  0.12020921463E+03  0.00000000000E+00 0.  1.
         25    2    1    2    0    0  0.69806959738E+01  0.73449924354E+02  0.52944368304E+02  0.15457661684E+03  0.12508877981E+03 0.  0.
          5    1    3    3  502    0  0.63227933482E+01  0.23445793535E+02 -0.41134725695E+02  0.47950192994E+02  0.41800000000E+01 0.  1.
         -5    1    3    3    0  502  0.65790262567E+00  0.50004130819E+02  0.94079093998E+02  0.10662642385E+03  0.41800000000E+01 0.  1.
        -11    1    1    2    0    0 -0.31292474017E+02 -0.81663076575E+02 -0.27811181837E+02  0.91768942682E+02  0.00000000000E+00 0.  1.
         11    1    1    2    0    0  0.24311778043E+02  0.82131522209E+01  0.75404815929E+01  0.26746537788E+02  0.00000000000E+00 0. -1.
</event>
<event>
 7    1  0.2380582E-009  0.9454557E+02  0.7561462E-02  0.1292203E+00
          2   -1    0    0  501    0  0.00000000000E+00  0.00000000000E+00  0.23358878473E+03  0.23358878473E+03  0.00000000000E+00 0.  1.
         -2   -1    0    0    0  501 -0.00000000000E+00 -0.00000000000E+00 -0.65816953037E+02  0.65816953037E+02  0.00000000000E+00 0. -1.
         25    2    1    2    0    0  0.37026062132E+02 -0.12948850856E+02  0.14614636247E+03  0.19631943202E+03  0.12507580945E+03 0.  0.
          5    1    3    3  502    0  0.67117515666E+02 -0.31824656671E+02  0.14200504312E+03  0.16031367488E+03  0.41800000000E+01 0. -1.
         -5    1    3    3    0  502 -0.30091453534E+02  0.18875805815E+02  0.41413193462E+01  0.36005757135E+02  0.41800000000E+01 0. -1.
        -11    1    1    2    0    0 -0.56148492973E+02  0.57817788328E+00  0.43865012666E+02  0.71253960515E+02  0.00000000000E+00 0.  1.
         11    1    1    2    0    0  0.19122430842E+02  0.12370672973E+02 -0.22239543439E+02  0.31832345240E+02  0.00000000000E+00 0. -1.
</event>
<event>
 7    1  0.2380582E-009  0.1218031E+03  0.7561462E-02  0.1240152E+00
         -2   -1    0    0    0  501 -0.00000000000E+00  0.00000000000E+00  0.33586815860E+02  0.33586815860E+02  0.00000000000E+00 0.  1.
          2   -1    0    0  501    0  0.00000000000E+00 -0.00000000000E+00 -0.75147940803E+03  0.75147940803E+03  0.00000000000E+00 0. -1.
         25    2    1    2    0    0 -0.69407390061E+02 -0.49368029363E+02 -0.58301732151E+03  0.60233791420E+03  0.12508867892E+03 0.  0.
          5    1    3    3  502    0  0.25194036539E+02 -0.18310572252E+02 -0.31200400766E+03  0.31358250865E+03  0.41800000000E+01 0. -1.
         -5    1    3    3    0  502 -0.94601426600E+02 -0.31057457111E+02 -0.27101331384E+03  0.28875540556E+03  0.41800000000E+01 0. -1.
        -11    1    1    2    0    0  0.19047280911E+02  0.58341320959E+02 -0.10973504140E+03  0.12573101428E+03  0.00000000000E+00 0. -1.
         11    1    1    2    0    0  0.50360109151E+02 -0.89732915962E+01 -0.25140229263E+02  0.56997295402E+02  0.00000000000E+00 0.  1.
</event>
<event>
 7    1  0.2380582E-009  0.1528707E+03  0.7561462E-02  0.1196989E+00
          2   -1    0    0  501    0  0.00000000000E+00  0.00000000000E+00  0.96824474961E+02  0.96824474961E+02  0.00000000000E+00 0. -1.
         -2   -1    0    0    0  501 -0.00000000000E+00 -0.00000000000E+00 -0.28352898724E+03  0.28352898724E+03  0.00000000000E+00 0.  1.
         25    2    1    2    0    0 -0.15763877150E+02  0.11342924190E+03 -0.15506767833E+03  0.22980052884E+03  0.12509038912E+03 0.  0.
          5    1    3    3  502    0  0.23213539115E+02  0.12598136858E+03 -0.12273713976E+03  0.17745999973E+03  0.41800000000E+01 0.  1.
         -5    1    3    3    0  502 -0.38977416265E+02 -0.12552126680E+02 -0.32330538566E+02  0.52340529104E+02  0.41800000000E+01 0.  1.
        -11    1    1    2    0    0  0.33969455367E+02 -0.11321651077E+03 -0.50258546096E+01  0.11830959988E+03  0.00000000000E+00 0. -1.
         11    1    1    2    0    0 -0.18205578217E+02 -0.21273113356E+00 -0.26610979344E+02  0.32243333488E+02  0.00000000000E+00 0.  1.
</event>
<event>
 7    1  0.2380582E-009  0.2158488E+03  0.7561462E-02  0.1137016E+00
          1   -1    0    0  501    0  0.00000000000E+00  0.00000000000E+00  0.14426204376E+04  0.14426204376E+04  0.00000000000E+00 0. -1.
         -1   -1    0    0    0  501 -0.00000000000E+00 -0.00000000000E+00 -0.35045949154E+02  0.35045949154E+02  0.00000000000E+00 0.  1.
         25    2    1    2    0    0  0.34027144960E+02 -0.19292252897E+03  0.76475906272E+03  0.79930049575E+03  0.12509160534E+03 0.  0.
          5    1    3    3  502    0 -0.23170715633E+02 -0.12213463755E+03  0.58138961487E+03  0.59454613651E+03  0.41800000000E+01 0. -1.
         -5    1    3    3    0  502  0.57197860593E+02 -0.70787891418E+02  0.18336944784E+03  0.20475435924E+03  0.41800000000E+01 0. -1.
        -11    1    1    2    0    0  0.24597685488E+02  0.14843817154E+02  0.10240120127E+03  0.10635502368E+03  0.00000000000E+00 0. -1.
         11    1    1    2    0    0 -0.58624830448E+02  0.17807871181E+03  0.54041422450E+03  0.57201086737E+03  0.00000000000E+00 0.  1.
</event>
<event>
 7    1  0.2380582E-009  0.2281768E+03  0.7561462E-02  0.1127930E+00
         -2   -1    0    0    0  501 -0.00000000000E+00  0.00000000000E+00  0.77341004005E+02  0.77341004005E+02  0.00000000000E+00 0.  1.
          2   -1    0    0  501    0  0.00000000000E+00 -0.00000000000E+00 -0.82200848237E+03  0.82200848237E+03  0.00000000000E+00 0. -1.
         25    2    1    2    0    0  0.21037654583E+03  0.83058075494E+02 -0.36204169747E+03  0.44483704160E+03  0.12509543529E+03 0.  0.
          5    1    3    3  502    0  0.17602276679E+03  0.51834293734E+02 -0.18057333936E+03  0.25747817717E+03  0.41800000000E+01 0. -1.
         -5    1    3    3    0  502  0.34353779044E+02  0.31223781760E+02 -0.18146835812E+03  0.18735886443E+03  0.41800000000E+01 0. -1.
        -11    1    1    2    0    0 -0.12795376040E+03 -0.52097158908E+02 -0.14125052569E+03  0.19758033752E+03  0.00000000000E+00 0.  1.
         11    1    1    2    0    0 -0.82422785428E+02 -0.30960916586E+02 -0.24137525520E+03  0.25693210726E+03  0.00000000000E+00 0. -1.
</event>
<event>
 7    1  0.2380582E-009  0.1056167E+03  0.7561462E-02  0.1268909E+00
          2   -1    0    0  501    0  0.00000000000E+00  0.00000000000E+00  0.76829474029E+02  0.76829474029E+02  0.00000000000E+00 0. -1.
         -2   -1    0    0    0  501 -0.00000000000E+00 -0.00000000000E+00 -0.20767413908E+03  0.20767413908E+03  0.00000000000E+00 0.  1.
         25    2    1    2    0    0 -0.52423906238E+02 -0.24545008486E+01 -0.37231346445E+02  0.14066919843E+03  0.12508940686E+03 0.  0.
          5    1    3    3  502    0 -0.79817082475E+02  0.33923365036E+02 -0.38364132400E+02  0.94925446562E+02  0.41800000000E+01 0. -1.
         -5    1    3    3    0  502  0.27393176237E+02 -0.36377865885E+02  0.11327859549E+01  0.45743751865E+02  0.41800000000E+01 0. -1.
        -11    1    1    2    0    0  0.63214220107E+02 -0.79188503137E+01 -0.17228241900E+02  0.65996652437E+02  0.00000000000E+00 0. -1.
         11    1    1    2    0    0 -0.10790313868E+02  0.10373351162E+02 -0.76385076707E+02  0.77837762244E+02  0.00000000000E+00 0.  1.
</event>
<event>
 7    1  0.2380582E-009  0.4804533E+03  0.7561462E-02  0.1019011E+00
         -2   -1    0    0    0  501 -0.00000000000E+00  0.00000000000E+00  0.19291944132E+03  0.19291944132E+03  0.00000000000E+00 0.  1.
          2   -1    0    0  501    0  0.00000000000E+00 -0.00000000000E+00 -0.12110063838E+04  0.12110063838E+04  0.00000000000E+00 0. -1.
         25    2    1    2    0    0 -0.47017935013E+03  0.23953276516E+02 -0.51047960423E+03  0.70560561984E+03  0.12508990237E+03 0.  0.
          5    1    3    3  502    0 -0.40649074893E+03  0.61910690202E+02 -0.41013606814E+03  0.58077252803E+03  0.41800000000E+01 0. -1.
         -5    1    3    3    0  502 -0.63688601203E+02 -0.37957413686E+02 -0.10034353609E+03  0.12483309181E+03  0.41800000000E+01 0. -1.
        -11    1    1    2    0    0  0.15026970784E+03 -0.38784407034E+02 -0.21008454346E+03  0.26119098515E+03  0.00000000000E+00 0.  1.
         11    1    1    2    0    0  0.31990964230E+03  0.14831130518E+02 -0.29752279479E+03  0.43712922012E+03  0.00000000000E+00 0. -1.
</event>
<event>
 7    1  0.2380582E-009  0.7731078E+02  0.7561462E-02  0.1336861E+00
         -3   -1    0    0    0  501 -0.00000000000E+00  0.00000000000E+00  0.40863652050E+02  0.40863652050E+02  0.00000000000E+00 0.  1.
          3   -1    0    0  501    0  0.00000000000E+00 -0.00000000000E+00 -0.56952704499E+03  0.56952704499E+03  0.00000000000E+00 0. -1.
         25    2    1    2    0    0 -0.69418119104E+02  0.26781149346E+02 -0.43595281451E+03  0.45960813807E+03  0.12509467967E+03 0.  0.
          5    1    3    3  502    0 -0.25081413176E+02  0.24585140611E+02 -0.18754270502E+02  0.40033754356E+02  0.41800000000E+01 0.  1.
         -5    1    3    3    0  502 -0.44336705929E+02  0.21960087351E+01 -0.41719854401E+03  0.41957438372E+03  0.41800000000E+01 0.  1.
        -11    1    1    2    0    0  0.37734769432E+02 -0.11226798697E+02  0.11289686914E+02  0.40956206657E+02  0.00000000000E+00 0.  1.
         11    1    1    2    0    0  0.31683349672E+02 -0.15554350650E+02 -0.10400026534E+03  0.10982635231E+03  0.00000000000E+00 0. -1.
</event>
<event>
 7    1  0.2380582E-009  0.1006696E+03  0.7561462E-02  0.1278894E+00
          2   -1    0    0  501    0  0.00000000000E+00  0.00000000000E+00  0.66151638922E+03  0.66151638922E+03  0.00000000000E+00 0. -1.
         -2   -1    0    0    0  501 -0.00000000000E+00 -0.00000000000E+00 -0.18158721406E+02  0.18158721406E+02  0.00000000000E+00 0.  1.
         25    2    1    2    0    0  0.17781446482E+02  0.45010952164E+01  0.34697346358E+03  0.36929137838E+03  0.12509635496E+03 0.  0.
          5    1    3    3  502    0  0.47301690921E+02  0.41981896856E+02  0.27919684610E+03  0.28630103196E+03  0.41800000000E+01 0. -1.
         -5    1    3    3    0  502 -0.29520244440E+02 -0.37480801640E+02  0.67776617479E+02  0.82990346428E+02  0.41800000000E+01 0. -1.
        -11    1    1    2    0    0 -0.29403619276E+02  0.36830851500E+02  0.12185863508E+03  0.13065454983E+03  0.00000000000E+00 0. -1.
         11    1    1    2    0    0  0.11622172794E+02 -0.41331946717E+02  0.17452556916E+03  0.17972918241E+03  0.00000000000E+00 0.  1.
</event>
<event>
 7    1  0.2380582E-009  0.9225550E+02  0.7561462E-02  0.1297480E+00
          1   -1    0    0  501    0  0.00000000000E+00  0.00000000000E+00  0.19905895684E+02  0.19905895684E+02  0.00000000000E+00 0. -1.
         -1   -1    0    0    0  501 -0.00000000000E+00 -0.00000000000E+00 -0.62919184782E+03  0.62919184782E+03  0.00000000000E+00 0.  1.
         25    2    1    2    0    0  0.28709325664E+02  0.81570832572E+01 -0.34314296234E+03  0.36644917648E+03  0.12508854045E+03 0.  0.
          5    1    3    3  502    0 -0.94075083809E+00  0.44300594774E+02 -0.40460925347E+02  0.60149701491E+02  0.41800000000E+01 0. -1.
         -5    1    3    3    0  502  0.29650076502E+02 -0.36143511516E+02 -0.30268203700E+03  0.30629947499E+03  0.41800000000E+01 0. -1.
        -11    1    1    2    0    0  0.31537873511E+02  0.34060423020E+01 -0.12066328397E+03  0.12476324254E+03  0.00000000000E+00 0.  1.
         11    1    1    2    0    0 -0.60247199175E+02 -0.11563125559E+02 -0.14547970582E+03  0.15788532448E+03  0.00000000000E+00 0. -1.
</event>
<event>
 7    1  0.2380582E-009  0.1390137E+03  0.7561462E-02  0.1214662E+00
         -2   -1    0    0    0  501 -0.00000000000E+00  0.00000000000E+00  0.10191390499E+03  0.10191390499E+03  0.00000000000E+00 0.  1.
          2   -1    0    0  501    0  0.00000000000E+00 -0.00000000000E+00 -0.20261942725E+03  0.20261942725E+03  0.00000000000E+00 0. -1.
         25    2    1    2    0    0  0.53178370140E+02 -0.85127676821E+02 -0.71147448728E+02  0.17545227384E+03  0.12508749147E+03 0.  0.
          5    1    3    3  502    0  0.56460307779E+02 -0.11432437557E+03 -0.70522148894E+02  0.14576925289E+03  0.41800000000E+01 0. -1.
         -5    1    3    3    0  502 -0.32819376392E+01  0.29196698750E+02 -0.62529983423E+00  0.29683020946E+02  0.41800000000E+01 0. -1.
        -11    1    1    2    0    0 -0.31127887077E+02 -0.17176536818E+01 -0.23935224207E+02  0.39303824825E+02  0.00000000000E+00 0. -1.
         11    1    1    2    0    0 -0.22050483063E+02  0.86845330503E+02 -0.56228493226E+01  0.89777233573E+02  0.00000000000E+00 0.  1.
</event>
<event>
 7    1  0.2380582E-009  0.1102563E+03  0.7561462E-02  0.1260096E+00
         -2   -1    0    0    0  501 -0.00000000000E+00  0.00000000000E+00  0.17760693870E+02  0.17760693870E+02  0.00000000000E+00 0. -1.
          2   -1    0    0  501    0  0.00000000000E+00 -0.00000000000E+00 -0.87952924418E+03  0.87952924418E+03  0.00000000000E+00 0.  1.
         25    2    1    2    0    0 -0.56624835018E+02  0.18145989244E+02 -0.41777876766E+03  0.44014118469E+03  0.12509802111E+03 0.  0.
          5    1    3    3  502    0  0.31755410834E+02 -0.15792701160E+02 -0.58182845123E+02  0.68268084738E+02  0.41800000000E+01 0.  1.
         -5    1    3    3    0  502 -0.88380245852E+02  0.33938690404E+02 -0.35959592254E+03  0.37187309996E+03  0.41800000000E+01 0.  1.
        -11    1    1    2    0    0 -0.15720066323E+02 -0.50864018248E+01 -0.16380108146E+02  0.23265852909E+02  0.00000000000E+00 0. -1.
         11    1    1    2    0    0  0.72344901341E+02 -0.13059587419E+02 -0.42760967450E+03  0.43388290045E+03  0.00000000000E+00 0.  1.
</event>
<event>
 7    1  0.2380582E-009  0.1341513E+03  0.7561462E-02  0.1221423E+00
         -1   -1    0    0    0  501 -0.00000000000E+00  0.00000000000E+00  0.13924909404E+03  0.13924909404E+03  0.00000000000E+00 0.  1.
          1   -1    0    0  501    0  0.00000000000E+00 -0.00000000000E+00 -0.48501822659E+03  0.48501822659E+03  0.00000000000E+00 0. -1.
         25    2    1    2    0    0 -0.96377353564E+02 -0.55792337003E+02 -0.42741487913E+03  0.45905540839E+03  0.12508800868E+03 0.  0.
          5    1    3    3  502    0 -0.95122706900E+02  0.52812906978E+01 -0.17473540721E+03  0.19906319683E+03  0.41800000000E+01 0. -1.
         -5    1    3    3    0  502 -0.12546466636E+01 -0.61073627700E+02 -0.25267947192E+03  0.25999221155E+03  0.41800000000E+01 0. -1.
        -11    1    1    2    0    0  0.72958585208E+02  0.46502189815E+02  0.10132909746E+03  0.13324036477E+03  0.00000000000E+00 0. -1.
         11    1    1    2    0    0  0.23418768355E+02  0.92901471881E+01 -0.19683350875E+02  0.31971547471E+02  0.00000000000E+00 0.  1.
</event>
<event>
 7    1  0.2380582E-009  0.1453147E+03  0.7561462E-02  0.1206351E+00
         -2   -1    0    0    0  501 -0.00000000000E+00  0.00000000000E+00  0.11466476984E+03  0.11466476984E+03  0.00000000000E+00 0. -1.
          2   -1    0    0  501    0  0.00000000000E+00 -0.00000000000E+00 -0.36651353942E+03  0.36651353942E+03  0.00000000000E+00 0.  1.
         25    2    1    2    0    0 -0.13375640468E+03 -0.16908955763E+02 -0.25864366770E+03  0.31736098775E+03  0.12507901953E+03 0.  0.
          5    1    3    3  502    0 -0.35774184990E+02  0.23864291583E+02 -0.18024314596E+03  0.18534929401E+03  0.41800000000E+01 0.  1.
         -5    1    3    3    0  502 -0.97982219692E+02 -0.40773247347E+02 -0.78400521732E+02  0.13201169374E+03  0.41800000000E+01 0.  1.
        -11    1    1    2    0    0  0.21770724801E+02 -0.12930101632E+02  0.36270699032E+02  0.44234778115E+02  0.00000000000E+00 0. -1.
         11    1    1    2    0    0  0.11198567988E+03  0.29839057396E+02 -0.29475800920E+02  0.11958254339E+03  0.00000000000E+00 0.  1.
</event>
<event>
 7    1  0.2380582E-009  0.1271734E+03  0.7561462E-02  0.1231711E+00
          4   -1    0    0  501    0  0.00000000000E+00  0.00000000000E+00  0.67778883348E+02  0.67778883348E+02  0.00000000000E+00 0. -1.
         -4   -1    0    0    0  501 -0.00000000000E+00 -0.00000000000E+00 -0.38683981785E+03  0.38683981785E+03  0.00000000000E+00 0.  1.
         25    2    1    2    0    0 -0.65094987887E+02  0.64201959507E+02 -0.61891155200E+02  0.16684561814E+03  0.12509075165E+03 0.  0.
          5    1    3    3  502    0 -0.91460787987E+02  0.50085545251E+02 -0.74946916891E+01  0.10462925206E+03  0.41800000000E+01 0. -1.
         -5    1    3    3    0  502  0.26365800100E+02  0.14116414256E+02 -0.54396463511E+02  0.62216366086E+02  0.41800000000E+01 0. -1.
        -11    1    1    2    0    0 -0.16740172198E+02 -0.17213789371E+01 -0.89802443359E+01  0.19074624479E+02  0.00000000000E+00 0. -1.
         11    1    1    2    0    0  0.81835160086E+02 -0.62480580569E+02 -0.24818953496E+03  0.26869845857E+03  0.00000000000E+00 0.  1.
</event>
<event>
 7    1  0.2380582E-009  0.1445601E+03  0.7561462E-02  0.1207321E+00
          2   -1    0    0  501    0  0.00000000000E+00  0.00000000000E+00  0.50067168357E+03  0.50067168357E+03  0.00000000000E+00 0. -1.
         -2   -1    0    0    0  501 -0.00000000000E+00 -0.00000000000E+00 -0.47148820722E+02  0.47148820722E+02  0.00000000000E+00 0.  1.
         25    2    1    2    0    0  0.65714177005E+02 -0.83936929936E+02  0.20899613173E+03  0.26587746859E+03  0.12509070294E+03 0.  0.
          5    1    3    3  502    0  0.56339734487E+02 -0.11688747852E+03  0.16362041470E+03  0.20886828583E+03  0.41800000000E+01 0. -1.
         -5    1    3    3    0  502  0.93744425181E+01  0.32950548580E+02  0.45375717025E+02  0.57009182767E+02  0.41800000000E+01 0. -1.
        -11    1    1    2    0    0 -0.74655381606E+02  0.50399947190E+02  0.22444149347E+03  0.24184202420E+03  0.00000000000E+00 0. -1.
         11    1    1    2    0    0  0.89412046007E+01  0.33536982746E+02  0.20085237648E+02  0.40101011493E+02  0.00000000000E+00 0.  1.
</event>
<event>
 7    1  0.2380582E-009  0.1097775E+03  0.7561462E-02  0.1260983E+00
         -1   -1    0    0    0  501 -0.00000000000E+00  0.00000000000E+00  0.31213576480E+03  0.31213576480E+03  0.00000000000E+00 0.  1.
          1   -1    0    0  501    0  0.00000000000E+00 -0.00000000000E+00 -0.74909287918E+02  0.74909287918E+02  0.00000000000E+00 0. -1.
         25    2    1    2    0    0  0.24661941873E+02 -0.25457944934E+02 -0.26329481995E+01  0.13004093899E+03  0.12508954817E+03 0.  0.
          5    1    3    3  502    0  0.16356371321E+02 -0.75542447588E+02 -0.11745862558E+02  0.78291953339E+02  0.41800000000E+01 0. -1.
         -5    1    3    3    0  502  0.83055705523E+01  0.50084502653E+02  0.91129143587E+01  0.51748985655E+02  0.41800000000E+01 0. -1.
        -11    1    1    2    0    0  0.24996553822E+02  0.32556283980E+02  0.88651817185E+02  0.97692804340E+02  0.00000000000E+00 0.  1.
         11    1    1    2    0    0 -0.49658495695E+02 -0.70983390457E+01  0.15120760790E+03  0.15931130939E+03  0.00000000000E+00 0. -1.
</event>
<event>
 7    1  0.2380582E-009  0.1521599E+03  0.7561462E-02  0.1197844E+00
         -2   -1    0    0    0  501 -0.00000000000E+00  0.00000000000E+00  0.96465645733E+02  0.96465645733E+02  0.00000000000E+00 0.  1.
          2   -1    0    0  501    0  0.00000000000E+00 -0.00000000000E+00 -0.36848077459E+03  0.36848077459E+03  0.00000000000E+00 0. -1.
         25    2    1    2    0    0  0.91273412483E+02  0.85807307956E+02 -0.39088793238E+02  0.18129970584E+03  0.12509164504E+03 0.  0.
          5    1    3    3  502    0 -0.24565789894E+02  0.44866195705E+02  0.28752085090E+01  0.51402264290E+02  0.41800000000E+01 0. -1.
         -5    1    3    3    0  502  0.11583920238E+03  0.40941112251E+02 -0.41964001747E+02  0.12989744155E+03  0.41800000000E+01 0. -1.
        -11    1    1    2    0    0 -0.82161869842E+02 -0.57382928873E+02 -0.23317240066E+03  0.25379665445E+03  0.00000000000E+00 0.  1.
         11    1    1    2    0    0 -0.91115426410E+01 -0.28424379083E+02  0.24606504053E+00  0.29850060026E+02  0.00000000000E+00 0. -1.
</event>
<event>
 7    1  0.2380582E-009  0.9798879E+02  0.7561462E-02  0.1284583E+00
          4   -1    0    0  501    0  0.00000000000E+00  0.00000000000E+00  0.60208624620E+02  0.60208624620E+02  0.00000000000E+00 0. -1.
         -4   -1    0    0    0  501 -0.00000000000E+00 -0.00000000000E+00 -0.22979230026E+03  0.22979230026E+03  0.00000000000E+00 0.  1.
         25    2    1    2    0    0  0.41587190972E+02 -0.27034648186E+02 -0.75951411694E+02  0.15451333014E+03  0.12508151581E+03 0.  0.
          5    1    3    3  502    0 -0.17681064419E+02  0.19042106453E+02 -0.74822708302E+02  0.79316656100E+02  0.41800000000E+01 0. -1.
         -5    1    3    3    0  502  0.59268255391E+02 -0.46076754639E+02 -0.11287033921E+01  0.75196674039E+02  0.41800000000E+01 0. -1.
        -11    1    1    2    0    0  0.13276041022E+02 -0.18776291747E+02 -0.89555352008E+01  0.24678006558E+02  0.00000000000E+00 0.  1.
         11    1    1    2    0    0 -0.54863231994E+02  0.45810939933E+02 -0.84676728746E+02  0.11080958818E+03  0.00000000000E+00 0. -1.
</event>
<event>
 7    1  0.2380582E-009  0.1204595E+03  0.7561462E-02  0.1242341E+00
         -2   -1    0    0    0  501 -0.00000000000E+00  0.00000000000E+00  0.22020137534E+03  0.22020137534E+03  0.00000000000E+00 0.  1.
          2   -1    0    0  501    0  0.00000000000E+00 -0.00000000000E+00 -0.76601674659E+02  0.76601674659E+02  0.00000000000E+00 0. -1.
         25    2    1    2    0    0  0.14034344718E+01 -0.70706047351E+02  0.99232622513E+02  0.17462315878E+03  0.12507925268E+03 0.  0.
          5    1    3    3  502    0 -0.30688554801E+02 -0.95758676624E+02  0.56347775785E+02  0.11534320864E+03  0.41800000000E+01 0. -1.
         -5    1    3    3    0  502  0.32091989273E+02  0.25052629273E+02  0.42884846728E+02  0.59279950134E+02  0.41800000000E+01 0. -1.
        -11    1    1    2    0    0  0.30766781864E+02  0.13246834301E+02 -0.11915007638E+02  0.35553352757E+02  0.00000000000E+00 0. -1.
         11    1    1    2    0    0 -0.32170216336E+02  0.57459213050E+02  0.56282085804E+02  0.86626538462E+02  0.00000000000E+00 0.  1.
</event>
<event>
 7    1  0.2380582E-009  0.9413682E+02  0.7561462E-02  0.1293132E+00
         -4   -1    0    0    0  501 -0.00000000000E+00  0.00000000000E+00  0.48101662830E+03  0.48101662830E+03  0.00000000000E+00 0.  1.
          4   -1    0    0  501    0  0.00000000000E+00 -0.00000000000E+00 -0.29932754782E+02  0.29932754782E+02  0.00000000000E+00 0. -1.
         25    2    1    2    0    0  0.22429435944E+02  0.14156877906E+02  0.35685491615E+03  0.37907292335E+03  0.12508938102E+03 0.  0.
          5    1    3    3  502    0 -0.11973089136E+02 -0.36583624846E+02  0.37646003113E+02  0.54003800058E+02  0.41800000000E+01 0.  1.
         -5    1    3    3    0  502  0.34402525080E+02  0.50740502752E+02  0.31920891304E+03  0.32506912329E+03  0.41800000000E+01 0.  1.
        -11    1    1    2    0    0 -0.23063512752E+02  0.33376953476E+02  0.63222962046E+02  0.75120500355E+02  0.00000000000E+00 0.  1.
         11    1    1    2    0    0  0.63407680753E+00 -0.47533831383E+02  0.31005995319E+02  0.56755959379E+02  0.00000000000E+00 0. -1.
</event>
<event>
 7    1  0.2380582E-009  0.9904675E+02  0.7561462E-02  0.1282313E+00
          1   -1    0    0  501    0  0.00000000000E+00  0.00000000000E+00  0.20986636282E+03  0.20986636282E+03  0.00000000000E+00 0. -1.
         -1   -1    0    0    0  501 -0.00000000000E+00 -0.00000000000E+00 -0.72910239042E+02  0.72910239042E+02  0.00000000000E+00 0.  1.
         25    2    1    2    0    0  0.52921989935E+01 -0.51422012659E+02  0.11368342757E+03  0.17675552608E+03  0.12508542497E+03 0.  0.
          5    1    3    3  502    0  0.47063707019E+02 -0.14956621792E+02 -0.70814183979E+00  0.49564774979E+02  0.41800000000E+01 0. -1.
         -5    1    3    3    0  502 -0.41771508026E+02 -0.36465390867E+02  0.11439156941E+03  0.12719075110E+03  0.41800000000E+01 0. -1.
        -11    1    1    2    0    0 -0.41182362093E+02  0.31743583903E+02  0.35900853662E+02  0.63186338399E+02  0.00000000000E+00 0. -1.
         11    1    1    2    0    0  0.35890163100E+02  0.19678428756E+02 -0.12628157456E+02  0.42834737380E+02  0.00000000000E+00 0.  1.
</event>
<event>
 7    1  0.3028936E-009  0.6553582E+02  0.7561462E-02  0.1375967E+00
          2   -1    0    0  501    0  0.00000000000E+00  0.00000000000E+00  0.10409590927E+03  0.10409590927E+03  0.00000000000E+00 0. -1.
         -2   -1    0    0    0  501 -0.00000000000E+00 -0.00000000000E+00 -0.14489682762E+03  0.14489682762E+03  0.00000000000E+00 0.  1.
         25    2    1    2    0    0  0.66542982225E+01 -0.15981949257E+02 -0.78855569100E+02  0.14887622403E+03  0.12508487885E+03 0.  0.
          5    1    3    3  502    0  0.15056300792E+02  0.18976684710E+02 -0.10265462423E+03  0.10555686161E+03  0.41800000000E+01 0. -1.
         -5    1    3    3    0  502 -0.84020025695E+01 -0.34958633967E+02  0.23799055132E+02  0.43319362428E+02  0.41800000000E+01 0. -1.
        -11    1    1    2    0    0  0.35952924731E+01 -0.26423355280E+02 -0.15654017783E+02  0.30921968000E+02  0.00000000000E+00 0.  1.
         11    1    1    2    0    0 -0.10249590696E+02  0.42405304537E+02  0.53708668532E+02  0.69194544855E+02  0.00000000000E+00 0. -1.
</event>
<event>
 7    1  0.2380582E-009  0.9918680E+02  0.7561462E-02  0.1282015E+00
         -1   -1    0    0    0  501 -0.00000000000E+00  0.00000000000E+00  0.54932680457E+02  0.54932680457E+02  0.00000000000E+00 0.  1.
          1   -1    0    0  501    0  0.00000000000E+00 -0.00000000000E+00 -0.26057337967E+03  0.26057337967E+03  0.00000000000E+00 0. -1.
         25    2    1    2    0    0  0.10555456678E+02 -0.49483081110E+02 -0.10351129077E+03  0.17006581320E+03  0.12509116884E+03 0.  0.
          5    1    3    3  502    0 -0.36861022645E+02  0.13306184491E+02 -0.77750575757E+02  0.87168881872E+02  0.41800000000E+01 0. -1.
         -5    1    3    3    0  502  0.47416479323E+02 -0.62789265601E+02 -0.25760715016E+02  0.82896931332E+02  0.41800000000E+01 0. -1.
        -11    1    1    2    0    0  0.16554865897E+02  0.50394294308E+02 -0.10552135334E+03  0.11810336360E+03  0.00000000000E+00 0. -1.
         11    1    1    2    0    0 -0.27110322575E+02 -0.91121319719E+00  0.33919448990E+01  0.27336883322E+02  0.00000000000E+00 0.  1.
</event>
<event>
 7    1  0.2380582E-009  0.1500453E+03  0.7561462E-02  0.1200417E+00
          1   -1    0    0  501    0  0.00000000000E+00  0.00000000000E+00  0.57226859273E+03  0.57226859273E+03  0.00000000000E+00 0. -1.
         -1   -1    0    0    0  501 -0.00000000000E+00 -0.00000000000E+00 -0.76171231386E+02  0.76171231386E+02  0.00000000000E+00 0.  1.
         25    2    1    2    0    0  0.63913606115E+02  0.11576430461E+03  0.44464030489E+03  0.48045672542E+03  0.12508933205E+03 0.  0.
          5    1    3    3  502    0  0.55848399855E+02  0.10076711515E+02  0.27154713527E+03  0.27744531525E+03  0.41800000000E+01 0.  1.
         -5    1    3    3    0  502  0.80652062608E+01  0.10568759310E+03  0.17309316962E+03  0.20301141016E+03  0.41800000000E+01 0.  1.
        -11    1    1    2    0    0 -0.36272543914E+02 -0.30224759591E+02 -0.21813883718E+02  0.52010374516E+02  0.00000000000E+00 0.  1.
         11    1    1    2    0    0 -0.27641062201E+02 -0.85539545020E+02  0.73270940172E+02  0.11597272419E+03  0.00000000000E+00 0. -1.
</event>
<event>
 7    1  0.2380582E-009  0.6293249E+02  0.7561462E-02  0.1385922E+00
          2   -1    0    0  501    0  0.00000000000E+00  0.00000000000E+00  0.12422205779E+03  0.12422205779E+03  0.00000000000E+00 0. -1.
         -2   -1    0    0    0  501 -0.00000000000E+00 -0.00000000000E+00 -0.90544622624E+02  0.90544622624E+02  0.00000000000E+00 0.  1.
         25    2    1    2    0    0 -0.23333180626E+02 -0.47664589238E+01  0.40214814787E+02  0.13353419382E+03  0.12508794164E+03 0.  0.
          5    1    3    3  502    0 -0.18371309448E+02  0.17638979518E+02  0.81843131850E+02  0.85816136247E+02  0.41800000000E+01 0. -1.
         -5    1    3    3    0  502 -0.49618711775E+01 -0.22405438442E+02 -0.41628317064E+02  0.47718057577E+02  0.41800000000E+01 0. -1.
        -11    1    1    2    0    0  0.24319603890E+02 -0.31865039911E+02 -0.16358237383E+02  0.43294524275E+02  0.00000000000E+00 0.  1.
         11    1    1    2    0    0 -0.98642326462E+00  0.36631498835E+02  0.98208577665E+01  0.37937962320E+02  0.00000000000E+00 0. -1.
</event>
<event>
 7    1  0.2380582E-009  0.1692867E+03  0.7561462E-02  0.1178594E+00
          1   -1    0    0  501    0  0.00000000000E+00  0.00000000000E+00  0.25798664809E+03  0.25798664809E+03  0.00000000000E+00 0. -1.
         -1   -1    0    0    0  501 -0.00000000000E+00 -0.00000000000E+00 -0.12094862336E+03  0.12094862336E+03  0.00000000000E+00 0.  1.
         25    2    1    2    0    0  0.13586046418E+03  0.10401125220E+02  0.46618246189E+02  0.19075408539E+03  0.12509041163E+03 0.  0.
          5    1    3    3  502    0  0.10748432203E+03  0.58164119550E+02  0.55583424391E+02  0.13432398800E+03  0.41800000000E+01 0. -1.
         -5    1    3    3    0  502  0.28376142151E+02 -0.47762994331E+02 -0.89651782021E+01  0.56430097386E+02  0.41800000000E+01 0. -1.
        -11    1    1    2    0    0 -0.12267194332E+03  0.22870495430E+02  0.50636650538E+02  0.13466824280E+03  0.00000000000E+00 0.  1.
         11    1    1    2    0    0 -0.13188520855E+02 -0.33271620649E+02  0.39783128009E+02  0.53512943268E+02  0.00000000000E+00 0. -1.
</event>
<event>
 7    1  0.2380582E-009  0.1033279E+03  0.7561462E-02  0.1273450E+00
         -2   -1    0    0    0  501 -0.00000000000E+00  0.00000000000E+00  0.15008043303E+03  0.15008043303E+03  0.00000000000E+00 0.  1.
          2   -1    0    0  501    0  0.00000000000E+00 -0.00000000000E+00 -0.96381415855E+02  0.96381415855E+02  0.00000000000E+00 0. -1.
         25    2    1    2    0    0  0.36212398644E+02  0.60486961565E+01 -0.12029419145E+02  0.13091788742E+03  0.12508741656E+03 0.  0.
          5    1    3    3  502    0 -0.40457754421E+02 -0.84809034856E+01 -0.29357361714E+02  0.50873202214E+02  0.41800000000E+01 0.  1.
         -5    1    3    3    0  502  0.76670153065E+02  0.14529599642E+02  0.17327942569E+02  0.80044685211E+02  0.41800000000E+01 0.  1.
        -11    1    1    2    0    0  0.16413705005E+02  0.21904556951E+02  0.44581108019E+02  0.52313425805E+02  0.00000000000E+00 0.  1.
         11    1    1    2    0    0 -0.52626103649E+02 -0.27953253108E+02  0.21147328296E+02  0.63230535651E+02  0.00000000000E+00 0. -1.
</event>
<event>
 7    1  0.2380582E-009  0.1225753E+03  0.7561462E-02  0.1238908E+00
          1   -1    0    0  501    0  0.00000000000E+00  0.00000000000E+00  0.81742921607E+02  0.81742921607E+02  0.00000000000E+00 0. -1.
         -1   -1    0    0    0  501 -0.00000000000E+00 -0.00000000000E+00 -0.31883434191E+03  0.31883434191E+03  0.00000000000E+00 0.  1.
         25    2    1    2    0    0 -0.10055190789E+03 -0.23950141355E+02 -0.53451613006E+02  0.17084938008E+03  0.12509252691E+03 0.  0.
          5    1    3    3  502    0 -0.57791109941E+02 -0.57429752342E+02 -0.76376004732E+02  0.11175309992E+03  0.41800000000E+01 0. -1.
         -5    1    3    3    0  502 -0.42760797949E+02  0.33479610987E+02  0.22924391726E+02  0.59096280163E+02  0.41800000000E+01 0. -1.
        -11    1    1    2    0    0  0.68466696751E+02 -0.97188230128E+00 -0.37549268677E+02  0.78093410077E+02  0.00000000000E+00 0. -1.
         11    1    1    2    0    0  0.32085211139E+02  0.24922023656E+02 -0.14609053862E+03  0.15163447336E+03  0.00000000000E+00 0.  1.
</event>
<event>
 7    1  0.2380582E-009  0.9255705E+02  0.7561462E-02  0.1296775E+00
         -2   -1    0    0    0  501 -0.00000000000E+00  0.00000000000E+00  0.49986114376E+02  0.49986114376E+02  0.00000000000E+00 0.  1.
          2   -1    0    0  501    0  0.00000000000E+00 -0.00000000000E+00 -0.31181865093E+03  0.31181865093E+03  0.00000000000E+00 0. -1.
         25    2    1    2    0    0 -0.58153710954E+02 -0.24390477625E+02 -0.15483998636E+03  0.20880797745E+03  0.12509436667E+03 0.  0.
          5    1    3    3  502    0 -0.63123181098E+02 -0.31928941474E+02 -0.20040256314E+02  0.73641547843E+02  0.41800000000E+01 0. -1.
         -5    1    3    3    0  502  0.49694701446E+01  0.75384638485E+01 -0.13479973005E+03  0.13516642960E+03  0.41800000000E+01 0. -1.
        -11    1    1    2    0    0  0.11230148184E+02 -0.30256590102E+02 -0.13518610868E+02  0.34990431730E+02  0.00000000000E+00 0.  1.
         11    1    1    2    0    0  0.46923562769E+02  0.54647067727E+02 -0.93473939323E+02  0.11800635613E+03  0.00000000000E+00 0. -1.
</event>
<event>
 7    1  0.2380582E-009  0.1036859E+03  0.7561462E-02  0.1272731E+00
          1   -1    0    0  501    0  0.00000000000E+00  0.00000000000E+00  0.83902086885E+02  0.83902086885E+02  0.00000000000E+00 0. -1.
         -1   -1    0    0    0  501 -0.00000000000E+00 -0.00000000000E+00 -0.18933759754E+03  0.18933759754E+03  0.00000000000E+00 0.  1.
         25    2    1    2    0    0 -0.51873629889E+02 -0.38397584215E+02 -0.63485560774E+02  0.15441395712E+03  0.12509198926E+03 0.  0.
          5    1    3    3  502    0 -0.47876457036E+02  0.28257808509E+02  0.82072355017E+01  0.56351486179E+02  0.41800000000E+01 0.  1.
         -5    1    3    3    0  502 -0.39971728526E+01 -0.66655392724E+02 -0.71692796276E+02  0.98062470945E+02  0.41800000000E+01 0.  1.
        -11    1    1    2    0    0  0.10654808121E+02 -0.14286898043E+02 -0.48444023074E+02  0.51618444023E+02  0.00000000000E+00 0.  1.
         11    1    1    2    0    0  0.41218821768E+02  0.52684482258E+02  0.64940731938E+01  0.67207283276E+02  0.00000000000E+00 0. -1.
</event>
<event>
 7    1  0.3170030E-009  0.1313121E+03  0.7561462E-02  0.1225522E+00
         -1   -1    0    0    0  501 -0.00000000000E+00  0.00000000000E+00  0.15095343572E+02  0.15095343572E+02  0.00000000000E+00 0.  1.
          1   -1    0    0  501    0  0.00000000000E+00 -0.00000000000E+00 -0.14349811317E+04  0.14349811317E+04  0.00000000000E+00 0. -1.
         25    2    1    2    0    0 -0.26311692504E+02  0.81258478874E+02 -0.10173248842E+04  0.10285392065E+04  0.12509090195E+03 0.  0.
          5    1    3    3  502    0  0.32351158305E+02 -0.14182383944E+02 -0.35677666793E+03  0.35854539550E+03  0.41800000000E+01 0. -1.
         -5    1    3    3    0  502 -0.58662850809E+02  0.95440862818E+02 -0.66054821632E+03  0.66999381105E+03  0.41800000000E+01 0. -1.
        -11    1    1    2    0    0  0.50033679281E+02 -0.29675653974E+02 -0.28634323904E+03  0.29219251196E+03  0.00000000000E+00 0. -1.
         11    1    1    2    0    0 -0.23721986777E+02 -0.51582824900E+02 -0.11621766485E+03  0.12934475677E+03  0.00000000000E+00 0.  1.
</event>
<event>
 7    1  0.2380582E-009  0.7892070E+02  0.7561462E-02  0.1332143E+00
         -1   -1    0    0    0  501 -0.00000000000E+00  0.00000000000E+00  0.18654327453E+03  0.18654327453E+03  0.00000000000E+00 0.  1.
          1   -1    0    0  501    0  0.00000000000E+00 -0.00000000000E+00 -0.63370646796E+02  0.63370646796E+02  0.00000000000E+00 0. -1.
         25    2    1    2    0    0 -0.21835406728E+01  0.66900352504E+01  0.78444693297E+02  0.14782516390E+03  0.12509670161E+03 0.  0.
          5    1    3    3  502    0 -0.23123209260E+02 -0.40897257639E+02  0.83002471962E+02  0.95468063983E+02  0.41800000000E+01 0.  1.
         -5    1    3    3    0  502  0.20939668587E+02  0.47587292889E+02 -0.45577786645E+01  0.52357099914E+02  0.41800000000E+01 0.  1.
        -11    1    1    2    0    0  0.14177098748E+02 -0.29508498558E+02  0.62653195569E+02  0.70690625482E+02  0.00000000000E+00 0.  1.
         11    1    1    2    0    0 -0.11993558076E+02  0.22818463307E+02 -0.17925261133E+02  0.31398131946E+02  0.00000000000E+00 0. -1.
</event>
<event>
 7    1  0.2380582E-009  0.7612176E+02  0.7561462E-02  0.1340432E+00
          1   -1    0    0  501    0  0.00000000000E+00  0.00000000000E+00  0.97724378581E+03  0.97724378581E+03  0.00000000000E+00 0. -1.
         -1   -1    0    0    0  501 -0.00000000000E+00 -0.00000000000E+00 -0.23384740315E+02  0.23384740315E+02  0.00000000000E+00 0.  1.
         25    2    1    2    0    0  0.30842840388E+02  0.33096299417E+02  0.82504861796E+03  0.83570283647E+03  0.12508942017E+03 0.  0.
          5    1    3    3  502    0  0.14702533556E+02 -0.11363830932E+02  0.14948260983E+02  0.24212064200E+02  0.41800000000E+01 0. -1.
         -5    1    3    3    0  502  0.16140306832E+02  0.44460130350E+02  0.81010035698E+03  0.81149077227E+03  0.41800000000E+01 0. -1.
        -11    1    1    2    0    0  0.15954924214E+02  0.12581260080E+02  0.82061454085E+02  0.84539517141E+02  0.00000000000E+00 0. -1.
         11    1    1    2    0    0 -0.46797764602E+02 -0.45677559497E+02  0.46748973445E+02  0.80386172515E+02  0.00000000000E+00 0.  1.
</event>
<event>
 7    1  0.2380582E-009  0.7494579E+02  0.7561462E-02  0.1344039E+00
         -1   -1    0    0    0  501 -0.00000000000E+00  0.00000000000E+00  0.27989959757E+02  0.27989959757E+02  0.00000000000E+00 0.  1.
          1   -1    0    0  501    0  0.00000000000E+00 -0.00000000000E+00 -0.52947770777E+03  0.52947770777E+03  0.00000000000E+00 0. -1.
         25    2    1    2    0    0 -0.31072196458E+02 -0.19906982796E+02 -0.20725340852E+03  0.24487398658E+03  0.12509006596E+03 0.  0.
          5    1    3    3  502    0 -0.19274288744E+02 -0.42392246102E+02 -0.12458888567E+02  0.48386951138E+02  0.41800000000E+01 0.  1.
         -5    1    3    3    0  502 -0.11797907714E+02  0.22485263306E+02 -0.19479451995E+03  0.19648703544E+03  0.41800000000E+01 0.  1.
        -11    1    1    2    0    0  0.12561143375E+02  0.44716669328E+02 -0.26806610272E+03  0.27206028425E+03  0.00000000000E+00 0. -1.
         11    1    1    2    0    0  0.18511053082E+02 -0.24809686533E+02 -0.26168236772E+02  0.40533396697E+02  0.00000000000E+00 0.  1.
</event>
<event>
 7    1  0.2380582E-009  0.1866040E+03  0.7561462E-02  0.1161560E+00
          2   -1    0    0  501    0  0.00000000000E+00  0.00000000000E+00  0.28824229408E+03  0.28824229408E+03  0.00000000000E+00 0.  1.
         -2   -1    0    0    0  501 -0.00000000000E+00 -0.00000000000E+00 -0.14700878558E+03  0.14700878558E+03  0.00000000000E+00 0. -1.
         25    2    1    2    0    0 -0.16960419240E+03  0.37002657609E+02  0.62704453796E+02  0.22296420414E+03  0.12508560690E+03 0.  0.
          5    1    3    3  502    0 -0.95829169431E+02 -0.42830905771E+00  0.94109022630E+02  0.13437780212E+03  0.41800000000E+01 0.  1.
         -5    1    3    3    0  502 -0.73775022966E+02  0.37430966667E+02 -0.31404568834E+02  0.88586402020E+02  0.41800000000E+01 0.  1.
        -11    1    1    2    0    0  0.29915363129E+02  0.27460684418E+02  0.25129898107E+01  0.40685786924E+02  0.00000000000E+00 0. -1.
         11    1    1    2    0    0  0.13968882927E+03 -0.64463342027E+02  0.76016064890E+02  0.17160108860E+03  0.00000000000E+00 0.  1.
</event>
<event>
 7    1  0.2380582E-009  0.1034353E+03  0.7561462E-02  0.1273234E+00
          2   -1    0    0  501    0  0.00000000000E+00  0.00000000000E+00  0.21152356665E+04  0.21152356665E+04  0.00000000000E+00 0.  1.
         -2   -1    0    0    0  501 -0.00000000000E+00 -0.00000000000E+00 -0.91427443480E+01  0.91427443480E+01  0.00000000000E+00 0. -1.
         25    2    1    2    0    0 -0.58336496546E+02  0.48932850447E+02  0.14675631685E+04  0.14748514337E+04  0.12509007706E+03 0.  0.
          5    1    3    3  502    0 -0.64866038220E+02  0.39264821386E+02  0.39594224115E+03  0.40315885187E+03  0.41800000000E+01 0.  1.
         -5    1    3    3    0  502  0.65295416742E+01  0.96680290611E+01  0.10716209274E+04  0.10716925819E+04  0.41800000000E+01 0.  1.
        -11    1    1    2    0    0  0.67135871248E+02 -0.69217364250E+02  0.54054512344E+03  0.54907859109E+03  0.00000000000E+00 0.  1.
         11    1    1    2    0    0 -0.87993747026E+01  0.20284513802E+02  0.97984630162E+02  0.10044838597E+03  0.00000000000E+00 0. -1.
</event>
<event>
 7    1  0.2380582E-009  0.6896425E+02  0.7561462E-02  0.1363651E+00
          1   -1    0    0  501    0  0.00000000000E+00  0.00000000000E+00  0.45850483534E+03  0.45850483534E+03  0.00000000000E+00 0. -1.
         -1   -1    0    0    0  501 -0.00000000000E+00 -0.00000000000E+00 -0.27465976995E+02  0.27465976995E+02  0.00000000000E+00 0.  1.
         25    2    1    2    0    0  0.67507351858E+01 -0.25781435240E+02  0.22570220437E+03  0.25941757271E+03  0.12508292109E+03 0.  0.
          5    1    3    3  502    0 -0.14810130870E+02 -0.32895802901E+02  0.40229128992E+01  0.36539431483E+02  0.41800000000E+01 0.  1.
         -5    1    3    3    0  502  0.21560866056E+02  0.71143676609E+01  0.22167929147E+03  0.22287814123E+03  0.41800000000E+01 0.  1.
        -11    1    1    2    0    0 -0.37477034232E+02 -0.13979419526E+01  0.16431105370E+03  0.16853665686E+03  0.00000000000E+00 0.  1.
         11    1    1    2    0    0  0.30726299046E+02  0.27179377192E+02  0.41025600274E+02  0.58016582763E+02  0.00000000000E+00 0. -1.
</event>
<event>
 7    1  0.2380582E-009  0.1427072E+03  0.7561462E-02  0.1209732E+00
         -1   -1    0    0    0  501 -0.00000000000E+00  0.00000000000E+00  0.60744259842E+02  0.60744259842E+02  0.00000000000E+00 0.  1.
          1   -1    0    0  501    0  0.00000000000E+00 -0.00000000000E+00 -0.38149286438E+03  0.38149286438E+03  0.00000000000E+00 0. -1.
         25    2    1    2    0    0 -0.91409502681E+02  0.54450318899E+02 -0.15835581600E+03  0.22813139348E+03  0.12508730480E+03 0.  0.
          5    1    3    3  502    0  0.12998423359E+02  0.42248343665E+02 -0.96170479547E+02  0.10592504467E+03  0.41800000000E+01 0.  1.
         -5    1    3    3    0  502 -0.10440792604E+03  0.12201975234E+02 -0.62185336451E+02  0.12220634881E+03  0.41800000000E+01 0.  1.
        -11    1    1    2    0    0  0.65167242961E+02 -0.77238486214E+02 -0.97139044346E+02  0.14017327578E+03  0.00000000000E+00 0.  1.
         11    1    1    2    0    0  0.26242259720E+02  0.22788167315E+02 -0.65253744198E+02  0.73932454962E+02  0.00000000000E+00 0. -1.
</event>
<event>
 7    1  0.2380582E-009  0.1062707E+03  0.7561462E-02  0.1267636E+00
         -1   -1    0    0    0  501 -0.00000000000E+00  0.00000000000E+00  0.71074484234E+02  0.71074484234E+02  0.00000000000E+00 0.  1.
          1   -1    0    0  501    0  0.00000000000E+00 -0.00000000000E+00 -0.26952945776E+03  0.26952945776E+03  0.00000000000E+00 0. -1.
         25    2    1    2    0    0  0.20043912872E+02 -0.82244738304E+02 -0.12361161007E+03  0.19517449099E+03  0.12508915367E+03 0.  0.
          5    1    3    3  502    0  0.23732866884E+02 -0.98963786269E+02 -0.13862567573E+03  0.17202217978E+03  0.41800000000E+01 0. -1.
         -5    1    3    3    0  502 -0.36889540121E+01  0.16719047965E+02  0.15014065665E+02  0.23152311210E+02  0.41800000000E+01 0. -1.
        -11    1    1    2    0    0 -0.19772292817E+02  0.12663502767E+02  0.17872137815E+02  0.29507984947E+02  0.00000000000E+00 0. -1.
         11    1    1    2    0    0 -0.27162005480E+00  0.69581235538E+02 -0.92715501273E+02  0.11592146606E+03  0.00000000000E+00 0.  1.
</event>
<event>
 7    1  0.2380582E-009  0.1673333E+03  0.7561462E-02  0.1180658E+00
         -1   -1    0    0    0  501 -0.00000000000E+00  0.00000000000E+00  0.68339857989E+03  0.68339857989E+03  0.00000000000E+00 0.  1.
          1   -1    0    0  501    0  0.00000000000E+00 -0.00000000000E+00 -0.45757852839E+02  0.45757852839E+02  0.00000000000E+00 0. -1.
         25    2    1    2    0    0  0.11327214519E+03 -0.72101152538E+02  0.25822561178E+03  0.31679252816E+03  0.12509150348E+03 0.  0.
          5    1    3    3  502    0 -0.42840552739E+00 -0.62006368495E+02  0.13585489084E+03  0.14939543845E+03  0.41800000000E+01 0. -1.
         -5    1    3    3    0  502  0.11370055072E+03 -0.10094784043E+02  0.12237072094E+03  0.16739708970E+03  0.41800000000E+01 0. -1.
        -11    1    1    2    0    0 -0.46898094439E+02 -0.14586070976E+02  0.15862122416E+03  0.16605082801E+03  0.00000000000E+00 0.  1.
         11    1    1    2    0    0 -0.66374050749E+02  0.86687223514E+02  0.22079389111E+03  0.24631307656E+03  0.00000000000E+00 0. -1.
</event>
<event>
 7    1  0.2380582E-009  0.3199921E+03  0.7561462E-02  0.1075653E+00
          2   -1    0    0  501    0  0.00000000000E+00  0.00000000000E+00  0.12425077092E+03  0.12425077092E+03  0.00000000000E+00 0. -1.
         -2   -1    0    0    0  501 -0.00000000000E+00 -0.00000000000E+00 -0.97227231071E+03  0.97227231071E+03  0.00000000000E+00 0.  1.
         25    2    1    2    0    0 -0.14779439502E+03  0.25628932721E+03 -0.53567813320E+03  0.62460122852E+03  0.12509288485E+03 0.  0.
          5    1    3    3  502    0 -0.14771178104E+02  0.12991072994E+03 -0.16148035418E+03  0.20781809989E+03  0.41800000000E+01 0.  1.
         -5    1    3    3    0  502 -0.13302321691E+03  0.12637859727E+03 -0.37419777902E+03  0.41678312863E+03  0.41800000000E+01 0.  1.
        -11    1    1    2    0    0  0.86340879051E+02 -0.30397995738E+02 -0.13849303712E+02  0.92577474331E+02  0.00000000000E+00 0. -1.
         11    1    1    2    0    0  0.61453515965E+02 -0.22589133147E+03 -0.29849410288E+03  0.37934437878E+03  0.00000000000E+00 0.  1.
</event>
<event>
 7    1  0.2380582E-009  0.2504168E+03  0.7561462E-02  0.1113042E+00
         -2   -1    0    0    0  501 -0.00000000000E+00  0.00000000000E+00  0.13209820995E+04  0.13209820995E+04  0.00000000000E+00 0.  1.
          2   -1    0    0  501    0  0.00000000000E+00 -0.00000000000E+00 -0.56725690678E+02  0.56725690678E+02  0.00000000000E+00 0. -1.
         25    2    1    2    0    0  0.14192647603E+03  0.20614929286E+03  0.68259233300E+03  0.73771290835E+03  0.12508951409E+03 0.  0.
          5    1    3    3  502    0  0.97453569990E+02  0.14163076514E+03  0.59839850815E+03  0.62261924070E+03  0.41800000000E+01 0.  1.
         -5    1    3    3    0  502  0.44472906036E+02  0.64518527718E+02  0.84193824854E+02  0.11509366765E+03  0.41800000000E+01 0.  1.
        -11    1    1    2    0    0 -0.91036939506E+02 -0.12590590539E+03  0.24443762777E+03  0.28963731672E+03  0.00000000000E+00 0. -1.
         11    1    1    2    0    0 -0.50889536520E+02 -0.80243387474E+02  0.33722644802E+03  0.35035756507E+03  0.00000000000E+00 0.  1.
</event>
<event>
 7    1  0.2380582E-009  0.1505977E+03  0.7561462E-02  0.1199741E+00
          1   -1    0    0  501    0  0.00000000000E+00  0.00000000000E+00  0.35449637721E+03  0.35449637721E+03  0.00000000000E+00 0. -1.
         -1   -1    0    0    0  501 -0.00000000000E+00 -0.00000000000E+00 -0.83336468438E+02  0.83336468438E+02  0.00000000000E+00 0.  1.
         25    2    1    2    0    0 -0.10262474326E+02  0.12832249751E+03  0.17215169605E+03  0.24870778915E+03  0.12508947273E+03 0.  0.
          5    1    3    3  502    0  0.32839319609E+02  0.11834689249E+02 -0.14756244327E+01  0.35187080718E+02  0.41800000000E+01 0.  1.
         -5    1    3    3    0  502 -0.43101793935E+02  0.11648780826E+03  0.17362732048E+03  0.21352070844E+03  0.41800000000E+01 0.  1.
        -11    1    1    2    0    0  0.22645429165E+02 -0.12734328338E+03  0.50167677341E+02  0.13872967647E+03  0.00000000000E+00 0.  1.
         11    1    1    2    0    0 -0.12382954839E+02 -0.97921413433E+00  0.48840535382E+02  0.50395380019E+02  0.00000000000E+00 0. -1.
</event>
<event>
 7    1  0.2380582E-009  0.1062920E+03  0.7561462E-02  0.1267595E+00
         -1   -1    0    0    0  501 -0.00000000000E+00  0.00000000000E+00  0.88981164898E+02  0.88981164898E+02  0.00000000000E+00 0. -1.
          1   -1    0    0  501    0  0.00000000000E+00 -0.00000000000E+00 -0.15420352018E+03  0.15420352018E+03  0.00000000000E+00 0.  1.
         25    2    1    2    0    0 -0.15179781044E+02  0.19316320263E+02  0.20979070194E+01  0.12749972480E+03  0.12509289599E+03 0.  0.
          5    1    3    3  502    0 -0.66590573620E+02 -0.51186367670E+01  0.15896615774E+02  0.68779936976E+02  0.41800000000E+01 0. -1.
         -5    1    3    3    0  502  0.51410792576E+02  0.24434957030E+02 -0.13798708754E+02  0.58719787820E+02  0.41800000000E+01 0. -1.
        -11    1    1    2    0    0  0.19422606604E+02 -0.52064333799E+02 -0.60157356857E+02  0.81895299531E+02  0.00000000000E+00 0.  1.
         11    1    1    2    0    0 -0.42428255601E+01  0.32748013536E+02 -0.71629054449E+01  0.33789660752E+02  0.00000000000E+00 0. -1.
</event>
<event>
 7    1  0.2380582E-009  0.1250141E+03  0.7561462E-02  0.1235047E+00
          1   -1    0    0  501    0  0.00000000000E+00  0.00000000000E+00  0.25771696048E+03  0.25771696048E+03  0.00000000000E+00 0. -1.
         -1   -1    0    0    0  501 -0.00000000000E+00 -0.00000000000E+00 -0.66304733223E+02  0.66304733223E+02  0.00000000000E+00 0.  1.
         25    2    1    2    0    0 -0.71997791229E+02 -0.11323986551E+02  0.10815742757E+03  0.18071290850E+03  0.12508881462E+03 0.  0.
          5    1    3    3  502    0  0.29199580341E+02 -0.25495206963E+02  0.48810725454E+02  0.62470636218E+02  0.41800000000E+01 0.  1.
         -5    1    3    3    0  502 -0.10119737157E+03  0.14171220412E+02  0.59346702121E+02  0.11824227228E+03  0.41800000000E+01 0.  1.
        -11    1    1    2    0    0  0.19375164390E+02  0.43129647146E+02  0.11210125122E+02  0.48592492870E+02  0.00000000000E+00 0.  1.
         11    1    1    2    0    0  0.52622626839E+02 -0.31805660595E+02  0.72044674558E+02  0.94716292334E+02  0.00000000000E+00 0. -1.
</event>
<event>
 7    1  0.2380582E-009  0.1228032E+03  0.7561462E-02  0.1238543E+00
          1   -1    0    0  501    0  0.00000000000E+00  0.00000000000E+00  0.77598432500E+03  0.77598432500E+03  0.00000000000E+00 0. -1.
         -1   -1    0    0    0  501 -0.00000000000E+00 -0.00000000000E+00 -0.27145467655E+02  0.27145467655E+02  0.00000000000E+00 0.  1.
         25    2    1    2    0    0 -0.82575065621E+02  0.20396863987E+02  0.58287823042E+03  0.60218661543E+03  0.12508802813E+03 0.  0.
          5    1    3    3  502    0 -0.10671223970E+03  0.44268971293E+01  0.53873807004E+03  0.54923881876E+03  0.41800000000E+01 0. -1.
         -5    1    3    3    0  502  0.24137174081E+02  0.15969966857E+02  0.44140160382E+02  0.52947796674E+02  0.41800000000E+01 0. -1.
        -11    1    1    2    0    0  0.90088691680E+02 -0.32044008772E+02  0.12295112266E+03  0.15575547961E+03  0.00000000000E+00 0.  1.
         11    1    1    2    0    0 -0.75136260588E+01  0.11647144785E+02  0.43009504271E+02  0.45187697616E+02  0.00000000000E+00 0. -1.
</event>
<event>
 7    1  0.2697236E-009  0.1255388E+03  0.7561462E-02  0.1234230E+00
         -2   -1    0    0    0  501 -0.00000000000E+00  0.00000000000E+00  0.19278200362E+02  0.19278200362E+02  0.00000000000E+00 0.  1.
          2   -1    0    0  501    0  0.00000000000E+00 -0.00000000000E+00 -0.11972356424E+04  0.11972356424E+04  0.00000000000E+00 0. -1.
         25    2    1    2    0    0 -0.86916844970E+02 -0.47911135767E+02 -0.78441596005E+03  0.80050376643E+03  0.12509143387E+03 0.  0.
          5    1    3    3  502    0 -0.64063252936E+02  0.76567546777E+00 -0.67958326883E+03  0.68260938926E+03  0.41800000000E+01 0.  1.
         -5    1    3    3    0  502 -0.22853592034E+02 -0.48676811235E+02 -0.10483269122E+03  0.11789437717E+03  0.41800000000E+01 0.  1.
        -11    1    1    2    0    0  0.41799442235E+02 -0.23884107127E+02 -0.11030157986E+03  0.12034983367E+03  0.00000000000E+00 0.  1.
         11    1    1    2    0    0  0.45117402735E+02  0.71795242894E+02 -0.28323990218E+03  0.29566024271E+03  0.00000000000E+00 0. -1.
</event>
<event>
 7    1  0.2380582E-009  0.7040590E+02  0.7561462E-02  0.1358718E+00
          2   -1    0    0  501    0  0.00000000000E+00  0.00000000000E+00  0.38125444706E+02  0.38125444706E+02  0.00000000000E+00 0.  1.
         -2   -1    0    0    0  501 -0.00000000000E+00 -0.00000000000E+00 -0.65195311108E+03  0.65195311108E+03  0.00000000000E+00 0. -1.
         25    2    1    2    0    0  0.35871496421E+02  0.41567604632E+02 -0.54683709074E+03  0.56364308424E+03  0.12509233625E+03 0.  0.
          5    1    3    3  502    0  0.40282703130E+01  0.35116416476E+02 -0.52021581367E+03  0.52143202324E+03  0.41800000000E+01 0.  1.
         -5    1    3    3    0  502  0.31843226108E+02  0.64511881564E+01 -0.26621277069E+02  0.42211060996E+02  0.41800000000E+01 0.  1.
        -11    1    1    2    0    0 -0.77412206449E+01  0.10639358979E+02  0.18309099893E+02  0.22546520695E+02  0.00000000000E+00 0.  1.
         11    1    1    2    0    0 -0.28130275776E+02 -0.52206963611E+02 -0.85299675531E+02  0.10388895086E+03  0.00000000000E+00 0. -1.
</event>
<event>
 7    1  0.2380582E-009  0.1246215E+03  0.7561462E-02  0.1235662E+00
          4   -1    0    0  501    0  0.00000000000E+00  0.00000000000E+00  0.24335844159E+02  0.24335844159E+02  0.00000000000E+00 0. -1.
         -4   -1    0    0    0  501 -0.00000000000E+00 -0.00000000000E+00 -0.70649298481E+03  0.70649298481E+03  0.00000000000E+00 0.  1.
         25    2    1    2    0    0  0.74091533759E+02 -0.10838100631E+02 -0.40005839036E+03  0.42579623705E+03  0.12509476406E+03 0.  0.
          5    1    3    3  502    0  0.98248597399E+02  0.14573070634E+02 -0.35439251773E+03  0.36807158312E+03  0.41800000000E+01 0. -1.
         -5    1    3    3    0  502 -0.24157063639E+02 -0.25411171265E+02 -0.45665872623E+02  0.57724653928E+02  0.41800000000E+01 0. -1.
        -11    1    1    2    0    0 -0.27439742208E+02  0.47723695983E+02 -0.16031136169E+03  0.16949992124E+03  0.00000000000E+00 0.  1.
         11    1    1    2    0    0 -0.46651791552E+02 -0.36885595352E+02 -0.12178738860E+03  0.13553267068E+03  0.00000000000E+00 0. -1.
</event>
<event>
 7    1  0.2380582E-009  0.1697736E+03  0.7561462E-02  0.1178084E+00
          1   -1    0    0  501    0  0.00000000000E+00  0.00000000000E+00  0.57193557954E+03  0.57193557954E+03  0.00000000000E+00 0. -1.
         -1   -1    0    0    0  501 -0.00000000000E+00 -0.00000000000E+00 -0.65682796962E+02  0.65682796962E+02  0.00000000000E+00 0.  1.
         25    2    1    2    0    0  0.71171492697E+02  0.14397370752E+03  0.28986912416E+03  0.35421195302E+03  0.12509272037E+03 0.  0.
          5    1    3    3  502    0  0.40135117121E+02  0.84583319337E+02  0.26750203754E+03  0.28344307722E+03  0.41800000000E+01 0.  1.
         -5    1    3    3    0  502  0.31036375576E+02  0.59390388184E+02  0.22367086615E+02  0.70768875794E+02  0.41800000000E+01 0.  1.
        -11    1    1    2    0    0 -0.87085991715E+02 -0.10388642771E+03  0.18799083080E+03  0.23176909259E+03  0.00000000000E+00 0. -1.
         11    1    1    2    0    0  0.15914499017E+02 -0.40087279810E+02  0.28392827621E+02  0.51637330894E+02  0.00000000000E+00 0.  1.
</event>
<event>
 7    1  0.2380582E-009  0.9982641E+02  0.7561462E-02  0.1280661E+00
          2   -1    0    0  501    0  0.00000000000E+00  0.00000000000E+00  0.15766508689E+03  0.15766508689E+03  0.00000000000E+00 0.  1.
         -2   -1    0    0    0  501 -0.00000000000E+00 -0.00000000000E+00 -0.10035018441E+03  0.10035018441E+03  0.00000000000E+00 0. -1.
         25    2    1    2    0    0 -0.26881656478E+02 -0.12885477129E+02 -0.15727730277E+02  0.12954177743E+03  0.12508018078E+03 0.  0.
          5    1    3    3  502    0 -0.39864577934E+02  0.37937992837E+02  0.27295291303E+02  0.61570944460E+02  0.41800000000E+01 0.  1.
         -5    1    3    3    0  502  0.12982921456E+02 -0.50823469967E+02 -0.43023021580E+02  0.67970832972E+02  0.41800000000E+01 0.  1.
        -11    1    1    2    0    0  0.47285813348E+02  0.37152801428E+02  0.14441539014E+02  0.61845265356E+02  0.00000000000E+00 0. -1.
         11    1    1    2    0    0 -0.20404156870E+02 -0.24267324298E+02  0.58601093741E+02  0.66628228505E+02  0.00000000000E+00 0.  1.
</event>
<event>
 7    1  0.2380582E-009  0.8482654E+02  0.7561462E-02  0.1315887E+00
         -2   -1    0    0    0  501 -0.00000000000E+00  0.00000000000E+00  0.66015084364E+02  0.66015084364E+02  0.00000000000E+00 0.  1.
          2   -1    0    0  501    0  0.00000000000E+00 -0.00000000000E+00 -0.22461828128E+03  0.22461828128E+03  0.00000000000E+00 0. -1.
         25    2    1    2    0    0 -0.50074644188E+02 -0.20571056664E+02 -0.99207956637E+02  0.16858312372E+03  0.12508961819E+03 0.  0.
          5    1    3    3  502    0 -0.17930281141E+02 -0.39092786319E+02 -0.11880463131E+03  0.12641896117E+03  0.41800000000E+01 0.  1.
         -5    1    3    3    0  502 -0.32144363047E+02  0.18521729655E+02  0.19596674671E+02  0.42164162546E+02  0.41800000000E+01 0.  1.
        -11    1    1    2    0    0  0.38259554487E+02  0.46736236672E+02 -0.69071060245E+02  0.91754458699E+02  0.00000000000E+00 0. -1.
         11    1    1    2    0    0  0.11815089701E+02 -0.26165180008E+02  0.96758199626E+01  0.30295783229E+02  0.00000000000E+00 0.  1.
</event>
<event>
 7    1  0.3028154E-009  0.1145272E+03  0.7561462E-02  0.1252409E+00
          1   -1    0    0  501    0  0.00000000000E+00  0.00000000000E+00  0.35290885061E+03  0.35290885061E+03  0.00000000000E+00 0. -1.
         -1   -1    0    0    0  501 -0.00000000000E+00 -0.00000000000E+00 -0.45997178576E+02  0.45997178576E+02  0.00000000000E+00 0.  1.
         25    2    1    2    0    0  0.64194902092E+02 -0.44509298977E+00  0.14453595273E+03  0.20164143054E+03  0.12508973306E+03 0.  0.
          5    1    3    3  502    0 -0.26396545247E+01  0.44211475402E+02  0.10047077801E+03  0.10987935187E+03  0.41800000000E+01 0. -1.
         -5    1    3    3    0  502  0.66834556616E+02 -0.44656568392E+02  0.44065174715E+02  0.91762078667E+02  0.41800000000E+01 0. -1.
        -11    1    1    2    0    0 -0.54443560589E+02  0.37273547516E+02  0.64645868660E+02  0.92371570133E+02  0.00000000000E+00 0.  1.
         11    1    1    2    0    0 -0.97513415024E+01 -0.36828454526E+02  0.97729850644E+02  0.10489302851E+03  0.00000000000E+00 0. -1.
</event>
<event>
 7    1  0.2380582E-009  0.1761163E+03  0.7561462E-02  0.1171615E+00
          1   -1    0    0  501    0  0.00000000000E+00  0.00000000000E+00  0.85439141428E+03  0.85439141428E+03  0.00000000000E+00 0. -1.
         -1   -1    0    0    0  501 -0.00000000000E+00 -0.00000000000E+00 -0.40974141958E+02  0.40974141958E+02  0.00000000000E+00 0.  1.
         25    2    1    2    0    0 -0.15030682855E+03 -0.48049781140E+01  0.36832901268E+03  0.41704729734E+03  0.12508779365E+03 0.  0.
          5    1    3    3  502    0 -0.36655006316E+02 -0.58711557822E+02  0.11816017692E+03  0.13700341718E+03  0.41800000000E+01 0. -1.
         -5    1    3    3    0  502 -0.11365182223E+03  0.53906579708E+02  0.25016883576E+03  0.28004388016E+03  0.41800000000E+01 0. -1.
        -11    1    1    2    0    0  0.54422162557E+02  0.23610647519E+02  0.28222200947E+03  0.28838948851E+03  0.00000000000E+00 0. -1.
         11    1    1    2    0    0  0.95884665988E+02 -0.18805669405E+02  0.16286625017E+03  0.18992877038E+03  0.00000000000E+00 0.  1.
</event>
<event>
 7    1  0.2380582E-009  0.1086989E+03  0.7561462E-02  0.1262998E+00
         -1   -1    0    0    0  501 -0.00000000000E+00  0.00000000000E+00  0.56018334208E+02  0.56018334208E+02  0.00000000000E+00 0.  1.
          1   -1    0    0  501    0  0.00000000000E+00 -0.00000000000E+00 -0.48563825295E+03  0.48563825295E+03  0.00000000000E+00 0. -1.
         25    2    1    2    0    0 -0.10497497529E+03 -0.19221228396E+02 -0.32967014171E+03  0.36840022658E+03  0.12508846291E+03 0.  0.
          5    1    3    3  502    0 -0.10076003341E+03 -0.23211082101E+02 -0.34024487690E+03  0.35563378260E+03  0.41800000000E+01 0. -1.
         -5    1    3    3    0  502 -0.42149418849E+01  0.39898537048E+01  0.10574735194E+02  0.12766443988E+02  0.41800000000E+01 0. -1.
        -11    1    1    2    0    0  0.57048933464E+02  0.11956954252E+02 -0.10931706114E+03  0.12388611472E+03  0.00000000000E+00 0. -1.
         11    1    1    2    0    0  0.47926041829E+02  0.72642741439E+01  0.93672841054E+01  0.49370245854E+02  0.00000000000E+00 0.  1.
</event>
<event>
 7    1  0.2380582E-009  0.1388050E+03  0.7561462E-02  0.1214946E+00
         -1   -1    0    0    0  501 -0.00000000000E+00  0.00000000000E+00  0.43877035329E+02  0.43877035329E+02  0.00000000000E+00 0.  1.
          1   -1    0    0  501    0  0.00000000000E+00 -0.00000000000E+00 -0.50969853834E+03  0.50969853834E+03  0.00000000000E+00 0. -1.
         25    2    1    2    0    0 -0.92527718047E+02 -0.24742043911E+02 -0.19287799497E+03  0.24904391663E+03  0.12508958439E+03 0.  0.
          5    1    3    3  502    0  0.21697107787E+02 -0.34443010563E+02 -0.34724741389E+02  0.53669036954E+02  0.41800000000E+01 0.  1.
         -5    1    3    3    0  502 -0.11422482583E+03  0.97009666523E+01 -0.15815325358E+03  0.19537487968E+03  0.41800000000E+01 0.  1.
        -11    1    1    2    0    0  0.36949286923E+02 -0.27218272696E+02 -0.45194148539E+02  0.64409589619E+02  0.00000000000E+00 0.  1.
         11    1    1    2    0    0  0.55578431123E+02  0.51960316607E+02 -0.22774935950E+03  0.24012206742E+03  0.00000000000E+00 0. -1.
</event>
<event>
 7    1  0.2380582E-009  0.1116286E+03  0.7561462E-02  0.1257583E+00
          2   -1    0    0  501    0  0.00000000000E+00  0.00000000000E+00  0.20949275814E+03  0.20949275814E+03  0.00000000000E+00 0. -1.
         -2   -1    0    0    0  501 -0.00000000000E+00 -0.00000000000E+00 -0.11310855380E+03  0.11310855380E+03  0.00000000000E+00 0.  1.
         25    2    1    2    0    0  0.42723166613E+02 -0.42301444118E+02 -0.43033155904E+02  0.14531568256E+03  0.12510041547E+03 0.  0.
          5    1    3    3  502    0  0.71065650068E+02 -0.92400880786E+01  0.14302255427E+02  0.73196535147E+02  0.41800000000E+01 0. -1.
         -5    1    3    3    0  502 -0.28342483455E+02 -0.33061356039E+02 -0.57335411330E+02  0.72119147416E+02  0.41800000000E+01 0. -1.
        -11    1    1    2    0    0 -0.50809844481E+02  0.65649788989E+02  0.92712479324E+02  0.12444733389E+03  0.00000000000E+00 0.  1.
         11    1    1    2    0    0  0.80866778678E+01 -0.23348344871E+02  0.46704880926E+02  0.52838295482E+02  0.00000000000E+00 0. -1.
</event>
<event>
 7    1  0.2380582E-009  0.1429008E+03  0.7561462E-02  0.1209478E+00
         -1   -1    0    0    0  501 -0.00000000000E+00  0.00000000000E+00  0.38449393870E+02  0.38449393870E+02  0.00000000000E+00 0.  1.
          1   -1    0    0  501    0  0.00000000000E+00 -0.00000000000E+00 -0.61180418131E+03  0.61180418131E+03  0.00000000000E+00 0. -1.
         25    2    1    2    0    0 -0.59448067643E+02  0.70257136039E+02 -0.19277918781E+03  0.24754501121E+03  0.12507829312E+03 0.  0.
          5    1    3    3  502    0  0.14042940613E+02 -0.28542056922E+02 -0.39984583268E+02  0.51264924593E+02  0.41800000000E+01 0. -1.
         -5    1    3    3    0  502 -0.73491008256E+02  0.98799192961E+02 -0.15279460454E+03  0.19628008661E+03  0.41800000000E+01 0. -1.
        -11    1    1    2    0    0  0.40523506941E+02  0.14977275710E+02 -0.10202819868E+03  0.11079813504E+03  0.00000000000E+00 0.  1.
         11    1    1    2    0    0  0.18924560703E+02 -0.85234411749E+02 -0.27854740096E+03  0.29191042894E+03  0.00000000000E+00 0. -1.
</event>
<event>
 7    1  0.2380582E-009  0.1332239E+03  0.7561462E-02  0.1222749E+00
         -2   -1    0    0    0  501 -0.00000000000E+00  0.00000000000E+00  0.78064073696E+02  0.78064073696E+02  0.00000000000E+00 0.  1.
          2   -1    0    0  501    0  0.00000000000E+00 -0.00000000000E+00 -0.23823361290E+03  0.23823361290E+03  0.00000000000E+00 0. -1.
         25    2    1    2    0    0  0.60184259020E+02 -0.50662984801E+02 -0.72012475987E+02  0.16438497110E+03  0.12509092279E+03 0.  0.
          5    1    3    3  502    0 -0.33367298909E+02  0.50672044852E+01 -0.44255077499E+00  0.34010607889E+02  0.41800000000E+01 0. -1.
         -5    1    3    3    0  502  0.93551557929E+02 -0.55730189286E+02 -0.71569925212E+02  0.13037436321E+03  0.41800000000E+01 0. -1.
        -11    1    1    2    0    0 -0.86064647860E+02  0.44384291924E+02 -0.65065634899E+02  0.11666458685E+03  0.00000000000E+00 0. -1.
         11    1    1    2    0    0  0.25880388840E+02  0.62786928771E+01 -0.23091428314E+02  0.35248128636E+02  0.00000000000E+00 0.  1.
</event>
<event>
 7    1  0.2380582E-009  0.1398723E+03  0.7561462E-02  0.1213501E+00
          1   -1    0    0  501    0  0.00000000000E+00  0.00000000000E+00  0.57193379319E+03  0.57193379319E+03  0.00000000000E+00 0.  1.
         -1   -1    0    0    0  501 -0.00000000000E+00 -0.00000000000E+00 -0.39791432434E+02  0.39791432434E+02  0.00000000000E+00 0. -1.
         25    2    1    2    0    0 -0.82225990371E+02 -0.63078545615E+02  0.29442014764E+03  0.33625425143E+03  0.12507470512E+03 0.  0.
          5    1    3    3  502    0 -0.64059601232E+02  0.10493266054E+02  0.55297136363E+02  0.85375563438E+02  0.41800000000E+01 0.  1.
         -5    1    3    3    0  502 -0.18166389140E+02 -0.73571811669E+02  0.23912301128E+03  0.25087868800E+03  0.41800000000E+01 0.  1.
        -11    1    1    2    0    0  0.49443062561E+01  0.61298927106E+02  0.95235685634E+02  0.11336595806E+03  0.00000000000E+00 0. -1.
         11    1    1    2    0    0  0.77281684115E+02  0.17796185089E+01  0.14248652748E+03  0.16210501613E+03  0.00000000000E+00 0.  1.
</event>
<event>
 7    1  0.2380582E-009  0.7271046E+02  0.7561462E-02  0.1351111E+00
          2   -1    0    0  501    0  0.00000000000E+00  0.00000000000E+00  0.46969817040E+02  0.46969817040E+02  0.00000000000E+00 0. -1.
         -2   -1    0    0    0  501 -0.00000000000E+00 -0.00000000000E+00 -0.25306416500E+03  0.25306416500E+03  0.00000000000E+00 0.  1.
         25    2    1    2    0    0 -0.76989791982E+00 -0.15185576609E+01 -0.98017036004E+02  0.15892950807E+03  0.12509336685E+03 0.  0.
          5    1    3    3  502    0 -0.37331402527E+02 -0.35247683410E+02 -0.96027205299E+02  0.10897123179E+03  0.41800000000E+01 0.  1.
         -5    1    3    3    0  502  0.36561504607E+02  0.33729125749E+02 -0.19898307053E+01  0.49958276283E+02  0.41800000000E+01 0.  1.
        -11    1    1    2    0    0 -0.61577843951E+01 -0.20239641400E+02 -0.11524562014E+03  0.11717130346E+03  0.00000000000E+00 0.  1.
         11    1    1    2    0    0  0.69276823149E+01  0.21758199061E+02  0.71683081801E+01  0.23933170513E+02  0.00000000000E+00 0. -1.
</event>
<event>
 7    1  0.2380582E-009  0.9371271E+02  0.7561462E-02  0.1294102E+00
         -2   -1    0    0    0  501 -0.00000000000E+00  0.00000000000E+00  0.45664506641E+03  0.45664506641E+03  0.00000000000E+00 0.  1.
          2   -1    0    0  501    0  0.00000000000E+00 -0.00000000000E+00 -0.25502704656E+02  0.25502704656E+02  0.00000000000E+00 0. -1.
         25    2    1    2    0    0  0.27752615462E+01  0.13015106693E+02  0.25473250419E+03  0.28409785989E+03  0.12508337309E+03 0.  0.
          5    1    3    3  502    0 -0.37103933551E+02  0.47496467656E+02  0.19583097346E+03  0.20493867105E+03  0.41800000000E+01 0.  1.
         -5    1    3    3    0  502  0.39879195098E+02 -0.34481360963E+02  0.58901530733E+02  0.79159188842E+02  0.41800000000E+01 0.  1.
        -11    1    1    2    0    0  0.30215058510E+02 -0.24803337704E+02  0.14760948614E+03  0.15269811957E+03  0.00000000000E+00 0.  1.
         11    1    1    2    0    0 -0.32990320057E+02  0.11788231011E+02  0.28800371425E+02  0.45351791608E+02  0.00000000000E+00 0. -1.
</event>
<event>
 7    1  0.2380582E-009  0.8545272E+02  0.7561462E-02  0.1314253E+00
          2   -1    0    0  501    0  0.00000000000E+00  0.00000000000E+00  0.62947287099E+03  0.62947287099E+03  0.00000000000E+00 0. -1.
         -2   -1    0    0    0  501 -0.00000000000E+00 -0.00000000000E+00 -0.21806797256E+02  0.21806797256E+02  0.00000000000E+00 0.  1.
         25    2    1    2    0    0 -0.71865328780E+01  0.16493664667E+02  0.47547141386E+03  0.49198432289E+03  0.12510723937E+03 0.  0.
          5    1    3    3  502    0 -0.43398229614E+02 -0.34617323169E+01  0.42201311285E+03  0.42427341390E+03  0.41800000000E+01 0.  1.
         -5    1    3    3    0  502  0.36211696736E+02  0.19955396984E+02  0.53458301005E+02  0.67710908985E+02  0.41800000000E+01 0.  1.
        -11    1    1    2    0    0  0.30583909368E+02  0.23978821364E+02  0.39135884429E+02  0.55154118942E+02  0.00000000000E+00 0.  1.
         11    1    1    2    0    0 -0.23397376490E+02 -0.40472486031E+02  0.93058775451E+02  0.10414122642E+03  0.00000000000E+00 0. -1.
</event>
<event>
 7    1  0.2380582E-009  0.1121350E+03  0.7561462E-02  0.1256666E+00
          2   -1    0    0  501    0  0.00000000000E+00  0.00000000000E+00  0.86254070898E+03  0.86254070898E+03  0.00000000000E+00 0. -1.
         -2   -1    0    0    0  501 -0.00000000000E+00 -0.00000000000E+00 -0.29352405836E+02  0.29352405836E+02  0.00000000000E+00 0.  1.
         25    2    1    2    0    0 -0.55821424998E+02  0.61062047329E+02  0.67219161290E+03  0.68871992428E+03  0.12509582140E+03 0.  0.
          5    1    3    3  502    0  0.34914310415E+02  0.79955398599E+01  0.87491391948E+02  0.94631674372E+02  0.41800000000E+01 0.  1.
         -5    1    3    3    0  502 -0.90735735414E+02  0.53066507469E+02  0.58470022096E+03  0.59408824991E+03  0.41800000000E+01 0.  1.
        -11    1    1    2    0    0  0.37114054765E+02 -0.45195966690E+02  0.16781533233E+03  0.17771357357E+03  0.00000000000E+00 0. -1.
         11    1    1    2    0    0  0.18707370233E+02 -0.15866080639E+02 -0.68186420918E+01  0.25459616962E+02  0.00000000000E+00 0.  1.
</event>
<event>
 7    1  0.2380582E-009  0.3916719E+02  0.7561462E-02  0.1514431E+00
          1   -1    0    0  501    0  0.00000000000E+00  0.00000000000E+00  0.20584256210E+03  0.20584256210E+03  0.00000000000E+00 0. -1.
         -1   -1    0    0    0  501 -0.00000000000E+00 -0.00000000000E+00 -0.59543986935E+02  0.59543986935E+02  0.00000000000E+00 0.  1.
         25    2    1    2    0    0 -0.11838539525E+02  0.18171937664E+02  0.14076235935E+03  0.18955712861E+03  0.12508993909E+03 0.  0.
          5    1    3    3  502    0 -0.10844224681E+02  0.62613126948E+01 -0.22348100672E+02  0.25955948244E+02  0.41800000000E+01 0. -1.
         -5    1    3    3    0  502 -0.99431484334E+00  0.11910624969E+02  0.16311046002E+03  0.16360118037E+03  0.41800000000E+01 0. -1.
        -11    1    1    2    0    0 -0.45176285598E+01 -0.31221811743E+02 -0.23995834474E+02  0.39635975684E+02  0.00000000000E+00 0.  1.
         11    1    1    2    0    0  0.16356168085E+02  0.13049874079E+02  0.29532050285E+02  0.36193444737E+02  0.00000000000E+00 0. -1.
</event>
<event>
 7    1  0.2380582E-009  0.1103810E+03  0.7561462E-02  0.1259866E+00
         -2   -1    0    0    0  501 -0.00000000000E+00  0.00000000000E+00  0.23795504569E+02  0.23795504569E+02  0.00000000000E+00 0. -1.
          2   -1    0    0  501    0  0.00000000000E+00 -0.00000000000E+00 -0.56349337922E+03  0.56349337922E+03  0.00000000000E+00 0.  1.
         25    2    1    2    0    0 -0.15756931877E+02  0.36308847840E+01 -0.35660147956E+03  0.37825070131E+03  0.12509002196E+03 0.  0.
          5    1    3    3  502    0 -0.29242035525E+02  0.59788128271E+02 -0.16118351107E+03  0.17443426718E+03  0.41800000000E+01 0. -1.
         -5    1    3    3    0  502  0.13485103648E+02 -0.56157243487E+02 -0.19541796848E+03  0.20381643413E+03  0.41800000000E+01 0. -1.
        -11    1    1    2    0    0 -0.35071653342E+02 -0.22817372962E+02 -0.11199750863E+03  0.11955791616E+03  0.00000000000E+00 0.  1.
         11    1    1    2    0    0  0.50828585220E+02  0.19186488178E+02 -0.71098886463E+02  0.89480266318E+02  0.00000000000E+00 0. -1.
</event>
<event>
 7    1  0.2380582E-009  0.1108087E+03  0.7561462E-02  0.1259080E+00
          4   -1    0    0  501    0  0.00000000000E+00  0.00000000000E+00  0.16576095856E+03  0.16576095856E+03  0.00000000000E+00 0.  1.
         -4   -1    0    0    0  501 -0.00000000000E+00 -0.00000000000E+00 -0.11219114407E+03  0.11219114407E+03  0.00000000000E+00 0. -1.
         25    2    1    2    0    0 -0.41921442276E+02  0.33353260013E+02  0.94975313630E+02  0.16593863828E+03  0.12508186998E+03 0.  0.
          5    1    3    3  502    0 -0.45371448202E+02 -0.31260631999E+02  0.83443447724E+02  0.10008035168E+03  0.41800000000E+01 0.  1.
         -5    1    3    3    0  502  0.34500059253E+01  0.64613892012E+02  0.11531865906E+02  0.65858286594E+02  0.41800000000E+01 0.  1.
        -11    1    1    2    0    0 -0.12836229301E+02 -0.43915669017E+02 -0.31046802757E+02  0.55292483479E+02  0.00000000000E+00 0. -1.
         11    1    1    2    0    0  0.54757671578E+02  0.10562409004E+02 -0.10358696389E+02  0.56720980875E+02  0.00000000000E+00 0.  1.
</event>
<event>
 7    1  0.2380582E-009  0.5769830E+02  0.7561462E-02  0.1407753E+00
          1   -1    0    0  501    0  0.00000000000E+00  0.00000000000E+00  0.26992101709E+03  0.26992101709E+03  0.00000000000E+00 0. -1.
         -1   -1    0    0    0  501 -0.00000000000E+00 -0.00000000000E+00 -0.64437521856E+02  0.64437521856E+02  0.00000000000E+00 0.  1.
         25    2    1    2    0    0 -0.19397472758E+02  0.37561028743E+02  0.18850066595E+03  0.23014160361E+03  0.12508222824E+03 0.  0.
          5    1    3    3  502    0  0.72246041932E+01 -0.44701560548E+01 -0.16567856553E+02  0.19082543637E+02  0.41800000000E+01 0.  1.
         -5    1    3    3    0  502 -0.26622076951E+02  0.42031184798E+02  0.20506852250E+03  0.21105905997E+03  0.41800000000E+01 0.  1.
        -11    1    1    2    0    0  0.30429599636E+02 -0.26063908522E+02 -0.32905050499E+02  0.51846216929E+02  0.00000000000E+00 0.  1.
         11    1    1    2    0    0 -0.11032126879E+02 -0.11497120221E+02  0.49887879791E+02  0.52370718411E+02  0.00000000000E+00 0. -1.
</event>
<event>
 7    1  0.2380582E-009  0.9643180E+02  0.7561462E-02  0.1287983E+00
         -1   -1    0    0    0  501 -0.00000000000E+00  0.00000000000E+00  0.45974574918E+03  0.45974574918E+03  0.00000000000E+00 0.  1.
          1   -1    0    0  501    0  0.00000000000E+00 -0.00000000000E+00 -0.36353441173E+02  0.36353441173E+02  0.00000000000E+00 0. -1.
         25    2    1    2    0    0  0.46991312414E+02 -0.32151384824E+02  0.30976575951E+03  0.33888466510E+03  0.12508435349E+03 0.  0.
          5    1    3    3  502    0  0.23749350300E+02  0.47269026504E+02  0.14614640523E+03  0.15548194965E+03  0.41800000000E+01 0. -1.
         -5    1    3    3    0  502  0.23241962114E+02 -0.79420411328E+02  0.16361935429E+03  0.18340271545E+03  0.41800000000E+01 0. -1.
        -11    1    1    2    0    0 -0.13271351930E+02  0.86979809641E+01 -0.15215344344E+02  0.21983865866E+02  0.00000000000E+00 0. -1.
         11    1    1    2    0    0 -0.33719960484E+02  0.23453403860E+02  0.12884189284E+03  0.13523065939E+03  0.00000000000E+00 0.  1.
</event>
<event>
 7    1  0.2380582E-009  0.1238377E+03  0.7561462E-02  0.1236897E+00
         -2   -1    0    0    0  501 -0.00000000000E+00  0.00000000000E+00  0.40770618354E+02  0.40770618354E+02  0.00000000000E+00 0.  1.
          2   -1    0    0  501    0  0.00000000000E+00 -0.00000000000E+00 -0.46334786028E+03  0.46334786028E+03  0.00000000000E+00 0. -1.
         25    2    1    2    0    0 -0.69033183200E+02  0.38368587156E+02 -0.28074136463E+03  0.31733116832E+03  0.12508248362E+03 0.  0.
          5    1    3    3  502    0  0.34052241699E+02 -0.16329683831E+01 -0.96317103577E+02  0.10225790234E+03  0.41800000000E+01 0. -1.
         -5    1    3    3    0  502 -0.10308542490E+03  0.40001555539E+02 -0.18442426105E+03  0.21507326597E+03  0.41800000000E+01 0. -1.
        -11    1    1    2    0    0  0.10585394696E+02 -0.42771439823E+02 -0.11336154047E+03  0.12162354009E+03  0.00000000000E+00 0. -1.
         11    1    1    2    0    0  0.58447788504E+02  0.44028526675E+01 -0.28474336823E+02  0.65163770227E+02  0.00000000000E+00 0.  1.
</event>
<event>
 7    1  0.2380582E-009  0.1158967E+03  0.7561462E-02  0.1250024E+00
         -2   -1    0    0    0  501 -0.00000000000E+00  0.00000000000E+00  0.59664765213E+02  0.59664765213E+02  0.00000000000E+00 0.  1.
          2   -1    0    0  501    0  0.00000000000E+00 -0.00000000000E+00 -0.33740546920E+03  0.33740546920E+03  0.00000000000E+00 0. -1.
         25    2    1    2    0    0 -0.47787511287E+02  0.33669963629E+02 -0.54899576819E+02  0.14858938115E+03  0.12509007942E+03 0.  0.
          5    1    3    3  502    0 -0.41611818900E+01  0.74434897845E+02 -0.13669681674E+02  0.75909169729E+02  0.41800000000E+01 0. -1.
         -5    1    3    3    0  502 -0.43626329397E+02 -0.40764934215E+02 -0.41229895145E+02  0.72680211418E+02  0.41800000000E+01 0. -1.
        -11    1    1    2    0    0  0.16143047493E+02 -0.56169568466E+02 -0.72060353697E+02  0.92780994708E+02  0.00000000000E+00 0.  1.
         11    1    1    2    0    0  0.31644463794E+02  0.22499604836E+02 -0.15078077348E+03  0.15569985856E+03  0.00000000000E+00 0. -1.
</event>
<event>
 7    1  0.2380582E-009  0.1353524E+03  0.7561462E-02  0.1219723E+00
         -1   -1    0    0    0  501 -0.00000000000E+00  0.00000000000E+00  0.11817663460E+04  0.11817663460E+04  0.00000000000E+00 0.  1.
          1   -1    0    0  501    0  0.00000000000E+00 -0.00000000000E+00 -0.22309598934E+02  0.22309598934E+02  0.00000000000E+00 0. -1.
         25    2    1    2    0    0 -0.52068653070E+02 -0.10847237832E+03  0.54192570418E+03  0.56904179507E+03  0.12509074382E+03 0.  0.
          5    1    3    3  502    0 -0.63948699623E+02 -0.87476126119E+02  0.21120798042E+03  0.23741902244E+03  0.41800000000E+01 0. -1.
         -5    1    3    3    0  502  0.11880046553E+02 -0.20996252198E+02  0.33071772376E+03  0.33162277262E+03  0.41800000000E+01 0. -1.
        -11    1    1    2    0    0  0.22896948299E+02 -0.25061783885E+01  0.39515742053E+02  0.45738878884E+02  0.00000000000E+00 0. -1.
         11    1    1    2    0    0  0.29171704771E+02  0.11097855671E+03  0.57801530081E+03  0.58929527096E+03  0.00000000000E+00 0.  1.
</event>
<event>
 7    1  0.2380582E-009  0.9130585E+02  0.7561462E-02  0.1299720E+00
          2   -1    0    0  501    0  0.00000000000E+00  0.00000000000E+00  0.70334716297E+02  0.70334716297E+02  0.00000000000E+00 0. -1.
         -2   -1    0    0    0  501 -0.00000000000E+00 -0.00000000000E+00 -0.18318163484E+03  0.18318163484E+03  0.00000000000E+00 0.  1.
         25    2    1    2    0    0 -0.18255124648E+01 -0.13827475467E+02 -0.86751418787E+02  0.15286128259E+03  0.12508489709E+03 0.  0.
          5    1    3    3  502    0  0.46245733303E+02 -0.47450436370E+02 -0.53764718809E+02  0.85430258978E+02  0.41800000000E+01 0. -1.
         -5    1    3    3    0  502 -0.48071245768E+02  0.33622960903E+02 -0.32986699978E+02  0.67431023609E+02  0.41800000000E+01 0. -1.
        -11    1    1    2    0    0  0.24889506214E+02 -0.75011406734E+01 -0.53169400566E+02  0.59183948732E+02  0.00000000000E+00 0.  1.
         11    1    1    2    0    0 -0.23063993749E+02  0.21328616141E+02  0.27073900807E+02  0.41471119819E+02  0.00000000000E+00 0. -1.
</event>
<event>
 7    1  0.2380582E-009  0.7074391E+02  0.7561462E-02  0.1357581E+00
         -1   -1    0    0    0  501 -0.00000000000E+00  0.00000000000E+00  0.15519676013E+03  0.15519676013E+03  0.00000000000E+00 0.  1.
          1   -1    0    0  501    0  0.00000000000E+00 -0.00000000000E+00 -0.61184665730E+02  0.61184665730E+02  0.00000000000E+00 0. -1.
         25    2    1    2    0    0 -0.12970136834E+01 -0.10089159029E+02  0.10485850973E+03  0.16353995794E+03  0.12508611996E+03 0.  0.
          5    1    3    3  502    0 -0.55725340682E+02 -0.46699744580E+01  0.91113565492E+02  0.10698727248E+03  0.41800000000E+01 0. -1.
         -5    1    3    3    0  502  0.54428326999E+02 -0.54191845711E+01  0.13744944236E+02  0.56552685465E+02  0.41800000000E+01 0. -1.
        -11    1    1    2    0    0 -0.12431411891E+02  0.11264115579E+02 -0.26889707206E+02  0.31693479692E+02  0.00000000000E+00 0. -1.
         11    1    1    2    0    0  0.13728425574E+02 -0.11749565500E+01  0.16043291876E+02  0.21147988223E+02  0.00000000000E+00 0.  1.
</event>
<event>
 7    1  0.2380582E-009  0.8064321E+02  0.7561462E-02  0.1327236E+00
         -1   -1    0    0    0  501 -0.00000000000E+00  0.00000000000E+00  0.24807535701E+03  0.24807535701E+03  0.00000000000E+00 0.  1.
          1   -1    0    0  501    0  0.00000000000E+00 -0.00000000000E+00 -0.54138161694E+02  0.54138161694E+02  0.00000000000E+00 0. -1.
         25    2    1    2    0    0  0.20630874807E+02  0.13734646502E+02  0.66082064117E+02  0.14363146782E+03  0.12509550688E+03 0.  0.
          5    1    3    3  502    0 -0.22410680592E+02  0.39863436700E+01 -0.29957051183E+02  0.37855341182E+02  0.41800000000E+01 0. -1.
         -5    1    3    3    0  502  0.43041555400E+02  0.97483028319E+01  0.96039115300E+02  0.10577612664E+03  0.41800000000E+01 0. -1.
        -11    1    1    2    0    0  0.13136928268E+02  0.33366307178E+02  0.49272299842E+02  0.60939715053E+02  0.00000000000E+00 0.  1.
         11    1    1    2    0    0 -0.33767803076E+02 -0.47100953680E+02  0.78582831360E+02  0.97642335832E+02  0.00000000000E+00 0. -1.
</event>
<event>
 7    1  0.2910339E-009  0.1063118E+03  0.7561462E-02  0.1267556E+00
          1   -1    0    0  501    0  0.00000000000E+00  0.00000000000E+00  0.93159054102E+03  0.93159054102E+03  0.00000000000E+00 0. -1.
         -1   -1    0    0    0  501 -0.00000000000E+00 -0.00000000000E+00 -0.17045147020E+02  0.17045147020E+02  0.00000000000E+00 0.  1.
         25    2    1    2    0    0  0.50646489531E+02 -0.33584865646E+02  0.58951655451E+03  0.60569793458E+03  0.12508880772E+03 0.  0.
          5    1    3    3  502    0 -0.29720554018E+01  0.29384357565E+02  0.39579057936E+02  0.49560546909E+02  0.41800000000E+01 0.  1.
         -5    1    3    3    0  502  0.53618544933E+02 -0.62969223211E+02  0.54993749657E+03  0.55613738767E+03  0.41800000000E+01 0.  1.
        -11    1    1    2    0    0 -0.30238209200E+02  0.59652328932E+02  0.14227869783E+03  0.15721315944E+03  0.00000000000E+00 0.  1.
         11    1    1    2    0    0 -0.20408280332E+02 -0.26067463286E+02  0.18275014166E+03  0.18572459403E+03  0.00000000000E+00 0. -1.
</event>
<event>
 7    1  0.2380582E-009  0.1238304E+03  0.7561462E-02  0.1236909E+00
          1   -1    0    0  501    0  0.00000000000E+00  0.00000000000E+00  0.76476412591E+02  0.76476412591E+02  0.00000000000E+00 0. -1.
         -1   -1    0    0    0  501 -0.00000000000E+00 -0.00000000000E+00 -0.27207414250E+03  0.27207414250E+03  0.00000000000E+00 0.  1.
         25    2    1    2    0    0 -0.77086904833E+02  0.74172782315E+01 -0.41421245167E+02  0.15284239042E+03  0.12509064651E+03 0.  0.
          5    1    3    3  502    0 -0.29079337119E+02  0.64828402790E+02 -0.29044515722E+02  0.76872530524E+02  0.41800000000E+01 0.  1.
         -5    1    3    3    0  502 -0.48007567714E+02 -0.57411124559E+02 -0.12376729444E+02  0.75969859896E+02  0.41800000000E+01 0.  1.
        -11    1    1    2    0    0  0.56984840220E+02  0.25919655778E+02 -0.14156205467E+03  0.15478667866E+03  0.00000000000E+00 0.  1.
         11    1    1    2    0    0  0.20102064613E+02 -0.33336934009E+02 -0.12614430075E+02  0.40921486006E+02  0.00000000000E+00 0. -1.
</event>
<event>
 7    1  0.2380582E-009  0.2780233E+03  0.7561462E-02  0.1096773E+00
          1   -1    0    0  501    0  0.00000000000E+00  0.00000000000E+00  0.54798019256E+03  0.54798019256E+03  0.00000000000E+00 0. -1.
         -1   -1    0    0    0  501 -0.00000000000E+00 -0.00000000000E+00 -0.15349455949E+03  0.15349455949E+03  0.00000000000E+00 0.  1.
         25    2    1    2    0    0  0.25633178182E+03  0.79653197022E+02  0.20959080428E+03  0.36280765954E+03  0.12510187216E+03 0.  0.
          5    1    3    3  502    0  0.98796981045E+02 -0.20259058386E+02  0.11693681070E+03  0.15447641570E+03  0.41800000000E+01 0. -1.
         -5    1    3    3    0  502  0.15753480077E+03  0.99912255408E+02  0.92653993583E+02  0.20833124385E+03  0.41800000000E+01 0. -1.
        -11    1    1    2    0    0 -0.14194577474E+03 -0.47750700411E+02  0.47608870231E+02  0.15714750040E+03  0.00000000000E+00 0.  1.
         11    1    1    2    0    0 -0.11438600707E+03 -0.31902496611E+02  0.13728595856E+03  0.18151959211E+03  0.00000000000E+00 0. -1.
</event>
<event>
 7    1  0.2380582E-009  0.1513691E+03  0.7561462E-02  0.1198801E+00
          1   -1    0    0  501    0  0.00000000000E+00  0.00000000000E+00  0.77987384124E+03  0.77987384124E+03  0.00000000000E+00 0. -1.
         -1   -1    0    0    0  501 -0.00000000000E+00 -0.00000000000E+00 -0.41227246048E+02  0.41227246048E+02  0.00000000000E+00 0.  1.
         25    2    1    2    0    0 -0.10632942133E+03 -0.94475040440E+02  0.41032725259E+03  0.45193771821E+03  0.12509103811E+03 0.  0.
          5    1    3    3  502    0  0.77204738027E+01  0.24993354648E+01  0.15979417234E+03  0.16005468536E+03  0.41800000000E+01 0. -1.
         -5    1    3    3    0  502 -0.11404989514E+03 -0.96974375905E+02  0.25053308025E+03  0.29188303284E+03  0.41800000000E+01 0. -1.
        -11    1    1    2    0    0  0.47797687908E+02  0.28496149297E+02  0.23192326859E+03  0.23850587416E+03  0.00000000000E+00 0. -1.
         11    1    1    2    0    0  0.58531733426E+02  0.65978891144E+02  0.96396074012E+02  0.13065749492E+03  0.00000000000E+00 0.  1.
</event>
<event>
 7    1  0.2380582E-009  0.1432662E+03  0.7561462E-02  0.1209000E+00
          2   -1    0    0  501    0  0.00000000000E+00  0.00000000000E+00  0.65082755730E+02  0.65082755730E+02  0.00000000000E+00 0.  1.
         -2   -1    0    0    0  501 -0.00000000000E+00 -0.00000000000E+00 -0.62316697503E+03  0.62316697503E+03  0.00000000000E+00 0. -1.
         25    2    1    2    0    0 -0.90568253206E+02  0.39756796266E+02 -0.52679390248E+03  0.55040155723E+03  0.12508735814E+03 0.  0.
          5    1    3    3  502    0 -0.20639876714E+02  0.73398619246E+02 -0.33221780718E+03  0.34088048584E+03  0.41800000000E+01 0.  1.
         -5    1    3    3    0  502 -0.69928376492E+02 -0.33641822980E+02 -0.19457609531E+03  0.20952107139E+03  0.41800000000E+01 0.  1.
        -11    1    1    2    0    0  0.47814704042E+02 -0.66593630894E+02 -0.83632554490E+01  0.82406927136E+02  0.00000000000E+00 0.  1.
         11    1    1    2    0    0  0.42753549164E+02  0.26836834628E+02 -0.22927061367E+02  0.55441246396E+02  0.00000000000E+00 0. -1.
</event>
<event>
 7    1  0.2380582E-009  0.1279207E+03  0.7561462E-02  0.1230574E+00
         -1   -1    0    0    0  501 -0.00000000000E+00  0.00000000000E+00  0.10810806603E+03  0.10810806603E+03  0.00000000000E+00 0.  1.
          1   -1    0    0  501    0  0.00000000000E+00 -0.00000000000E+00 -0.20897210781E+03  0.20897210781E+03  0.00000000000E+00 0. -1.
         25    2    1    2    0    0 -0.53325308536E+02  0.58112098705E+02 -0.88092501281E+01  0.14814132113E+03  0.12509054157E+03 0.  0.
          5    1    3    3  502    0  0.10633821807E+02  0.69151155544E+02  0.25529757658E+02  0.74593574826E+02  0.41800000000E+01 0.  1.
         -5    1    3    3    0  502 -0.63959130343E+02 -0.11039056838E+02 -0.34339007786E+02  0.73547746301E+02  0.41800000000E+01 0.  1.
        -11    1    1    2    0    0 -0.18314457182E+02 -0.44051471823E+02  0.44679830556E+01  0.47915700811E+02  0.00000000000E+00 0.  1.
         11    1    1    2    0    0  0.71639765718E+02 -0.14060626882E+02 -0.96522774704E+02  0.12102315190E+03  0.00000000000E+00 0. -1.
</event>
<event>
 7    1  0.2380582E-009  0.1046817E+03  0.7561462E-02  0.1270748E+00
         -1   -1    0    0    0  501 -0.00000000000E+00  0.00000000000E+00  0.59301872054E+02  0.59301872054E+02  0.00000000000E+00 0.  1.
          1   -1    0    0  501    0  0.00000000000E+00 -0.00000000000E+00 -0.33614912703E+03  0.33614912703E+03  0.00000000000E+00 0. -1.
         25    2    1    2    0    0 -0.86199887943E+02  0.19801898527E+02 -0.12796164926E+03  0.19960947573E+03  0.12508886142E+03 0.  0.
          5    1    3    3  502    0  0.14512873032E+02 -0.35854660813E+01 -0.86912378202E+02  0.88287671480E+02  0.41800000000E+01 0.  1.
         -5    1    3    3    0  502 -0.10071276097E+03  0.23387364608E+02 -0.41049271061E+02  0.11132180425E+03  0.41800000000E+01 0.  1.
        -11    1    1    2    0    0  0.47178592813E+02 -0.20247781365E+02 -0.14816857604E+03  0.15681109399E+03  0.00000000000E+00 0. -1.
         11    1    1    2    0    0  0.39021295130E+02  0.44588283801E+00 -0.71702966688E+00  0.39030429368E+02  0.00000000000E+00 0.  1.
</event>
<event>
 7    1  0.2380582E-009  0.1043106E+03  0.7561462E-02  0.1271484E+00
         -1   -1    0    0    0  501 -0.00000000000E+00  0.00000000000E+00  0.17719918954E+02  0.17719918954E+02  0.00000000000E+00 0.  1.
          1   -1    0    0  501    0  0.00000000000E+00 -0.00000000000E+00 -0.79696973763E+03  0.79696973763E+03  0.00000000000E+00 0. -1.
         25    2    1    2    0    0 -0.16849391451E+01 -0.25742512874E+02 -0.61703326000E+03  0.63011377276E+03  0.12509119350E+03 0.  0.
          5    1    3    3  502    0 -0.49635662194E+02 -0.46598761897E+02 -0.24198235823E+03  0.25141216691E+03  0.41800000000E+01 0.  1.
         -5    1    3    3    0  502  0.47950723048E+02  0.20856249023E+02 -0.37505090177E+03  0.37870160586E+03  0.41800000000E+01 0.  1.
        -11    1    1    2    0    0  0.40086798288E+02 -0.26830728446E+01 -0.69673954183E+02  0.80427670415E+02  0.00000000000E+00 0. -1.
         11    1    1    2    0    0 -0.38401859142E+02  0.28425585719E+02 -0.92542604494E+02  0.10414821341E+03  0.00000000000E+00 0.  1.
</event>
<event>
 7    1  0.5768383E-009  0.9202082E+02  0.7561462E-02  0.1298030E+00
         -2   -1    0    0    0  501 -0.00000000000E+00  0.00000000000E+00  0.92945850907E+01  0.92945850907E+01  0.00000000000E+00 0.  1.
          2   -1    0    0  501    0  0.00000000000E+00 -0.00000000000E+00 -0.17765784006E+04  0.17765784006E+04  0.00000000000E+00 0. -1.
         25    2    1    2    0    0  0.52601741696E+02  0.10734659628E+02 -0.12787375777E+04  0.12859622304E+04  0.12508752649E+03 0.  0.
          5    1    3    3  502    0  0.24348241647E+02  0.34747643273E+02 -0.13405068665E+03  0.14066731879E+03  0.41800000000E+01 0. -1.
         -5    1    3    3    0  502  0.28253500048E+02 -0.24012983645E+02 -0.11446868911E+04  0.11452949116E+04  0.41800000000E+01 0. -1.
        -11    1    1    2    0    0  0.24360793554E+02 -0.11920782679E+02 -0.89912877164E+02  0.93914209799E+02  0.00000000000E+00 0.  1.
         11    1    1    2    0    0 -0.76962535250E+02  0.11861230507E+01 -0.39863336060E+03  0.40599654543E+03  0.00000000000E+00 0. -1.
</event>
<event>
 7    1  0.2380582E-009  0.1521770E+03  0.7561462E-02  0.1197823E+00
          2   -1    0    0  501    0  0.00000000000E+00  0.00000000000E+00  0.21138588883E+03  0.21138588883E+03  0.00000000000E+00 0. -1.
         -2   -1    0    0    0  501 -0.00000000000E+00 -0.00000000000E+00 -0.12078936293E+03  0.12078936293E+03  0.00000000000E+00 0.  1.
         25    2    1    2    0    0  0.84051206497E+02  0.80298552329E+02  0.63993326833E+02  0.18236813004E+03  0.12510206295E+03 0.  0.
          5    1    3    3  502    0  0.27877731834E+02  0.95491540142E+02  0.72832434790E+02  0.12336060201E+03  0.41800000000E+01 0. -1.
         -5    1    3    3    0  502  0.56173474663E+02 -0.15192987813E+02 -0.88391079573E+01  0.59007528027E+02  0.41800000000E+01 0. -1.
        -11    1    1    2    0    0  0.78843643729E+01 -0.48546312620E+02  0.17140157180E+02  0.52083516190E+02  0.00000000000E+00 0.  1.
         11    1    1    2    0    0 -0.91935570870E+02 -0.31752239709E+02  0.94630418831E+01  0.97723605538E+02  0.00000000000E+00 0. -1.
</event>
<event>
 7    1  0.2380582E-009  0.1020193E+03  0.7561462E-02  0.1276106E+00
         -2   -1    0    0    0  501 -0.00000000000E+00  0.00000000000E+00  0.11393268898E+03  0.11393268898E+03  0.00000000000E+00 0.  1.
          2   -1    0    0  501    0  0.00000000000E+00 -0.00000000000E+00 -0.17222451923E+03  0.17222451923E+03  0.00000000000E+00 0. -1.
         25    2    1    2    0    0  0.67252327340E+02  0.36987770098E+02  0.12832170669E+02  0.14733222084E+03  0.12510454837E+03 0.  0.
          5    1    3    3  502    0 -0.91215217750E+01  0.19830742059E+02  0.54284714316E+02  0.58658018194E+02  0.41800000000E+01 0.  1.
         -5    1    3    3    0  502  0.76373849115E+02  0.17157028038E+02 -0.41452543647E+02  0.88674202644E+02  0.41800000000E+01 0.  1.
        -11    1    1    2    0    0 -0.32737632661E+02  0.18853501626E+02  0.52204838349E+01  0.38137390672E+02  0.00000000000E+00 0.  1.
         11    1    1    2    0    0 -0.34514694679E+02 -0.55841271724E+02 -0.76344484758E+02  0.10068759670E+03  0.00000000000E+00 0. -1.
</event>
<event>
 7    1  0.2380582E-009  0.9687399E+02  0.7561462E-02  0.1287010E+00
          1   -1    0    0  501    0  0.00000000000E+00  0.00000000000E+00  0.26125270329E+03  0.26125270329E+03  0.00000000000E+00 0. -1.
         -1   -1    0    0    0  501 -0.00000000000E+00 -0.00000000000E+00 -0.57634835569E+02  0.57634835569E+02  0.00000000000E+00 0.  1.
         25    2    1    2    0    0  0.20675445767E+02  0.28102163004E+02  0.53451010003E+02  0.14043317149E+03  0.12508900656E+03 0.  0.
          5    1    3    3  502    0  0.29357811514E+02  0.60110000968E+02 -0.10910653560E+02  0.67908821772E+02  0.41800000000E+01 0.  1.
         -5    1    3    3    0  502 -0.86823657470E+01 -0.32007837964E+02  0.64361663564E+02  0.72524349723E+02  0.41800000000E+01 0.  1.
        -11    1    1    2    0    0 -0.38786770744E+02  0.18737212206E+02  0.92156039681E+02  0.10172626188E+03  0.00000000000E+00 0. -1.
         11    1    1    2    0    0  0.18111324976E+02 -0.46839375210E+02  0.58010818040E+02  0.76728105490E+02  0.00000000000E+00 0.  1.
</event>
<event>
 7    1  0.2664897E-009  0.1057493E+03  0.7561462E-02  0.1268650E+00
         -1   -1    0    0    0  501 -0.00000000000E+00  0.00000000000E+00  0.21729924341E+02  0.21729924341E+02  0.00000000000E+00 0.  1.
          1   -1    0    0  501    0  0.00000000000E+00 -0.00000000000E+00 -0.80578672823E+03  0.80578672823E+03  0.00000000000E+00 0. -1.
         25    2    1    2    0    0  0.50510841496E+02  0.21961748945E+02 -0.59545544618E+03  0.61094175617E+03  0.12509587331E+03 0.  0.
          5    1    3    3  502    0  0.50124938505E+02  0.61009391190E+02 -0.22655734224E+03  0.23995907359E+03  0.41800000000E+01 0.  1.
         -5    1    3    3    0  502  0.38590299136E+00 -0.39047642245E+02 -0.36889810393E+03  0.37098268258E+03  0.41800000000E+01 0.  1.
        -11    1    1    2    0    0 -0.52699449348E+02 -0.45434486598E+02 -0.82683413384E+02  0.10806512566E+03  0.00000000000E+00 0.  1.
         11    1    1    2    0    0  0.21886078516E+01  0.23472737653E+02 -0.10591794433E+03  0.10850977075E+03  0.00000000000E+00 0. -1.
</event>
<event>
 7    1  0.2380582E-009  0.7649097E+02  0.7561462E-02  0.1339315E+00
         -2   -1    0    0    0  501 -0.00000000000E+00  0.00000000000E+00  0.13397668891E+03  0.13397668891E+03  0.00000000000E+00 0.  1.
          2   -1    0    0  501    0  0.00000000000E+00 -0.00000000000E+00 -0.16238390301E+03  0.16238390301E+03  0.00000000000E+00 0. -1.
         25    2    1    2    0    0  0.53874458824E+02 -0.14704346317E+02  0.67150709996E+02  0.15256093371E+03  0.12508775131E+03 0.  0.
          5    1    3    3  502    0  0.33386386418E+01 -0.98619590822E+01  0.94213492293E+02  0.94879182516E+02  0.41800000000E+01 0. -1.
         -5    1    3    3    0  502  0.50535820182E+02 -0.48423872344E+01 -0.27062782296E+02  0.57681751198E+02  0.41800000000E+01 0. -1.
        -11    1    1    2    0    0 -0.65081009501E+02  0.30162137483E+02 -0.34060482732E+02  0.79406604380E+02  0.00000000000E+00 0.  1.
         11    1    1    2    0    0  0.11206550677E+02 -0.15457791167E+02 -0.61497441368E+02  0.64393053823E+02  0.00000000000E+00 0. -1.
</event>
<event>
 7    1  0.2380582E-009  0.1798965E+03  0.7561462E-02  0.1167903E+00
          1   -1    0    0  501    0  0.00000000000E+00  0.00000000000E+00  0.58222956788E+03  0.58222956788E+03  0.00000000000E+00 0. -1.
         -1   -1    0    0    0  501 -0.00000000000E+00 -0.00000000000E+00 -0.61735221748E+02  0.61735221748E+02  0.00000000000E+00 0.  1.
         25    2    1    2    0    0 -0.86194536869E+02 -0.12864954669E+03  0.31112259203E+03  0.36935875004E+03  0.12509362460E+03 0.  0.
          5    1    3    3  502    0 -0.66729183432E+02 -0.15270207630E+03  0.24630379288E+03  0.29741173281E+03  0.41800000000E+01 0.  1.
         -5    1    3    3    0  502 -0.19465353436E+02  0.24052529615E+02  0.64818799150E+02  0.71947017231E+02  0.41800000000E+01 0.  1.
        -11    1    1    2    0    0  0.86185247009E+02  0.95180216828E+02  0.10777519745E+03  0.16763849100E+03  0.00000000000E+00 0.  1.
         11    1    1    2    0    0  0.92898593351E-02  0.33469329858E+02  0.10159655665E+03  0.10696754859E+03  0.00000000000E+00 0. -1.
</event>
<event>
 7    1  0.2380582E-009  0.1567709E+03  0.7561462E-02  0.1192391E+00
          2   -1    0    0  501    0  0.00000000000E+00  0.00000000000E+00  0.33160785068E+03  0.33160785068E+03  0.00000000000E+00 0. -1.
         -2   -1    0    0    0  501 -0.00000000000E+00 -0.00000000000E+00 -0.12186559760E+03  0.12186559760E+03  0.00000000000E+00 0.  1.
         25    2    1    2    0    0 -0.15164804276E+03  0.84785435401E+01  0.19499324989E+03  0.27701827584E+03  0.12509093922E+03 0.  0.
          5    1    3    3  502    0 -0.38928656148E+02 -0.12737043470E+02  0.14692441761E+03  0.15258417164E+03  0.41800000000E+01 0.  1.
         -5    1    3    3    0  502 -0.11271938661E+03  0.21215587010E+02  0.48068832275E+02  0.12443410420E+03  0.41800000000E+01 0.  1.
        -11    1    1    2    0    0  0.13861604889E+03 -0.20184012183E+02 -0.16079275044E+02  0.14099768240E+03  0.00000000000E+00 0.  1.
         11    1    1    2    0    0  0.13031993871E+02  0.11705468643E+02  0.30828278239E+02  0.35457490035E+02  0.00000000000E+00 0. -1.
</event>
<event>
 7    1  0.2380582E-009  0.1000096E+03  0.7561462E-02  0.1280276E+00
          2   -1    0    0  501    0  0.00000000000E+00  0.00000000000E+00  0.68903550860E+03  0.68903550860E+03  0.00000000000E+00 0.  1.
         -2   -1    0    0    0  501 -0.00000000000E+00 -0.00000000000E+00 -0.24616272421E+02  0.24616272421E+02  0.00000000000E+00 0. -1.
         25    2    1    2    0    0  0.54784723043E+02  0.41938831911E+02  0.38230901767E+03  0.40812601957E+03  0.12508569606E+03 0.  0.
          5    1    3    3  502    0  0.66925465373E+02  0.55793131225E+02  0.37904945121E+03  0.38895738876E+03  0.41800000000E+01 0.  1.
         -5    1    3    3    0  502 -0.12140742331E+02 -0.13854299314E+02  0.32595664629E+01  0.19168630816E+02  0.41800000000E+01 0.  1.
        -11    1    1    2    0    0 -0.32860749561E+02  0.12540880284E+02  0.20807869464E+03  0.21103043786E+03  0.00000000000E+00 0.  1.
         11    1    1    2    0    0 -0.21923973481E+02 -0.54479712195E+02  0.74031523873E+02  0.94495323593E+02  0.00000000000E+00 0. -1.
</event>
<event>
 7    1  0.2380582E-009  0.1118763E+03  0.7561462E-02  0.1257134E+00
         -2   -1    0    0    0  501 -0.00000000000E+00  0.00000000000E+00  0.54029628856E+02  0.54029628856E+02  0.00000000000E+00 0. -1.
          2   -1    0    0  501    0  0.00000000000E+00 -0.00000000000E+00 -0.33321524886E+03  0.33321524886E+03  0.00000000000E+00 0.  1.
         25    2    1    2    0    0 -0.24459888679E+02 -0.69043171495E+02 -0.19481605668E+03  0.24283018718E+03  0.12509179901E+03 0.  0.
          5    1    3    3  502    0 -0.55740802920E+02 -0.80219248396E+02 -0.18271608259E+03  0.20723128181E+03  0.41800000000E+01 0.  1.
         -5    1    3    3    0  502  0.31280914241E+02  0.11176076901E+02 -0.12099974094E+02  0.35598905373E+02  0.41800000000E+01 0.  1.
        -11    1    1    2    0    0  0.20569626426E+02 -0.26157278206E+01 -0.67611470421E+02  0.70719604749E+02  0.00000000000E+00 0.  1.
         11    1    1    2    0    0  0.38902622530E+01  0.71658899316E+02 -0.16758092902E+02  0.73695085788E+02  0.00000000000E+00 0. -1.
</event>
<event>
 7    1  0.2380582E-009  0.1370172E+03  0.7561462E-02  0.1217400E+00
         -2   -1    0    0    0  501 -0.00000000000E+00  0.00000000000E+00  0.32131437654E+02  0.32131437654E+02  0.00000000000E+00 0.  1.
          2   -1    0    0  501    0  0.00000000000E+00 -0.00000000000E+00 -0.76170653153E+03  0.76170653153E+03  0.00000000000E+00 0. -1.
         25    2    1    2    0    0  0.97513603093E+02 -0.47203321445E+02 -0.32775669460E+03  0.36716063707E+03  0.12508167818E+03 0.  0.
          5    1    3    3  502    0  0.98830427149E+02 -0.16583055051E+02 -0.31988745150E+03  0.33524305373E+03  0.41800000000E+01 0.  1.
         -5    1    3    3    0  502 -0.13168240563E+01 -0.30620266394E+02 -0.78692431036E+01  0.31917583346E+02  0.41800000000E+01 0.  1.
        -11    1    1    2    0    0  0.15383853562E+02 -0.77676125201E+01 -0.63879017318E+02  0.66162886940E+02  0.00000000000E+00 0.  1.
         11    1    1    2    0    0 -0.11289745666E+03  0.54970933965E+02 -0.33793938195E+03  0.36051444517E+03  0.00000000000E+00 0. -1.
</event>
<event>
 7    1  0.2380582E-009  0.1245634E+03  0.7561462E-02  0.1235753E+00
         -2   -1    0    0    0  501 -0.00000000000E+00  0.00000000000E+00  0.31295551363E+02  0.31295551363E+02  0.00000000000E+00 0.  1.
          2   -1    0    0  501    0  0.00000000000E+00 -0.00000000000E+00 -0.62180466240E+03  0.62180466240E+03  0.00000000000E+00 0. -1.
         25    2    1    2    0    0  0.48826201087E+02  0.55581050595E+02 -0.21548463500E+03  0.25991298999E+03  0.12509149988E+03 0.  0.
          5    1    3    3  502    0 -0.22051830717E+02  0.56664765499E+02 -0.46645985073E+02  0.76749587689E+02  0.41800000000E+01 0.  1.
         -5    1    3    3    0  502  0.70878031804E+02 -0.10837149047E+01 -0.16883864993E+03  0.18316340230E+03  0.41800000000E+01 0.  1.
        -11    1    1    2    0    0  0.41322405092E+01 -0.63489332651E+02 -0.22821022652E+03  0.23691322939E+03  0.00000000000E+00 0. -1.
         11    1    1    2    0    0 -0.52958441596E+02  0.79082820562E+01 -0.14681424951E+03  0.15627399439E+03  0.00000000000E+00 0.  1.
</event>
<event>
 7    1  0.2380582E-009  0.1939562E+03  0.7561462E-02  0.1154941E+00
          1   -1    0    0  501    0  0.00000000000E+00  0.00000000000E+00  0.31077788288E+03  0.31077788288E+03  0.00000000000E+00 0. -1.
         -1   -1    0    0    0  501 -0.00000000000E+00 -0.00000000000E+00 -0.14499974168E+03  0.14499974168E+03  0.00000000000E+00 0.  1.
         25    2    1    2    0    0  0.17960690289E+03 -0.20983173810E+02  0.42456095949E+02  0.22393980504E+03  0.12509029959E+03 0.  0.
          5    1    3    3  502    0  0.50447893239E+02  0.34425384530E+02 -0.27245809208E+02  0.67006742584E+02  0.41800000000E+01 0.  1.
         -5    1    3    3    0  502  0.12915900965E+03 -0.55408558340E+02  0.69701905157E+02  0.15693306246E+03  0.41800000000E+01 0.  1.
        -11    1    1    2    0    0 -0.47816766698E+02  0.25562596725E+02  0.46282889995E+01  0.54417925244E+02  0.00000000000E+00 0.  1.
         11    1    1    2    0    0 -0.13179013619E+03 -0.45794229145E+01  0.11869375625E+03  0.17741989427E+03  0.00000000000E+00 0. -1.
</event>
<event>
 7    1  0.2380582E-009  0.1419290E+03  0.7561462E-02  0.1210757E+00
         -1   -1    0    0    0  501 -0.00000000000E+00  0.00000000000E+00  0.31507041753E+02  0.31507041753E+02  0.00000000000E+00 0.  1.
          1   -1    0    0  501    0  0.00000000000E+00 -0.00000000000E+00 -0.78134315507E+03  0.78134315507E+03  0.00000000000E+00 0. -1.
         25    2    1    2    0    0  0.15619113865E+02 -0.11089208242E+03 -0.35224697857E+03  0.39021308325E+03  0.12508919125E+03 0.  0.
          5    1    3    3  502    0  0.66727335230E+02 -0.82653327623E+02 -0.26078460893E+03  0.28162065707E+03  0.41800000000E+01 0.  1.
         -5    1    3    3    0  502 -0.51108221365E+02 -0.28238754797E+02 -0.91462369638E+02  0.10859242618E+03  0.41800000000E+01 0.  1.
        -11    1    1    2    0    0 -0.16019015290E+02  0.11750603008E+02 -0.93827382162E+01  0.21970919378E+02  0.00000000000E+00 0.  1.
         11    1    1    2    0    0  0.39990142434E+00  0.99141479413E+02 -0.38820639653E+03  0.40066619419E+03  0.00000000000E+00 0. -1.
</event>
<event>
 7    1  0.2380582E-009  0.1284483E+03  0.7561462E-02  0.1229776E+00
         -2   -1    0    0    0  501 -0.00000000000E+00  0.00000000000E+00  0.44425674748E+02  0.44425674748E+02  0.00000000000E+00 0.  1.
          2   -1    0    0  501    0  0.00000000000E+00 -0.00000000000E+00 -0.46187873575E+03  0.46187873575E+03  0.00000000000E+00 0. -1.
         25    2    1    2    0    0  0.56123183769E+02 -0.69816830228E+02 -0.23884550390E+03  0.28411063284E+03  0.12508986938E+03 0.  0.
          5    1    3    3  502    0  0.80291075693E+02 -0.42034563060E+02 -0.22816783152E+03  0.24554346473E+03  0.41800000000E+01 0. -1.
         -5    1    3    3    0  502 -0.24167891924E+02 -0.27782267168E+02 -0.10677672375E+02  0.38567168115E+02  0.41800000000E+01 0. -1.
        -11    1    1    2    0    0 -0.20442769928E+02  0.87099469171E+02 -0.10017270305E+03  0.13430858054E+03  0.00000000000E+00 0.  1.
         11    1    1    2    0    0 -0.35680413841E+02 -0.17282638943E+02 -0.78434854062E+02  0.87885197117E+02  0.00000000000E+00 0. -1.
</event>
<event>
 7    1  0.2380582E-009  0.1515580E+03  0.7561462E-02  0.1198571E+00
         -1   -1    0    0    0  501 -0.00000000000E+00  0.00000000000E+00  0.18678153684E+03  0.18678153684E+03  0.00000000000E+00 0.  1.
          1   -1    0    0  501    0  0.00000000000E+00 -0.00000000000E+00 -0.14738197106E+03  0.14738197106E+03  0.00000000000E+00 0. -1.
         25    2    1    2    0    0  0.12766317926E+03  0.22372922620E+02  0.21029132176E+02  0.18134379064E+03  0.12507961864E+03 0.  0.
          5    1    3    3  502    0  0.48760840383E+01 -0.21414313368E+02 -0.33254004490E+02  0.40070565596E+02  0.41800000000E+01 0.  1.
         -5    1    3    3    0  502  0.12278709522E+03  0.43787235988E+02  0.54283136666E+02  0.14127322504E+03  0.41800000000E+01 0.  1.
        -11    1    1    2    0    0 -0.39000131027E+02 -0.44275804095E+02 -0.28011238484E+01  0.59069478948E+02  0.00000000000E+00 0. -1.
         11    1    1    2    0    0 -0.88663048230E+02  0.21902881474E+02  0.21171557453E+02  0.93750238311E+02  0.00000000000E+00 0.  1.
</event>
<event>
 7    1  0.2380582E-009  0.1340022E+03  0.7561462E-02  0.1221635E+00
          4   -1    0    0  501    0  0.00000000000E+00  0.00000000000E+00  0.35588923739E+02  0.35588923739E+02  0.00000000000E+00 0. -1.
         -4   -1    0    0    0  501 -0.00000000000E+00 -0.00000000000E+00 -0.67821610016E+03  0.67821610016E+03  0.00000000000E+00 0.  1.
         25    2    1    2    0    0 -0.73392331611E+02 -0.70111024942E+02 -0.45676295226E+03  0.48433473583E+03  0.12508297894E+03 0.  0.
          5    1    3    3  502    0 -0.10096610139E+03 -0.67612987955E+02 -0.42472375307E+03  0.44178434625E+03  0.41800000000E+01 0. -1.
         -5    1    3    3    0  502  0.27573769783E+02 -0.24980369870E+01 -0.32039199189E+02  0.42550389581E+02  0.41800000000E+01 0. -1.
        -11    1    1    2    0    0  0.49634212510E+02  0.78793169128E+02 -0.18122878189E+03  0.20375423906E+03  0.00000000000E+00 0.  1.
         11    1    1    2    0    0  0.23758119101E+02 -0.86821441859E+01 -0.46354422692E+01  0.25716048995E+02  0.00000000000E+00 0. -1.
</event>
<event>
 7    1  0.2380582E-009  0.7569309E+02  0.7561462E-02  0.1341738E+00
          1   -1    0    0  501    0  0.00000000000E+00  0.00000000000E+00  0.74395391185E+03  0.74395391185E+03  0.00000000000E+00 0. -1.
         -1   -1    0    0    0  501 -0.00000000000E+00 -0.00000000000E+00 -0.18084560288E+02  0.18084560288E+02  0.00000000000E+00 0.  1.
         25    2    1    2    0    0  0.30315593262E+02  0.71089277529E+01  0.38951272888E+03  0.41028928825E+03  0.12509021562E+03 0.  0.
          5    1    3    3  502    0  0.22532834537E+02  0.21891654620E+02  0.39165504433E+03  0.39293526098E+03  0.41800000000E+01 0.  1.
         -5    1    3    3    0  502  0.77827587252E+01 -0.14782726867E+02 -0.21423154454E+01  0.17354027270E+02  0.41800000000E+01 0.  1.
        -11    1    1    2    0    0  0.10672115757E+01  0.43180500462E+02  0.12588641447E+03  0.13309051021E+03  0.00000000000E+00 0. -1.
         11    1    1    2    0    0 -0.31382804837E+02 -0.50289428215E+02  0.21047020821E+03  0.21865867367E+03  0.00000000000E+00 0.  1.
</event>
<event>
 7    1  0.2380582E-009  0.1286738E+03  0.7561462E-02  0.1229437E+00
         -2   -1    0    0    0  501 -0.00000000000E+00  0.00000000000E+00  0.10061845436E+03  0.10061845436E+03  0.00000000000E+00 0. -1.
          2   -1    0    0  501    0  0.00000000000E+00 -0.00000000000E+00 -0.21637949950E+03  0.21637949950E+03  0.00000000000E+00 0.  1.
         25    2    1    2    0    0  0.35800488003E+02 -0.90322299400E+02 -0.56256435572E+02  0.16808302601E+03  0.12508926565E+03 0.  0.
          5    1    3    3  502    0  0.81482325057E+02 -0.66756768893E+02 -0.27129687084E+02  0.10885461777E+03  0.41800000000E+01 0. -1.
         -5    1    3    3    0  502 -0.45681837054E+02 -0.23565530508E+02 -0.29126748488E+02  0.59228408237E+02  0.41800000000E+01 0. -1.
        -11    1    1    2    0    0 -0.24431663003E+01  0.39432830668E+02 -0.76186969110E+02  0.85821742340E+02  0.00000000000E+00 0.  1.
         11    1    1    2    0    0 -0.33357321703E+02  0.50889468732E+02  0.16682359541E+02  0.63093185518E+02  0.00000000000E+00 0. -1.
</event>
<event>
 7    1  0.2380582E-009  0.3379056E+03  0.7561462E-02  0.1067691E+00
          1   -1    0    0  501    0  0.00000000000E+00  0.00000000000E+00  0.12993624260E+03  0.12993624260E+03  0.00000000000E+00 0. -1.
         -1   -1    0    0    0  501 -0.00000000000E+00 -0.00000000000E+00 -0.93207950607E+03  0.93207950607E+03  0.00000000000E+00 0.  1.
         25    2    1    2    0    0 -0.74592037059E+02 -0.31568152610E+03 -0.32272013377E+03  0.47435696146E+03  0.12508974470E+03 0.  0.
          5    1    3    3  502    0 -0.10884126561E+03 -0.21515971983E+03 -0.23171399332E+03  0.33443829511E+03  0.41800000000E+01 0.  1.
         -5    1    3    3    0  502  0.34249228552E+02 -0.10052180627E+03 -0.91006140444E+02  0.13991866634E+03  0.41800000000E+01 0.  1.
        -11    1    1    2    0    0  0.72019647097E+02  0.19845399477E+03 -0.23092203911E+03  0.31288305444E+03  0.00000000000E+00 0. -1.
         11    1    1    2    0    0  0.25723899618E+01  0.11722753133E+03 -0.24850109059E+03  0.27477573277E+03  0.00000000000E+00 0.  1.
</event>
<event>
 7    1  0.2380582E-009  0.1444176E+03  0.7561462E-02  0.1207505E+00
         -2   -1    0    0    0  501 -0.00000000000E+00  0.00000000000E+00  0.46446009755E+02  0.46446009755E+02  0.00000000000E+00 0. -1.
          2   -1    0    0  501    0  0.00000000000E+00 -0.00000000000E+00 -0.83562521673E+03  0.83562521673E+03  0.00000000000E+00 0.  1.
         25    2    1    2    0    0  0.26107325367E+02 -0.12163779485E+03 -0.65308954881E+03  0.67649866674E+03  0.12508853571E+03 0.  0.
          5    1    3    3  502    0  0.41697861100E+02 -0.86597403646E+02 -0.20175399765E+03  0.22351726981E+03  0.41800000000E+01 0. -1.
         -5    1    3    3    0  502 -0.15590535733E+02 -0.35040391200E+02 -0.45133555116E+03  0.45298139693E+03  0.41800000000E+01 0. -1.
        -11    1    1    2    0    0 -0.13496158194E+02 -0.13050511133E+02 -0.15378942233E+02  0.24268786353E+02  0.00000000000E+00 0.  1.
         11    1    1    2    0    0 -0.12611167172E+02  0.13468830598E+03 -0.12071071593E+03  0.18130377339E+03  0.00000000000E+00 0. -1.
</event>
<event>
 7    1  0.2380582E-009  0.1508641E+03  0.7561462E-02  0.1199415E+00
          1   -1    0    0  501    0  0.00000000000E+00  0.00000000000E+00  0.11717660258E+04  0.11717660258E+04  0.00000000000E+00 0. -1.
         -1   -1    0    0    0  501 -0.00000000000E+00 -0.00000000000E+00 -0.20421629480E+02  0.20421629480E+02  0.00000000000E+00 0.  1.
         25    2    1    2    0    0  0.75507387644E+02 -0.74619333672E+02  0.71087951435E+03  0.72956681759E+03  0.12509455165E+03 0.  0.
          5    1    3    3  502    0 -0.11836124595E+02  0.26424668030E+02  0.16472915446E+03  0.16730667547E+03  0.41800000000E+01 0. -1.
         -5    1    3    3    0  502  0.87343512239E+02 -0.10104400170E+03  0.54615035989E+03  0.56226014212E+03  0.41800000000E+01 0. -1.
        -11    1    1    2    0    0 -0.46710779190E+02  0.93426033470E+02  0.28890634438E+03  0.30720871805E+03  0.00000000000E+00 0.  1.
         11    1    1    2    0    0 -0.28796608455E+02 -0.18806699798E+02  0.15155853756E+03  0.15541211961E+03  0.00000000000E+00 0. -1.
</event>
<event>
 7    1  0.2380582E-009  0.1291570E+03  0.7561462E-02  0.1228712E+00
         -1   -1    0    0    0  501 -0.00000000000E+00  0.00000000000E+00  0.17564722930E+03  0.17564722930E+03  0.00000000000E+00 0.  1.
          1   -1    0    0  501    0  0.00000000000E+00 -0.00000000000E+00 -0.20524165809E+03  0.20524165809E+03  0.00000000000E+00 0. -1.
         25    2    1    2    0    0  0.88968215508E+02 -0.23039925305E+02  0.10990345345E+03  0.19019077985E+03  0.12509029591E+03 0.  0.
          5    1    3    3  502    0  0.83854686946E+02  0.35921437151E+02  0.88359606924E+02  0.12707025893E+03  0.41800000000E+01 0. -1.
         -5    1    3    3    0  502  0.51135285615E+01 -0.58961362456E+02  0.21543846524E+02  0.63120520911E+02  0.41800000000E+01 0. -1.
        -11    1    1    2    0    0 -0.58351558521E+02 -0.13600045547E+02 -0.21927576539E+02  0.63801914027E+02  0.00000000000E+00 0.  1.
         11    1    1    2    0    0 -0.30616656987E+02  0.36639970852E+02 -0.11757030570E+03  0.12689619352E+03  0.00000000000E+00 0. -1.
</event>
<event>
 7    1  0.3171443E-009  0.6018428E+02  0.7561462E-02  0.1397060E+00
          2   -1    0    0  501    0  0.00000000000E+00  0.00000000000E+00  0.16657907664E+04  0.16657907664E+04  0.00000000000E+00 0. -1.
         -2   -1    0    0    0  501 -0.00000000000E+00 -0.00000000000E+00 -0.12245106005E+02  0.12245106005E+02  0.00000000000E+00 0.  1.
         25    2    1    2    0    0  0.22004367528E+02 -0.50349528302E+01  0.14236221489E+04  0.14292851349E+04  0.12508569539E+03 0.  0.
          5    1    3    3  502    0  0.28512397679E+02 -0.91440432084E+00  0.14191560352E+04  0.14194488781E+04  0.41800000000E+01 0. -1.
         -5    1    3    3    0  502 -0.65080301509E+01 -0.41205485094E+01  0.44661136798E+01  0.98362568014E+01  0.41800000000E+01 0. -1.
        -11    1    1    2    0    0 -0.41841409503E+02 -0.23523772505E+02  0.18923605602E+03  0.19522898432E+03  0.00000000000E+00 0. -1.
         11    1    1    2    0    0  0.19837041975E+02  0.28558725335E+02  0.40687455517E+02  0.53521753180E+02  0.00000000000E+00 0.  1.
</event>
<event>
 7    1  0.2380582E-009  0.1417472E+03  0.7561462E-02  0.1210997E+00
         -2   -1    0    0    0  501 -0.00000000000E+00  0.00000000000E+00  0.97016653032E+02  0.97016653032E+02  0.00000000000E+00 0.  1.
          2   -1    0    0  501    0  0.00000000000E+00 -0.00000000000E+00 -0.30261223444E+03  0.30261223444E+03  0.00000000000E+00 0. -1.
         25    2    1    2    0    0  0.37097465000E+02  0.10025410103E+03 -0.18930504714E+03  0.25082097254E+03  0.12509057801E+03 0.  0.
          5    1    3    3  502    0  0.63033723743E+02  0.11195935676E+03 -0.17876990789E+03  0.22019150815E+03  0.41800000000E+01 0.  1.
         -5    1    3    3    0  502 -0.25936258742E+02 -0.11705255731E+02 -0.10535139250E+02  0.30629464382E+02  0.41800000000E+01 0.  1.
        -11    1    1    2    0    0 -0.52328554922E+02 -0.45483079562E+02  0.29952533875E+02  0.75525773563E+02  0.00000000000E+00 0.  1.
         11    1    1    2    0    0  0.15231089922E+02 -0.54771021470E+02 -0.46243068142E+02  0.73282141373E+02  0.00000000000E+00 0. -1.
</event>
<event>
 7    1  0.2380582E-009  0.1191890E+03  0.7561462E-02  0.1244441E+00
          2   -1    0    0  501    0  0.00000000000E+00  0.00000000000E+00  0.53793646321E+03  0.53793646321E+03  0.00000000000E+00 0. -1.
         -2   -1    0    0    0  501 -0.00000000000E+00 -0.00000000000E+00 -0.48623946653E+02  0.48623946653E+02  0.00000000000E+00 0.  1.
         25    2    1    2    0    0  0.68122973776E+02 -0.19182329147E+02  0.43648448368E+03  0.45953779723E+03  0.12509029253E+03 0.  0.
          5    1    3    3  502    0 -0.90104080566E+01 -0.50305018693E+02  0.94028841030E+02  0.10710124978E+03  0.41800000000E+01 0.  1.
         -5    1    3    3    0  502  0.77133381832E+02  0.31122689546E+02  0.34245564265E+03  0.35243654745E+03  0.41800000000E+01 0.  1.
        -11    1    1    2    0    0 -0.91604926517E+01 -0.27264328341E+02  0.42411115168E+02  0.51244130544E+02  0.00000000000E+00 0. -1.
         11    1    1    2    0    0 -0.58962481124E+02  0.46446657488E+02  0.10416917705E+02  0.75778482081E+02  0.00000000000E+00 0.  1.
</event>
<event>
 7    1  0.2380582E-009  0.1595458E+03  0.7561462E-02  0.1189210E+00
         -2   -1    0    0    0  501 -0.00000000000E+00  0.00000000000E+00  0.14047629729E+02  0.14047629729E+02  0.00000000000E+00 0.  1.
          2   -1    0    0  501    0  0.00000000000E+00 -0.00000000000E+00 -0.23360572890E+04  0.23360572890E+04  0.00000000000E+00 0. -1.
         25    2    1    2    0    0  0.17007760820E+02  0.12201130179E+03 -0.17223903286E+04  0.17313146957E+04  0.12508441065E+03 0.  0.
          5    1    3    3  502    0 -0.15412553696E+02  0.13636405478E+03 -0.12320197752E+04  0.12396462807E+04  0.41800000000E+01 0. -1.
         -5    1    3    3    0  502  0.32420314516E+02 -0.14352752989E+02 -0.49037055343E+03  0.49166841508E+03  0.41800000000E+01 0. -1.
        -11    1    1    2    0    0  0.31435485950E+02 -0.40407904743E+02 -0.30492013522E+03  0.30918809390E+03  0.00000000000E+00 0. -1.
         11    1    1    2    0    0 -0.48443246770E+02 -0.81603397045E+02 -0.29469919540E+03  0.30960212909E+03  0.00000000000E+00 0.  1.
</event>
<event>
 7    1  0.2380582E-009  0.9436795E+02  0.7561462E-02  0.1292606E+00
          1   -1    0    0  501    0  0.00000000000E+00  0.00000000000E+00  0.41507698595E+03  0.41507698595E+03  0.00000000000E+00 0. -1.
         -1   -1    0    0    0  501 -0.00000000000E+00 -0.00000000000E+00 -0.44239290196E+02  0.44239290196E+02  0.00000000000E+00 0.  1.
         25    2    1    2    0    0  0.30625512214E+02  0.35079644750E+02  0.29980938492E+03  0.32817946333E+03  0.12509032492E+03 0.  0.
          5    1    3    3  502    0  0.46463592340E+02  0.59121999388E+02  0.94594123634E+02  0.12091235194E+03  0.41800000000E+01 0.  1.
         -5    1    3    3    0  502 -0.15838080127E+02 -0.24042354638E+02  0.20521526129E+03  0.20726711139E+03  0.41800000000E+01 0.  1.
        -11    1    1    2    0    0 -0.43561371715E+01 -0.52584979865E+02 -0.69951795151E+00  0.52769739092E+02  0.00000000000E+00 0.  1.
         11    1    1    2    0    0 -0.26269375042E+02  0.17505335115E+02  0.71727828786E+02  0.78367073730E+02  0.00000000000E+00 0. -1.
</event>
<event>
 7    1  0.2380582E-009  0.1377450E+03  0.7561462E-02  0.1216396E+00
          1   -1    0    0  501    0  0.00000000000E+00  0.00000000000E+00  0.11142719729E+03  0.11142719729E+03  0.00000000000E+00 0. -1.
         -1   -1    0    0    0  501 -0.00000000000E+00 -0.00000000000E+00 -0.40547420646E+03  0.40547420646E+03  0.00000000000E+00 0.  1.
         25    2    1    2    0    0  0.92133851908E+02  0.45358046163E+02 -0.33680193600E+03  0.37366999107E+03  0.12509084344E+03 0.  0.
          5    1    3    3  502    0  0.39576379698E+02 -0.29046965948E+02 -0.22019300989E+03  0.22563787374E+03  0.41800000000E+01 0. -1.
         -5    1    3    3    0  502  0.52557472210E+02  0.74405012111E+02 -0.11660892611E+03  0.14803211733E+03  0.41800000000E+01 0. -1.
        -11    1    1    2    0    0 -0.46819036195E+02  0.23665169161E+02  0.27619837313E+02  0.59286742151E+02  0.00000000000E+00 0. -1.
         11    1    1    2    0    0 -0.45314815713E+02 -0.69023215324E+02  0.15135089514E+02  0.83944670536E+02  0.00000000000E+00 0.  1.
</event>
<event>
 7    1  0.2380582E-009  0.8013814E+02  0.7561462E-02  0.1328660E+00
         -1   -1    0    0    0  501 -0.00000000000E+00  0.00000000000E+00  0.22202030858E+03  0.22202030858E+03  0.00000000000E+00 0.  1.
          1   -1    0    0  501    0  0.00000000000E+00 -0.00000000000E+00 -0.33111398247E+03  0.33111398247E+03  0.00000000000E+00 0. -1.
         25    2    1    2    0    0 -0.22299125487E+02  0.41453037271E+02  0.19280796831E+03  0.23460159910E+03  0.12508953736E+03 0.  0.
          5    1    3    3  502    0 -0.16749476250E+01  0.37336871077E+02  0.20601425927E+03  0.20941870694E+03  0.41800000000E+01 0.  1.
         -5    1    3    3    0  502 -0.20624177862E+02  0.41161661945E+01 -0.13206290960E+02  0.25182892160E+02  0.41800000000E+01 0.  1.
        -11    1    1    2    0    0 -0.25211730314E+02  0.13487088983E+02 -0.97691881634E+02  0.10179015990E+03  0.00000000000E+00 0. -1.
         11    1    1    2    0    0  0.47510855802E+02 -0.54940126254E+02 -0.20420976056E+03  0.21674253206E+03  0.00000000000E+00 0.  1.
</event>
<event>
 7    1  0.2380582E-009  0.1405066E+03  0.7561462E-02  0.1212649E+00
         -2   -1    0    0    0  501 -0.00000000000E+00  0.00000000000E+00  0.59193916623E+02  0.59193916623E+02  0.00000000000E+00 0.  1.
          2   -1    0    0  501    0  0.00000000000E+00 -0.00000000000E+00 -0.41841045423E+03  0.41841045423E+03  0.00000000000E+00 0. -1.
         25    2    1    2    0    0  0.10954866502E+03  0.39746362745E+02 -0.20025027615E+03  0.26330179266E+03  0.12508787936E+03 0.  0.
          5    1    3    3  502    0  0.12390841354E+03  0.22648483734E+01 -0.17882884632E+03  0.21761354085E+03  0.41800000000E+01 0. -1.
         -5    1    3    3    0  502 -0.14359748529E+02  0.37481514372E+02 -0.21421429827E+02  0.45688251808E+02  0.41800000000E+01 0. -1.
        -11    1    1    2    0    0 -0.77126593906E+02 -0.30556976304E+02 -0.42804327284E+02  0.93351222395E+02  0.00000000000E+00 0.  1.
         11    1    1    2    0    0 -0.32422071109E+02 -0.91893864418E+01 -0.11616193418E+03  0.12095135581E+03  0.00000000000E+00 0. -1.
</event>
<event>
 7    1  0.2380582E-009  0.2007524E+03  0.7561462E-02  0.1149106E+00
          1   -1    0    0  501    0  0.00000000000E+00  0.00000000000E+00  0.18148475024E+04  0.18148475024E+04  0.00000000000E+00 0. -1.
         -1   -1    0    0    0  501 -0.00000000000E+00 -0.00000000000E+00 -0.33664178143E+02  0.33664178143E+02  0.00000000000E+00 0.  1.
         25    2    1    2    0    0 -0.14128937466E+03 -0.13069730197E+03  0.13290209671E+04  0.13486984641E+04  0.12508534630E+03 0.  0.
          5    1    3    3  502    0 -0.15799423290E+02 -0.17577513506E+02  0.28576512341E+02  0.37318630936E+02  0.41800000000E+01 0. -1.
         -5    1    3    3    0  502 -0.12548995137E+03 -0.11311978846E+03  0.13004444548E+04  0.13113798332E+04  0.41800000000E+01 0. -1.
        -11    1    1    2    0    0  0.14638023371E+03  0.99742412743E+02  0.34036484329E+03  0.38369773034E+03  0.00000000000E+00 0.  1.
         11    1    1    2    0    0 -0.50908590493E+01  0.30954889226E+02  0.11179751381E+03  0.11611548607E+03  0.00000000000E+00 0. -1.
</event>
<event>
 7    1  0.2380582E-009  0.1615797E+03  0.7561462E-02  0.1186925E+00
          1   -1    0    0  501    0  0.00000000000E+00  0.00000000000E+00  0.44170323410E+03  0.44170323410E+03  0.00000000000E+00 0. -1.
         -1   -1    0    0    0  501 -0.00000000000E+00 -0.00000000000E+00 -0.85829975578E+02  0.85829975578E+02  0.00000000000E+00 0.  1.
         25    2    1    2    0    0  0.12311648121E+03  0.82886829383E+02  0.27140579311E+03  0.33366611013E+03  0.12507627307E+03 0.  0.
          5    1    3    3  502    0  0.83509716456E+02  0.13693653867E+02  0.22703115012E+03  0.24232623553E+03  0.41800000000E+01 0. -1.
         -5    1    3    3    0  502  0.39606764754E+02  0.69193175516E+02  0.44374642990E+02  0.91339874604E+02  0.41800000000E+01 0. -1.
        -11    1    1    2    0    0 -0.63943234474E+02 -0.75535795926E+02  0.11496861632E+02  0.99632181189E+02  0.00000000000E+00 0.  1.
         11    1    1    2    0    0 -0.59173246735E+02 -0.73510334574E+01  0.72970603775E+02  0.94234918355E+02  0.00000000000E+00 0. -1.
</event>
<event>
 7    1  0.2380582E-009  0.1171011E+03  0.7561462E-02  0.1247957E+00
          2   -1    0    0  501    0  0.00000000000E+00  0.00000000000E+00  0.47932698430E+03  0.47932698430E+03  0.00000000000E+00 0. -1.
         -2   -1    0    0    0  501 -0.00000000000E+00 -0.00000000000E+00 -0.29657587371E+02  0.29657587371E+02  0.00000000000E+00 0.  1.
         25    2    1    2    0    0 -0.83804877664E+01  0.46672806860E+02  0.27062572667E+03  0.30188417781E+03  0.12508872611E+03 0.  0.
          5    1    3    3  502    0 -0.66465993868E+02  0.22188633347E+02  0.15411990763E+03  0.16935312846E+03  0.41800000000E+01 0.  1.
         -5    1    3    3    0  502  0.58085506101E+02  0.24484173513E+02  0.11650581904E+03  0.13253104935E+03  0.41800000000E+01 0.  1.
        -11    1    1    2    0    0  0.48129908145E+02 -0.34648043369E+02  0.79021370225E+02  0.98799554248E+02  0.00000000000E+00 0.  1.
         11    1    1    2    0    0 -0.39749420379E+02 -0.12024763491E+02  0.10002230004E+03  0.10830083962E+03  0.00000000000E+00 0. -1.
</event>
<event>
 7    1  0.2380582E-009  0.1043301E+03  0.7561462E-02  0.1271445E+00
         -2   -1    0    0    0  501 -0.00000000000E+00  0.00000000000E+00  0.40868904668E+03  0.40868904668E+03  0.00000000000E+00 0.  1.
          2   -1    0    0  501    0  0.00000000000E+00 -0.00000000000E+00 -0.10144053282E+03  0.10144053282E+03  0.00000000000E+00 0. -1.
         25    2    1    2    0    0 -0.59908615120E+01  0.91781401329E+02  0.34135472363E+03  0.37500814171E+03  0.12509333697E+03 0.  0.
          5    1    3    3  502    0 -0.32438132237E+02  0.73837872827E+02  0.87329140773E+02  0.11894584951E+03  0.41800000000E+01 0. -1.
         -5    1    3    3    0  502  0.26447270725E+02  0.17943528502E+02  0.25402558285E+03  0.25606229220E+03  0.41800000000E+01 0. -1.
        -11    1    1    2    0    0 -0.87329329318E+01 -0.60150287379E+02  0.25612975806E+02  0.65957150628E+02  0.00000000000E+00 0.  1.
         11    1    1    2    0    0  0.14723794444E+02 -0.31631113950E+02 -0.59719185574E+02  0.69164287159E+02  0.00000000000E+00 0. -1.
</event>
<event>
 7    1  0.2380582E-009  0.1040580E+03  0.7561462E-02  0.1271987E+00
         -2   -1    0    0    0  501 -0.00000000000E+00  0.00000000000E+00  0.47707294096E+03  0.47707294096E+03  0.00000000000E+00 0. -1.
          2   -1    0    0  501    0  0.00000000000E+00 -0.00000000000E+00 -0.49216617541E+02  0.49216617541E+02  0.00000000000E+00 0.  1.
         25    2    1    2    0    0  0.63933481470E+02  0.17243784757E+02  0.34888806807E+03  0.37650331601E+03  0.12508806801E+03 0.  0.
          5    1    3    3  502    0 -0.14598092072E+02 -0.94161276986E+01  0.23435493029E+03  0.23503504739E+03  0.41800000000E+01 0. -1.
         -5    1    3    3    0  502  0.78531573542E+02  0.26659912456E+02  0.11453313778E+03  0.14146826861E+03  0.41800000000E+01 0. -1.
        -11    1    1    2    0    0 -0.44443074251E+02 -0.51359749888E+02  0.76337797521E+01  0.68346802052E+02  0.00000000000E+00 0.  1.
         11    1    1    2    0    0 -0.19490407219E+02  0.34115965131E+02  0.71334475600E+02  0.81439440442E+02  0.00000000000E+00 0. -1.
</event>
<event>
 7    1  0.2380582E-009  0.1899788E+03  0.7561462E-02  0.1158480E+00
          2   -1    0    0  501    0  0.00000000000E+00  0.00000000000E+00  0.34115752576E+03  0.34115752576E+03  0.00000000000E+00 0. -1.
         -2   -1    0    0    0  501 -0.00000000000E+00 -0.00000000000E+00 -0.13315516835E+03  0.13315516835E+03  0.00000000000E+00 0.  1.
         25    2    1    2    0    0  0.85707908951E+02  0.13721844025E+03  0.13067857023E+02  0.20492316884E+03  0.12509192715E+03 0.  0.
          5    1    3    3  502    0  0.95298585262E+02  0.40471433769E+02  0.25796007389E+02  0.10678325572E+03  0.41800000000E+01 0.  1.
         -5    1    3    3    0  502 -0.95906763110E+01  0.96747006484E+02 -0.12728150366E+02  0.98139913121E+02  0.41800000000E+01 0.  1.
        -11    1    1    2    0    0 -0.37029897581E+01 -0.77481886694E+02  0.49340365399E+02  0.91932728430E+02  0.00000000000E+00 0.  1.
         11    1    1    2    0    0 -0.82004919193E+02 -0.59736553559E+02  0.14559413499E+03  0.17745679684E+03  0.00000000000E+00 0. -1.
</event>
<event>
 7    1  0.2380582E-009  0.1109840E+03  0.7561462E-02  0.1258758E+00
         -2   -1    0    0    0  501 -0.00000000000E+00  0.00000000000E+00  0.18788484718E+02  0.18788484718E+02  0.00000000000E+00 0.  1.
          2   -1    0    0  501    0  0.00000000000E+00 -0.00000000000E+00 -0.74546002489E+03  0.74546002489E+03  0.00000000000E+00 0. -1.
         25    2    1    2    0    0 -0.37898211803E+02 -0.90977260425E+01 -0.49132592521E+03  0.50849533990E+03  0.12508917955E+03 0.  0.
          5    1    3    3  502    0  0.41096349604E+02  0.11511866435E+02 -0.25126396164E+03  0.25489700633E+03  0.41800000000E+01 0.  1.
         -5    1    3    3    0  502 -0.78994561408E+02 -0.20609592477E+02 -0.24006196357E+03  0.25359833356E+03  0.41800000000E+01 0.  1.
        -11    1    1    2    0    0 -0.29415723669E+02  0.13997144196E-01 -0.46083352960E+02  0.54671385705E+02  0.00000000000E+00 0.  1.
         11    1    1    2    0    0  0.67313935472E+02  0.90837288983E+01 -0.18926226200E+03  0.20108178400E+03  0.00000000000E+00 0. -1.
</event>
<event>
 7    1  0.2839509E-009  0.1024693E+03  0.7561462E-02  0.1275187E+00
          2   -1    0    0  501    0  0.00000000000E+00  0.00000000000E+00  0.37202875843E+02  0.37202875843E+02  0.00000000000E+00 0. -1.
         -2   -1    0    0    0  501 -0.00000000000E+00 -0.00000000000E+00 -0.42352219025E+03  0.42352219025E+03  0.00000000000E+00 0.  1.
         25    2    1    2    0    0  0.25352402505E+02 -0.24059156888E+02 -0.11904060702E+03  0.17617868690E+03  0.12508667497E+03 0.  0.
          5    1    3    3  502    0  0.51681606793E+02 -0.56469628789E+02 -0.39487999013E+02  0.86235618640E+02  0.41800000000E+01 0.  1.
         -5    1    3    3    0  502 -0.26329204287E+02  0.32410471901E+02 -0.79552608010E+02  0.89943068263E+02  0.41800000000E+01 0.  1.
        -11    1    1    2    0    0 -0.50411660606E+02 -0.16086366023E+01 -0.21698897152E+03  0.22277373498E+03  0.00000000000E+00 0.  1.
         11    1    1    2    0    0  0.25059258101E+02  0.25667793490E+02 -0.50289735865E+02  0.61772644209E+02  0.00000000000E+00 0. -1.
</event>
<event>
 7    1  0.2442516E-009  0.1399851E+03  0.7561462E-02  0.1213349E+00
          1   -1    0    0  501    0  0.00000000000E+00  0.00000000000E+00  0.12280456890E+03  0.12280456890E+03  0.00000000000E+00 0. -1.
         -1   -1    0    0    0  501 -0.00000000000E+00 -0.00000000000E+00 -0.18146717579E+03  0.18146717579E+03  0.00000000000E+00 0.  1.
         25    2    1    2    0    0  0.92740511833E+01  0.91725581917E+02 -0.76708065877E+02  0.17328812865E+03  0.12508020530E+03 0.  0.
          5    1    3    3  502    0  0.40509301195E+02 -0.11491635580E+02 -0.26437212012E+01  0.42397203132E+02  0.41800000000E+01 0. -1.
         -5    1    3    3    0  502 -0.31235250012E+02  0.10321721750E+03 -0.74064344676E+02  0.13089092552E+03  0.41800000000E+01 0. -1.
        -11    1    1    2    0    0  0.26014384904E+02 -0.90779579933E+02  0.13098484614E+02  0.95337561611E+02  0.00000000000E+00 0.  1.
         11    1    1    2    0    0 -0.35288436087E+02 -0.94600198457E+00  0.49469743729E+01  0.35646054433E+02  0.00000000000E+00 0. -1.
</event>
<event>
 7    1  0.2380582E-009  0.1028205E+03  0.7561462E-02  0.1274474E+00
          1   -1    0    0  501    0  0.00000000000E+00  0.00000000000E+00  0.12894871491E+03  0.12894871491E+03  0.00000000000E+00 0. -1.
         -1   -1    0    0    0  501 -0.00000000000E+00 -0.00000000000E+00 -0.14115969970E+03  0.14115969970E+03  0.00000000000E+00 0.  1.
         25    2    1    2    0    0  0.61467662551E+02 -0.25467114387E+02  0.36061844881E+02  0.14620036215E+03  0.12508893549E+03 0.  0.
          5    1    3    3  502    0  0.96332813847E+01  0.28266195686E+02 -0.32794479370E+02  0.44550288506E+02  0.41800000000E+01 0.  1.
         -5    1    3    3    0  502  0.51834381166E+02 -0.53733310073E+02  0.68856324251E+02  0.10165007364E+03  0.41800000000E+01 0.  1.
        -11    1    1    2    0    0 -0.65625993517E+02 -0.87811739835E+01 -0.20666916178E+01  0.66243122329E+02  0.00000000000E+00 0. -1.
         11    1    1    2    0    0  0.41583309661E+01  0.34248288371E+02 -0.46206138059E+02  0.57664930132E+02  0.00000000000E+00 0.  1.
</event>
<event>
 7    1  0.2380582E-009  0.1351263E+03  0.7561462E-02  0.1220042E+00
         -1   -1    0    0    0  501 -0.00000000000E+00  0.00000000000E+00  0.30016387221E+02  0.30016387221E+02  0.00000000000E+00 0.  1.
          1   -1    0    0  501    0  0.00000000000E+00 -0.00000000000E+00 -0.72705788935E+03  0.72705788935E+03  0.00000000000E+00 0. -1.
         25    2    1    2    0    0  0.21265086831E+02  0.98051253681E+02 -0.45141829872E+03  0.47905638508E+03  0.12510110872E+03 0.  0.
          5    1    3    3  502    0  0.22804901747E+02 -0.17887012131E+02 -0.20031522470E+03  0.20244424021E+03  0.41800000000E+01 0. -1.
         -5    1    3    3    0  502 -0.15398149161E+01  0.11593826581E+03 -0.25110307401E+03  0.27661214487E+03  0.41800000000E+01 0. -1.
        -11    1    1    2    0    0  0.20195554484E+02 -0.74657495662E+02 -0.18791379043E+03  0.20320727033E+03  0.00000000000E+00 0. -1.
         11    1    1    2    0    0 -0.41460641315E+02 -0.23393758020E+02 -0.57709412980E+02  0.74810621165E+02  0.00000000000E+00 0.  1.
</event>
<event>
 7    1  0.2509183E-009  0.6237135E+02  0.7561462E-02  0.1388141E+00
         -3   -1    0    0    0  501 -0.00000000000E+00  0.00000000000E+00  0.32244035381E+02  0.32244035381E+02  0.00000000000E+00 0.  1.
          3   -1    0    0  501    0  0.00000000000E+00 -0.00000000000E+00 -0.44346711197E+03  0.44346711197E+03  0.00000000000E+00 0. -1.
         25    2    1    2    0    0  0.41745243687E+02 -0.27522818708E+01 -0.17820108707E+03  0.22170629636E+03  0.12509122266E+03 0.  0.
          5    1    3    3  502    0 -0.73188942292E+01 -0.13437291840E+02 -0.16990055082E+03  0.17063937586E+03  0.41800000000E+01 0. -1.
         -5    1    3    3    0  502  0.49064137916E+02  0.10685009969E+02 -0.83005362521E+01  0.51066920502E+02  0.41800000000E+01 0. -1.
        -11    1    1    2    0    0 -0.46267556518E+02 -0.78847148337E+01 -0.23713601117E+03  0.24173610262E+03  0.00000000000E+00 0. -1.
         11    1    1    2    0    0  0.45223128304E+01  0.10636996704E+02  0.41140216616E+01  0.12268748366E+02  0.00000000000E+00 0.  1.
</event>
<event>
 7    1  0.2380582E-009  0.7986474E+02  0.7561462E-02  0.1329436E+00
          1   -1    0    0  501    0  0.00000000000E+00  0.00000000000E+00  0.19000943444E+03  0.19000943444E+03  0.00000000000E+00 0. -1.
         -1   -1    0    0    0  501 -0.00000000000E+00 -0.00000000000E+00 -0.71340457391E+02  0.71340457391E+02  0.00000000000E+00 0.  1.
         25    2    1    2    0    0  0.32406699596E+02 -0.28378001258E+00  0.37327585030E+02  0.13449768419E+03  0.12508398674E+03 0.  0.
          5    1    3    3  502    0  0.27271538889E+02  0.38764730634E+02 -0.30097462779E+02  0.56300717937E+02  0.41800000000E+01 0.  1.
         -5    1    3    3    0  502  0.51351607065E+01 -0.39048510646E+02  0.67425047809E+02  0.78196966253E+02  0.41800000000E+01 0.  1.
        -11    1    1    2    0    0 -0.51961303376E+02  0.56442058685E+01  0.10690059455E+02  0.53348959498E+02  0.00000000000E+00 0.  1.
         11    1    1    2    0    0  0.19554603780E+02 -0.53604258559E+01  0.70651332569E+02  0.73503248147E+02  0.00000000000E+00 0. -1.
</event>
<event>
 7    1  0.2380582E-009  0.1262106E+03  0.7561462E-02  0.1233189E+00
         -2   -1    0    0    0  501 -0.00000000000E+00  0.00000000000E+00  0.57316371671E+02  0.57316371671E+02  0.00000000000E+00 0.  1.
          2   -1    0    0  501    0  0.00000000000E+00 -0.00000000000E+00 -0.35360412078E+03  0.35360412078E+03  0.00000000000E+00 0. -1.
         25    2    1    2    0    0  0.50758258486E+02  0.73688127508E+02 -0.19305226654E+03  0.24682524167E+03  0.12508869400E+03 0.  0.
          5    1    3    3  502    0 -0.24027369214E+02 -0.21495504671E+02 -0.36273530739E+02  0.48709471611E+02  0.41800000000E+01 0.  1.
         -5    1    3    3    0  502  0.74785627700E+02  0.95183632178E+02 -0.15677873580E+03  0.19811577006E+03  0.41800000000E+01 0.  1.
        -11    1    1    2    0    0 -0.27020971662E+02 -0.68682197247E+01  0.10726711010E+02  0.29872523844E+02  0.00000000000E+00 0.  1.
         11    1    1    2    0    0 -0.23737286824E+02 -0.66819907783E+02 -0.11396219357E+03  0.13422272693E+03  0.00000000000E+00 0. -1.
</event>
<event>
 7    1  0.2380582E-009  0.1067575E+03  0.7561462E-02  0.1266695E+00
         -1   -1    0    0    0  501 -0.00000000000E+00  0.00000000000E+00  0.19047506177E+03  0.19047506177E+03  0.00000000000E+00 0.  1.
          1   -1    0    0  501    0  0.00000000000E+00 -0.00000000000E+00 -0.11156766428E+03  0.11156766428E+03  0.00000000000E+00 0. -1.
         25    2    1    2    0    0  0.75985752097E+02 -0.21650408277E+02 -0.12408335049E+02  0.14847587804E+03  0.12509414407E+03 0.  0.
          5    1    3    3  502    0  0.95211624806E+02 -0.25742197568E+01  0.28257809346E+02  0.99437700570E+02  0.41800000000E+01 0.  1.
         -5    1    3    3    0  502 -0.19225872709E+02 -0.19076188520E+02 -0.40666144394E+02  0.49038177472E+02  0.41800000000E+01 0.  1.
        -11    1    1    2    0    0 -0.36924742895E+02 -0.12402446750E+02 -0.96054662584E+01  0.40118852243E+02  0.00000000000E+00 0. -1.
         11    1    1    2    0    0 -0.39061009202E+02  0.34052855027E+02  0.10092119880E+03  0.11344799576E+03  0.00000000000E+00 0.  1.
</event>
<event>
 7    1  0.2380582E-009  0.2314665E+03  0.7561462E-02  0.1125612E+00
         -1   -1    0    0    0  501 -0.00000000000E+00  0.00000000000E+00  0.60795787820E+03  0.60795787820E+03  0.00000000000E+00 0.  1.
          1   -1    0    0  501    0  0.00000000000E+00 -0.00000000000E+00 -0.96500675810E+02  0.96500675810E+02  0.00000000000E+00 0. -1.
         25    2    1    2    0    0  0.92655162788E+02 -0.19179944709E+03  0.31919367875E+03  0.40361368005E+03  0.12508953223E+03 0.  0.
          5    1    3    3  502    0  0.10450987881E+03 -0.19242079288E+03  0.32319211753E+03  0.39040836766E+03  0.41800000000E+01 0. -1.
         -5    1    3    3    0  502 -0.11854716026E+02  0.62134579059E+00 -0.39984387841E+01  0.13205312391E+02  0.41800000000E+01 0. -1.
        -11    1    1    2    0    0 -0.97887577435E+02  0.10195069577E+03  0.12065377535E+03  0.18583125595E+03  0.00000000000E+00 0. -1.
         11    1    1    2    0    0  0.52324146464E+01  0.89848751321E+02  0.71609748294E+02  0.11501361801E+03  0.00000000000E+00 0.  1.
</event>
<event>
 7    1  0.2380582E-009  0.1211807E+03  0.7561462E-02  0.1241162E+00
          2   -1    0    0  501    0  0.00000000000E+00  0.00000000000E+00  0.21155750902E+03  0.21155750902E+03  0.00000000000E+00 0. -1.
         -2   -1    0    0    0  501 -0.00000000000E+00 -0.00000000000E+00 -0.15029768727E+03  0.15029768727E+03  0.00000000000E+00 0.  1.
         25    2    1    2    0    0 -0.56794108579E+02  0.70459823609E+02  0.14247733854E+03  0.21007943388E+03  0.12507365441E+03 0.  0.
          5    1    3    3  502    0  0.16526932381E+02  0.35935611849E+02 -0.66269230076E+01  0.40322403220E+02  0.41800000000E+01 0. -1.
         -5    1    3    3    0  502 -0.73321040960E+02  0.34524211760E+02  0.14910426155E+03  0.16975703066E+03  0.41800000000E+01 0. -1.
        -11    1    1    2    0    0  0.37931275435E+02  0.96474743160E+01 -0.50591747695E+02  0.63963898815E+02  0.00000000000E+00 0.  1.
         11    1    1    2    0    0  0.18862833145E+02 -0.80107297925E+02 -0.30625769101E+02  0.87811863595E+02  0.00000000000E+00 0. -1.
</event>
<event>
 7    1  0.2380582E-009  0.8609046E+02  0.7561462E-02  0.1312605E+00
          2   -1    0    0  501    0  0.00000000000E+00  0.00000000000E+00  0.37899283854E+02  0.37899283854E+02  0.00000000000E+00 0.  1.
         -2   -1    0    0    0  501 -0.00000000000E+00 -0.00000000000E+00 -0.25493881961E+03  0.25493881961E+03  0.00000000000E+00 0. -1.
         25    2    1    2    0    0  0.25903028409E+02  0.57763515335E+01 -0.14634959939E+03  0.19434589801E+03  0.12509112563E+03 0.  0.
          5    1    3    3  502    0  0.15892999117E+02  0.55434412868E+02 -0.25404415060E+02  0.63153925100E+02  0.41800000000E+01 0. -1.
         -5    1    3    3    0  502  0.10010029292E+02 -0.49658061335E+02 -0.12094518433E+03  0.13119197291E+03  0.41800000000E+01 0. -1.
        -11    1    1    2    0    0  0.67067814748E+01 -0.24860445394E+02 -0.47859566126E+02  0.54346671773E+02  0.00000000000E+00 0. -1.
         11    1    1    2    0    0 -0.32609809884E+02  0.19084093861E+02 -0.22830370238E+02  0.44145533685E+02  0.00000000000E+00 0.  1.
</event>
<event>
 7    1  0.2380582E-009  0.1457343E+03  0.7561462E-02  0.1205815E+00
         -4   -1    0    0    0  501 -0.00000000000E+00  0.00000000000E+00  0.56157427368E+02  0.56157427368E+02  0.00000000000E+00 0. -1.
          4   -1    0    0  501    0  0.00000000000E+00 -0.00000000000E+00 -0.40426491357E+03  0.40426491357E+03  0.00000000000E+00 0.  1.
         25    2    1    2    0    0 -0.66903513360E+02  0.76624163985E+02 -0.15486664573E+03  0.22355487531E+03  0.12508301927E+03 0.  0.
          5    1    3    3  502    0  0.23886115675E+02  0.64986862256E+02 -0.60814270994E+02  0.92247963362E+02  0.41800000000E+01 0. -1.
         -5    1    3    3    0  502 -0.90789629035E+02  0.11637301729E+02 -0.94052374732E+02  0.13130691195E+03  0.41800000000E+01 0. -1.
        -11    1    1    2    0    0  0.49847391491E+02  0.21342881405E+01 -0.40853745394E+02  0.64485239683E+02  0.00000000000E+00 0. -1.
         11    1    1    2    0    0  0.17056121869E+02 -0.78758452126E+02 -0.15238709508E+03  0.17238222594E+03  0.00000000000E+00 0.  1.
</event>
<event>
 7    1  0.2380582E-009  0.1160893E+03  0.7561462E-02  0.1249692E+00
         -4   -1    0    0    0  501 -0.00000000000E+00  0.00000000000E+00  0.15405834106E+03  0.15405834106E+03  0.00000000000E+00 0.  1.
          4   -1    0    0  501    0  0.00000000000E+00 -0.00000000000E+00 -0.11426217631E+03  0.11426217631E+03  0.00000000000E+00 0. -1.
         25    2    1    2    0    0 -0.46540934691E+02  0.40663574192E+02  0.64160594009E+02  0.15356897102E+03  0.12508901698E+03 0.  0.
          5    1    3    3  502    0 -0.23361431522E+02 -0.41304519173E+02  0.13599391986E+01  0.47656496110E+02  0.41800000000E+01 0. -1.
         -5    1    3    3    0  502 -0.23179503169E+02  0.81968093365E+02  0.62800654810E+02  0.10591247491E+03  0.41800000000E+01 0. -1.
        -11    1    1    2    0    0  0.13850780371E+02 -0.59795982832E+02 -0.40546417066E+02  0.73562324709E+02  0.00000000000E+00 0. -1.
         11    1    1    2    0    0  0.32690154320E+02  0.19132408640E+02  0.16181987807E+02  0.41189221639E+02  0.00000000000E+00 0.  1.
</event>
<event>
 7    1  0.2380582E-009  0.1767739E+03  0.7561462E-02  0.1170962E+00
         -1   -1    0    0    0  501 -0.00000000000E+00  0.00000000000E+00  0.34715658018E+02  0.34715658018E+02  0.00000000000E+00 0.  1.
          1   -1    0    0  501    0  0.00000000000E+00 -0.00000000000E+00 -0.10846209395E+04  0.10846209395E+04  0.00000000000E+00 0. -1.
         25    2    1    2    0    0 -0.14229519733E+03 -0.31388749486E+02 -0.74367788368E+03  0.76807369050E+03  0.12508885880E+03 0.  0.
          5    1    3    3  502    0 -0.10297409400E+03 -0.78109941991E+02 -0.45758577943E+03  0.47550714507E+03  0.41800000000E+01 0. -1.
         -5    1    3    3    0  502 -0.39321103327E+02  0.46721192505E+02 -0.28609210425E+03  0.29256654544E+03  0.41800000000E+01 0. -1.
        -11    1    1    2    0    0  0.91016568983E+02 -0.16918046606E+02 -0.11601851956E+03  0.14842686082E+03  0.00000000000E+00 0.  1.
         11    1    1    2    0    0  0.51278628347E+02  0.48306796092E+02 -0.19020887819E+03  0.20283604615E+03  0.00000000000E+00 0. -1.
</event>
<event>
 7    1  0.2380582E-009  0.1142569E+03  0.7561462E-02  0.1252884E+00
         -2   -1    0    0    0  501 -0.00000000000E+00  0.00000000000E+00  0.79756482064E+02  0.79756482064E+02  0.00000000000E+00 0.  1.
          2   -1    0    0  501    0  0.00000000000E+00 -0.00000000000E+00 -0.21327050033E+03  0.21327050033E+03  0.00000000000E+00 0. -1.
         25    2    1    2    0    0 -0.50346196965E+02  0.53179423830E+02 -0.10561183260E+03  0.17934412346E+03  0.12509062622E+03 0.  0.
          5    1    3    3  502    0 -0.18512661766E+02 -0.26417815222E+02 -0.85090786859E+02  0.91096289799E+02  0.41800000000E+01 0. -1.
         -5    1    3    3    0  502 -0.31833535199E+02  0.79597239052E+02 -0.20521045742E+02  0.88247833663E+02  0.41800000000E+01 0. -1.
        -11    1    1    2    0    0  0.44926164712E+02 -0.75135013830E+02 -0.20801850888E+02  0.89979706486E+02  0.00000000000E+00 0.  1.
         11    1    1    2    0    0  0.54200322533E+01  0.21955590000E+02 -0.71003347749E+01  0.23703152444E+02  0.00000000000E+00 0. -1.
</event>
<event>
 7    1  0.2380582E-009  0.1165849E+03  0.7561462E-02  0.1248840E+00
         -2   -1    0    0    0  501 -0.00000000000E+00  0.00000000000E+00  0.35538463849E+03  0.35538463849E+03  0.00000000000E+00 0.  1.
          2   -1    0    0  501    0  0.00000000000E+00 -0.00000000000E+00 -0.56750946836E+02  0.56750946836E+02  0.00000000000E+00 0. -1.
         25    2    1    2    0    0 -0.26043802293E+02  0.85949927325E+02  0.16601697190E+03  0.22643852333E+03  0.12508836974E+03 0.  0.
          5    1    3    3  502    0 -0.45277022076E+02  0.13473832044E+02  0.13860088372E+03  0.14648969331E+03  0.41800000000E+01 0. -1.
         -5    1    3    3    0  502  0.19233219782E+02  0.72476095281E+02  0.27416088180E+02  0.79948830020E+02  0.41800000000E+01 0. -1.
        -11    1    1    2    0    0 -0.13293796883E+02 -0.64467042129E+02  0.27338861053E+02  0.71275085971E+02  0.00000000000E+00 0. -1.
         11    1    1    2    0    0  0.39337599176E+02 -0.21482885195E+02  0.10527785870E+03  0.11442197602E+03  0.00000000000E+00 0.  1.
</event>
<event>
 7    1  0.2380582E-009  0.1739247E+03  0.7561462E-02  0.1173816E+00
         -3   -1    0    0    0  501 -0.00000000000E+00  0.00000000000E+00  0.37883807453E+03  0.37883807453E+03  0.00000000000E+00 0.  1.
          3   -1    0    0  501    0  0.00000000000E+00 -0.00000000000E+00 -0.96985251535E+02  0.96985251535E+02  0.00000000000E+00 0. -1.
         25    2    1    2    0    0 -0.12285637350E+03 -0.96480300250E+02  0.13538511434E+03  0.24162007875E+03  0.12509594887E+03 0.  0.
          5    1    3    3  502    0 -0.12351980797E+03 -0.35591149656E+02  0.12566682656E+03  0.17981517342E+03  0.41800000000E+01 0. -1.
         -5    1    3    3    0  502  0.66343446839E+00 -0.60889150594E+02  0.97182877837E+01  0.61804905329E+02  0.41800000000E+01 0. -1.
        -11    1    1    2    0    0  0.87260013594E+02  0.82092227642E+02  0.48987161164E+02  0.12943409818E+03  0.00000000000E+00 0. -1.
         11    1    1    2    0    0  0.35596359910E+02  0.14388072608E+02  0.97480547491E+02  0.10476914914E+03  0.00000000000E+00 0.  1.
</event>
<event>
 7    1  0.2380582E-009  0.1033868E+03  0.7561462E-02  0.1273331E+00
          1   -1    0    0  501    0  0.00000000000E+00  0.00000000000E+00  0.20516904061E+03  0.20516904061E+03  0.00000000000E+00 0. -1.
         -1   -1    0    0    0  501 -0.00000000000E+00 -0.00000000000E+00 -0.57117181551E+02  0.57117181551E+02  0.00000000000E+00 0.  1.
         25    2    1    2    0    0  0.33335013736E+01 -0.82888759418E+01  0.85856715841E+02  0.15198158034E+03  0.12508879811E+03 0.  0.
          5    1    3    3  502    0  0.13188911101E+02  0.53307864558E+02  0.66895147218E+02  0.86649344608E+02  0.41800000000E+01 0.  1.
         -5    1    3    3    0  502 -0.98554097272E+01 -0.61596740500E+02  0.18961568623E+02  0.65332235732E+02  0.41800000000E+01 0.  1.
        -11    1    1    2    0    0  0.38262434076E+02 -0.15475582350E+02  0.40111249552E+02  0.57553625873E+02  0.00000000000E+00 0. -1.
         11    1    1    2    0    0 -0.41595935450E+02  0.23764458291E+02  0.22083893665E+02  0.52751015945E+02  0.00000000000E+00 0.  1.
</event>
<event>
 7    1  0.2380582E-009  0.2066354E+03  0.7561462E-02  0.1144258E+00
          1   -1    0    0  501    0  0.00000000000E+00  0.00000000000E+00  0.12143021811E+04  0.12143021811E+04  0.00000000000E+00 0. -1.
         -1   -1    0    0    0  501 -0.00000000000E+00 -0.00000000000E+00 -0.49214985465E+02  0.49214985465E+02  0.00000000000E+00 0.  1.
         25    2    1    2    0    0  0.33173386246E+01  0.18913538571E+03  0.31554156761E+03  0.38858516683E+03  0.12509497244E+03 0.  0.
          5    1    3    3  502    0 -0.35477794206E+02  0.14121655776E+03  0.13822680432E+03  0.20081063692E+03  0.41800000000E+01 0. -1.
         -5    1    3    3    0  502  0.38795132830E+02  0.47918827947E+02  0.17731476328E+03  0.18777452991E+03  0.41800000000E+01 0. -1.
        -11    1    1    2    0    0  0.38224927880E+02 -0.10967737634E+03  0.55582982624E+03  0.56783542310E+03  0.00000000000E+00 0. -1.
         11    1    1    2    0    0 -0.41542266504E+02 -0.79458009369E+02  0.29371580182E+03  0.30709657666E+03  0.00000000000E+00 0.  1.
</event>
<event>
 7    1  0.2380582E-009  0.1121418E+03  0.7561462E-02  0.1256654E+00
          2   -1    0    0  501    0  0.00000000000E+00  0.00000000000E+00  0.23597530414E+02  0.23597530414E+02  0.00000000000E+00 0. -1.
         -2   -1    0    0    0  501 -0.00000000000E+00 -0.00000000000E+00 -0.63169281440E+03  0.63169281440E+03  0.00000000000E+00 0.  1.
         25    2    1    2    0    0 -0.41261133827E+02  0.13076541654E+02 -0.42712326362E+03  0.44716384842E+03  0.12509095851E+03 0.  0.
          5    1    3    3  502    0 -0.55055548727E+02  0.56147874839E+02 -0.33898131961E+03  0.34800790902E+03  0.41800000000E+01 0. -1.
         -5    1    3    3    0  502  0.13794414900E+02 -0.43071333185E+02 -0.88141944015E+02  0.99155939406E+02  0.41800000000E+01 0. -1.
        -11    1    1    2    0    0 -0.14646385687E+02 -0.36630664678E+02 -0.49225330771E+02  0.63082924773E+02  0.00000000000E+00 0. -1.
         11    1    1    2    0    0  0.55907519513E+02  0.23554123024E+02 -0.13174668959E+03  0.14504357162E+03  0.00000000000E+00 0.  1.
</event>
<event>
 7    1  0.2380582E-009  0.9626244E+02  0.7561462E-02  0.1288358E+00
         -1   -1    0    0    0  501 -0.00000000000E+00  0.00000000000E+00  0.35522714341E+02  0.35522714341E+02  0.00000000000E+00 0.  1.
          1   -1    0    0  501    0  0.00000000000E+00 -0.00000000000E+00 -0.53793709927E+03  0.53793709927E+03  0.00000000000E+00 0. -1.
         25    2    1    2    0    0  0.35638166243E+02  0.55356478138E+02 -0.42794696883E+03  0.45068882076E+03  0.12508951378E+03 0.  0.
          5    1    3    3  502    0  0.15444785036E+02 -0.20181135720E+02 -0.13827496976E+02  0.29231689933E+02  0.41800000000E+01 0.  1.
         -5    1    3    3    0  502  0.20193381207E+02  0.75537613858E+02 -0.41411947186E+03  0.42145713083E+03  0.41800000000E+01 0.  1.
        -11    1    1    2    0    0 -0.46671461896E+02 -0.18855327956E+02 -0.15721795779E+02  0.52734463213E+02  0.00000000000E+00 0.  1.
         11    1    1    2    0    0  0.11033295653E+02 -0.36501150182E+02 -0.58745620320E+02  0.70036529642E+02  0.00000000000E+00 0. -1.
</event>
<event>
 7    1  0.2380582E-009  0.1249489E+03  0.7561462E-02  0.1235149E+00
          2   -1    0    0  501    0  0.00000000000E+00  0.00000000000E+00  0.29270380164E+03  0.29270380164E+03  0.00000000000E+00 0. -1.
         -2   -1    0    0    0  501 -0.00000000000E+00 -0.00000000000E+00 -0.60646890625E+02  0.60646890625E+02  0.00000000000E+00 0.  1.
         25    2    1    2    0    0  0.34333749355E+02  0.58740330587E+02  0.79548960447E+02  0.16310668878E+03  0.12508605851E+03 0.  0.
          5    1    3    3  502    0  0.79828870665E+02  0.35082988022E+02  0.67279106489E+02  0.11021531296E+03  0.41800000000E+01 0. -1.
         -5    1    3    3    0  502 -0.45495121310E+02  0.23657342565E+02  0.12269853958E+02  0.52891375822E+02  0.41800000000E+01 0. -1.
        -11    1    1    2    0    0 -0.58487050419E+02 -0.13740855227E+02  0.10222755807E+03  0.11857495435E+03  0.00000000000E+00 0. -1.
         11    1    1    2    0    0  0.24153301063E+02 -0.44999475359E+02  0.50280392496E+02  0.71669049138E+02  0.00000000000E+00 0.  1.
</event>
<event>
 7    1  0.2380582E-009  0.1456789E+03  0.7561462E-02  0.1205885E+00
          4   -1    0    0  501    0  0.00000000000E+00  0.00000000000E+00  0.14491149284E+03  0.14491149284E+03  0.00000000000E+00 0. -1.
         -4   -1    0    0    0  501 -0.00000000000E+00 -0.00000000000E+00 -0.16862604055E+03  0.16862604055E+03  0.00000000000E+00 0.  1.
         25    2    1    2    0    0 -0.11094755648E+02 -0.10574122039E+03 -0.50862023592E+02  0.17187743912E+03  0.12510239543E+03 0.  0.
          5    1    3    3  502    0  0.52657105677E+02 -0.36456502526E+02 -0.43105478138E+02  0.77313659855E+02  0.41800000000E+01 0. -1.
         -5    1    3    3    0  502 -0.63751861325E+02 -0.69284717862E+02 -0.77565454542E+01  0.94563779265E+02  0.41800000000E+01 0. -1.
        -11    1    1    2    0    0 -0.25791255244E+02  0.58493175398E+01 -0.10869178107E+02  0.28592698289E+02  0.00000000000E+00 0. -1.
         11    1    1    2    0    0  0.36886010892E+02  0.99891902848E+02  0.38016653982E+02  0.11306739598E+03  0.00000000000E+00 0.  1.
</event>
<event>
 7    1  0.2380582E-009  0.1894078E+03  0.7561462E-02  0.1158997E+00
         -2   -1    0    0    0  501 -0.00000000000E+00  0.00000000000E+00  0.12053193971E+03  0.12053193971E+03  0.00000000000E+00 0.  1.
          2   -1    0    0  501    0  0.00000000000E+00 -0.00000000000E+00 -0.33553029308E+03  0.33553029308E+03  0.00000000000E+00 0. -1.
         25    2    1    2    0    0  0.11297431605E+03 -0.12413469098E+03 -0.96445077133E+02  0.23048055087E+03  0.12508802433E+03 0.  0.
          5    1    3    3  502    0 -0.12414241285E+02  0.14501338882E+02 -0.21474689808E+02  0.29035098044E+02  0.41800000000E+01 0.  1.
         -5    1    3    3    0  502  0.12538855734E+03 -0.13863602986E+03 -0.74970387325E+02  0.20144545282E+03  0.41800000000E+01 0.  1.
        -11    1    1    2    0    0 -0.73687476657E+02  0.52094124602E+02 -0.11912792471E+02  0.91025033142E+02  0.00000000000E+00 0.  1.
         11    1    1    2    0    0 -0.39286839395E+02  0.72040566377E+02 -0.10664048377E+03  0.13455664878E+03  0.00000000000E+00 0. -1.
</event>
<event>
 7    1  0.2380582E-009  0.3759593E+03  0.7561462E-02  0.1052437E+00
          2   -1    0    0  501    0  0.00000000000E+00  0.00000000000E+00  0.26469018069E+03  0.26469018069E+03  0.00000000000E+00 0.  1.
         -2   -1    0    0    0  501 -0.00000000000E+00 -0.00000000000E+00 -0.55104188416E+03  0.55104188416E+03  0.00000000000E+00 0. -1.
         25    2    1    2    0    0  0.16770632532E+02 -0.36507686315E+03 -0.16496561648E+03  0.42002762960E+03  0.12508870807E+03 0.  0.
          5    1    3    3  502    0 -0.31431741981E+02 -0.20798306798E+02 -0.23979828493E+02  0.44866786649E+02  0.41800000000E+01 0. -1.
         -5    1    3    3    0  502  0.48202374513E+02 -0.34427855635E+03 -0.14098578798E+03  0.37516084295E+03  0.41800000000E+01 0. -1.
        -11    1    1    2    0    0  0.66855882107E+01  0.64596957706E+02  0.12122682531E+02  0.66063783319E+02  0.00000000000E+00 0.  1.
         11    1    1    2    0    0 -0.23456220742E+02  0.30047990544E+03 -0.13350876953E+03  0.32964065193E+03  0.00000000000E+00 0. -1.
</event>
<event>
 7    1  0.2380582E-009  0.1091987E+03  0.7561462E-02  0.1262061E+00
         -1   -1    0    0    0  501 -0.00000000000E+00  0.00000000000E+00  0.41879275012E+03  0.41879275012E+03  0.00000000000E+00 0.  1.
          1   -1    0    0  501    0  0.00000000000E+00 -0.00000000000E+00 -0.43963333506E+02  0.43963333506E+02  0.00000000000E+00 0. -1.
         25    2    1    2    0    0  0.77751718464E+02 -0.24246662816E+02  0.21547681770E+03  0.26212690175E+03  0.12508806208E+03 0.  0.
          5    1    3    3  502    0  0.81515463865E+02  0.22829215661E+02  0.72630000851E+02  0.11161780037E+03  0.41800000000E+01 0. -1.
         -5    1    3    3    0  502 -0.37637454008E+01 -0.47075878476E+02  0.14284681685E+03  0.15050910138E+03  0.41800000000E+01 0. -1.
        -11    1    1    2    0    0 -0.61692293939E+02  0.60906445348E+01  0.29716974266E+02  0.68746880961E+02  0.00000000000E+00 0. -1.
         11    1    1    2    0    0 -0.16059424525E+02  0.18156018281E+02  0.12963562465E+03  0.13188230091E+03  0.00000000000E+00 0.  1.
</event>
<event>
 7    1  0.2380582E-009  0.1010530E+03  0.7561462E-02  0.1278097E+00
         -2   -1    0    0    0  501 -0.00000000000E+00  0.00000000000E+00  0.20812761713E+02  0.20812761713E+02  0.00000000000E+00 0.  1.
          2   -1    0    0  501    0  0.00000000000E+00 -0.00000000000E+00 -0.10272602305E+04  0.10272602305E+04  0.00000000000E+00 0. -1.
         25    2    1    2    0    0  0.26255440130E+02 -0.16131262644E+02 -0.87244160623E+03  0.88190302221E+03  0.12509603720E+03 0.  0.
          5    1    3    3  502    0 -0.45489697918E+02  0.17795555824E+02 -0.30238929218E+03  0.30633764190E+03  0.41800000000E+01 0.  1.
         -5    1    3    3    0  502  0.71745138048E+02 -0.33926818467E+02 -0.57005231406E+03  0.57556538031E+03  0.41800000000E+01 0.  1.
        -11    1    1    2    0    0 -0.42449784692E+02 -0.93020128237E+01 -0.19268799816E+02  0.47537335951E+02  0.00000000000E+00 0.  1.
         11    1    1    2    0    0  0.16194344561E+02  0.25433275468E+02 -0.11473706272E+03  0.11863263404E+03  0.00000000000E+00 0. -1.
</event>
<event>
 7    1  0.2380582E-009  0.1591921E+03  0.7561462E-02  0.1189612E+00
         -2   -1    0    0    0  501 -0.00000000000E+00  0.00000000000E+00  0.25971716477E+02  0.25971716477E+02  0.00000000000E+00 0.  1.
          2   -1    0    0  501    0  0.00000000000E+00 -0.00000000000E+00 -0.10142388814E+04  0.10142388814E+04  0.00000000000E+00 0. -1.
         25    2    1    2    0    0 -0.46582236992E+02  0.11033078736E+03 -0.52650155682E+03  0.55425054579E+03  0.12508793199E+03 0.  0.
          5    1    3    3  502    0 -0.38337582068E+02 -0.17238431218E+02 -0.90457544493E+02  0.99834730757E+02  0.41800000000E+01 0. -1.
         -5    1    3    3    0  502 -0.82446549243E+01  0.12756921858E+03 -0.43604401232E+03  0.45441581503E+03  0.41800000000E+01 0. -1.
        -11    1    1    2    0    0  0.60235450442E+02 -0.31006291691E+02 -0.26127617160E+03  0.26991653795E+03  0.00000000000E+00 0. -1.
         11    1    1    2    0    0 -0.13653213450E+02 -0.79324495672E+02 -0.20048943651E+03  0.21604351415E+03  0.00000000000E+00 0.  1.
</event>
<event>
 7    1  0.2380582E-009  0.1331719E+03  0.7561462E-02  0.1222824E+00
         -3   -1    0    0    0  501 -0.00000000000E+00  0.00000000000E+00  0.19067171541E+03  0.19067171541E+03  0.00000000000E+00 0.  1.
          3   -1    0    0  501    0  0.00000000000E+00 -0.00000000000E+00 -0.13901893270E+03  0.13901893270E+03  0.00000000000E+00 0. -1.
         25    2    1    2    0    0  0.76604977567E+02  0.51103136300E+02  0.10945308954E+03  0.19001710309E+03  0.12508664009E+03 0.  0.
          5    1    3    3  502    0  0.29383464575E+02  0.84080560050E+02  0.95403957733E+02  0.13058451715E+03  0.41800000000E+01 0. -1.
         -5    1    3    3    0  502  0.47221512992E+02 -0.32977423750E+02  0.14049131805E+02  0.59432585935E+02  0.41800000000E+01 0. -1.
        -11    1    1    2    0    0 -0.35903602806E+02 -0.66775726599E+02 -0.58960118857E+02  0.96043542068E+02  0.00000000000E+00 0. -1.
         11    1    1    2    0    0 -0.40701374761E+02  0.15672590299E+02  0.11598120370E+01  0.43630002957E+02  0.00000000000E+00 0.  1.
</event>
<event>
 7    1  0.2380582E-009  0.1630638E+03  0.7561462E-02  0.1185281E+00
          1   -1    0    0  501    0  0.00000000000E+00  0.00000000000E+00  0.10767640669E+04  0.10767640669E+04  0.00000000000E+00 0. -1.
         -1   -1    0    0    0  501 -0.00000000000E+00 -0.00000000000E+00 -0.26374924337E+02  0.26374924337E+02  0.00000000000E+00 0.  1.
         25    2    1    2    0    0  0.70417465219E+02  0.10451638032E+03  0.61823575619E+03  0.64323030068E+03  0.12508987297E+03 0.  0.
          5    1    3    3  502    0  0.39346631352E+02 -0.19611796025E+02  0.23678771251E+03  0.24087065645E+03  0.41800000000E+01 0.  1.
         -5    1    3    3    0  502  0.31070833867E+02  0.12412817635E+03  0.38144804367E+03  0.40235964423E+03  0.41800000000E+01 0.  1.
        -11    1    1    2    0    0 -0.24856751399E+02  0.12892224960E+02  0.12177823467E+03  0.12495601623E+03  0.00000000000E+00 0. -1.
         11    1    1    2    0    0 -0.45560713819E+02 -0.11740860528E+03  0.31037515171E+03  0.33495267433E+03  0.00000000000E+00 0.  1.
</event>
<event>
 7    1  0.2380582E-009  0.1048624E+03  0.7561462E-02  0.1270391E+00
          1   -1    0    0  501    0  0.00000000000E+00  0.00000000000E+00  0.45228258888E+02  0.45228258888E+02  0.00000000000E+00 0. -1.
         -1   -1    0    0    0  501 -0.00000000000E+00 -0.00000000000E+00 -0.34621622561E+03  0.34621622561E+03  0.00000000000E+00 0.  1.
         25    2    1    2    0    0 -0.38767469541E+02 -0.25841860539E+02 -0.24212452452E+03  0.27648439891E+03  0.12509444039E+03 0.  0.
          5    1    3    3  502    0 -0.13671299641E+02 -0.69445308943E+02 -0.19474514056E+03  0.20725032579E+03  0.41800000000E+01 0.  1.
         -5    1    3    3    0  502 -0.25096169900E+02  0.43603448403E+02 -0.47379383959E+02  0.69234073119E+02  0.41800000000E+01 0.  1.
        -11    1    1    2    0    0  0.19810280125E+02 -0.26261319866E+02 -0.48425013083E+02  0.58541318843E+02  0.00000000000E+00 0.  1.
         11    1    1    2    0    0  0.18957189416E+02  0.52103180406E+02 -0.10438429122E+02  0.56418766749E+02  0.00000000000E+00 0. -1.
</event>
<event>
 7    1  0.2380582E-009  0.9587311E+02  0.7561462E-02  0.1289222E+00
         -4   -1    0    0    0  501 -0.00000000000E+00  0.00000000000E+00  0.91089611449E+02  0.91089611449E+02  0.00000000000E+00 0.  1.
          4   -1    0    0  501    0  0.00000000000E+00 -0.00000000000E+00 -0.20266444729E+03  0.20266444729E+03  0.00000000000E+00 0. -1.
         25    2    1    2    0    0  0.36380479728E+02 -0.38418221005E+02 -0.10640550203E+03  0.17253390198E+03  0.12508524078E+03 0.  0.
          5    1    3    3  502    0  0.44602100328E+02 -0.19262644563E+01  0.13526033609E+02  0.46834643520E+02  0.41800000000E+01 0.  1.
         -5    1    3    3    0  502 -0.82216206001E+01 -0.36491956549E+02 -0.11993153564E+03  0.12569925846E+03  0.41800000000E+01 0.  1.
        -11    1    1    2    0    0 -0.68290000981E+02  0.36174528909E+02  0.20786249413E+02  0.80026176595E+02  0.00000000000E+00 0.  1.
         11    1    1    2    0    0  0.31909521253E+02  0.22436920962E+01 -0.25955583227E+02  0.41193980160E+02  0.00000000000E+00 0. -1.
</event>
<event>
 7    1  0.2380582E-009  0.1561949E+03  0.7561462E-02  0.1193061E+00
          1   -1    0    0  501    0  0.00000000000E+00  0.00000000000E+00  0.26370675498E+03  0.26370675498E+03  0.00000000000E+00 0. -1.
         -1   -1    0    0    0  501 -0.00000000000E+00 -0.00000000000E+00 -0.12553659001E+03  0.12553659001E+03  0.00000000000E+00 0.  1.
         25    2    1    2    0    0 -0.14088104013E+03 -0.33024751441E+02  0.90400662510E+02  0.21156060428E+03  0.12508999889E+03 0.  0.
          5    1    3    3  502    0 -0.74964417760E+01  0.20272985063E+02 -0.20470231899E+02  0.30061492921E+02  0.41800000000E+01 0. -1.
         -5    1    3    3    0  502 -0.13338459836E+03 -0.53297736503E+02  0.11087089441E+03  0.18149911136E+03  0.41800000000E+01 0. -1.
        -11    1    1    2    0    0  0.69026154232E+02  0.28498563789E+02 -0.21564112000E+02  0.77728945911E+02  0.00000000000E+00 0.  1.
         11    1    1    2    0    0  0.71854885902E+02  0.45261876520E+01  0.69333614462E+02  0.99953794810E+02  0.00000000000E+00 0. -1.
</event>
<event>
 7    1  0.2380582E-009  0.1264969E+03  0.7561462E-02  0.1232748E+00
          2   -1    0    0  501    0  0.00000000000E+00  0.00000000000E+00  0.13862109393E+03  0.13862109393E+03  0.00000000000E+00 0. -1.
         -2   -1    0    0    0  501 -0.00000000000E+00 -0.00000000000E+00 -0.17773078147E+03  0.17773078147E+03  0.00000000000E+00 0.  1.
         25    2    1    2    0    0  0.71177264707E+02 -0.87991035738E+02 -0.35596790204E+02  0.17240386412E+03  0.12508931013E+03 0.  0.
          5    1    3    3  502    0  0.72031865149E+01 -0.97837334918E+01  0.42648096540E+02  0.44541439980E+02  0.41800000000E+01 0.  1.
         -5    1    3    3    0  502  0.63974078192E+02 -0.78207302246E+02 -0.78244886744E+02  0.12786242414E+03  0.41800000000E+01 0.  1.
        -11    1    1    2    0    0  0.13041859611E+02  0.40029892744E+02  0.16083728154E+02  0.45068489287E+02  0.00000000000E+00 0. -1.
         11    1    1    2    0    0 -0.84219124317E+02  0.47961142993E+02 -0.19596625492E+02  0.98879521988E+02  0.00000000000E+00 0.  1.
</event>
<event>
 7    1  0.2380582E-009  0.1712940E+03  0.7561462E-02  0.1176505E+00
          1   -1    0    0  501    0  0.00000000000E+00  0.00000000000E+00  0.10497257929E+04  0.10497257929E+04  0.00000000000E+00 0. -1.
         -1   -1    0    0    0  501 -0.00000000000E+00 -0.00000000000E+00 -0.30365714978E+02  0.30365714978E+02  0.00000000000E+00 0.  1.
         25    2    1    2    0    0 -0.12475993707E+03  0.69767374086E+02  0.53800736284E+03  0.57055249028E+03  0.12508274588E+03 0.  0.
          5    1    3    3  502    0  0.57610774592E-01  0.58436747837E+02  0.24369544243E+03  0.25063877968E+03  0.41800000000E+01 0. -1.
         -5    1    3    3    0  502 -0.12481754784E+03  0.11330626249E+02  0.29431192041E+03  0.31991371061E+03  0.41800000000E+01 0. -1.
        -11    1    1    2    0    0  0.36550071905E+02  0.11852090575E+02  0.19898450331E+03  0.20266033743E+03  0.00000000000E+00 0. -1.
         11    1    1    2    0    0  0.88209865162E+02 -0.81619464661E+02  0.28236821181E+03  0.30687868021E+03  0.00000000000E+00 0.  1.
</event>
<event>
 7    1  0.2380582E-009  0.7439657E+02  0.7561462E-02  0.1345750E+00
         -1   -1    0    0    0  501 -0.00000000000E+00  0.00000000000E+00  0.22546823655E+02  0.22546823655E+02  0.00000000000E+00 0.  1.
          1   -1    0    0  501    0  0.00000000000E+00 -0.00000000000E+00 -0.56381481399E+03  0.56381481399E+03  0.00000000000E+00 0. -1.
         25    2    1    2    0    0 -0.17758091063E+02 -0.40434172275E+01 -0.38368977569E+03  0.40397726955E+03  0.12509233119E+03 0.  0.
          5    1    3    3  502    0 -0.20022910289E+02  0.32615102242E+02 -0.35526957664E+03  0.35734941768E+03  0.41800000000E+01 0.  1.
         -5    1    3    3    0  502  0.22648192265E+01 -0.36658519469E+02 -0.28420199047E+02  0.46627851867E+02  0.41800000000E+01 0.  1.
        -11    1    1    2    0    0 -0.84161073033E+01  0.33140133565E+02 -0.20585175034E+02  0.39910509217E+02  0.00000000000E+00 0.  1.
         11    1    1    2    0    0  0.26174198366E+02 -0.29096716337E+02 -0.13699303961E+03  0.14247385888E+03  0.00000000000E+00 0. -1.
</event>
<event>
 7    1  0.2380582E-009  0.9351426E+02  0.7561462E-02  0.1294558E+00
         -1   -1    0    0    0  501 -0.00000000000E+00  0.00000000000E+00  0.24003014335E+02  0.24003014335E+02  0.00000000000E+00 0.  1.
          1   -1    0    0  501    0  0.00000000000E+00 -0.00000000000E+00 -0.63168696943E+03  0.63168696943E+03  0.00000000000E+00 0. -1.
         25    2    1    2    0    0 -0.33308240037E+02  0.90183011955E+01 -0.46155734608E+03  0.47945181863E+03  0.12509234214E+03 0.  0.
          5    1    3    3  502    0 -0.22014681606E+02  0.46703221421E+02 -0.76624124210E+02  0.92490896353E+02  0.41800000000E+01 0.  1.
         -5    1    3    3    0  502 -0.11293558431E+02 -0.37684920225E+02 -0.38493322187E+03  0.38696092228E+03  0.41800000000E+01 0.  1.
        -11    1    1    2    0    0 -0.24115593893E+02 -0.26314653832E+02 -0.35160279020E+02  0.50102575741E+02  0.00000000000E+00 0. -1.
         11    1    1    2    0    0  0.57423833930E+02  0.17296352637E+02 -0.11096632999E+03  0.12613558939E+03  0.00000000000E+00 0.  1.
</event>
<event>
 7    1  0.2380582E-009  0.1289234E+03  0.7561462E-02  0.1229062E+00
          1   -1    0    0  501    0  0.00000000000E+00  0.00000000000E+00  0.82587033548E+02  0.82587033548E+02  0.00000000000E+00 0.  1.
         -1   -1    0    0    0  501 -0.00000000000E+00 -0.00000000000E+00 -0.20844904111E+03  0.20844904111E+03  0.00000000000E+00 0. -1.
         25    2    1    2    0    0  0.53008815398E+02  0.48900513312E+02 -0.50312052063E+02  0.15291013792E+03  0.12509601506E+03 0.  0.
          5    1    3    3  502    0  0.77800719197E+01  0.84933282725E+02 -0.38832805058E+02  0.93806455973E+02  0.41800000000E+01 0. -1.
         -5    1    3    3    0  502  0.45228743478E+02 -0.36032769413E+02 -0.11479247004E+02  0.59103681949E+02  0.41800000000E+01 0. -1.
        -11    1    1    2    0    0 -0.75446774620E+02 -0.52274850579E+02 -0.67931224723E+02  0.11419074873E+03  0.00000000000E+00 0.  1.
         11    1    1    2    0    0  0.22437959223E+02  0.33743372668E+01 -0.76187307745E+01  0.23935188002E+02  0.00000000000E+00 0. -1.
</event>
<event>
 7    1  0.2380582E-009  0.9730309E+02  0.7561462E-02  0.1286072E+00
          2   -1    0    0  501    0  0.00000000000E+00  0.00000000000E+00  0.29887522985E+03  0.29887522985E+03  0.00000000000E+00 0. -1.
         -2   -1    0    0    0  501 -0.00000000000E+00 -0.00000000000E+00 -0.54251909976E+02  0.54251909976E+02  0.00000000000E+00 0.  1.
         25    2    1    2    0    0  0.50500340517E+02  0.27169417579E+02  0.18709245938E+03  0.23224894379E+03  0.12509005513E+03 0.  0.
          5    1    3    3  502    0  0.73533286741E+02 -0.82029308171E+01  0.51678110367E+02  0.90346731120E+02  0.41800000000E+01 0.  1.
         -5    1    3    3    0  502 -0.23032946224E+02  0.35372348396E+02  0.13541434901E+03  0.14190221267E+03  0.41800000000E+01 0.  1.
        -11    1    1    2    0    0 -0.58648622226E+02 -0.10574281134E+02 -0.89097627710E+00  0.59600924064E+02  0.00000000000E+00 0.  1.
         11    1    1    2    0    0  0.81482817089E+01 -0.16595136445E+02  0.58421836771E+02  0.61277271970E+02  0.00000000000E+00 0. -1.
</event>
<event>
 7    1  0.2380582E-009  0.8732701E+02  0.7561462E-02  0.1309457E+00
         -1   -1    0    0    0  501 -0.00000000000E+00  0.00000000000E+00  0.45371902409E+02  0.45371902409E+02  0.00000000000E+00 0.  1.
          1   -1    0    0  501    0  0.00000000000E+00 -0.00000000000E+00 -0.37022283918E+03  0.37022283918E+03  0.00000000000E+00 0. -1.
         25    2    1    2    0    0  0.66396827965E+02  0.57261622990E+01 -0.21864984367E+03  0.26056791743E+03  0.12508620132E+03 0.  0.
          5    1    3    3  502    0  0.50694921046E+02 -0.60223156312E+01 -0.23127084865E+03  0.23687532827E+03  0.41800000000E+01 0. -1.
         -5    1    3    3    0  502  0.15701906919E+02  0.11748477930E+02  0.12621004983E+02  0.23692589165E+02  0.41800000000E+01 0. -1.
        -11    1    1    2    0    0 -0.66060329538E+02 -0.34553458816E+02 -0.10131244795E+03  0.12578601180E+03  0.00000000000E+00 0. -1.
         11    1    1    2    0    0 -0.33649842754E+00  0.28827296517E+02 -0.48886451461E+01  0.29240812353E+02  0.00000000000E+00 0.  1.
</event>
<event>
 7    1  0.2380582E-009  0.9961657E+02  0.7561462E-02  0.1281104E+00
          1   -1    0    0  501    0  0.00000000000E+00  0.00000000000E+00  0.52504745077E+03  0.52504745077E+03  0.00000000000E+00 0. -1.
         -1   -1    0    0    0  501 -0.00000000000E+00 -0.00000000000E+00 -0.32381849764E+02  0.32381849764E+02  0.00000000000E+00 0.  1.
         25    2    1    2    0    0 -0.53740241854E+02  0.48702918591E+02  0.29391960914E+03  0.32756079648E+03  0.12508937157E+03 0.  0.
          5    1    3    3  502    0  0.19331932564E+01  0.33521866571E+02  0.66008605496E+01  0.34474578091E+02  0.41800000000E+01 0.  1.
         -5    1    3    3    0  502 -0.55673435111E+02  0.15181052020E+02  0.28731874859E+03  0.29308621839E+03  0.41800000000E+01 0.  1.
        -11    1    1    2    0    0  0.74277893018E+02 -0.44461408275E+02  0.11741722993E+03  0.14587949856E+03  0.00000000000E+00 0.  1.
         11    1    1    2    0    0 -0.20537651164E+02 -0.42415103154E+01  0.81328761943E+02  0.83989005496E+02  0.00000000000E+00 0. -1.
</event>
<event>
 7    1  0.2380582E-009  0.1083160E+03  0.7561462E-02  0.1263721E+00
          2   -1    0    0  501    0  0.00000000000E+00  0.00000000000E+00  0.17472662797E+02  0.17472662797E+02  0.00000000000E+00 0. -1.
         -2   -1    0    0    0  501 -0.00000000000E+00 -0.00000000000E+00 -0.74775279985E+03  0.74775279985E+03  0.00000000000E+00 0.  1.
         25    2    1    2    0    0 -0.12618027066E+02 -0.13841981066E+02 -0.53924346039E+03  0.55387881033E+03  0.12508961553E+03 0.  0.
          5    1    3    3  502    0 -0.60255004029E+02 -0.39445422598E+02 -0.31874326024E+03  0.32680475091E+03  0.41800000000E+01 0. -1.
         -5    1    3    3    0  502  0.47636976963E+02  0.25603441531E+02 -0.22050020015E+03  0.22707405942E+03  0.41800000000E+01 0. -1.
        -11    1    1    2    0    0  0.42857466396E+02  0.33314844773E+02 -0.10885122693E+03  0.12163564820E+03  0.00000000000E+00 0. -1.
         11    1    1    2    0    0 -0.30239439331E+02 -0.19472863706E+02 -0.82185449736E+02  0.89711004120E+02  0.00000000000E+00 0.  1.
</event>
<event>
 7    1  0.2380582E-009  0.1019176E+03  0.7561462E-02  0.1276314E+00
          2   -1    0    0  501    0  0.00000000000E+00  0.00000000000E+00  0.39932844718E+03  0.39932844718E+03  0.00000000000E+00 0. -1.
         -2   -1    0    0    0  501 -0.00000000000E+00 -0.00000000000E+00 -0.37111258953E+02  0.37111258953E+02  0.00000000000E+00 0.  1.
         25    2    1    2    0    0  0.43456906371E+02 -0.11440715051E+02  0.26249866673E+03  0.29423268518E+03  0.12509168764E+03 0.  0.
          5    1    3    3  502    0 -0.33552404212E+02 -0.37044697850E+02  0.79442205717E+02  0.93950039470E+02  0.41800000000E+01 0.  1.
         -5    1    3    3    0  502  0.77009310584E+02  0.25603982799E+02  0.18305646102E+03  0.20028264571E+03  0.41800000000E+01 0.  1.
        -11    1    1    2    0    0 -0.57477710992E+02  0.96826468242E+01  0.11016479730E+03  0.12463435912E+03  0.00000000000E+00 0. -1.
         11    1    1    2    0    0  0.14020804621E+02  0.17580682264E+01 -0.10446275796E+02  0.17572661839E+02  0.00000000000E+00 0.  1.
</event>
<event>
 7    1  0.2380582E-009  0.5729094E+02  0.7561462E-02  0.1409565E+00
         -2   -1    0    0    0  501 -0.00000000000E+00  0.00000000000E+00  0.70146337240E+02  0.70146337240E+02  0.00000000000E+00 0.  1.
          2   -1    0    0  501    0  0.00000000000E+00 -0.00000000000E+00 -0.21326440585E+03  0.21326440585E+03  0.00000000000E+00 0. -1.
         25    2    1    2    0    0  0.37433662616E+01 -0.22494419764E+02 -0.21742537611E+02  0.12899835936E+03  0.12509127493E+03 0.  0.
          5    1    3    3  502    0 -0.12455593424E+02  0.64020384424E-01 -0.71049388706E+02  0.72253954505E+02  0.41800000000E+01 0.  1.
         -5    1    3    3    0  502  0.16198959686E+02 -0.22558440149E+02  0.49306851095E+02  0.56744404850E+02  0.41800000000E+01 0.  1.
        -11    1    1    2    0    0  0.32694972888E+02  0.55090332130E+01 -0.79821798420E+01  0.34103165456E+02  0.00000000000E+00 0.  1.
         11    1    1    2    0    0 -0.36438339150E+02  0.16985386551E+02 -0.11339335116E+03  0.12030921828E+03  0.00000000000E+00 0. -1.
</event>
<event>
 7    1  0.2380582E-009  0.5417774E+02  0.7561462E-02  0.1424028E+00
          2   -1    0    0  501    0  0.00000000000E+00  0.00000000000E+00  0.55295895694E+03  0.55295895694E+03  0.00000000000E+00 0. -1.
         -2   -1    0    0    0  501 -0.00000000000E+00 -0.00000000000E+00 -0.24931551077E+02  0.24931551077E+02  0.00000000000E+00 0.  1.
         25    2    1    2    0    0 -0.98710970251E+01 -0.32779114127E+01  0.19787452131E+03  0.23432798692E+03  0.12508835282E+03 0.  0.
          5    1    3    3  502    0 -0.94687575920E+01 -0.35815554633E+01 -0.16558852110E+02  0.19853284189E+02  0.41800000000E+01 0.  1.
         -5    1    3    3    0  502 -0.40233943311E+00  0.30364405055E+00  0.21443337342E+03  0.21447470274E+03  0.41800000000E+01 0.  1.
        -11    1    1    2    0    0  0.40834598329E+02  0.31285341643E+02  0.21518419432E+03  0.22124754125E+03  0.00000000000E+00 0.  1.
         11    1    1    2    0    0 -0.30963501303E+02 -0.28007430230E+02  0.11496869023E+03  0.12231497984E+03  0.00000000000E+00 0. -1.
</event>
<event>
 7    1  0.2380582E-009  0.9416890E+02  0.7561462E-02  0.1293059E+00
          1   -1    0    0  501    0  0.00000000000E+00  0.00000000000E+00  0.81984265024E+02  0.81984265024E+02  0.00000000000E+00 0. -1.
         -1   -1    0    0    0  501 -0.00000000000E+00 -0.00000000000E+00 -0.21582855934E+03  0.21582855934E+03  0.00000000000E+00 0.  1.
         25    2    1    2    0    0 -0.20464100529E+02 -0.35673089415E+01 -0.15584285713E+03  0.20091264293E+03  0.12508952341E+03 0.  0.
          5    1    3    3  502    0 -0.57007470493E+02 -0.11106218598E+02 -0.22567848088E+02  0.62449819462E+02  0.41800000000E+01 0. -1.
         -5    1    3    3    0  502  0.36543369964E+02  0.75389096560E+01 -0.13327500905E+03  0.13846282347E+03  0.41800000000E+01 0. -1.
        -11    1    1    2    0    0 -0.34643252137E+02  0.12310214318E+02  0.18068297147E+02  0.40965347026E+02  0.00000000000E+00 0. -1.
         11    1    1    2    0    0  0.55107352666E+02 -0.87429053765E+01  0.39302656663E+01  0.55934834410E+02  0.00000000000E+00 0.  1.
</event>
<event>
 7    1  0.2380582E-009  0.1206234E+03  0.7561462E-02  0.1242072E+00
          1   -1    0    0  501    0  0.00000000000E+00  0.00000000000E+00  0.25390270265E+03  0.25390270265E+03  0.00000000000E+00 0. -1.
         -1   -1    0    0    0  501 -0.00000000000E+00 -0.00000000000E+00 -0.72630882895E+02  0.72630882895E+02  0.00000000000E+00 0.  1.
         25    2    1    2    0    0  0.28643496208E+02  0.61629976727E+02  0.16574312123E+03  0.21848127835E+03  0.12507830687E+03 0.  0.
          5    1    3    3  502    0  0.45629820501E+02  0.92271238987E+02  0.14392583439E+03  0.17699768436E+03  0.41800000000E+01 0.  1.
         -5    1    3    3    0  502 -0.16986324293E+02 -0.30641262259E+02  0.21817286839E+02  0.41483593997E+02  0.41800000000E+01 0.  1.
        -11    1    1    2    0    0 -0.54213662534E+02 -0.28988224205E+02 -0.51969410985E+01  0.61696406254E+02  0.00000000000E+00 0.  1.
         11    1    1    2    0    0  0.25570166326E+02 -0.32641752522E+02  0.20725639622E+02  0.46355900934E+02  0.00000000000E+00 0. -1.
</event>
<event>
 7    1  0.2527142E-009  0.1031237E+03  0.7561462E-02  0.1273861E+00
          2   -1    0    0  501    0  0.00000000000E+00  0.00000000000E+00  0.21862627579E+03  0.21862627579E+03  0.00000000000E+00 0. -1.
         -2   -1    0    0    0  501 -0.00000000000E+00 -0.00000000000E+00 -0.72638523203E+02  0.72638523203E+02  0.00000000000E+00 0.  1.
         25    2    1    2    0    0 -0.13767337859E+02  0.17047745402E+01  0.15398876244E+03  0.19887610519E+03  0.12508685147E+03 0.  0.
          5    1    3    3  502    0  0.31696513033E+01 -0.60128542146E+02  0.88609677514E+02  0.10721303848E+03  0.41800000000E+01 0.  1.
         -5    1    3    3    0  502 -0.16936989162E+02  0.61833316686E+02  0.65379084929E+02  0.91663066719E+02  0.41800000000E+01 0.  1.
        -11    1    1    2    0    0 -0.19037215766E+02  0.30318535780E+02  0.17588071362E+02  0.39886958397E+02  0.00000000000E+00 0. -1.
         11    1    1    2    0    0  0.32804553625E+02 -0.32023310320E+02 -0.25589081219E+02  0.52501735400E+02  0.00000000000E+00 0.  1.
</event>
<event>
 7    1  0.2380582E-009  0.1726574E+03  0.7561462E-02  0.1175105E+00
         -1   -1    0    0    0  501 -0.00000000000E+00  0.00000000000E+00  0.46093358138E+02  0.46093358138E+02  0.00000000000E+00 0.  1.
          1   -1    0    0  501    0  0.00000000000E+00 -0.00000000000E+00 -0.79905528164E+03  0.79905528164E+03  0.00000000000E+00 0. -1.
         25    2    1    2    0    0 -0.40144784045E+02  0.13777112495E+03 -0.24877039685E+03  0.31325204724E+03  0.12509055997E+03 0.  0.
          5    1    3    3  502    0 -0.64685814006E+01 -0.21494207510E+02 -0.11736021883E+02  0.25671971320E+02  0.41800000000E+01 0.  1.
         -5    1    3    3    0  502 -0.33676202644E+02  0.15926533246E+03 -0.23703437497E+03  0.28758007592E+03  0.41800000000E+01 0.  1.
        -11    1    1    2    0    0 -0.17081666474E+02 -0.64207643155E+02 -0.12663190853E+03  0.14300365389E+03  0.00000000000E+00 0.  1.
         11    1    1    2    0    0  0.57226450519E+02 -0.73563481797E+02 -0.37755961812E+03  0.38889293865E+03  0.00000000000E+00 0. -1.
</event>
<event>
 7    1  0.2380582E-009  0.1076639E+03  0.7561462E-02  0.1264958E+00
         -2   -1    0    0    0  501 -0.00000000000E+00  0.00000000000E+00  0.15353017685E+03  0.15353017685E+03  0.00000000000E+00 0.  1.
          2   -1    0    0  501    0  0.00000000000E+00 -0.00000000000E+00 -0.13379216490E+03  0.13379216490E+03  0.00000000000E+00 0. -1.
         25    2    1    2    0    0 -0.61934666205E+02  0.14597872771E+02  0.78203918507E+02  0.16066621341E+03  0.12509507781E+03 0.  0.
          5    1    3    3  502    0 -0.33454510364E+02 -0.53362783054E+02  0.18616965258E+02  0.65809229401E+02  0.41800000000E+01 0.  1.
         -5    1    3    3    0  502 -0.28480155841E+02  0.67960655825E+02  0.59586953249E+02  0.94856984005E+02  0.41800000000E+01 0.  1.
        -11    1    1    2    0    0  0.12984854797E+02 -0.25170712922E+02  0.19219714312E+02  0.34228185189E+02  0.00000000000E+00 0.  1.
         11    1    1    2    0    0  0.48949811407E+02  0.10572840151E+02 -0.77685620865E+02  0.92427943150E+02  0.00000000000E+00 0. -1.
</event>
<event>
 7    1  0.2380582E-009  0.9889769E+02  0.7561462E-02  0.1282631E+00
          3   -1    0    0  501    0  0.00000000000E+00  0.00000000000E+00  0.13870613111E+03  0.13870613111E+03  0.00000000000E+00 0. -1.
         -3   -1    0    0    0  501 -0.00000000000E+00 -0.00000000000E+00 -0.91385694188E+02  0.91385694188E+02  0.00000000000E+00 0.  1.
         25    2    1    2    0    0  0.14046583338E+02  0.24203841262E+02  0.37929173108E+02  0.13367584302E+03  0.12508987329E+03 0.  0.
          5    1    3    3  502    0 -0.35014708132E+02 -0.25819893152E+02 -0.14518504897E+02  0.46053838628E+02  0.41800000000E+01 0.  1.
         -5    1    3    3    0  502  0.49061291470E+02  0.50023734414E+02  0.52447678005E+02  0.87622004391E+02  0.41800000000E+01 0.  1.
        -11    1    1    2    0    0  0.33141014600E+02 -0.96530977136E+01  0.27174506931E+02  0.43931343835E+02  0.00000000000E+00 0. -1.
         11    1    1    2    0    0 -0.47187597939E+02 -0.14550743549E+02 -0.17783243115E+02  0.52484638445E+02  0.00000000000E+00 0.  1.
</event>
<event>
 7    1  0.2380582E-009  0.8740711E+02  0.7561462E-02  0.1309255E+00
         -1   -1    0    0    0  501 -0.00000000000E+00  0.00000000000E+00  0.22567694410E+02  0.22567694410E+02  0.00000000000E+00 0.  1.
          1   -1    0    0  501    0  0.00000000000E+00 -0.00000000000E+00 -0.60978209725E+03  0.60978209725E+03  0.00000000000E+00 0. -1.
         25    2    1    2    0    0  0.24068432187E+02  0.23417454754E+02 -0.25540252042E+03  0.28636472938E+03  0.12508654675E+03 0.  0.
          5    1    3    3  502    0 -0.21299079959E+02 -0.65979971090E+01  0.24366582878E+01  0.22816530774E+02  0.41800000000E+01 0. -1.
         -5    1    3    3    0  502  0.45367512146E+02  0.30015451863E+02 -0.25783917871E+03  0.26354819860E+03  0.41800000000E+01 0. -1.
        -11    1    1    2    0    0 -0.58051439525E+02 -0.25751535742E+02 -0.23119171349E+03  0.23975554136E+03  0.00000000000E+00 0. -1.
         11    1    1    2    0    0  0.33983007337E+02  0.23340809881E+01 -0.10062016893E+03  0.10622952093E+03  0.00000000000E+00 0.  1.
</event>
<event>
 7    1  0.2380582E-009  0.1526684E+03  0.7561462E-02  0.1197232E+00
         -1   -1    0    0    0  501 -0.00000000000E+00  0.00000000000E+00  0.57046610843E+02  0.57046610843E+02  0.00000000000E+00 0.  1.
          1   -1    0    0  501    0  0.00000000000E+00 -0.00000000000E+00 -0.55722982806E+03  0.55722982806E+03  0.00000000000E+00 0. -1.
         25    2    1    2    0    0 -0.51726249593E+01 -0.11179422371E+03 -0.11588435428E+03  0.20396483487E+03  0.12509103003E+03 0.  0.
          5    1    3    3  502    0 -0.56893589183E+02 -0.29017212501E+02 -0.19945819731E+02  0.67038699541E+02  0.41800000000E+01 0. -1.
         -5    1    3    3    0  502  0.51720964224E+02 -0.82777011208E+02 -0.95938534548E+02  0.13692613533E+03  0.41800000000E+01 0. -1.
        -11    1    1    2    0    0 -0.41252214538E+02  0.35979119663E+02 -0.15509669242E+03  0.16447256992E+03  0.00000000000E+00 0. -1.
         11    1    1    2    0    0  0.46424839498E+02  0.75815104046E+02 -0.22920217052E+03  0.24583903412E+03  0.00000000000E+00 0.  1.
</event>
<event>
 7    1  0.2427908E-009  0.1353580E+03  0.7561462E-02  0.1219715E+00
         -1   -1    0    0    0  501 -0.00000000000E+00  0.00000000000E+00  0.24927135552E+02  0.24927135552E+02  0.00000000000E+00 0.  1.
          1   -1    0    0  501    0  0.00000000000E+00 -0.00000000000E+00 -0.83318885415E+03  0.83318885415E+03  0.00000000000E+00 0. -1.
         25    2    1    2    0    0 -0.80375790247E+02  0.23044681167E+02 -0.56980164638E+03  0.58933543380E+03  0.12510400605E+03 0.  0.
          5    1    3    3  502    0  0.49436388754E+01 -0.40033614633E+02 -0.10502155854E+03  0.11257943873E+03  0.41800000000E+01 0. -1.
         -5    1    3    3    0  502 -0.85319429122E+02  0.63078295799E+02 -0.46478008784E+03  0.47675599508E+03  0.41800000000E+01 0. -1.
        -11    1    1    2    0    0  0.84997769190E+01  0.32211433459E+02 -0.61074759511E+02  0.69569741285E+02  0.00000000000E+00 0. -1.
         11    1    1    2    0    0  0.71876013328E+02 -0.55256114626E+02 -0.17738531270E+03  0.19921081461E+03  0.00000000000E+00 0.  1.
</event>
<event>
 7    1  0.2380582E-009  0.1274216E+03  0.7561462E-02  0.1231333E+00
         -1   -1    0    0    0  501 -0.00000000000E+00  0.00000000000E+00  0.13037832680E+02  0.13037832680E+02  0.00000000000E+00 0.  1.
          1   -1    0    0  501    0  0.00000000000E+00 -0.00000000000E+00 -0.18337525422E+04  0.18337525422E+04  0.00000000000E+00 0. -1.
         25    2    1    2    0    0  0.72551722514E+02  0.54963407301E+00 -0.14652291420E+04  0.14723481570E+04  0.12509437322E+03 0.  0.
          5    1    3    3  502    0  0.94636196838E+02 -0.30081605735E+02 -0.82000577394E+03  0.82600717579E+03  0.41800000000E+01 0.  1.
         -5    1    3    3    0  502 -0.22084474323E+02  0.30631239808E+02 -0.64522336806E+03  0.64634098117E+03  0.41800000000E+01 0.  1.
        -11    1    1    2    0    0 -0.70710125291E+02 -0.37789525668E+02 -0.25184370288E+03  0.26429759884E+03  0.00000000000E+00 0. -1.
         11    1    1    2    0    0 -0.18415972238E+01  0.37239891595E+02 -0.10364186459E+03  0.11014461904E+03  0.00000000000E+00 0.  1.
</event>
<event>
 7    1  0.2380582E-009  0.1381202E+03  0.7561462E-02  0.1215881E+00
         -1   -1    0    0    0  501 -0.00000000000E+00  0.00000000000E+00  0.25093271315E+03  0.25093271315E+03  0.00000000000E+00 0.  1.
          1   -1    0    0  501    0  0.00000000000E+00 -0.00000000000E+00 -0.87780303468E+02  0.87780303468E+02  0.00000000000E+00 0. -1.
         25    2    1    2    0    0  0.94577952179E+02 -0.36194107698E+02  0.96711825196E+02  0.18776463931E+03  0.12508948866E+03 0.  0.
          5    1    3    3  502    0 -0.25011368022E+02 -0.19419643924E+02  0.47621918031E+02  0.57341176980E+02  0.41800000000E+01 0. -1.
         -5    1    3    3    0  502  0.11958932020E+03 -0.16774463773E+02  0.49089907165E+02  0.13042346233E+03  0.41800000000E+01 0. -1.
        -11    1    1    2    0    0 -0.76119477305E+02 -0.70539995478E+01  0.70183768312E+02  0.10377714136E+03  0.00000000000E+00 0.  1.
         11    1    1    2    0    0 -0.18458474875E+02  0.43248107245E+02 -0.37431838297E+01  0.47171235941E+02  0.00000000000E+00 0. -1.
</event>
<event>
 7    1  0.2380582E-009  0.1196726E+03  0.7561462E-02  0.1243638E+00
          4   -1    0    0  501    0  0.00000000000E+00  0.00000000000E+00  0.17952204435E+03  0.17952204435E+03  0.00000000000E+00 0. -1.
         -4   -1    0    0    0  501 -0.00000000000E+00 -0.00000000000E+00 -0.97838161825E+02  0.97838161825E+02  0.00000000000E+00 0.  1.
         25    2    1    2    0    0  0.57637940260E+02 -0.48856278173E+02  0.51712622397E+02  0.15501954095E+03  0.12509114552E+03 0.  0.
          5    1    3    3  502    0 -0.11312162034E+02 -0.59175717072E+02 -0.10724241931E+02  0.61336875253E+02  0.41800000000E+01 0. -1.
         -5    1    3    3    0  502  0.68950102294E+02  0.10319438899E+02  0.62436864328E+02  0.93682665701E+02  0.41800000000E+01 0. -1.
        -11    1    1    2    0    0 -0.48563961600E+02 -0.99793404433E+01 -0.10076838742E+02  0.50592373743E+02  0.00000000000E+00 0. -1.
         11    1    1    2    0    0 -0.90739786605E+01  0.58835618616E+02  0.40048098867E+02  0.71748291474E+02  0.00000000000E+00 0.  1.
</event>
<event>
 7    1  0.2520387E-009  0.1469137E+03  0.7561462E-02  0.1204318E+00
          1   -1    0    0  501    0  0.00000000000E+00  0.00000000000E+00  0.14904820671E+04  0.14904820671E+04  0.00000000000E+00 0. -1.
         -1   -1    0    0    0  501 -0.00000000000E+00 -0.00000000000E+00 -0.17699708257E+02  0.17699708257E+02  0.00000000000E+00 0.  1.
         25    2    1    2    0    0  0.21858962771E+02 -0.11647290472E+03  0.89042971789E+03  0.90694894064E+03  0.12509015408E+03 0.  0.
          5    1    3    3  502    0  0.16071251582E+02 -0.13978227505E+03  0.63797612967E+03  0.65332104204E+03  0.41800000000E+01 0. -1.
         -5    1    3    3    0  502  0.57877111891E+01  0.23309370323E+02  0.25245358822E+03  0.25362789860E+03  0.41800000000E+01 0. -1.
        -11    1    1    2    0    0  0.75827844841E+01  0.85920308814E+02  0.51091610361E+03  0.51814579320E+03  0.00000000000E+00 0. -1.
         11    1    1    2    0    0 -0.29441747255E+02  0.30552595909E+02  0.71436537326E+02  0.83087041489E+02  0.00000000000E+00 0.  1.
</event>
<event>
 7    1  0.2380582E-009  0.5776687E+02  0.7561462E-02  0.1407449E+00
         -1   -1    0    0    0  501 -0.00000000000E+00  0.00000000000E+00  0.60568766719E+03  0.60568766719E+03  0.00000000000E+00 0.  1.
          1   -1    0    0  501    0  0.00000000000E+00 -0.00000000000E+00 -0.22652615984E+02  0.22652615984E+02  0.00000000000E+00 0. -1.
         25    2    1    2    0    0  0.14286023398E+02  0.17360486735E+02  0.27354823352E+03  0.30163086666E+03  0.12508823564E+03 0.  0.
          5    1    3    3  502    0  0.30980527980E+01  0.88300481781E+01 -0.11957173439E+02  0.15748462738E+02  0.41800000000E+01 0. -1.
         -5    1    3    3    0  502  0.11187970600E+02  0.85304385564E+01  0.28550540696E+03  0.28588240392E+03  0.41800000000E+01 0. -1.
        -11    1    1    2    0    0  0.25424440978E+02 -0.38102921471E+02  0.74237997774E+02  0.87232534855E+02  0.00000000000E+00 0. -1.
         11    1    1    2    0    0 -0.39710464376E+02  0.20742434737E+02  0.23524881991E+03  0.23947688166E+03  0.00000000000E+00 0.  1.
</event>
<event>
 7    1  0.2380582E-009  0.1665735E+03  0.7561462E-02  0.1181469E+00
         -1   -1    0    0    0  501 -0.00000000000E+00  0.00000000000E+00  0.14077065424E+03  0.14077065424E+03  0.00000000000E+00 0.  1.
          1   -1    0    0  501    0  0.00000000000E+00 -0.00000000000E+00 -0.25563896727E+03  0.25563896727E+03  0.00000000000E+00 0. -1.
         25    2    1    2    0    0  0.98947614488E+02 -0.11934730977E+03 -0.76922959119E+02  0.21354041870E+03  0.12509179836E+03 0.  0.
          5    1    3    3  502    0  0.11508495919E+03 -0.10070917530E+03 -0.23797975174E+02  0.15482474558E+03  0.41800000000E+01 0. -1.
         -5    1    3    3    0  502 -0.16137344705E+02 -0.18638134476E+02 -0.53124983945E+02  0.58715673121E+02  0.41800000000E+01 0. -1.
        -11    1    1    2    0    0 -0.60224606262E+02  0.67804934576E+02  0.23632919020E+02  0.93717806279E+02  0.00000000000E+00 0.  1.
         11    1    1    2    0    0 -0.38723008225E+02  0.51542375196E+02 -0.61578272932E+02  0.89151396535E+02  0.00000000000E+00 0. -1.
</event>
<event>
 7    1  0.2380582E-009  0.2004300E+03  0.7561462E-02  0.1149377E+00
         -2   -1    0    0    0  501 -0.00000000000E+00  0.00000000000E+00  0.66488954168E+02  0.66488954168E+02  0.00000000000E+00 0.  1.
          2   -1    0    0  501    0  0.00000000000E+00 -0.00000000000E+00 -0.72059909506E+03  0.72059909506E+03  0.00000000000E+00 0. -1.
         25    2    1    2    0    0 -0.17474804016E+03 -0.74336454336E+01 -0.18963787549E+03  0.28670946495E+03  0.12509059457E+03 0.  0.
          5    1    3    3  502    0 -0.11706674208E+03  0.55206035195E+02 -0.10712526123E+03  0.16806434011E+03  0.41800000000E+01 0.  1.
         -5    1    3    3    0  502 -0.57681298079E+02 -0.62639680628E+02 -0.82512614253E+02  0.11864512484E+03  0.41800000000E+01 0.  1.
        -11    1    1    2    0    0  0.13267080331E+03  0.33207656698E+02 -0.33787276161E+03  0.36450280322E+03  0.00000000000E+00 0.  1.
         11    1    1    2    0    0  0.42077236847E+02 -0.25774011265E+02 -0.12659950379E+03  0.13587578106E+03  0.00000000000E+00 0. -1.
</event>
<event>
 7    1  0.2380582E-009  0.1183977E+03  0.7561462E-02  0.1245764E+00
          1   -1    0    0  501    0  0.00000000000E+00  0.00000000000E+00  0.95753820950E+02  0.95753820950E+02  0.00000000000E+00 0. -1.
         -1   -1    0    0    0  501 -0.00000000000E+00 -0.00000000000E+00 -0.21617101618E+03  0.21617101618E+03  0.00000000000E+00 0.  1.
         25    2    1    2    0    0  0.23735242865E+02 -0.72990583121E+02 -0.58874764097E+01  0.14687695650E+03  0.12508873249E+03 0.  0.
          5    1    3    3  502    0  0.72297255447E+02 -0.62669291158E+02 -0.12636148640E+02  0.96599574802E+02  0.41800000000E+01 0. -1.
         -5    1    3    3    0  502 -0.48562012582E+02 -0.10321291963E+02  0.67486722301E+01  0.50277381701E+02  0.41800000000E+01 0. -1.
        -11    1    1    2    0    0 -0.23290101561E+02  0.57868374271E+01 -0.90576183772E+02  0.93701448146E+02  0.00000000000E+00 0.  1.
         11    1    1    2    0    0 -0.44514130364E+00  0.67203745694E+02 -0.23953535047E+02  0.71346432478E+02  0.00000000000E+00 0. -1.
</event>
<event>
 7    1  0.2380582E-009  0.1068213E+03  0.7561462E-02  0.1266572E+00
          1   -1    0    0  501    0  0.00000000000E+00  0.00000000000E+00  0.99946597001E+02  0.99946597001E+02  0.00000000000E+00 0. -1.
         -1   -1    0    0    0  501 -0.00000000000E+00 -0.00000000000E+00 -0.13876242306E+03  0.13876242306E+03  0.00000000000E+00 0.  1.
         25    2    1    2    0    0 -0.30603854267E+02 -0.28261510229E+02 -0.42112134183E+02  0.13840661138E+03  0.12509056468E+03 0.  0.
          5    1    3    3  502    0  0.30248318100E+02  0.26602773520E+02  0.93472553232E+01  0.41563347903E+02  0.41800000000E+01 0. -1.
         -5    1    3    3    0  502 -0.60852172366E+02 -0.54864283749E+02 -0.51459389506E+02  0.96843263479E+02  0.41800000000E+01 0. -1.
        -11    1    1    2    0    0 -0.25065957717E+02  0.24902000896E+02 -0.19144154822E+02  0.40185949644E+02  0.00000000000E+00 0. -1.
         11    1    1    2    0    0  0.55669811984E+02  0.33595093328E+01  0.22440462949E+02  0.60116459032E+02  0.00000000000E+00 0.  1.
</event>
<event>
 7    1  0.2380582E-009  0.1217429E+03  0.7561462E-02  0.1240249E+00
         -3   -1    0    0    0  501 -0.00000000000E+00  0.00000000000E+00  0.38796717953E+03  0.38796717953E+03  0.00000000000E+00 0.  1.
          3   -1    0    0  501    0  0.00000000000E+00 -0.00000000000E+00 -0.67183623266E+02  0.67183623266E+02  0.00000000000E+00 0. -1.
         25    2    1    2    0    0 -0.76440482726E+02  0.34299110764E+02  0.29080708407E+03  0.32746873136E+03  0.12508970171E+03 0.  0.
          5    1    3    3  502    0 -0.16641987271E+02  0.57520031414E+02  0.49672866913E+02  0.77912616831E+02  0.41800000000E+01 0.  1.
         -5    1    3    3    0  502 -0.59798495455E+02 -0.23220920650E+02  0.24113421715E+03  0.24955611453E+03  0.41800000000E+01 0.  1.
        -11    1    1    2    0    0  0.99298858574E+00  0.23880890304E+02  0.21296656886E+02  0.32012974597E+02  0.00000000000E+00 0.  1.
         11    1    1    2    0    0  0.75447494140E+02 -0.58180001068E+02  0.86798153085E+01  0.95669096840E+02  0.00000000000E+00 0. -1.
</event>
<event>
 7    1  0.2948463E-009  0.9373774E+02  0.7561462E-02  0.1294045E+00
          1   -1    0    0  501    0  0.00000000000E+00  0.00000000000E+00  0.61358538686E+03  0.61358538686E+03  0.00000000000E+00 0. -1.
         -1   -1    0    0    0  501 -0.00000000000E+00 -0.00000000000E+00 -0.27929409581E+02  0.27929409581E+02  0.00000000000E+00 0.  1.
         25    2    1    2    0    0  0.49712884823E+02 -0.30419256539E+02  0.43094528406E+03  0.45250227614E+03  0.12509104675E+03 0.  0.
          5    1    3    3  502    0  0.46804116672E+02  0.10670581841E+02  0.39423009088E+03  0.39716410161E+03  0.41800000000E+01 0. -1.
         -5    1    3    3    0  502  0.29087681511E+01 -0.41089838380E+02  0.36715193181E+02  0.55338174532E+02  0.41800000000E+01 0. -1.
        -11    1    1    2    0    0 -0.31280350891E+02  0.57305303988E+02  0.59339960751E+02  0.88224651651E+02  0.00000000000E+00 0.  1.
         11    1    1    2    0    0 -0.18432533932E+02 -0.26886047449E+02  0.95370732468E+02  0.10078786865E+03  0.00000000000E+00 0. -1.
</event>
<event>
 7    1  0.2439580E-009  0.9468259E+02  0.7561462E-02  0.1291893E+00
          2   -1    0    0  501    0  0.00000000000E+00  0.00000000000E+00  0.66756503672E+03  0.66756503672E+03  0.00000000000E+00 0. -1.
         -2   -1    0    0    0  501 -0.00000000000E+00 -0.00000000000E+00 -0.23806720036E+02  0.23806720036E+02  0.00000000000E+00 0.  1.
         25    2    1    2    0    0 -0.60668730642E+02 -0.18042692643E+02  0.33116391785E+03  0.35962048041E+03  0.12510441962E+03 0.  0.
          5    1    3    3  502    0 -0.84807864040E+01  0.21558830352E+02  0.16143552206E+01  0.23596301552E+02  0.41800000000E+01 0.  1.
         -5    1    3    3    0  502 -0.52187944238E+02 -0.39601522994E+02  0.32954956263E+03  0.33602417886E+03  0.41800000000E+01 0.  1.
        -11    1    1    2    0    0 -0.10473003972E+02  0.26539604392E+02  0.35502071140E+02  0.45545927027E+02  0.00000000000E+00 0.  1.
         11    1    1    2    0    0  0.71141734614E+02 -0.84969117491E+01  0.27709232769E+03  0.28620534932E+03  0.00000000000E+00 0. -1.
</event>
<event>
 7    1  0.2380582E-009  0.1033606E+03  0.7561462E-02  0.1273384E+00
         -3   -1    0    0    0  501 -0.00000000000E+00  0.00000000000E+00  0.57826980855E+03  0.57826980855E+03  0.00000000000E+00 0.  1.
          3   -1    0    0  501    0  0.00000000000E+00 -0.00000000000E+00 -0.35360182652E+02  0.35360182652E+02  0.00000000000E+00 0. -1.
         25    2    1    2    0    0  0.15027342165E+02 -0.16293358607E+02  0.10238450504E+03  0.16316623792E+03  0.12509732123E+03 0.  0.
          5    1    3    3  502    0  0.27217995567E+02  0.45022750016E+02  0.81549063477E+02  0.97136962356E+02  0.41800000000E+01 0. -1.
         -5    1    3    3    0  502 -0.12190653402E+02 -0.61316108623E+02  0.20835441560E+02  0.66029275568E+02  0.41800000000E+01 0. -1.
        -11    1    1    2    0    0  0.35269585572E+02  0.20537425171E+02  0.14395135429E+03  0.14962527160E+03  0.00000000000E+00 0. -1.
         11    1    1    2    0    0 -0.50296927737E+02 -0.42440665640E+01  0.29657376657E+03  0.30083848167E+03  0.00000000000E+00 0.  1.
</event>
<event>
 7    1  0.2380582E-009  0.1173092E+03  0.7561462E-02  0.1247603E+00
          2   -1    0    0  501    0  0.00000000000E+00  0.00000000000E+00  0.12074995639E+04  0.12074995639E+04  0.00000000000E+00 0. -1.
         -2   -1    0    0    0  501 -0.00000000000E+00 -0.00000000000E+00 -0.11419371868E+02  0.11419371868E+02  0.00000000000E+00 0.  1.
         25    2    1    2    0    0  0.29388887588E+02  0.31453013588E+02  0.65143303175E+03  0.66472940034E+03  0.12508869672E+03 0.  0.
          5    1    3    3  502    0  0.59374802331E+02  0.64291549902E+02  0.43505993690E+03  0.44379431231E+03  0.41800000000E+01 0.  1.
         -5    1    3    3    0  502 -0.29985914742E+02 -0.32838536315E+02  0.21637309485E+03  0.22093508803E+03  0.41800000000E+01 0.  1.
        -11    1    1    2    0    0  0.33318625489E+02 -0.29244687510E+01  0.18701574919E+03  0.18998308811E+03  0.00000000000E+00 0.  1.
         11    1    1    2    0    0 -0.62707513078E+02 -0.28528544837E+02  0.35763141105E+03  0.36420644727E+03  0.00000000000E+00 0. -1.
</event>
<event>
 7    1  0.2380582E-009  0.1256335E+03  0.7561462E-02  0.1234082E+00
          1   -1    0    0  501    0  0.00000000000E+00  0.00000000000E+00  0.28078774818E+03  0.28078774818E+03  0.00000000000E+00 0. -1.
         -1   -1    0    0    0  501 -0.00000000000E+00 -0.00000000000E+00 -0.61104006838E+02  0.61104006838E+02  0.00000000000E+00 0.  1.
         25    2    1    2    0    0  0.67229741575E+02  0.28690949607E+02  0.13523526166E+03  0.19818868040E+03  0.12508864177E+03 0.  0.
          5    1    3    3  502    0 -0.10679137621E+02  0.52496001965E+02  0.20718760554E+02  0.57590048112E+02  0.41800000000E+01 0. -1.
         -5    1    3    3    0  502  0.77908879197E+02 -0.23805052358E+02  0.11451650111E+03  0.14059863229E+03  0.41800000000E+01 0. -1.
        -11    1    1    2    0    0  0.20833374340E+02  0.54130248291E+01  0.19901705415E+02  0.29315664799E+02  0.00000000000E+00 0. -1.
         11    1    1    2    0    0 -0.88063115916E+02 -0.34103974436E+02  0.64546774272E+02  0.11438740982E+03  0.00000000000E+00 0.  1.
</event>
<event>
 7    1  0.2380582E-009  0.2143076E+03  0.7561462E-02  0.1138200E+00
          3   -1    0    0  501    0  0.00000000000E+00  0.00000000000E+00  0.98565769557E+03  0.98565769557E+03  0.00000000000E+00 0.  1.
         -3   -1    0    0    0  501 -0.00000000000E+00 -0.00000000000E+00 -0.53741387173E+02  0.53741387173E+02  0.00000000000E+00 0. -1.
         25    2    1    2    0    0 -0.16483614298E+03  0.10901455228E+03  0.58120946857E+03  0.62650500482E+03  0.12509575557E+03 0.  0.
          5    1    3    3  502    0  0.22600757704E+01 -0.19546873851E+02  0.84997490609E+02  0.87345486602E+02  0.41800000000E+01 0.  1.
         -5    1    3    3    0  502 -0.16709621875E+03  0.12856142613E+03  0.49621197796E+03  0.53915951822E+03  0.41800000000E+01 0.  1.
        -11    1    1    2    0    0  0.10390181669E+03 -0.67968784007E+02  0.29694067118E+03  0.32185261426E+03  0.00000000000E+00 0.  1.
         11    1    1    2    0    0  0.60934326293E+02 -0.41045768273E+02  0.53766168648E+02  0.91041463658E+02  0.00000000000E+00 0. -1.
</event>
<event>
 7    1  0.2932023E-009  0.8701364E+02  0.7561462E-02  0.1310249E+00
          2   -1    0    0  501    0  0.00000000000E+00  0.00000000000E+00  0.17274316424E+04  0.17274316424E+04  0.00000000000E+00 0. -1.
         -2   -1    0    0    0  501 -0.00000000000E+00 -0.00000000000E+00 -0.95433782324E+01  0.95433782324E+01  0.00000000000E+00 0.  1.
         25    2    1    2    0    0  0.30642735109E+02 -0.46485717827E+02  0.12222576269E+04  0.12299029806E+04  0.12509091118E+03 0.  0.
          5    1    3    3  502    0  0.29258760942E+02 -0.98435360206E+01  0.65229873073E+02  0.72286783262E+02  0.41800000000E+01 0. -1.
         -5    1    3    3    0  502  0.13839741671E+01 -0.36642181807E+02  0.11570277538E+04  0.11576161973E+04  0.41800000000E+01 0. -1.
        -11    1    1    2    0    0  0.16663726235E+02  0.55381321837E+02  0.23328483171E+03  0.24034679795E+03  0.00000000000E+00 0. -1.
         11    1    1    2    0    0 -0.47306461344E+02 -0.88956040093E+01  0.26234580562E+03  0.26672524211E+03  0.00000000000E+00 0.  1.
</event>
<event>
 7    1  0.2380582E-009  0.1177132E+03  0.7561462E-02  0.1246918E+00
         -1   -1    0    0    0  501 -0.00000000000E+00  0.00000000000E+00  0.22165564827E+02  0.22165564827E+02  0.00000000000E+00 0.  1.
          1   -1    0    0  501    0  0.00000000000E+00 -0.00000000000E+00 -0.68682691640E+03  0.68682691640E+03  0.00000000000E+00 0. -1.
         25    2    1    2    0    0 -0.57587625501E+02 -0.47456404131E+01 -0.40579794304E+03  0.42855350183E+03  0.12508907884E+03 0.  0.
          5    1    3    3  502    0 -0.56388275565E+02 -0.58553993119E+02 -0.20347396560E+03  0.21915139700E+03  0.41800000000E+01 0. -1.
         -5    1    3    3    0  502 -0.11993499363E+01  0.53808352706E+02 -0.20232397744E+03  0.20940210483E+03  0.41800000000E+01 0. -1.
        -11    1    1    2    0    0 -0.65109080095E+01  0.30335574501E+02 -0.13622454821E+03  0.13971315807E+03  0.00000000000E+00 0.  1.
         11    1    1    2    0    0  0.64098533510E+02 -0.25589934088E+02 -0.12263886033E+03  0.14072582132E+03  0.00000000000E+00 0. -1.
</event>
<event>
 7    1  0.2380582E-009  0.1482956E+03  0.7561462E-02  0.1202583E+00
          1   -1    0    0  501    0  0.00000000000E+00  0.00000000000E+00  0.16441360709E+04  0.16441360709E+04  0.00000000000E+00 0.  1.
         -1   -1    0    0    0  501 -0.00000000000E+00 -0.00000000000E+00 -0.14438585006E+02  0.14438585006E+02  0.00000000000E+00 0. -1.
         25    2    1    2    0    0  0.10357006053E+03 -0.29849300658E+02  0.96820252151E+03  0.98218182196E+03  0.12508905047E+03 0.  0.
          5    1    3    3  502    0 -0.12404043732E+02 -0.39989694480E+02  0.39686115703E+03  0.39908556266E+03  0.41800000000E+01 0.  1.
         -5    1    3    3    0  502  0.11597410426E+03  0.10140393822E+02  0.57134136448E+03  0.58309625930E+03  0.41800000000E+01 0.  1.
        -11    1    1    2    0    0  0.33361790547E+01  0.30931137746E+02  0.97133245245E+02  0.10199378758E+03  0.00000000000E+00 0.  1.
         11    1    1    2    0    0 -0.10690623958E+03 -0.10818370879E+01  0.56436171911E+03  0.57439904633E+03  0.00000000000E+00 0. -1.
</event>
<event>
 7    1  0.2380582E-009  0.1046071E+03  0.7561462E-02  0.1270896E+00
         -2   -1    0    0    0  501 -0.00000000000E+00  0.00000000000E+00  0.48399836198E+02  0.48399836198E+02  0.00000000000E+00 0. -1.
          2   -1    0    0  501    0  0.00000000000E+00 -0.00000000000E+00 -0.28383482799E+03  0.28383482799E+03  0.00000000000E+00 0.  1.
         25    2    1    2    0    0  0.17906314636E+02 -0.13391026296E+02 -0.18811750042E+03  0.22701384280E+03  0.12508850934E+03 0.  0.
          5    1    3    3  502    0  0.15923584996E+01  0.55732994764E+02 -0.81169644375E+02  0.98563106074E+02  0.41800000000E+01 0. -1.
         -5    1    3    3    0  502  0.16313956136E+02 -0.69124021060E+02 -0.10694785604E+03  0.12845073672E+03  0.41800000000E+01 0. -1.
        -11    1    1    2    0    0 -0.45397580722E+02 -0.95015756387E+01 -0.51377755500E+02  0.69216284466E+02  0.00000000000E+00 0.  1.
         11    1    1    2    0    0  0.27491266086E+02  0.22892601935E+02  0.40602641282E+01  0.36004536924E+02  0.00000000000E+00 0. -1.
</event>
<event>
 7    1  0.2380582E-009  0.1180824E+03  0.7561462E-02  0.1246294E+00
          2   -1    0    0  501    0  0.00000000000E+00  0.00000000000E+00  0.22652669908E+03  0.22652669908E+03  0.00000000000E+00 0. -1.
         -2   -1    0    0    0  501 -0.00000000000E+00 -0.00000000000E+00 -0.72582531602E+02  0.72582531602E+02  0.00000000000E+00 0.  1.
         25    2    1    2    0    0 -0.68412048258E+02 -0.36539065734E-01  0.78459898719E+02  0.16273809633E+03  0.12509005799E+03 0.  0.
          5    1    3    3  502    0 -0.54036209199E+02  0.52834633950E+02  0.76702978753E+02  0.10776005660E+03  0.41800000000E+01 0.  1.
         -5    1    3    3    0  502 -0.14375839060E+02 -0.52871173016E+02  0.17569199660E+01  0.54978039730E+02  0.41800000000E+01 0.  1.
        -11    1    1    2    0    0  0.36811715830E+02  0.40142686853E+02  0.63994528797E+02  0.84034739520E+02  0.00000000000E+00 0.  1.
         11    1    1    2    0    0  0.31600332428E+02 -0.40106147787E+02  0.11489739967E+02  0.52336394836E+02  0.00000000000E+00 0. -1.
</event>
<event>
 7    1  0.2380582E-009  0.9675125E+02  0.7561462E-02  0.1287280E+00
         -3   -1    0    0    0  501 -0.00000000000E+00  0.00000000000E+00  0.34694077218E+02  0.34694077218E+02  0.00000000000E+00 0.  1.
          3   -1    0    0  501    0  0.00000000000E+00 -0.00000000000E+00 -0.33985597429E+03  0.33985597429E+03  0.00000000000E+00 0. -1.
         25    2    1    2    0    0 -0.37585590256E+01 -0.14263169014E+02 -0.18194171815E+03  0.22128722258E+03  0.12509069237E+03 0.  0.
          5    1    3    3  502    0  0.42814682031E+02  0.36337818754E+02 -0.69960923664E+02  0.89808336524E+02  0.41800000000E+01 0.  1.
         -5    1    3    3    0  502 -0.46573241057E+02 -0.50600987768E+02 -0.11198079449E+03  0.13147888606E+03  0.41800000000E+01 0.  1.
        -11    1    1    2    0    0 -0.34475111991E+01 -0.26587948126E+02 -0.40945172026E+01  0.27121382527E+02  0.00000000000E+00 0.  1.
         11    1    1    2    0    0  0.72060702248E+01  0.40851117141E+02 -0.11912566172E+03  0.12614144640E+03  0.00000000000E+00 0. -1.
</event>
<event>
 7    1  0.2380582E-009  0.1636274E+03  0.7561462E-02  0.1184661E+00
         -2   -1    0    0    0  501 -0.00000000000E+00  0.00000000000E+00  0.40065865501E+03  0.40065865501E+03  0.00000000000E+00 0.  1.
          2   -1    0    0  501    0  0.00000000000E+00 -0.00000000000E+00 -0.99786428347E+02  0.99786428347E+02  0.00000000000E+00 0. -1.
         25    2    1    2    0    0  0.12362189129E+03 -0.56585154915E+02  0.28061209937E+03  0.33596853194E+03  0.12508977726E+03 0.  0.
          5    1    3    3  502    0  0.29763446644E-01  0.28662909727E+02  0.81943551386E+02  0.86912492161E+02  0.41800000000E+01 0.  1.
         -5    1    3    3    0  502  0.12359212784E+03 -0.85248064641E+02  0.19866854799E+03  0.24905603978E+03  0.41800000000E+01 0.  1.
        -11    1    1    2    0    0 -0.50989319448E+02 -0.71124506467E+01  0.40824895978E+02  0.65705173187E+02  0.00000000000E+00 0.  1.
         11    1    1    2    0    0 -0.72632571841E+02  0.63697605562E+02 -0.20564768690E+02  0.98771378232E+02  0.00000000000E+00 0. -1.
</event>
<event>
 7    1  0.2380582E-009  0.1229513E+03  0.7561462E-02  0.1238306E+00
         -1   -1    0    0    0  501 -0.00000000000E+00  0.00000000000E+00  0.44520996739E+02  0.44520996739E+02  0.00000000000E+00 0.  1.
          1   -1    0    0  501    0  0.00000000000E+00 -0.00000000000E+00 -0.54318259224E+03  0.54318259224E+03  0.00000000000E+00 0. -1.
         25    2    1    2    0    0 -0.67697574208E+02 -0.44352614038E+02 -0.12349921893E+03  0.19352090057E+03  0.12509262950E+03 0.  0.
          5    1    3    3  502    0 -0.38607058616E+02  0.39188911465E+02 -0.23563276895E+02  0.59991467517E+02  0.41800000000E+01 0.  1.
         -5    1    3    3    0  502 -0.29090515591E+02 -0.83541525503E+02 -0.99935942039E+02  0.13352943306E+03  0.41800000000E+01 0.  1.
        -11    1    1    2    0    0  0.61657746002E+02  0.44532700994E+01 -0.31953431998E+03  0.32545920005E+03  0.00000000000E+00 0. -1.
         11    1    1    2    0    0  0.60398282052E+01  0.39899343938E+02 -0.55628056592E+02  0.68723488355E+02  0.00000000000E+00 0.  1.
</event>
<event>
 7    1  0.2380582E-009  0.1325016E+03  0.7561462E-02  0.1223790E+00
          2   -1    0    0  501    0  0.00000000000E+00  0.00000000000E+00  0.26143626848E+03  0.26143626848E+03  0.00000000000E+00 0. -1.
         -2   -1    0    0    0  501 -0.00000000000E+00 -0.00000000000E+00 -0.15744797535E+03  0.15744797535E+03  0.00000000000E+00 0.  1.
         25    2    1    2    0    0  0.95503940292E+02 -0.38035288878E+02  0.19403967002E+03  0.25271708742E+03  0.12508735716E+03 0.  0.
          5    1    3    3  502    0 -0.15519580190E+02 -0.16088829729E+02  0.10832839073E+03  0.11068974862E+03  0.41800000000E+01 0. -1.
         -5    1    3    3    0  502  0.11102352048E+03 -0.21946459149E+02  0.85711279293E+02  0.14202733880E+03  0.41800000000E+01 0. -1.
        -11    1    1    2    0    0 -0.59087172197E+02  0.61820445499E+02 -0.27209931851E+02  0.89740970528E+02  0.00000000000E+00 0. -1.
         11    1    1    2    0    0 -0.36416768095E+02 -0.23785156621E+02 -0.62841445034E+02  0.76426185878E+02  0.00000000000E+00 0.  1.
</event>
<event>
 7    1  0.2380582E-009  0.6997003E+02  0.7561462E-02  0.1360195E+00
          1   -1    0    0  501    0  0.00000000000E+00  0.00000000000E+00  0.13870938100E+03  0.13870938100E+03  0.00000000000E+00 0. -1.
         -1   -1    0    0    0  501 -0.00000000000E+00 -0.00000000000E+00 -0.11155460078E+03  0.11155460078E+03  0.00000000000E+00 0.  1.
         25    2    1    2    0    0 -0.26421701152E+02 -0.39893573560E+02 -0.18084991744E+02  0.13514967244E+03  0.12509501801E+03 0.  0.
          5    1    3    3  502    0 -0.36247189367E+01 -0.22290683379E+02 -0.71074788599E+02  0.74693447686E+02  0.41800000000E+01 0.  1.
         -5    1    3    3    0  502 -0.22796982216E+02 -0.17602890180E+02  0.52989796855E+02  0.60456224755E+02  0.41800000000E+01 0.  1.
        -11    1    1    2    0    0  0.95517122261E+01 -0.21858402538E+02  0.45189889883E+02  0.51099423829E+02  0.00000000000E+00 0. -1.
         11    1    1    2    0    0  0.16869988926E+02  0.61751976098E+02  0.49882079698E-01  0.64014885508E+02  0.00000000000E+00 0.  1.
</event>
<event>
 7    1  0.2380582E-009  0.1325212E+03  0.7561462E-02  0.1223762E+00
          2   -1    0    0  501    0  0.00000000000E+00  0.00000000000E+00  0.41629801264E+03  0.41629801264E+03  0.00000000000E+00 0. -1.
         -2   -1    0    0    0  501 -0.00000000000E+00 -0.00000000000E+00 -0.64777855522E+02  0.64777855522E+02  0.00000000000E+00 0.  1.
         25    2    1    2    0    0 -0.98340960851E+02 -0.59042240094E+02  0.20540055479E+03  0.26644691452E+03  0.12509052582E+03 0.  0.
          5    1    3    3  502    0 -0.44406412795E+02 -0.24618561105E+02  0.19492995813E+03  0.20147745289E+03  0.41800000000E+01 0.  1.
         -5    1    3    3    0  502 -0.53934548056E+02 -0.34423678988E+02  0.10470596662E+02  0.64969461623E+02  0.41800000000E+01 0.  1.
        -11    1    1    2    0    0  0.39307585318E+02 -0.25506493260E+02  0.18072145760E+02  0.50222205391E+02  0.00000000000E+00 0.  1.
         11    1    1    2    0    0  0.59033375533E+02  0.84548733354E+02  0.12804745656E+03  0.16440674825E+03  0.00000000000E+00 0. -1.
</event>
<event>
 7    1  0.2380582E-009  0.1696859E+03  0.7561462E-02  0.1178176E+00
          3   -1    0    0  501    0  0.00000000000E+00  0.00000000000E+00  0.20072375034E+03  0.20072375034E+03  0.00000000000E+00 0. -1.
         -3   -1    0    0    0  501 -0.00000000000E+00 -0.00000000000E+00 -0.17038278887E+03  0.17038278887E+03  0.00000000000E+00 0.  1.
         25    2    1    2    0    0  0.13253072207E+03  0.62131964368E+02 -0.12433688693E+02  0.19294493822E+03  0.12509348217E+03 0.  0.
          5    1    3    3  502    0  0.11210095535E+03  0.12848217627E+02 -0.54022761236E+02  0.12517041192E+03  0.41800000000E+01 0. -1.
         -5    1    3    3    0  502  0.20429766712E+02  0.49283746740E+02  0.41589072543E+02  0.67774526303E+02  0.41800000000E+01 0. -1.
        -11    1    1    2    0    0 -0.13265793010E+03 -0.23997411705E+02  0.33891107366E+02  0.13900578889E+03  0.00000000000E+00 0.  1.
         11    1    1    2    0    0  0.12720803257E+00 -0.38134552663E+02  0.88835427929E+01  0.39155812101E+02  0.00000000000E+00 0. -1.
</event>
<event>
 7    1  0.2380582E-009  0.1446305E+03  0.7561462E-02  0.1207231E+00
          1   -1    0    0  501    0  0.00000000000E+00  0.00000000000E+00  0.69325938925E+03  0.69325938925E+03  0.00000000000E+00 0. -1.
         -1   -1    0    0    0  501 -0.00000000000E+00 -0.00000000000E+00 -0.30884642930E+02  0.30884642930E+02  0.00000000000E+00 0.  1.
         25    2    1    2    0    0 -0.96930684543E+02  0.55667719179E+01  0.31377889068E+03  0.35147130466E+03  0.12509332199E+03 0.  0.
          5    1    3    3  502    0 -0.22358701723E+02  0.61009144025E+02  0.13842112697E+03  0.15297028466E+03  0.41800000000E+01 0.  1.
         -5    1    3    3    0  502 -0.74571982820E+02 -0.55442372107E+02  0.17535776371E+03  0.19850102000E+03  0.41800000000E+01 0.  1.
        -11    1    1    2    0    0  0.31043779010E+02  0.40286442461E+02  0.15357653705E+03  0.16177906661E+03  0.00000000000E+00 0.  1.
         11    1    1    2    0    0  0.65886905533E+02 -0.45853214378E+02  0.19501931859E+03  0.21089366091E+03  0.00000000000E+00 0. -1.
</event>
<event>
 7    1  0.2380582E-009  0.9590948E+02  0.7561462E-02  0.1289141E+00
         -2   -1    0    0    0  501 -0.00000000000E+00  0.00000000000E+00  0.14668072077E+03  0.14668072077E+03  0.00000000000E+00 0.  1.
          2   -1    0    0  501    0  0.00000000000E+00 -0.00000000000E+00 -0.12864093587E+03  0.12864093587E+03  0.00000000000E+00 0. -1.
         25    2    1    2    0    0  0.40795085347E+02  0.67060623455E+02 -0.24759012313E+02  0.14974055795E+03  0.12509140577E+03 0.  0.
          5    1    3    3  502    0  0.11386882062E+02  0.78554471614E+02 -0.61949737938E+02  0.10077553535E+03  0.41800000000E+01 0.  1.
         -5    1    3    3    0  502  0.29408203285E+02 -0.11493848158E+02  0.37190725626E+02  0.48965022603E+02  0.41800000000E+01 0.  1.
        -11    1    1    2    0    0 -0.38789050814E+02 -0.49884520679E+02 -0.15255450051E+02  0.65006035279E+02  0.00000000000E+00 0. -1.
         11    1    1    2    0    0 -0.20060345326E+01 -0.17176102776E+02  0.58054247270E+02  0.60575063411E+02  0.00000000000E+00 0.  1.
</event>
<event>
 7    1  0.2380582E-009  0.1844298E+03  0.7561462E-02  0.1163583E+00
         -2   -1    0    0    0  501 -0.00000000000E+00  0.00000000000E+00  0.70296975358E+02  0.70296975358E+02  0.00000000000E+00 0.  1.
          2   -1    0    0  501    0  0.00000000000E+00 -0.00000000000E+00 -0.56294861476E+03  0.56294861476E+03  0.00000000000E+00 0. -1.
         25    2    1    2    0    0  0.58180745350E+02  0.15155352073E+03 -0.30680360356E+03  0.36895737058E+03  0.12509045277E+03 0.  0.
          5    1    3    3  502    0  0.58745832992E+02  0.17219158519E+03 -0.25725345571E+03  0.31511557845E+03  0.41800000000E+01 0. -1.
         -5    1    3    3    0  502 -0.56508764257E+00 -0.20638064459E+02 -0.49550147846E+02  0.53841792134E+02  0.41800000000E+01 0. -1.
        -11    1    1    2    0    0 -0.18357634128E+02 -0.94290261574E+02 -0.42846195915E+02  0.10518294854E+03  0.00000000000E+00 0.  1.
         11    1    1    2    0    0 -0.39823111222E+02 -0.57263259157E+02 -0.14300183993E+03  0.15910527100E+03  0.00000000000E+00 0. -1.
</event>
<event>
 7    1  0.2380582E-009  0.8935121E+02  0.7561462E-02  0.1304430E+00
          2   -1    0    0  501    0  0.00000000000E+00  0.00000000000E+00  0.40028562568E+02  0.40028562568E+02  0.00000000000E+00 0. -1.
         -2   -1    0    0    0  501 -0.00000000000E+00 -0.00000000000E+00 -0.39899679452E+03  0.39899679452E+03  0.00000000000E+00 0.  1.
         25    2    1    2    0    0  0.18163996171E+02  0.14330135310E+02 -0.29286695797E+03  0.31930127658E+03  0.12508783562E+03 0.  0.
          5    1    3    3  502    0  0.53802068932E+02  0.14713651339E+02 -0.53977092246E+02  0.77731287423E+02  0.41800000000E+01 0.  1.
         -5    1    3    3    0  502 -0.35638072761E+02 -0.38351602952E+00 -0.23888986573E+03  0.24156998916E+03  0.41800000000E+01 0.  1.
        -11    1    1    2    0    0 -0.41179520943E+02  0.19820761411E+02 -0.49088347791E+01  0.45964249008E+02  0.00000000000E+00 0. -1.
         11    1    1    2    0    0  0.23015524772E+02 -0.34150896721E+02 -0.61192439196E+02  0.73759831495E+02  0.00000000000E+00 0.  1.
</event>
<event>
 7    1  0.2380582E-009  0.1334437E+03  0.7561462E-02  0.1222434E+00
          4   -1    0    0  501    0  0.00000000000E+00  0.00000000000E+00  0.33277753216E+02  0.33277753216E+02  0.00000000000E+00 0.  1.
         -4   -1    0    0    0  501 -0.00000000000E+00 -0.00000000000E+00 -0.59858669326E+03  0.59858669326E+03  0.00000000000E+00 0. -1.
         25    2    1    2    0    0 -0.81104413120E+02 -0.46701164386E+02 -0.28144516647E+03  0.32189640175E+03  0.12508791767E+03 0.  0.
          5    1    3    3  502    0 -0.69312917798E+01 -0.67316253207E+02 -0.72899473717E+02  0.99555644842E+02  0.41800000000E+01 0. -1.
         -5    1    3    3    0  502 -0.74173121340E+02  0.20615088821E+02 -0.20854569276E+03  0.22234075691E+03  0.41800000000E+01 0. -1.
        -11    1    1    2    0    0  0.96701792906E+02  0.43642022179E+02 -0.22130434761E+03  0.24542102013E+03  0.00000000000E+00 0.  1.
         11    1    1    2    0    0 -0.15597379787E+02  0.30591422073E+01 -0.62559425965E+02  0.64547024597E+02  0.00000000000E+00 0. -1.
</event>
<event>
 7    1  0.2380582E-009  0.2240142E+03  0.7561462E-02  0.1130925E+00
          2   -1    0    0  501    0  0.00000000000E+00  0.00000000000E+00  0.98058219662E+03  0.98058219662E+03  0.00000000000E+00 0. -1.
         -2   -1    0    0    0  501 -0.00000000000E+00 -0.00000000000E+00 -0.86805303703E+02  0.86805303703E+02  0.00000000000E+00 0.  1.
         25    2    1    2    0    0  0.20817410802E+03 -0.36861710665E+02  0.76511189052E+03  0.80357869503E+03  0.12508904482E+03 0.  0.
          5    1    3    3  502    0  0.16947157958E+03 -0.66863783896E+02  0.69119253157E+03  0.71481184237E+03  0.41800000000E+01 0.  1.
         -5    1    3    3    0  502  0.38702528437E+02  0.30002073231E+02  0.73919358945E+02  0.88766852667E+02  0.41800000000E+01 0.  1.
        -11    1    1    2    0    0 -0.12639315071E+03 -0.13031909985E+01  0.11802489813E+03  0.17293583617E+03  0.00000000000E+00 0.  1.
         11    1    1    2    0    0 -0.81780957315E+02  0.38164901664E+02  0.10640104267E+02  0.90872969122E+02  0.00000000000E+00 0. -1.
</event>
<event>
 7    1  0.2380582E-009  0.1043108E+03  0.7561462E-02  0.1271483E+00
          2   -1    0    0  501    0  0.00000000000E+00  0.00000000000E+00  0.66453495544E+03  0.66453495544E+03  0.00000000000E+00 0. -1.
         -2   -1    0    0    0  501 -0.00000000000E+00 -0.00000000000E+00 -0.28346605466E+02  0.28346605466E+02  0.00000000000E+00 0.  1.
         25    2    1    2    0    0 -0.59902929123E+02  0.34733240525E+02  0.46674354041E+03  0.48815159112E+03  0.12509070501E+03 0.  0.
          5    1    3    3  502    0  0.13745986398E+02  0.13830803839E+02  0.56510792617E+01  0.20728009401E+02  0.41800000000E+01 0.  1.
         -5    1    3    3    0  502 -0.73648915521E+02  0.20902436685E+02  0.46109246115E+03  0.46742358172E+03  0.41800000000E+01 0.  1.
        -11    1    1    2    0    0  0.41061648235E+02 -0.64687830177E+02  0.93040284606E+02  0.12052829082E+03  0.00000000000E+00 0.  1.
         11    1    1    2    0    0  0.18841280888E+02  0.29954589653E+02  0.76404524958E+02  0.84201678967E+02  0.00000000000E+00 0. -1.
</event>
<event>
 7    1  0.2380582E-009  0.1443164E+03  0.7561462E-02  0.1207636E+00
         -2   -1    0    0    0  501 -0.00000000000E+00  0.00000000000E+00  0.51798122665E+02  0.51798122665E+02  0.00000000000E+00 0. -1.
          2   -1    0    0  501    0  0.00000000000E+00 -0.00000000000E+00 -0.70965376826E+03  0.70965376826E+03  0.00000000000E+00 0.  1.
         25    2    1    2    0    0  0.12723835356E+03 -0.41643534152E+01 -0.53638689821E+03  0.56529956951E+03  0.12508300545E+03 0.  0.
          5    1    3    3  502    0  0.13545374022E+03 -0.57536023379E+01 -0.53882337327E+03  0.55563379997E+03  0.41800000000E+01 0. -1.
         -5    1    3    3    0  502 -0.82153866573E+01  0.15892489228E+01  0.24364750600E+01  0.96657695392E+01  0.41800000000E+01 0. -1.
        -11    1    1    2    0    0 -0.42096608026E+02 -0.30215320242E+02 -0.80199889050E+02  0.95483570253E+02  0.00000000000E+00 0.  1.
         11    1    1    2    0    0 -0.85141745536E+02  0.34379673657E+02 -0.41268858334E+02  0.10066875117E+03  0.00000000000E+00 0. -1.
</event>
<event>
 7    1  0.2380582E-009  0.8641770E+02  0.7561462E-02  0.1311766E+00
         -2   -1    0    0    0  501 -0.00000000000E+00  0.00000000000E+00  0.78840401087E+02  0.78840401087E+02  0.00000000000E+00 0. -1.
          2   -1    0    0  501    0  0.00000000000E+00 -0.00000000000E+00 -0.15656335281E+03  0.15656335281E+03  0.00000000000E+00 0.  1.
         25    2    1    2    0    0  0.75227754398E+01 -0.19234320261E+02 -0.38519309797E+02  0.13249680959E+03  0.12508043851E+03 0.  0.
          5    1    3    3  502    0  0.25802477914E+02 -0.41456878582E+02  0.30415692810E+02  0.57680390233E+02  0.41800000000E+01 0. -1.
         -5    1    3    3    0  502 -0.18279702474E+02  0.22222558321E+02 -0.68935002607E+02  0.74816419357E+02  0.41800000000E+01 0. -1.
        -11    1    1    2    0    0 -0.12575077464E+02 -0.36593191182E+02 -0.11420126981E+02  0.40343692374E+02  0.00000000000E+00 0.  1.
         11    1    1    2    0    0  0.50523020246E+01  0.55827511443E+02 -0.27783514946E+02  0.62563251933E+02  0.00000000000E+00 0. -1.
</event>
<event>
 7    1  0.2380582E-009  0.9995262E+02  0.7561462E-02  0.1280396E+00
         -1   -1    0    0    0  501 -0.00000000000E+00  0.00000000000E+00  0.24579549689E+02  0.24579549689E+02  0.00000000000E+00 0.  1.
          1   -1    0    0  501    0  0.00000000000E+00 -0.00000000000E+00 -0.52932021356E+03  0.52932021356E+03  0.00000000000E+00 0. -1.
         25    2    1    2    0    0 -0.38261102916E+01  0.32169989257E+02 -0.25452266724E+03  0.28544610684E+03  0.12509254350E+03 0.  0.
          5    1    3    3  502    0  0.65424935822E+01  0.68380219517E+02 -0.23055324530E+03  0.24060534068E+03  0.41800000000E+01 0. -1.
         -5    1    3    3    0  502 -0.10368603874E+02 -0.36210230260E+02 -0.23969421942E+02  0.44840766162E+02  0.41800000000E+01 0. -1.
        -11    1    1    2    0    0  0.45424816810E+02 -0.12139569195E+02 -0.16455480764E+03  0.17114049153E+03  0.00000000000E+00 0.  1.
         11    1    1    2    0    0 -0.41598706518E+02 -0.20030420062E+02 -0.85663188982E+02  0.97313164877E+02  0.00000000000E+00 0. -1.
</event>
<event>
 7    1  0.2380582E-009  0.2690231E+03  0.7561462E-02  0.1101840E+00
         -3   -1    0    0    0  501 -0.00000000000E+00  0.00000000000E+00  0.10594431657E+04  0.10594431657E+04  0.00000000000E+00 0.  1.
          3   -1    0    0  501    0  0.00000000000E+00 -0.00000000000E+00 -0.78731772601E+02  0.78731772601E+02  0.00000000000E+00 0. -1.
         25    2    1    2    0    0  0.19639827630E+03  0.17095524422E+03  0.38316815988E+03  0.47985780728E+03  0.12509075908E+03 0.  0.
          5    1    3    3  502    0  0.19218885829E+03  0.17765624916E+03  0.38922289786E+03  0.46905248825E+03  0.41800000000E+01 0.  1.
         -5    1    3    3    0  502  0.42094180161E+01 -0.67010049465E+01 -0.60547379841E+01  0.10805319032E+02  0.41800000000E+01 0.  1.
        -11    1    1    2    0    0 -0.11380723472E+03 -0.13684216840E+03  0.47012472076E+03  0.50268789402E+03  0.00000000000E+00 0.  1.
         11    1    1    2    0    0 -0.82591041584E+02 -0.34113075812E+02  0.12741851250E+03  0.15562923703E+03  0.00000000000E+00 0. -1.
</event>
<event>
 7    1  0.2380582E-009  0.1219957E+03  0.7561462E-02  0.1239841E+00
          1   -1    0    0  501    0  0.00000000000E+00  0.00000000000E+00  0.14961516060E+03  0.14961516060E+03  0.00000000000E+00 0. -1.
         -1   -1    0    0    0  501 -0.00000000000E+00 -0.00000000000E+00 -0.11015493240E+03  0.11015493240E+03  0.00000000000E+00 0.  1.
         25    2    1    2    0    0 -0.13112886441E+01  0.73481044452E+02  0.26933012596E+02  0.14756649595E+03  0.12509716299E+03 0.  0.
          5    1    3    3  502    0  0.56511678203E+02  0.56274591052E+02 -0.33554334507E+01  0.79932038039E+02  0.41800000000E+01 0. -1.
         -5    1    3    3    0  502 -0.57822966847E+02  0.17206453401E+02  0.30288446047E+02  0.67634457916E+02  0.41800000000E+01 0. -1.
        -11    1    1    2    0    0 -0.25018765185E+02 -0.73165180525E+02 -0.94572364866E+01  0.77900716137E+02  0.00000000000E+00 0.  1.
         11    1    1    2    0    0  0.26330053829E+02 -0.31586392692E+00  0.21984452097E+02  0.34302880909E+02  0.00000000000E+00 0. -1.
</event>
<event>
 7    1  0.2380582E-009  0.8783239E+02  0.7561462E-02  0.1308187E+00
         -1   -1    0    0    0  501 -0.00000000000E+00  0.00000000000E+00  0.84460730079E+02  0.84460730079E+02  0.00000000000E+00 0.  1.
          1   -1    0    0  501    0  0.00000000000E+00 -0.00000000000E+00 -0.18560703390E+03  0.18560703390E+03  0.00000000000E+00 0. -1.
         25    2    1    2    0    0  0.27412672523E+02  0.57932460147E+02 -0.71792243364E+02  0.15782734663E+03  0.12509084932E+03 0.  0.
          5    1    3    3  502    0 -0.22019867170E+02  0.25052613384E+02  0.26578846933E+02  0.42853418672E+02  0.41800000000E+01 0. -1.
         -5    1    3    3    0  502  0.49432539693E+02  0.32879846763E+02 -0.98371090297E+02  0.11497392796E+03  0.41800000000E+01 0. -1.
        -11    1    1    2    0    0  0.14383180213E+02 -0.26805741402E+02 -0.48054204068E+02  0.56873809208E+02  0.00000000000E+00 0. -1.
         11    1    1    2    0    0 -0.41795852736E+02 -0.31126718746E+02  0.18700143614E+02  0.55366608140E+02  0.00000000000E+00 0.  1.
</event>
<event>
 7    1  0.2380582E-009  0.3992743E+03  0.7561462E-02  0.1044031E+00
         -2   -1    0    0    0  501 -0.00000000000E+00  0.00000000000E+00  0.14309073735E+03  0.14309073735E+03  0.00000000000E+00 0.  1.
          2   -1    0    0  501    0  0.00000000000E+00 -0.00000000000E+00 -0.11723233764E+04  0.11723233764E+04  0.00000000000E+00 0. -1.
         25    2    1    2    0    0  0.12653415894E+03 -0.37405627060E+03 -0.52913923883E+03  0.67198780131E+03  0.12510109547E+03 0.  0.
          5    1    3    3  502    0  0.38338986707E+02 -0.12852549351E+03 -0.28339609758E+03  0.31355940570E+03  0.41800000000E+01 0.  1.
         -5    1    3    3    0  502  0.88195172230E+02 -0.24553077710E+03 -0.24574314125E+03  0.35842839561E+03  0.41800000000E+01 0.  1.
        -11    1    1    2    0    0 -0.60843545310E+02  0.29227326873E+03 -0.39281016612E+03  0.49338162433E+03  0.00000000000E+00 0.  1.
         11    1    1    2    0    0 -0.65690613627E+02  0.81783001877E+02 -0.10728323413E+03  0.15004468814E+03  0.00000000000E+00 0. -1.
</event>
<event>
 7    1  0.2380582E-009  0.1213061E+03  0.7561462E-02  0.1240958E+00
         -1   -1    0    0    0  501 -0.00000000000E+00  0.00000000000E+00  0.25678769248E+02  0.25678769248E+02  0.00000000000E+00 0.  1.
          1   -1    0    0  501    0  0.00000000000E+00 -0.00000000000E+00 -0.60295315558E+03  0.60295315558E+03  0.00000000000E+00 0. -1.
         25    2    1    2    0    0 -0.20768676754E+01 -0.56834370947E+02 -0.38010343554E+03  0.40417796994E+03  0.12508697203E+03 0.  0.
          5    1    3    3  502    0 -0.20265006446E+02  0.35537210769E+02 -0.14974688927E+03  0.15529058916E+03  0.41800000000E+01 0.  1.
         -5    1    3    3    0  502  0.18188138771E+02 -0.92371581716E+02 -0.23035654627E+03  0.24888738078E+03  0.41800000000E+01 0.  1.
        -11    1    1    2    0    0  0.16000221167E+02 -0.21996964232E+02 -0.50394801415E+02  0.57267002038E+02  0.00000000000E+00 0.  1.
         11    1    1    2    0    0 -0.13923353491E+02  0.78831335179E+02 -0.14677614938E+03  0.16718695286E+03  0.00000000000E+00 0. -1.
</event>
<event>
 7    1  0.2380582E-009  0.2727548E+03  0.7561462E-02  0.1099713E+00
         -2   -1    0    0    0  501 -0.00000000000E+00  0.00000000000E+00  0.48979573555E+02  0.48979573555E+02  0.00000000000E+00 0.  1.
          2   -1    0    0  501    0  0.00000000000E+00 -0.00000000000E+00 -0.15345940142E+04  0.15345940142E+04  0.00000000000E+00 0. -1.
         25    2    1    2    0    0 -0.22061009125E+03 -0.11975012184E+03 -0.80703295698E+03  0.85437619618E+03  0.12509031498E+03 0.  0.
          5    1    3    3  502    0 -0.47948396982E+02 -0.92490421521E+02 -0.34286080835E+03  0.35836368838E+03  0.41800000000E+01 0.  1.
         -5    1    3    3    0  502 -0.17266169427E+03 -0.27259700323E+02 -0.46417214863E+03  0.49601250780E+03  0.41800000000E+01 0.  1.
        -11    1    1    2    0    0  0.17353922283E+03  0.13167222780E+03 -0.53604669422E+03  0.57861860998E+03  0.00000000000E+00 0. -1.
         11    1    1    2    0    0  0.47070868427E+02 -0.11922105955E+02 -0.14253478948E+03  0.15057878163E+03  0.00000000000E+00 0.  1.
</event>
<event>
 7    1  0.2380582E-009  0.7000152E+02  0.7561462E-02  0.1360088E+00
          1   -1    0    0  501    0  0.00000000000E+00  0.00000000000E+00  0.36849348133E+03  0.36849348133E+03  0.00000000000E+00 0. -1.
         -1   -1    0    0    0  501 -0.00000000000E+00 -0.00000000000E+00 -0.45366599885E+02  0.45366599885E+02  0.00000000000E+00 0.  1.
         25    2    1    2    0    0  0.59453435463E+02 -0.23589534864E+02  0.21252618250E+03  0.25476520118E+03  0.12508697910E+03 0.  0.
          5    1    3    3  502    0  0.33483765687E+02 -0.21301138893E+02  0.22286541509E+03  0.22640973196E+03  0.41800000000E+01 0.  1.
         -5    1    3    3    0  502  0.25969669777E+02 -0.22883959705E+01 -0.10339232585E+02  0.28355469223E+02  0.41800000000E+01 0.  1.
        -11    1    1    2    0    0 -0.17467876545E+02 -0.98200998926E+01  0.10296642741E+03  0.10489826617E+03  0.00000000000E+00 0. -1.
         11    1    1    2    0    0 -0.41985558918E+02  0.33409634756E+02  0.76342715334E+01  0.54196613862E+02  0.00000000000E+00 0.  1.
</event>
<event>
 7    1  0.2380582E-009  0.9796777E+02  0.7561462E-02  0.1284628E+00
          1   -1    0    0  501    0  0.00000000000E+00  0.00000000000E+00  0.16380951808E+03  0.16380951808E+03  0.00000000000E+00 0. -1.
         -1   -1    0    0    0  501 -0.00000000000E+00 -0.00000000000E+00 -0.97516601034E+02  0.97516601034E+02  0.00000000000E+00 0.  1.
         25    2    1    2    0    0 -0.44882696061E+01  0.26761063808E+00 -0.30638463257E+02  0.12886126144E+03  0.12508514336E+03 0.  0.
          5    1    3    3  502    0 -0.44322321531E+02  0.46228994457E+02 -0.16906414771E+02  0.66369325557E+02  0.41800000000E+01 0. -1.
         -5    1    3    3    0  502  0.39834051925E+02 -0.45961383819E+02 -0.13732048485E+02  0.62491935887E+02  0.41800000000E+01 0. -1.
        -11    1    1    2    0    0 -0.29939847345E+02  0.14575933608E+02  0.56386292004E+01  0.33773457608E+02  0.00000000000E+00 0.  1.
         11    1    1    2    0    0  0.34428116951E+02 -0.14843544246E+02  0.91292751107E+02  0.98691400067E+02  0.00000000000E+00 0. -1.
</event>
<event>
 7    1  0.2380582E-009  0.9741039E+02  0.7561462E-02  0.1285838E+00
         -2   -1    0    0    0  501 -0.00000000000E+00  0.00000000000E+00  0.40128350666E+02  0.40128350666E+02  0.00000000000E+00 0.  1.
          2   -1    0    0  501    0  0.00000000000E+00 -0.00000000000E+00 -0.37202030446E+03  0.37202030446E+03  0.00000000000E+00 0. -1.
         25    2    1    2    0    0 -0.49738917893E+02  0.21968030793E+02 -0.17415320051E+03  0.22120929681E+03  0.12509061282E+03 0.  0.
          5    1    3    3  502    0  0.20097050234E+02 -0.35595545594E+02 -0.83406606946E+02  0.92978861987E+02  0.41800000000E+01 0.  1.
         -5    1    3    3    0  502 -0.69835968127E+02  0.57563576387E+02 -0.90746593562E+02  0.12823043482E+03  0.41800000000E+01 0.  1.
        -11    1    1    2    0    0  0.22131473167E+01 -0.14923793777E+02  0.88974382817E+01  0.17515194824E+02  0.00000000000E+00 0.  1.
         11    1    1    2    0    0  0.47525770577E+02 -0.70442370164E+01 -0.16663619156E+03  0.17342416349E+03  0.00000000000E+00 0. -1.
</event>
<event>
 7    1  0.2531282E-009  0.1304634E+03  0.7561462E-02  0.1226770E+00
         -2   -1    0    0    0  501 -0.00000000000E+00  0.00000000000E+00  0.54435947520E+02  0.54435947520E+02  0.00000000000E+00 0.  1.
          2   -1    0    0  501    0  0.00000000000E+00 -0.00000000000E+00 -0.61898409417E+03  0.61898409417E+03  0.00000000000E+00 0. -1.
         25    2    1    2    0    0 -0.88504307969E+02  0.61765930650E+02 -0.48292881255E+03  0.51040697101E+03  0.12508795045E+03 0.  0.
          5    1    3    3  502    0 -0.47191439437E+02  0.63441314486E+02 -0.45127134331E+03  0.45816495941E+03  0.41800000000E+01 0.  1.
         -5    1    3    3    0  502 -0.41312868532E+02 -0.16753838354E+01 -0.31657469244E+02  0.52242011603E+02  0.41800000000E+01 0.  1.
        -11    1    1    2    0    0  0.29193533654E+02 -0.74071145969E+02 -0.37084475004E+02  0.87829695198E+02  0.00000000000E+00 0.  1.
         11    1    1    2    0    0  0.59310774315E+02  0.12305215319E+02 -0.44534859094E+02  0.75183375479E+02  0.00000000000E+00 0. -1.
</event>
<event>
 7    1  0.2380582E-009  0.1119053E+03  0.7561462E-02  0.1257082E+00
         -1   -1    0    0    0  501 -0.00000000000E+00  0.00000000000E+00  0.12268429789E+03  0.12268429789E+03  0.00000000000E+00 0.  1.
          1   -1    0    0  501    0  0.00000000000E+00 -0.00000000000E+00 -0.17178461007E+03  0.17178461007E+03  0.00000000000E+00 0. -1.
         25    2    1    2    0    0 -0.61852324572E+02 -0.36633509744E+02  0.39914930985E+02  0.14969442937E+03  0.12508995315E+03 0.  0.
          5    1    3    3  502    0  0.29922930244E+02  0.19653099555E+02  0.15420081065E+02  0.39203027646E+02  0.41800000000E+01 0. -1.
         -5    1    3    3    0  502 -0.91775254816E+02 -0.56286609299E+02  0.24494849919E+02  0.11049140173E+03  0.41800000000E+01 0. -1.
        -11    1    1    2    0    0  0.47463948286E+02  0.82115182933E+01 -0.10006568769E+03  0.11105582953E+03  0.00000000000E+00 0. -1.
         11    1    1    2    0    0  0.14388376285E+02  0.28421991451E+02  0.11050444524E+02  0.33718649058E+02  0.00000000000E+00 0.  1.
</event>
<event>
 7    1  0.3149294E-009  0.1229131E+03  0.7561462E-02  0.1238367E+00
          2   -1    0    0  501    0  0.00000000000E+00  0.00000000000E+00  0.85890643610E+03  0.85890643610E+03  0.00000000000E+00 0. -1.
         -2   -1    0    0    0  501 -0.00000000000E+00 -0.00000000000E+00 -0.24256046173E+02  0.24256046173E+02  0.00000000000E+00 0.  1.
         25    2    1    2    0    0  0.85519174988E+02 -0.24355617251E+02  0.35677693383E+03  0.38838630708E+03  0.12508963838E+03 0.  0.
          5    1    3    3  502    0  0.62335703540E+02 -0.56936186582E+02  0.11193535667E+03  0.14026569699E+03  0.41800000000E+01 0. -1.
         -5    1    3    3    0  502  0.23183471448E+02  0.32580569331E+02  0.24484157716E+03  0.24812061009E+03  0.41800000000E+01 0. -1.
        -11    1    1    2    0    0 -0.38951281438E+02  0.53485136118E+02  0.17769848151E+03  0.18961701518E+03  0.00000000000E+00 0.  1.
         11    1    1    2    0    0 -0.46567893550E+02 -0.29129518867E+02  0.30017497458E+03  0.30515916002E+03  0.00000000000E+00 0. -1.
</event>
<event>
 7    1  0.2380582E-009  0.1043000E+03  0.7561462E-02  0.1271505E+00
         -2   -1    0    0    0  501 -0.00000000000E+00  0.00000000000E+00  0.53386752356E+02  0.53386752356E+02  0.00000000000E+00 0.  1.
          2   -1    0    0  501    0  0.00000000000E+00 -0.00000000000E+00 -0.27769666930E+03  0.27769666930E+03  0.00000000000E+00 0. -1.
         25    2    1    2    0    0  0.34469318901E+01  0.52587405883E+02 -0.14210915736E+03  0.19651859097E+03  0.12508887798E+03 0.  0.
          5    1    3    3  502    0  0.48469733422E+02  0.50502918011E+02 -0.31244415946E+02  0.76769432156E+02  0.41800000000E+01 0.  1.
         -5    1    3    3    0  502 -0.45022801532E+02  0.20844878717E+01 -0.11086474141E+03  0.11974915881E+03  0.41800000000E+01 0.  1.
        -11    1    1    2    0    0  0.12379927069E+02  0.17457236287E+02  0.46202440195E+01  0.21894390784E+02  0.00000000000E+00 0.  1.
         11    1    1    2    0    0 -0.15826858959E+02 -0.70044642170E+02 -0.86821003600E+02  0.11267043990E+03  0.00000000000E+00 0. -1.
</event>
<event>
 7    1  0.2380582E-009  0.1122883E+03  0.7561462E-02  0.1256390E+00
          2   -1    0    0  501    0  0.00000000000E+00  0.00000000000E+00  0.13290081636E+03  0.13290081636E+03  0.00000000000E+00 0. -1.
         -2   -1    0    0    0  501 -0.00000000000E+00 -0.00000000000E+00 -0.14108682025E+03  0.14108682025E+03  0.00000000000E+00 0.  1.
         25    2    1    2    0    0 -0.77608057779E+02  0.16968534742E+02 -0.26049133776E+01  0.14820917473E+03  0.12509289387E+03 0.  0.
          5    1    3    3  502    0 -0.56465802503E+02  0.44528650487E+02  0.48092623061E+02  0.86611548649E+02  0.41800000000E+01 0.  1.
         -5    1    3    3    0  502 -0.21142255276E+02 -0.27560115744E+02 -0.50697536439E+02  0.61597626082E+02  0.41800000000E+01 0.  1.
        -11    1    1    2    0    0  0.65164219072E+02  0.27981164715E+02  0.18496113838E+02  0.73290021511E+02  0.00000000000E+00 0.  1.
         11    1    1    2    0    0  0.12443838707E+02 -0.44949699458E+02 -0.24077204355E+02  0.52488440372E+02  0.00000000000E+00 0. -1.
</event>
<event>
 7    1  0.2380582E-009  0.1100413E+03  0.7561462E-02  0.1260493E+00
          1   -1    0    0  501    0  0.00000000000E+00  0.00000000000E+00  0.35120012175E+03  0.35120012175E+03  0.00000000000E+00 0. -1.
         -1   -1    0    0    0  501 -0.00000000000E+00 -0.00000000000E+00 -0.49213934360E+02  0.49213934360E+02  0.00000000000E+00 0.  1.
         25    2    1    2    0    0  0.75139907999E+02 -0.26427079132E+02  0.18050496944E+03  0.23361011630E+03  0.12508895300E+03 0.  0.
          5    1    3    3  502    0  0.66417140033E+02  0.14274948714E+02  0.17927079119E+03  0.19175635485E+03  0.41800000000E+01 0. -1.
         -5    1    3    3    0  502  0.87227679664E+01 -0.40702027846E+02  0.12341782439E+01  0.41853761452E+02  0.41800000000E+01 0. -1.
        -11    1    1    2    0    0  0.20436205078E+01 -0.20006373279E+02  0.42453960629E+02  0.46976271986E+02  0.00000000000E+00 0. -1.
         11    1    1    2    0    0 -0.77183528507E+02  0.46433452411E+02  0.79027257324E+02  0.11982766782E+03  0.00000000000E+00 0.  1.
</event>
<event>
 7    1  0.2380582E-009  0.1165684E+03  0.7561462E-02  0.1248868E+00
          1   -1    0    0  501    0  0.00000000000E+00  0.00000000000E+00  0.82349859488E+03  0.82349859488E+03  0.00000000000E+00 0. -1.
         -1   -1    0    0    0  501 -0.00000000000E+00 -0.00000000000E+00 -0.18868051254E+02  0.18868051254E+02  0.00000000000E+00 0.  1.
         25    2    1    2    0    0  0.59358707878E+02 -0.67927342842E+01  0.45310876787E+03  0.47383718663E+03  0.12507808150E+03 0.  0.
          5    1    3    3  502    0  0.83862588838E+02  0.21274564713E+02  0.39710268349E+03  0.40644009958E+03  0.41800000000E+01 0. -1.
         -5    1    3    3    0  502 -0.24503880961E+02 -0.28067298997E+02  0.56006084376E+02  0.67397087046E+02  0.41800000000E+01 0. -1.
        -11    1    1    2    0    0  0.24363470788E+02  0.68284328006E+01  0.57515515750E+02  0.62835028092E+02  0.00000000000E+00 0.  1.
         11    1    1    2    0    0 -0.83722178666E+02 -0.35698516455E-01  0.29400626001E+03  0.30569443142E+03  0.00000000000E+00 0. -1.
</event>
<event>
 7    1  0.2380582E-009  0.2656741E+03  0.7561462E-02  0.1103781E+00
         -2   -1    0    0    0  501 -0.00000000000E+00  0.00000000000E+00  0.14424217457E+03  0.14424217457E+03  0.00000000000E+00 0.  1.
          2   -1    0    0  501    0  0.00000000000E+00 -0.00000000000E+00 -0.82273697036E+03  0.82273697036E+03  0.00000000000E+00 0. -1.
         25    2    1    2    0    0  0.88759151071E+02 -0.24176781493E+03 -0.62326889115E+02  0.29302205150E+03  0.12508964116E+03 0.  0.
          5    1    3    3  502    0 -0.13905013370E+02 -0.34454491711E+02  0.25802085045E+02  0.45427760109E+02  0.41800000000E+01 0. -1.
         -5    1    3    3    0  502  0.10266416444E+03 -0.20731332321E+03 -0.88128974160E+02  0.24759429139E+03  0.41800000000E+01 0. -1.
        -11    1    1    2    0    0 -0.32348663214E+02  0.16002933067E+03 -0.46731554010E+03  0.49501478433E+03  0.00000000000E+00 0.  1.
         11    1    1    2    0    0 -0.56410487858E+02  0.81738484259E+02 -0.14885236658E+03  0.17894230910E+03  0.00000000000E+00 0. -1.
</event>
<event>
 7    1  0.2380582E-009  0.1122380E+03  0.7561462E-02  0.1256481E+00
         -2   -1    0    0    0  501 -0.00000000000E+00  0.00000000000E+00  0.56479204600E+02  0.56479204600E+02  0.00000000000E+00 0.  1.
          2   -1    0    0  501    0  0.00000000000E+00 -0.00000000000E+00 -0.32532288794E+03  0.32532288794E+03  0.00000000000E+00 0. -1.
         25    2    1    2    0    0  0.35829178577E+02  0.68499487349E+02 -0.11388388144E+03  0.18599139869E+03  0.12508937657E+03 0.  0.
          5    1    3    3  502    0 -0.76961493995E+01  0.92366390431E+02 -0.94796006122E+02  0.13264439669E+03  0.41800000000E+01 0.  1.
         -5    1    3    3    0  502  0.43525327977E+02 -0.23866903083E+02 -0.19087875321E+02  0.53347002001E+02  0.41800000000E+01 0.  1.
        -11    1    1    2    0    0  0.13403699136E+01 -0.23396299325E+02  0.63163715097E+01  0.24270969545E+02  0.00000000000E+00 0.  1.
         11    1    1    2    0    0 -0.37169548491E+02 -0.45103188024E+02 -0.16127617341E+03  0.17153972430E+03  0.00000000000E+00 0. -1.
</event>
<event>
 7    1  0.2380582E-009  0.1261511E+03  0.7561462E-02  0.1233281E+00
         -2   -1    0    0    0  501 -0.00000000000E+00  0.00000000000E+00  0.45820774743E+03  0.45820774743E+03  0.00000000000E+00 0.  1.
          2   -1    0    0  501    0  0.00000000000E+00 -0.00000000000E+00 -0.48341450839E+02  0.48341450839E+02  0.00000000000E+00 0. -1.
         25    2    1    2    0    0  0.41953114962E+01 -0.93110813002E+02  0.15738578917E+03  0.22159835818E+03  0.12509325153E+03 0.  0.
          5    1    3    3  502    0 -0.48443476130E+02  0.28973469447E+00  0.52406582046E+02  0.71489695533E+02  0.41800000000E+01 0.  1.
         -5    1    3    3    0  502  0.52638787626E+02 -0.93400547696E+02  0.10497920712E+03  0.15010866265E+03  0.41800000000E+01 0.  1.
        -11    1    1    2    0    0  0.96390715846E+01  0.55035089525E+02  0.40180908238E+02  0.68820623121E+02  0.00000000000E+00 0. -1.
         11    1    1    2    0    0 -0.13834383081E+02  0.38075723477E+02  0.21229959918E+03  0.21613021697E+03  0.00000000000E+00 0.  1.
</event>
<event>
 7    1  0.2380582E-009  0.1346922E+03  0.7561462E-02  0.1220655E+00
          1   -1    0    0  501    0  0.00000000000E+00  0.00000000000E+00  0.10803404132E+03  0.10803404132E+03  0.00000000000E+00 0. -1.
         -1   -1    0    0    0  501 -0.00000000000E+00 -0.00000000000E+00 -0.26837256247E+03  0.26837256247E+03  0.00000000000E+00 0.  1.
         25    2    1    2    0    0  0.57453306119E+02 -0.84153765799E+02  0.38983643290E+01  0.16138517206E+03  0.12508891971E+03 0.  0.
          5    1    3    3  502    0  0.39519144046E+02 -0.11404593195E+03  0.20583889953E+02  0.12251288204E+03  0.41800000000E+01 0.  1.
         -5    1    3    3    0  502  0.17934162073E+02  0.29892166147E+02 -0.16685525624E+02  0.38872290022E+02  0.41800000000E+01 0.  1.
        -11    1    1    2    0    0 -0.34857886781E+02  0.83959289676E+02 -0.61326171238E+02  0.10965917140E+03  0.00000000000E+00 0. -1.
         11    1    1    2    0    0 -0.22595419338E+02  0.19447612281E+00 -0.10291071424E+03  0.10536226033E+03  0.00000000000E+00 0.  1.
</event>
<event>
 7    1  0.2380582E-009  0.1172756E+03  0.7561462E-02  0.1247660E+00
          1   -1    0    0  501    0  0.00000000000E+00  0.00000000000E+00  0.18026728889E+03  0.18026728889E+03  0.00000000000E+00 0. -1.
         -1   -1    0    0    0  501 -0.00000000000E+00 -0.00000000000E+00 -0.81337074390E+02  0.81337074390E+02  0.00000000000E+00 0.  1.
         25    2    1    2    0    0 -0.45113632880E+02 -0.32693990416E+01  0.85600530419E+02  0.15818015039E+03  0.12509028870E+03 0.  0.
          5    1    3    3  502    0  0.42081391005E+02  0.12445112737E+02  0.24024601372E+02  0.50203368124E+02  0.41800000000E+01 0. -1.
         -5    1    3    3    0  502 -0.87195023886E+02 -0.15714511778E+02  0.61575929047E+02  0.10797678227E+03  0.41800000000E+01 0. -1.
        -11    1    1    2    0    0  0.72890356306E+02 -0.41887167064E+01  0.37374190858E+01  0.73106208297E+02  0.00000000000E+00 0.  1.
         11    1    1    2    0    0 -0.27776723426E+02  0.74581157480E+01  0.95922649990E+01  0.30318004595E+02  0.00000000000E+00 0. -1.
</event>
<event>
 7    1  0.2380582E-009  0.1918367E+03  0.7561462E-02  0.1156815E+00
          2   -1    0    0  501    0  0.00000000000E+00  0.00000000000E+00  0.18966842915E+04  0.18966842915E+04  0.00000000000E+00 0.  1.
         -2   -1    0    0    0  501 -0.00000000000E+00 -0.00000000000E+00 -0.46542883117E+02  0.46542883117E+02  0.00000000000E+00 0. -1.
         25    2    1    2    0    0  0.15175596795E+03 -0.84834562445E+02  0.16459327207E+04  0.16598098348E+04  0.12508952803E+03 0.  0.
          5    1    3    3  502    0  0.10750554168E+03  0.19918143306E+01  0.10982457567E+04  0.11035047001E+04  0.41800000000E+01 0. -1.
         -5    1    3    3    0  502  0.44250426269E+02 -0.86826376776E+02  0.54768696399E+03  0.55630513466E+03  0.41800000000E+01 0. -1.
        -11    1    1    2    0    0 -0.52799048739E+02  0.83462762905E+01  0.12348285477E+03  0.13455636477E+03  0.00000000000E+00 0.  1.
         11    1    1    2    0    0 -0.98956919211E+02  0.76488286155E+02  0.80725832918E+02  0.14886097500E+03  0.00000000000E+00 0. -1.
</event>
<event>
 7    1  0.2380582E-009  0.1139649E+03  0.7561462E-02  0.1253399E+00
          1   -1    0    0  501    0  0.00000000000E+00  0.00000000000E+00  0.19517572648E+03  0.19517572648E+03  0.00000000000E+00 0. -1.
         -1   -1    0    0    0  501 -0.00000000000E+00 -0.00000000000E+00 -0.94547732278E+02  0.94547732278E+02  0.00000000000E+00 0.  1.
         25    2    1    2    0    0 -0.66989472426E+02 -0.29440443912E+02  0.17935401729E+02  0.14602609236E+03  0.12509041474E+03 0.  0.
          5    1    3    3  502    0 -0.90604209404E+02 -0.57767008443E+02  0.94150071017E+01  0.10794565663E+03  0.41800000000E+01 0. -1.
         -5    1    3    3    0  502  0.23614736978E+02  0.28326564531E+02  0.85203946276E+01  0.38080435729E+02  0.41800000000E+01 0. -1.
        -11    1    1    2    0    0  0.58145698525E+02  0.62738547825E+01  0.11786123031E+01  0.58495065072E+02  0.00000000000E+00 0. -1.
         11    1    1    2    0    0  0.88437739007E+01  0.23166589130E+02  0.81513980168E+02  0.85202301328E+02  0.00000000000E+00 0.  1.
</event>
<event>
 7    1  0.2380582E-009  0.9945421E+02  0.7561462E-02  0.1281448E+00
          2   -1    0    0  501    0  0.00000000000E+00  0.00000000000E+00  0.67847510690E+03  0.67847510690E+03  0.00000000000E+00 0.  1.
         -2   -1    0    0    0  501 -0.00000000000E+00 -0.00000000000E+00 -0.17571207160E+02  0.17571207160E+02  0.00000000000E+00 0. -1.
         25    2    1    2    0    0 -0.19166733205E+02  0.14981281783E+02  0.40294093852E+03  0.42261267266E+03  0.12509304016E+03 0.  0.
          5    1    3    3  502    0 -0.51147899090E+02  0.48073495191E+02  0.32031588943E+03  0.32794345541E+03  0.41800000000E+01 0. -1.
         -5    1    3    3    0  502  0.31981165885E+02 -0.33092213408E+02  0.82625049083E+02  0.94669217255E+02  0.41800000000E+01 0. -1.
        -11    1    1    2    0    0  0.13980793913E+02  0.32100943810E+02  0.56436735850E+02  0.66415648347E+02  0.00000000000E+00 0. -1.
         11    1    1    2    0    0  0.51859392921E+01 -0.47082225593E+02  0.20152622537E+03  0.20701799305E+03  0.00000000000E+00 0.  1.
</event>
<event>
 7    1  0.2380582E-009  0.8552348E+02  0.7561462E-02  0.1314069E+00
          1   -1    0    0  501    0  0.00000000000E+00  0.00000000000E+00  0.52108717746E+03  0.52108717746E+03  0.00000000000E+00 0. -1.
         -1   -1    0    0    0  501 -0.00000000000E+00 -0.00000000000E+00 -0.28290046448E+02  0.28290046448E+02  0.00000000000E+00 0.  1.
         25    2    1    2    0    0 -0.30653063115E+02  0.36921447928E+02  0.24084878560E+03  0.27560725998E+03  0.12509364745E+03 0.  0.
          5    1    3    3  502    0  0.21129447630E+02  0.12897893649E+02  0.20821088116E+03  0.20971898495E+03  0.41800000000E+01 0.  1.
         -5    1    3    3    0  502 -0.51782510745E+02  0.24023554279E+02  0.32637904444E+02  0.65888275025E+02  0.41800000000E+01 0.  1.
        -11    1    1    2    0    0  0.38547175191E+02  0.11040951651E+02  0.19415954139E+03  0.19825668927E+03  0.00000000000E+00 0. -1.
         11    1    1    2    0    0 -0.78941120755E+01 -0.47962399579E+02  0.57788804013E+02  0.75513274649E+02  0.00000000000E+00 0.  1.
</event>
<event>
 7    1  0.2380582E-009  0.1054669E+03  0.7561462E-02  0.1269203E+00
         -1   -1    0    0    0  501 -0.00000000000E+00  0.00000000000E+00  0.14826342559E+03  0.14826342559E+03  0.00000000000E+00 0.  1.
          1   -1    0    0  501    0  0.00000000000E+00 -0.00000000000E+00 -0.12748348281E+03  0.12748348281E+03  0.00000000000E+00 0. -1.
         25    2    1    2    0    0 -0.86657232114E+02 -0.69182686710E+00  0.42763113086E+00  0.15218234160E+03  0.12509727305E+03 0.  0.
          5    1    3    3  502    0 -0.27791118748E+02 -0.39411606221E+02 -0.46741378887E+02  0.67289299940E+02  0.41800000000E+01 0.  1.
         -5    1    3    3    0  502 -0.58866113366E+02  0.38719779354E+02  0.47169010018E+02  0.84893041658E+02  0.41800000000E+01 0.  1.
        -11    1    1    2    0    0  0.72447255827E+02  0.12440566778E+02  0.49822938773E+02  0.88801451602E+02  0.00000000000E+00 0.  1.
         11    1    1    2    0    0  0.14209976286E+02 -0.11748739911E+02 -0.29470627127E+02  0.34763115205E+02  0.00000000000E+00 0. -1.
</event>
<event>
 7    1  0.2380582E-009  0.2214487E+03  0.7561462E-02  0.1132808E+00
         -2   -1    0    0    0  501 -0.00000000000E+00  0.00000000000E+00  0.10272928069E+03  0.10272928069E+03  0.00000000000E+00 0.  1.
          2   -1    0    0  501    0  0.00000000000E+00 -0.00000000000E+00 -0.58306279735E+03  0.58306279735E+03  0.00000000000E+00 0. -1.
         25    2    1    2    0    0  0.20651149099E+03 -0.72649990804E+02 -0.23617946802E+03  0.34547581841E+03  0.12509109846E+03 0.  0.
          5    1    3    3  502    0  0.19022924146E+03 -0.58221559533E+02 -0.13157331765E+03  0.23854962716E+03  0.41800000000E+01 0. -1.
         -5    1    3    3    0  502  0.16282249524E+02 -0.14428431271E+02 -0.10460615037E+03  0.10692619124E+03  0.41800000000E+01 0. -1.
        -11    1    1    2    0    0 -0.13692886753E+03  0.30095211511E+02 -0.20861245167E+03  0.25134516409E+03  0.00000000000E+00 0.  1.
         11    1    1    2    0    0 -0.69582623459E+02  0.42554779293E+02 -0.35541596958E+02  0.88971095545E+02  0.00000000000E+00 0. -1.
</event>
<event>
 7    1  0.2380582E-009  0.7819484E+02  0.7561462E-02  0.1334254E+00
         -2   -1    0    0    0  501 -0.00000000000E+00  0.00000000000E+00  0.27916913905E+02  0.27916913905E+02  0.00000000000E+00 0.  1.
          2   -1    0    0  501    0  0.00000000000E+00 -0.00000000000E+00 -0.43053356603E+03  0.43053356603E+03  0.00000000000E+00 0. -1.
         25    2    1    2    0    0 -0.95646691761E+01  0.55052560472E+01 -0.20793063374E+03  0.24290734118E+03  0.12508811778E+03 0.  0.
          5    1    3    3  502    0 -0.10652865852E+02  0.36757671798E+02 -0.65265161906E+01  0.39047122819E+02  0.41800000000E+01 0. -1.
         -5    1    3    3    0  502  0.10881966757E+01 -0.31252415751E+02 -0.20140411755E+03  0.20386021836E+03  0.41800000000E+01 0. -1.
        -11    1    1    2    0    0  0.14320893937E+02 -0.44659936974E+02 -0.14320560788E+03  0.15068989383E+03  0.00000000000E+00 0. -1.
         11    1    1    2    0    0 -0.47562247613E+01  0.39154680926E+02 -0.51480410507E+02  0.64853244934E+02  0.00000000000E+00 0.  1.
</event>
<event>
 7    1  0.2380582E-009  0.1028155E+03  0.7561462E-02  0.1274484E+00
         -1   -1    0    0    0  501 -0.00000000000E+00  0.00000000000E+00  0.13474235106E+03  0.13474235106E+03  0.00000000000E+00 0.  1.
          1   -1    0    0  501    0  0.00000000000E+00 -0.00000000000E+00 -0.11161425173E+03  0.11161425173E+03  0.00000000000E+00 0. -1.
         25    2    1    2    0    0  0.99434989297E+01 -0.50896423675E+02 -0.13967305271E+02  0.13612543844E+03  0.12508289356E+03 0.  0.
          5    1    3    3  502    0 -0.33632356231E+02  0.10472187660E+01 -0.49082920821E+02  0.59655993572E+02  0.41800000000E+01 0. -1.
         -5    1    3    3    0  502  0.43575855160E+02 -0.51943642441E+02  0.35115615549E+02  0.76469444868E+02  0.41800000000E+01 0. -1.
        -11    1    1    2    0    0 -0.42267728448E+02  0.56935911348E+02  0.24700795979E+02  0.75089201562E+02  0.00000000000E+00 0.  1.
         11    1    1    2    0    0  0.32324229518E+02 -0.60394876726E+01  0.12394608625E+02  0.35141962784E+02  0.00000000000E+00 0. -1.
</event>
<event>
 7    1  0.2380582E-009  0.1122097E+03  0.7561462E-02  0.1256532E+00
          1   -1    0    0  501    0  0.00000000000E+00  0.00000000000E+00  0.30776087380E+02  0.30776087380E+02  0.00000000000E+00 0. -1.
         -1   -1    0    0    0  501 -0.00000000000E+00 -0.00000000000E+00 -0.46322945621E+03  0.46322945621E+03  0.00000000000E+00 0.  1.
         25    2    1    2    0    0 -0.46416281079E+02  0.14546245737E+02 -0.25636006830E+03  0.28936919256E+03  0.12509188849E+03 0.  0.
          5    1    3    3  502    0  0.12194230125E+02 -0.44712144815E+02 -0.12868563711E+03  0.13684056687E+03  0.41800000000E+01 0. -1.
         -5    1    3    3    0  502 -0.58610511204E+02  0.59258390552E+02 -0.12767443119E+03  0.15252862569E+03  0.41800000000E+01 0. -1.
        -11    1    1    2    0    0  0.19656595295E+02  0.33843696243E+02 -0.32872107432E+02  0.51111182348E+02  0.00000000000E+00 0. -1.
         11    1    1    2    0    0  0.26759685784E+02 -0.48389941980E+02 -0.14322119309E+03  0.15352516868E+03  0.00000000000E+00 0.  1.
</event>
<event>
 7    1  0.2380582E-009  0.3021531E+03  0.7561462E-02  0.1084169E+00
         -2   -1    0    0    0  501 -0.00000000000E+00  0.00000000000E+00  0.31768744546E+03  0.31768744546E+03  0.00000000000E+00 0.  1.
          2   -1    0    0  501    0  0.00000000000E+00 -0.00000000000E+00 -0.40731282968E+03  0.40731282968E+03  0.00000000000E+00 0. -1.
         25    2    1    2    0    0  0.26380006631E+03 -0.13231737294E+03  0.12925763088E+03  0.34562565935E+03  0.12510475249E+03 0.  0.
          5    1    3    3  502    0  0.13038179759E+03 -0.11015916060E+03  0.20382660860E+02  0.17195167655E+03  0.41800000000E+01 0.  1.
         -5    1    3    3    0  502  0.13341826873E+03 -0.22158212337E+02  0.10887497002E+03  0.17367398280E+03  0.41800000000E+01 0.  1.
        -11    1    1    2    0    0 -0.16636138167E+03  0.59755194053E+02 -0.17883950328E+03  0.25145647827E+03  0.00000000000E+00 0. -1.
         11    1    1    2    0    0 -0.97438684639E+02  0.72562178887E+02 -0.40043511819E+02  0.12791813752E+03  0.00000000000E+00 0.  1.
</event>
<event>
 7    1  0.2380582E-009  0.1125846E+03  0.7561462E-02  0.1255857E+00
         -2   -1    0    0    0  501 -0.00000000000E+00  0.00000000000E+00  0.14573982553E+03  0.14573982553E+03  0.00000000000E+00 0.  1.
          2   -1    0    0  501    0  0.00000000000E+00 -0.00000000000E+00 -0.10243312398E+03  0.10243312398E+03  0.00000000000E+00 0. -1.
         25    2    1    2    0    0 -0.51271142502E+02 -0.18872319119E+02  0.12673336131E+02  0.13708849861E+03  0.12509096098E+03 0.  0.
          5    1    3    3  502    0  0.32510745912E+02 -0.13582438757E+01 -0.27158000660E+02  0.42588998885E+02  0.41800000000E+01 0. -1.
         -5    1    3    3    0  502 -0.83781888414E+02 -0.17514075243E+02  0.39831336791E+02  0.94499499725E+02  0.41800000000E+01 0. -1.
        -11    1    1    2    0    0  0.21518032493E+02 -0.37323136869E+02  0.14844449540E+02  0.45567531755E+02  0.00000000000E+00 0.  1.
         11    1    1    2    0    0  0.29753110010E+02  0.56195455987E+02  0.15788915878E+02  0.65516919139E+02  0.00000000000E+00 0. -1.
</event>
<event>
 7    1  0.2380582E-009  0.2017554E+03  0.7561462E-02  0.1148266E+00
         -2   -1    0    0    0  501 -0.00000000000E+00  0.00000000000E+00  0.12037620211E+03  0.12037620211E+03  0.00000000000E+00 0.  1.
          2   -1    0    0  501    0  0.00000000000E+00 -0.00000000000E+00 -0.45930207724E+03  0.45930207724E+03  0.00000000000E+00 0. -1.
         25    2    1    2    0    0  0.18774530460E+03  0.36356752521E+02 -0.27663501692E+03  0.35880980705E+03  0.12508969660E+03 0.  0.
          5    1    3    3  502    0  0.16872485433E+03  0.60595814719E+02 -0.16768932547E+03  0.24551397416E+03  0.41800000000E+01 0.  1.
         -5    1    3    3    0  502  0.19020450264E+02 -0.24239062198E+02 -0.10894569145E+03  0.11329583289E+03  0.41800000000E+01 0.  1.
        -11    1    1    2    0    0 -0.10503001808E+03 -0.33812177012E+02  0.10259842753E+02  0.11081440513E+03  0.00000000000E+00 0.  1.
         11    1    1    2    0    0 -0.82715286519E+02 -0.25445755082E+01 -0.72550700962E+02  0.11005406716E+03  0.00000000000E+00 0. -1.
</event>
<event>
 7    1  0.2380582E-009  0.1038408E+03  0.7561462E-02  0.1272420E+00
         -2   -1    0    0    0  501 -0.00000000000E+00  0.00000000000E+00  0.27448639949E+03  0.27448639949E+03  0.00000000000E+00 0.  1.
          2   -1    0    0  501    0  0.00000000000E+00 -0.00000000000E+00 -0.63695628873E+02  0.63695628873E+02  0.00000000000E+00 0. -1.
         25    2    1    2    0    0 -0.59595453116E+02 -0.15772147629E+02  0.17257045087E+03  0.22187461406E+03  0.12508958862E+03 0.  0.
          5    1    3    3  502    0 -0.73995421551E+02  0.39842645972E+01  0.34950973096E+02  0.82038038099E+02  0.41800000000E+01 0. -1.
         -5    1    3    3    0  502  0.14399968435E+02 -0.19756412226E+02  0.13761947777E+03  0.13983657596E+03  0.41800000000E+01 0. -1.
        -11    1    1    2    0    0 -0.88085464050E+00  0.42521811093E+02  0.23383771308E+02  0.48535359112E+02  0.00000000000E+00 0. -1.
         11    1    1    2    0    0  0.60476307756E+02 -0.26749663464E+02  0.14836548444E+02  0.67772055192E+02  0.00000000000E+00 0.  1.
</event>
<event>
 7    1  0.2380582E-009  0.8574809E+02  0.7561462E-02  0.1313488E+00
          2   -1    0    0  501    0  0.00000000000E+00  0.00000000000E+00  0.46432092853E+03  0.46432092853E+03  0.00000000000E+00 0.  1.
         -2   -1    0    0    0  501 -0.00000000000E+00 -0.00000000000E+00 -0.25968107403E+02  0.25968107403E+02  0.00000000000E+00 0. -1.
         25    2    1    2    0    0  0.63643399087E+02 -0.93236308740E+01  0.32342855530E+03  0.35269097989E+03  0.12508990595E+03 0.  0.
          5    1    3    3  502    0  0.67469835383E+02 -0.33268836128E+02  0.87435372009E+02  0.11541841630E+03  0.41800000000E+01 0. -1.
         -5    1    3    3    0  502 -0.38264362965E+01  0.23945205254E+02  0.23599318329E+03  0.23727256358E+03  0.41800000000E+01 0. -1.
        -11    1    1    2    0    0 -0.14120228369E+02 -0.11117115564E+02  0.51656754419E+02  0.54693613747E+02  0.00000000000E+00 0.  1.
         11    1    1    2    0    0 -0.49523170718E+02  0.20440746438E+02  0.63267511409E+02  0.82904442298E+02  0.00000000000E+00 0. -1.
</event>
<event>
 7    1  0.2380582E-009  0.1281154E+03  0.7561462E-02  0.1230279E+00
          2   -1    0    0  501    0  0.00000000000E+00  0.00000000000E+00  0.22530576391E+03  0.22530576391E+03  0.00000000000E+00 0. -1.
         -2   -1    0    0    0  501 -0.00000000000E+00 -0.00000000000E+00 -0.79824521741E+02  0.79824521741E+02  0.00000000000E+00 0.  1.
         25    2    1    2    0    0  0.65181273570E+02 -0.27664916909E+02  0.11801793508E+03  0.18597594642E+03  0.12507946912E+03 0.  0.
          5    1    3    3  502    0  0.93230411575E+02  0.95977261661E+01  0.59765352356E+02  0.11123576643E+03  0.41800000000E+01 0. -1.
         -5    1    3    3    0  502 -0.28049138005E+02 -0.37262643075E+02  0.58252582722E+02  0.74740179994E+02  0.41800000000E+01 0. -1.
        -11    1    1    2    0    0 -0.44506402376E+02  0.61512815479E+02  0.13568120818E+02  0.77128076750E+02  0.00000000000E+00 0. -1.
         11    1    1    2    0    0 -0.20674871194E+02 -0.33847898569E+02  0.13895186269E+02  0.42026262479E+02  0.00000000000E+00 0.  1.
</event>
<event>
 7    1  0.2380582E-009  0.9498490E+02  0.7561462E-02  0.1291210E+00
          2   -1    0    0  501    0  0.00000000000E+00  0.00000000000E+00  0.31132332913E+03  0.31132332913E+03  0.00000000000E+00 0. -1.
         -2   -1    0    0    0  501 -0.00000000000E+00 -0.00000000000E+00 -0.43778074867E+02  0.43778074867E+02  0.00000000000E+00 0.  1.
         25    2    1    2    0    0  0.10629660282E+02  0.36840564072E+02  0.15304665266E+03  0.20134611716E+03  0.12508702638E+03 0.  0.
          5    1    3    3  502    0  0.44406343275E+02  0.28155001818E+02  0.15735295574E+03  0.16595798424E+03  0.41800000000E+01 0.  1.
         -5    1    3    3    0  502 -0.33776682994E+02  0.86855622549E+01 -0.43063030857E+01  0.35388132926E+02  0.41800000000E+01 0.  1.
        -11    1    1    2    0    0  0.42170466414E+02 -0.12694705151E+02  0.57128068365E+02  0.72132655376E+02  0.00000000000E+00 0. -1.
         11    1    1    2    0    0 -0.52800126696E+02 -0.24145858921E+02  0.57370533242E+02  0.81622631461E+02  0.00000000000E+00 0.  1.
</event>
<event>
 7    1  0.2380582E-009  0.1329183E+03  0.7561462E-02  0.1223189E+00
          2   -1    0    0  501    0  0.00000000000E+00  0.00000000000E+00  0.75974217037E+03  0.75974217037E+03  0.00000000000E+00 0. -1.
         -2   -1    0    0    0  501 -0.00000000000E+00 -0.00000000000E+00 -0.39520058538E+02  0.39520058538E+02  0.00000000000E+00 0.  1.
         25    2    1    2    0    0  0.11030462169E+03 -0.66179340814E+02  0.47698251566E+03  0.50961423967E+03  0.12509012078E+03 0.  0.
          5    1    3    3  502    0  0.11114132966E+03 -0.69812884842E+02  0.48350322161E+03  0.50101803536E+03  0.41800000000E+01 0. -1.
         -5    1    3    3    0  502 -0.83670797073E+00  0.36335440281E+01 -0.65207059530E+01  0.85962043111E+01  0.41800000000E+01 0. -1.
        -11    1    1    2    0    0 -0.50713886964E+02  0.35423523378E+02  0.20121315964E+03  0.21050762445E+03  0.00000000000E+00 0. -1.
         11    1    1    2    0    0 -0.59590734721E+02  0.30755817437E+02  0.42026436534E+02  0.79140364787E+02  0.00000000000E+00 0.  1.
</event>
<event>
 7    1  0.2380582E-009  0.2759973E+03  0.7561462E-02  0.1097895E+00
         -2   -1    0    0    0  501 -0.00000000000E+00  0.00000000000E+00  0.25581357559E+03  0.25581357559E+03  0.00000000000E+00 0.  1.
          2   -1    0    0  501    0  0.00000000000E+00 -0.00000000000E+00 -0.36502771877E+03  0.36502771877E+03  0.00000000000E+00 0. -1.
         25    2    1    2    0    0 -0.24349393505E+03  0.10813717285E+03  0.48089045047E+02  0.29823205156E+03  0.12508739250E+03 0.  0.
          5    1    3    3  502    0 -0.15366352101E+03  0.10074154997E+03 -0.20446085252E+02  0.18492390970E+03  0.41800000000E+01 0.  1.
         -5    1    3    3    0  502 -0.89830414046E+02  0.73956228846E+01  0.68535130299E+02  0.11330814186E+03  0.41800000000E+01 0.  1.
        -11    1    1    2    0    0  0.46699093607E+02 -0.58799929003E+02 -0.66614019908E+02  0.10037761027E+03  0.00000000000E+00 0. -1.
         11    1    1    2    0    0  0.19679484145E+03 -0.49337243847E+02 -0.90689168314E+02  0.22223163254E+03  0.00000000000E+00 0.  1.
</event>
<event>
 7    1  0.2380582E-009  0.1787897E+03  0.7561462E-02  0.1168980E+00
         -2   -1    0    0    0  501 -0.00000000000E+00  0.00000000000E+00  0.41913190794E+02  0.41913190794E+02  0.00000000000E+00 0.  1.
          2   -1    0    0  501    0  0.00000000000E+00 -0.00000000000E+00 -0.96223780275E+03  0.96223780275E+03  0.00000000000E+00 0. -1.
         25    2    1    2    0    0  0.16166096155E+03  0.41945587016E+02 -0.51973197375E+03  0.56005601665E+03  0.12509084091E+03 0.  0.
          5    1    3    3  502    0  0.13114976854E+03  0.70161995210E+02 -0.47952525172E+03  0.50208057800E+03  0.41800000000E+01 0.  1.
         -5    1    3    3    0  502  0.30511193013E+02 -0.28216408193E+02 -0.40206722029E+02  0.57975438650E+02  0.41800000000E+01 0.  1.
        -11    1    1    2    0    0 -0.11411128833E+03 -0.29386551437E+02 -0.36455136680E+03  0.38312224494E+03  0.00000000000E+00 0. -1.
         11    1    1    2    0    0 -0.47549673226E+02 -0.12559035579E+02 -0.36041271404E+02  0.60972731963E+02  0.00000000000E+00 0.  1.
</event>
<event>
 7    1  0.2380582E-009  0.1505696E+03  0.7561462E-02  0.1199775E+00
         -1   -1    0    0    0  501 -0.00000000000E+00  0.00000000000E+00  0.54736652226E+03  0.54736652226E+03  0.00000000000E+00 0.  1.
          1   -1    0    0  501    0  0.00000000000E+00 -0.00000000000E+00 -0.43407091009E+02  0.43407091009E+02  0.00000000000E+00 0. -1.
         25    2    1    2    0    0 -0.10188203004E+03  0.37436008016E+02  0.26623955585E+03  0.31354874730E+03  0.12509161879E+03 0.  0.
          5    1    3    3  502    0  0.16300178385E+02 -0.26122118100E+02  0.43065530431E+02  0.53105302755E+02  0.41800000000E+01 0.  1.
         -5    1    3    3    0  502 -0.11818220843E+03  0.63558126116E+02  0.22317402542E+03  0.26044344455E+03  0.41800000000E+01 0.  1.
        -11    1    1    2    0    0  0.71634604131E+02  0.16921193273E+02  0.17010910015E+03  0.18535088142E+03  0.00000000000E+00 0.  1.
         11    1    1    2    0    0  0.30247425913E+02 -0.54357201289E+02  0.67610775257E+02  0.91873984550E+02  0.00000000000E+00 0. -1.
</event>
<event>
 7    1  0.2380582E-009  0.1408365E+03  0.7561462E-02  0.1212208E+00
         -1   -1    0    0    0  501 -0.00000000000E+00  0.00000000000E+00  0.10872207625E+04  0.10872207625E+04  0.00000000000E+00 0.  1.
          1   -1    0    0  501    0  0.00000000000E+00 -0.00000000000E+00 -0.28839834255E+02  0.28839834255E+02  0.00000000000E+00 0. -1.
         25    2    1    2    0    0 -0.87416004509E+02  0.10955828541E+03  0.56341918290E+03  0.59391403540E+03  0.12509248594E+03 0.  0.
          5    1    3    3  502    0 -0.57385302018E+02  0.71801993121E+02  0.13870735656E+03  0.16645060008E+03  0.41800000000E+01 0.  1.
         -5    1    3    3    0  502 -0.30030702491E+02  0.37756292284E+02  0.42471182634E+03  0.42746343531E+03  0.41800000000E+01 0.  1.
        -11    1    1    2    0    0  0.68503306513E+02 -0.96138239239E+02  0.48056366329E+03  0.49485017785E+03  0.00000000000E+00 0.  1.
         11    1    1    2    0    0  0.18912697995E+02 -0.13420046166E+02  0.14398082020E+02  0.27296383468E+02  0.00000000000E+00 0. -1.
</event>
<event>
 7    1  0.2380582E-009  0.1488781E+03  0.7561462E-02  0.1201858E+00
          2   -1    0    0  501    0  0.00000000000E+00  0.00000000000E+00  0.13736736533E+04  0.13736736533E+04  0.00000000000E+00 0. -1.
         -2   -1    0    0    0  501 -0.00000000000E+00 -0.00000000000E+00 -0.19489175042E+02  0.19489175042E+02  0.00000000000E+00 0.  1.
         25    2    1    2    0    0 -0.62314246139E+02 -0.10405343901E+03  0.75588327283E+03  0.77570413973E+03  0.12508879570E+03 0.  0.
          5    1    3    3  502    0 -0.77777365528E+02 -0.27375833857E+02  0.23761236453E+03  0.25154694004E+03  0.41800000000E+01 0.  1.
         -5    1    3    3    0  502  0.15463119388E+02 -0.76677605148E+02  0.51827090830E+03  0.52415719968E+03  0.41800000000E+01 0.  1.
        -11    1    1    2    0    0  0.54492582847E+02  0.11271262962E+03  0.59000494658E+03  0.60314128979E+03  0.00000000000E+00 0. -1.
         11    1    1    2    0    0  0.78216632927E+01 -0.86591906115E+01  0.82962588904E+01  0.14317398866E+02  0.00000000000E+00 0.  1.
</event>
<event>
 7    1  0.2380582E-009  0.1646144E+03  0.7561462E-02  0.1183583E+00
         -2   -1    0    0    0  501 -0.00000000000E+00  0.00000000000E+00  0.89755467464E+02  0.89755467464E+02  0.00000000000E+00 0.  1.
          2   -1    0    0  501    0  0.00000000000E+00 -0.00000000000E+00 -0.35815811954E+03  0.35815811954E+03  0.00000000000E+00 0. -1.
         25    2    1    2    0    0 -0.13553191035E+03  0.36300664446E+02 -0.11556580044E+03  0.22066238586E+03  0.12509915004E+03 0.  0.
          5    1    3    3  502    0  0.21534961241E+02 -0.74873949641E+01 -0.52987031838E+01  0.23777390404E+02  0.41800000000E+01 0. -1.
         -5    1    3    3    0  502 -0.15706687159E+03  0.43788059410E+02 -0.11026709725E+03  0.19688499546E+03  0.41800000000E+01 0. -1.
        -11    1    1    2    0    0  0.96825677751E+02 -0.12827392725E+02 -0.39767882513E+02  0.10545728214E+03  0.00000000000E+00 0.  1.
         11    1    1    2    0    0  0.38706232603E+02 -0.23473271720E+02 -0.11306896912E+03  0.12179391900E+03  0.00000000000E+00 0. -1.
</event>
<event>
 7    1  0.2380582E-009  0.9093818E+02  0.7561462E-02  0.1300596E+00
         -2   -1    0    0    0  501 -0.00000000000E+00  0.00000000000E+00  0.57921637617E+02  0.57921637617E+02  0.00000000000E+00 0.  1.
          2   -1    0    0  501    0  0.00000000000E+00 -0.00000000000E+00 -0.29755767313E+03  0.29755767313E+03  0.00000000000E+00 0. -1.
         25    2    1    2    0    0  0.60315033391E+02  0.85178540002E+01 -0.18839813481E+03  0.23420439987E+03  0.12508951446E+03 0.  0.
          5    1    3    3  502    0  0.36034486144E+02 -0.45116853405E+02 -0.30076614345E+02  0.65238713838E+02  0.41800000000E+01 0.  1.
         -5    1    3    3    0  502  0.24280547247E+02  0.53634707405E+02 -0.15832152047E+03  0.16896568603E+03  0.41800000000E+01 0.  1.
        -11    1    1    2    0    0 -0.33647495094E+02 -0.16008889162E+02 -0.75665505945E+02  0.84342796066E+02  0.00000000000E+00 0. -1.
         11    1    1    2    0    0 -0.26667538297E+02  0.74910351617E+01  0.24427605243E+02  0.36932114813E+02  0.00000000000E+00 0.  1.
</event>
<event>
 7    1  0.2380582E-009  0.1409055E+03  0.7561462E-02  0.1212116E+00
         -3   -1    0    0    0  501 -0.00000000000E+00  0.00000000000E+00  0.58934690050E+03  0.58934690050E+03  0.00000000000E+00 0. -1.
          3   -1    0    0  501    0  0.00000000000E+00 -0.00000000000E+00 -0.39523369019E+02  0.39523369019E+02  0.00000000000E+00 0.  1.
         25    2    1    2    0    0  0.31271833719E+02  0.87176342801E+02  0.40993102676E+03  0.43848931480E+03  0.12510711477E+03 0.  0.
          5    1    3    3  502    0 -0.46488913271E+02  0.24233987461E+02  0.18390679730E+03  0.19127908328E+03  0.41800000000E+01 0.  1.
         -5    1    3    3    0  502  0.77760746990E+02  0.62942355340E+02  0.22602422946E+03  0.24721023153E+03  0.41800000000E+01 0.  1.
        -11    1    1    2    0    0 -0.44308823273E+02 -0.10087551042E+03  0.11763195193E+03  0.16117200916E+03  0.00000000000E+00 0.  1.
         11    1    1    2    0    0  0.13036989554E+02  0.13699167615E+02  0.22260552792E+02  0.29208945558E+02  0.00000000000E+00 0. -1.
</event>
<event>
 7    1  0.2380582E-009  0.1334712E+03  0.7561462E-02  0.1222394E+00
         -2   -1    0    0    0  501 -0.00000000000E+00  0.00000000000E+00  0.26921144216E+02  0.26921144216E+02  0.00000000000E+00 0.  1.
          2   -1    0    0  501    0  0.00000000000E+00 -0.00000000000E+00 -0.76842892342E+03  0.76842892342E+03  0.00000000000E+00 0. -1.
         25    2    1    2    0    0  0.75092541457E+02 -0.26243820626E+02 -0.53226726227E+03  0.55252466997E+03  0.12508974593E+03 0.  0.
          5    1    3    3  502    0 -0.30394285225E+02  0.14963978848E+02 -0.10081596903E+03  0.10643808176E+03  0.41800000000E+01 0.  1.
         -5    1    3    3    0  502  0.10548682668E+03 -0.41207799474E+02 -0.43145129324E+03  0.44608658821E+03  0.41800000000E+01 0.  1.
        -11    1    1    2    0    0 -0.59674447306E+02 -0.25938367987E+02 -0.14295813635E+03  0.15706962578E+03  0.00000000000E+00 0.  1.
         11    1    1    2    0    0 -0.15418094151E+02  0.52182188613E+02 -0.66282380588E+02  0.85755771888E+02  0.00000000000E+00 0. -1.
</event>
<event>
 7    1  0.2380582E-009  0.9482510E+02  0.7561462E-02  0.1291570E+00
          1   -1    0    0  501    0  0.00000000000E+00  0.00000000000E+00  0.55001216488E+02  0.55001216488E+02  0.00000000000E+00 0. -1.
         -1   -1    0    0    0  501 -0.00000000000E+00 -0.00000000000E+00 -0.33674445329E+03  0.33674445329E+03  0.00000000000E+00 0.  1.
         25    2    1    2    0    0  0.32669124675E+01  0.74867911302E+02 -0.10227318348E+03  0.17810689270E+03  0.12508550798E+03 0.  0.
          5    1    3    3  502    0  0.43506887379E+02  0.28926164691E+02 -0.10443913583E+03  0.11685280375E+03  0.41800000000E+01 0. -1.
         -5    1    3    3    0  502 -0.40239974912E+02  0.45941746611E+02  0.21659523430E+01  0.61254088942E+02  0.41800000000E+01 0. -1.
        -11    1    1    2    0    0  0.48042037061E+01 -0.36477037057E+02 -0.16910685686E+03  0.17306294705E+03  0.00000000000E+00 0.  1.
         11    1    1    2    0    0 -0.80711161736E+01 -0.38390874245E+02 -0.10363196458E+02  0.40575830027E+02  0.00000000000E+00 0. -1.
</event>
<event>
 7    1  0.2380582E-009  0.1554879E+03  0.7561462E-02  0.1193887E+00
         -1   -1    0    0    0  501 -0.00000000000E+00  0.00000000000E+00  0.31839685481E+03  0.31839685481E+03  0.00000000000E+00 0.  1.
          1   -1    0    0  501    0  0.00000000000E+00 -0.00000000000E+00 -0.87203721906E+02  0.87203721906E+02  0.00000000000E+00 0. -1.
         25    2    1    2    0    0  0.84069272595E+02  0.90535683976E+02  0.89283901522E+02  0.19719686029E+03  0.12510249386E+03 0.  0.
          5    1    3    3  502    0 -0.20246472782E+02  0.33736897858E+02  0.64686335166E+02  0.75828044247E+02  0.41800000000E+01 0. -1.
         -5    1    3    3    0  502  0.10431574538E+03  0.56798786118E+02  0.24597566356E+02  0.12136881605E+03  0.41800000000E+01 0. -1.
        -11    1    1    2    0    0 -0.81318601339E+02 -0.10782504109E+03  0.12364068634E+03  0.18310099325E+03  0.00000000000E+00 0.  1.
         11    1    1    2    0    0 -0.27506712552E+01  0.17289357117E+02  0.18268545040E+02  0.25302723169E+02  0.00000000000E+00 0. -1.
</event>
<event>
 7    1  0.2380582E-009  0.9444902E+02  0.7561462E-02  0.1292422E+00
         -2   -1    0    0    0  501 -0.00000000000E+00  0.00000000000E+00  0.31332884253E+02  0.31332884253E+02  0.00000000000E+00 0. -1.
          2   -1    0    0  501    0  0.00000000000E+00 -0.00000000000E+00 -0.47940462932E+03  0.47940462932E+03  0.00000000000E+00 0.  1.
         25    2    1    2    0    0  0.12764607835E+02 -0.31443011852E+02 -0.15523721522E+03  0.20223167502E+03  0.12508980449E+03 0.  0.
          5    1    3    3  502    0 -0.94750214829E+01  0.34736011484E+02 -0.51014784765E+01  0.36604152887E+02  0.41800000000E+01 0. -1.
         -5    1    3    3    0  502  0.22239629318E+02 -0.66179023337E+02 -0.15013573674E+03  0.16562752213E+03  0.41800000000E+01 0. -1.
        -11    1    1    2    0    0  0.14705850047E+02  0.48293826936E+02 -0.24919156087E+03  0.25425379005E+03  0.00000000000E+00 0.  1.
         11    1    1    2    0    0 -0.27470457883E+02 -0.16850815084E+02 -0.43642968981E+02  0.54252048503E+02  0.00000000000E+00 0. -1.
</event>
<event>
 7    1  0.2380582E-009  0.3337146E+03  0.7561462E-02  0.1069505E+00
          1   -1    0    0  501    0  0.00000000000E+00  0.00000000000E+00  0.40060318296E+03  0.40060318296E+03  0.00000000000E+00 0. -1.
         -1   -1    0    0    0  501 -0.00000000000E+00 -0.00000000000E+00 -0.32337071246E+03  0.32337071246E+03  0.00000000000E+00 0.  1.
         25    2    1    2    0    0 -0.17253733233E+03  0.26696417786E+03  0.16789688768E+03  0.38062796369E+03  0.12509707647E+03 0.  0.
          5    1    3    3  502    0  0.15276841803E+02  0.39037161372E+02  0.27297808377E+01  0.42216181340E+02  0.41800000000E+01 0. -1.
         -5    1    3    3    0  502 -0.18781417413E+03  0.22792701649E+03  0.16516710684E+03  0.33841178235E+03  0.41800000000E+01 0. -1.
        -11    1    1    2    0    0  0.15991371478E+03 -0.17481528015E+03 -0.78251861200E+02  0.24951178755E+03  0.00000000000E+00 0. -1.
         11    1    1    2    0    0  0.12623617555E+02 -0.92148897713E+02 -0.12412555975E+02  0.93834144189E+02  0.00000000000E+00 0.  1.
</event>
<event>
 7    1  0.2380582E-009  0.1031958E+03  0.7561462E-02  0.1273716E+00
         -1   -1    0    0    0  501 -0.00000000000E+00  0.00000000000E+00  0.21920734767E+03  0.21920734767E+03  0.00000000000E+00 0.  1.
          1   -1    0    0  501    0  0.00000000000E+00 -0.00000000000E+00 -0.60315587118E+02  0.60315587118E+02  0.00000000000E+00 0. -1.
         25    2    1    2    0    0  0.14147546539E+02  0.26184921364E+02  0.61140370156E+02  0.14237938930E+03  0.12509173615E+03 0.  0.
          5    1    3    3  502    0 -0.55402681777E+01  0.70714850693E+02  0.60791041965E+02  0.93511003969E+02  0.41800000000E+01 0. -1.
         -5    1    3    3    0  502  0.19687814717E+02 -0.44529929329E+02  0.34932819098E+00  0.48868385327E+02  0.41800000000E+01 0. -1.
        -11    1    1    2    0    0  0.31310738086E+02  0.44885201845E+01  0.67429637462E+02  0.74479964696E+02  0.00000000000E+00 0.  1.
         11    1    1    2    0    0 -0.45458284624E+02 -0.30673441548E+02  0.30321752936E+02  0.62663580799E+02  0.00000000000E+00 0. -1.
</event>
<event>
 7    1  0.2380582E-009  0.1470824E+03  0.7561462E-02  0.1204105E+00
          2   -1    0    0  501    0  0.00000000000E+00  0.00000000000E+00  0.65275278794E+03  0.65275278794E+03  0.00000000000E+00 0. -1.
         -2   -1    0    0    0  501 -0.00000000000E+00 -0.00000000000E+00 -0.36361615595E+02  0.36361615595E+02  0.00000000000E+00 0.  1.
         25    2    1    2    0    0 -0.65996071970E+02 -0.84357350159E+02  0.24348107114E+03  0.29393947966E+03  0.12508293911E+03 0.  0.
          5    1    3    3  502    0  0.36170263927E+02 -0.10348986945E+02  0.46106094229E+02  0.59654286085E+02  0.41800000000E+01 0. -1.
         -5    1    3    3    0  502 -0.10216633590E+03 -0.74008363214E+02  0.19737497692E+03  0.23428519357E+03  0.41800000000E+01 0. -1.
        -11    1    1    2    0    0  0.79729491183E+02  0.52681565066E+02  0.25516677639E+03  0.27247426087E+03  0.00000000000E+00 0. -1.
         11    1    1    2    0    0 -0.13733419213E+02  0.31675785093E+02  0.11774332480E+03  0.12270066300E+03  0.00000000000E+00 0.  1.
</event>
<event>
 7    1  0.2380582E-009  0.2202550E+03  0.7561462E-02  0.1133693E+00
         -2   -1    0    0    0  501 -0.00000000000E+00  0.00000000000E+00  0.81974286803E+02  0.81974286803E+02  0.00000000000E+00 0.  1.
          2   -1    0    0  501    0  0.00000000000E+00 -0.00000000000E+00 -0.10795405440E+04  0.10795405440E+04  0.00000000000E+00 0. -1.
         25    2    1    2    0    0  0.19732244705E+03  0.23027178843E+02 -0.89061431400E+03  0.92103642279E+03  0.12509131359E+03 0.  0.
          5    1    3    3  502    0  0.34044096022E+02  0.54609260897E+02 -0.17980540670E+03  0.19101996892E+03  0.41800000000E+01 0.  1.
         -5    1    3    3    0  502  0.16327835103E+03 -0.31582082055E+02 -0.71080890730E+03  0.73001645387E+03  0.41800000000E+01 0.  1.
        -11    1    1    2    0    0 -0.19008510736E+03 -0.37255916795E+02 -0.11198132847E+03  0.22374129994E+03  0.00000000000E+00 0. -1.
         11    1    1    2    0    0 -0.72373396914E+01  0.14228737952E+02  0.50293852863E+01  0.16737108050E+02  0.00000000000E+00 0.  1.
</event>
<event>
 7    1  0.2380582E-009  0.1150433E+03  0.7561462E-02  0.1251506E+00
         -1   -1    0    0    0  501 -0.00000000000E+00  0.00000000000E+00  0.70129504150E+02  0.70129504150E+02  0.00000000000E+00 0.  1.
          1   -1    0    0  501    0  0.00000000000E+00 -0.00000000000E+00 -0.21326973330E+03  0.21326973330E+03  0.00000000000E+00 0. -1.
         25    2    1    2    0    0 -0.94386746676E+01  0.48398746351E+02 -0.11232393853E+03  0.17520289716E+03  0.12509140970E+03 0.  0.
          5    1    3    3  502    0  0.26755245068E+02  0.78995914726E+02 -0.52003391946E+02  0.98376942704E+02  0.41800000000E+01 0.  1.
         -5    1    3    3    0  502 -0.36193919736E+02 -0.30597168375E+02 -0.60320546580E+02  0.76825954456E+02  0.41800000000E+01 0.  1.
        -11    1    1    2    0    0 -0.28438211410E+02 -0.53689056854E+02 -0.28591858503E+01  0.60822871009E+02  0.00000000000E+00 0.  1.
         11    1    1    2    0    0  0.37876886078E+02  0.52903105033E+01 -0.27957104771E+02  0.47373469277E+02  0.00000000000E+00 0. -1.
</event>
<event>
 7    1  0.2841608E-009  0.8901011E+02  0.7561462E-02  0.1305267E+00
         -1   -1    0    0    0  501 -0.00000000000E+00  0.00000000000E+00  0.20253027238E+02  0.20253027238E+02  0.00000000000E+00 0.  1.
          1   -1    0    0  501    0  0.00000000000E+00 -0.00000000000E+00 -0.70076836723E+03  0.70076836723E+03  0.00000000000E+00 0. -1.
         25    2    1    2    0    0  0.21276160211E+02 -0.38068576880E+02 -0.45519728069E+03  0.47408222293E+03  0.12508996045E+03 0.  0.
          5    1    3    3  502    0  0.19196331222E+02  0.35351045089E+02 -0.61746289798E+02  0.73812412405E+02  0.41800000000E+01 0. -1.
         -5    1    3    3    0  502  0.20798289890E+01 -0.73419621969E+02 -0.39345099089E+03  0.40026981052E+03  0.41800000000E+01 0. -1.
        -11    1    1    2    0    0 -0.23962989308E+01  0.44118397243E+02 -0.22258302171E+03  0.22692592796E+03  0.00000000000E+00 0. -1.
         11    1    1    2    0    0 -0.18879861280E+02 -0.60498203625E+01 -0.27350375912E+01  0.20013243590E+02  0.00000000000E+00 0.  1.
</event>
<event>
 7    1  0.2380582E-009  0.1018524E+03  0.7561462E-02  0.1276448E+00
         -1   -1    0    0    0  501 -0.00000000000E+00  0.00000000000E+00  0.22177188615E+02  0.22177188615E+02  0.00000000000E+00 0.  1.
          1   -1    0    0  501    0  0.00000000000E+00 -0.00000000000E+00 -0.61363056903E+03  0.61363056903E+03  0.00000000000E+00 0. -1.
         25    2    1    2    0    0  0.21869332004E+02  0.22729240764E+02 -0.41631054866E+03  0.43584047873E+03  0.12509022307E+03 0.  0.
          5    1    3    3  502    0  0.50478202875E+02  0.54882232442E+02 -0.34023094393E+03  0.34833127338E+03  0.41800000000E+01 0. -1.
         -5    1    3    3    0  502 -0.28608870871E+02 -0.32152991677E+02 -0.76079604726E+02  0.87509205354E+02  0.41800000000E+01 0. -1.
        -11    1    1    2    0    0 -0.13729085440E+02  0.29702005504E+02 -0.11593137580E+03  0.12046070235E+03  0.00000000000E+00 0. -1.
         11    1    1    2    0    0 -0.81402465645E+01 -0.52431246268E+02 -0.59211455965E+02  0.79506576564E+02  0.00000000000E+00 0.  1.
</event>
<event>
 7    1  0.2380582E-009  0.1013613E+03  0.7561462E-02  0.1277459E+00
         -1   -1    0    0    0  501 -0.00000000000E+00  0.00000000000E+00  0.47365640580E+02  0.47365640580E+02  0.00000000000E+00 0.  1.
          1   -1    0    0  501    0  0.00000000000E+00 -0.00000000000E+00 -0.46841215845E+03  0.46841215845E+03  0.00000000000E+00 0. -1.
         25    2    1    2    0    0  0.26332694176E+02  0.85593248602E+02 -0.13890096538E+03  0.20727623495E+03  0.12510133653E+03 0.  0.
          5    1    3    3  502    0 -0.18456865606E+02  0.32624930379E+01  0.16786285433E+02  0.25505911618E+02  0.41800000000E+01 0. -1.
         -5    1    3    3    0  502  0.44789559781E+02  0.82330755564E+02 -0.15568725082E+03  0.18177032333E+03  0.41800000000E+01 0. -1.
        -11    1    1    2    0    0 -0.12445259445E+02 -0.31935894017E+02 -0.18215882925E+02  0.38814999678E+02  0.00000000000E+00 0.  1.
         11    1    1    2    0    0 -0.13887434730E+02 -0.53657354586E+02 -0.26392966956E+03  0.26968656440E+03  0.00000000000E+00 0. -1.
</event>
<event>
 7    1  0.2380582E-009  0.1462672E+03  0.7561462E-02  0.1205136E+00
         -3   -1    0    0    0  501 -0.00000000000E+00  0.00000000000E+00  0.37339669857E+03  0.37339669857E+03  0.00000000000E+00 0.  1.
          3   -1    0    0  501    0  0.00000000000E+00 -0.00000000000E+00 -0.64535173397E+02  0.64535173397E+02  0.00000000000E+00 0. -1.
         25    2    1    2    0    0 -0.39476688304E+02 -0.80134293471E+02  0.97487683201E+02  0.18202031966E+03  0.12509050517E+03 0.  0.
          5    1    3    3  502    0  0.58776713717E+01  0.31936071191E+02  0.20707923012E+02  0.38739516509E+02  0.41800000000E+01 0. -1.
         -5    1    3    3    0  502 -0.45354359676E+02 -0.11207036466E+03  0.76779760189E+02  0.14328080315E+03  0.41800000000E+01 0. -1.
        -11    1    1    2    0    0  0.28380957180E+02  0.10649992200E+03  0.13451573748E+03  0.17390283421E+03  0.00000000000E+00 0.  1.
         11    1    1    2    0    0  0.11095731124E+02 -0.26365628534E+02  0.76858104492E+02  0.82008718093E+02  0.00000000000E+00 0. -1.
</event>
<event>
 7    1  0.2380582E-009  0.9882980E+02  0.7561462E-02  0.1282776E+00
         -2   -1    0    0    0  501 -0.00000000000E+00  0.00000000000E+00  0.34456809029E+02  0.34456809029E+02  0.00000000000E+00 0. -1.
          2   -1    0    0  501    0  0.00000000000E+00 -0.00000000000E+00 -0.60514843064E+03  0.60514843064E+03  0.00000000000E+00 0.  1.
         25    2    1    2    0    0  0.68579146372E+02  0.33358497146E+02 -0.18334740444E+03  0.23469228997E+03  0.12509321168E+03 0.  0.
          5    1    3    3  502    0  0.27961681917E+02  0.26856513065E+02  0.72488532658E+01  0.39662907398E+02  0.41800000000E+01 0. -1.
         -5    1    3    3    0  502  0.40617464456E+02  0.65019840810E+01 -0.19059625770E+03  0.19502938257E+03  0.41800000000E+01 0. -1.
        -11    1    1    2    0    0 -0.28614252395E+02 -0.61909661791E+02 -0.24593748439E+03  0.25521917619E+03  0.00000000000E+00 0.  1.
         11    1    1    2    0    0 -0.39964893978E+02  0.28551164645E+02 -0.14140673278E+03  0.14969377351E+03  0.00000000000E+00 0. -1.
</event>
<event>
 7    1  0.2380582E-009  0.1487822E+03  0.7561462E-02  0.1201977E+00
         -4   -1    0    0    0  501 -0.00000000000E+00  0.00000000000E+00  0.34943838164E+03  0.34943838164E+03  0.00000000000E+00 0.  1.
          4   -1    0    0  501    0  0.00000000000E+00 -0.00000000000E+00 -0.84748515269E+02  0.84748515269E+02  0.00000000000E+00 0. -1.
         25    2    1    2    0    0 -0.10804630481E+03 -0.62319331829E+02  0.84430939528E+02  0.19579066783E+03  0.12509076287E+03 0.  0.
          5    1    3    3  502    0 -0.27215034082E+01 -0.63169053786E+02  0.60685966395E+02  0.87738217752E+02  0.41800000000E+01 0.  1.
         -5    1    3    3    0  502 -0.10532480141E+03  0.84972195702E+00  0.23744973133E+02  0.10805245008E+03  0.41800000000E+01 0.  1.
        -11    1    1    2    0    0  0.44854304080E+02  0.82201438474E+01  0.13749895203E+03  0.14486352601E+03  0.00000000000E+00 0.  1.
         11    1    1    2    0    0  0.63192000734E+02  0.54099187981E+02  0.42759974811E+02  0.93532703066E+02  0.00000000000E+00 0. -1.
</event>
<event>
 7    1  0.2380582E-009  0.1247356E+03  0.7561462E-02  0.1235483E+00
          3   -1    0    0  501    0  0.00000000000E+00  0.00000000000E+00  0.86044896011E+02  0.86044896011E+02  0.00000000000E+00 0. -1.
         -3   -1    0    0    0  501 -0.00000000000E+00 -0.00000000000E+00 -0.29597590393E+03  0.29597590393E+03  0.00000000000E+00 0.  1.
         25    2    1    2    0    0  0.32876705921E+02  0.53700864383E+02  0.38910954387E+01  0.14009774610E+03  0.12509027625E+03 0.  0.
          5    1    3    3  502    0 -0.21620031483E+01 -0.39164190056E+02  0.95768169675E+01  0.40591820156E+02  0.41800000000E+01 0. -1.
         -5    1    3    3    0  502  0.35038709069E+02  0.92865054440E+02 -0.56857215288E+01  0.99505925947E+02  0.41800000000E+01 0. -1.
        -11    1    1    2    0    0 -0.36642284812E+02 -0.77954980538E+02 -0.18497132416E+03  0.20404417852E+03  0.00000000000E+00 0.  1.
         11    1    1    2    0    0  0.37655788916E+01  0.24254116154E+02 -0.28850779194E+02  0.37878875312E+02  0.00000000000E+00 0. -1.
</event>
<event>
 7    1  0.2380582E-009  0.9953299E+02  0.7561462E-02  0.1281281E+00
          1   -1    0    0  501    0  0.00000000000E+00  0.00000000000E+00  0.46672664226E+03  0.46672664226E+03  0.00000000000E+00 0. -1.
         -1   -1    0    0    0  501 -0.00000000000E+00 -0.00000000000E+00 -0.37973930187E+02  0.37973930187E+02  0.00000000000E+00 0.  1.
         25    2    1    2    0    0  0.10360721722E+02  0.74704725582E+02  0.19861966564E+03  0.24654787663E+03  0.12509173959E+03 0.  0.
          5    1    3    3  502    0 -0.18705732755E+02  0.47856436969E+02  0.84251685504E+01  0.52235992020E+02  0.41800000000E+01 0. -1.
         -5    1    3    3    0  502  0.29066454477E+02  0.26848288613E+02  0.19019449709E+03  0.19431188461E+03  0.41800000000E+01 0. -1.
        -11    1    1    2    0    0  0.28462071258E+02 -0.59636917531E+02  0.18638703503E+03  0.19775433816E+03  0.00000000000E+00 0. -1.
         11    1    1    2    0    0 -0.38822792980E+02 -0.15067808051E+02  0.43746011398E+02  0.60398357655E+02  0.00000000000E+00 0.  1.
</event>
<event>
 7    1  0.2380582E-009  0.1229472E+03  0.7561462E-02  0.1238313E+00
          2   -1    0    0  501    0  0.00000000000E+00  0.00000000000E+00  0.67173164839E+03  0.67173164839E+03  0.00000000000E+00 0. -1.
         -2   -1    0    0    0  501 -0.00000000000E+00 -0.00000000000E+00 -0.23423533920E+02  0.23423533920E+02  0.00000000000E+00 0.  1.
         25    2    1    2    0    0 -0.43729821156E+02 -0.41279189907E+02  0.35861562199E+03  0.38453573170E+03  0.12508515435E+03 0.  0.
          5    1    3    3  502    0 -0.15721385247E+02 -0.82464501094E+02  0.27018394122E+03  0.28295651678E+03  0.41800000000E+01 0.  1.
         -5    1    3    3    0  502 -0.28008435909E+02  0.41185311188E+02  0.88431680776E+02  0.10157921492E+03  0.41800000000E+01 0.  1.
        -11    1    1    2    0    0 -0.29924120036E+02  0.76241342073E+01  0.89023328591E+02  0.94227031237E+02  0.00000000000E+00 0.  1.
         11    1    1    2    0    0  0.73653941191E+02  0.33655055699E+02  0.20066916388E+03  0.21639241937E+03  0.00000000000E+00 0. -1.
</event>
<event>
 7    1  0.2380582E-009  0.1629699E+03  0.7561462E-02  0.1185384E+00
          2   -1    0    0  501    0  0.00000000000E+00  0.00000000000E+00  0.88602393531E+03  0.88602393531E+03  0.00000000000E+00 0. -1.
         -2   -1    0    0    0  501 -0.00000000000E+00 -0.00000000000E+00 -0.39635900401E+02  0.39635900401E+02  0.00000000000E+00 0.  1.
         25    2    1    2    0    0 -0.14910293577E+03  0.15398295817E+00  0.37485516911E+03  0.42236761864E+03  0.12508516419E+03 0.  0.
          5    1    3    3  502    0 -0.70856064868E+02  0.16285413547E+02  0.51324714913E+02  0.89092622499E+02  0.41800000000E+01 0. -1.
         -5    1    3    3    0  502 -0.78246870899E+02 -0.16131430589E+02  0.32353045420E+03  0.33327499614E+03  0.41800000000E+01 0. -1.
        -11    1    1    2    0    0  0.12087119422E+03  0.37040328699E+02  0.30072818130E+03  0.32621966613E+03  0.00000000000E+00 0.  1.
         11    1    1    2    0    0  0.28231741548E+02 -0.37194311657E+02  0.17080468450E+03  0.17707255094E+03  0.00000000000E+00 0. -1.
</event>
<event>
 7    1  0.2380582E-009  0.2612686E+03  0.7561462E-02  0.1106383E+00
         -1   -1    0    0    0  501 -0.00000000000E+00  0.00000000000E+00  0.45758916832E+03  0.45758916832E+03  0.00000000000E+00 0.  1.
          1   -1    0    0  501    0  0.00000000000E+00 -0.00000000000E+00 -0.15567375816E+03  0.15567375816E+03  0.00000000000E+00 0. -1.
         25    2    1    2    0    0  0.92030454821E+02 -0.22229696841E+03  0.20031047506E+03  0.33713119157E+03  0.12509039585E+03 0.  0.
          5    1    3    3  502    0 -0.25473560893E+02 -0.22901070025E+02  0.62564911797E+01  0.35071033557E+02  0.41800000000E+01 0.  1.
         -5    1    3    3    0  502  0.11750401571E+03 -0.19939589838E+03  0.19405398388E+03  0.30206015801E+03  0.41800000000E+01 0.  1.
        -11    1    1    2    0    0 -0.10898897566E+03  0.17354292718E+03  0.85601385386E+02  0.22208858946E+03  0.00000000000E+00 0.  1.
         11    1    1    2    0    0  0.16958520839E+02  0.48754041231E+02  0.16003549715E+02  0.54043145439E+02  0.00000000000E+00 0. -1.
</event>
<event>
 7    1  0.2380582E-009  0.6347033E+02  0.7561462E-02  0.1383820E+00
          2   -1    0    0  501    0  0.00000000000E+00  0.00000000000E+00  0.10262893369E+03  0.10262893369E+03  0.00000000000E+00 0. -1.
         -2   -1    0    0    0  501 -0.00000000000E+00 -0.00000000000E+00 -0.13067639691E+03  0.13067639691E+03  0.00000000000E+00 0.  1.
         25    2    1    2    0    0 -0.69267383686E+01  0.38613368109E+02 -0.28446034686E+02  0.13413623542E+03  0.12507749942E+03 0.  0.
          5    1    3    3  502    0 -0.15178031607E+01  0.36059937777E+02 -0.76944730998E+02  0.85091638057E+02  0.41800000000E+01 0.  1.
         -5    1    3    3    0  502 -0.54089352078E+01  0.25534303321E+01  0.48498696312E+02  0.49044597363E+02  0.41800000000E+01 0.  1.
        -11    1    1    2    0    0  0.38576972152E+02 -0.33812968763E+02  0.26615252328E+02  0.57791619578E+02  0.00000000000E+00 0. -1.
         11    1    1    2    0    0 -0.31650233783E+02 -0.48003993453E+01 -0.26216680859E+02  0.41377475608E+02  0.00000000000E+00 0.  1.
</event>
<event>
 7    1  0.2380582E-009  0.1225976E+03  0.7561462E-02  0.1238872E+00
         -1   -1    0    0    0  501 -0.00000000000E+00  0.00000000000E+00  0.65087615294E+02  0.65087615294E+02  0.00000000000E+00 0.  1.
          1   -1    0    0  501    0  0.00000000000E+00 -0.00000000000E+00 -0.27194166953E+03  0.27194166953E+03  0.00000000000E+00 0. -1.
         25    2    1    2    0    0 -0.31144851729E+02  0.65939836060E+02 -0.14017831047E+03  0.20153437528E+03  0.12509229363E+03 0.  0.
          5    1    3    3  502    0 -0.77806370500E+02  0.51001178783E+02 -0.10875709855E+03  0.14318006290E+03  0.41800000000E+01 0.  1.
         -5    1    3    3    0  502  0.46661518771E+02  0.14938657277E+02 -0.31421211923E+02  0.58354312385E+02  0.41800000000E+01 0.  1.
        -11    1    1    2    0    0  0.54247953438E+02 -0.55285710160E+02 -0.16435230561E+02  0.79179965924E+02  0.00000000000E+00 0.  1.
         11    1    1    2    0    0 -0.23103101709E+02 -0.10654125900E+02 -0.50240513202E+02  0.56314943612E+02  0.00000000000E+00 0. -1.
</event>
<event>
 7    1  0.2380582E-009  0.1009995E+03  0.7561462E-02  0.1278208E+00
          1   -1    0    0  501    0  0.00000000000E+00  0.00000000000E+00  0.27702313489E+03  0.27702313489E+03  0.00000000000E+00 0. -1.
         -1   -1    0    0    0  501 -0.00000000000E+00 -0.00000000000E+00 -0.76348548840E+02  0.76348548840E+02  0.00000000000E+00 0.  1.
         25    2    1    2    0    0 -0.17304836023E+02  0.68506138046E+02  0.19127729123E+03  0.23922112393E+03  0.12508875127E+03 0.  0.
          5    1    3    3  502    0 -0.19951998775E+02  0.78945633654E+02  0.20539058225E+03  0.22098248575E+03  0.41800000000E+01 0. -1.
         -5    1    3    3    0  502  0.26471627526E+01 -0.10439495608E+02 -0.14113291024E+02  0.18238638181E+02  0.41800000000E+01 0. -1.
        -11    1    1    2    0    0 -0.15780569613E+02 -0.73744212830E+02 -0.89743489727E+01  0.75945863895E+02  0.00000000000E+00 0.  1.
         11    1    1    2    0    0  0.33085405635E+02  0.52380747846E+01  0.18371643789E+02  0.38204695903E+02  0.00000000000E+00 0. -1.
</event>
<event>
 7    1  0.2380582E-009  0.1324461E+03  0.7561462E-02  0.1223871E+00
          1   -1    0    0  501    0  0.00000000000E+00  0.00000000000E+00  0.14166336352E+03  0.14166336352E+03  0.00000000000E+00 0. -1.
         -1   -1    0    0    0  501 -0.00000000000E+00 -0.00000000000E+00 -0.18998351924E+03  0.18998351924E+03  0.00000000000E+00 0.  1.
         25    2    1    2    0    0 -0.11778856932E+03  0.12836561051E+01 -0.60913184108E+02  0.18230161822E+03  0.12509064382E+03 0.  0.
          5    1    3    3  502    0 -0.33710725108E+02  0.26995202525E+02  0.32304226889E+02  0.54094264221E+02  0.41800000000E+01 0. -1.
         -5    1    3    3    0  502 -0.84077844210E+02 -0.25711546420E+02 -0.93217410997E+02  0.12820735400E+03  0.41800000000E+01 0. -1.
        -11    1    1    2    0    0  0.12309310033E+03  0.73905265890E+01 -0.10851103456E+02  0.12379126657E+03  0.00000000000E+00 0.  1.
         11    1    1    2    0    0 -0.53045310131E+01 -0.86741826941E+01  0.23444131841E+02  0.25553997974E+02  0.00000000000E+00 0. -1.
</event>
<event>
 7    1  0.2380582E-009  0.9831194E+02  0.7561462E-02  0.1283886E+00
          3   -1    0    0  501    0  0.00000000000E+00  0.00000000000E+00  0.69312864247E+02  0.69312864247E+02  0.00000000000E+00 0. -1.
         -3   -1    0    0    0  501 -0.00000000000E+00 -0.00000000000E+00 -0.30451408004E+03  0.30451408004E+03  0.00000000000E+00 0.  1.
         25    2    1    2    0    0  0.54007097955E+02 -0.75321557622E+02 -0.92732001772E+02  0.18121209255E+03  0.12509394335E+03 0.  0.
          5    1    3    3  502    0  0.10757341820E+02 -0.53552647022E+02  0.20104391099E+02  0.58354651465E+02  0.41800000000E+01 0.  1.
         -5    1    3    3    0  502  0.43249756135E+02 -0.21768910600E+02 -0.11283639287E+03  0.12285744109E+03  0.41800000000E+01 0.  1.
        -11    1    1    2    0    0 -0.40274537153E+02  0.63108227244E+02 -0.15378011344E+03  0.17103511330E+03  0.00000000000E+00 0.  1.
         11    1    1    2    0    0 -0.13732560803E+02  0.12213330377E+02  0.11310899427E+02  0.21579738436E+02  0.00000000000E+00 0. -1.
</event>
<event>
 7    1  0.2380582E-009  0.1089564E+03  0.7561462E-02  0.1262515E+00
          1   -1    0    0  501    0  0.00000000000E+00  0.00000000000E+00  0.15653121857E+03  0.15653121857E+03  0.00000000000E+00 0. -1.
         -1   -1    0    0    0  501 -0.00000000000E+00 -0.00000000000E+00 -0.81403774431E+02  0.81403774431E+02  0.00000000000E+00 0.  1.
         25    2    1    2    0    0  0.94110116986E+01 -0.31458553741E+02  0.41176741823E+02  0.13572659680E+03  0.12509187531E+03 0.  0.
          5    1    3    3  502    0  0.40986173584E+02 -0.65507382691E+02  0.43995207707E+02  0.89017606760E+02  0.41800000000E+01 0.  1.
         -5    1    3    3    0  502 -0.31575161885E+02  0.34048828950E+02 -0.28184658838E+01  0.46708990044E+02  0.41800000000E+01 0.  1.
        -11    1    1    2    0    0  0.36144732001E+02  0.32102704365E+02  0.58905870442E+01  0.48700352100E+02  0.00000000000E+00 0.  1.
         11    1    1    2    0    0 -0.45555743699E+02 -0.64415062462E+00  0.28060115272E+02  0.53508044097E+02  0.00000000000E+00 0. -1.
</event>
<event>
 7    1  0.2380582E-009  0.1388739E+03  0.7561462E-02  0.1214852E+00
          1   -1    0    0  501    0  0.00000000000E+00  0.00000000000E+00  0.60338742911E+03  0.60338742911E+03  0.00000000000E+00 0. -1.
         -1   -1    0    0    0  501 -0.00000000000E+00 -0.00000000000E+00 -0.10339616739E+03  0.10339616739E+03  0.00000000000E+00 0.  1.
         25    2    1    2    0    0  0.81891412482E+02  0.66143138987E+02  0.53772361435E+03  0.56202569782E+03  0.12508029942E+03 0.  0.
          5    1    3    3  502    0  0.51133389474E+02 -0.15790083790E+02  0.82353344628E+02  0.98303082538E+02  0.41800000000E+01 0.  1.
         -5    1    3    3    0  502  0.30758023009E+02  0.81933222777E+02  0.45537026972E+03  0.46372261528E+03  0.41800000000E+01 0.  1.
        -11    1    1    2    0    0  0.10012764744E+01 -0.52422772074E+02 -0.29936033143E+02  0.60376449605E+02  0.00000000000E+00 0.  1.
         11    1    1    2    0    0 -0.82892688957E+02 -0.13720366913E+02 -0.77963194856E+01  0.84381449076E+02  0.00000000000E+00 0. -1.
</event>
<event>
 7    1  0.2380582E-009  0.1327987E+03  0.7561462E-02  0.1223361E+00
          2   -1    0    0  501    0  0.00000000000E+00  0.00000000000E+00  0.25278932679E+03  0.25278932679E+03  0.00000000000E+00 0. -1.
         -2   -1    0    0    0  501 -0.00000000000E+00 -0.00000000000E+00 -0.89160475988E+02  0.89160475988E+02  0.00000000000E+00 0.  1.
         25    2    1    2    0    0 -0.83385677698E+02  0.52719884237E+02  0.10994405398E+03  0.19356607476E+03  0.12509025883E+03 0.  0.
          5    1    3    3  502    0  0.24631942076E+02  0.11283270835E+02 -0.77393292071E+01  0.28485336364E+02  0.41800000000E+01 0.  1.
         -5    1    3    3    0  502 -0.10801761977E+03  0.41436613402E+02  0.11768338319E+03  0.16508073840E+03  0.41800000000E+01 0.  1.
        -11    1    1    2    0    0  0.59643873508E+02 -0.70798943038E+02  0.68408968914E+02  0.11510720660E+03  0.00000000000E+00 0. -1.
         11    1    1    2    0    0  0.23741804190E+02  0.18079058801E+02 -0.14724172101E+02  0.33276521413E+02  0.00000000000E+00 0.  1.
</event>
<event>
 7    1  0.2380582E-009  0.1417143E+03  0.7561462E-02  0.1211041E+00
          2   -1    0    0  501    0  0.00000000000E+00  0.00000000000E+00  0.75039034744E+02  0.75039034744E+02  0.00000000000E+00 0.  1.
         -2   -1    0    0    0  501 -0.00000000000E+00 -0.00000000000E+00 -0.32596801314E+03  0.32596801314E+03  0.00000000000E+00 0. -1.
         25    2    1    2    0    0  0.82238396426E+02  0.66374274564E+02 -0.86832877503E+02  0.18535335474E+03  0.12508884574E+03 0.  0.
          5    1    3    3  502    0  0.13312596485E+02  0.87834103208E+02 -0.63837264080E+02  0.10947476237E+03  0.41800000000E+01 0. -1.
         -5    1    3    3    0  502  0.68925799941E+02 -0.21459828644E+02 -0.22995613423E+02  0.75878592367E+02  0.41800000000E+01 0. -1.
        -11    1    1    2    0    0 -0.38284356340E+02 -0.68178275138E+02 -0.48603474587E+02  0.92066643705E+02  0.00000000000E+00 0.  1.
         11    1    1    2    0    0 -0.43954040086E+02  0.18040005743E+01 -0.11549262630E+03  0.12358704943E+03  0.00000000000E+00 0. -1.
</event>
<event>
 7    1  0.2380582E-009  0.1115742E+03  0.7561462E-02  0.1257682E+00
          1   -1    0    0  501    0  0.00000000000E+00  0.00000000000E+00  0.10421593229E+03  0.10421593229E+03  0.00000000000E+00 0. -1.
         -1   -1    0    0    0  501 -0.00000000000E+00 -0.00000000000E+00 -0.14787725566E+03  0.14787725566E+03  0.00000000000E+00 0.  1.
         25    2    1    2    0    0 -0.21395859637E+02 -0.41101134841E+02 -0.64568314858E+02  0.14820004815E+03  0.12508837233E+03 0.  0.
          5    1    3    3  502    0 -0.47974701845E+02  0.24072154886E+02 -0.55138942557E+02  0.77063714187E+02  0.41800000000E+01 0.  1.
         -5    1    3    3    0  502  0.26578842209E+02 -0.65173289727E+02 -0.94293723004E+01  0.71136333958E+02  0.41800000000E+01 0.  1.
        -11    1    1    2    0    0 -0.27340637652E+02  0.41932459839E+02  0.23033060660E+02  0.55103208062E+02  0.00000000000E+00 0. -1.
         11    1    1    2    0    0  0.48736497288E+02 -0.83132499846E+00 -0.21260691756E+01  0.48789931741E+02  0.00000000000E+00 0.  1.
</event>
<event>
 7    1  0.2380582E-009  0.1779281E+03  0.7561462E-02  0.1169823E+00
         -1   -1    0    0    0  501 -0.00000000000E+00  0.00000000000E+00  0.18514762559E+02  0.18514762559E+02  0.00000000000E+00 0.  1.
          1   -1    0    0  501    0  0.00000000000E+00 -0.00000000000E+00 -0.24089233263E+04  0.24089233263E+04  0.00000000000E+00 0. -1.
         25    2    1    2    0    0 -0.15596295636E+03 -0.46322898670E+02 -0.16972838676E+04  0.17096461321E+04  0.12508842891E+03 0.  0.
          5    1    3    3  502    0 -0.72871633656E+02 -0.74192435307E+02 -0.60885605595E+03  0.61768759233E+03  0.41800000000E+01 0.  1.
         -5    1    3    3    0  502 -0.83091322701E+02  0.27869536638E+02 -0.10884278116E+04  0.10919585397E+04  0.41800000000E+01 0.  1.
        -11    1    1    2    0    0  0.37033937240E+02  0.18985327714E+01 -0.49967111964E+02  0.62224024397E+02  0.00000000000E+00 0.  1.
         11    1    1    2    0    0  0.11892901912E+03  0.44424365898E+02 -0.64315758420E+03  0.65556793240E+03  0.00000000000E+00 0. -1.
</event>
<event>
 7    1  0.2380582E-009  0.1375649E+03  0.7561462E-02  0.1216644E+00
         -2   -1    0    0    0  501 -0.00000000000E+00  0.00000000000E+00  0.85251011197E+02  0.85251011197E+02  0.00000000000E+00 0.  1.
          2   -1    0    0  501    0  0.00000000000E+00 -0.00000000000E+00 -0.30459100309E+03  0.30459100309E+03  0.00000000000E+00 0. -1.
         25    2    1    2    0    0  0.90997711110E+02 -0.72468899583E+02 -0.90111210829E+02  0.19313396267E+03  0.12509345461E+03 0.  0.
          5    1    3    3  502    0  0.58783057306E+02  0.17903910524E+02 -0.21733711352E+00  0.61591537354E+02  0.41800000000E+01 0. -1.
         -5    1    3    3    0  502  0.32214653804E+02 -0.90372810107E+02 -0.89893873715E+02  0.13154242532E+03  0.41800000000E+01 0. -1.
        -11    1    1    2    0    0 -0.11770359392E+02  0.17444709207E+02 -0.90247750494E+02  0.92668849722E+02  0.00000000000E+00 0. -1.
         11    1    1    2    0    0 -0.79227351717E+02  0.55024190376E+02 -0.38981030569E+02  0.10403920189E+03  0.00000000000E+00 0.  1.
</event>
<event>
 7    1  0.2380582E-009  0.2112229E+03  0.7561462E-02  0.1140601E+00
         -1   -1    0    0    0  501 -0.00000000000E+00  0.00000000000E+00  0.29478278337E+02  0.29478278337E+02  0.00000000000E+00 0.  1.
          1   -1    0    0  501    0  0.00000000000E+00 -0.00000000000E+00 -0.17491416474E+04  0.17491416474E+04  0.00000000000E+00 0. -1.
         25    2    1    2    0    0  0.11324379457E+03  0.15361502585E+03 -0.11047259591E+04  0.11280465969E+04  0.12509175411E+03 0.  0.
          5    1    3    3  502    0  0.11031455403E+03  0.17457703753E+03 -0.99238259331E+03  0.10136503967E+04  0.41800000000E+01 0. -1.
         -5    1    3    3    0  502  0.29292405352E+01 -0.20962011684E+02 -0.11234336578E+03  0.11439620020E+03  0.41800000000E+01 0. -1.
        -11    1    1    2    0    0 -0.82131608914E+02 -0.13512325967E+03 -0.57643755433E+03  0.59773250751E+03  0.00000000000E+00 0. -1.
         11    1    1    2    0    0 -0.31112185655E+02 -0.18491766175E+02 -0.38499855623E+02  0.52840821299E+02  0.00000000000E+00 0.  1.
</event>
<event>
 7    1  0.2380582E-009  0.6128222E+02  0.7561462E-02  0.1392528E+00
         -3   -1    0    0    0  501 -0.00000000000E+00  0.00000000000E+00  0.29673678162E+03  0.29673678162E+03  0.00000000000E+00 0.  1.
          3   -1    0    0  501    0  0.00000000000E+00 -0.00000000000E+00 -0.47912588626E+02  0.47912588626E+02  0.00000000000E+00 0. -1.
         25    2    1    2    0    0  0.42743860807E+02  0.12199936257E+02  0.14524015146E+03  0.19677076609E+03  0.12509259254E+03 0.  0.
          5    1    3    3  502    0  0.38581035352E+01  0.34603903653E+01  0.15530834783E+03  0.15545100376E+03  0.41800000000E+01 0.  1.
         -5    1    3    3    0  502  0.38885757272E+02  0.87395458920E+01 -0.10068196365E+02  0.41319762330E+02  0.41800000000E+01 0.  1.
        -11    1    1    2    0    0 -0.52898275985E+02 -0.25803632193E+02  0.19356600988E+02  0.61957509943E+02  0.00000000000E+00 0. -1.
         11    1    1    2    0    0  0.10154415178E+02  0.13603695936E+02  0.84227440546E+02  0.85921094218E+02  0.00000000000E+00 0.  1.
</event>
<event>
 7    1  0.2380582E-009  0.1033423E+03  0.7561462E-02  0.1273420E+00
         -1   -1    0    0    0  501 -0.00000000000E+00  0.00000000000E+00  0.65852667740E+02  0.65852667740E+02  0.00000000000E+00 0.  1.
          1   -1    0    0  501    0  0.00000000000E+00 -0.00000000000E+00 -0.19266178051E+03  0.19266178051E+03  0.00000000000E+00 0. -1.
         25    2    1    2    0    0  0.30400828444E+01 -0.19699221786E+02 -0.11150680597E+03  0.16875650437E+03  0.12509072126E+03 0.  0.
          5    1    3    3  502    0  0.85903680805E+01  0.52878345929E+02 -0.48972502079E+02  0.72702766466E+02  0.41800000000E+01 0. -1.
         -5    1    3    3    0  502 -0.55502852361E+01 -0.72577567715E+02 -0.62534303892E+02  0.96053737902E+02  0.41800000000E+01 0. -1.
        -11    1    1    2    0    0  0.37227225387E+02  0.76002701040E+01  0.11738952148E+02  0.39767240453E+02  0.00000000000E+00 0.  1.
         11    1    1    2    0    0 -0.40267308232E+02  0.12098951682E+02 -0.27041258951E+02  0.49990703433E+02  0.00000000000E+00 0. -1.
</event>
<event>
 7    1  0.2380582E-009  0.1348933E+03  0.7561462E-02  0.1220370E+00
          2   -1    0    0  501    0  0.00000000000E+00  0.00000000000E+00  0.45801626490E+03  0.45801626490E+03  0.00000000000E+00 0. -1.
         -2   -1    0    0    0  501 -0.00000000000E+00 -0.00000000000E+00 -0.58701749843E+02  0.58701749843E+02  0.00000000000E+00 0.  1.
         25    2    1    2    0    0 -0.33594177214E+02  0.11282909208E+03  0.15865747817E+03  0.23383396941E+03  0.12508859703E+03 0.  0.
          5    1    3    3  502    0  0.30583030979E+02  0.33323561190E+02  0.11310662241E+03  0.12188667666E+03  0.41800000000E+01 0. -1.
         -5    1    3    3    0  502 -0.64177208193E+02  0.79505530887E+02  0.45550855766E+02  0.11194729275E+03  0.41800000000E+01 0. -1.
        -11    1    1    2    0    0  0.30011855151E+02 -0.44470755378E+02  0.30181752020E+02  0.61557271614E+02  0.00000000000E+00 0.  1.
         11    1    1    2    0    0  0.35823220626E+01 -0.68358336699E+02  0.21047528487E+03  0.22132677372E+03  0.00000000000E+00 0. -1.
</event>
<event>
 7    1  0.2380582E-009  0.8385889E+02  0.7561462E-02  0.1318444E+00
          1   -1    0    0  501    0  0.00000000000E+00  0.00000000000E+00  0.55246623781E+02  0.55246623781E+02  0.00000000000E+00 0. -1.
         -1   -1    0    0    0  501 -0.00000000000E+00 -0.00000000000E+00 -0.22718771301E+03  0.22718771301E+03  0.00000000000E+00 0.  1.
         25    2    1    2    0    0 -0.32124381114E+02  0.67880783227E+01 -0.11002574781E+03  0.16980697088E+03  0.12510271104E+03 0.  0.
          5    1    3    3  502    0 -0.70966947147E+02 -0.72026868108E+01 -0.25899338389E+02  0.76002857931E+02  0.41800000000E+01 0.  1.
         -5    1    3    3    0  502  0.38842566033E+02  0.13990765133E+02 -0.84126409418E+02  0.93804112951E+02  0.41800000000E+01 0.  1.
        -11    1    1    2    0    0  0.11890217711E-01 -0.20031312668E+02  0.17084900048E+02  0.26327693371E+02  0.00000000000E+00 0. -1.
         11    1    1    2    0    0  0.32112490897E+02  0.13243234346E+02 -0.79000241467E+02  0.86299672533E+02  0.00000000000E+00 0.  1.
</event>
<event>
 7    1  0.2380582E-009  0.9220738E+02  0.7561462E-02  0.1297593E+00
          1   -1    0    0  501    0  0.00000000000E+00  0.00000000000E+00  0.11887261460E+03  0.11887261460E+03  0.00000000000E+00 0. -1.
         -1   -1    0    0    0  501 -0.00000000000E+00 -0.00000000000E+00 -0.10056573698E+03  0.10056573698E+03  0.00000000000E+00 0.  1.
         25    2    1    2    0    0 -0.13402551771E+02 -0.72043560146E+01  0.22069178612E+02  0.12792910196E+03  0.12508906964E+03 0.  0.
          5    1    3    3  502    0 -0.49137198881E+02  0.20182035461E+02  0.51398527494E+02  0.74034180605E+02  0.41800000000E+01 0.  1.
         -5    1    3    3    0  502  0.35734647110E+02 -0.27386391475E+02 -0.29329348883E+02  0.53894921356E+02  0.41800000000E+01 0.  1.
        -11    1    1    2    0    0  0.32463299408E+02 -0.29942064327E+02 -0.17575918735E+02  0.47532156947E+02  0.00000000000E+00 0.  1.
         11    1    1    2    0    0 -0.19060747637E+02  0.37146420342E+02  0.13813617747E+02  0.43977092673E+02  0.00000000000E+00 0. -1.
</event>
<event>
 7    1  0.2380582E-009  0.1127787E+03  0.7561462E-02  0.1255509E+00
          1   -1    0    0  501    0  0.00000000000E+00  0.00000000000E+00  0.41817817175E+02  0.41817817175E+02  0.00000000000E+00 0. -1.
         -1   -1    0    0    0  501 -0.00000000000E+00 -0.00000000000E+00 -0.34527107232E+03  0.34527107232E+03  0.00000000000E+00 0.  1.
         25    2    1    2    0    0  0.40019771868E+02 -0.23912769707E+02 -0.20492314573E+03  0.24457565015E+03  0.12510136007E+03 0.  0.
          5    1    3    3  502    0 -0.94366518297E+01 -0.64570422767E+02 -0.73830907800E+02  0.98624871309E+02  0.41800000000E+01 0. -1.
         -5    1    3    3    0  502  0.49456423698E+02  0.40657653060E+02 -0.13109223793E+03  0.14595077884E+03  0.41800000000E+01 0. -1.
        -11    1    1    2    0    0 -0.79423891074E+01  0.52465503931E+02 -0.28154981712E+02  0.60070072771E+02  0.00000000000E+00 0.  1.
         11    1    1    2    0    0 -0.32077382761E+02 -0.28552734224E+02 -0.70375127699E+02  0.82443166576E+02  0.00000000000E+00 0. -1.
</event>
<event>
 7    1  0.2380582E-009  0.1458375E+03  0.7561462E-02  0.1205683E+00
          3   -1    0    0  501    0  0.00000000000E+00  0.00000000000E+00  0.88964426796E+02  0.88964426796E+02  0.00000000000E+00 0. -1.
         -3   -1    0    0    0  501 -0.00000000000E+00 -0.00000000000E+00 -0.37673432458E+03  0.37673432458E+03  0.00000000000E+00 0.  1.
         25    2    1    2    0    0 -0.10065706955E+01 -0.11686401215E+03 -0.36353631403E+02  0.17500685558E+03  0.12509037719E+03 0.  0.
          5    1    3    3  502    0  0.41456382301E+02 -0.90370048884E+02  0.17861098910E+02  0.10110325723E+03  0.41800000000E+01 0.  1.
         -5    1    3    3    0  502 -0.42462952996E+02 -0.26493963261E+02 -0.54214730313E+02  0.73903598352E+02  0.41800000000E+01 0.  1.
        -11    1    1    2    0    0  0.40080271188E+02  0.72323839484E+02 -0.11207437138E+03  0.13927609492E+03  0.00000000000E+00 0. -1.
         11    1    1    2    0    0 -0.39073700493E+02  0.44540172661E+02 -0.13934189500E+03  0.15141580087E+03  0.00000000000E+00 0.  1.
</event>
<event>
 7    1  0.2380582E-009  0.8233675E+02  0.7561462E-02  0.1322548E+00
         -1   -1    0    0    0  501 -0.00000000000E+00  0.00000000000E+00  0.13616120454E+03  0.13616120454E+03  0.00000000000E+00 0.  1.
          1   -1    0    0  501    0  0.00000000000E+00 -0.00000000000E+00 -0.11684396824E+03  0.11684396824E+03  0.00000000000E+00 0. -1.
         25    2    1    2    0    0 -0.30648084711E+02 -0.49074873638E+02  0.43455080661E+02  0.14451472470E+03  0.12509401785E+03 0.  0.
          5    1    3    3  502    0 -0.10807147334E+02 -0.56176875314E+02  0.82186669254E+02  0.10022353395E+03  0.41800000000E+01 0. -1.
         -5    1    3    3    0  502 -0.19840937377E+02  0.71020016754E+01 -0.38731588593E+02  0.44291190758E+02  0.41800000000E+01 0. -1.
        -11    1    1    2    0    0  0.12128890162E+02 -0.14909147778E+02  0.20659908491E+02  0.28217449971E+02  0.00000000000E+00 0.  1.
         11    1    1    2    0    0  0.18519194548E+02  0.63984021416E+02 -0.44797752859E+02  0.80272998104E+02  0.00000000000E+00 0. -1.
</event>
<event>
 7    1  0.2380582E-009  0.2241662E+03  0.7561462E-02  0.1130815E+00
          1   -1    0    0  501    0  0.00000000000E+00  0.00000000000E+00  0.10797986388E+04  0.10797986388E+04  0.00000000000E+00 0. -1.
         -1   -1    0    0    0  501 -0.00000000000E+00 -0.00000000000E+00 -0.58057015497E+02  0.58057015497E+02  0.00000000000E+00 0.  1.
         25    2    1    2    0    0 -0.13862663807E+03 -0.15254478063E+03  0.31910917347E+03  0.39995358150E+03  0.12507976607E+03 0.  0.
          5    1    3    3  502    0 -0.63521414502E+02 -0.13934284418E+03  0.26590046402E+03  0.30687444907E+03  0.41800000000E+01 0. -1.
         -5    1    3    3    0  502 -0.75105223567E+02 -0.13201936452E+02  0.53208709454E+02  0.93079132435E+02  0.41800000000E+01 0. -1.
        -11    1    1    2    0    0  0.50849451224E+02  0.11007810204E+03  0.47562473699E+03  0.49083779976E+03  0.00000000000E+00 0. -1.
         11    1    1    2    0    0  0.87777186844E+02  0.42466678586E+02  0.22700771282E+03  0.24706427302E+03  0.00000000000E+00 0.  1.
</event>
<event>
 7    1  0.2380582E-009  0.1068076E+03  0.7561462E-02  0.1266599E+00
         -2   -1    0    0    0  501 -0.00000000000E+00  0.00000000000E+00  0.43479678255E+02  0.43479678255E+02  0.00000000000E+00 0.  1.
          2   -1    0    0  501    0  0.00000000000E+00 -0.00000000000E+00 -0.30660998171E+03  0.30660998171E+03  0.00000000000E+00 0. -1.
         25    2    1    2    0    0 -0.51037945232E+02 -0.26157881419E+02 -0.12813302710E+03  0.18802621632E+03  0.12508668505E+03 0.  0.
          5    1    3    3  502    0 -0.79793402455E+02 -0.42660558085E+02 -0.50961054547E+02  0.10392984062E+03  0.41800000000E+01 0.  1.
         -5    1    3    3    0  502  0.28755457224E+02  0.16502676666E+02 -0.77171972555E+02  0.84096375696E+02  0.41800000000E+01 0.  1.
        -11    1    1    2    0    0 -0.10179321236E+02  0.26515086926E+02 -0.45262303220E+02  0.53435423722E+02  0.00000000000E+00 0. -1.
         11    1    1    2    0    0  0.61217266468E+02 -0.35720550712E+00 -0.89734973137E+02  0.10862801993E+03  0.00000000000E+00 0.  1.
</event>
<event>
 7    1  0.2380582E-009  0.1159319E+03  0.7561462E-02  0.1249963E+00
          1   -1    0    0  501    0  0.00000000000E+00  0.00000000000E+00  0.33987145270E+03  0.33987145270E+03  0.00000000000E+00 0. -1.
         -1   -1    0    0    0  501 -0.00000000000E+00 -0.00000000000E+00 -0.44128283499E+02  0.44128283499E+02  0.00000000000E+00 0.  1.
         25    2    1    2    0    0 -0.45214529136E+02  0.14083997573E+02  0.11732243084E+03  0.17791761705E+03  0.12508962006E+03 0.  0.
          5    1    3    3  502    0 -0.85473301351E+02 -0.11465611822E+01  0.53857925458E+02  0.10111947578E+03  0.41800000000E+01 0.  1.
         -5    1    3    3    0  502  0.40258772215E+02  0.15230558755E+02  0.63464505379E+02  0.76798141275E+02  0.41800000000E+01 0.  1.
        -11    1    1    2    0    0 -0.64354894789E+01 -0.43244992082E+02  0.71347926683E+02  0.83678381359E+02  0.00000000000E+00 0. -1.
         11    1    1    2    0    0  0.51650018615E+02  0.29160994509E+02  0.10707281168E+03  0.12240373779E+03  0.00000000000E+00 0.  1.
</event>
<event>
 7    1  0.3342211E-009  0.1205200E+03  0.7561462E-02  0.1242242E+00
         -3   -1    0    0    0  501 -0.00000000000E+00  0.00000000000E+00  0.44182394707E+02  0.44182394707E+02  0.00000000000E+00 0.  1.
          3   -1    0    0  501    0  0.00000000000E+00 -0.00000000000E+00 -0.51171080143E+03  0.51171080143E+03  0.00000000000E+00 0. -1.
         25    2    1    2    0    0  0.20499084902E+02 -0.95263702449E+02 -0.18898079792E+03  0.24669114025E+03  0.12508953276E+03 0.  0.
          5    1    3    3  502    0 -0.33723126569E+02 -0.35889140025E+02 -0.99888119961E+01  0.50423490581E+02  0.41800000000E+01 0.  1.
         -5    1    3    3    0  502  0.54222211470E+02 -0.59374562424E+02 -0.17899198593E+03  0.19626764967E+03  0.41800000000E+01 0.  1.
        -11    1    1    2    0    0  0.15161638923E+02  0.87051101079E+01 -0.24363895162E+01  0.17651918612E+02  0.00000000000E+00 0.  1.
         11    1    1    2    0    0 -0.35660723825E+02  0.86558592341E+02 -0.27611121929E+03  0.29155013728E+03  0.00000000000E+00 0. -1.
</event>
<event>
 7    1  0.2409727E-009  0.1553979E+03  0.7561462E-02  0.1193993E+00
          1   -1    0    0  501    0  0.00000000000E+00  0.00000000000E+00  0.23006678124E+04  0.23006678124E+04  0.00000000000E+00 0. -1.
         -1   -1    0    0    0  501 -0.00000000000E+00 -0.00000000000E+00 -0.13921743822E+02  0.13921743822E+02  0.00000000000E+00 0.  1.
         25    2    1    2    0    0 -0.66906390076E+02  0.99280939816E+02  0.17005360817E+04  0.17093288741E+04  0.12509622181E+03 0.  0.
          5    1    3    3  502    0 -0.95953893150E+02  0.95235714031E+02  0.15510117695E+04  0.15568981895E+04  0.41800000000E+01 0. -1.
         -5    1    3    3    0  502  0.29047503075E+02  0.40452257842E+01  0.14952431222E+03  0.15243068467E+03  0.41800000000E+01 0. -1.
        -11    1    1    2    0    0  0.52435658677E+02 -0.11387183054E+03  0.54472649818E+03  0.55896623325E+03  0.00000000000E+00 0. -1.
         11    1    1    2    0    0  0.14470731398E+02  0.14590890729E+02  0.41483488679E+02  0.46294448830E+02  0.00000000000E+00 0.  1.
</event>
<event>
 7    1  0.2380582E-009  0.1490806E+03  0.7561462E-02  0.1201607E+00
          3   -1    0    0  501    0  0.00000000000E+00  0.00000000000E+00  0.78171844933E+02  0.78171844933E+02  0.00000000000E+00 0. -1.
         -3   -1    0    0    0  501 -0.00000000000E+00 -0.00000000000E+00 -0.37117881512E+03  0.37117881512E+03  0.00000000000E+00 0.  1.
         25    2    1    2    0    0  0.11598478248E+03 -0.54174376094E+02 -0.11634324076E+03  0.21347515456E+03  0.12509420111E+03 0.  0.
          5    1    3    3  502    0  0.13732829705E+03 -0.54689304928E+02 -0.12118352566E+03  0.19118812865E+03  0.41800000000E+01 0.  1.
         -5    1    3    3    0  502 -0.21343514574E+02  0.51492883392E+00  0.48402848999E+01  0.22287025912E+02  0.41800000000E+01 0.  1.
        -11    1    1    2    0    0 -0.85939379918E+02  0.45583246244E+02 -0.17984021086E+03  0.20446493782E+03  0.00000000000E+00 0.  1.
         11    1    1    2    0    0 -0.30045402558E+02  0.85911298494E+01  0.31764814320E+01  0.31410567668E+02  0.00000000000E+00 0. -1.
</event>
<event>
 7    1  0.2486252E-009  0.1332814E+03  0.7561462E-02  0.1222666E+00
         -2   -1    0    0    0  501 -0.00000000000E+00  0.00000000000E+00  0.35229831223E+02  0.35229831223E+02  0.00000000000E+00 0. -1.
          2   -1    0    0  501    0  0.00000000000E+00 -0.00000000000E+00 -0.65102742339E+03  0.65102742339E+03  0.00000000000E+00 0.  1.
         25    2    1    2    0    0  0.40293648945E+02 -0.90628046972E+02 -0.25213680851E+03  0.29842519933E+03  0.12509040070E+03 0.  0.
          5    1    3    3  502    0  0.49589922994E+02 -0.11488860663E+03 -0.16330623012E+03  0.20577888520E+03  0.41800000000E+01 0. -1.
         -5    1    3    3    0  502 -0.92962740487E+01  0.24260559660E+02 -0.88830578388E+02  0.92646314136E+02  0.41800000000E+01 0. -1.
        -11    1    1    2    0    0 -0.48270416116E+02  0.36983291369E+02 -0.88504541801E+02  0.10738179935E+03  0.00000000000E+00 0. -1.
         11    1    1    2    0    0  0.79767671712E+01  0.53644755603E+02 -0.27515624186E+03  0.28045025593E+03  0.00000000000E+00 0.  1.
</event>
<event>
 7    1  0.2380582E-009  0.3771612E+03  0.7561462E-02  0.1051988E+00
         -1   -1    0    0    0  501 -0.00000000000E+00  0.00000000000E+00  0.24015520372E+03  0.24015520372E+03  0.00000000000E+00 0.  1.
          1   -1    0    0  501    0  0.00000000000E+00 -0.00000000000E+00 -0.59706858934E+03  0.59706858934E+03  0.00000000000E+00 0. -1.
         25    2    1    2    0    0  0.24141341336E+03 -0.26836895559E+03 -0.14397347972E+03  0.40826231327E+03  0.12508965226E+03 0.  0.
          5    1    3    3  502    0  0.96803854886E+02 -0.19950346712E+03 -0.81477747858E+02  0.23628100962E+03  0.41800000000E+01 0.  1.
         -5    1    3    3    0  502  0.14460955847E+03 -0.68865488472E+02 -0.62495731862E+02  0.17198130365E+03  0.41800000000E+01 0.  1.
        -11    1    1    2    0    0 -0.17511576608E+03  0.12748426070E+03 -0.11985556491E+03  0.24755428636E+03  0.00000000000E+00 0. -1.
         11    1    1    2    0    0 -0.66297647286E+02  0.14088469489E+03 -0.93084340995E+02  0.18140719343E+03  0.00000000000E+00 0.  1.
</event>
<event>
 7    1  0.2380582E-009  0.1459092E+03  0.7561462E-02  0.1205592E+00
         -2   -1    0    0    0  501 -0.00000000000E+00  0.00000000000E+00  0.65008843007E+02  0.65008843007E+02  0.00000000000E+00 0. -1.
          2   -1    0    0  501    0  0.00000000000E+00 -0.00000000000E+00 -0.59933931652E+03  0.59933931652E+03  0.00000000000E+00 0.  1.
         25    2    1    2    0    0 -0.11337859917E+03  0.33492010261E+02 -0.47036734000E+03  0.50086965326E+03  0.12509417862E+03 0.  0.
          5    1    3    3  502    0  0.71746551584E+01 -0.15075698683E+02 -0.20122799418E+03  0.20196269559E+03  0.41800000000E+01 0. -1.
         -5    1    3    3    0  502 -0.12055325432E+03  0.48567708944E+02 -0.26913934581E+03  0.29890695767E+03  0.41800000000E+01 0. -1.
        -11    1    1    2    0    0  0.65330377663E+02  0.24040930358E+02 -0.82855991378E+01  0.70104748278E+02  0.00000000000E+00 0.  1.
         11    1    1    2    0    0  0.48048221502E+02 -0.57532940620E+02 -0.55677534379E+02  0.93373757986E+02  0.00000000000E+00 0. -1.
</event>
<event>
 7    1  0.2380582E-009  0.1044692E+03  0.7561462E-02  0.1271169E+00
         -1   -1    0    0    0  501 -0.00000000000E+00  0.00000000000E+00  0.12945757481E+03  0.12945757481E+03  0.00000000000E+00 0.  1.
          1   -1    0    0  501    0  0.00000000000E+00 -0.00000000000E+00 -0.18726751816E+03  0.18726751816E+03  0.00000000000E+00 0. -1.
         25    2    1    2    0    0  0.11071779334E+02  0.50515529659E+02  0.68786155462E+02  0.15183492476E+03  0.12509159108E+03 0.  0.
          5    1    3    3  502    0  0.41800139924E+02  0.79080810406E+02  0.62513763077E+02  0.10920837535E+03  0.41800000000E+01 0. -1.
         -5    1    3    3    0  502 -0.30728360590E+02 -0.28565280747E+02  0.62723923855E+01  0.42626549414E+02  0.41800000000E+01 0. -1.
        -11    1    1    2    0    0  0.61604654902E+01  0.11401594350E+02  0.83528500816E+01  0.15418099535E+02  0.00000000000E+00 0.  1.
         11    1    1    2    0    0 -0.17232244824E+02 -0.61917124009E+02 -0.13494894889E+03  0.14947206867E+03  0.00000000000E+00 0. -1.
</event>
<event>
 7    1  0.2380582E-009  0.6080251E+02  0.7561462E-02  0.1394495E+00
          1   -1    0    0  501    0  0.00000000000E+00  0.00000000000E+00  0.66160157776E+02  0.66160157776E+02  0.00000000000E+00 0. -1.
         -1   -1    0    0    0  501 -0.00000000000E+00 -0.00000000000E+00 -0.25728856901E+03  0.25728856901E+03  0.00000000000E+00 0.  1.
         25    2    1    2    0    0  0.54611055910E+02  0.59076837085E+01 -0.74741803779E+02  0.15572729159E+03  0.12508950379E+03 0.  0.
          5    1    3    3  502    0  0.56590696052E+02  0.72686744936E+01  0.20194835992E+02  0.60668313882E+02  0.41800000000E+01 0.  1.
         -5    1    3    3    0  502 -0.19796401419E+01 -0.13609907851E+01 -0.94936639771E+02  0.95058977704E+02  0.41800000000E+01 0.  1.
        -11    1    1    2    0    0 -0.40017501529E+02 -0.14590124043E+02 -0.13556888601E+03  0.14210276212E+03  0.00000000000E+00 0.  1.
         11    1    1    2    0    0 -0.14593554381E+02  0.86824403347E+01  0.19182278557E+02  0.25618673078E+02  0.00000000000E+00 0. -1.
</event>
<event>
 7    1  0.2380582E-009  0.1591352E+03  0.7561462E-02  0.1189677E+00
          1   -1    0    0  501    0  0.00000000000E+00  0.00000000000E+00  0.34163966482E+03  0.34163966482E+03  0.00000000000E+00 0. -1.
         -1   -1    0    0    0  501 -0.00000000000E+00 -0.00000000000E+00 -0.76945722051E+02  0.76945722051E+02  0.00000000000E+00 0.  1.
         25    2    1    2    0    0  0.49251464606E+02  0.10913804679E+03  0.12590759910E+03  0.21409564999E+03  0.12508958314E+03 0.  0.
          5    1    3    3  502    0  0.51482109780E+02  0.13436645944E+03  0.12080107989E+03  0.18792319269E+03  0.41800000000E+01 0.  1.
         -5    1    3    3    0  502 -0.22306451742E+01 -0.25228412648E+02  0.51065192163E+01  0.26172457300E+02  0.41800000000E+01 0.  1.
        -11    1    1    2    0    0 -0.25488736398E+02 -0.11988796664E+03  0.12468570797E+03  0.17484085907E+03  0.00000000000E+00 0. -1.
         11    1    1    2    0    0 -0.23762728208E+02  0.10749919847E+02  0.14100635699E+02  0.29648877815E+02  0.00000000000E+00 0.  1.
</event>
<event>
 7    1  0.2380582E-009  0.1129005E+03  0.7561462E-02  0.1255291E+00
          2   -1    0    0  501    0  0.00000000000E+00  0.00000000000E+00  0.28853231023E+03  0.28853231023E+03  0.00000000000E+00 0. -1.
         -2   -1    0    0    0  501 -0.00000000000E+00 -0.00000000000E+00 -0.48010978759E+02  0.48010978759E+02  0.00000000000E+00 0.  1.
         25    2    1    2    0    0 -0.95100077345E+01 -0.36761664028E+02  0.10267967838E+03  0.16622810230E+03  0.12508719140E+03 0.  0.
          5    1    3    3  502    0 -0.62018398308E+02 -0.42533780209E+02  0.75616520853E+02  0.10672738549E+03  0.41800000000E+01 0. -1.
         -5    1    3    3    0  502  0.52508390574E+02  0.57721161802E+01  0.27063157525E+02  0.59500716811E+02  0.41800000000E+01 0. -1.
        -11    1    1    2    0    0 -0.32224771088E+02 -0.11014240080E+02  0.30957549346E+02  0.46023029211E+02  0.00000000000E+00 0.  1.
         11    1    1    2    0    0  0.41734778822E+02  0.47775904108E+02  0.10688410375E+03  0.12429215748E+03  0.00000000000E+00 0. -1.
</event>
<event>
 7    1  0.3565404E-009  0.1265447E+03  0.7561462E-02  0.1232675E+00
          1   -1    0    0  501    0  0.00000000000E+00  0.00000000000E+00  0.13609879833E+04  0.13609879833E+04  0.00000000000E+00 0. -1.
         -1   -1    0    0    0  501 -0.00000000000E+00 -0.00000000000E+00 -0.14329597612E+02  0.14329597612E+02  0.00000000000E+00 0.  1.
         25    2    1    2    0    0  0.86256966460E+02  0.11427228289E+02  0.77815120942E+03  0.79292919369E+03  0.12508619299E+03 0.  0.
          5    1    3    3  502    0 -0.17389041865E+02 -0.10468512182E+02  0.39029720180E+03  0.39084696066E+03  0.41800000000E+01 0. -1.
         -5    1    3    3    0  502  0.10364600832E+03  0.21895740471E+02  0.38785400762E+03  0.40208223303E+03  0.41800000000E+01 0. -1.
        -11    1    1    2    0    0 -0.53181298136E+02  0.39066449560E+02  0.30466371097E+03  0.31172811027E+03  0.00000000000E+00 0. -1.
         11    1    1    2    0    0 -0.33075668323E+02 -0.50493677849E+02  0.26384346534E+03  0.27066027699E+03  0.00000000000E+00 0.  1.
</event>
<event>
 7    1  0.2380582E-009  0.1491328E+03  0.7561462E-02  0.1201543E+00
          1   -1    0    0  501    0  0.00000000000E+00  0.00000000000E+00  0.53911548237E+03  0.53911548237E+03  0.00000000000E+00 0. -1.
         -1   -1    0    0    0  501 -0.00000000000E+00 -0.00000000000E+00 -0.45695884440E+02  0.45695884440E+02  0.00000000000E+00 0.  1.
         25    2    1    2    0    0 -0.11184495382E+03  0.10977203592E+02  0.24474783374E+03  0.29694980992E+03  0.12509154568E+03 0.  0.
          5    1    3    3  502    0 -0.35512517168E+02 -0.47887149665E+02  0.15110634201E+03  0.16249589833E+03  0.41800000000E+01 0.  1.
         -5    1    3    3    0  502 -0.76332436652E+02  0.58864353256E+02  0.93641491726E+02  0.13445391159E+03  0.41800000000E+01 0.  1.
        -11    1    1    2    0    0  0.83328900596E+01 -0.34812949272E+02  0.90605465991E+02  0.97420372414E+02  0.00000000000E+00 0. -1.
         11    1    1    2    0    0  0.10351206376E+03  0.23835745680E+02  0.15806629820E+03  0.19044118447E+03  0.00000000000E+00 0.  1.
</event>
<event>
 7    1  0.2380582E-009  0.1042046E+03  0.7561462E-02  0.1271695E+00
          1   -1    0    0  501    0  0.00000000000E+00  0.00000000000E+00  0.42419272461E+03  0.42419272461E+03  0.00000000000E+00 0. -1.
         -1   -1    0    0    0  501 -0.00000000000E+00 -0.00000000000E+00 -0.44442440138E+02  0.44442440138E+02  0.00000000000E+00 0.  1.
         25    2    1    2    0    0 -0.41488908103E+02 -0.16501602247E+02  0.33466128701E+03  0.36005529047E+03  0.12509197734E+03 0.  0.
          5    1    3    3  502    0  0.29372253844E+02  0.14458882632E+02  0.26541054950E+02  0.42351960765E+02  0.41800000000E+01 0. -1.
         -5    1    3    3    0  502 -0.70861161946E+02 -0.30960484878E+02  0.30812023206E+03  0.31770332970E+03  0.41800000000E+01 0. -1.
        -11    1    1    2    0    0 -0.83115177265E+01 -0.29206524606E+02  0.76803102824E+01  0.31322349410E+02  0.00000000000E+00 0.  1.
         11    1    1    2    0    0  0.49800425829E+02  0.45708126853E+02  0.37408687177E+02  0.77257524873E+02  0.00000000000E+00 0. -1.
</event>
<event>
 7    1  0.2380582E-009  0.9873646E+02  0.7561462E-02  0.1282976E+00
         -2   -1    0    0    0  501 -0.00000000000E+00  0.00000000000E+00  0.58134399865E+02  0.58134399865E+02  0.00000000000E+00 0.  1.
          2   -1    0    0  501    0  0.00000000000E+00 -0.00000000000E+00 -0.40124802468E+03  0.40124802468E+03  0.00000000000E+00 0. -1.
         25    2    1    2    0    0  0.60576523667E+02 -0.64816978356E+02 -0.27754082425E+03  0.31709105497E+03  0.12508825731E+03 0.  0.
          5    1    3    3  502    0  0.62896413624E+02 -0.23941719778E+02 -0.45301028539E+02  0.81233123659E+02  0.41800000000E+01 0. -1.
         -5    1    3    3    0  502 -0.23198899574E+01 -0.40875258578E+02 -0.23223979571E+03  0.23585793132E+03  0.41800000000E+01 0. -1.
        -11    1    1    2    0    0 -0.50227222830E+02  0.50507499944E+02 -0.88338602478E+02  0.11347902957E+03  0.00000000000E+00 0. -1.
         11    1    1    2    0    0 -0.10349300837E+02  0.14309478412E+02  0.22765801907E+02  0.28812340008E+02  0.00000000000E+00 0.  1.
</event>
<event>
 7    1  0.2380582E-009  0.1618826E+03  0.7561462E-02  0.1186588E+00
         -2   -1    0    0    0  501 -0.00000000000E+00  0.00000000000E+00  0.20991873869E+02  0.20991873869E+02  0.00000000000E+00 0.  1.
          2   -1    0    0  501    0  0.00000000000E+00 -0.00000000000E+00 -0.16064581114E+04  0.16064581114E+04  0.00000000000E+00 0. -1.
         25    2    1    2    0    0 -0.21478083412E+02 -0.12562091957E+03 -0.11702052923E+04  0.11837518280E+04  0.12508413474E+03 0.  0.
          5    1    3    3  502    0  0.24573561790E+02 -0.12970418789E+03 -0.85075235346E+03  0.86094371222E+03  0.41800000000E+01 0. -1.
         -5    1    3    3    0  502 -0.46051645202E+02  0.40832683184E+01 -0.31945293884E+03  0.32280811582E+03  0.41800000000E+01 0. -1.
        -11    1    1    2    0    0 -0.20209746712E+02  0.83854679568E+02 -0.16068665269E+03  0.18237390576E+03  0.00000000000E+00 0.  1.
         11    1    1    2    0    0  0.41687830123E+02  0.41766240006E+02 -0.25457429254E+03  0.26132425147E+03  0.00000000000E+00 0. -1.
</event>
<event>
 7    1  0.2380582E-009  0.9869612E+02  0.7561462E-02  0.1283062E+00
          1   -1    0    0  501    0  0.00000000000E+00  0.00000000000E+00  0.86041542236E+02  0.86041542236E+02  0.00000000000E+00 0. -1.
         -1   -1    0    0    0  501 -0.00000000000E+00 -0.00000000000E+00 -0.25392359446E+03  0.25392359446E+03  0.00000000000E+00 0.  1.
         25    2    1    2    0    0 -0.27469167712E+02 -0.76689787962E+02 -0.15730512483E+03  0.21685921222E+03  0.12508851615E+03 0.  0.
          5    1    3    3  502    0 -0.34284117434E+02 -0.73850509326E+02 -0.26423368181E+02  0.85702772545E+02  0.41800000000E+01 0. -1.
         -5    1    3    3    0  502  0.68149497219E+01 -0.28392786365E+01 -0.13088175665E+03  0.13115643967E+03  0.41800000000E+01 0. -1.
        -11    1    1    2    0    0  0.22775382172E+02 -0.67922733491E+01 -0.28991639591E+02  0.37488240509E+02  0.00000000000E+00 0.  1.
         11    1    1    2    0    0  0.46937855401E+01  0.83482061312E+02  0.18414712197E+02  0.85617683973E+02  0.00000000000E+00 0. -1.
</event>
<event>
 7    1  0.2380582E-009  0.9165519E+02  0.7561462E-02  0.1298892E+00
         -2   -1    0    0    0  501 -0.00000000000E+00  0.00000000000E+00  0.44816197572E+02  0.44816197572E+02  0.00000000000E+00 0.  1.
          2   -1    0    0  501    0  0.00000000000E+00 -0.00000000000E+00 -0.29456417205E+03  0.29456417205E+03  0.00000000000E+00 0. -1.
         25    2    1    2    0    0 -0.12958940833E+02 -0.34386094296E+02 -0.13021275434E+03  0.18426350016E+03  0.12508932198E+03 0.  0.
          5    1    3    3  502    0 -0.41125270230E+00 -0.60310531392E+02 -0.14085053729E+03  0.15327712021E+03  0.41800000000E+01 0.  1.
         -5    1    3    3    0  502 -0.12547688131E+02  0.25924437096E+02  0.10637782957E+02  0.30986379950E+02  0.41800000000E+01 0.  1.
        -11    1    1    2    0    0 -0.32263857404E+02  0.36200340561E+02 -0.37031029155E+02  0.61014082568E+02  0.00000000000E+00 0.  1.
         11    1    1    2    0    0  0.45222798237E+02 -0.18142462649E+01 -0.82504190990E+02  0.94102786892E+02  0.00000000000E+00 0. -1.
</event>
<event>
 7    1  0.2380582E-009  0.1006615E+03  0.7561462E-02  0.1278911E+00
         -1   -1    0    0    0  501 -0.00000000000E+00  0.00000000000E+00  0.38408362905E+03  0.38408362905E+03  0.00000000000E+00 0.  1.
          1   -1    0    0  501    0  0.00000000000E+00 -0.00000000000E+00 -0.36101385179E+02  0.36101385179E+02  0.00000000000E+00 0. -1.
         25    2    1    2    0    0 -0.27929500192E+02 -0.24339112612E+02  0.24564092487E+03  0.27814193451E+03  0.12510404622E+03 0.  0.
          5    1    3    3  502    0  0.38927136246E+02 -0.27426201931E+02  0.41614511714E+02  0.63377902094E+02  0.41800000000E+01 0.  1.
         -5    1    3    3    0  502 -0.66856636439E+02  0.30870893191E+01  0.20402641316E+03  0.21476403242E+03  0.41800000000E+01 0.  1.
        -11    1    1    2    0    0  0.10828763966E+01  0.49593261796E+02  0.23246523837E+02  0.54781977943E+02  0.00000000000E+00 0. -1.
         11    1    1    2    0    0  0.26846623796E+02 -0.25254149184E+02  0.79094795161E+02  0.87261101768E+02  0.00000000000E+00 0.  1.
</event>
<event>
 7    1  0.2380582E-009  0.9713355E+02  0.7561462E-02  0.1286442E+00
          1   -1    0    0  501    0  0.00000000000E+00  0.00000000000E+00  0.73941398443E+02  0.73941398443E+02  0.00000000000E+00 0. -1.
         -1   -1    0    0    0  501 -0.00000000000E+00 -0.00000000000E+00 -0.18115600157E+03  0.18115600157E+03  0.00000000000E+00 0.  1.
         25    2    1    2    0    0  0.16255545059E+02  0.16914532451E+01 -0.18509866077E+02  0.12750081372E+03  0.12508692417E+03 0.  0.
          5    1    3    3  502    0 -0.19632230973E+02  0.52096412030E+02  0.13888975089E+02  0.57531179967E+02  0.41800000000E+01 0.  1.
         -5    1    3    3    0  502  0.35887776032E+02 -0.50404958785E+02 -0.32398841167E+02  0.69969633753E+02  0.41800000000E+01 0.  1.
        -11    1    1    2    0    0 -0.13867550711E+02 -0.37784528891E+02 -0.81238025869E+02  0.90661990014E+02  0.00000000000E+00 0.  1.
         11    1    1    2    0    0 -0.23879943472E+01  0.36093075646E+02 -0.74667111840E+01  0.36934596282E+02  0.00000000000E+00 0. -1.
</event>
<event>
 7    1  0.2380582E-009  0.9681466E+02  0.7561462E-02  0.1287141E+00
         -1   -1    0    0    0  501 -0.00000000000E+00  0.00000000000E+00  0.22565507009E+02  0.22565507009E+02  0.00000000000E+00 0.  1.
          1   -1    0    0  501    0  0.00000000000E+00 -0.00000000000E+00 -0.70040204233E+03  0.70040204233E+03  0.00000000000E+00 0. -1.
         25    2    1    2    0    0 -0.54887320091E+02 -0.28904939134E+02 -0.38417703914E+03  0.40876365678E+03  0.12509043242E+03 0.  0.
          5    1    3    3  502    0 -0.78107962542E+02 -0.44483295238E+02 -0.16651597222E+03  0.18927403090E+03  0.41800000000E+01 0.  1.
         -5    1    3    3    0  502  0.23220642451E+02  0.15578356104E+02 -0.21766106692E+03  0.21948962588E+03  0.41800000000E+01 0.  1.
        -11    1    1    2    0    0  0.16045656896E+01  0.21520909852E+02 -0.72187244438E+01  0.22755970085E+02  0.00000000000E+00 0.  1.
         11    1    1    2    0    0  0.53282754401E+02  0.73840292824E+01 -0.28644077173E+03  0.29144792247E+03  0.00000000000E+00 0. -1.
</event>
<event>
 7    1  0.2380582E-009  0.8838145E+02  0.7561462E-02  0.1306819E+00
         -1   -1    0    0    0  501 -0.00000000000E+00  0.00000000000E+00  0.35660404083E+02  0.35660404083E+02  0.00000000000E+00 0.  1.
          1   -1    0    0  501    0  0.00000000000E+00 -0.00000000000E+00 -0.37970661744E+03  0.37970661744E+03  0.00000000000E+00 0. -1.
         25    2    1    2    0    0 -0.15180635086E+02  0.37238296846E+02 -0.19802282780E+03  0.23765011330E+03  0.12508954227E+03 0.  0.
          5    1    3    3  502    0  0.18250669616E+02  0.68596759284E+02 -0.63008648534E+02  0.95006128832E+02  0.41800000000E+01 0.  1.
         -5    1    3    3    0  502 -0.33431304702E+02 -0.31358462437E+02 -0.13501417927E+03  0.14264398447E+03  0.41800000000E+01 0.  1.
        -11    1    1    2    0    0  0.30061898695E+02 -0.17084575327E+02 -0.14856510452E+03  0.15253586708E+03  0.00000000000E+00 0. -1.
         11    1    1    2    0    0 -0.14881263609E+02 -0.20153721519E+02  0.25417189617E+01  0.25181041141E+02  0.00000000000E+00 0.  1.
</event>
<event>
 7    1  0.2380582E-009  0.1907224E+03  0.7561462E-02  0.1157811E+00
         -1   -1    0    0    0  501 -0.00000000000E+00  0.00000000000E+00  0.40759964514E+02  0.40759964514E+02  0.00000000000E+00 0.  1.
          1   -1    0    0  501    0  0.00000000000E+00 -0.00000000000E+00 -0.12336501354E+04  0.12336501354E+04  0.00000000000E+00 0. -1.
         25    2    1    2    0    0 -0.14715508669E+03  0.81249051915E+02 -0.90003245327E+03  0.92410008887E+03  0.12508608772E+03 0.  0.
          5    1    3    3  502    0 -0.16369149302E+03  0.66005362637E+02 -0.86051566163E+03  0.87843969007E+03  0.41800000000E+01 0. -1.
         -5    1    3    3    0  502  0.16536406330E+02  0.15243689278E+02 -0.39516791635E+02  0.45660398797E+02  0.41800000000E+01 0. -1.
        -11    1    1    2    0    0  0.55690122276E+02  0.54998360015E+01 -0.43429519241E+02  0.70836156422E+02  0.00000000000E+00 0.  1.
         11    1    1    2    0    0  0.91464964412E+02 -0.86748887917E+02 -0.24942819835E+03  0.27947385460E+03  0.00000000000E+00 0. -1.
</event>
<event>
 7    1  0.2380582E-009  0.1129815E+03  0.7561462E-02  0.1255146E+00
         -2   -1    0    0    0  501 -0.00000000000E+00  0.00000000000E+00  0.33413922949E+02  0.33413922949E+02  0.00000000000E+00 0.  1.
          2   -1    0    0  501    0  0.00000000000E+00 -0.00000000000E+00 -0.53874577052E+03  0.53874577052E+03  0.00000000000E+00 0. -1.
         25    2    1    2    0    0 -0.38555206626E+02  0.18154362433E+02 -0.41697831468E+03  0.43741745264E+03  0.12508808146E+03 0.  0.
          5    1    3    3  502    0  0.19016577263E+02 -0.38631308266E+02 -0.22400699113E+03  0.22814603363E+03  0.41800000000E+01 0. -1.
         -5    1    3    3    0  502 -0.57571783889E+02  0.56785670699E+02 -0.19297132355E+03  0.20927141900E+03  0.41800000000E+01 0. -1.
        -11    1    1    2    0    0  0.21772431254E+02  0.37630351914E+02 -0.37464086061E+02  0.57390242134E+02  0.00000000000E+00 0.  1.
         11    1    1    2    0    0  0.16782775372E+02 -0.55784714347E+02 -0.50889446826E+02  0.77351998696E+02  0.00000000000E+00 0. -1.
</event>
<event>
 7    1  0.2380582E-009  0.3350644E+03  0.7561462E-02  0.1068918E+00
         -1   -1    0    0    0  501 -0.00000000000E+00  0.00000000000E+00  0.79350196601E+02  0.79350196601E+02  0.00000000000E+00 0.  1.
          1   -1    0    0  501    0  0.00000000000E+00 -0.00000000000E+00 -0.17483021032E+04  0.17483021032E+04  0.00000000000E+00 0. -1.
         25    2    1    2    0    0 -0.75073850766E+02 -0.31174922075E+03 -0.12247539225E+04  0.12722003857E+04  0.12509192929E+03 0.  0.
          5    1    3    3  502    0  0.71339722527E+01 -0.21216361495E+03 -0.83587544123E+03  0.86242073185E+03  0.41800000000E+01 0. -1.
         -5    1    3    3    0  502 -0.82207823018E+02 -0.99585605809E+02 -0.38887848131E+03  0.40977965381E+03  0.41800000000E+01 0. -1.
        -11    1    1    2    0    0  0.42642744760E+02  0.53929679493E+02 -0.57875771801E+02  0.89868898805E+02  0.00000000000E+00 0.  1.
         11    1    1    2    0    0  0.32431106006E+02  0.25781954126E+03 -0.38632221228E+03  0.46558301536E+03  0.00000000000E+00 0. -1.
</event>
<event>
 7    1  0.2380582E-009  0.1324056E+03  0.7561462E-02  0.1223929E+00
          4   -1    0    0  501    0  0.00000000000E+00  0.00000000000E+00  0.30039548756E+03  0.30039548756E+03  0.00000000000E+00 0. -1.
         -4   -1    0    0    0  501 -0.00000000000E+00 -0.00000000000E+00 -0.73859026574E+02  0.73859026574E+02  0.00000000000E+00 0.  1.
         25    2    1    2    0    0  0.10646728324E+02  0.75014226176E+02  0.37820567013E+02  0.15105816936E+03  0.12509072024E+03 0.  0.
          5    1    3    3  502    0  0.62052066909E+02  0.98852293834E+01  0.12435611244E+02  0.64189513121E+02  0.41800000000E+01 0. -1.
         -5    1    3    3    0  502 -0.51405338585E+02  0.65128996792E+02  0.25384955769E+02  0.86868656244E+02  0.41800000000E+01 0. -1.
        -11    1    1    2    0    0 -0.48967525714E+02 -0.22856836797E+02  0.95198579636E+02  0.10946699561E+03  0.00000000000E+00 0.  1.
         11    1    1    2    0    0  0.38320797390E+02 -0.52157389379E+02  0.93517314331E+02  0.11372934915E+03  0.00000000000E+00 0. -1.
</event>
<event>
 7    1  0.2380582E-009  0.1223372E+03  0.7561462E-02  0.1239290E+00
         -3   -1    0    0    0  501 -0.00000000000E+00  0.00000000000E+00  0.15031139548E+03  0.15031139548E+03  0.00000000000E+00 0.  1.
          3   -1    0    0  501    0  0.00000000000E+00 -0.00000000000E+00 -0.15125417572E+03  0.15125417572E+03  0.00000000000E+00 0. -1.
         25    2    1    2    0    0 -0.38890670383E+02 -0.94899682189E+02 -0.75088088696E+01  0.16193102045E+03  0.12508732650E+03 0.  0.
          5    1    3    3  502    0  0.15538009176E+02  0.92164672034E+00 -0.43128290370E+02  0.46041296594E+02  0.41800000000E+01 0. -1.
         -5    1    3    3    0  502 -0.54428679559E+02 -0.95821328909E+02  0.35619481500E+02  0.11588972385E+03  0.41800000000E+01 0. -1.
        -11    1    1    2    0    0  0.26072901874E+02  0.10083578118E+03 -0.23184109438E+02  0.10670123668E+03  0.00000000000E+00 0. -1.
         11    1    1    2    0    0  0.12817768509E+02 -0.59360989925E+01  0.29750138068E+02  0.32933314074E+02  0.00000000000E+00 0.  1.
</event>
<event>
 7    1  0.2380582E-009  0.5391508E+02  0.7561462E-02  0.1425300E+00
          3   -1    0    0  501    0  0.00000000000E+00  0.00000000000E+00  0.23877792055E+03  0.23877792055E+03  0.00000000000E+00 0.  1.
         -3   -1    0    0    0  501 -0.00000000000E+00 -0.00000000000E+00 -0.52898510495E+02  0.52898510495E+02  0.00000000000E+00 0. -1.
         25    2    1    2    0    0  0.16613901617E+02 -0.24828677447E+02  0.12628492459E+03  0.18024265612E+03  0.12508816072E+03 0.  0.
          5    1    3    3  502    0 -0.86178323900E+01 -0.18570023452E+02 -0.21588050507E+02  0.30043786892E+02  0.41800000000E+01 0. -1.
         -5    1    3    3    0  502  0.25231734007E+02 -0.62586539951E+01  0.14787297510E+03  0.15019886922E+03  0.41800000000E+01 0. -1.
        -11    1    1    2    0    0 -0.35174376814E+02  0.22838352795E+02  0.75855894276E+02  0.86677239452E+02  0.00000000000E+00 0.  1.
         11    1    1    2    0    0  0.18560475197E+02  0.19903246524E+01 -0.16261408820E+02  0.24756535472E+02  0.00000000000E+00 0. -1.
</event>
<event>
 7    1  0.2380582E-009  0.1532577E+03  0.7561462E-02  0.1196526E+00
          3   -1    0    0  501    0  0.00000000000E+00  0.00000000000E+00  0.42285369724E+03  0.42285369724E+03  0.00000000000E+00 0. -1.
         -3   -1    0    0    0  501 -0.00000000000E+00 -0.00000000000E+00 -0.83385275736E+02  0.83385275736E+02  0.00000000000E+00 0.  1.
         25    2    1    2    0    0  0.12638485978E+03 -0.83206610787E+02  0.23395577751E+03  0.30541474555E+03  0.12508552318E+03 0.  0.
          5    1    3    3  502    0  0.61094908507E+02 -0.52865910338E+02  0.25480137465E+02  0.84818053070E+02  0.41800000000E+01 0.  1.
         -5    1    3    3    0  502  0.65289951272E+02 -0.30340700449E+02  0.20847564005E+03  0.22059669248E+03  0.41800000000E+01 0.  1.
        -11    1    1    2    0    0 -0.55751055625E+02  0.21655380835E+02  0.12039272301E+00  0.59809282029E+02  0.00000000000E+00 0.  1.
         11    1    1    2    0    0 -0.70633804153E+02  0.61551229952E+02  0.10539225127E+03  0.14101494540E+03  0.00000000000E+00 0. -1.
</event>
<event>
 7    1  0.2380582E-009  0.9821983E+02  0.7561462E-02  0.1284085E+00
         -2   -1    0    0    0  501 -0.00000000000E+00  0.00000000000E+00  0.15787880902E+02  0.15787880902E+02  0.00000000000E+00 0.  1.
          2   -1    0    0  501    0  0.00000000000E+00 -0.00000000000E+00 -0.89796438429E+03  0.89796438429E+03  0.00000000000E+00 0. -1.
         25    2    1    2    0    0  0.27959348777E+02  0.24368815192E+02 -0.64005157947E+03  0.65321432543E+03  0.12508943294E+03 0.  0.
          5    1    3    3  502    0  0.16328529765E+02 -0.39294282972E+02 -0.93305441295E+02  0.10263546821E+03  0.41800000000E+01 0.  1.
         -5    1    3    3    0  502  0.11630819012E+02  0.63663098164E+02 -0.54674613817E+03  0.55057885723E+03  0.41800000000E+01 0.  1.
        -11    1    1    2    0    0 -0.66213689789E+01 -0.52839068114E+02 -0.19076485498E+03  0.19805817211E+03  0.00000000000E+00 0. -1.
         11    1    1    2    0    0 -0.21337979798E+02  0.28470252922E+02 -0.51360068947E+02  0.62479767650E+02  0.00000000000E+00 0.  1.
</event>
<event>
 7    1  0.2380582E-009  0.4890049E+03  0.7561462E-02  0.1016689E+00
         -2   -1    0    0    0  501 -0.00000000000E+00  0.00000000000E+00  0.11351279570E+03  0.11351279570E+03  0.00000000000E+00 0. -1.
          2   -1    0    0  501    0  0.00000000000E+00 -0.00000000000E+00 -0.22175229623E+04  0.22175229623E+04  0.00000000000E+00 0.  1.
         25    2    1    2    0    0  0.10813617848E+03  0.47450287852E+03 -0.93501612372E+03  0.10614841746E+04  0.12508831471E+03 0.  0.
          5    1    3    3  502    0  0.35204118872E+02  0.14048315879E+03 -0.41095461798E+03  0.43574765442E+03  0.41800000000E+01 0. -1.
         -5    1    3    3    0  502  0.72932059606E+02  0.33401971973E+03 -0.52406150574E+03  0.62573652018E+03  0.41800000000E+01 0. -1.
        -11    1    1    2    0    0 -0.61442031943E+02 -0.13274683027E+03 -0.42550362905E+03  0.44994464390E+03  0.00000000000E+00 0.  1.
         11    1    1    2    0    0 -0.46694146536E+02 -0.34175604825E+03 -0.74349041381E+03  0.81960693949E+03  0.00000000000E+00 0. -1.
</event>
<event>
 7    1  0.2380582E-009  0.7909070E+02  0.7561462E-02  0.1331652E+00
          2   -1    0    0  501    0  0.00000000000E+00  0.00000000000E+00  0.15965073579E+03  0.15965073579E+03  0.00000000000E+00 0. -1.
         -2   -1    0    0    0  501 -0.00000000000E+00 -0.00000000000E+00 -0.93228690759E+02  0.93228690759E+02  0.00000000000E+00 0.  1.
         25    2    1    2    0    0 -0.38535715474E+02  0.20480604184E+02  0.19220406140E+02  0.13387089225E+03  0.12509010858E+03 0.  0.
          5    1    3    3  502    0  0.36292873345E+01 -0.27053717914E+01 -0.49495698377E+02  0.49877723694E+02  0.41800000000E+01 0.  1.
         -5    1    3    3    0  502 -0.42165002809E+02  0.23185975975E+02  0.68716104518E+02  0.83993168555E+02  0.41800000000E+01 0.  1.
        -11    1    1    2    0    0  0.67490231239E+02  0.12751603749E+01  0.47923639158E+02  0.82784252952E+02  0.00000000000E+00 0. -1.
         11    1    1    2    0    0 -0.28954515765E+02 -0.21755764559E+02 -0.72200026796E+00  0.36224281347E+02  0.00000000000E+00 0.  1.
</event>
<event>
 7    1  0.2380582E-009  0.8845466E+02  0.7561462E-02  0.1306638E+00
         -1   -1    0    0    0  501 -0.00000000000E+00  0.00000000000E+00  0.48764903199E+02  0.48764903199E+02  0.00000000000E+00 0.  1.
          1   -1    0    0  501    0  0.00000000000E+00 -0.00000000000E+00 -0.26919261774E+03  0.26919261774E+03  0.00000000000E+00 0. -1.
         25    2    1    2    0    0 -0.14185889488E+02  0.13896937478E+02 -0.65546333905E+02  0.14260205808E+03  0.12507861827E+03 0.  0.
          5    1    3    3  502    0  0.79129258422E+01 -0.49706599344E+02 -0.29820235381E+01  0.50593727656E+02  0.41800000000E+01 0.  1.
         -5    1    3    3    0  502 -0.22098815330E+02  0.63603536822E+02 -0.62564310366E+02  0.92008330421E+02  0.41800000000E+01 0.  1.
        -11    1    1    2    0    0  0.34846330244E+01 -0.35056354428E+02 -0.14574876415E+03  0.14994596662E+03  0.00000000000E+00 0. -1.
         11    1    1    2    0    0  0.10701256463E+02  0.21159416950E+02 -0.91326164830E+01  0.25409496244E+02  0.00000000000E+00 0.  1.
</event>
<event>
 7    1  0.2380582E-009  0.9664491E+02  0.7561462E-02  0.1287514E+00
         -1   -1    0    0    0  501 -0.00000000000E+00  0.00000000000E+00  0.38874780400E+03  0.38874780400E+03  0.00000000000E+00 0.  1.
          1   -1    0    0  501    0  0.00000000000E+00 -0.00000000000E+00 -0.36812523337E+02  0.36812523337E+02  0.00000000000E+00 0. -1.
         25    2    1    2    0    0  0.29134810342E+01  0.37440455031E+02  0.25999791129E+03  0.29095886393E+03  0.12509144886E+03 0.  0.
          5    1    3    3  502    0  0.60570992827E+02  0.17351572708E+02  0.17634136638E+03  0.18730635906E+03  0.41800000000E+01 0. -1.
         -5    1    3    3    0  502 -0.57657511793E+02  0.20088882324E+02  0.83656544911E+02  0.10365250487E+03  0.41800000000E+01 0. -1.
        -11    1    1    2    0    0  0.16141311800E+02  0.91875801955E+01 -0.98567359727E+01  0.21026383914E+02  0.00000000000E+00 0. -1.
         11    1    1    2    0    0 -0.19054792834E+02 -0.46628035227E+02  0.10179410534E+03  0.11357507949E+03  0.00000000000E+00 0.  1.
</event>
<event>
 7    1  0.2380582E-009  0.9639936E+02  0.7561462E-02  0.1288055E+00
          1   -1    0    0  501    0  0.00000000000E+00  0.00000000000E+00  0.52937545742E+03  0.52937545742E+03  0.00000000000E+00 0. -1.
         -1   -1    0    0    0  501 -0.00000000000E+00 -0.00000000000E+00 -0.24417913459E+02  0.24417913459E+02  0.00000000000E+00 0.  1.
         25    2    1    2    0    0  0.33495843086E+00  0.34620478139E+02  0.27792513663E+03  0.30673717477E+03  0.12508646254E+03 0.  0.
          5    1    3    3  502    0  0.81823681539E+01  0.73211964253E+02  0.98946211199E+02  0.12342920225E+03  0.41800000000E+01 0.  1.
         -5    1    3    3    0  502 -0.78474097230E+01 -0.38591486114E+02  0.17897892543E+03  0.18330797251E+03  0.41800000000E+01 0.  1.
        -11    1    1    2    0    0  0.33506129127E+02 -0.39496983815E+01  0.17322041026E+03  0.17647541284E+03  0.00000000000E+00 0. -1.
         11    1    1    2    0    0 -0.33841087558E+02 -0.30670779758E+02  0.53811997075E+02  0.70580783271E+02  0.00000000000E+00 0.  1.
</event>
<event>
 7    1  0.2380582E-009  0.1980495E+03  0.7561462E-02  0.1151395E+00
         -2   -1    0    0    0  501 -0.00000000000E+00  0.00000000000E+00  0.40359955174E+02  0.40359955174E+02  0.00000000000E+00 0.  1.
          2   -1    0    0  501    0  0.00000000000E+00 -0.00000000000E+00 -0.11379413037E+04  0.11379413037E+04  0.00000000000E+00 0. -1.
         25    2    1    2    0    0  0.15804062590E+03 -0.95475230744E+02 -0.59182966291E+03  0.63245728970E+03  0.12509002467E+03 0.  0.
          5    1    3    3  502    0  0.40091234461E+02  0.92340781635E-02 -0.29378974362E+02  0.49878890329E+02  0.41800000000E+01 0.  1.
         -5    1    3    3    0  502  0.11794939144E+03 -0.95484464822E+02 -0.56245068855E+03  0.58257839937E+03  0.41800000000E+01 0.  1.
        -11    1    1    2    0    0 -0.11590070279E+03  0.20110088733E+02 -0.32206024748E+03  0.34287051722E+03  0.00000000000E+00 0. -1.
         11    1    1    2    0    0 -0.42139923114E+02  0.75365142011E+02 -0.18369143809E+03  0.20297345191E+03  0.00000000000E+00 0.  1.
</event>
<event>
 7    1  0.2380582E-009  0.1128666E+03  0.7561462E-02  0.1255352E+00
          2   -1    0    0  501    0  0.00000000000E+00  0.00000000000E+00  0.15022708668E+03  0.15022708668E+03  0.00000000000E+00 0. -1.
         -2   -1    0    0    0  501 -0.00000000000E+00 -0.00000000000E+00 -0.91945646714E+02  0.91945646714E+02  0.00000000000E+00 0.  1.
         25    2    1    2    0    0 -0.25294454421E+02  0.29177580976E+02  0.70323397753E+01  0.13109478329E+03  0.12508096477E+03 0.  0.
          5    1    3    3  502    0  0.57808859150E-02  0.76157761408E+02  0.12512679962E+02  0.77291941468E+02  0.41800000000E+01 0. -1.
         -5    1    3    3    0  502 -0.25300235307E+02 -0.46980180432E+02 -0.54803401864E+01  0.53802841826E+02  0.41800000000E+01 0. -1.
        -11    1    1    2    0    0  0.68240977763E+01  0.31645076823E+02  0.29775138296E+02  0.43983383886E+02  0.00000000000E+00 0. -1.
         11    1    1    2    0    0  0.18470356644E+02 -0.60822657799E+02  0.21473961898E+02  0.67094566217E+02  0.00000000000E+00 0.  1.
</event>
<event>
 7    1  0.2380582E-009  0.3605486E+03  0.7561462E-02  0.1058367E+00
         -4   -1    0    0    0  501 -0.00000000000E+00  0.00000000000E+00  0.10059503091E+04  0.10059503091E+04  0.00000000000E+00 0.  1.
          4   -1    0    0  501    0  0.00000000000E+00 -0.00000000000E+00 -0.14915383777E+03  0.14915383777E+03  0.00000000000E+00 0. -1.
         25    2    1    2    0    0  0.27404301455E+03  0.22204700088E+03  0.25932050367E+03  0.45530203262E+03  0.12509345653E+03 0.  0.
          5    1    3    3  502    0 -0.21404720872E+01  0.18111797497E+01  0.38215348925E+02  0.38545392543E+02  0.41800000000E+01 0.  1.
         -5    1    3    3    0  502  0.27618348663E+03  0.22023582113E+03  0.22110515474E+03  0.41675664008E+03  0.41800000000E+01 0.  1.
        -11    1    1    2    0    0 -0.14842566419E+03 -0.17299214927E+03  0.34359506330E+03  0.41232757490E+03  0.00000000000E+00 0.  1.
         11    1    1    2    0    0 -0.12561735036E+03 -0.49054851603E+02  0.25388090439E+03  0.28747453938E+03  0.00000000000E+00 0. -1.
</event>
<event>
 7    1  0.2380582E-009  0.1211694E+03  0.7561462E-02  0.1241180E+00
          2   -1    0    0  501    0  0.00000000000E+00  0.00000000000E+00  0.92654907258E+03  0.92654907258E+03  0.00000000000E+00 0. -1.
         -2   -1    0    0    0  501 -0.00000000000E+00 -0.00000000000E+00 -0.18709585445E+02  0.18709585445E+02  0.00000000000E+00 0.  1.
         25    2    1    2    0    0  0.35459653117E+02 -0.62174576673E+02  0.41712614677E+03  0.44132212868E+03  0.12509170220E+03 0.  0.
          5    1    3    3  502    0 -0.37793890783E+02 -0.37385328416E+02  0.85446205376E+02  0.10072024312E+03  0.41800000000E+01 0. -1.
         -5    1    3    3    0  502  0.73253543900E+02 -0.24789248257E+02  0.33167994139E+03  0.34060188556E+03  0.41800000000E+01 0. -1.
        -11    1    1    2    0    0 -0.64020154973E+02  0.41188866157E+02  0.38458163019E+03  0.39204353485E+03  0.00000000000E+00 0.  1.
         11    1    1    2    0    0  0.28560501856E+02  0.20985710516E+02  0.10613171018E+03  0.11189299450E+03  0.00000000000E+00 0. -1.
</event>
<event>
 7    1  0.2380582E-009  0.9398553E+02  0.7561462E-02  0.1293477E+00
         -2   -1    0    0    0  501 -0.00000000000E+00  0.00000000000E+00  0.24058113487E+02  0.24058113487E+02  0.00000000000E+00 0. -1.
          2   -1    0    0  501    0  0.00000000000E+00 -0.00000000000E+00 -0.66051235001E+03  0.66051235001E+03  0.00000000000E+00 0.  1.
         25    2    1    2    0    0  0.25142292774E+02  0.32535224765E+02 -0.48354213802E+03  0.50114962220E+03  0.12508904370E+03 0.  0.
          5    1    3    3  502    0 -0.44771556226E+01 -0.31494193270E+02 -0.36674196177E+02  0.48727796969E+02  0.41800000000E+01 0.  1.
         -5    1    3    3    0  502  0.29619448396E+02  0.64029418036E+02 -0.44686794184E+03  0.45242182523E+03  0.41800000000E+01 0.  1.
        -11    1    1    2    0    0 -0.33480836651E+02 -0.53240754721E+02 -0.14765071290E+03  0.16048762384E+03  0.00000000000E+00 0.  1.
         11    1    1    2    0    0  0.83385438777E+01  0.20705529956E+02 -0.52613856103E+01  0.22933217465E+02  0.00000000000E+00 0. -1.
</event>
<event>
 7    1  0.2380582E-009  0.1426267E+03  0.7561462E-02  0.1209838E+00
          3   -1    0    0  501    0  0.00000000000E+00  0.00000000000E+00  0.80881892257E+03  0.80881892257E+03  0.00000000000E+00 0. -1.
         -3   -1    0    0    0  501 -0.00000000000E+00 -0.00000000000E+00 -0.37915866408E+02  0.37915866408E+02  0.00000000000E+00 0.  1.
         25    2    1    2    0    0  0.12706041685E+03 -0.17126071749E+02  0.52073182650E+03  0.55067810999E+03  0.12508834411E+03 0.  0.
          5    1    3    3  502    0  0.64136635200E+02  0.24013746720E+02  0.41639391515E+03  0.42200892523E+03  0.41800000000E+01 0.  1.
         -5    1    3    3    0  502  0.62923781650E+02 -0.41139818469E+02  0.10433791135E+03  0.12866918476E+03  0.41800000000E+01 0.  1.
        -11    1    1    2    0    0 -0.22205622040E+02 -0.20226631731E+02  0.10534668535E+02  0.31830575278E+02  0.00000000000E+00 0.  1.
         11    1    1    2    0    0 -0.10485479481E+03  0.37352703479E+02  0.23963656113E+03  0.26422610371E+03  0.00000000000E+00 0. -1.
</event>
<event>
 7    1  0.2380582E-009  0.1337572E+03  0.7561462E-02  0.1221985E+00
          1   -1    0    0  501    0  0.00000000000E+00  0.00000000000E+00  0.34752957802E+03  0.34752957802E+03  0.00000000000E+00 0. -1.
         -1   -1    0    0    0  501 -0.00000000000E+00 -0.00000000000E+00 -0.56714052677E+02  0.56714052677E+02  0.00000000000E+00 0.  1.
         25    2    1    2    0    0 -0.87073799963E+01 -0.88228322146E+02  0.18400212996E+03  0.23949929444E+03  0.12507227076E+03 0.  0.
          5    1    3    3  502    0  0.53046603526E+02 -0.12606885082E+02  0.78767907436E+02  0.95889161739E+02  0.41800000000E+01 0. -1.
         -5    1    3    3    0  502 -0.61753983523E+02 -0.75621437063E+02  0.10523422252E+03  0.14361013270E+03  0.41800000000E+01 0. -1.
        -11    1    1    2    0    0 -0.16301494173E+02 -0.61875621552E+01  0.47199051799E+02  0.50316747991E+02  0.00000000000E+00 0. -1.
         11    1    1    2    0    0  0.25008874169E+02  0.94415884301E+02  0.59614343586E+02  0.11442758827E+03  0.00000000000E+00 0.  1.
</event>
<event>
 7    1  0.2380582E-009  0.1107280E+03  0.7561462E-02  0.1259228E+00
          3   -1    0    0  501    0  0.00000000000E+00  0.00000000000E+00  0.81794498923E+03  0.81794498923E+03  0.00000000000E+00 0. -1.
         -3   -1    0    0    0  501 -0.00000000000E+00 -0.00000000000E+00 -0.17329498391E+02  0.17329498391E+02  0.00000000000E+00 0.  1.
         25    2    1    2    0    0  0.10782434085E+02  0.41176681226E+02  0.52407202988E+03  0.54047413666E+03  0.12509604283E+03 0.  0.
          5    1    3    3  502    0 -0.34679356269E+02  0.69880646998E+02  0.31965077116E+03  0.32905934188E+03  0.41800000000E+01 0.  1.
         -5    1    3    3    0  502  0.45461790355E+02 -0.28703965772E+02  0.20442125873E+03  0.21141479478E+03  0.41800000000E+01 0.  1.
        -11    1    1    2    0    0  0.31206560716E+02 -0.89780231802E+00  0.17504468308E+03  0.17780690806E+03  0.00000000000E+00 0. -1.
         11    1    1    2    0    0 -0.41988994801E+02 -0.40278878908E+02  0.10149877788E+03  0.11699344290E+03  0.00000000000E+00 0.  1.
</event>
<event>
 7    1  0.2380582E-009  0.1484693E+03  0.7561462E-02  0.1202367E+00
          1   -1    0    0  501    0  0.00000000000E+00  0.00000000000E+00  0.15091171572E+04  0.15091171572E+04  0.00000000000E+00 0. -1.
         -1   -1    0    0    0  501 -0.00000000000E+00 -0.00000000000E+00 -0.37125613542E+02  0.37125613542E+02  0.00000000000E+00 0.  1.
         25    2    1    2    0    0 -0.11084362297E+03  0.67204867434E+02  0.12996440429E+04  0.13120682120E+04  0.12508217959E+03 0.  0.
          5    1    3    3  502    0 -0.69902038448E+02  0.69366661083E+02  0.12026472874E+04  0.12066797417E+04  0.41800000000E+01 0. -1.
         -5    1    3    3    0  502 -0.40941584520E+02 -0.21617936495E+01  0.96996755448E+02  0.10538847025E+03  0.41800000000E+01 0. -1.
        -11    1    1    2    0    0  0.80701088982E+02  0.30012982760E+01  0.73126827881E+02  0.10894588799E+03  0.00000000000E+00 0.  1.
         11    1    1    2    0    0  0.30142533986E+02 -0.70206165710E+02  0.99220672850E+02  0.12522867076E+03  0.00000000000E+00 0. -1.
</event>
<event>
 7    1  0.2380582E-009  0.8825355E+02  0.7561462E-02  0.1307137E+00
          2   -1    0    0  501    0  0.00000000000E+00  0.00000000000E+00  0.45067760563E+03  0.45067760563E+03  0.00000000000E+00 0. -1.
         -2   -1    0    0    0  501 -0.00000000000E+00 -0.00000000000E+00 -0.45284156913E+02  0.45284156913E+02  0.00000000000E+00 0.  1.
         25    2    1    2    0    0  0.51851777935E+02 -0.65932152821E+01  0.90739386943E+02  0.16313503370E+03  0.12508927019E+03 0.  0.
          5    1    3    3  502    0 -0.99564281642E+01 -0.21851490126E+02 -0.22492180845E+02  0.33166077272E+02  0.41800000000E+01 0.  1.
         -5    1    3    3    0  502  0.61808206099E+02  0.15258274843E+02  0.11323156779E+03  0.12996895643E+03  0.41800000000E+01 0.  1.
        -11    1    1    2    0    0 -0.30423745378E+02  0.39011517134E+02  0.26598564250E+03  0.27054734293E+03  0.00000000000E+00 0. -1.
         11    1    1    2    0    0 -0.21428032557E+02 -0.32418301852E+02  0.48668419276E+02  0.62279385908E+02  0.00000000000E+00 0.  1.
</event>
<event>
 7    1  0.2380582E-009  0.1335073E+03  0.7561462E-02  0.1222342E+00
         -2   -1    0    0    0  501 -0.00000000000E+00  0.00000000000E+00  0.24421475674E+02  0.24421475674E+02  0.00000000000E+00 0. -1.
          2   -1    0    0  501    0  0.00000000000E+00 -0.00000000000E+00 -0.86439456075E+03  0.86439456075E+03  0.00000000000E+00 0.  1.
         25    2    1    2    0    0  0.15610560823E+02  0.10074425099E+03 -0.46273184551E+03  0.49006148485E+03  0.12508558818E+03 0.  0.
          5    1    3    3  502    0  0.63149696401E+02  0.77935153544E+02 -0.36923093476E+03  0.38263654804E+03  0.41800000000E+01 0.  1.
         -5    1    3    3    0  502 -0.47539135577E+02  0.22809097441E+02 -0.93500910752E+02  0.10742493681E+03  0.41800000000E+01 0.  1.
        -11    1    1    2    0    0  0.18106068203E+02 -0.45955746164E+02 -0.75431593747E+02  0.90164769431E+02  0.00000000000E+00 0. -1.
         11    1    1    2    0    0 -0.33716629027E+02 -0.54788504821E+02 -0.30180964581E+03  0.30858978214E+03  0.00000000000E+00 0.  1.
</event>
<event>
 7    1  0.2380582E-009  0.1263916E+03  0.7561462E-02  0.1232910E+00
         -1   -1    0    0    0  501 -0.00000000000E+00  0.00000000000E+00  0.10718053601E+03  0.10718053601E+03  0.00000000000E+00 0.  1.
          1   -1    0    0  501    0  0.00000000000E+00 -0.00000000000E+00 -0.17869149949E+03  0.17869149949E+03  0.00000000000E+00 0. -1.
         25    2    1    2    0    0  0.35730996097E+02  0.61487076552E+02  0.14545437362E+02  0.14462218470E+03  0.12508653763E+03 0.  0.
          5    1    3    3  502    0 -0.30557957575E+02  0.69702392468E+02  0.42701331201E+00  0.76222483739E+02  0.41800000000E+01 0. -1.
         -5    1    3    3    0  502  0.66288953671E+02 -0.82153159162E+01  0.14118424050E+02  0.68399700965E+02  0.41800000000E+01 0. -1.
        -11    1    1    2    0    0  0.13257613552E+02 -0.59121319494E+02 -0.32985773522E+02  0.68986636319E+02  0.00000000000E+00 0.  1.
         11    1    1    2    0    0 -0.48988609648E+02 -0.23657570581E+01 -0.53070627328E+02  0.72263214478E+02  0.00000000000E+00 0. -1.
</event>
<event>
 7    1  0.2380582E-009  0.1705161E+03  0.7561462E-02  0.1177311E+00
          1   -1    0    0  501    0  0.00000000000E+00  0.00000000000E+00  0.21720518088E+03  0.21720518088E+03  0.00000000000E+00 0. -1.
         -1   -1    0    0    0  501 -0.00000000000E+00 -0.00000000000E+00 -0.16710571795E+03  0.16710571795E+03  0.00000000000E+00 0.  1.
         25    2    1    2    0    0 -0.11959275102E+03  0.97204220241E+02 -0.12255405857E+01  0.19849247627E+03  0.12508666858E+03 0.  0.
          5    1    3    3  502    0 -0.11648034095E+03  0.70598847080E+02  0.46180390340E+02  0.14388178442E+03  0.41800000000E+01 0.  1.
         -5    1    3    3    0  502 -0.31124100742E+01  0.26605373162E+02 -0.47405930925E+02  0.54610691851E+02  0.41800000000E+01 0.  1.
        -11    1    1    2    0    0  0.13830917425E+02 -0.65926857215E+02  0.10296657914E+02  0.68144449101E+02  0.00000000000E+00 0.  1.
         11    1    1    2    0    0  0.10576183360E+03 -0.31277363027E+02  0.41028345603E+02  0.11767397345E+03  0.00000000000E+00 0. -1.
</event>
<event>
 7    1  0.2380582E-009  0.1634813E+03  0.7561462E-02  0.1184822E+00
         -2   -1    0    0    0  501 -0.00000000000E+00  0.00000000000E+00  0.36791841690E+02  0.36791841690E+02  0.00000000000E+00 0.  1.
          2   -1    0    0  501    0  0.00000000000E+00 -0.00000000000E+00 -0.94008590512E+03  0.94008590512E+03  0.00000000000E+00 0. -1.
         25    2    1    2    0    0  0.99353795117E+02  0.11332606535E+03 -0.47486391075E+03  0.51367010268E+03  0.12508903614E+03 0.  0.
          5    1    3    3  502    0  0.85255057549E+02  0.89166804372E+02 -0.18481677633E+03  0.22224728806E+03  0.41800000000E+01 0. -1.
         -5    1    3    3    0  502  0.14098737568E+02  0.24159260981E+02 -0.29004713442E+03  0.29142281461E+03  0.41800000000E+01 0. -1.
        -11    1    1    2    0    0 -0.63884967353E+02 -0.12289334509E+03 -0.35597246016E+03  0.38196918163E+03  0.00000000000E+00 0.  1.
         11    1    1    2    0    0 -0.35468827764E+02  0.95672797384E+01 -0.72457692525E+02  0.81238462508E+02  0.00000000000E+00 0. -1.
</event>
<event>
 7    1  0.2380582E-009  0.1656353E+03  0.7561462E-02  0.1182478E+00
         -1   -1    0    0    0  501 -0.00000000000E+00  0.00000000000E+00  0.63699981639E+02  0.63699981639E+02  0.00000000000E+00 0.  1.
          1   -1    0    0  501    0  0.00000000000E+00 -0.00000000000E+00 -0.98283964026E+03  0.98283964026E+03  0.00000000000E+00 0. -1.
         25    2    1    2    0    0  0.90764372127E+02  0.11959542670E+03 -0.82408499191E+03  0.84693567782E+03  0.12507090450E+03 0.  0.
          5    1    3    3  502    0  0.57638051160E+02  0.42293492770E+02 -0.13585740021E+03  0.15357600745E+03  0.41800000000E+01 0.  1.
         -5    1    3    3    0  502  0.33126320967E+02  0.77301933926E+02 -0.68822759170E+03  0.69335967038E+03  0.41800000000E+01 0.  1.
        -11    1    1    2    0    0  0.88008909439E+01 -0.57373682508E+02 -0.28923051835E+02  0.64851661917E+02  0.00000000000E+00 0. -1.
         11    1    1    2    0    0 -0.99565263071E+02 -0.62221744188E+02 -0.66131614878E+02  0.13475228216E+03  0.00000000000E+00 0.  1.
</event>
<event>
 7    1  0.2380582E-009  0.2068514E+03  0.7561462E-02  0.1144084E+00
         -1   -1    0    0    0  501 -0.00000000000E+00  0.00000000000E+00  0.79530449362E+03  0.79530449362E+03  0.00000000000E+00 0.  1.
          1   -1    0    0  501    0  0.00000000000E+00 -0.00000000000E+00 -0.77609860324E+02  0.77609860324E+02  0.00000000000E+00 0. -1.
         25    2    1    2    0    0  0.12727103508E+03 -0.14593256675E+03  0.17445099985E+03  0.28909127389E+03  0.12508550228E+03 0.  0.
          5    1    3    3  502    0  0.49372317242E+02 -0.82649585627E+01 -0.42379773526E+01  0.50411983714E+02  0.41800000000E+01 0.  1.
         -5    1    3    3    0  502  0.77898717834E+02 -0.13766760818E+03  0.17868897720E+03  0.23867929017E+03  0.41800000000E+01 0.  1.
        -11    1    1    2    0    0 -0.80330868554E+02  0.40797457765E+02  0.32259606552E+03  0.33494134186E+03  0.00000000000E+00 0.  1.
         11    1    1    2    0    0 -0.46940166523E+02  0.10513510898E+03  0.22064756793E+03  0.24888173819E+03  0.00000000000E+00 0. -1.
</event>
<event>
 7    1  0.2380582E-009  0.8196237E+02  0.7561462E-02  0.1323573E+00
         -2   -1    0    0    0  501 -0.00000000000E+00  0.00000000000E+00  0.42991185124E+02  0.42991185124E+02  0.00000000000E+00 0.  1.
          2   -1    0    0  501    0  0.00000000000E+00 -0.00000000000E+00 -0.47070222905E+03  0.47070222905E+03  0.00000000000E+00 0. -1.
         25    2    1    2    0    0 -0.45999784962E+02 -0.28922971051E+02 -0.10055671929E+03  0.16944778461E+03  0.12509348282E+03 0.  0.
          5    1    3    3  502    0 -0.23400874372E+02  0.44692415307E+01 -0.12145577644E+03  0.12384083766E+03  0.41800000000E+01 0. -1.
         -5    1    3    3    0  502 -0.22598910590E+02 -0.33392212582E+02  0.20899057147E+02  0.45606946955E+02  0.41800000000E+01 0. -1.
        -11    1    1    2    0    0  0.21576019536E+02 -0.29111774016E+02 -0.62875331870E+02  0.72569465777E+02  0.00000000000E+00 0.  1.
         11    1    1    2    0    0  0.24423765426E+02  0.58034745067E+02 -0.26427899276E+03  0.27167616378E+03  0.00000000000E+00 0. -1.
</event>
<event>
 7    1  0.2380582E-009  0.1468134E+03  0.7561462E-02  0.1204444E+00
         -1   -1    0    0    0  501 -0.00000000000E+00  0.00000000000E+00  0.10392196956E+03  0.10392196956E+03  0.00000000000E+00 0.  1.
          1   -1    0    0  501    0  0.00000000000E+00 -0.00000000000E+00 -0.29074104858E+03  0.29074104858E+03  0.00000000000E+00 0. -1.
         25    2    1    2    0    0 -0.10465159525E+03 -0.72330822164E+02 -0.15064416816E+03  0.23350489617E+03  0.12508863622E+03 0.  0.
          5    1    3    3  502    0  0.10907962084E+02 -0.37819479428E+02 -0.90275497506E+02  0.98571976296E+02  0.41800000000E+01 0.  1.
         -5    1    3    3    0  502 -0.11555955734E+03 -0.34511342736E+02 -0.60368670658E+02  0.13493291987E+03  0.41800000000E+01 0.  1.
        -11    1    1    2    0    0  0.85439615172E+01  0.24640085941E+02 -0.46560639932E+02  0.53366902706E+02  0.00000000000E+00 0. -1.
         11    1    1    2    0    0  0.96107633733E+02  0.47690736222E+02  0.10385729078E+02  0.10779121927E+03  0.00000000000E+00 0.  1.
</event>
<event>
 7    1  0.2380582E-009  0.7540620E+02  0.7561462E-02  0.1342618E+00
          2   -1    0    0  501    0  0.00000000000E+00  0.00000000000E+00  0.59661089171E+02  0.59661089171E+02  0.00000000000E+00 0. -1.
         -2   -1    0    0    0  501 -0.00000000000E+00 -0.00000000000E+00 -0.27189104722E+03  0.27189104722E+03  0.00000000000E+00 0.  1.
         25    2    1    2    0    0 -0.49938511531E+01  0.36492406144E+02 -0.44916652647E+02  0.13791808184E+03  0.12508899775E+03 0.  0.
          5    1    3    3  502    0 -0.37780302833E+02  0.36494725242E+01 -0.73802386168E+02  0.83095935737E+02  0.41800000000E+01 0.  1.
         -5    1    3    3    0  502  0.32786451680E+02  0.32842933620E+02  0.28885733521E+02  0.54822146105E+02  0.41800000000E+01 0.  1.
        -11    1    1    2    0    0  0.27209609612E+02 -0.52744695719E+01 -0.67010011785E+01  0.28514668178E+02  0.00000000000E+00 0. -1.
         11    1    1    2    0    0 -0.22215758459E+02 -0.31217936572E+02 -0.16061230422E+03  0.16511938637E+03  0.00000000000E+00 0.  1.
</event>
<event>
 7    1  0.2380582E-009  0.1974170E+03  0.7561462E-02  0.1151937E+00
          2   -1    0    0  501    0  0.00000000000E+00  0.00000000000E+00  0.80889787638E+03  0.80889787638E+03  0.00000000000E+00 0. -1.
         -2   -1    0    0    0  501 -0.00000000000E+00 -0.00000000000E+00 -0.84130902820E+02  0.84130902820E+02  0.00000000000E+00 0.  1.
         25    2    1    2    0    0  0.14103619775E+03 -0.10307673171E+03  0.64565708518E+03  0.68046815513E+03  0.12509123395E+03 0.  0.
          5    1    3    3  502    0  0.15920931882E+03 -0.81907342631E+02  0.60522636054E+03  0.63116783812E+03  0.41800000000E+01 0. -1.
         -5    1    3    3    0  502 -0.18173121069E+02 -0.21169389079E+02  0.40430724635E+02  0.49300317016E+02  0.41800000000E+01 0. -1.
        -11    1    1    2    0    0 -0.58301487347E+02  0.39800105643E+01 -0.47343786206E+01  0.58628647024E+02  0.00000000000E+00 0.  1.
         11    1    1    2    0    0 -0.82734710402E+02  0.99096721145E+02  0.83844266998E+02  0.15393197704E+03  0.00000000000E+00 0. -1.
</event>
<event>
 7    1  0.2380582E-009  0.1668451E+03  0.7561462E-02  0.1181178E+00
          1   -1    0    0  501    0  0.00000000000E+00  0.00000000000E+00  0.61971613816E+03  0.61971613816E+03  0.00000000000E+00 0. -1.
         -1   -1    0    0    0  501 -0.00000000000E+00 -0.00000000000E+00 -0.56519198811E+02  0.56519198811E+02  0.00000000000E+00 0.  1.
         25    2    1    2    0    0 -0.15076433593E+03 -0.20930548749E+02  0.30571004916E+03  0.36370008440E+03  0.12510453379E+03 0.  0.
          5    1    3    3  502    0 -0.49282241585E+02 -0.23933407911E+02  0.16822688771E+02  0.57463228307E+02  0.41800000000E+01 0. -1.
         -5    1    3    3    0  502 -0.10148209435E+03  0.30028591623E+01  0.28888736039E+03  0.30623685610E+03  0.41800000000E+01 0. -1.
        -11    1    1    2    0    0  0.13079655848E+03  0.51540436981E+02  0.20310630062E+03  0.24701482892E+03  0.00000000000E+00 0.  1.
         11    1    1    2    0    0  0.19967777454E+02 -0.30609888232E+02  0.54380589560E+02  0.65520423648E+02  0.00000000000E+00 0. -1.
</event>
<event>
 7    1  0.2380582E-009  0.1316643E+03  0.7561462E-02  0.1225007E+00
          2   -1    0    0  501    0  0.00000000000E+00  0.00000000000E+00  0.90520827678E+03  0.90520827678E+03  0.00000000000E+00 0. -1.
         -2   -1    0    0    0  501 -0.00000000000E+00 -0.00000000000E+00 -0.32298270726E+02  0.32298270726E+02  0.00000000000E+00 0.  1.
         25    2    1    2    0    0  0.12266894962E+03  0.20747730751E+02  0.58315140035E+03  0.60925477969E+03  0.12509073233E+03 0.  0.
          5    1    3    3  502    0 -0.13854775824E+01 -0.73662862942E+01  0.28433731516E+03  0.28446680459E+03  0.41800000000E+01 0.  1.
         -5    1    3    3    0  502  0.12405442720E+03  0.28114017045E+02  0.29881408519E+03  0.32478797510E+03  0.41800000000E+01 0.  1.
        -11    1    1    2    0    0 -0.54227985898E+02 -0.23223789037E+02  0.22972549218E+03  0.23717887888E+03  0.00000000000E+00 0.  1.
         11    1    1    2    0    0 -0.68440963718E+02  0.24760582855E+01  0.60033113536E+02  0.91072888941E+02  0.00000000000E+00 0. -1.
</event>
<event>
 7    1  0.2380582E-009  0.1111356E+03  0.7561462E-02  0.1258481E+00
          2   -1    0    0  501    0  0.00000000000E+00  0.00000000000E+00  0.41881856502E+03  0.41881856502E+03  0.00000000000E+00 0. -1.
         -2   -1    0    0    0  501 -0.00000000000E+00 -0.00000000000E+00 -0.35150609698E+02  0.35150609698E+02  0.00000000000E+00 0.  1.
         25    2    1    2    0    0 -0.34693580267E+02  0.34249516715E+02  0.17641575644E+03  0.22169289502E+03  0.12509415124E+03 0.  0.
          5    1    3    3  502    0  0.38919995870E+02  0.17511437842E+02  0.11978041792E+03  0.12722514473E+03  0.41800000000E+01 0.  1.
         -5    1    3    3    0  502 -0.73613576138E+02  0.16738078872E+02  0.56635338519E+02  0.94467750292E+02  0.41800000000E+01 0.  1.
        -11    1    1    2    0    0  0.24563338239E+01  0.30949779448E+02  0.47510607155E+02  0.56755442171E+02  0.00000000000E+00 0. -1.
         11    1    1    2    0    0  0.32237246444E+02 -0.65199296163E+02  0.15974159172E+03  0.17552083752E+03  0.00000000000E+00 0.  1.
</event>
<event>
 7    1  0.2380582E-009  0.1637829E+03  0.7561462E-02  0.1184491E+00
         -2   -1    0    0    0  501 -0.00000000000E+00  0.00000000000E+00  0.58001097969E+03  0.58001097969E+03  0.00000000000E+00 0. -1.
          2   -1    0    0  501    0  0.00000000000E+00 -0.00000000000E+00 -0.55105774323E+02  0.55105774323E+02  0.00000000000E+00 0.  1.
         25    2    1    2    0    0  0.11392549323E+03 -0.83551211555E+02  0.26445368633E+03  0.32487315575E+03  0.12508793769E+03 0.  0.
          5    1    3    3  502    0  0.10122943779E+02 -0.49995052889E+02  0.17917629806E+03  0.18634268833E+03  0.41800000000E+01 0.  1.
         -5    1    3    3    0  502  0.10380254945E+03 -0.33556158666E+02  0.85277388263E+02  0.13853046743E+03  0.41800000000E+01 0.  1.
        -11    1    1    2    0    0 -0.33214516726E+02 -0.17774507903E+02  0.76295037532E+02  0.85088600909E+02  0.00000000000E+00 0. -1.
         11    1    1    2    0    0 -0.80710976501E+02  0.10132571946E+03  0.18415648150E+03  0.22515499735E+03  0.00000000000E+00 0.  1.
</event>
<event>
 7    1  0.2380582E-009  0.1031534E+03  0.7561462E-02  0.1273801E+00
          2   -1    0    0  501    0  0.00000000000E+00  0.00000000000E+00  0.58670258009E+03  0.58670258009E+03  0.00000000000E+00 0. -1.
         -2   -1    0    0    0  501 -0.00000000000E+00 -0.00000000000E+00 -0.31161454906E+02  0.31161454906E+02  0.00000000000E+00 0.  1.
         25    2    1    2    0    0 -0.67528704717E+02 -0.75024513521E+01  0.38618063723E+03  0.41158154363E+03  0.12508984670E+03 0.  0.
          5    1    3    3  502    0 -0.42822310994E+02  0.37160465552E+02  0.33274903534E+03  0.33757079767E+03  0.41800000000E+01 0.  1.
         -5    1    3    3    0  502 -0.24706393723E+02 -0.44662916904E+02  0.53431601888E+02  0.74010745959E+02  0.41800000000E+01 0.  1.
        -11    1    1    2    0    0  0.16030046210E+02 -0.30354439532E+02  0.11878687033E+02  0.36324338761E+02  0.00000000000E+00 0.  1.
         11    1    1    2    0    0  0.51498658507E+02  0.37856890884E+02  0.15748180092E+03  0.16995815261E+03  0.00000000000E+00 0. -1.
</event>
<event>
 7    1  0.2380582E-009  0.1299401E+03  0.7561462E-02  0.1227545E+00
         -3   -1    0    0    0  501 -0.00000000000E+00  0.00000000000E+00  0.19061309627E+03  0.19061309627E+03  0.00000000000E+00 0.  1.
          3   -1    0    0  501    0  0.00000000000E+00 -0.00000000000E+00 -0.10037400367E+03  0.10037400367E+03  0.00000000000E+00 0. -1.
         25    2    1    2    0    0 -0.86678913385E+02  0.27221998358E+01  0.39079588543E+02  0.15714559515E+03  0.12508748713E+03 0.  0.
          5    1    3    3  502    0 -0.69087740211E+02  0.52217624282E+02 -0.72172541038E+01  0.87002053367E+02  0.41800000000E+01 0. -1.
         -5    1    3    3    0  502 -0.17591173174E+02 -0.49495424447E+02  0.46296842647E+02  0.70143541783E+02  0.41800000000E+01 0. -1.
        -11    1    1    2    0    0  0.41347144149E+02 -0.43136324811E+02  0.40493945383E+02  0.72180942500E+02  0.00000000000E+00 0.  1.
         11    1    1    2    0    0  0.45331769236E+02  0.40414124975E+02  0.10665558673E+02  0.61660562286E+02  0.00000000000E+00 0. -1.
</event>
<event>
 7    1  0.2380582E-009  0.1198386E+03  0.7561462E-02  0.1243363E+00
          2   -1    0    0  501    0  0.00000000000E+00  0.00000000000E+00  0.63820745985E+03  0.63820745985E+03  0.00000000000E+00 0. -1.
         -2   -1    0    0    0  501 -0.00000000000E+00 -0.00000000000E+00 -0.31708771064E+02  0.31708771064E+02  0.00000000000E+00 0.  1.
         25    2    1    2    0    0  0.65013090314E+02  0.20903960845E+02  0.18741292109E+03  0.23544636075E+03  0.12509080025E+03 0.  0.
          5    1    3    3  502    0 -0.22704925371E+02  0.39893929637E+02  0.32619508743E+02  0.56467194092E+02  0.41800000000E+01 0. -1.
         -5    1    3    3    0  502  0.87718015685E+02 -0.18989968793E+02  0.15479341235E+03  0.17897916666E+03  0.41800000000E+01 0. -1.
        -11    1    1    2    0    0  0.49597960807E+01 -0.32442713598E+02  0.59440693260E+02  0.67899375977E+02  0.00000000000E+00 0.  1.
         11    1    1    2    0    0 -0.69972886395E+02  0.11538752753E+02  0.35964507443E+03  0.36657049419E+03  0.00000000000E+00 0. -1.
</event>
<event>
 7    1  0.2380582E-009  0.1207800E+03  0.7561462E-02  0.1241816E+00
          1   -1    0    0  501    0  0.00000000000E+00  0.00000000000E+00  0.30853002983E+02  0.30853002983E+02  0.00000000000E+00 0. -1.
         -1   -1    0    0    0  501 -0.00000000000E+00 -0.00000000000E+00 -0.53992702322E+03  0.53992702322E+03  0.00000000000E+00 0.  1.
         25    2    1    2    0    0  0.10743989969E+02 -0.61271247014E+02 -0.35315083222E+03  0.37977958254E+03  0.12508965579E+03 0.  0.
          5    1    3    3  502    0  0.32633821887E+02  0.30735001156E+02 -0.11630498705E+03  0.12471539215E+03  0.41800000000E+01 0. -1.
         -5    1    3    3    0  502 -0.21889831918E+02 -0.92006248170E+02 -0.23684584517E+03  0.25506419039E+03  0.41800000000E+01 0. -1.
        -11    1    1    2    0    0 -0.36883418895E+02  0.18223611734E+01 -0.95121146291E+02  0.10203793442E+03  0.00000000000E+00 0.  1.
         11    1    1    2    0    0  0.26139428926E+02  0.59448885840E+02 -0.60802041724E+02  0.88962509239E+02  0.00000000000E+00 0. -1.
</event>
<event>
 7    1  0.2380582E-009  0.1269772E+03  0.7561462E-02  0.1232011E+00
          1   -1    0    0  501    0  0.00000000000E+00  0.00000000000E+00  0.32068622122E+02  0.32068622122E+02  0.00000000000E+00 0. -1.
         -1   -1    0    0    0  501 -0.00000000000E+00 -0.00000000000E+00 -0.85515466878E+03  0.85515466878E+03  0.00000000000E+00 0.  1.
         25    2    1    2    0    0  0.73834276668E+02 -0.26948547488E+02 -0.70055125790E+03  0.71595879081E+03  0.12508877077E+03 0.  0.
          5    1    3    3  502    0  0.10787575839E+03 -0.18520715939E+02 -0.58364488320E+03  0.59383416730E+03  0.41800000000E+01 0.  1.
         -5    1    3    3    0  502 -0.34041481722E+02 -0.84278315490E+01 -0.11690637470E+03  0.12212462351E+03  0.41800000000E+01 0.  1.
        -11    1    1    2    0    0  0.13485624261E+02 -0.72668182349E+01 -0.51174697058E+02  0.53418333257E+02  0.00000000000E+00 0.  1.
         11    1    1    2    0    0 -0.87319900930E+02  0.34215365723E+02 -0.71360091702E+02  0.11784616683E+03  0.00000000000E+00 0. -1.
</event>
<event>
 7    1  0.2380582E-009  0.1152642E+03  0.7561462E-02  0.1251121E+00
         -2   -1    0    0    0  501 -0.00000000000E+00  0.00000000000E+00  0.40378314378E+02  0.40378314378E+02  0.00000000000E+00 0.  1.
          2   -1    0    0  501    0  0.00000000000E+00 -0.00000000000E+00 -0.51117965642E+03  0.51117965642E+03  0.00000000000E+00 0. -1.
         25    2    1    2    0    0  0.24587506291E+02 -0.75138515565E+02 -0.35495534964E+03  0.38456077900E+03  0.12507338054E+03 0.  0.
          5    1    3    3  502    0  0.73768656526E+02 -0.49491149644E+02 -0.17651547483E+03  0.19765215363E+03  0.41800000000E+01 0. -1.
         -5    1    3    3    0  502 -0.49181150235E+02 -0.25647365922E+02 -0.17843987481E+03  0.18690862537E+03  0.41800000000E+01 0. -1.
        -11    1    1    2    0    0 -0.57484734745E+01  0.63647485574E+02 -0.17575142375E+02  0.66279204859E+02  0.00000000000E+00 0.  1.
         11    1    1    2    0    0 -0.18839032816E+02  0.11491029991E+02 -0.98270850031E+02  0.10071798694E+03  0.00000000000E+00 0. -1.
</event>
<event>
 7    1  0.2380582E-009  0.1298303E+03  0.7561462E-02  0.1227708E+00
         -2   -1    0    0    0  501 -0.00000000000E+00  0.00000000000E+00  0.43005030609E+02  0.43005030609E+02  0.00000000000E+00 0.  1.
          2   -1    0    0  501    0  0.00000000000E+00 -0.00000000000E+00 -0.55534345931E+03  0.55534345931E+03  0.00000000000E+00 0. -1.
         25    2    1    2    0    0 -0.97677999238E+02  0.48569100845E+02 -0.29748499189E+03  0.34065383500E+03  0.12509103009E+03 0.  0.
          5    1    3    3  502    0 -0.57275709561E+02  0.70720657142E+00 -0.27888474733E+02  0.63845489033E+02  0.41800000000E+01 0.  1.
         -5    1    3    3    0  502 -0.40402289677E+02  0.47861894273E+02 -0.26959651715E+03  0.27680834596E+03  0.41800000000E+01 0.  1.
        -11    1    1    2    0    0  0.64222606155E+02 -0.73593126855E+02 -0.12527992790E+03  0.15885701683E+03  0.00000000000E+00 0.  1.
         11    1    1    2    0    0  0.33455393083E+02  0.25024026010E+02 -0.89573508916E+02  0.98837638092E+02  0.00000000000E+00 0. -1.
</event>
<event>
 7    1  0.2380582E-009  0.7444375E+02  0.7561462E-02  0.1345602E+00
          2   -1    0    0  501    0  0.00000000000E+00  0.00000000000E+00  0.59862505003E+02  0.59862505003E+02  0.00000000000E+00 0. -1.
         -2   -1    0    0    0  501 -0.00000000000E+00 -0.00000000000E+00 -0.44170136367E+03  0.44170136367E+03  0.00000000000E+00 0.  1.
         25    2    1    2    0    0 -0.73028135414E+02  0.64170017128E+01 -0.35067029582E+03  0.37946257004E+03  0.12509156335E+03 0.  0.
          5    1    3    3  502    0 -0.73608433498E+01 -0.88861969930E+00  0.97901890968E+01  0.12972735345E+02  0.41800000000E+01 0.  1.
         -5    1    3    3    0  502 -0.65667292064E+02  0.73056214121E+01 -0.36046048492E+03  0.36648983470E+03  0.41800000000E+01 0.  1.
        -11    1    1    2    0    0  0.17370731404E+02 -0.64056454402E+01  0.32581132345E+02  0.37474054864E+02  0.00000000000E+00 0. -1.
         11    1    1    2    0    0  0.55657404010E+02 -0.11356272586E-01 -0.63749695195E+02  0.84627243767E+02  0.00000000000E+00 0.  1.
</event>
<event>
 7    1  0.2380582E-009  0.1084144E+03  0.7561462E-02  0.1263535E+00
         -2   -1    0    0    0  501 -0.00000000000E+00  0.00000000000E+00  0.12241146860E+02  0.12241146860E+02  0.00000000000E+00 0.  1.
          2   -1    0    0  501    0  0.00000000000E+00 -0.00000000000E+00 -0.14203903421E+04  0.14203903421E+04  0.00000000000E+00 0. -1.
         25    2    1    2    0    0 -0.30215080455E+02  0.11882350992E+02 -0.11349753146E+04  0.11423089438E+04  0.12508643782E+03 0.  0.
          5    1    3    3  502    0  0.39699282335E+02 -0.22231490045E+02 -0.59373919390E+03  0.59549473125E+03  0.41800000000E+01 0. -1.
         -5    1    3    3    0  502 -0.69914362789E+02  0.34113841037E+02 -0.54123612069E+03  0.54681421252E+03  0.41800000000E+01 0. -1.
        -11    1    1    2    0    0 -0.27194212485E+02  0.13618360477E+02 -0.13732865263E+03  0.14065611884E+03  0.00000000000E+00 0. -1.
         11    1    1    2    0    0  0.57409292940E+02 -0.25500711469E+02 -0.13584522803E+03  0.14966642636E+03  0.00000000000E+00 0.  1.
</event>
<event>
 7    1  0.2380582E-009  0.1261353E+03  0.7561462E-02  0.1233306E+00
         -2   -1    0    0    0  501 -0.00000000000E+00  0.00000000000E+00  0.10340612368E+03  0.10340612368E+03  0.00000000000E+00 0.  1.
          2   -1    0    0  501    0  0.00000000000E+00 -0.00000000000E+00 -0.19284616243E+03  0.19284616243E+03  0.00000000000E+00 0. -1.
         25    2    1    2    0    0  0.75737135637E+02  0.47999857942E+02 -0.45830386586E+02  0.16059388297E+03  0.12509944379E+03 0.  0.
          5    1    3    3  502    0  0.83952679632E+02  0.70974528932E+02 -0.17371532554E+01  0.11002693432E+03  0.41800000000E+01 0. -1.
         -5    1    3    3    0  502 -0.82155439944E+01 -0.22974670989E+02 -0.44093233330E+02  0.50566948649E+02  0.41800000000E+01 0. -1.
        -11    1    1    2    0    0 -0.91493725421E+02 -0.40758156022E+02 -0.55616140959E+02  0.11456650561E+03  0.00000000000E+00 0. -1.
         11    1    1    2    0    0  0.15756589783E+02 -0.72417019206E+01  0.12006488788E+02  0.21091897528E+02  0.00000000000E+00 0.  1.
</event>
<event>
 7    1  0.2380582E-009  0.1003038E+03  0.7561462E-02  0.1279658E+00
          1   -1    0    0  501    0  0.00000000000E+00  0.00000000000E+00  0.33532766993E+03  0.33532766993E+03  0.00000000000E+00 0. -1.
         -1   -1    0    0    0  501 -0.00000000000E+00 -0.00000000000E+00 -0.37427648823E+02  0.37427648823E+02  0.00000000000E+00 0.  1.
         25    2    1    2    0    0  0.17033701368E+02  0.23170615733E+02  0.16552076532E+03  0.20945610883E+03  0.12509082043E+03 0.  0.
          5    1    3    3  502    0 -0.41215393157E+02  0.26150944943E+02  0.20530382225E+02  0.53118260032E+02  0.41800000000E+01 0. -1.
         -5    1    3    3    0  502  0.58249094525E+02 -0.29803292103E+01  0.14499038310E+03  0.15633784880E+03  0.41800000000E+01 0. -1.
        -11    1    1    2    0    0  0.22831526876E+02  0.22818874966E+02  0.64522072435E+02  0.72146223086E+02  0.00000000000E+00 0. -1.
         11    1    1    2    0    0 -0.39865228244E+02 -0.45989490699E+02  0.67857183350E+02  0.91152986840E+02  0.00000000000E+00 0.  1.
</event>
<event>
 7    1  0.3019979E-009  0.1130111E+03  0.7561462E-02  0.1255093E+00
          2   -1    0    0  501    0  0.00000000000E+00  0.00000000000E+00  0.11852655208E+04  0.11852655208E+04  0.00000000000E+00 0. -1.
         -2   -1    0    0    0  501 -0.00000000000E+00 -0.00000000000E+00 -0.18407716941E+02  0.18407716941E+02  0.00000000000E+00 0.  1.
         25    2    1    2    0    0  0.62215251766E+02 -0.22503856358E+02  0.93837660357E+03  0.94898638309E+03  0.12508934438E+03 0.  0.
          5    1    3    3  502    0  0.54747711187E+01 -0.50042532098E+02  0.71659587544E+03  0.71837410117E+03  0.41800000000E+01 0.  1.
         -5    1    3    3    0  502  0.56740480647E+02  0.27538675739E+02  0.22178072813E+03  0.23061228192E+03  0.41800000000E+01 0.  1.
        -11    1    1    2    0    0 -0.16491678251E+02  0.54206779307E+02  0.10722220545E+03  0.12127222153E+03  0.00000000000E+00 0. -1.
         11    1    1    2    0    0 -0.45723573515E+02 -0.31702922949E+02  0.12125899487E+03  0.13341463314E+03  0.00000000000E+00 0.  1.
</event>
<event>
 7    1  0.2645532E-009  0.8990885E+02  0.7561462E-02  0.1303073E+00
          2   -1    0    0  501    0  0.00000000000E+00  0.00000000000E+00  0.11879119741E+03  0.11879119741E+03  0.00000000000E+00 0. -1.
         -2   -1    0    0    0  501 -0.00000000000E+00 -0.00000000000E+00 -0.13449435813E+03  0.13449435813E+03  0.00000000000E+00 0.  1.
         25    2    1    2    0    0  0.29242970490E+02 -0.26423696224E+02  0.42575738287E+02  0.13789750934E+03  0.12509862728E+03 0.  0.
          5    1    3    3  502    0 -0.25293282128E+02 -0.50293458996E+02  0.52864908668E+02  0.77339208084E+02  0.41800000000E+01 0. -1.
         -5    1    3    3    0  502  0.54536252618E+02  0.23869762772E+02 -0.10289170381E+02  0.60558301260E+02  0.41800000000E+01 0. -1.
        -11    1    1    2    0    0 -0.41756215489E+01  0.36452135576E+02 -0.75096003906E+02  0.83579924659E+02  0.00000000000E+00 0.  1.
         11    1    1    2    0    0 -0.25067348941E+02 -0.10028439352E+02  0.16817104891E+02  0.31808121537E+02  0.00000000000E+00 0. -1.
</event>
<event>
 7    1  0.2380582E-009  0.2094659E+03  0.7561462E-02  0.1141990E+00
          1   -1    0    0  501    0  0.00000000000E+00  0.00000000000E+00  0.14465363698E+04  0.14465363698E+04  0.00000000000E+00 0. -1.
         -1   -1    0    0    0  501 -0.00000000000E+00 -0.00000000000E+00 -0.37687111993E+02  0.37687111993E+02  0.00000000000E+00 0.  1.
         25    2    1    2    0    0  0.18504782666E+03  0.88503896949E+02  0.65744714376E+03  0.69997117338E+03  0.12508900350E+03 0.  0.
          5    1    3    3  502    0  0.15854663545E+03  0.55759547156E+02  0.33562487589E+03  0.37537673400E+03  0.41800000000E+01 0. -1.
         -5    1    3    3    0  502  0.26501191207E+02  0.32744349793E+02  0.32182226787E+03  0.32459443937E+03  0.41800000000E+01 0. -1.
        -11    1    1    2    0    0 -0.10733925464E+03 -0.71388496699E+02  0.30999388683E+03  0.33572941921E+03  0.00000000000E+00 0.  1.
         11    1    1    2    0    0 -0.77708572013E+02 -0.17115400250E+02  0.44140822719E+03  0.44852288918E+03  0.00000000000E+00 0. -1.
</event>
<event>
 7    1  0.2380582E-009  0.1991863E+03  0.7561462E-02  0.1150427E+00
         -1   -1    0    0    0  501 -0.00000000000E+00  0.00000000000E+00  0.86199273664E+02  0.86199273664E+02  0.00000000000E+00 0.  1.
          1   -1    0    0  501    0  0.00000000000E+00 -0.00000000000E+00 -0.79702351021E+03  0.79702351021E+03  0.00000000000E+00 0. -1.
         25    2    1    2    0    0  0.14453732916E+03 -0.10374571929E+03 -0.63581430544E+03  0.67198274292E+03  0.12508701769E+03 0.  0.
          5    1    3    3  502    0  0.44812717477E+02 -0.10363519611E+03 -0.26748137815E+03  0.29036562051E+03  0.41800000000E+01 0.  1.
         -5    1    3    3    0  502  0.99724611678E+02 -0.11052318704E+00 -0.36833292729E+03  0.38161712241E+03  0.41800000000E+01 0.  1.
        -11    1    1    2    0    0 -0.10008931285E+03  0.99156801980E+02 -0.86210713311E+02  0.16517333021E+03  0.00000000000E+00 0. -1.
         11    1    1    2    0    0 -0.44448016310E+02  0.45889173151E+01  0.11200782205E+02  0.46066710736E+02  0.00000000000E+00 0.  1.
</event>
<event>
 7    1  0.2380582E-009  0.1068983E+03  0.7561462E-02  0.1266424E+00
         -1   -1    0    0    0  501 -0.00000000000E+00  0.00000000000E+00  0.13401228161E+03  0.13401228161E+03  0.00000000000E+00 0.  1.
          1   -1    0    0  501    0  0.00000000000E+00 -0.00000000000E+00 -0.17291121028E+03  0.17291121028E+03  0.00000000000E+00 0. -1.
         25    2    1    2    0    0  0.45535225090E+02 -0.62347988771E+02  0.41539938716E+02  0.15275355820E+03  0.12508938646E+03 0.  0.
          5    1    3    3  502    0  0.25923513161E+02 -0.92838507683E+02 -0.12844703835E+01  0.96489063150E+02  0.41800000000E+01 0.  1.
         -5    1    3    3    0  502  0.19611711928E+02  0.30490518912E+02  0.42824409099E+02  0.56264495048E+02  0.41800000000E+01 0.  1.
        -11    1    1    2    0    0 -0.43423097131E+02  0.42154785829E+02 -0.10567660164E+03  0.12177904362E+03  0.00000000000E+00 0. -1.
         11    1    1    2    0    0 -0.21121279588E+01  0.20193202942E+02  0.25237734248E+02  0.32390890070E+02  0.00000000000E+00 0.  1.
</event>
<event>
 7    1  0.2380582E-009  0.7935197E+02  0.7561462E-02  0.1330901E+00
          2   -1    0    0  501    0  0.00000000000E+00  0.00000000000E+00  0.72685051099E+03  0.72685051099E+03  0.00000000000E+00 0. -1.
         -2   -1    0    0    0  501 -0.00000000000E+00 -0.00000000000E+00 -0.19359720276E+02  0.19359720276E+02  0.00000000000E+00 0.  1.
         25    2    1    2    0    0  0.90346024387E+01  0.62605666251E+02  0.41078000754E+03  0.43403768840E+03  0.12508959535E+03 0.  0.
          5    1    3    3  502    0  0.12550014273E+02  0.32697465197E+02  0.40034226264E+03  0.40189305387E+03  0.41800000000E+01 0.  1.
         -5    1    3    3    0  502 -0.35154118343E+01  0.29908201054E+02  0.10437744903E+02  0.32144634534E+02  0.41800000000E+01 0.  1.
        -11    1    1    2    0    0 -0.38922912089E+02 -0.35376457405E+02  0.12219310915E+03  0.13303248757E+03  0.00000000000E+00 0.  1.
         11    1    1    2    0    0  0.29888309650E+02 -0.27229208846E+02  0.17451767402E+03  0.17914005530E+03  0.00000000000E+00 0. -1.
</event>
<event>
 7    1  0.2380582E-009  0.3276127E+03  0.7561462E-02  0.1072198E+00
         -1   -1    0    0    0  501 -0.00000000000E+00  0.00000000000E+00  0.89187156723E+02  0.89187156723E+02  0.00000000000E+00 0.  1.
          1   -1    0    0  501    0  0.00000000000E+00 -0.00000000000E+00 -0.12955229486E+04  0.12955229486E+04  0.00000000000E+00 0. -1.
         25    2    1    2    0    0 -0.24278864934E+03 -0.19788791608E+03 -0.76144985136E+03  0.83280225481E+03  0.12509102249E+03 0.  0.
          5    1    3    3  502    0 -0.45806826127E+02  0.44574774701E+01 -0.18774907287E+03  0.19335284117E+03  0.41800000000E+01 0.  1.
         -5    1    3    3    0  502 -0.19698182322E+03 -0.20234539355E+03 -0.57370077849E+03  0.63944941364E+03  0.41800000000E+01 0.  1.
        -11    1    1    2    0    0  0.12171484895E+03  0.15730449696E+03 -0.27443897024E+03  0.33893355928E+03  0.00000000000E+00 0. -1.
         11    1    1    2    0    0  0.12107380039E+03  0.40583419120E+02 -0.17044697030E+03  0.21297429125E+03  0.00000000000E+00 0.  1.
</event>
<event>
 7    1  0.2380582E-009  0.9954215E+02  0.7561462E-02  0.1281262E+00
          2   -1    0    0  501    0  0.00000000000E+00  0.00000000000E+00  0.43685711186E+03  0.43685711186E+03  0.00000000000E+00 0. -1.
         -2   -1    0    0    0  501 -0.00000000000E+00 -0.00000000000E+00 -0.42608191569E+02  0.42608191569E+02  0.00000000000E+00 0.  1.
         25    2    1    2    0    0 -0.43734638699E+02 -0.69343460032E+02  0.19299229004E+03  0.24416265669E+03  0.12509254507E+03 0.  0.
          5    1    3    3  502    0  0.63918873162E+00 -0.16753354608E+02 -0.16334033404E+02  0.23777226502E+02  0.41800000000E+01 0.  1.
         -5    1    3    3    0  502 -0.44373827431E+02 -0.52590105424E+02  0.20932632345E+03  0.22038543018E+03  0.41800000000E+01 0.  1.
        -11    1    1    2    0    0  0.48818492947E+02  0.58446319619E+01  0.45366647366E+02  0.66899459412E+02  0.00000000000E+00 0. -1.
         11    1    1    2    0    0 -0.50838542481E+01  0.63498828070E+02  0.15588998288E+03  0.16840318733E+03  0.00000000000E+00 0.  1.
</event>
<event>
 7    1  0.2380582E-009  0.9462312E+02  0.7561462E-02  0.1292027E+00
         -2   -1    0    0    0  501 -0.00000000000E+00  0.00000000000E+00  0.13807222816E+03  0.13807222816E+03  0.00000000000E+00 0.  1.
          2   -1    0    0  501    0  0.00000000000E+00 -0.00000000000E+00 -0.12268463954E+03  0.12268463954E+03  0.00000000000E+00 0. -1.
         25    2    1    2    0    0  0.48416822170E+02  0.51376844494E+02 -0.10551437773E+01  0.14363819014E+03  0.12508815899E+03 0.  0.
          5    1    3    3  502    0  0.52207716613E+02  0.42396517625E+02  0.54757201410E+02  0.86827034309E+02  0.41800000000E+01 0. -1.
         -5    1    3    3    0  502 -0.37908944426E+01  0.89803268693E+01 -0.55812345188E+02  0.56811155830E+02  0.41800000000E+01 0. -1.
        -11    1    1    2    0    0  0.25104021496E+02 -0.14759460957E+02  0.19296222443E+02  0.34934192185E+02  0.00000000000E+00 0.  1.
         11    1    1    2    0    0 -0.73520843666E+02 -0.36617383537E+02 -0.28534900501E+01  0.82184485372E+02  0.00000000000E+00 0. -1.
</event>
<event>
 7    1  0.2380582E-009  0.1031983E+03  0.7561462E-02  0.1273711E+00
          2   -1    0    0  501    0  0.00000000000E+00  0.00000000000E+00  0.10946732248E+04  0.10946732248E+04  0.00000000000E+00 0. -1.
         -2   -1    0    0    0  501 -0.00000000000E+00 -0.00000000000E+00 -0.19885134488E+02  0.19885134488E+02  0.00000000000E+00 0.  1.
         25    2    1    2    0    0  0.14587550294E+02  0.59445832068E+02  0.88008862840E+03  0.89103856778E+03  0.12508849610E+03 0.  0.
          5    1    3    3  502    0 -0.14793328816E+02 -0.22571383427E+02  0.55552362027E+02  0.61901916400E+02  0.41800000000E+01 0. -1.
         -5    1    3    3    0  502  0.29380879110E+02  0.82017215495E+02  0.82453626637E+03  0.82913665138E+03  0.41800000000E+01 0. -1.
        -11    1    1    2    0    0  0.21860117700E+02 -0.49460163357E+02  0.16995054831E+03  0.17834618408E+03  0.00000000000E+00 0. -1.
         11    1    1    2    0    0 -0.36447667994E+02 -0.99856687107E+01  0.24748913555E+02  0.45173607382E+02  0.00000000000E+00 0.  1.
</event>
<event>
 7    1  0.2380582E-009  0.3068718E+03  0.7561462E-02  0.1081855E+00
         -4   -1    0    0    0  501 -0.00000000000E+00  0.00000000000E+00  0.17341555353E+03  0.17341555353E+03  0.00000000000E+00 0.  1.
          4   -1    0    0  501    0  0.00000000000E+00 -0.00000000000E+00 -0.61743909531E+03  0.61743909531E+03  0.00000000000E+00 0. -1.
         25    2    1    2    0    0  0.31275691416E+02  0.30333835455E+03 -0.17501608137E+03  0.37318409812E+03  0.12507364286E+03 0.  0.
          5    1    3    3  502    0  0.20441589198E+02  0.24760222437E+03 -0.77536132754E+02  0.26029607059E+03  0.41800000000E+01 0.  1.
         -5    1    3    3    0  502  0.10834102218E+02  0.55736130184E+02 -0.97479948614E+02  0.11288802753E+03  0.41800000000E+01 0.  1.
        -11    1    1    2    0    0 -0.74937379803E+01 -0.24781945931E+03 -0.16636529942E+03  0.29857671271E+03  0.00000000000E+00 0.  1.
         11    1    1    2    0    0 -0.23781953436E+02 -0.55518895242E+02 -0.10264216099E+03  0.11909383801E+03  0.00000000000E+00 0. -1.
</event>
<event>
 7    1  0.2380582E-009  0.9244594E+02  0.7561462E-02  0.1297034E+00
         -3   -1    0    0    0  501 -0.00000000000E+00  0.00000000000E+00  0.68774825042E+02  0.68774825042E+02  0.00000000000E+00 0.  1.
          3   -1    0    0  501    0  0.00000000000E+00 -0.00000000000E+00 -0.25159292796E+03  0.25159292796E+03  0.00000000000E+00 0. -1.
         25    2    1    2    0    0 -0.57184466025E+02  0.40483825640E+02 -0.12159066476E+03  0.18799291636E+03  0.12509214024E+03 0.  0.
          5    1    3    3  502    0  0.18139959502E+02  0.27383790792E+02 -0.10438972396E+03  0.10951537333E+03  0.41800000000E+01 0. -1.
         -5    1    3    3    0  502 -0.75324425528E+02  0.13100034849E+02 -0.17200940802E+02  0.78477543021E+02  0.41800000000E+01 0. -1.
        -11    1    1    2    0    0  0.32292223565E+02 -0.38485036398E+02 -0.84456532733E+02  0.98268976033E+02  0.00000000000E+00 0. -1.
         11    1    1    2    0    0  0.24892242460E+02 -0.19987892424E+01  0.23229094577E+02  0.34105860610E+02  0.00000000000E+00 0.  1.
</event>
<event>
 7    1  0.2380582E-009  0.1338203E+03  0.7561462E-02  0.1221895E+00
          1   -1    0    0  501    0  0.00000000000E+00  0.00000000000E+00  0.42616492643E+03  0.42616492643E+03  0.00000000000E+00 0. -1.
         -1   -1    0    0    0  501 -0.00000000000E+00 -0.00000000000E+00 -0.56967436462E+02  0.56967436462E+02  0.00000000000E+00 0.  1.
         25    2    1    2    0    0  0.56596204887E+02  0.62058088830E+02  0.30641414797E+03  0.34145365270E+03  0.12508649036E+03 0.  0.
          5    1    3    3  502    0 -0.38652156936E+02  0.13773345480E+02  0.11578140284E+03  0.12290850225E+03  0.41800000000E+01 0. -1.
         -5    1    3    3    0  502  0.95248361823E+02  0.48284743350E+02  0.19063274513E+03  0.21854515046E+03  0.41800000000E+01 0. -1.
        -11    1    1    2    0    0 -0.28753866730E+02 -0.80932558932E+02  0.21710884757E+02  0.88590216526E+02  0.00000000000E+00 0.  1.
         11    1    1    2    0    0 -0.27842338157E+02  0.18874470102E+02  0.41072457240E+02  0.53088493663E+02  0.00000000000E+00 0. -1.
</event>
<event>
 7    1  0.2380582E-009  0.1082463E+03  0.7561462E-02  0.1263852E+00
         -1   -1    0    0    0  501 -0.00000000000E+00  0.00000000000E+00  0.86786744521E+02  0.86786744521E+02  0.00000000000E+00 0.  1.
          1   -1    0    0  501    0  0.00000000000E+00 -0.00000000000E+00 -0.13595542588E+03  0.13595542588E+03  0.00000000000E+00 0. -1.
         25    2    1    2    0    0 -0.11235182531E+02 -0.96742383044E+01 -0.34969579331E+02  0.13071191678E+03  0.12507163346E+03 0.  0.
          5    1    3    3  502    0 -0.59629718375E+01  0.57706262494E+02 -0.18298039871E+02  0.60974260367E+02  0.41800000000E+01 0. -1.
         -5    1    3    3    0  502 -0.52722106931E+01 -0.67380500798E+02 -0.16671539460E+02  0.69737656409E+02  0.41800000000E+01 0. -1.
        -11    1    1    2    0    0 -0.30557222116E+02  0.31141492992E+02 -0.10664449845E+02  0.44913994475E+02  0.00000000000E+00 0.  1.
         11    1    1    2    0    0  0.41792404646E+02 -0.21467254688E+02 -0.35346521796E+01  0.47116259147E+02  0.00000000000E+00 0. -1.
</event>
<event>
 7    1  0.2380582E-009  0.1614658E+03  0.7561462E-02  0.1187052E+00
          2   -1    0    0  501    0  0.00000000000E+00  0.00000000000E+00  0.15286515380E+03  0.15286515380E+03  0.00000000000E+00 0. -1.
         -2   -1    0    0    0  501 -0.00000000000E+00 -0.00000000000E+00 -0.28877664480E+03  0.28877664480E+03  0.00000000000E+00 0.  1.
         25    2    1    2    0    0 -0.15770690656E+03  0.16714460059E+02  0.79098918474E+01  0.20213747645E+03  0.12508457717E+03 0.  0.
          5    1    3    3  502    0 -0.49835955522E+02 -0.38532223098E+01  0.61921230402E+02  0.79688022685E+02  0.41800000000E+01 0.  1.
         -5    1    3    3    0  502 -0.10787095103E+03  0.20567682369E+02 -0.54011338554E+02  0.12244945377E+03  0.41800000000E+01 0.  1.
        -11    1    1    2    0    0  0.75890586296E+02 -0.26710655749E+02 -0.13426894515E+03  0.15652792035E+03  0.00000000000E+00 0.  1.
         11    1    1    2    0    0  0.81816320260E+02  0.99961956895E+01 -0.95524376925E+01  0.82976401796E+02  0.00000000000E+00 0. -1.
</event>
<event>
 7    1  0.2380582E-009  0.8867578E+02  0.7561462E-02  0.1306091E+00
         -2   -1    0    0    0  501 -0.00000000000E+00  0.00000000000E+00  0.69901413921E+02  0.69901413921E+02  0.00000000000E+00 0.  1.
          2   -1    0    0  501    0  0.00000000000E+00 -0.00000000000E+00 -0.20729866474E+03  0.20729866474E+03  0.00000000000E+00 0. -1.
         25    2    1    2    0    0  0.18019380153E-01 -0.34977030496E+02 -0.36215087354E+02  0.13484135774E+03  0.12508903317E+03 0.  0.
          5    1    3    3  502    0 -0.77324192575E+01 -0.55136322212E+02  0.31178508745E+02  0.63948230172E+02  0.41800000000E+01 0. -1.
         -5    1    3    3    0  502  0.77504386377E+01  0.20159291715E+02 -0.67393596100E+02  0.70893127571E+02  0.41800000000E+01 0. -1.
        -11    1    1    2    0    0 -0.13776473390E+02 -0.30048058773E+02 -0.41275098679E+02  0.52880155314E+02  0.00000000000E+00 0. -1.
         11    1    1    2    0    0  0.13758454010E+02  0.65025089269E+02 -0.59907064785E+02  0.89478565603E+02  0.00000000000E+00 0.  1.
</event>
<event>
 7    1  0.2380582E-009  0.1093431E+03  0.7561462E-02  0.1261791E+00
          2   -1    0    0  501    0  0.00000000000E+00  0.00000000000E+00  0.93738811334E+03  0.93738811334E+03  0.00000000000E+00 0. -1.
         -2   -1    0    0    0  501 -0.00000000000E+00 -0.00000000000E+00 -0.13583377276E+02  0.13583377276E+02  0.00000000000E+00 0.  1.
         25    2    1    2    0    0 -0.29845672240E+02  0.75092250282E+01  0.53348666144E+03  0.54881928315E+03  0.12508970785E+03 0.  0.
          5    1    3    3  502    0 -0.48175108925E+01 -0.57532014901E+02  0.27819900066E+03  0.28415717045E+03  0.41800000000E+01 0. -1.
         -5    1    3    3    0  502 -0.25028161347E+02  0.65041239930E+02  0.25528766077E+03  0.26466211269E+03  0.41800000000E+01 0. -1.
        -11    1    1    2    0    0 -0.25021345845E+02  0.17655476180E+02  0.73320273174E+02  0.79458454838E+02  0.00000000000E+00 0.  1.
         11    1    1    2    0    0  0.54867018085E+02 -0.25164701208E+02  0.31699780145E+03  0.32269375263E+03  0.00000000000E+00 0. -1.
</event>
<event>
 7    1  0.2380582E-009  0.1029592E+03  0.7561462E-02  0.1274194E+00
         -1   -1    0    0    0  501 -0.00000000000E+00  0.00000000000E+00  0.26199992113E+02  0.26199992113E+02  0.00000000000E+00 0.  1.
          1   -1    0    0  501    0  0.00000000000E+00 -0.00000000000E+00 -0.48457515081E+03  0.48457515081E+03  0.00000000000E+00 0. -1.
         25    2    1    2    0    0  0.94172954682E+01  0.28802752175E+02 -0.26206276472E+03  0.29195947209E+03  0.12508060081E+03 0.  0.
          5    1    3    3  502    0 -0.54179980708E+01  0.77289984021E+02 -0.14967185738E+03  0.16858894870E+03  0.41800000000E+01 0. -1.
         -5    1    3    3    0  502  0.14835293539E+02 -0.48487231846E+02 -0.11239090734E+03  0.12337052338E+03  0.41800000000E+01 0. -1.
        -11    1    1    2    0    0 -0.40613168480E+02 -0.18139611200E+02 -0.42535983501E+02  0.61544982256E+02  0.00000000000E+00 0.  1.
         11    1    1    2    0    0  0.31195873012E+02 -0.10663140975E+02 -0.15377641047E+03  0.15727068858E+03  0.00000000000E+00 0. -1.
</event>
<event>
 7    1  0.2380582E-009  0.1122785E+03  0.7561462E-02  0.1256408E+00
         -2   -1    0    0    0  501 -0.00000000000E+00  0.00000000000E+00  0.31737335601E+03  0.31737335601E+03  0.00000000000E+00 0.  1.
          2   -1    0    0  501    0  0.00000000000E+00 -0.00000000000E+00 -0.84596179278E+02  0.84596179278E+02  0.00000000000E+00 0. -1.
         25    2    1    2    0    0 -0.78743029507E+02  0.17537965661E+02  0.17069649704E+02  0.14981550345E+03  0.12508104252E+03 0.  0.
          5    1    3    3  502    0 -0.10932610195E+03  0.49330893367E+01  0.30786863712E+02  0.11376218755E+03  0.41800000000E+01 0. -1.
         -5    1    3    3    0  502  0.30583072446E+02  0.12604876325E+02 -0.13717214008E+02  0.36053315902E+02  0.41800000000E+01 0. -1.
        -11    1    1    2    0    0  0.41808188699E+02 -0.27039647089E+01  0.10593819679E+02  0.43214176873E+02  0.00000000000E+00 0. -1.
         11    1    1    2    0    0  0.36934840808E+02 -0.14834000952E+02  0.20511370735E+03  0.20893985496E+03  0.00000000000E+00 0.  1.
</event>
<event>
 7    1  0.2380582E-009  0.9361934E+02  0.7561462E-02  0.1294316E+00
          2   -1    0    0  501    0  0.00000000000E+00  0.00000000000E+00  0.13126707386E+03  0.13126707386E+03  0.00000000000E+00 0. -1.
         -2   -1    0    0    0  501 -0.00000000000E+00 -0.00000000000E+00 -0.87087423705E+02  0.87087423705E+02  0.00000000000E+00 0.  1.
         25    2    1    2    0    0  0.12644925895E+02 -0.17451155004E+02  0.13727477779E+02  0.12766780619E+03  0.12508472381E+03 0.  0.
          5    1    3    3  502    0 -0.43534452322E+02 -0.43418014354E+02 -0.75531379131E+01  0.62087799137E+02  0.41800000000E+01 0.  1.
         -5    1    3    3    0  502  0.56179378216E+02  0.25966859350E+02  0.21280615692E+02  0.65580007056E+02  0.41800000000E+01 0.  1.
        -11    1    1    2    0    0  0.11795339966E+02 -0.17395658303E+02 -0.16934570052E+02  0.26991084372E+02  0.00000000000E+00 0.  1.
         11    1    1    2    0    0 -0.24440265860E+02  0.34846813307E+02  0.47386742424E+02  0.63695606995E+02  0.00000000000E+00 0. -1.
</event>
<event>
 7    1  0.2380582E-009  0.1343537E+03  0.7561462E-02  0.1221135E+00
          2   -1    0    0  501    0  0.00000000000E+00  0.00000000000E+00  0.67368533335E+03  0.67368533335E+03  0.00000000000E+00 0. -1.
         -2   -1    0    0    0  501 -0.00000000000E+00 -0.00000000000E+00 -0.42564368283E+02  0.42564368283E+02  0.00000000000E+00 0.  1.
         25    2    1    2    0    0  0.59199368076E+02  0.78335923563E+02  0.51764681196E+03  0.54152222053E+03  0.12508801417E+03 0.  0.
          5    1    3    3  502    0 -0.28276820116E+02  0.85173347183E+01  0.34692874831E+02  0.45751409930E+02  0.41800000000E+01 0. -1.
         -5    1    3    3    0  502  0.87476188192E+02  0.69818588845E+02  0.48295393713E+03  0.49577081060E+03  0.41800000000E+01 0. -1.
        -11    1    1    2    0    0 -0.63756770917E+02 -0.17829750220E+02  0.84893790036E+02  0.10765584711E+03  0.00000000000E+00 0. -1.
         11    1    1    2    0    0  0.45574028403E+01 -0.60506173343E+02  0.28580363064E+02  0.67071633990E+02  0.00000000000E+00 0.  1.
</event>
<event>
 7    1  0.2380582E-009  0.2098926E+03  0.7561462E-02  0.1141651E+00
         -2   -1    0    0    0  501 -0.00000000000E+00  0.00000000000E+00  0.77514013188E+02  0.77514013188E+02  0.00000000000E+00 0.  1.
          2   -1    0    0  501    0  0.00000000000E+00 -0.00000000000E+00 -0.97284121193E+03  0.97284121193E+03  0.00000000000E+00 0. -1.
         25    2    1    2    0    0  0.10986076247E+03  0.16521046119E+03 -0.75911890229E+03  0.79452695498E+03  0.12509073013E+03 0.  0.
          5    1    3    3  502    0  0.12121479610E+03  0.16932503562E+03 -0.75109092942E+03  0.77943508462E+03  0.41800000000E+01 0. -1.
         -5    1    3    3    0  502 -0.11354033635E+02 -0.41145744315E+01 -0.80279728625E+01  0.15091870355E+02  0.41800000000E+01 0. -1.
        -11    1    1    2    0    0 -0.98657841405E+02 -0.14148330676E+03 -0.72824287541E+02  0.18722786283E+03  0.00000000000E+00 0.  1.
         11    1    1    2    0    0 -0.11202921063E+02 -0.23727154428E+02 -0.63384008918E+02  0.68600407318E+02  0.00000000000E+00 0. -1.
</event>
<event>
 7    1  0.2394091E-009  0.1065026E+03  0.7561462E-02  0.1267187E+00
          2   -1    0    0  501    0  0.00000000000E+00  0.00000000000E+00  0.65619392428E+03  0.65619392428E+03  0.00000000000E+00 0. -1.
         -2   -1    0    0    0  501 -0.00000000000E+00 -0.00000000000E+00 -0.22237095495E+02  0.22237095495E+02  0.00000000000E+00 0.  1.
         25    2    1    2    0    0  0.48746638404E+02 -0.64611335516E+01  0.40867664084E+03  0.43021133269E+03  0.12508882047E+03 0.  0.
          5    1    3    3  502    0  0.49002302307E+02  0.49330617213E+02  0.29997207075E+03  0.30795365082E+03  0.41800000000E+01 0. -1.
         -5    1    3    3    0  502 -0.25566390340E+00 -0.55791750765E+02  0.10870457010E+03  0.12225768187E+03  0.41800000000E+01 0. -1.
        -11    1    1    2    0    0 -0.67905155380E+02  0.33373732389E+01  0.21648302220E+03  0.22690779425E+03  0.00000000000E+00 0. -1.
         11    1    1    2    0    0  0.19158516976E+02  0.31237603127E+01  0.87971657425E+01  0.21311892838E+02  0.00000000000E+00 0.  1.
</event>
<event>
 7    1  0.2380582E-009  0.2150573E+03  0.7561462E-02  0.1137623E+00
          2   -1    0    0  501    0  0.00000000000E+00  0.00000000000E+00  0.25466638429E+04  0.25466638429E+04  0.00000000000E+00 0. -1.
         -2   -1    0    0    0  501 -0.00000000000E+00 -0.00000000000E+00 -0.20770547209E+02  0.20770547209E+02  0.00000000000E+00 0.  1.
         25    2    1    2    0    0 -0.24127985428E+02  0.18460611759E+03  0.17512360244E+04  0.17655415925E+04  0.12509165909E+03 0.  0.
          5    1    3    3  502    0 -0.73179725551E+02  0.79126015597E+02  0.85797957276E+03  0.86473268601E+03  0.41800000000E+01 0.  1.
         -5    1    3    3    0  502  0.49051740123E+02  0.10548010200E+03  0.89325645165E+03  0.90080890645E+03  0.41800000000E+01 0.  1.
        -11    1    1    2    0    0  0.55555746468E+02 -0.86220020248E+02  0.43191014572E+03  0.44392196030E+03  0.00000000000E+00 0. -1.
         11    1    1    2    0    0 -0.31427761040E+02 -0.98386097347E+02  0.34274712552E+03  0.35797083731E+03  0.00000000000E+00 0.  1.
</event>
<event>
 7    1  0.2715805E-009  0.1246345E+03  0.7561462E-02  0.1235642E+00
          1   -1    0    0  501    0  0.00000000000E+00  0.00000000000E+00  0.47594719546E+02  0.47594719546E+02  0.00000000000E+00 0. -1.
         -1   -1    0    0    0  501 -0.00000000000E+00 -0.00000000000E+00 -0.45953161258E+03  0.45953161258E+03  0.00000000000E+00 0.  1.
         25    2    1    2    0    0  0.93918345745E+02  0.15787482391E+02 -0.17101677585E+03  0.23230356668E+03  0.12509320206E+03 0.  0.
          5    1    3    3  502    0 -0.23226141207E+02  0.37947936487E+01 -0.79766830532E+02  0.83271085902E+02  0.41800000000E+01 0. -1.
         -5    1    3    3    0  502  0.11714448695E+03  0.11992688742E+02 -0.91249945321E+02  0.14903248078E+03  0.41800000000E+01 0. -1.
        -11    1    1    2    0    0 -0.34232740481E+02 -0.30736187375E+02 -0.29549443131E+02  0.54678728264E+02  0.00000000000E+00 0. -1.
         11    1    1    2    0    0 -0.59685605264E+02  0.14948704985E+02 -0.21137067405E+03  0.22014403718E+03  0.00000000000E+00 0.  1.
</event>
<event>
 7    1  0.2380582E-009  0.1063938E+03  0.7561462E-02  0.1267398E+00
         -2   -1    0    0    0  501 -0.00000000000E+00  0.00000000000E+00  0.93039306246E+02  0.93039306246E+02  0.00000000000E+00 0. -1.
          2   -1    0    0  501    0  0.00000000000E+00 -0.00000000000E+00 -0.13538242751E+03  0.13538242751E+03  0.00000000000E+00 0.  1.
         25    2    1    2    0    0  0.67302418908E+01 -0.51453972799E+01 -0.41687373185E+02  0.13212758786E+03  0.12509233039E+03 0.  0.
          5    1    3    3  502    0 -0.27408541344E+02  0.47886846539E+02  0.18679760851E+01  0.55365512232E+02  0.41800000000E+01 0. -1.
         -5    1    3    3    0  502  0.34138783234E+02 -0.53032243819E+02 -0.43555349271E+02  0.76762075631E+02  0.41800000000E+01 0. -1.
        -11    1    1    2    0    0 -0.27653657488E+02  0.42923042418E+02 -0.10196020961E+02  0.52067947783E+02  0.00000000000E+00 0.  1.
         11    1    1    2    0    0  0.20923415597E+02 -0.37777645138E+02  0.95402728838E+01  0.44226198108E+02  0.00000000000E+00 0. -1.
</event>
<event>
 7    1  0.2380582E-009  0.1091121E+03  0.7561462E-02  0.1262223E+00
          2   -1    0    0  501    0  0.00000000000E+00  0.00000000000E+00  0.15293674133E+04  0.15293674133E+04  0.00000000000E+00 0. -1.
         -2   -1    0    0    0  501 -0.00000000000E+00 -0.00000000000E+00 -0.15237572458E+02  0.15237572458E+02  0.00000000000E+00 0.  1.
         25    2    1    2    0    0 -0.36661491156E+02 -0.84203620785E+02  0.10456672409E+04  0.10571193302E+04  0.12508790933E+03 0.  0.
          5    1    3    3  502    0 -0.19298888158E+02 -0.54831695660E+02  0.15197446458E+03  0.16276569730E+03  0.41800000000E+01 0.  1.
         -5    1    3    3    0  502 -0.17362602997E+02 -0.29371925125E+02  0.89369277628E+03  0.89435363294E+03  0.41800000000E+01 0.  1.
        -11    1    1    2    0    0  0.58249407528E+02  0.26563993291E+02  0.14937851519E+03  0.16251947581E+03  0.00000000000E+00 0. -1.
         11    1    1    2    0    0 -0.21587916372E+02  0.57639627494E+02  0.31908408481E+03  0.32496617974E+03  0.00000000000E+00 0.  1.
</event>
<event>
 7    1  0.2380582E-009  0.1109475E+03  0.7561462E-02  0.1258825E+00
         -1   -1    0    0    0  501 -0.00000000000E+00  0.00000000000E+00  0.73976918681E+02  0.73976918681E+02  0.00000000000E+00 0.  1.
          1   -1    0    0  501    0  0.00000000000E+00 -0.00000000000E+00 -0.22702700705E+03  0.22702700705E+03  0.00000000000E+00 0. -1.
         25    2    1    2    0    0  0.59619686292E+02  0.38048510452E+02 -0.97481915723E+02  0.17364499628E+03  0.12509062595E+03 0.  0.
          5    1    3    3  502    0  0.94432942053E+02  0.33725726066E+02 -0.44081628251E+02  0.10961600017E+03  0.41800000000E+01 0. -1.
         -5    1    3    3    0  502 -0.34813255761E+02  0.43227843866E+01 -0.53400287472E+02  0.64028996116E+02  0.41800000000E+01 0. -1.
        -11    1    1    2    0    0 -0.40611199052E+02  0.32503760629E+01 -0.68844890105E+02  0.79996583218E+02  0.00000000000E+00 0. -1.
         11    1    1    2    0    0 -0.19008487240E+02 -0.41298886515E+02  0.13276717454E+02  0.47362346235E+02  0.00000000000E+00 0.  1.
</event>
<event>
 7    1  0.2380582E-009  0.1149912E+03  0.7561462E-02  0.1251596E+00
         -2   -1    0    0    0  501 -0.00000000000E+00  0.00000000000E+00  0.34314318745E+02  0.34314318745E+02  0.00000000000E+00 0.  1.
          2   -1    0    0  501    0  0.00000000000E+00 -0.00000000000E+00 -0.61391988757E+03  0.61391988757E+03  0.00000000000E+00 0. -1.
         25    2    1    2    0    0  0.54420298044E+02  0.58032598559E+02 -0.19322897079E+03  0.24354513402E+03  0.12508975105E+03 0.  0.
          5    1    3    3  502    0 -0.93898344555E-01  0.56251736766E+02 -0.17805537407E+03  0.18677648498E+03  0.41800000000E+01 0. -1.
         -5    1    3    3    0  502  0.54514196389E+02  0.17808617936E+01 -0.15173596718E+02  0.56768649042E+02  0.41800000000E+01 0. -1.
        -11    1    1    2    0    0 -0.45068248214E+02 -0.81765366864E+02 -0.27456620567E+03  0.29000573014E+03  0.00000000000E+00 0.  1.
         11    1    1    2    0    0 -0.93520498307E+01  0.23732768305E+02 -0.11181039237E+03  0.11468334216E+03  0.00000000000E+00 0. -1.
</event>
<event>
 7    1  0.2380582E-009  0.9108832E+02  0.7561462E-02  0.1300237E+00
          1   -1    0    0  501    0  0.00000000000E+00  0.00000000000E+00  0.22804085397E+03  0.22804085397E+03  0.00000000000E+00 0. -1.
         -1   -1    0    0    0  501 -0.00000000000E+00 -0.00000000000E+00 -0.94410040347E+02  0.94410040347E+02  0.00000000000E+00 0.  1.
         25    2    1    2    0    0  0.45531116048E+01 -0.44874681776E+02  0.16763447427E+03  0.21397275029E+03  0.12509417659E+03 0.  0.
          5    1    3    3  502    0  0.14853489084E+02  0.35695897264E+02  0.16298877447E+02  0.42165732835E+02  0.41800000000E+01 0. -1.
         -5    1    3    3    0  502 -0.10300377480E+02 -0.80570579040E+02  0.15133559682E+03  0.17180701746E+03  0.41800000000E+01 0. -1.
        -11    1    1    2    0    0 -0.22016597212E+02  0.36407074270E+02 -0.61524080011E+02  0.74802526902E+02  0.00000000000E+00 0.  1.
         11    1    1    2    0    0  0.17463485607E+02  0.84676075058E+01  0.27520419364E+02  0.33675617119E+02  0.00000000000E+00 0. -1.
</event>
<event>
 7    1  0.2380582E-009  0.1149475E+03  0.7561462E-02  0.1251673E+00
          1   -1    0    0  501    0  0.00000000000E+00  0.00000000000E+00  0.32702425665E+03  0.32702425665E+03  0.00000000000E+00 0. -1.
         -1   -1    0    0    0  501 -0.00000000000E+00 -0.00000000000E+00 -0.69880072955E+02  0.69880072955E+02  0.00000000000E+00 0.  1.
         25    2    1    2    0    0 -0.10060474143E+02  0.10309823418E+03  0.15376734228E+03  0.22365712465E+03  0.12509058646E+03 0.  0.
          5    1    3    3  502    0  0.75460055352E+01  0.95317911095E+01  0.12277179276E+03  0.12344303439E+03  0.41800000000E+01 0.  1.
         -5    1    3    3    0  502 -0.17606479678E+02  0.93566443074E+02  0.30995549517E+02  0.10021409026E+03  0.41800000000E+01 0.  1.
        -11    1    1    2    0    0  0.36241556732E+02 -0.43332671525E+02  0.90586106328E+02  0.10675679611E+03  0.00000000000E+00 0.  1.
         11    1    1    2    0    0 -0.26181082590E+02 -0.59765562658E+02  0.12790735092E+02  0.66490408855E+02  0.00000000000E+00 0. -1.
</event>
<event>
 7    1  0.2380582E-009  0.1035287E+03  0.7561462E-02  0.1273046E+00
         -2   -1    0    0    0  501 -0.00000000000E+00  0.00000000000E+00  0.51896806495E+02  0.51896806495E+02  0.00000000000E+00 0.  1.
          2   -1    0    0  501    0  0.00000000000E+00 -0.00000000000E+00 -0.43949398771E+03  0.43949398771E+03  0.00000000000E+00 0. -1.
         25    2    1    2    0    0  0.34887137582E+01 -0.52567400421E+02 -0.35869021252E+03  0.38351250783E+03  0.12509065672E+03 0.  0.
          5    1    3    3  502    0  0.22131504082E+02  0.22776685307E+02 -0.24297600862E+02  0.40204809092E+02  0.41800000000E+01 0.  1.
         -5    1    3    3    0  502 -0.18642790324E+02 -0.75344085728E+02 -0.33439261166E+03  0.34330769874E+03  0.41800000000E+01 0.  1.
        -11    1    1    2    0    0  0.38693375973E+02  0.17610588516E+02 -0.31688842044E+02  0.53023512541E+02  0.00000000000E+00 0. -1.
         11    1    1    2    0    0 -0.42182089731E+02  0.34956811905E+02  0.27818733464E+01  0.54854773830E+02  0.00000000000E+00 0.  1.
</event>
<event>
 7    1  0.2380582E-009  0.1163222E+03  0.7561462E-02  0.1249291E+00
          1   -1    0    0  501    0  0.00000000000E+00  0.00000000000E+00  0.28869024412E+03  0.28869024412E+03  0.00000000000E+00 0. -1.
         -1   -1    0    0    0  501 -0.00000000000E+00 -0.00000000000E+00 -0.60440982336E+02  0.60440982336E+02  0.00000000000E+00 0.  1.
         25    2    1    2    0    0 -0.72575036652E+02 -0.11056398704E+02  0.10966765740E+03  0.18182892074E+03  0.12508149920E+03 0.  0.
          5    1    3    3  502    0 -0.34264088061E+02  0.41703048588E+02  0.10273618502E+03  0.11612651767E+03  0.41800000000E+01 0. -1.
         -5    1    3    3    0  502 -0.38310948591E+02 -0.52759447292E+02  0.69314723716E+01  0.65702403075E+02  0.41800000000E+01 0. -1.
        -11    1    1    2    0    0  0.84131548634E+02  0.31380407994E+02  0.71674973528E+02  0.11489190272E+03  0.00000000000E+00 0.  1.
         11    1    1    2    0    0 -0.11556511982E+02 -0.20324009290E+02  0.46906630855E+02  0.52410402984E+02  0.00000000000E+00 0. -1.
</event>
<event>
 7    1  0.3511957E-009  0.1274039E+03  0.7561462E-02  0.1231359E+00
         -1   -1    0    0    0  501 -0.00000000000E+00  0.00000000000E+00  0.20598701676E+02  0.20598701676E+02  0.00000000000E+00 0.  1.
          1   -1    0    0  501    0  0.00000000000E+00 -0.00000000000E+00 -0.10483496871E+04  0.10483496871E+04  0.00000000000E+00 0. -1.
         25    2    1    2    0    0 -0.98394533773E+02  0.10803973159E+02 -0.58991958688E+03  0.61110586652E+03  0.12508817290E+03 0.  0.
          5    1    3    3  502    0 -0.92561568331E+02 -0.15619997590E+02 -0.20838514830E+03  0.22859018065E+03  0.41800000000E+01 0. -1.
         -5    1    3    3    0  502 -0.58329654418E+01  0.26423970749E+02 -0.38153443858E+03  0.38251568587E+03  0.41800000000E+01 0. -1.
        -11    1    1    2    0    0  0.57043911815E+02  0.38721700896E+02 -0.20813000364E+03  0.21925208417E+03  0.00000000000E+00 0. -1.
         11    1    1    2    0    0  0.41350621958E+02 -0.49525674055E+02 -0.22970139487E+03  0.23859043806E+03  0.00000000000E+00 0.  1.
</event>
<event>
 7    1  0.2380582E-009  0.1360756E+03  0.7561462E-02  0.1218709E+00
         -1   -1    0    0    0  501 -0.00000000000E+00  0.00000000000E+00  0.26570905702E+03  0.26570905702E+03  0.00000000000E+00 0.  1.
          1   -1    0    0  501    0  0.00000000000E+00 -0.00000000000E+00 -0.18583568497E+03  0.18583568497E+03  0.00000000000E+00 0. -1.
         25    2    1    2    0    0  0.34601352963E+02  0.11470471133E+03  0.19539187075E+03  0.26111363740E+03  0.12509166260E+03 0.  0.
          5    1    3    3  502    0 -0.10106642323E+02  0.77018351976E+02  0.26249274261E+02  0.82100350544E+02  0.41800000000E+01 0.  1.
         -5    1    3    3    0  502  0.44707995286E+02  0.37686359349E+02  0.16914259649E+03  0.17901328685E+03  0.41800000000E+01 0.  1.
        -11    1    1    2    0    0  0.14674099690E+02 -0.50466528648E+01  0.85117108084E+01  0.17698788878E+02  0.00000000000E+00 0.  1.
         11    1    1    2    0    0 -0.49275452653E+02 -0.10965805846E+03 -0.12403020951E+03  0.17273231571E+03  0.00000000000E+00 0. -1.
</event>
<event>
 7    1  0.2380582E-009  0.1678938E+03  0.7561462E-02  0.1180062E+00
          1   -1    0    0  501    0  0.00000000000E+00  0.00000000000E+00  0.94596439516E+02  0.94596439516E+02  0.00000000000E+00 0. -1.
         -1   -1    0    0    0  501 -0.00000000000E+00 -0.00000000000E+00 -0.34167057134E+03  0.34167057134E+03  0.00000000000E+00 0.  1.
         25    2    1    2    0    0 -0.72574209059E+02 -0.12325450574E+03 -0.12673814797E+03  0.22840816664E+03  0.12509613675E+03 0.  0.
          5    1    3    3  502    0 -0.77861366222E+01 -0.12300687662E+03 -0.67851163371E+02  0.14075712554E+03  0.41800000000E+01 0.  1.
         -5    1    3    3    0  502 -0.64788072437E+02 -0.24762911744E+00 -0.58886984600E+02  0.87651041098E+02  0.41800000000E+01 0.  1.
        -11    1    1    2    0    0  0.72007979529E+01  0.45000093440E+02 -0.90969847030E+02  0.10174661159E+03  0.00000000000E+00 0.  1.
         11    1    1    2    0    0  0.65373411106E+02  0.78254412296E+02 -0.29366136827E+02  0.10611223264E+03  0.00000000000E+00 0. -1.
</event>
<event>
 7    1  0.2380582E-009  0.1139895E+03  0.7561462E-02  0.1253355E+00
         -1   -1    0    0    0  501 -0.00000000000E+00  0.00000000000E+00  0.10418338437E+03  0.10418338437E+03  0.00000000000E+00 0.  1.
          1   -1    0    0  501    0  0.00000000000E+00 -0.00000000000E+00 -0.18969485520E+03  0.18969485520E+03  0.00000000000E+00 0. -1.
         25    2    1    2    0    0  0.86014533065E+02 -0.74034885796E+01 -0.63983885837E+02  0.16490769736E+03  0.12508916604E+03 0.  0.
          5    1    3    3  502    0  0.98933115440E+02  0.28642403497E+02 -0.17528094174E+02  0.10456029406E+03  0.41800000000E+01 0. -1.
         -5    1    3    3    0  502 -0.12918582375E+02 -0.36045892077E+02 -0.46455791663E+02  0.60347403301E+02  0.41800000000E+01 0. -1.
        -11    1    1    2    0    0 -0.38413406153E+02  0.47324460778E+01  0.36957724684E+02  0.53515037438E+02  0.00000000000E+00 0.  1.
         11    1    1    2    0    0 -0.47601126912E+02  0.26710425018E+01 -0.58485309679E+02  0.75455504767E+02  0.00000000000E+00 0. -1.
</event>
<event>
 7    1  0.2380582E-009  0.8600621E+02  0.7561462E-02  0.1312822E+00
          1   -1    0    0  501    0  0.00000000000E+00  0.00000000000E+00  0.36054794050E+04  0.36054794050E+04  0.00000000000E+00 0. -1.
         -1   -1    0    0    0  501 -0.00000000000E+00 -0.00000000000E+00 -0.77776160891E+01  0.77776160891E+01  0.00000000000E+00 0.  1.
         25    2    1    2    0    0  0.29517023850E+02 -0.51857370211E+02  0.31272333160E+04  0.31303029641E+04  0.12509193816E+03 0.  0.
          5    1    3    3  502    0  0.34256639753E+02 -0.51150112882E+02  0.31202429918E+04  0.31208530327E+04  0.41800000000E+01 0. -1.
         -5    1    3    3    0  502 -0.47396159037E+01 -0.70725732932E+00  0.69903242387E+01  0.94499314710E+01  0.41800000000E+01 0. -1.
        -11    1    1    2    0    0  0.30231598718E+02  0.19879185889E+02  0.10013991565E+03  0.10647597992E+03  0.00000000000E+00 0.  1.
         11    1    1    2    0    0 -0.59748622568E+02  0.31978184322E+02  0.37032855720E+03  0.37647807698E+03  0.00000000000E+00 0. -1.
</event>
<event>
 7    1  0.2380582E-009  0.1141351E+03  0.7561462E-02  0.1253098E+00
         -1   -1    0    0    0  501 -0.00000000000E+00  0.00000000000E+00  0.23431635715E+03  0.23431635715E+03  0.00000000000E+00 0.  1.
          1   -1    0    0  501    0  0.00000000000E+00 -0.00000000000E+00 -0.11895388621E+03  0.11895388621E+03  0.00000000000E+00 0. -1.
         25    2    1    2    0    0  0.28443286906E+02  0.73522057116E+02 -0.27761040658E+02  0.15044338709E+03  0.12509206165E+03 0.  0.
          5    1    3    3  502    0  0.77688936020E+02  0.48774073579E+02 -0.99064716940E+01  0.92358495087E+02  0.41800000000E+01 0.  1.
         -5    1    3    3    0  502 -0.49245649114E+02  0.24747983538E+02 -0.17854568964E+02  0.58084892001E+02  0.41800000000E+01 0.  1.
        -11    1    1    2    0    0  0.58086285890E+00 -0.22227515093E+02 -0.19673972664E+02  0.29689476743E+02  0.00000000000E+00 0. -1.
         11    1    1    2    0    0 -0.29024149764E+02 -0.51294542023E+02  0.16279748426E+03  0.17313737953E+03  0.00000000000E+00 0.  1.
</event>
<event>
 7    1  0.2380582E-009  0.1124941E+03  0.7561462E-02  0.1256020E+00
         -1   -1    0    0    0  501 -0.00000000000E+00  0.00000000000E+00  0.15250982669E+03  0.15250982669E+03  0.00000000000E+00 0.  1.
          1   -1    0    0  501    0  0.00000000000E+00 -0.00000000000E+00 -0.27899287382E+03  0.27899287382E+03  0.00000000000E+00 0. -1.
         25    2    1    2    0    0  0.99812840990E+01 -0.10586048338E+03  0.79901916611E+02  0.18258750657E+03  0.12509121993E+03 0.  0.
          5    1    3    3  502    0  0.36830755828E+01  0.22905195763E+00 -0.29490795595E+02  0.30013279317E+02  0.41800000000E+01 0. -1.
         -5    1    3    3    0  502  0.62982085162E+01 -0.10608953534E+03  0.10939271221E+03  0.15257422726E+03  0.41800000000E+01 0. -1.
        -11    1    1    2    0    0 -0.20267574086E+02  0.28270809996E+02 -0.80631456900E+01  0.35707528276E+02  0.00000000000E+00 0.  1.
         11    1    1    2    0    0  0.10286289987E+02  0.77589673387E+02 -0.19832181805E+03  0.21320766565E+03  0.00000000000E+00 0. -1.
</event>
<event>
 7    1  0.2380582E-009  0.8920823E+02  0.7561462E-02  0.1304780E+00
         -1   -1    0    0    0  501 -0.00000000000E+00  0.00000000000E+00  0.38309824701E+02  0.38309824701E+02  0.00000000000E+00 0.  1.
          1   -1    0    0  501    0  0.00000000000E+00 -0.00000000000E+00 -0.33422993210E+03  0.33422993210E+03  0.00000000000E+00 0. -1.
         25    2    1    2    0    0 -0.33573896631E+02 -0.10614985233E+02 -0.17505575428E+03  0.21801936037E+03  0.12509212582E+03 0.  0.
          5    1    3    3  502    0 -0.62761091164E+02  0.31026804584E+02 -0.13851955138E+03  0.15526350402E+03  0.41800000000E+01 0.  1.
         -5    1    3    3    0  502  0.29187194533E+02 -0.41641789817E+02 -0.36536202910E+02  0.62755856356E+02  0.41800000000E+01 0.  1.
        -11    1    1    2    0    0 -0.90695856862E+01 -0.66545617904E+01  0.10465797905E+02  0.15364683626E+02  0.00000000000E+00 0.  1.
         11    1    1    2    0    0  0.42643482317E+02  0.17269547023E+02 -0.13133015102E+03  0.13915571280E+03  0.00000000000E+00 0. -1.
</event>
<event>
 7    1  0.2380582E-009  0.1400567E+03  0.7561462E-02  0.1213253E+00
         -2   -1    0    0    0  501 -0.00000000000E+00  0.00000000000E+00  0.62683877477E+02  0.62683877477E+02  0.00000000000E+00 0.  1.
          2   -1    0    0  501    0  0.00000000000E+00 -0.00000000000E+00 -0.37457258536E+03  0.37457258536E+03  0.00000000000E+00 0. -1.
         25    2    1    2    0    0 -0.86630129606E+02  0.26093020065E+02 -0.25268332586E+03  0.29611217227E+03  0.12509168775E+03 0.  0.
          5    1    3    3  502    0 -0.33074668156E+02 -0.49399306461E+02 -0.75714246115E+02  0.96355304043E+02  0.41800000000E+01 0.  1.
         -5    1    3    3    0  502 -0.53555461450E+02  0.75492326526E+02 -0.17696907975E+03  0.19975686822E+03  0.41800000000E+01 0.  1.
        -11    1    1    2    0    0  0.51661754131E+02  0.31483968374E+02 -0.32535629790E+02  0.68693116906E+02  0.00000000000E+00 0. -1.
         11    1    1    2    0    0  0.34968375475E+02 -0.57576988438E+02 -0.26669752227E+02  0.72451173661E+02  0.00000000000E+00 0.  1.
</event>
<event>
 7    1  0.2380582E-009  0.5430051E+02  0.7561462E-02  0.1423436E+00
          1   -1    0    0  501    0  0.00000000000E+00  0.00000000000E+00  0.91533389374E+03  0.91533389374E+03  0.00000000000E+00 0. -1.
         -1   -1    0    0    0  501 -0.00000000000E+00 -0.00000000000E+00 -0.11720854594E+02  0.11720854594E+02  0.00000000000E+00 0.  1.
         25    2    1    2    0    0  0.27289614846E+02 -0.79684646843E+01  0.62244594882E+03  0.63552734181E+03  0.12509126062E+03 0.  0.
          5    1    3    3  502    0  0.29302679800E+02 -0.16693820896E+02  0.37923872892E+02  0.50921736368E+02  0.41800000000E+01 0. -1.
         -5    1    3    3    0  502 -0.20130649535E+01  0.87253562121E+01  0.58452207593E+03  0.58460560544E+03  0.41800000000E+01 0. -1.
        -11    1    1    2    0    0  0.95706059704E+01 -0.17491209027E+02  0.27686547932E+02  0.34118672721E+02  0.00000000000E+00 0.  1.
         11    1    1    2    0    0 -0.36860220817E+02  0.25459673711E+02  0.25348054239E+03  0.25740873380E+03  0.00000000000E+00 0. -1.
</event>
<event>
 7    1  0.2380582E-009  0.9400383E+02  0.7561462E-02  0.1293436E+00
          1   -1    0    0  501    0  0.00000000000E+00  0.00000000000E+00  0.76800672663E+02  0.76800672663E+02  0.00000000000E+00 0. -1.
         -1   -1    0    0    0  501 -0.00000000000E+00 -0.00000000000E+00 -0.23803679902E+03  0.23803679902E+03  0.00000000000E+00 0.  1.
         25    2    1    2    0    0  0.25096658744E+02  0.65992245266E+02 -0.43610847319E+02  0.15011384254E+03  0.12508973181E+03 0.  0.
          5    1    3    3  502    0  0.56463314297E+02  0.62286132234E+02  0.12982547476E+02  0.85168580293E+02  0.41800000000E+01 0.  1.
         -5    1    3    3    0  502 -0.31366655553E+02  0.37061130315E+01 -0.56593394795E+02  0.64945262251E+02  0.41800000000E+01 0.  1.
        -11    1    1    2    0    0 -0.24438448851E+01 -0.25166186762E+02 -0.11523129619E+03  0.11797271275E+03  0.00000000000E+00 0.  1.
         11    1    1    2    0    0 -0.22652813859E+02 -0.40826058504E+02 -0.23939828493E+01  0.46750916382E+02  0.00000000000E+00 0. -1.
</event>
<event>
 7    1  0.2380582E-009  0.1379345E+03  0.7561462E-02  0.1216136E+00
         -2   -1    0    0    0  501 -0.00000000000E+00  0.00000000000E+00  0.16042625140E+02  0.16042625140E+02  0.00000000000E+00 0.  1.
          2   -1    0    0  501    0  0.00000000000E+00 -0.00000000000E+00 -0.12271583807E+04  0.12271583807E+04  0.00000000000E+00 0. -1.
         25    2    1    2    0    0  0.71070546552E+02 -0.47876192564E+02 -0.69384724525E+03  0.71021992628E+03  0.12508074010E+03 0.  0.
          5    1    3    3  502    0  0.70996081602E+02 -0.85134178590E+02 -0.44796832151E+03  0.46149903732E+03  0.41800000000E+01 0.  1.
         -5    1    3    3    0  502  0.74464949300E-01  0.37257986025E+02 -0.24587892374E+03  0.24872088896E+03  0.41800000000E+01 0.  1.
        -11    1    1    2    0    0 -0.28253763619E+02 -0.28345304464E+02 -0.13288079504E+03  0.13877693300E+03  0.00000000000E+00 0.  1.
         11    1    1    2    0    0 -0.42816782933E+02  0.76221497028E+02 -0.38438771523E+03  0.39420414652E+03  0.00000000000E+00 0. -1.
</event>
<event>
 7    1  0.2380582E-009  0.1396037E+03  0.7561462E-02  0.1213863E+00
         -4   -1    0    0    0  501 -0.00000000000E+00  0.00000000000E+00  0.35501849724E+02  0.35501849724E+02  0.00000000000E+00 0.  1.
          4   -1    0    0  501    0  0.00000000000E+00 -0.00000000000E+00 -0.61143457672E+03  0.61143457672E+03  0.00000000000E+00 0. -1.
         25    2    1    2    0    0  0.10362807914E+03 -0.18074854037E+02 -0.34401318303E+03  0.38086408267E+03  0.12508757027E+03 0.  0.
          5    1    3    3  502    0  0.84161406954E+02 -0.61818762127E+02 -0.29154339420E+03  0.30970909718E+03  0.41800000000E+01 0.  1.
         -5    1    3    3    0  502  0.19466672185E+02  0.43743908091E+02 -0.52469788829E+02  0.71154985495E+02  0.41800000000E+01 0.  1.
        -11    1    1    2    0    0 -0.38921185280E+02 -0.27356121581E+02 -0.57923202553E+02  0.74955409715E+02  0.00000000000E+00 0.  1.
         11    1    1    2    0    0 -0.64706893859E+02  0.45430975617E+02 -0.17399634141E+03  0.19111693406E+03  0.00000000000E+00 0. -1.
</event>
<event>
 7    1  0.2380582E-009  0.3753103E+03  0.7561462E-02  0.1052681E+00
         -3   -1    0    0    0  501 -0.00000000000E+00  0.00000000000E+00  0.50970516730E+03  0.50970516730E+03  0.00000000000E+00 0.  1.
          3   -1    0    0  501    0  0.00000000000E+00 -0.00000000000E+00 -0.28531806596E+03  0.28531806596E+03  0.00000000000E+00 0. -1.
         25    2    1    2    0    0  0.35596042932E+03 -0.49904256793E+02  0.46345209410E+02  0.38339908928E+03  0.12509484856E+03 0.  0.
          5    1    3    3  502    0  0.10313310427E+03 -0.71730966987E+02  0.29050137417E+02  0.12900833967E+03  0.41800000000E+01 0.  1.
         -5    1    3    3    0  502  0.25282732505E+03  0.21826710193E+02  0.17295071993E+02  0.25439074961E+03  0.41800000000E+01 0.  1.
        -11    1    1    2    0    0 -0.34500850116E+03  0.27398858146E+02  0.16556007728E+03  0.38365570827E+03  0.00000000000E+00 0. -1.
         11    1    1    2    0    0 -0.10951928163E+02  0.22505398647E+02  0.12481814656E+02  0.27968435707E+02  0.00000000000E+00 0.  1.
</event>
<event>
 7    1  0.2380582E-009  0.1168250E+03  0.7561462E-02  0.1248429E+00
         -4   -1    0    0    0  501 -0.00000000000E+00  0.00000000000E+00  0.40543284780E+03  0.40543284780E+03  0.00000000000E+00 0.  1.
          4   -1    0    0  501    0  0.00000000000E+00 -0.00000000000E+00 -0.39144845638E+02  0.39144845638E+02  0.00000000000E+00 0. -1.
         25    2    1    2    0    0 -0.12205583030E+02 -0.48532486769E+02  0.13437031661E+03  0.19028502753E+03  0.12509448904E+03 0.  0.
          5    1    3    3  502    0 -0.56171815303E+02 -0.61616413450E+02  0.60005811839E+02  0.10281062735E+03  0.41800000000E+01 0. -1.
         -5    1    3    3    0  502  0.43966232273E+02  0.13083926681E+02  0.74364504775E+02  0.87474400187E+02  0.41800000000E+01 0. -1.
        -11    1    1    2    0    0  0.38760729392E+02  0.62922090763E+02  0.17153206338E+03  0.18677481741E+03  0.00000000000E+00 0. -1.
         11    1    1    2    0    0 -0.26555146362E+02 -0.14389603994E+02  0.60385622161E+02  0.67517848493E+02  0.00000000000E+00 0.  1.
</event>
<event>
 7    1  0.2380582E-009  0.1862857E+03  0.7561462E-02  0.1161855E+00
         -1   -1    0    0    0  501 -0.00000000000E+00  0.00000000000E+00  0.43814963639E+02  0.43814963639E+02  0.00000000000E+00 0.  1.
          1   -1    0    0  501    0  0.00000000000E+00 -0.00000000000E+00 -0.12465144160E+04  0.12465144160E+04  0.00000000000E+00 0. -1.
         25    2    1    2    0    0 -0.11048379757E+03 -0.14621368025E+03 -0.35772906220E+03  0.42095422420E+03  0.12508903676E+03 0.  0.
          5    1    3    3  502    0 -0.10971104938E+03 -0.12840325404E+03 -0.19843188913E+03  0.26060812925E+03  0.41800000000E+01 0.  1.
         -5    1    3    3    0  502 -0.77274818477E+00 -0.17810426209E+02 -0.15929717306E+03  0.16034609495E+03  0.41800000000E+01 0.  1.
        -11    1    1    2    0    0  0.29479569884E+02  0.60985086072E+02 -0.15076770230E+03  0.16528498366E+03  0.00000000000E+00 0.  1.
         11    1    1    2    0    0  0.81004227685E+02  0.85228594174E+02 -0.69420268787E+03  0.70409017180E+03  0.00000000000E+00 0. -1.
</event>
<event>
 7    1  0.2380582E-009  0.1361631E+03  0.7561462E-02  0.1218587E+00
         -1   -1    0    0    0  501 -0.00000000000E+00  0.00000000000E+00  0.12075136656E+03  0.12075136656E+03  0.00000000000E+00 0. -1.
          1   -1    0    0  501    0  0.00000000000E+00 -0.00000000000E+00 -0.24719686267E+03  0.24719686267E+03  0.00000000000E+00 0.  1.
         25    2    1    2    0    0  0.10902779156E+03  0.11108813122E+02 -0.14940170533E+03  0.22355596330E+03  0.12508370840E+03 0.  0.
          5    1    3    3  502    0  0.12999540558E+03  0.28740561520E+02 -0.14236936978E+03  0.19496495890E+03  0.41800000000E+01 0.  1.
         -5    1    3    3    0  502 -0.20967614016E+02 -0.17631748398E+02 -0.70323355570E+01  0.28591004398E+02  0.41800000000E+01 0.  1.
        -11    1    1    2    0    0 -0.50825306723E+02 -0.15249713533E+02  0.56154198916E+02  0.77259689503E+02  0.00000000000E+00 0. -1.
         11    1    1    2    0    0 -0.58202484840E+02  0.41409004113E+01 -0.33197989699E+02  0.67132576427E+02  0.00000000000E+00 0.  1.
</event>
<event>
 7    1  0.2380582E-009  0.1527359E+03  0.7561462E-02  0.1197151E+00
          2   -1    0    0  501    0  0.00000000000E+00  0.00000000000E+00  0.69629935589E+03  0.69629935589E+03  0.00000000000E+00 0. -1.
         -2   -1    0    0    0  501 -0.00000000000E+00 -0.00000000000E+00 -0.41213998478E+02  0.41213998478E+02  0.00000000000E+00 0.  1.
         25    2    1    2    0    0 -0.64538076898E+02 -0.92188808205E+02  0.23014036286E+03  0.28508991769E+03  0.12509090622E+03 0.  0.
          5    1    3    3  502    0 -0.33633237700E+02  0.17751335412E+02  0.14264035819E+02  0.40831846700E+02  0.41800000000E+01 0. -1.
         -5    1    3    3    0  502 -0.30904839198E+02 -0.10994014362E+03  0.21587632704E+03  0.24425807099E+03  0.41800000000E+01 0. -1.
        -11    1    1    2    0    0  0.41442127376E+01  0.92447345952E+02  0.21756117348E+03  0.23642451328E+03  0.00000000000E+00 0.  1.
         11    1    1    2    0    0  0.60393864160E+02 -0.25853774737E+00  0.20738382107E+03  0.21599892340E+03  0.00000000000E+00 0. -1.
</event>
<event>
 7    1  0.2380582E-009  0.8645824E+02  0.7561462E-02  0.1311663E+00
         -2   -1    0    0    0  501 -0.00000000000E+00  0.00000000000E+00  0.77492638327E+02  0.77492638327E+02  0.00000000000E+00 0.  1.
          2   -1    0    0  501    0  0.00000000000E+00 -0.00000000000E+00 -0.15849882565E+03  0.15849882565E+03  0.00000000000E+00 0. -1.
         25    2    1    2    0    0 -0.70166006958E+01 -0.18917712827E+02 -0.33434513910E+02  0.13104231921E+03  0.12508840938E+03 0.  0.
          5    1    3    3  502    0  0.39781435592E+02  0.31561596774E+02 -0.35416428989E+02  0.62052339610E+02  0.41800000000E+01 0.  1.
         -5    1    3    3    0  502 -0.46798036288E+02 -0.50479309601E+02  0.19819150796E+01  0.68989979603E+02  0.41800000000E+01 0.  1.
        -11    1    1    2    0    0 -0.13077419299E+02 -0.10914663998E+02  0.21286382254E+02  0.27262774165E+02  0.00000000000E+00 0.  1.
         11    1    1    2    0    0  0.20094019995E+02  0.29832376825E+02 -0.68858055672E+02  0.77686370603E+02  0.00000000000E+00 0. -1.
</event>
<event>
 7    1  0.2380582E-009  0.1249529E+03  0.7561462E-02  0.1235143E+00
          2   -1    0    0  501    0  0.00000000000E+00  0.00000000000E+00  0.13995925790E+03  0.13995925790E+03  0.00000000000E+00 0. -1.
         -2   -1    0    0    0  501 -0.00000000000E+00 -0.00000000000E+00 -0.13381730546E+03  0.13381730546E+03  0.00000000000E+00 0.  1.
         25    2    1    2    0    0  0.41147182401E+02  0.57502121832E+02  0.33216831607E+02  0.14748088526E+03  0.12509064306E+03 0.  0.
          5    1    3    3  502    0 -0.30134975225E+02 -0.19528790323E+02  0.20815244468E+02  0.41716150177E+02  0.41800000000E+01 0. -1.
         -5    1    3    3    0  502  0.71282157627E+02  0.77030912156E+02  0.12401587139E+02  0.10576473508E+03  0.41800000000E+01 0. -1.
        -11    1    1    2    0    0  0.10237552143E+02  0.16024833770E+02  0.17753459371E+02  0.26015151179E+02  0.00000000000E+00 0. -1.
         11    1    1    2    0    0 -0.51384734544E+02 -0.73526955602E+02 -0.44828338539E+02  0.10028052693E+03  0.00000000000E+00 0.  1.
</event>
<event>
 7    1  0.2380582E-009  0.1008542E+03  0.7561462E-02  0.1278510E+00
         -1   -1    0    0    0  501 -0.00000000000E+00  0.00000000000E+00  0.15965292110E+02  0.15965292110E+02  0.00000000000E+00 0.  1.
          1   -1    0    0  501    0  0.00000000000E+00 -0.00000000000E+00 -0.74391476980E+03  0.74391476980E+03  0.00000000000E+00 0. -1.
         25    2    1    2    0    0  0.32743346402E+01  0.82802661259E+01 -0.45066053130E+03  0.46778384193E+03  0.12509006444E+03 0.  0.
          5    1    3    3  502    0 -0.48931533753E+02  0.25288138047E+02 -0.33688306105E+03  0.34138168396E+03  0.41800000000E+01 0. -1.
         -5    1    3    3    0  502  0.52205868393E+02 -0.17007871921E+02 -0.11377747025E+03  0.12640215797E+03  0.41800000000E+01 0. -1.
        -11    1    1    2    0    0  0.43816893885E+02 -0.16374856804E+01 -0.11919638676E+03  0.12700543360E+03  0.00000000000E+00 0.  1.
         11    1    1    2    0    0 -0.47091228525E+02 -0.66427804455E+01 -0.15809255963E+03  0.16509078637E+03  0.00000000000E+00 0. -1.
</event>
<event>
 7    1  0.2380582E-009  0.1063217E+03  0.7561462E-02  0.1267537E+00
         -1   -1    0    0    0  501 -0.00000000000E+00  0.00000000000E+00  0.38719434587E+02  0.38719434587E+02  0.00000000000E+00 0.  1.
          1   -1    0    0  501    0  0.00000000000E+00 -0.00000000000E+00 -0.37055059005E+03  0.37055059005E+03  0.00000000000E+00 0. -1.
         25    2    1    2    0    0 -0.18317489386E+02  0.23798099892E+02 -0.11951383918E+03  0.17559391883E+03  0.12509111319E+03 0.  0.
          5    1    3    3  502    0  0.35911915416E+02 -0.28640490571E+02 -0.19077695270E+02  0.49913667725E+02  0.41800000000E+01 0. -1.
         -5    1    3    3    0  502 -0.54229404802E+02  0.52438590464E+02 -0.10043614391E+03  0.12568025111E+03  0.41800000000E+01 0. -1.
        -11    1    1    2    0    0  0.40872271070E+02  0.17066003971E+02 -0.61417787098E+02  0.75722754876E+02  0.00000000000E+00 0.  1.
         11    1    1    2    0    0 -0.22554781684E+02 -0.40864103864E+02 -0.15089952918E+03  0.15795335093E+03  0.00000000000E+00 0. -1.
</event>
<event>
 7    1  0.2380582E-009  0.1373456E+03  0.7561462E-02  0.1216946E+00
          1   -1    0    0  501    0  0.00000000000E+00  0.00000000000E+00  0.81667847607E+02  0.81667847607E+02  0.00000000000E+00 0. -1.
         -1   -1    0    0    0  501 -0.00000000000E+00 -0.00000000000E+00 -0.29887010056E+03  0.29887010056E+03  0.00000000000E+00 0.  1.
         25    2    1    2    0    0  0.72323946881E+01  0.10470858358E+03 -0.16304020524E+03  0.23075494447E+03  0.12509812494E+03 0.  0.
          5    1    3    3  502    0 -0.41714547400E+02  0.10613107773E+03 -0.11627236821E+03  0.16291299867E+03  0.41800000000E+01 0. -1.
         -5    1    3    3    0  502  0.48946942088E+02 -0.14224941569E+01 -0.46767837026E+02  0.67841945797E+02  0.41800000000E+01 0. -1.
        -11    1    1    2    0    0  0.14745749604E+02 -0.28083610481E+02  0.22733569610E+02  0.39024883040E+02  0.00000000000E+00 0. -1.
         11    1    1    2    0    0 -0.21978144292E+02 -0.76624973097E+02 -0.76895617324E+02  0.11075812066E+03  0.00000000000E+00 0.  1.
</event>
<event>
 7    1  0.2380582E-009  0.2006785E+03  0.7561462E-02  0.1149168E+00
         -1   -1    0    0    0  501 -0.00000000000E+00  0.00000000000E+00  0.48782749220E+02  0.48782749220E+02  0.00000000000E+00 0.  1.
          1   -1    0    0  501    0  0.00000000000E+00 -0.00000000000E+00 -0.92122336680E+03  0.92122336680E+03  0.00000000000E+00 0. -1.
         25    2    1    2    0    0  0.25668365635E+02 -0.17599632759E+03 -0.53587750008E+03  0.57831248507E+03  0.12508822076E+03 0.  0.
          5    1    3    3  502    0  0.60089422909E+02 -0.57763849490E+02 -0.30975008514E+03  0.32079586765E+03  0.41800000000E+01 0. -1.
         -5    1    3    3    0  502 -0.34421057274E+02 -0.11823247810E+03 -0.22612741494E+03  0.25751661742E+03  0.41800000000E+01 0. -1.
        -11    1    1    2    0    0 -0.43339445285E+02  0.44890096798E+02 -0.67840728472E+02  0.92172624719E+02  0.00000000000E+00 0.  1.
         11    1    1    2    0    0  0.17671079650E+02  0.13110623079E+03 -0.26872238902E+03  0.29952100623E+03  0.00000000000E+00 0. -1.
</event>
<event>
 7    1  0.3030012E-009  0.7317355E+02  0.7561462E-02  0.1349622E+00
          1   -1    0    0  501    0  0.00000000000E+00  0.00000000000E+00  0.19596961251E+03  0.19596961251E+03  0.00000000000E+00 0. -1.
         -1   -1    0    0    0  501 -0.00000000000E+00 -0.00000000000E+00 -0.82457235442E+02  0.82457235442E+02  0.00000000000E+00 0.  1.
         25    2    1    2    0    0  0.17450687131E+02 -0.23423629450E+02 -0.21634802263E+01  0.12847689890E+03  0.12509372489E+03 0.  0.
          5    1    3    3  502    0  0.27107930379E+02  0.17282724587E+02 -0.53232362165E+02  0.62327275252E+02  0.41800000000E+01 0.  1.
         -5    1    3    3    0  502 -0.96572432484E+01 -0.40706354037E+02  0.51068881939E+02  0.66149623647E+02  0.41800000000E+01 0.  1.
        -11    1    1    2    0    0  0.16647790185E+02  0.32571270494E+02  0.91215735361E+01  0.37699332666E+02  0.00000000000E+00 0.  1.
         11    1    1    2    0    0 -0.34098477316E+02 -0.91476410443E+01  0.10655428376E+03  0.11225061638E+03  0.00000000000E+00 0. -1.
</event>
<event>
 7    1  0.2380582E-009  0.2287397E+03  0.7561462E-02  0.1127530E+00
          1   -1    0    0  501    0  0.00000000000E+00  0.00000000000E+00  0.23066919044E+03  0.23066919044E+03  0.00000000000E+00 0. -1.
         -1   -1    0    0    0  501 -0.00000000000E+00 -0.00000000000E+00 -0.25731993076E+03  0.25731993076E+03  0.00000000000E+00 0.  1.
         25    2    1    2    0    0 -0.11997697569E+03 -0.18043242981E+03 -0.30820466754E+02  0.25208724225E+03  0.12509092736E+03 0.  0.
          5    1    3    3  502    0 -0.13340101734E+03 -0.17346172868E+03 -0.52738710262E+02  0.22513028828E+03  0.41800000000E+01 0.  1.
         -5    1    3    3    0  502  0.13424041646E+02 -0.69707011353E+01  0.21918243508E+02  0.26956953962E+02  0.41800000000E+01 0.  1.
        -11    1    1    2    0    0  0.36835519944E+01  0.41835068816E+02  0.32067410686E+02  0.52839950476E+02  0.00000000000E+00 0.  1.
         11    1    1    2    0    0  0.11629342370E+03  0.13859736100E+03 -0.27897684247E+02  0.18306192847E+03  0.00000000000E+00 0. -1.
</event>
<event>
 7    1  0.2380582E-009  0.1900497E+03  0.7561462E-02  0.1158417E+00
         -1   -1    0    0    0  501 -0.00000000000E+00  0.00000000000E+00  0.68761730604E+02  0.68761730604E+02  0.00000000000E+00 0.  1.
          1   -1    0    0  501    0  0.00000000000E+00 -0.00000000000E+00 -0.12454843635E+04  0.12454843635E+04  0.00000000000E+00 0. -1.
         25    2    1    2    0    0  0.12442940119E+03 -0.10128571911E+03 -0.10929189345E+04  0.11116928031E+04  0.12509044040E+03 0.  0.
          5    1    3    3  502    0  0.52586982428E+01 -0.81353784567E+02 -0.49310077089E+03  0.49981189944E+03  0.41800000000E+01 0.  1.
         -5    1    3    3    0  502  0.11917070294E+03 -0.19931934540E+02 -0.59981816358E+03  0.61188090362E+03  0.41800000000E+01 0. -1.
        -11    1    1    2    0    0 -0.17422846474E+02  0.60658052863E+02 -0.56900891592E+02  0.84974504532E+02  0.00000000000E+00 0.  1.
         11    1    1    2    0    0 -0.10700655471E+03  0.40627666244E+02 -0.26902806802E+02  0.11757878648E+03  0.00000000000E+00 0. -1.
</event>
<event>
 7    1  0.2380582E-009  0.1371636E+03  0.7561462E-02  0.1217197E+00
         -2   -1    0    0    0  501 -0.00000000000E+00  0.00000000000E+00  0.56014699100E+02  0.56014699100E+02  0.00000000000E+00 0.  1.
          2   -1    0    0  501    0  0.00000000000E+00 -0.00000000000E+00 -0.43289414557E+03  0.43289414557E+03  0.00000000000E+00 0. -1.
         25    2    1    2    0    0  0.11095636553E+03  0.78392739530E+00 -0.16778606426E+03  0.23688068731E+03  0.12509343334E+03 0.  0.
          5    1    3    3  502    0  0.70170407684E+02 -0.38714962614E+02 -0.26430480610E+02  0.84491284462E+02  0.41800000000E+01 0. -1.
         -5    1    3    3    0  502  0.40785957848E+02  0.39498890009E+02 -0.14135558365E+03  0.15238940285E+03  0.41800000000E+01 0. -1.
        -11    1    1    2    0    0 -0.31787884852E+02 -0.38103196634E+02 -0.10422538539E+03  0.11543506477E+03  0.00000000000E+00 0.  1.
         11    1    1    2    0    0 -0.79168480680E+02  0.37319269239E+02 -0.10486799681E+03  0.13659309260E+03  0.00000000000E+00 0. -1.
</event>
<event>
 7    1  0.2380582E-009  0.1090621E+03  0.7561462E-02  0.1262317E+00
         -1   -1    0    0    0  501 -0.00000000000E+00  0.00000000000E+00  0.12901973557E+03  0.12901973557E+03  0.00000000000E+00 0.  1.
          1   -1    0    0  501    0  0.00000000000E+00 -0.00000000000E+00 -0.94685437842E+02  0.94685437842E+02  0.00000000000E+00 0. -1.
         25    2    1    2    0    0 -0.41640676670E+01 -0.24935609861E+02  0.21453172479E+02  0.12941150108E+03  0.12509186186E+03 0.  0.
          5    1    3    3  502    0 -0.60476509457E+02 -0.33263918093E+02  0.22308525891E+01  0.69183419591E+02  0.41800000000E+01 0. -1.
         -5    1    3    3    0  502  0.56312441790E+02  0.83283082318E+01  0.19222319890E+02  0.60228081493E+02  0.41800000000E+01 0. -1.
        -11    1    1    2    0    0  0.35134685310E+02  0.43401870744E+02  0.16036999673E+02  0.58097795607E+02  0.00000000000E+00 0.  1.
         11    1    1    2    0    0 -0.30970617643E+02 -0.18466260883E+02 -0.31558744251E+01  0.36195876721E+02  0.00000000000E+00 0. -1.
</event>
<event>
 7    1  0.2380582E-009  0.9785722E+02  0.7561462E-02  0.1284868E+00
         -2   -1    0    0    0  501 -0.00000000000E+00  0.00000000000E+00  0.28967195359E+03  0.28967195359E+03  0.00000000000E+00 0.  1.
          2   -1    0    0  501    0  0.00000000000E+00 -0.00000000000E+00 -0.57063757203E+02  0.57063757203E+02  0.00000000000E+00 0. -1.
         25    2    1    2    0    0  0.14239113662E+02 -0.83953465222E+01  0.38554892551E+02  0.13193622842E+03  0.12508978547E+03 0.  0.
          5    1    3    3  502    0 -0.43563094807E+02  0.31319418836E+02  0.28708103444E+02  0.60994072078E+02  0.41800000000E+01 0. -1.
         -5    1    3    3    0  502  0.57802208468E+02 -0.39714765358E+02  0.98467891071E+01  0.70942156346E+02  0.41800000000E+01 0. -1.
        -11    1    1    2    0    0  0.28052226716E+02  0.86355354905E+01  0.19602132895E+02  0.35295091882E+02  0.00000000000E+00 0. -1.
         11    1    1    2    0    0 -0.42291340378E+02 -0.24018896828E+00  0.17445117095E+03  0.17950439049E+03  0.00000000000E+00 0.  1.
</event>
<event>
 7    1  0.2380582E-009  0.1421909E+03  0.7561462E-02  0.1210411E+00
          2   -1    0    0  501    0  0.00000000000E+00  0.00000000000E+00  0.17339515684E+03  0.17339515684E+03  0.00000000000E+00 0.  1.
         -2   -1    0    0    0  501 -0.00000000000E+00 -0.00000000000E+00 -0.18541276243E+03  0.18541276243E+03  0.00000000000E+00 0. -1.
         25    2    1    2    0    0  0.50856743303E+02  0.11672913207E+03  0.59895678726E+02  0.18827398995E+03  0.12508998500E+03 0.  0.
          5    1    3    3  502    0  0.45671716611E+02  0.53111923874E+02 -0.31336653831E+02  0.76852068476E+02  0.41800000000E+01 0.  1.
         -5    1    3    3    0  502  0.51850266919E+01  0.63617208199E+02  0.91232332557E+02  0.11142192147E+03  0.41800000000E+01 0.  1.
        -11    1    1    2    0    0 -0.89054275869E+01 -0.10675167892E+03 -0.32061836526E+02  0.11181765941E+03  0.00000000000E+00 0.  1.
         11    1    1    2    0    0 -0.41951315716E+02 -0.99774531487E+01 -0.39851447787E+02  0.58716269912E+02  0.00000000000E+00 0. -1.
</event>
<event>
 7    1  0.2380582E-009  0.8129110E+02  0.7561462E-02  0.1325427E+00
         -3   -1    0    0    0  501 -0.00000000000E+00  0.00000000000E+00  0.94218810525E+02  0.94218810525E+02  0.00000000000E+00 0.  1.
          3   -1    0    0  501    0  0.00000000000E+00 -0.00000000000E+00 -0.26520070659E+03  0.26520070659E+03  0.00000000000E+00 0. -1.
         25    2    1    2    0    0  0.51216903048E+02  0.15859574130E+02 -0.20790196175E+03  0.24848620990E+03  0.12508986194E+03 0.  0.
          5    1    3    3  502    0  0.41038357753E+02  0.30562116121E+01 -0.14957741766E+01  0.41390783719E+02  0.41800000000E+01 0. -1.
         -5    1    3    3    0  502  0.10178545295E+02  0.12803362518E+02 -0.20640618757E+03  0.20709542618E+03  0.41800000000E+01 0. -1.
        -11    1    1    2    0    0  0.44411834176E+00 -0.45014311451E+02  0.19908274761E+02  0.49222199062E+02  0.00000000000E+00 0. -1.
         11    1    1    2    0    0 -0.51661021390E+02  0.29154737321E+02  0.17011790922E+02  0.61711108155E+02  0.00000000000E+00 0.  1.
</event>
<event>
 7    1  0.2380582E-009  0.2041590E+03  0.7561462E-02  0.1146277E+00
         -2   -1    0    0    0  501 -0.00000000000E+00  0.00000000000E+00  0.39814144183E+03  0.39814144183E+03  0.00000000000E+00 0.  1.
          2   -1    0    0  501    0  0.00000000000E+00 -0.00000000000E+00 -0.12550246697E+03  0.12550246697E+03  0.00000000000E+00 0. -1.
         25    2    1    2    0    0 -0.18544208723E+03 -0.39538505174E+02  0.18337436522E+03  0.29193500557E+03  0.12509128086E+03 0.  0.
          5    1    3    3  502    0 -0.18959884207E+02  0.29713348712E+02  0.11010692358E+01  0.35511196182E+02  0.41800000000E+01 0. -1.
         -5    1    3    3    0  502 -0.16648220302E+03 -0.69251853886E+02  0.18227329599E+03  0.25642380938E+03  0.41800000000E+01 0. -1.
        -11    1    1    2    0    0  0.13862161403E+03  0.14524089649E+02  0.14664292566E+02  0.14014971471E+03  0.00000000000E+00 0.  1.
         11    1    1    2    0    0  0.46820473193E+02  0.25014415526E+02  0.74600317078E+02  0.91559188519E+02  0.00000000000E+00 0. -1.
</event>
<event>
 7    1  0.2380582E-009  0.1229542E+03  0.7561462E-02  0.1238302E+00
         -2   -1    0    0    0  501 -0.00000000000E+00  0.00000000000E+00  0.35159087467E+02  0.35159087467E+02  0.00000000000E+00 0.  1.
          2   -1    0    0  501    0  0.00000000000E+00 -0.00000000000E+00 -0.44471218870E+03  0.44471218870E+03  0.00000000000E+00 0. -1.
         25    2    1    2    0    0 -0.57960344042E+02 -0.11180002936E+02 -0.24167281540E+03  0.27845609296E+03  0.12509057541E+03 0.  0.
          5    1    3    3  502    0  0.36840908144E+02  0.14777852332E+02 -0.67361557188E+02  0.78298717865E+02  0.41800000000E+01 0. -1.
         -5    1    3    3    0  502 -0.94801252186E+02 -0.25957855268E+02 -0.17431125821E+03  0.20015737510E+03  0.41800000000E+01 0. -1.
        -11    1    1    2    0    0  0.55264592506E+02  0.46480184402E+02 -0.13499395455E+03  0.15309458022E+03  0.00000000000E+00 0. -1.
         11    1    1    2    0    0  0.26957515360E+01 -0.35300181466E+02 -0.32886331285E+02  0.48320602990E+02  0.00000000000E+00 0.  1.
</event>
<event>
 7    1  0.2380582E-009  0.9046838E+02  0.7561462E-02  0.1301721E+00
         -1   -1    0    0    0  501 -0.00000000000E+00  0.00000000000E+00  0.76677066652E+03  0.76677066652E+03  0.00000000000E+00 0.  1.
          1   -1    0    0  501    0  0.00000000000E+00 -0.00000000000E+00 -0.24982138197E+02  0.24982138197E+02  0.00000000000E+00 0. -1.
         25    2    1    2    0    0  0.18936817783E+02  0.31187199637E+01  0.65117764896E+03  0.66336132944E+03  0.12509034101E+03 0.  0.
          5    1    3    3  502    0 -0.33805652804E+02  0.26819470319E+02  0.98091980283E+02  0.10724558334E+03  0.41800000000E+01 0. -1.
         -5    1    3    3    0  502  0.52742470587E+02 -0.23700750355E+02  0.55308566867E+03  0.55611574610E+03  0.41800000000E+01 0. -1.
        -11    1    1    2    0    0 -0.49795955330E+01  0.36895621667E+02  0.12054370141E+02  0.39132992594E+02  0.00000000000E+00 0. -1.
         11    1    1    2    0    0 -0.13957222250E+02 -0.40014341630E+02  0.78556509228E+02  0.89258482685E+02  0.00000000000E+00 0.  1.
</event>
<event>
 7    1  0.2380582E-009  0.9424384E+02  0.7561462E-02  0.1292888E+00
         -2   -1    0    0    0  501 -0.00000000000E+00  0.00000000000E+00  0.69795909557E+02  0.69795909557E+02  0.00000000000E+00 0.  1.
          2   -1    0    0  501    0  0.00000000000E+00 -0.00000000000E+00 -0.20599102134E+03  0.20599102134E+03  0.00000000000E+00 0. -1.
         25    2    1    2    0    0  0.48974828478E+02  0.11374493717E+02 -0.61009176582E+02  0.14797996764E+03  0.12509211911E+03 0.  0.
          5    1    3    3  502    0  0.53401013537E+02  0.35076077970E+02 -0.89740477405E+02  0.11023985295E+03  0.41800000000E+01 0.  1.
         -5    1    3    3    0  502 -0.44261850592E+01 -0.23701584253E+02  0.28731300823E+02  0.37740114695E+02  0.41800000000E+01 0.  1.
        -11    1    1    2    0    0  0.15094962144E+01 -0.41283218959E+02 -0.47419438763E+02  0.62890268874E+02  0.00000000000E+00 0. -1.
         11    1    1    2    0    0 -0.50484324693E+02  0.29908725242E+02 -0.27766496440E+02  0.64916694384E+02  0.00000000000E+00 0.  1.
</event>
<event>
 7    1  0.2380582E-009  0.1325546E+03  0.7561462E-02  0.1223714E+00
          3   -1    0    0  501    0  0.00000000000E+00  0.00000000000E+00  0.73901003192E+03  0.73901003192E+03  0.00000000000E+00 0. -1.
         -3   -1    0    0    0  501 -0.00000000000E+00 -0.00000000000E+00 -0.53636525109E+02  0.53636525109E+02  0.00000000000E+00 0.  1.
         25    2    1    2    0    0  0.62762076147E+02  0.10518178331E+03  0.58340210888E+03  0.60910506673E+03  0.12509466787E+03 0.  0.
          5    1    3    3  502    0  0.38607014772E+02  0.74488865651E+01  0.39289664921E+02  0.55741704946E+02  0.41800000000E+01 0. -1.
         -5    1    3    3    0  502  0.24155061375E+02  0.97732896741E+02  0.54411244396E+03  0.55336336179E+03  0.41800000000E+01 0. -1.
        -11    1    1    2    0    0 -0.63520829710E+02 -0.93116401898E+02  0.38778946219E+02  0.11920304853E+03  0.00000000000E+00 0.  1.
         11    1    1    2    0    0  0.75875356298E+00 -0.12065381408E+02  0.63192451715E+02  0.64338441769E+02  0.00000000000E+00 0. -1.
</event>
<event>
 7    1  0.2380582E-009  0.1058101E+03  0.7561462E-02  0.1268532E+00
         -2   -1    0    0    0  501 -0.00000000000E+00  0.00000000000E+00  0.31742373826E+02  0.31742373826E+02  0.00000000000E+00 0. -1.
          2   -1    0    0  501    0  0.00000000000E+00 -0.00000000000E+00 -0.53797341218E+03  0.53797341218E+03  0.00000000000E+00 0.  1.
         25    2    1    2    0    0 -0.34784424064E+02 -0.57373788210E+01 -0.42242543113E+03  0.44196762987E+03  0.12509703162E+03 0.  0.
          5    1    3    3  502    0 -0.21045594547E+02  0.55599035584E+02 -0.27937746430E+03  0.28566310536E+03  0.41800000000E+01 0. -1.
         -5    1    3    3    0  502 -0.13738829517E+02 -0.61336414405E+02 -0.14304796683E+03  0.15630452451E+03  0.41800000000E+01 0. -1.
        -11    1    1    2    0    0  0.37626241975E+02  0.39845393163E+02 -0.74115922298E+02  0.92176783300E+02  0.00000000000E+00 0.  1.
         11    1    1    2    0    0 -0.28418179106E+01 -0.34108014341E+02 -0.96896849320E+01  0.35571372836E+02  0.00000000000E+00 0. -1.
</event>
<event>
 7    1  0.2380582E-009  0.1130650E+03  0.7561462E-02  0.1254997E+00
         -2   -1    0    0    0  501 -0.00000000000E+00  0.00000000000E+00  0.46098986096E+03  0.46098986096E+03  0.00000000000E+00 0.  1.
          2   -1    0    0  501    0  0.00000000000E+00 -0.00000000000E+00 -0.28980752745E+02  0.28980752745E+02  0.00000000000E+00 0. -1.
         25    2    1    2    0    0 -0.28643188852E+02  0.19219555068E+02  0.20542921257E+03  0.24297763847E+03  0.12508856005E+03 0.  0.
          5    1    3    3  502    0  0.41786762129E+02 -0.22373603633E+02  0.68016717891E+02  0.83008782315E+02  0.41800000000E+01 0.  1.
         -5    1    3    3    0  502 -0.70429950982E+02  0.41593158701E+02  0.13741249468E+03  0.15996885615E+03  0.41800000000E+01 0.  1.
        -11    1    1    2    0    0  0.60493114062E+02 -0.22003138486E+01  0.16294458587E+03  0.17382518889E+03  0.00000000000E+00 0.  1.
         11    1    1    2    0    0 -0.31849925210E+02 -0.17019241220E+02  0.63635309776E+02  0.73167786340E+02  0.00000000000E+00 0. -1.
</event>
<event>
 7    1  0.2380582E-009  0.3854179E+03  0.7561462E-02  0.1048949E+00
         -2   -1    0    0    0  501 -0.00000000000E+00  0.00000000000E+00  0.17751248252E+03  0.17751248252E+03  0.00000000000E+00 0. -1.
          2   -1    0    0  501    0  0.00000000000E+00 -0.00000000000E+00 -0.11872714624E+04  0.11872714624E+04  0.00000000000E+00 0.  1.
         25    2    1    2    0    0 -0.11042328486E+03 -0.35824236898E+03 -0.14804736251E+03  0.42201534845E+03  0.12509211010E+03 0.  0.
          5    1    3    3  502    0  0.20330701658E+02 -0.11683731164E+03 -0.64227256187E+02  0.13493297469E+03  0.41800000000E+01 0.  1.
         -5    1    3    3    0  502 -0.13075398651E+03 -0.24140505734E+03 -0.83820106327E+02  0.28708237376E+03  0.41800000000E+01 0.  1.
        -11    1    1    2    0    0  0.11113477958E+02  0.10485539062E+03 -0.31278239575E+03  0.33007724766E+03  0.00000000000E+00 0. -1.
         11    1    1    2    0    0  0.99309806899E+02  0.25338697836E+03 -0.54892922159E+03  0.61269134878E+03  0.00000000000E+00 0.  1.
</event>
<event>
 7    1  0.2603282E-009  0.7724206E+02  0.7561462E-02  0.1337065E+00
          3   -1    0    0  501    0  0.00000000000E+00  0.00000000000E+00  0.53181192021E+02  0.53181192021E+02  0.00000000000E+00 0. -1.
         -3   -1    0    0    0  501 -0.00000000000E+00 -0.00000000000E+00 -0.29627600432E+03  0.29627600432E+03  0.00000000000E+00 0.  1.
         25    2    1    2    0    0 -0.71321626752E+01  0.12873386676E+02 -0.50571514689E+02  0.13572882037E+03  0.12509293645E+03 0.  0.
          5    1    3    3  502    0 -0.20476551383E+02 -0.20136802057E+02 -0.82665504734E+02  0.87611860079E+02  0.41800000000E+01 0.  1.
         -5    1    3    3    0  502  0.13344388708E+02  0.33010188732E+02  0.32093990045E+02  0.48116960286E+02  0.41800000000E+01 0.  1.
        -11    1    1    2    0    0  0.47733824693E+02 -0.10902803167E+02 -0.13230314054E+03  0.14107271222E+03  0.00000000000E+00 0.  1.
         11    1    1    2    0    0 -0.40601662018E+02 -0.19705835083E+01 -0.60220157066E+02  0.72655663751E+02  0.00000000000E+00 0. -1.
</event>
<event>
 7    1  0.2380582E-009  0.1282847E+03  0.7561462E-02  0.1230023E+00
          1   -1    0    0  501    0  0.00000000000E+00  0.00000000000E+00  0.27205013257E+04  0.27205013257E+04  0.00000000000E+00 0. -1.
         -1   -1    0    0    0  501 -0.00000000000E+00 -0.00000000000E+00 -0.98802927900E+01  0.98802927900E+01  0.00000000000E+00 0.  1.
         25    2    1    2    0    0 -0.10140573280E+03  0.63531659305E+01  0.20091559685E+04  0.20156088329E+04  0.12509107136E+03 0.  0.
          5    1    3    3  502    0  0.83309389111E+01  0.16768551282E+01  0.11352881308E+02  0.14784339696E+02  0.41800000000E+01 0.  1.
         -5    1    3    3    0  502 -0.10973667171E+03  0.46763108023E+01  0.19978030872E+04  0.20008244932E+04  0.41800000000E+01 0.  1.
        -11    1    1    2    0    0  0.11584795197E+02 -0.39712346299E+02  0.22429949001E+03  0.22808230783E+03  0.00000000000E+00 0.  1.
         11    1    1    2    0    0  0.89820937603E+02  0.33359180368E+02  0.47716557434E+03  0.48669047770E+03  0.00000000000E+00 0. -1.
</event>
<event>
 7    1  0.2380582E-009  0.1224408E+03  0.7561462E-02  0.1239124E+00
         -1   -1    0    0    0  501 -0.00000000000E+00  0.00000000000E+00  0.26563857676E+02  0.26563857676E+02  0.00000000000E+00 0.  1.
          1   -1    0    0  501    0  0.00000000000E+00 -0.00000000000E+00 -0.65579632974E+03  0.65579632974E+03  0.00000000000E+00 0. -1.
         25    2    1    2    0    0  0.23191592411E+02 -0.64681864774E+02 -0.26760979952E+03  0.30328807833E+03  0.12508820916E+03 0.  0.
          5    1    3    3  502    0 -0.51107491841E+02 -0.33546030704E+02 -0.13135766093E+03  0.14494695369E+03  0.41800000000E+01 0. -1.
         -5    1    3    3    0  502  0.74299084252E+02 -0.31135834070E+02 -0.13625213859E+03  0.15834112465E+03  0.41800000000E+01 0. -1.
        -11    1    1    2    0    0 -0.32032793481E+02 -0.52404347785E+01 -0.50242503386E+02  0.59815308754E+02  0.00000000000E+00 0.  1.
         11    1    1    2    0    0  0.88412010691E+01  0.69922299553E+02 -0.31138016916E+03  0.31925680033E+03  0.00000000000E+00 0. -1.
</event>
<event>
 7    1  0.2547316E-009  0.1940795E+03  0.7561462E-02  0.1154833E+00
          1   -1    0    0  501    0  0.00000000000E+00  0.00000000000E+00  0.90289789119E+03  0.90289789119E+03  0.00000000000E+00 0. -1.
         -1   -1    0    0    0  501 -0.00000000000E+00 -0.00000000000E+00 -0.48745316962E+02  0.48745316962E+02  0.00000000000E+00 0.  1.
         25    2    1    2    0    0  0.16277838521E+03  0.15000918948E+02  0.61031173986E+03  0.64408835835E+03  0.12509022061E+03 0.  0.
          5    1    3    3  502    0  0.98384232524E+02 -0.49037521657E+02  0.40246921212E+03  0.41723263876E+03  0.41800000000E+01 0.  1.
         -5    1    3    3    0  502  0.64394152685E+02  0.64038440605E+02  0.20784252774E+03  0.22685571960E+03  0.41800000000E+01 0.  1.
        -11    1    1    2    0    0 -0.48740306049E+02  0.37693973945E+02  0.73740165590E+02  0.96094043138E+02  0.00000000000E+00 0. -1.
         11    1    1    2    0    0 -0.11403807916E+03 -0.52694892894E+02  0.17010066878E+03  0.21146080667E+03  0.00000000000E+00 0.  1.
</event>
<event>
 7    1  0.2380582E-009  0.8505970E+02  0.7561462E-02  0.1315276E+00
         -1   -1    0    0    0  501 -0.00000000000E+00  0.00000000000E+00  0.35485450116E+02  0.35485450116E+02  0.00000000000E+00 0.  1.
          1   -1    0    0  501    0  0.00000000000E+00 -0.00000000000E+00 -0.34566623524E+03  0.34566623524E+03  0.00000000000E+00 0. -1.
         25    2    1    2    0    0 -0.17169854994E+02 -0.28661893994E+01 -0.15082430134E+03  0.19672055771E+03  0.12509192215E+03 0.  0.
          5    1    3    3  502    0 -0.53317881031E+02  0.12034654887E+02 -0.14738409908E+03  0.15724876603E+03  0.41800000000E+01 0. -1.
         -5    1    3    3    0  502  0.36148026036E+02 -0.14900844286E+02 -0.34402022651E+01  0.39471791680E+02  0.41800000000E+01 0. -1.
        -11    1    1    2    0    0  0.34698573169E+02  0.28515390796E+02 -0.14180923083E+03  0.14875139139E+03  0.00000000000E+00 0.  1.
         11    1    1    2    0    0 -0.17528718175E+02 -0.25649201397E+02 -0.17547252945E+02  0.35679736253E+02  0.00000000000E+00 0. -1.
</event>
<event>
 7    1  0.2380582E-009  0.9469198E+02  0.7561462E-02  0.1291871E+00
          1   -1    0    0  501    0  0.00000000000E+00  0.00000000000E+00  0.74479949942E+02  0.74479949942E+02  0.00000000000E+00 0. -1.
         -1   -1    0    0    0  501 -0.00000000000E+00 -0.00000000000E+00 -0.21611036833E+03  0.21611036833E+03  0.00000000000E+00 0.  1.
         25    2    1    2    0    0 -0.27285803022E+02 -0.38720482011E+02 -0.27260655670E+02  0.13650868916E+03  0.12509071946E+03 0.  0.
          5    1    3    3  502    0  0.41985784060E+02  0.98836146925E+01 -0.28334538765E+02  0.51776542851E+02  0.41800000000E+01 0. -1.
         -5    1    3    3    0  502 -0.69271587082E+02 -0.48604096703E+02  0.10738830953E+01  0.84732146309E+02  0.41800000000E+01 0. -1.
        -11    1    1    2    0    0  0.18228188818E+02 -0.31376297362E+01  0.11053962714E+02  0.21547660653E+02  0.00000000000E+00 0. -1.
         11    1    1    2    0    0  0.90576142038E+01  0.41858111747E+02 -0.12542372544E+03  0.13253396846E+03  0.00000000000E+00 0.  1.
</event>
<event>
 7    1  0.2380582E-009  0.1046589E+03  0.7561462E-02  0.1270793E+00
          1   -1    0    0  501    0  0.00000000000E+00  0.00000000000E+00  0.45637718202E+03  0.45637718202E+03  0.00000000000E+00 0.  1.
         -1   -1    0    0    0  501 -0.00000000000E+00 -0.00000000000E+00 -0.35420689175E+02  0.35420689175E+02  0.00000000000E+00 0. -1.
         25    2    1    2    0    0  0.16539016648E+02 -0.13807953914E+02  0.33420818318E+03  0.35750080961E+03  0.12509004958E+03 0.  0.
          5    1    3    3  502    0 -0.29986985413E+02 -0.42414514735E+02  0.67766386650E+02  0.85486641728E+02  0.41800000000E+01 0.  1.
         -5    1    3    3    0  502  0.46526002061E+02  0.28606560821E+02  0.26644179653E+03  0.27201416789E+03  0.41800000000E+01 0.  1.
        -11    1    1    2    0    0  0.41023953630E+02  0.17818151507E+02  0.40702722499E+02  0.60474481506E+02  0.00000000000E+00 0.  1.
         11    1    1    2    0    0 -0.57562970278E+02 -0.40101975931E+01  0.46045587162E+02  0.73822580076E+02  0.00000000000E+00 0. -1.
</event>
<event>
 7    1  0.2380582E-009  0.1209766E+03  0.7561462E-02  0.1241495E+00
         -3   -1    0    0    0  501 -0.00000000000E+00  0.00000000000E+00  0.89873408784E+02  0.89873408784E+02  0.00000000000E+00 0.  1.
          3   -1    0    0  501    0  0.00000000000E+00 -0.00000000000E+00 -0.26611176158E+03  0.26611176158E+03  0.00000000000E+00 0. -1.
         25    2    1    2    0    0  0.67659140831E+02 -0.16692143354E+02 -0.19148928550E+03  0.23910724206E+03  0.12509092596E+03 0.  0.
          5    1    3    3  502    0 -0.32136967289E+02  0.80386066258E+00 -0.89911662257E+02  0.95577247650E+02  0.41800000000E+01 0.  1.
         -5    1    3    3    0  502  0.99796108120E+02 -0.17496004016E+02 -0.10157762325E+03  0.14352999441E+03  0.41800000000E+01 0.  1.
        -11    1    1    2    0    0  0.15605242003E+02  0.19307784404E+02  0.22172207970E+02  0.33285446112E+02  0.00000000000E+00 0.  1.
         11    1    1    2    0    0 -0.83264382835E+02 -0.26156410506E+01 -0.69212752618E+01  0.83592482187E+02  0.00000000000E+00 0. -1.
</event>
<event>
 7    1  0.2380582E-009  0.1163087E+03  0.7561462E-02  0.1249314E+00
         -1   -1    0    0    0  501 -0.00000000000E+00  0.00000000000E+00  0.16343206705E+03  0.16343206705E+03  0.00000000000E+00 0.  1.
          1   -1    0    0  501    0  0.00000000000E+00 -0.00000000000E+00 -0.11523302141E+03  0.11523302141E+03  0.00000000000E+00 0. -1.
         25    2    1    2    0    0 -0.46472758163E+02 -0.61699464674E+02 -0.23085444202E+01  0.14703613737E+03  0.12509098738E+03 0.  0.
          5    1    3    3  502    0  0.20411370445E+02  0.15393481102E+02  0.30248473763E+02  0.39824940287E+02  0.41800000000E+01 0.  1.
         -5    1    3    3    0  502 -0.66884128608E+02 -0.77092945776E+02 -0.32557018183E+02  0.10721119709E+03  0.41800000000E+01 0.  1.
        -11    1    1    2    0    0  0.60487140632E+02  0.66364609559E+02  0.12258305822E+02  0.90626826301E+02  0.00000000000E+00 0.  1.
         11    1    1    2    0    0 -0.14014382469E+02 -0.46651448850E+01  0.38249284238E+02  0.41002124793E+02  0.00000000000E+00 0. -1.
</event>
<event>
 7    1  0.2380582E-009  0.9248397E+02  0.7561462E-02  0.1296945E+00
          2   -1    0    0  501    0  0.00000000000E+00  0.00000000000E+00  0.27585877685E+03  0.27585877685E+03  0.00000000000E+00 0. -1.
         -2   -1    0    0    0  501 -0.00000000000E+00 -0.00000000000E+00 -0.46732168504E+02  0.46732168504E+02  0.00000000000E+00 0.  1.
         25    2    1    2    0    0  0.52698803698E+01  0.32479933797E+02  0.15744582700E+03  0.20376316532E+03  0.12509005301E+03 0.  0.
          5    1    3    3  502    0  0.38194695085E+02  0.43306791358E+02  0.18922476651E+02  0.60908500498E+02  0.41800000000E+01 0.  1.
         -5    1    3    3    0  502 -0.32924814715E+02 -0.10826857561E+02  0.13852335035E+03  0.14285466482E+03  0.41800000000E+01 0.  1.
        -11    1    1    2    0    0  0.13342877774E+02 -0.58594318845E+02  0.59375175325E+02  0.84479216575E+02  0.00000000000E+00 0.  1.
         11    1    1    2    0    0 -0.18612758144E+02  0.26114385048E+02  0.12305606017E+02  0.34348563458E+02  0.00000000000E+00 0. -1.
</event>
<event>
 7    1  0.2380582E-009  0.3158227E+03  0.7561462E-02  0.1077588E+00
         -2   -1    0    0    0  501 -0.00000000000E+00  0.00000000000E+00  0.74810975739E+02  0.74810975739E+02  0.00000000000E+00 0.  1.
          2   -1    0    0  501    0  0.00000000000E+00 -0.00000000000E+00 -0.17721791352E+04  0.17721791352E+04  0.00000000000E+00 0. -1.
         25    2    1    2    0    0 -0.30079190886E+03 -0.47982210231E+02 -0.12829383317E+04  0.13245213822E+04  0.12509222215E+03 0.  0.
          5    1    3    3  502    0 -0.27358193186E+03 -0.79395339909E+02 -0.11674977144E+04  0.12017566638E+04  0.41800000000E+01 0.  1.
         -5    1    3    3    0  502 -0.27209976999E+02  0.31413129678E+02 -0.11544061727E+03  0.12276471839E+03  0.41800000000E+01 0.  1.
        -11    1    1    2    0    0  0.21360565133E+03  0.41054528637E+02 -0.22050871150E+03  0.30973688907E+03  0.00000000000E+00 0.  1.
         11    1    1    2    0    0  0.87186257525E+02  0.69276815946E+01 -0.19392111622E+03  0.21273183962E+03  0.00000000000E+00 0. -1.
</event>
<event>
 7    1  0.2380582E-009  0.1486232E+03  0.7561462E-02  0.1202175E+00
          2   -1    0    0  501    0  0.00000000000E+00  0.00000000000E+00  0.82392961277E+02  0.82392961277E+02  0.00000000000E+00 0. -1.
         -2   -1    0    0    0  501 -0.00000000000E+00 -0.00000000000E+00 -0.31717108236E+03  0.31717108236E+03  0.00000000000E+00 0.  1.
         25    2    1    2    0    0  0.76834928053E+02  0.76349956630E+02 -0.20202490156E+03  0.26114100068E+03  0.12509052458E+03 0.  0.
          5    1    3    3  502    0  0.87935900199E+02  0.11449709733E+01 -0.12447606940E+03  0.15246572650E+03  0.41800000000E+01 0. -1.
         -5    1    3    3    0  502 -0.11100972146E+02  0.75204985657E+02 -0.77548832156E+02  0.10867527418E+03  0.41800000000E+01 0. -1.
        -11    1    1    2    0    0 -0.85763279507E+02 -0.84920338701E+02 -0.23473840089E+02  0.12295456561E+03  0.00000000000E+00 0. -1.
         11    1    1    2    0    0  0.89283514541E+01  0.85703820708E+01 -0.92793794333E+01  0.15468477339E+02  0.00000000000E+00 0.  1.
</event>
<event>
 7    1  0.2380582E-009  0.1533468E+03  0.7561462E-02  0.1196420E+00
         -1   -1    0    0    0  501 -0.00000000000E+00  0.00000000000E+00  0.17671509974E+03  0.17671509974E+03  0.00000000000E+00 0.  1.
          1   -1    0    0  501    0  0.00000000000E+00 -0.00000000000E+00 -0.16458769164E+03  0.16458769164E+03  0.00000000000E+00 0. -1.
         25    2    1    2    0    0 -0.10365492051E+03  0.42936302708E+02  0.75720517024E+02  0.18430462750E+03  0.12508689133E+03 0.  0.
          5    1    3    3  502    0 -0.33205474573E+01 -0.37257975147E+02  0.60509604949E+01  0.38121768983E+02  0.41800000000E+01 0.  1.
         -5    1    3    3    0  502 -0.10033437305E+03  0.80194277855E+02  0.69669556529E+02  0.14618285851E+03  0.41800000000E+01 0.  1.
        -11    1    1    2    0    0  0.42088865533E+01 -0.40858203988E+02 -0.33716165621E+02  0.53140261416E+02  0.00000000000E+00 0.  1.
         11    1    1    2    0    0  0.99446033957E+02 -0.20780987199E+01 -0.29876943301E+02  0.10385790247E+03  0.00000000000E+00 0. -1.
</event>
<event>
 7    1  0.2380582E-009  0.9849904E+02  0.7561462E-02  0.1283484E+00
         -1   -1    0    0    0  501 -0.00000000000E+00  0.00000000000E+00  0.64042052612E+02  0.64042052612E+02  0.00000000000E+00 0.  1.
          1   -1    0    0  501    0  0.00000000000E+00 -0.00000000000E+00 -0.22616783787E+03  0.22616783787E+03  0.00000000000E+00 0. -1.
         25    2    1    2    0    0  0.45335007861E+02  0.17698539747E+02 -0.70382378988E+02  0.15155557541E+03  0.12508761697E+03 0.  0.
          5    1    3    3  502    0  0.69976556725E+02  0.11864209190E+02 -0.93193776873E+02  0.11721787576E+03  0.41800000000E+01 0.  1.
         -5    1    3    3    0  502 -0.24641548864E+02  0.58343305569E+01  0.22811397885E+02  0.34337699645E+02  0.41800000000E+01 0.  1.
        -11    1    1    2    0    0 -0.36576591465E+02 -0.52702484203E+02 -0.75527663181E+02  0.99095039179E+02  0.00000000000E+00 0. -1.
         11    1    1    2    0    0 -0.87584163958E+01  0.35003944457E+02 -0.16215743091E+02  0.39559275894E+02  0.00000000000E+00 0.  1.
</event>
<event>
 7    1  0.2380582E-009  0.3190361E+03  0.7561462E-02  0.1076094E+00
         -1   -1    0    0    0  501 -0.00000000000E+00  0.00000000000E+00  0.49207996714E+03  0.49207996714E+03  0.00000000000E+00 0.  1.
          1   -1    0    0  501    0  0.00000000000E+00 -0.00000000000E+00 -0.21562932465E+03  0.21562932465E+03  0.00000000000E+00 0. -1.
         25    2    1    2    0    0  0.29302616781E+03 -0.91660042672E+02  0.12266172278E+03  0.35349728474E+03  0.12509409915E+03 0.  0.
          5    1    3    3  502    0  0.92744209944E+02  0.19295643529E+02  0.24324750048E+01  0.94853569632E+02  0.41800000000E+01 0. -1.
         -5    1    3    3    0  502  0.20028195786E+03 -0.11095568620E+03  0.12022924778E+03  0.25864371511E+03  0.41800000000E+01 0. -1.
        -11    1    1    2    0    0 -0.94853147042E+02  0.63352133626E+02  0.26877376418E+02  0.11718790766E+03  0.00000000000E+00 0.  1.
         11    1    1    2    0    0 -0.19817302076E+03  0.28307909046E+02  0.12691154328E+03  0.23702409939E+03  0.00000000000E+00 0. -1.
</event>
<event>
 7    1  0.2380582E-009  0.1910251E+03  0.7561462E-02  0.1157540E+00
         -2   -1    0    0    0  501 -0.00000000000E+00  0.00000000000E+00  0.39964961443E+02  0.39964961443E+02  0.00000000000E+00 0.  1.
          2   -1    0    0  501    0  0.00000000000E+00 -0.00000000000E+00 -0.13198047167E+04  0.13198047167E+04  0.00000000000E+00 0. -1.
         25    2    1    2    0    0  0.83775691260E+02  0.14196647147E+03 -0.31625047557E+03  0.37793319647E+03  0.12508513992E+03 0.  0.
          5    1    3    3  502    0 -0.16523142253E+02  0.64851064073E+02 -0.17936201998E+03  0.19148598213E+03  0.41800000000E+01 0. -1.
         -5    1    3    3    0  502  0.10029883351E+03  0.77115407396E+02 -0.13688845559E+03  0.18644721434E+03  0.41800000000E+01 0. -1.
        -11    1    1    2    0    0 -0.64576304056E+02 -0.15313846912E+03 -0.84948327417E+03  0.86558842579E+03  0.00000000000E+00 0.  1.
         11    1    1    2    0    0 -0.19199387204E+02  0.11171997648E+02 -0.11410600550E+03  0.11624805586E+03  0.00000000000E+00 0. -1.
</event>
<event>
 7    1  0.2380582E-009  0.1544715E+03  0.7561462E-02  0.1195084E+00
          1   -1    0    0  501    0  0.00000000000E+00  0.00000000000E+00  0.33049933390E+03  0.33049933390E+03  0.00000000000E+00 0. -1.
         -1   -1    0    0    0  501 -0.00000000000E+00 -0.00000000000E+00 -0.85989254148E+02  0.85989254148E+02  0.00000000000E+00 0.  1.
         25    2    1    2    0    0 -0.98791515092E+02  0.70500784370E+02  0.82935532593E+02  0.19301256335E+03  0.12508166530E+03 0.  0.
          5    1    3    3  502    0 -0.87449810155E+02 -0.14228154421E+02  0.42492886003E+02  0.98351550244E+02  0.41800000000E+01 0.  1.
         -5    1    3    3    0  502 -0.11341704937E+02  0.84728938791E+02  0.40442646589E+02  0.94661013108E+02  0.41800000000E+01 0.  1.
        -11    1    1    2    0    0  0.86868663100E+02 -0.80998286716E+02  0.86997489618E+02  0.14722584787E+03  0.00000000000E+00 0.  1.
         11    1    1    2    0    0  0.11922851991E+02  0.10497502346E+02  0.74577057546E+02  0.76250176835E+02  0.00000000000E+00 0. -1.
</event>
<event>
 7    1  0.2380582E-009  0.1237540E+03  0.7561462E-02  0.1237030E+00
          1   -1    0    0  501    0  0.00000000000E+00  0.00000000000E+00  0.28131578858E+03  0.28131578858E+03  0.00000000000E+00 0. -1.
         -1   -1    0    0    0  501 -0.00000000000E+00 -0.00000000000E+00 -0.71368240300E+02  0.71368240300E+02  0.00000000000E+00 0.  1.
         25    2    1    2    0    0  0.78166429074E+02 -0.43324682721E+02  0.97875664070E+02  0.18224606926E+03  0.12508783065E+03 0.  0.
          5    1    3    3  502    0 -0.10945661088E+01 -0.41690023181E+02  0.93817634616E+02  0.10275445038E+03  0.41800000000E+01 0.  1.
         -5    1    3    3    0  502  0.79260995183E+02 -0.16346595400E+01  0.40580294536E+01  0.79491618880E+02  0.41800000000E+01 0.  1.
        -11    1    1    2    0    0 -0.98217460926E+02  0.32721986271E+02  0.10292082125E+03  0.14597977074E+03  0.00000000000E+00 0. -1.
         11    1    1    2    0    0  0.20051031852E+02  0.10602696450E+02  0.91510629584E+01  0.24458188887E+02  0.00000000000E+00 0.  1.
</event>
<event>
 7    1  0.2380582E-009  0.1456933E+03  0.7561462E-02  0.1205867E+00
         -1   -1    0    0    0  501 -0.00000000000E+00  0.00000000000E+00  0.27480152567E+02  0.27480152567E+02  0.00000000000E+00 0.  1.
          1   -1    0    0  501    0  0.00000000000E+00 -0.00000000000E+00 -0.87216638237E+03  0.87216638237E+03  0.00000000000E+00 0. -1.
         25    2    1    2    0    0 -0.44188967161E+02  0.72662792248E-01 -0.46112454988E+03  0.47982925235E+03  0.12509033059E+03 0.  0.
          5    1    3    3  502    0 -0.10272485897E+02 -0.61344896870E+02 -0.22279122895E+03  0.23134849132E+03  0.41800000000E+01 0. -1.
         -5    1    3    3    0  502 -0.33916481264E+02  0.61417559662E+02 -0.23833332093E+03  0.24848076103E+03  0.41800000000E+01 0. -1.
        -11    1    1    2    0    0  0.43108829755E+01 -0.74340668513E+02 -0.25839569543E+03  0.26891161025E+03  0.00000000000E+00 0. -1.
         11    1    1    2    0    0  0.39878084186E+02  0.74268005721E+02 -0.12516598449E+03  0.15090567234E+03  0.00000000000E+00 0.  1.
</event>
<event>
 7    1  0.2380582E-009  0.9510012E+02  0.7561462E-02  0.1290951E+00
          2   -1    0    0  501    0  0.00000000000E+00  0.00000000000E+00  0.10756332912E+03  0.10756332912E+03  0.00000000000E+00 0. -1.
         -2   -1    0    0    0  501 -0.00000000000E+00 -0.00000000000E+00 -0.14652380161E+03  0.14652380161E+03  0.00000000000E+00 0.  1.
         25    2    1    2    0    0 -0.52334169271E+02  0.27238700935E+02  0.34871098984E+01  0.13834712072E+03  0.12508778427E+03 0.  0.
          5    1    3    3  502    0  0.12567582100E+02  0.38672831292E+01  0.52072514584E+02  0.53869464205E+02  0.41800000000E+01 0.  1.
         -5    1    3    3    0  502 -0.64901751371E+02  0.23371417806E+02 -0.48585404686E+02  0.84477656512E+02  0.41800000000E+01 0.  1.
        -11    1    1    2    0    0  0.75058809562E+02 -0.45718678493E+01 -0.34144674014E+02  0.82586836918E+02  0.00000000000E+00 0. -1.
         11    1    1    2    0    0 -0.22724640291E+02 -0.22666833086E+02 -0.83029083708E+01  0.33153173090E+02  0.00000000000E+00 0.  1.
</event>
<event>
 7    1  0.2380582E-009  0.6302950E+02  0.7561462E-02  0.1385541E+00
         -1   -1    0    0    0  501 -0.00000000000E+00  0.00000000000E+00  0.40058998993E+03  0.40058998993E+03  0.00000000000E+00 0.  1.
          1   -1    0    0  501    0  0.00000000000E+00 -0.00000000000E+00 -0.59349357498E+02  0.59349357498E+02  0.00000000000E+00 0. -1.
         25    2    1    2    0    0 -0.20020047091E+02 -0.71982231748E+01  0.34300317546E+03  0.36571945245E+03  0.12508766056E+03 0.  0.
          5    1    3    3  502    0 -0.50908280912E+02 -0.22582527572E+02  0.31808550468E+03  0.32295121040E+03  0.41800000000E+01 0. -1.
         -5    1    3    3    0  502  0.30888233820E+02  0.15384304397E+02  0.24917670779E+02  0.42768242042E+02  0.41800000000E+01 0. -1.
        -11    1    1    2    0    0 -0.30594978163E+01  0.11563811519E+02  0.42478224649E+02  0.44130282494E+02  0.00000000000E+00 0.  1.
         11    1    1    2    0    0  0.23079544908E+02 -0.43655883440E+01 -0.44240767673E+02  0.50089612486E+02  0.00000000000E+00 0. -1.
</event>
<event>
 7    1  0.2380582E-009  0.9509205E+02  0.7561462E-02  0.1290969E+00
         -1   -1    0    0    0  501 -0.00000000000E+00  0.00000000000E+00  0.11133507133E+03  0.11133507133E+03  0.00000000000E+00 0.  1.
          1   -1    0    0  501    0  0.00000000000E+00 -0.00000000000E+00 -0.15424382818E+03  0.15424382818E+03  0.00000000000E+00 0. -1.
         25    2    1    2    0    0  0.16829840121E+02 -0.19894811793E+02  0.49756417408E+02  0.13712192517E+03  0.12509066405E+03 0.  0.
          5    1    3    3  502    0  0.63031603906E+02 -0.30772112666E+02  0.29483407792E+01  0.70328309537E+02  0.41800000000E+01 0.  1.
         -5    1    3    3    0  502 -0.46201763785E+02  0.10877300873E+02  0.46808076629E+02  0.66793615629E+02  0.41800000000E+01 0.  1.
        -11    1    1    2    0    0 -0.23947123139E+02 -0.20333935922E+02 -0.79584164543E+02  0.85560346555E+02  0.00000000000E+00 0. -1.
         11    1    1    2    0    0  0.71172830180E+01  0.40228747715E+02 -0.13081009710E+02  0.42896627784E+02  0.00000000000E+00 0.  1.
</event>
<event>
 7    1  0.2380582E-009  0.2244564E+03  0.7561462E-02  0.1130604E+00
          1   -1    0    0  501    0  0.00000000000E+00  0.00000000000E+00  0.14758066316E+04  0.14758066316E+04  0.00000000000E+00 0. -1.
         -1   -1    0    0    0  501 -0.00000000000E+00 -0.00000000000E+00 -0.44841680522E+02  0.44841680522E+02  0.00000000000E+00 0.  1.
         25    2    1    2    0    0  0.11786976879E+03  0.17077531345E+03  0.10539035730E+04  0.10813952491E+04  0.12508178751E+03 0.  0.
          5    1    3    3  502    0  0.12004904367E+03  0.69814788886E+02  0.68162352064E+03  0.69563925559E+03  0.41800000000E+01 0. -1.
         -5    1    3    3    0  502 -0.21792748802E+01  0.10096052456E+03  0.37228005234E+03  0.38575599351E+03  0.41800000000E+01 0. -1.
        -11    1    1    2    0    0 -0.38147478399E+02 -0.76173344876E+02  0.23971961163E+03  0.25440735205E+03  0.00000000000E+00 0. -1.
         11    1    1    2    0    0 -0.79722290394E+02 -0.94601968575E+02  0.13734176645E+03  0.18484571095E+03  0.00000000000E+00 0.  1.
</event>
<event>
 7    1  0.2380582E-009  0.6957428E+02  0.7561462E-02  0.1361547E+00
          1   -1    0    0  501    0  0.00000000000E+00  0.00000000000E+00  0.28338186375E+03  0.28338186375E+03  0.00000000000E+00 0. -1.
         -1   -1    0    0    0  501 -0.00000000000E+00 -0.00000000000E+00 -0.57699006849E+02  0.57699006849E+02  0.00000000000E+00 0.  1.
         25    2    1    2    0    0  0.19086551628E+02  0.25441737833E+02  0.21217984204E+03  0.24835326234E+03  0.12508988398E+03 0.  0.
          5    1    3    3  502    0 -0.11385478214E+02  0.31346624345E+02  0.21434042861E+03  0.21695974674E+03  0.41800000000E+01 0. -1.
         -5    1    3    3    0  502  0.30472029842E+02 -0.59048865124E+01 -0.21605865694E+01  0.31393515600E+02  0.41800000000E+01 0. -1.
        -11    1    1    2    0    0 -0.41328650388E+02 -0.12385035362E+01  0.34391754461E+02  0.53780888881E+02  0.00000000000E+00 0. -1.
         11    1    1    2    0    0  0.22242098760E+02 -0.24203234297E+02 -0.20888739600E+02  0.38946719371E+02  0.00000000000E+00 0.  1.
</event>
<event>
 7    1  0.2380582E-009  0.3477785E+03  0.7561462E-02  0.1063531E+00
          2   -1    0    0  501    0  0.00000000000E+00  0.00000000000E+00  0.73039701199E+03  0.73039701199E+03  0.00000000000E+00 0. -1.
         -2   -1    0    0    0  501 -0.00000000000E+00 -0.00000000000E+00 -0.18590403721E+03  0.18590403721E+03  0.00000000000E+00 0.  1.
         25    2    1    2    0    0 -0.24306694813E+03 -0.23507338507E+03  0.39724326685E+03  0.53646411125E+03  0.12510192627E+03 0.  0.
          5    1    3    3  502    0 -0.14356135922E+02 -0.77856494839E+02  0.12250725291E+03  0.14592200602E+03  0.41800000000E+01 0. -1.
         -5    1    3    3    0  502 -0.22871081221E+03 -0.15721689023E+03  0.27473601394E+03  0.39054210522E+03  0.41800000000E+01 0. -1.
        -11    1    1    2    0    0  0.10084403445E+03  0.84242368960E+02  0.10515411800E+03  0.16829641869E+03  0.00000000000E+00 0.  1.
         11    1    1    2    0    0  0.14222291368E+03  0.15083101611E+03  0.42095589937E+02  0.21154051926E+03  0.00000000000E+00 0. -1.
</event>
<event>
 7    1  0.2380582E-009  0.3052391E+03  0.7561462E-02  0.1082651E+00
          1   -1    0    0  501    0  0.00000000000E+00  0.00000000000E+00  0.18152828284E+03  0.18152828284E+03  0.00000000000E+00 0. -1.
         -1   -1    0    0    0  501 -0.00000000000E+00 -0.00000000000E+00 -0.52635503633E+03  0.52635503633E+03  0.00000000000E+00 0.  1.
         25    2    1    2    0    0 -0.21943806759E+03 -0.18612802912E+03 -0.13709073494E+03  0.34239959026E+03  0.12508757360E+03 0.  0.
          5    1    3    3  502    0 -0.17246961680E+03 -0.68691278346E+02 -0.64902961777E+02  0.19670822883E+03  0.41800000000E+01 0.  1.
         -5    1    3    3    0  502 -0.46968450794E+02 -0.11743675077E+03 -0.72187773162E+02  0.14569136143E+03  0.41800000000E+01 0.  1.
        -11    1    1    2    0    0  0.22431101638E+03  0.17018386188E+03 -0.20567740327E+03  0.34868491956E+03  0.00000000000E+00 0.  1.
         11    1    1    2    0    0 -0.48729487895E+01  0.15944167237E+02 -0.20586152915E+01  0.16798809354E+02  0.00000000000E+00 0. -1.
</event>
<event>
 7    1  0.2380582E-009  0.8346960E+02  0.7561462E-02  0.1319484E+00
         -3   -1    0    0    0  501 -0.00000000000E+00  0.00000000000E+00  0.73081481779E+02  0.73081481779E+02  0.00000000000E+00 0.  1.
          3   -1    0    0  501    0  0.00000000000E+00 -0.00000000000E+00 -0.21313312249E+03  0.21313312249E+03  0.00000000000E+00 0. -1.
         25    2    1    2    0    0  0.51033965135E+02  0.33623439580E+02 -0.74840932965E+02  0.15806265773E+03  0.12509051616E+03 0.  0.
          5    1    3    3  502    0 -0.98767421252E+01 -0.19350898731E+00 -0.86620205461E+02  0.87281841610E+02  0.41800000000E+01 0. -1.
         -5    1    3    3    0  502  0.60910707260E+02  0.33816948568E+02  0.11779272496E+02  0.70780816115E+02  0.41800000000E+01 0. -1.
        -11    1    1    2    0    0 -0.33280353669E+02  0.13612522970E+02 -0.68729874991E+02  0.77567251068E+02  0.00000000000E+00 0. -1.
         11    1    1    2    0    0 -0.17753611466E+02 -0.47235962550E+02  0.35191672454E+01  0.50584695474E+02  0.00000000000E+00 0.  1.
</event>
<event>
 7    1  0.2380582E-009  0.1111788E+03  0.7561462E-02  0.1258402E+00
          3   -1    0    0  501    0  0.00000000000E+00  0.00000000000E+00  0.30344387983E+03  0.30344387983E+03  0.00000000000E+00 0. -1.
         -3   -1    0    0    0  501 -0.00000000000E+00 -0.00000000000E+00 -0.83973317253E+02  0.83973317253E+02  0.00000000000E+00 0.  1.
         25    2    1    2    0    0 -0.70521577455E+02  0.25693121605E+02  0.21648621438E+03  0.26104675395E+03  0.12508276199E+03 0.  0.
          5    1    3    3  502    0 -0.98152930495E+02  0.48677804689E+02  0.15978968003E+03  0.19378787547E+03  0.41800000000E+01 0.  1.
         -5    1    3    3    0  502  0.27631353040E+02 -0.22984683084E+02  0.56696534354E+02  0.67258878485E+02  0.41800000000E+01 0.  1.
        -11    1    1    2    0    0  0.19170941476E+02 -0.14345549095E+02  0.50249231819E+02  0.55662420665E+02  0.00000000000E+00 0. -1.
         11    1    1    2    0    0  0.51350635979E+02 -0.11347572510E+02 -0.47264883624E+02  0.70708022468E+02  0.00000000000E+00 0.  1.
</event>
<event>
 7    1  0.2380582E-009  0.1270165E+03  0.7561462E-02  0.1231951E+00
         -2   -1    0    0    0  501 -0.00000000000E+00  0.00000000000E+00  0.42340299719E+02  0.42340299719E+02  0.00000000000E+00 0.  1.
          2   -1    0    0  501    0  0.00000000000E+00 -0.00000000000E+00 -0.58843798984E+03  0.58843798984E+03  0.00000000000E+00 0. -1.
         25    2    1    2    0    0  0.90277872896E+02 -0.68678948394E+01 -0.44400281139E+03  0.47009106763E+03  0.12509937263E+03 0.  0.
          5    1    3    3  502    0 -0.20882291348E+02 -0.32554430258E+02 -0.87597769780E+02  0.95847288390E+02  0.41800000000E+01 0. -1.
         -5    1    3    3    0  502  0.11116016424E+03  0.25686535418E+02 -0.35640504161E+03  0.37424377924E+03  0.41800000000E+01 0. -1.
        -11    1    1    2    0    0 -0.47599202390E+02 -0.18783571255E+02 -0.48067996462E+01  0.51396614091E+02  0.00000000000E+00 0.  1.
         11    1    1    2    0    0 -0.42678670506E+02  0.25651466094E+02 -0.97288079085E+02  0.10929060784E+03  0.00000000000E+00 0. -1.
</event>
<event>
 7    1  0.2380582E-009  0.1327270E+03  0.7561462E-02  0.1223465E+00
         -1   -1    0    0    0  501 -0.00000000000E+00  0.00000000000E+00  0.10848803853E+03  0.10848803853E+03  0.00000000000E+00 0.  1.
          1   -1    0    0  501    0  0.00000000000E+00 -0.00000000000E+00 -0.17361857788E+03  0.17361857788E+03  0.00000000000E+00 0. -1.
         25    2    1    2    0    0  0.39068819772E+02 -0.66660440708E+02 -0.56936294844E+02  0.15765900087E+03  0.12507850275E+03 0.  0.
          5    1    3    3  502    0  0.65072385081E+02  0.45504433551E+01 -0.48237567113E+02  0.81237042757E+02  0.41800000000E+01 0.  1.
         -5    1    3    3    0  502 -0.26003565309E+02 -0.71210884063E+02 -0.86987277316E+01  0.76421958114E+02  0.41800000000E+01 0.  1.
        -11    1    1    2    0    0 -0.61333768246E+02  0.85413641259E+01 -0.50214265834E+01  0.62128904331E+02  0.00000000000E+00 0.  1.
         11    1    1    2    0    0  0.22264948474E+02  0.58119076582E+02 -0.31728179237E+01  0.62318711210E+02  0.00000000000E+00 0. -1.
</event>
<event>
 7    1  0.2380582E-009  0.1197762E+03  0.7561462E-02  0.1243467E+00
          1   -1    0    0  501    0  0.00000000000E+00  0.00000000000E+00  0.25358697986E+03  0.25358697986E+03  0.00000000000E+00 0. -1.
         -1   -1    0    0    0  501 -0.00000000000E+00 -0.00000000000E+00 -0.78515542177E+02  0.78515542177E+02  0.00000000000E+00 0.  1.
         25    2    1    2    0    0  0.18932704125E+02  0.62630812829E+02  0.17223422169E+03  0.22269678129E+03  0.12509261878E+03 0.  0.
          5    1    3    3  502    0  0.69824116070E+02  0.15425196070E+02  0.86888415585E+02  0.11260734000E+03  0.41800000000E+01 0.  1.
         -5    1    3    3    0  502 -0.50891411946E+02  0.47205616759E+02  0.85345806107E+02  0.11008944129E+03  0.41800000000E+01 0.  1.
        -11    1    1    2    0    0 -0.24994238389E+02  0.89482356409E+01  0.22640416410E+02  0.34890848785E+02  0.00000000000E+00 0. -1.
         11    1    1    2    0    0  0.60615342639E+01 -0.71579048470E+02 -0.19803200418E+02  0.74514891964E+02  0.00000000000E+00 0.  1.
</event>
<event>
 7    1  0.2380582E-009  0.9092178E+02  0.7561462E-02  0.1300635E+00
          2   -1    0    0  501    0  0.00000000000E+00  0.00000000000E+00  0.55472204611E+02  0.55472204611E+02  0.00000000000E+00 0. -1.
         -2   -1    0    0    0  501 -0.00000000000E+00 -0.00000000000E+00 -0.25891502943E+03  0.25891502943E+03  0.00000000000E+00 0.  1.
         25    2    1    2    0    0 -0.29016175626E+02 -0.39121415971E+02 -0.88324704873E+02  0.16068897949E+03  0.12508905230E+03 0.  0.
          5    1    3    3  502    0 -0.52072772616E+02 -0.18628825883E+02 -0.10970279881E+03  0.12292592594E+03  0.41800000000E+01 0.  1.
         -5    1    3    3    0  502  0.23056596990E+02 -0.20492590088E+02  0.21378093937E+02  0.37763053553E+02  0.41800000000E+01 0.  1.
        -11    1    1    2    0    0  0.15482518588E+02  0.64585251958E+02 -0.10269378241E+03  0.12229871666E+03  0.00000000000E+00 0.  1.
         11    1    1    2    0    0  0.13533657038E+02 -0.25463835987E+02 -0.12424337536E+02  0.31399537882E+02  0.00000000000E+00 0. -1.
</event>
<event>
 7    1  0.2380582E-009  0.1294124E+03  0.7561462E-02  0.1228330E+00
         -1   -1    0    0    0  501 -0.00000000000E+00  0.00000000000E+00  0.19071075140E+02  0.19071075140E+02  0.00000000000E+00 0.  1.
          1   -1    0    0  501    0  0.00000000000E+00 -0.00000000000E+00 -0.14642546305E+04  0.14642546305E+04  0.00000000000E+00 0. -1.
         25    2    1    2    0    0  0.76601374417E+02 -0.34910274855E+02 -0.11921520948E+04  0.12016490974E+04  0.12508972131E+03 0.  0.
          5    1    3    3  502    0 -0.32028816913E+02 -0.24028087631E+01 -0.41437723823E+03  0.41564117525E+03  0.41800000000E+01 0. -1.
         -5    1    3    3    0  502  0.10863019133E+03 -0.32507466092E+02 -0.77777485658E+03  0.78600792219E+03  0.41800000000E+01 0. -1.
        -11    1    1    2    0    0  0.14724086165E+02  0.11519772921E+02 -0.10154258094E+03  0.10324921126E+03  0.00000000000E+00 0. -1.
         11    1    1    2    0    0 -0.91325460583E+02  0.23390501934E+02 -0.15148887960E+03  0.17842739693E+03  0.00000000000E+00 0.  1.
</event>
<event>
 7    1  0.2797633E-009  0.9426244E+02  0.7561462E-02  0.1292846E+00
          2   -1    0    0  501    0  0.00000000000E+00  0.00000000000E+00  0.17618481223E+03  0.17618481223E+03  0.00000000000E+00 0. -1.
         -2   -1    0    0    0  501 -0.00000000000E+00 -0.00000000000E+00 -0.93834559755E+02  0.93834559755E+02  0.00000000000E+00 0.  1.
         25    2    1    2    0    0  0.18903135117E+02 -0.61285781053E+02  0.72305929200E+02  0.15806662099E+03  0.12507451298E+03 0.  0.
          5    1    3    3  502    0 -0.18840213561E+02 -0.32010295538E+02  0.97129474717E+02  0.10407314700E+03  0.41800000000E+01 0.  1.
         -5    1    3    3    0  502  0.37743348677E+02 -0.29275485515E+02 -0.24823545516E+02  0.53993473990E+02  0.41800000000E+01 0.  1.
        -11    1    1    2    0    0 -0.49938317602E+02  0.26333220391E+02 -0.15688261098E+02  0.58595184080E+02  0.00000000000E+00 0.  1.
         11    1    1    2    0    0  0.31035182485E+02  0.34952560662E+02  0.25732584371E+02  0.53357566915E+02  0.00000000000E+00 0. -1.
</event>
<event>
 7    1  0.2380582E-009  0.2211257E+03  0.7561462E-02  0.1133047E+00
          2   -1    0    0  501    0  0.00000000000E+00  0.00000000000E+00  0.14008273822E+04  0.14008273822E+04  0.00000000000E+00 0. -1.
         -2   -1    0    0    0  501 -0.00000000000E+00 -0.00000000000E+00 -0.45153355710E+02  0.45153355710E+02  0.00000000000E+00 0.  1.
         25    2    1    2    0    0 -0.16382414795E+03  0.13699035609E+03  0.91150349752E+03  0.94450481252E+03  0.12508399483E+03 0.  0.
          5    1    3    3  502    0 -0.10337740430E+03  0.85994047940E+02  0.77583451581E+03  0.78741255535E+03  0.41800000000E+01 0. -1.
         -5    1    3    3    0  502 -0.60446743658E+02  0.50996308153E+02  0.13566898171E+03  0.15709225717E+03  0.41800000000E+01 0. -1.
        -11    1    1    2    0    0  0.60668432386E+02 -0.48170810281E+01  0.79601204796E+02  0.10020087207E+03  0.00000000000E+00 0.  1.
         11    1    1    2    0    0  0.10315571557E+03 -0.13217327507E+03  0.36456932420E+03  0.40127505335E+03  0.00000000000E+00 0. -1.
</event>
<event>
 7    1  0.2380582E-009  0.1171985E+03  0.7561462E-02  0.1247792E+00
          2   -1    0    0  501    0  0.00000000000E+00  0.00000000000E+00  0.27658083075E+03  0.27658083075E+03  0.00000000000E+00 0.  1.
         -2   -1    0    0    0  501 -0.00000000000E+00 -0.00000000000E+00 -0.57148478373E+02  0.57148478373E+02  0.00000000000E+00 0. -1.
         25    2    1    2    0    0  0.23432837764E+02  0.56556092559E+02  0.13947494585E+03  0.19710119544E+03  0.12509169129E+03 0.  0.
          5    1    3    3  502    0  0.54358942459E+02  0.72230026942E+02  0.55512753970E+02  0.10616595344E+03  0.41800000000E+01 0.  1.
         -5    1    3    3    0  502 -0.30926104695E+02 -0.15673934383E+02  0.83962191884E+02  0.90935241995E+02  0.41800000000E+01 0.  1.
        -11    1    1    2    0    0 -0.24153988441E+02  0.20644630591E+02  0.12637017614E+02  0.34195177204E+02  0.00000000000E+00 0. -1.
         11    1    1    2    0    0  0.72115067682E+00 -0.77200723149E+02  0.67320388905E+02  0.10243293648E+03  0.00000000000E+00 0.  1.
</event>
<event>
 7    1  0.2380582E-009  0.1586102E+03  0.7561462E-02  0.1190275E+00
         -2   -1    0    0    0  501 -0.00000000000E+00  0.00000000000E+00  0.18571583650E+02  0.18571583650E+02  0.00000000000E+00 0.  1.
          2   -1    0    0  501    0  0.00000000000E+00 -0.00000000000E+00 -0.15072524965E+04  0.15072524965E+04  0.00000000000E+00 0. -1.
         25    2    1    2    0    0  0.49909604790E+02 -0.10986648858E+03 -0.96574994302E+03  0.98126553407E+03  0.12508989549E+03 0.  0.
          5    1    3    3  502    0 -0.89748376919E+01 -0.10833883327E+03 -0.49421098838E+03  0.50604330243E+03  0.41800000000E+01 0. -1.
         -5    1    3    3    0  502  0.58884442482E+02 -0.15276553063E+01 -0.47153895464E+03  0.47522223164E+03  0.41800000000E+01 0. -1.
        -11    1    1    2    0    0 -0.75269388484E+02  0.88807751748E+02 -0.36099307723E+03  0.37929974878E+03  0.00000000000E+00 0.  1.
         11    1    1    2    0    0  0.25359783694E+02  0.21058736830E+02 -0.16193789259E+03  0.16525879729E+03  0.00000000000E+00 0. -1.
</event>
<event>
 7    1  0.2380582E-009  0.1449670E+03  0.7561462E-02  0.1206798E+00
         -3   -1    0    0    0  501 -0.00000000000E+00  0.00000000000E+00  0.79710892455E+03  0.79710892455E+03  0.00000000000E+00 0.  1.
          3   -1    0    0  501    0  0.00000000000E+00 -0.00000000000E+00 -0.26675858132E+02  0.26675858132E+02  0.00000000000E+00 0. -1.
         25    2    1    2    0    0  0.55911525760E+02 -0.79598041519E+02  0.45520771099E+03  0.48199916288E+03  0.12508871229E+03 0.  0.
          5    1    3    3  502    0  0.92869354532E+02 -0.77610735351E+02  0.34033341950E+03  0.36123739020E+03  0.41800000000E+01 0.  1.
         -5    1    3    3    0  502 -0.36957828772E+02 -0.19873061680E+01  0.11487429149E+03  0.12076177267E+03  0.41800000000E+01 0.  1.
        -11    1    1    2    0    0  0.18153462161E+02  0.47525975029E+02  0.13682548101E+03  0.14597766523E+03  0.00000000000E+00 0.  1.
         11    1    1    2    0    0 -0.74064987921E+02  0.32072066490E+02  0.17839987441E+03  0.19580795457E+03  0.00000000000E+00 0. -1.
</event>
<event>
 7    1  0.2380582E-009  0.1521660E+03  0.7561462E-02  0.1197836E+00
          1   -1    0    0  501    0  0.00000000000E+00  0.00000000000E+00  0.96497991464E+02  0.96497991464E+02  0.00000000000E+00 0. -1.
         -1   -1    0    0    0  501 -0.00000000000E+00 -0.00000000000E+00 -0.29065597932E+03  0.29065597932E+03  0.00000000000E+00 0.  1.
         25    2    1    2    0    0  0.50804778650E+02 -0.11663514087E+03 -0.10398987598E+03  0.20651245795E+03  0.12509444177E+03 0.  0.
          5    1    3    3  502    0 -0.99730145460E+01 -0.94026059188E+02 -0.14244627315E+02  0.95711768519E+02  0.41800000000E+01 0.  1.
         -5    1    3    3    0  502  0.60777793196E+02 -0.22609081683E+02 -0.89745248666E+02  0.11080068943E+03  0.41800000000E+01 0.  1.
        -11    1    1    2    0    0 -0.31017724198E+02  0.12059954712E+03 -0.47198797859E+02  0.13316935270E+03  0.00000000000E+00 0. -1.
         11    1    1    2    0    0 -0.19787054453E+02 -0.39644062456E+01 -0.42969314017E+02  0.47472160135E+02  0.00000000000E+00 0.  1.
</event>
<event>
 7    1  0.2380582E-009  0.1043322E+03  0.7561462E-02  0.1271441E+00
         -2   -1    0    0    0  501 -0.00000000000E+00  0.00000000000E+00  0.12820733756E+02  0.12820733756E+02  0.00000000000E+00 0.  1.
          2   -1    0    0  501    0  0.00000000000E+00 -0.00000000000E+00 -0.99300119928E+03  0.99300119928E+03  0.00000000000E+00 0. -1.
         25    2    1    2    0    0  0.19475926307E+02 -0.12316082734E+01 -0.68055226264E+03  0.69222573330E+03  0.12507699665E+03 0.  0.
          5    1    3    3  502    0 -0.43880184079E+02 -0.22244781902E+02 -0.16139729065E+03  0.16878050452E+03  0.41800000000E+01 0. -1.
         -5    1    3    3    0  502  0.63356110386E+02  0.21013173628E+02 -0.51915497199E+03  0.52344522877E+03  0.41800000000E+01 0. -1.
        -11    1    1    2    0    0  0.28908136663E+02  0.25258533545E+02 -0.13305097549E+03  0.13847828696E+03  0.00000000000E+00 0.  1.
         11    1    1    2    0    0 -0.48384062970E+02 -0.24026925272E+02 -0.16657722740E+03  0.17511791278E+03  0.00000000000E+00 0. -1.
</event>
<event>
 7    1  0.2380582E-009  0.9196738E+02  0.7561462E-02  0.1298156E+00
         -1   -1    0    0    0  501 -0.00000000000E+00  0.00000000000E+00  0.23454480567E+02  0.23454480567E+02  0.00000000000E+00 0.  1.
          1   -1    0    0  501    0  0.00000000000E+00 -0.00000000000E+00 -0.53052439297E+03  0.53052439297E+03  0.00000000000E+00 0. -1.
         25    2    1    2    0    0  0.12500864349E+02 -0.21928631512E+02 -0.27857788415E+03  0.30641430412E+03  0.12508777616E+03 0.  0.
          5    1    3    3  502    0  0.46336841415E+02 -0.44294957242E+02 -0.24592423692E+03  0.25417582263E+03  0.41800000000E+01 0.  1.
         -5    1    3    3    0  502 -0.33835977066E+02  0.22366325730E+02 -0.32653647235E+02  0.52238481490E+02  0.41800000000E+01 0.  1.
        -11    1    1    2    0    0  0.26656723841E+00  0.48994365323E+02 -0.65222319144E+02  0.81574933687E+02  0.00000000000E+00 0.  1.
         11    1    1    2    0    0 -0.12767431587E+02 -0.27065733812E+02 -0.16326970910E+03  0.16598963572E+03  0.00000000000E+00 0. -1.
</event>
<event>
 7    1  0.2380582E-009  0.1127907E+03  0.7561462E-02  0.1255488E+00
         -3   -1    0    0    0  501 -0.00000000000E+00  0.00000000000E+00  0.21044990956E+03  0.21044990956E+03  0.00000000000E+00 0.  1.
          3   -1    0    0  501    0  0.00000000000E+00 -0.00000000000E+00 -0.65070428489E+02  0.65070428489E+02  0.00000000000E+00 0. -1.
         25    2    1    2    0    0 -0.53880644919E+01  0.24177291564E+02  0.47403561860E+02  0.13604369770E+03  0.12508883780E+03 0.  0.
          5    1    3    3  502    0  0.54546680613E+02  0.35444806295E+02  0.15126107671E+02  0.66917458054E+02  0.41800000000E+01 0. -1.
         -5    1    3    3    0  502 -0.59934745105E+02 -0.11267514731E+02  0.32277454188E+02  0.69126239648E+02  0.41800000000E+01 0. -1.
        -11    1    1    2    0    0  0.15131024312E+02 -0.60137275106E+02  0.61575281757E+02  0.87389673745E+02  0.00000000000E+00 0.  1.
         11    1    1    2    0    0 -0.97429598203E+01  0.35959983542E+02  0.36400637451E+02  0.52086966596E+02  0.00000000000E+00 0. -1.
</event>
<event>
 7    1  0.2380582E-009  0.1288775E+03  0.7561462E-02  0.1229131E+00
          2   -1    0    0  501    0  0.00000000000E+00  0.00000000000E+00  0.30000215924E+02  0.30000215924E+02  0.00000000000E+00 0. -1.
         -2   -1    0    0    0  501 -0.00000000000E+00 -0.00000000000E+00 -0.74266797046E+03  0.74266797046E+03  0.00000000000E+00 0.  1.
         25    2    1    2    0    0 -0.57698253619E+02 -0.67220047831E+02 -0.24940678768E+03  0.29274388189E+03  0.12509041267E+03 0.  0.
          5    1    3    3  502    0 -0.61255422356E+02  0.70239083436E+01 -0.18239459355E+03  0.19257939198E+03  0.41800000000E+01 0. -1.
         -5    1    3    3    0  502  0.35571687369E+01 -0.74243956175E+02 -0.67012194126E+02  0.10016448991E+03  0.41800000000E+01 0. -1.
        -11    1    1    2    0    0  0.16268255345E+02  0.77199686458E+02 -0.24007319498E+03  0.25270454422E+03  0.00000000000E+00 0.  1.
         11    1    1    2    0    0  0.41429998274E+02 -0.99796386266E+01 -0.22318777187E+03  0.22721976027E+03  0.00000000000E+00 0. -1.
</event>
<event>
 7    1  0.2380582E-009  0.1885798E+03  0.7561462E-02  0.1159748E+00
         -3   -1    0    0    0  501 -0.00000000000E+00  0.00000000000E+00  0.14507372850E+03  0.14507372850E+03  0.00000000000E+00 0.  1.
          3   -1    0    0  501    0  0.00000000000E+00 -0.00000000000E+00 -0.32534621802E+03  0.32534621802E+03  0.00000000000E+00 0. -1.
         25    2    1    2    0    0  0.81447781010E+02 -0.16010416696E+03 -0.33219419926E+02  0.22139895771E+03  0.12508750259E+03 0.  0.
          5    1    3    3  502    0  0.23792838572E+02 -0.11191749001E+03 -0.73484399726E+02  0.13604798102E+03  0.41800000000E+01 0. -1.
         -5    1    3    3    0  502  0.57654942438E+02 -0.48186676955E+02  0.40264979800E+02  0.85350976690E+02  0.41800000000E+01 0. -1.
        -11    1    1    2    0    0 -0.22440801903E+02  0.72863035415E+01 -0.57889309768E+02  0.62512814644E+02  0.00000000000E+00 0. -1.
         11    1    1    2    0    0 -0.59006979108E+02  0.15281786342E+03 -0.89163759831E+02  0.18650817417E+03  0.00000000000E+00 0.  1.
</event>
<event>
 7    1  0.2380582E-009  0.1141531E+03  0.7561462E-02  0.1253067E+00
          2   -1    0    0  501    0  0.00000000000E+00  0.00000000000E+00  0.29768681257E+03  0.29768681257E+03  0.00000000000E+00 0. -1.
         -2   -1    0    0    0  501 -0.00000000000E+00 -0.00000000000E+00 -0.51893298410E+02  0.51893298410E+02  0.00000000000E+00 0.  1.
         25    2    1    2    0    0 -0.51380115010E+02 -0.14478345328E+02  0.17952679059E+03  0.22522480452E+03  0.12508719092E+03 0.  0.
          5    1    3    3  502    0 -0.86633593827E+02 -0.97556632625E+01  0.16483139440E+03  0.18651384272E+03  0.41800000000E+01 0. -1.
         -5    1    3    3    0  502  0.35253478817E+02 -0.47226820651E+01  0.14695396181E+02  0.38710961801E+02  0.41800000000E+01 0. -1.
        -11    1    1    2    0    0  0.48872871008E+02 -0.32160726093E+02  0.35755888369E+02  0.68566415806E+02  0.00000000000E+00 0.  1.
         11    1    1    2    0    0  0.25072440017E+01  0.46639071420E+02  0.30510835208E+02  0.55788890655E+02  0.00000000000E+00 0. -1.
</event>
<event>
 7    1  0.2380582E-009  0.1024040E+03  0.7561462E-02  0.1275320E+00
         -1   -1    0    0    0  501 -0.00000000000E+00  0.00000000000E+00  0.47185414946E+02  0.47185414946E+02  0.00000000000E+00 0.  1.
          1   -1    0    0  501    0  0.00000000000E+00 -0.00000000000E+00 -0.28288542671E+03  0.28288542671E+03  0.00000000000E+00 0. -1.
         25    2    1    2    0    0 -0.21183171635E+02 -0.14364440306E+02 -0.15402132300E+03  0.20006273535E+03  0.12508983264E+03 0.  0.
          5    1    3    3  502    0  0.30232267655E+02 -0.47248357544E+02 -0.11353293872E+03  0.12670279347E+03  0.41800000000E+01 0. -1.
         -5    1    3    3    0  502 -0.51415439290E+02  0.32883917238E+02 -0.40488384278E+02  0.73359941874E+02  0.41800000000E+01 0. -1.
        -11    1    1    2    0    0  0.19252822518E+01 -0.34660019176E+02 -0.66790968840E+02  0.75273216748E+02  0.00000000000E+00 0.  1.
         11    1    1    2    0    0  0.19257889383E+02  0.49024459482E+02 -0.14887719923E+02  0.54734889563E+02  0.00000000000E+00 0. -1.
</event>
<event>
 7    1  0.2380582E-009  0.1297698E+03  0.7561462E-02  0.1227798E+00
          2   -1    0    0  501    0  0.00000000000E+00  0.00000000000E+00  0.85205993085E+03  0.85205993085E+03  0.00000000000E+00 0. -1.
         -2   -1    0    0    0  501 -0.00000000000E+00 -0.00000000000E+00 -0.30009776931E+02  0.30009776931E+02  0.00000000000E+00 0.  1.
         25    2    1    2    0    0  0.86320386654E+02  0.77263225095E+02  0.40939199211E+03  0.44347442873E+03  0.12508777172E+03 0.  0.
          5    1    3    3  502    0  0.63960786534E+02  0.18123961081E+02  0.64190901634E+02  0.92506239962E+02  0.41800000000E+01 0. -1.
         -5    1    3    3    0  502  0.22359600121E+02  0.59139264014E+02  0.34520109047E+03  0.35096818877E+03  0.41800000000E+01 0. -1.
        -11    1    1    2    0    0 -0.95014926875E+02 -0.67862041048E+02  0.40890883748E+03  0.42525231371E+03  0.00000000000E+00 0. -1.
         11    1    1    2    0    0  0.86945402209E+01 -0.94011840472E+01  0.37493243338E+01  0.13342965341E+02  0.00000000000E+00 0.  1.
</event>
<event>
 7    1  0.2380582E-009  0.2214349E+03  0.7561462E-02  0.1132818E+00
          2   -1    0    0  501    0  0.00000000000E+00  0.00000000000E+00  0.12381892005E+04  0.12381892005E+04  0.00000000000E+00 0. -1.
         -2   -1    0    0    0  501 -0.00000000000E+00 -0.00000000000E+00 -0.41231182591E+02  0.41231182591E+02  0.00000000000E+00 0.  1.
         25    2    1    2    0    0 -0.14182907073E+03  0.13673802673E+03  0.68211099408E+03  0.72092670859E+03  0.12508851925E+03 0.  0.
          5    1    3    3  502    0  0.16914194257E+01  0.76442332485E+02  0.19356974653E+03  0.20816582397E+03  0.41800000000E+01 0.  1.
         -5    1    3    3    0  502 -0.14352049016E+03  0.60295694246E+02  0.48854124755E+03  0.51276088462E+03  0.41800000000E+01 0.  1.
        -11    1    1    2    0    0  0.99257903581E+02 -0.44097234893E+02  0.20052879882E+03  0.22805371452E+03  0.00000000000E+00 0. -1.
         11    1    1    2    0    0  0.42571167149E+02 -0.92640791837E+02  0.31431822501E+03  0.33043995999E+03  0.00000000000E+00 0.  1.
</event>
<event>
 7    1  0.3327778E-009  0.1775372E+03  0.7561462E-02  0.1170208E+00
          1   -1    0    0  501    0  0.00000000000E+00  0.00000000000E+00  0.58422877847E+03  0.58422877847E+03  0.00000000000E+00 0. -1.
         -1   -1    0    0    0  501 -0.00000000000E+00 -0.00000000000E+00 -0.59410446372E+02  0.59410446372E+02  0.00000000000E+00 0.  1.
         25    2    1    2    0    0 -0.45912371999E+02  0.13439007554E+03  0.18879192864E+03  0.26731774909E+03  0.12509096031E+03 0.  0.
          5    1    3    3  502    0  0.28156605405E+02 -0.41381372976E+01  0.49878055693E+02  0.57577872902E+02  0.41800000000E+01 0. -1.
         -5    1    3    3    0  502 -0.74068977404E+02  0.13852821284E+03  0.13891387295E+03  0.20973987619E+03  0.41800000000E+01 0. -1.
        -11    1    1    2    0    0  0.66403962368E+02 -0.52209744903E+02  0.17811588531E+03  0.19713095212E+03  0.00000000000E+00 0. -1.
         11    1    1    2    0    0 -0.20491590370E+02 -0.82180330641E+02  0.15791051814E+03  0.17919052363E+03  0.00000000000E+00 0.  1.
</event>
<event>
 7    1  0.3229608E-009  0.8517382E+02  0.7561462E-02  0.1314979E+00
         -1   -1    0    0    0  501 -0.00000000000E+00  0.00000000000E+00  0.64168958805E+02  0.64168958805E+02  0.00000000000E+00 0.  1.
          1   -1    0    0  501    0  0.00000000000E+00 -0.00000000000E+00 -0.23531312742E+03  0.23531312742E+03  0.00000000000E+00 0. -1.
         25    2    1    2    0    0  0.44679241158E+02  0.21942149527E+02 -0.61139901196E+02  0.14786196927E+03  0.12508949565E+03 0.  0.
          5    1    3    3  502    0  0.12824932737E+02  0.59816499858E+02 -0.74443472135E+02  0.96445816387E+02  0.41800000000E+01 0.  1.
         -5    1    3    3    0  502  0.31854308421E+02 -0.37874350331E+02  0.13303570938E+02  0.51416152887E+02  0.41800000000E+01 0.  1.
        -11    1    1    2    0    0 -0.47222274076E+02 -0.11480828695E+02 -0.12445094324E+03  0.13360310576E+03  0.00000000000E+00 0. -1.
         11    1    1    2    0    0  0.25430329178E+01 -0.10461320832E+02  0.14446675819E+02  0.18017011189E+02  0.00000000000E+00 0.  1.
</event>
<event>
 7    1  0.2380582E-009  0.1027965E+03  0.7561462E-02  0.1274523E+00
         -2   -1    0    0    0  501 -0.00000000000E+00  0.00000000000E+00  0.36842618815E+03  0.36842618815E+03  0.00000000000E+00 0.  1.
          2   -1    0    0  501    0  0.00000000000E+00 -0.00000000000E+00 -0.31734879354E+02  0.31734879354E+02  0.00000000000E+00 0. -1.
         25    2    1    2    0    0 -0.64416466425E+01  0.21782698703E+01  0.20373120759E+03  0.23916075398E+03  0.12508086036E+03 0.  0.
          5    1    3    3  502    0  0.38991916666E+02 -0.43020177826E+02  0.71836910318E+02  0.92461447910E+02  0.41800000000E+01 0. -1.
         -5    1    3    3    0  502 -0.45433563309E+02  0.45198447696E+02  0.13189429728E+03  0.14669930608E+03  0.41800000000E+01 0. -1.
        -11    1    1    2    0    0  0.10435720961E+02  0.39721228192E+02  0.98097624587E+02  0.10634765719E+03  0.00000000000E+00 0.  1.
         11    1    1    2    0    0 -0.39940743189E+01 -0.41899498062E+02  0.34862476611E+02  0.54652656322E+02  0.00000000000E+00 0. -1.
</event>
<event>
 7    1  0.2380582E-009  0.1030586E+03  0.7561462E-02  0.1273993E+00
          4   -1    0    0  501    0  0.00000000000E+00  0.00000000000E+00  0.31399211175E+02  0.31399211175E+02  0.00000000000E+00 0. -1.
         -4   -1    0    0    0  501 -0.00000000000E+00 -0.00000000000E+00 -0.43479753344E+03  0.43479753344E+03  0.00000000000E+00 0.  1.
         25    2    1    2    0    0 -0.16967796746E+02 -0.32147287374E+02 -0.18050546310E+03  0.22260051613E+03  0.12508962131E+03 0.  0.
          5    1    3    3  502    0 -0.41518686650E+02  0.23029412047E+02 -0.21168151258E+02  0.52150917423E+02  0.41800000000E+01 0.  1.
         -5    1    3    3    0  502  0.24550889904E+02 -0.55176699422E+02 -0.15933731184E+03  0.17044959871E+03  0.41800000000E+01 0.  1.
        -11    1    1    2    0    0  0.54565858774E+02  0.23058432636E+02 -0.12454963656E+03  0.13791931057E+03  0.00000000000E+00 0.  1.
         11    1    1    2    0    0 -0.37598062028E+02  0.90888547380E+01 -0.98343222600E+02  0.10567691792E+03  0.00000000000E+00 0. -1.
</event>
<event>
 7    1  0.2380582E-009  0.1096145E+03  0.7561462E-02  0.1261285E+00
         -2   -1    0    0    0  501 -0.00000000000E+00  0.00000000000E+00  0.13083937976E+02  0.13083937976E+02  0.00000000000E+00 0.  1.
          2   -1    0    0  501    0  0.00000000000E+00 -0.00000000000E+00 -0.11310303322E+04  0.11310303322E+04  0.00000000000E+00 0. -1.
         25    2    1    2    0    0 -0.11400748432E+02  0.51800563935E+02 -0.57276165078E+03  0.58865423123E+03  0.12507845482E+03 0.  0.
          5    1    3    3  502    0 -0.23355444451E+02  0.80231282671E+02 -0.23477282193E+03  0.24923540242E+03  0.41800000000E+01 0.  1.
         -5    1    3    3    0  502  0.11954696019E+02 -0.28430718736E+02 -0.33798882885E+03  0.33941882881E+03  0.41800000000E+01 0.  1.
        -11    1    1    2    0    0  0.41802790206E+02  0.28517357922E+01 -0.16927683353E+03  0.17438535499E+03  0.00000000000E+00 0.  1.
         11    1    1    2    0    0 -0.30402041774E+02 -0.54652299727E+02 -0.37590790993E+03  0.38107468396E+03  0.00000000000E+00 0. -1.
</event>
<event>
 7    1  0.2380582E-009  0.8750269E+02  0.7561462E-02  0.1309015E+00
         -2   -1    0    0    0  501 -0.00000000000E+00  0.00000000000E+00  0.10887111955E+03  0.10887111955E+03  0.00000000000E+00 0.  1.
          2   -1    0    0  501    0  0.00000000000E+00 -0.00000000000E+00 -0.14868616824E+03  0.14868616824E+03  0.00000000000E+00 0. -1.
         25    2    1    2    0    0 -0.65278958783E+02 -0.14179640562E+02 -0.17599537464E+02  0.14289760668E+03  0.12509027783E+03 0.  0.
          5    1    3    3  502    0 -0.13192912631E+02  0.85236592936E+01 -0.66104777776E+02  0.68073634810E+02  0.41800000000E+01 0. -1.
         -5    1    3    3    0  502 -0.52086046151E+02 -0.22703299856E+02  0.48505240312E+02  0.74823971865E+02  0.41800000000E+01 0. -1.
        -11    1    1    2    0    0  0.16293112301E+02  0.42276618641E+02 -0.34401700376E+02  0.56888091732E+02  0.00000000000E+00 0. -1.
         11    1    1    2    0    0  0.48985846482E+02 -0.28096978079E+02  0.12186189150E+02  0.57771589374E+02  0.00000000000E+00 0.  1.
</event>
<event>
 7    1  0.2380582E-009  0.6240369E+02  0.7561462E-02  0.1388013E+00
          1   -1    0    0  501    0  0.00000000000E+00  0.00000000000E+00  0.94535883925E+02  0.94535883925E+02  0.00000000000E+00 0. -1.
         -1   -1    0    0    0  501 -0.00000000000E+00 -0.00000000000E+00 -0.13944306300E+03  0.13944306300E+03  0.00000000000E+00 0.  1.
         25    2    1    2    0    0 -0.22896602616E+02 -0.16651369131E+01 -0.61177095379E+02  0.14113647534E+03  0.12509932286E+03 0.  0.
          5    1    3    3  502    0 -0.39329555844E+02  0.34187715938E+02 -0.81303986276E+02  0.96661390784E+02  0.41800000000E+01 0.  1.
         -5    1    3    3    0  502  0.16432953228E+02 -0.35852852851E+02  0.20126890897E+02  0.44475084559E+02  0.41800000000E+01 0.  1.
        -11    1    1    2    0    0  0.48223016605E+01  0.11371989315E+02 -0.35269423458E+02  0.37369893836E+02  0.00000000000E+00 0.  1.
         11    1    1    2    0    0  0.18074300956E+02 -0.97068524020E+01  0.51539339762E+02  0.55472577746E+02  0.00000000000E+00 0. -1.
</event>
<event>
 7    1  0.2380582E-009  0.1210105E+03  0.7561462E-02  0.1241439E+00
          3   -1    0    0  501    0  0.00000000000E+00  0.00000000000E+00  0.45289291349E+03  0.45289291349E+03  0.00000000000E+00 0. -1.
         -3   -1    0    0    0  501 -0.00000000000E+00 -0.00000000000E+00 -0.33913266750E+02  0.33913266750E+02  0.00000000000E+00 0.  1.
         25    2    1    2    0    0 -0.69833227555E+01  0.52949664307E+02  0.19501207545E+03  0.23775401452E+03  0.12507928726E+03 0.  0.
          5    1    3    3  502    0 -0.12327304186E+02 -0.39556880977E+02  0.78175526137E+02  0.88575360840E+02  0.41800000000E+01 0. -1.
         -5    1    3    3    0  502  0.53439814303E+01  0.92506545284E+02  0.11683654932E+03  0.14917865368E+03  0.41800000000E+01 0. -1.
        -11    1    1    2    0    0  0.12072973026E+02 -0.79589881436E+02  0.14943890869E+03  0.16974184321E+03  0.00000000000E+00 0.  1.
         11    1    1    2    0    0 -0.50896502706E+01  0.26640217129E+02  0.74528662590E+02  0.79310322506E+02  0.00000000000E+00 0. -1.
</event>
<event>
 7    1  0.2380582E-009  0.1146535E+03  0.7561462E-02  0.1252187E+00
          1   -1    0    0  501    0  0.00000000000E+00  0.00000000000E+00  0.37845671244E+03  0.37845671244E+03  0.00000000000E+00 0. -1.
         -1   -1    0    0    0  501 -0.00000000000E+00 -0.00000000000E+00 -0.38011160609E+02  0.38011160609E+02  0.00000000000E+00 0.  1.
         25    2    1    2    0    0 -0.90921093477E+00  0.49567004215E+02  0.17605021275E+03  0.22158238645E+03  0.12508941604E+03 0.  0.
          5    1    3    3  502    0  0.11279743733E+02  0.88571692858E+02  0.14397394299E+03  0.16946429138E+03  0.41800000000E+01 0. -1.
         -5    1    3    3    0  502 -0.12188954668E+02 -0.39004688643E+02  0.32076269764E+02  0.52118095073E+02  0.41800000000E+01 0. -1.
        -11    1    1    2    0    0 -0.21317764882E+00 -0.74192608785E+02  0.90718149558E+02  0.11719373406E+03  0.00000000000E+00 0.  1.
         11    1    1    2    0    0  0.11223885836E+01  0.24625604570E+02  0.73677189525E+02  0.77691752541E+02  0.00000000000E+00 0. -1.
</event>
<event>
 7    1  0.2380582E-009  0.2929645E+03  0.7561462E-02  0.1088811E+00
         -1   -1    0    0    0  501 -0.00000000000E+00  0.00000000000E+00  0.11561915123E+04  0.11561915123E+04  0.00000000000E+00 0.  1.
          1   -1    0    0  501    0  0.00000000000E+00 -0.00000000000E+00 -0.86798950334E+02  0.86798950334E+02  0.00000000000E+00 0. -1.
         25    2    1    2    0    0  0.18530145360E+03 -0.22218625831E+03  0.40956723423E+03  0.51681384725E+03  0.12509145160E+03 0.  0.
          5    1    3    3  502    0  0.11025219823E+03 -0.14493768963E+03  0.34773274199E+03  0.39255319810E+03  0.41800000000E+01 0.  1.
         -5    1    3    3    0  502  0.75049255375E+02 -0.77248568681E+02  0.61834492244E+02  0.12426064915E+03  0.41800000000E+01 0.  1.
        -11    1    1    2    0    0 -0.17022433463E+03  0.16580233417E+03  0.58396905724E+03  0.63046538203E+03  0.00000000000E+00 0.  1.
         11    1    1    2    0    0 -0.15077118968E+02  0.56383924138E+02  0.75856270475E+02  0.95711233343E+02  0.00000000000E+00 0. -1.
</event>
<event>
 7    1  0.2380582E-009  0.1045257E+03  0.7561462E-02  0.1271057E+00
         -2   -1    0    0    0  501 -0.00000000000E+00  0.00000000000E+00  0.22392744269E+03  0.22392744269E+03  0.00000000000E+00 0.  1.
          2   -1    0    0  501    0  0.00000000000E+00 -0.00000000000E+00 -0.80166008229E+02  0.80166008229E+02  0.00000000000E+00 0. -1.
         25    2    1    2    0    0 -0.61331886718E+02 -0.47641115117E+02  0.75073393359E+02  0.16526547704E+03  0.12508152275E+03 0.  0.
          5    1    3    3  502    0 -0.49259825991E+02 -0.65067341954E+02 -0.54445025303E+01  0.81898745127E+02  0.41800000000E+01 0. -1.
         -5    1    3    3    0  502 -0.12072060727E+02  0.17426226837E+02  0.80517895889E+02  0.83366731916E+02  0.41800000000E+01 0. -1.
        -11    1    1    2    0    0  0.70178396041E+02  0.14809712630E+02  0.75513698736E+02  0.10414726860E+03  0.00000000000E+00 0.  1.
         11    1    1    2    0    0 -0.88465093233E+01  0.32831402488E+02 -0.68256576342E+01  0.34680705279E+02  0.00000000000E+00 0. -1.
</event>
<event>
 7    1  0.2380582E-009  0.1238637E+03  0.7561462E-02  0.1236856E+00
         -3   -1    0    0    0  501 -0.00000000000E+00  0.00000000000E+00  0.43797359550E+02  0.43797359550E+02  0.00000000000E+00 0.  1.
          3   -1    0    0  501    0  0.00000000000E+00 -0.00000000000E+00 -0.58554151345E+03  0.58554151345E+03  0.00000000000E+00 0. -1.
         25    2    1    2    0    0 -0.80785147332E+02  0.73817123245E+02 -0.37203523062E+03  0.40747438857E+03  0.12509978739E+03 0.  0.
          5    1    3    3  502    0 -0.21202351107E+01 -0.43223831118E+01 -0.21554633936E+03  0.21564061585E+03  0.41800000000E+01 0. -1.
         -5    1    3    3    0  502 -0.78664912222E+02  0.78139506357E+02 -0.15648889126E+03  0.19183377272E+03  0.41800000000E+01 0. -1.
        -11    1    1    2    0    0  0.12578892854E+02 -0.59353618260E+02 -0.34646882819E+02  0.69867639398E+02  0.00000000000E+00 0.  1.
         11    1    1    2    0    0  0.68206254478E+02 -0.14463504985E+02 -0.13506204047E+03  0.15199684504E+03  0.00000000000E+00 0. -1.
</event>
<event>
 7    1  0.2380582E-009  0.3377265E+03  0.7561462E-02  0.1067768E+00
         -2   -1    0    0    0  501 -0.00000000000E+00  0.00000000000E+00  0.61509421417E+02  0.61509421417E+02  0.00000000000E+00 0.  1.
          2   -1    0    0  501    0  0.00000000000E+00 -0.00000000000E+00 -0.21603909309E+04  0.21603909309E+04  0.00000000000E+00 0. -1.
         25    2    1    2    0    0  0.30637491080E+03 -0.13195968587E+03 -0.76610663009E+03  0.84489462456E+03  0.12509441748E+03 0.  0.
          5    1    3    3  502    0  0.16647256328E+03 -0.37392138231E+02 -0.25710529711E+03  0.30859665023E+03  0.41800000000E+01 0.  1.
         -5    1    3    3    0  502  0.13990234752E+03 -0.94567547635E+02 -0.50900133297E+03  0.53629797433E+03  0.41800000000E+01 0.  1.
        -11    1    1    2    0    0 -0.14003298585E+03  0.81565306459E+02 -0.47754076214E+03  0.50428892101E+03  0.00000000000E+00 0.  1.
         11    1    1    2    0    0 -0.16634192495E+03  0.50394379407E+02 -0.85523411727E+03  0.87271680677E+03  0.00000000000E+00 0. -1.
</event>
<event>
 7    1  0.2380582E-009  0.1623144E+03  0.7561462E-02  0.1186108E+00
          1   -1    0    0  501    0  0.00000000000E+00  0.00000000000E+00  0.21057153157E+03  0.21057153157E+03  0.00000000000E+00 0. -1.
         -1   -1    0    0    0  501 -0.00000000000E+00 -0.00000000000E+00 -0.14473695574E+03  0.14473695574E+03  0.00000000000E+00 0.  1.
         25    2    1    2    0    0  0.12874163143E+03  0.46248881628E+02  0.44532641725E+02  0.19063812656E+03  0.12508546040E+03 0.  0.
          5    1    3    3  502    0  0.96523834370E+02  0.89021116495E+02  0.36323866560E+02  0.13630299140E+03  0.41800000000E+01 0.  1.
         -5    1    3    3    0  502  0.32217797064E+02 -0.42772234867E+02  0.82087751644E+01  0.54335135160E+02  0.41800000000E+01 0.  1.
        -11    1    1    2    0    0 -0.34479631577E+02 -0.25864728287E+02 -0.32733615309E+02  0.54123181117E+02  0.00000000000E+00 0.  1.
         11    1    1    2    0    0 -0.94261999856E+02 -0.20384153341E+02  0.54035549415E+02  0.11054717963E+03  0.00000000000E+00 0. -1.
</event>
<event>
 7    1  0.2380582E-009  0.1835227E+03  0.7561462E-02  0.1164437E+00
         -2   -1    0    0    0  501 -0.00000000000E+00  0.00000000000E+00  0.45938097049E+02  0.45938097049E+02  0.00000000000E+00 0.  1.
          2   -1    0    0  501    0  0.00000000000E+00 -0.00000000000E+00 -0.91430530127E+03  0.91430530127E+03  0.00000000000E+00 0. -1.
         25    2    1    2    0    0  0.78289013498E+01  0.16439573694E+03 -0.57866123928E+03  0.61447790503E+03  0.12508803259E+03 0.  0.
          5    1    3    3  502    0 -0.32088849779E+01 -0.14153536364E+02 -0.13870211666E+03  0.13952193054E+03  0.41800000000E+01 0. -1.
         -5    1    3    3    0  502  0.11037786328E+02  0.17854927331E+03 -0.43995912262E+03  0.47495597449E+03  0.41800000000E+01 0. -1.
        -11    1    1    2    0    0  0.23024786867E+02 -0.68340180699E+02 -0.56302320957E+02  0.91490286115E+02  0.00000000000E+00 0.  1.
         11    1    1    2    0    0 -0.30853688217E+02 -0.96055556244E+02 -0.23340364398E+03  0.25427520718E+03  0.00000000000E+00 0. -1.
</event>
<event>
 7    1  0.2380582E-009  0.1013017E+03  0.7561462E-02  0.1277582E+00
          1   -1    0    0  501    0  0.00000000000E+00  0.00000000000E+00  0.11552637690E+03  0.11552637690E+03  0.00000000000E+00 0. -1.
         -1   -1    0    0    0  501 -0.00000000000E+00 -0.00000000000E+00 -0.12623098791E+03  0.12623098791E+03  0.00000000000E+00 0.  1.
         25    2    1    2    0    0  0.30916203705E+02 -0.27471850225E+02 -0.27442161414E+02  0.13457514192E+03  0.12508749895E+03 0.  0.
          5    1    3    3  502    0  0.30412470108E+02  0.47554879414E+02 -0.11717659738E+02  0.57802775400E+02  0.41800000000E+01 0. -1.
         -5    1    3    3    0  502  0.50373359702E+00 -0.75026729640E+02 -0.15724501676E+02  0.76772366519E+02  0.41800000000E+01 0. -1.
        -11    1    1    2    0    0 -0.39674564184E+02 -0.23800396985E+01 -0.30859830715E+02  0.50319626230E+02  0.00000000000E+00 0.  1.
         11    1    1    2    0    0  0.87583604785E+01  0.29851889924E+02  0.47597381112E+02  0.56862596661E+02  0.00000000000E+00 0. -1.
</event>
<event>
 7    1  0.2380582E-009  0.9036594E+02  0.7561462E-02  0.1301968E+00
         -2   -1    0    0    0  501 -0.00000000000E+00  0.00000000000E+00  0.26335229243E+02  0.26335229243E+02  0.00000000000E+00 0.  1.
          2   -1    0    0  501    0  0.00000000000E+00 -0.00000000000E+00 -0.52969972066E+03  0.52969972066E+03  0.00000000000E+00 0. -1.
         25    2    1    2    0    0  0.18707912211E+02  0.42852063261E+02 -0.25128310447E+03  0.28456414463E+03  0.12508904234E+03 0.  0.
          5    1    3    3  502    0  0.26994492009E+02 -0.81872660933E+01 -0.22427053170E+03  0.22607626526E+03  0.41800000000E+01 0. -1.
         -5    1    3    3    0  502 -0.82865797976E+01  0.51039329354E+02 -0.27012572770E+02  0.58487879371E+02  0.41800000000E+01 0. -1.
        -11    1    1    2    0    0 -0.51149975112E+02 -0.44580268508E+02 -0.15856877148E+03  0.17247543472E+03  0.00000000000E+00 0.  1.
         11    1    1    2    0    0  0.32442062900E+02  0.17282052471E+01 -0.93512615471E+02  0.98995370553E+02  0.00000000000E+00 0. -1.
</event>
<event>
 7    1  0.2380582E-009  0.3163197E+03  0.7561462E-02  0.1077356E+00
          1   -1    0    0  501    0  0.00000000000E+00  0.00000000000E+00  0.11846224046E+04  0.11846224046E+04  0.00000000000E+00 0. -1.
         -1   -1    0    0    0  501 -0.00000000000E+00 -0.00000000000E+00 -0.96256461451E+02  0.96256461451E+02  0.00000000000E+00 0.  1.
         25    2    1    2    0    0 -0.29218111704E+03 -0.56746360522E+02  0.77053013640E+03  0.83543635649E+03  0.12508900855E+03 0.  0.
          5    1    3    3  502    0 -0.30452902240E+03 -0.54447199753E+02  0.73206748868E+03  0.79475952553E+03  0.41800000000E+01 0. -1.
         -5    1    3    3    0  502  0.12347905362E+02 -0.22991607688E+01  0.38462647724E+02  0.40676830961E+02  0.41800000000E+01 0. -1.
        -11    1    1    2    0    0  0.42700857490E+02  0.42318765857E+02  0.42577187781E+02  0.73668569237E+02  0.00000000000E+00 0. -1.
         11    1    1    2    0    0  0.24948025955E+03  0.14427594665E+02  0.27525861900E+03  0.37177394036E+03  0.00000000000E+00 0.  1.
</event>
<event>
 7    1  0.2380582E-009  0.1086037E+03  0.7561462E-02  0.1263178E+00
         -1   -1    0    0    0  501 -0.00000000000E+00  0.00000000000E+00  0.29565228592E+02  0.29565228592E+02  0.00000000000E+00 0.  1.
          1   -1    0    0  501    0  0.00000000000E+00 -0.00000000000E+00 -0.55063494776E+03  0.55063494776E+03  0.00000000000E+00 0. -1.
         25    2    1    2    0    0 -0.60362594503E+02  0.28710509195E+02 -0.28410137116E+03  0.31753903004E+03  0.12509800300E+03 0.  0.
          5    1    3    3  502    0 -0.21624654072E+02 -0.28438886252E+02 -0.13797408847E+02  0.38525794033E+02  0.41800000000E+01 0. -1.
         -5    1    3    3    0  502 -0.38737940431E+02  0.57149395446E+02 -0.27030396231E+03  0.27901323601E+03  0.41800000000E+01 0. -1.
        -11    1    1    2    0    0 -0.23022434849E+02 -0.15224229144E+02 -0.42965104601E+02  0.51066719816E+02  0.00000000000E+00 0.  1.
         11    1    1    2    0    0  0.83385029352E+02 -0.13486280051E+02 -0.19400324341E+03  0.21159442649E+03  0.00000000000E+00 0. -1.
</event>
<event>
 7    1  0.2380582E-009  0.2913312E+03  0.7561462E-02  0.1089656E+00
          1   -1    0    0  501    0  0.00000000000E+00  0.00000000000E+00  0.48832120006E+03  0.48832120006E+03  0.00000000000E+00 0. -1.
         -1   -1    0    0    0  501 -0.00000000000E+00 -0.00000000000E+00 -0.23873041657E+03  0.23873041657E+03  0.00000000000E+00 0.  1.
         25    2    1    2    0    0 -0.22508876952E+03  0.16520726956E+03 -0.44729958753E+02  0.30920269980E+03  0.12508854573E+03 0.  0.
          5    1    3    3  502    0 -0.18760955059E+03  0.10315077664E+03  0.15725800849E+02  0.21471422731E+03  0.41800000000E+01 0.  1.
         -5    1    3    3    0  502 -0.37479218928E+02  0.62056492921E+02 -0.60455759602E+02  0.94488472494E+02  0.41800000000E+01 0.  1.
        -11    1    1    2    0    0  0.16335809553E+03 -0.60194648104E+02  0.15897757820E+03  0.23576075459E+03  0.00000000000E+00 0.  1.
         11    1    1    2    0    0  0.61730673993E+02 -0.10501262146E+03  0.13534316404E+03  0.18208816225E+03  0.00000000000E+00 0. -1.
</event>
<event>
 7    1  0.2380582E-009  0.1111079E+03  0.7561462E-02  0.1258532E+00
          1   -1    0    0  501    0  0.00000000000E+00  0.00000000000E+00  0.97452640929E+02  0.97452640929E+02  0.00000000000E+00 0. -1.
         -1   -1    0    0    0  501 -0.00000000000E+00 -0.00000000000E+00 -0.19107335528E+03  0.19107335528E+03  0.00000000000E+00 0.  1.
         25    2    1    2    0    0 -0.99214122491E+00  0.73447663065E+02 -0.11598873391E+02  0.14552455252E+03  0.12508924002E+03 0.  0.
          5    1    3    3  502    0  0.54045147227E+02  0.70785347402E+02 -0.13812395070E+02  0.90220274901E+02  0.41800000000E+01 0.  1.
         -5    1    3    3    0  502 -0.55037288452E+02  0.26623156634E+01  0.22135216790E+01  0.55304277620E+02  0.41800000000E+01 0.  1.
        -11    1    1    2    0    0 -0.10595463413E+02 -0.55021248677E+02  0.21373343601E+01  0.56072897634E+02  0.00000000000E+00 0. -1.
         11    1    1    2    0    0  0.11587604638E+02 -0.18426414388E+02 -0.84159175325E+02  0.86928546059E+02  0.00000000000E+00 0.  1.
</event>
<event>
 7    1  0.2380582E-009  0.8194204E+02  0.7561462E-02  0.1323629E+00
          1   -1    0    0  501    0  0.00000000000E+00  0.00000000000E+00  0.23681465049E+03  0.23681465049E+03  0.00000000000E+00 0. -1.
         -1   -1    0    0    0  501 -0.00000000000E+00 -0.00000000000E+00 -0.51701453166E+02  0.51701453166E+02  0.00000000000E+00 0.  1.
         25    2    1    2    0    0 -0.25478469630E+02 -0.81993324578E+01  0.10938521575E+03  0.16831120088E+03  0.12508858241E+03 0.  0.
          5    1    3    3  502    0  0.30025364023E+01  0.35101944461E+02 -0.11027447864E+02  0.37151564385E+02  0.41800000000E+01 0.  1.
         -5    1    3    3    0  502 -0.28481006032E+02 -0.43301276919E+02  0.12041266361E+03  0.13115963649E+03  0.41800000000E+01 0.  1.
        -11    1    1    2    0    0 -0.15835483285E+02 -0.20648364186E+02 -0.35561992766E+01  0.26263359033E+02  0.00000000000E+00 0.  1.
         11    1    1    2    0    0  0.41313952915E+02  0.28847696643E+02  0.79284180851E+02  0.93941543740E+02  0.00000000000E+00 0. -1.
</event>
<event>
 7    1  0.2380582E-009  0.9578159E+02  0.7561462E-02  0.1289425E+00
         -1   -1    0    0    0  501 -0.00000000000E+00  0.00000000000E+00  0.90612474731E+02  0.90612474731E+02  0.00000000000E+00 0.  1.
          1   -1    0    0  501    0  0.00000000000E+00 -0.00000000000E+00 -0.12916222969E+03  0.12916222969E+03  0.00000000000E+00 0. -1.
         25    2    1    2    0    0 -0.23393868035E+01 -0.32996560718E+02 -0.22573549903E+02  0.13134229228E+03  0.12508791643E+03 0.  0.
          5    1    3    3  502    0  0.49846088770E+02 -0.87987000141E+01 -0.46539033832E+02  0.68886891043E+02  0.41800000000E+01 0. -1.
         -5    1    3    3    0  502 -0.52185475574E+02 -0.24197860704E+02  0.23965483928E+02  0.62455401235E+02  0.41800000000E+01 0. -1.
        -11    1    1    2    0    0  0.10857100166E+02 -0.23541112256E+02  0.69372104581E+01  0.26836271708E+02  0.00000000000E+00 0.  1.
         11    1    1    2    0    0 -0.85177133624E+01  0.56537672974E+02 -0.22913415517E+02  0.61596140438E+02  0.00000000000E+00 0. -1.
</event>
<event>
 7    1  0.2380582E-009  0.1785159E+03  0.7561462E-02  0.1169247E+00
         -2   -1    0    0    0  501 -0.00000000000E+00  0.00000000000E+00  0.18597072967E+03  0.18597072967E+03  0.00000000000E+00 0.  1.
          2   -1    0    0  501    0  0.00000000000E+00 -0.00000000000E+00 -0.20484794839E+03  0.20484794839E+03  0.00000000000E+00 0. -1.
         25    2    1    2    0    0 -0.44627693244E+02  0.15009993342E+03 -0.52084763331E+02  0.20707644190E+03  0.12508480803E+03 0.  0.
          5    1    3    3  502    0 -0.66430099666E+02  0.71573062934E+02 -0.73985086088E+02  0.12258436623E+03  0.41800000000E+01 0. -1.
         -5    1    3    3    0  502  0.21802406422E+02  0.78526870490E+02  0.21900322757E+02  0.84492075674E+02  0.41800000000E+01 0. -1.
        -11    1    1    2    0    0  0.27520536368E+02 -0.15688731239E+03  0.18838651334E+02  0.16039296586E+03  0.00000000000E+00 0. -1.
         11    1    1    2    0    0  0.17107156876E+02  0.67873789700E+01  0.14368893273E+02  0.23349270300E+02  0.00000000000E+00 0.  1.
</event>
<event>
 7    1  0.2380582E-009  0.1148168E+03  0.7561462E-02  0.1251901E+00
          2   -1    0    0  501    0  0.00000000000E+00  0.00000000000E+00  0.42684942077E+02  0.42684942077E+02  0.00000000000E+00 0. -1.
         -2   -1    0    0    0  501 -0.00000000000E+00 -0.00000000000E+00 -0.33192391307E+03  0.33192391307E+03  0.00000000000E+00 0.  1.
         25    2    1    2    0    0 -0.18787516048E+02  0.35885198866E+02 -0.11989235389E+03  0.17793779983E+03  0.12508783246E+03 0.  0.
          5    1    3    3  502    0 -0.33658262732E+02  0.78260260973E+02 -0.88984823929E+02  0.12326117956E+03  0.41800000000E+01 0. -1.
         -5    1    3    3    0  502  0.14870746684E+02 -0.42375062107E+02 -0.30907529957E+02  0.54676620264E+02  0.41800000000E+01 0. -1.
        -11    1    1    2    0    0 -0.25150604705E+02  0.17093189081E+02 -0.41158232718E+02  0.51173529783E+02  0.00000000000E+00 0.  1.
         11    1    1    2    0    0  0.43938120753E+02 -0.52978387948E+02 -0.12818838439E+03  0.14549752554E+03  0.00000000000E+00 0. -1.
</event>
<event>
 7    1  0.2380582E-009  0.9414055E+02  0.7561462E-02  0.1293124E+00
          1   -1    0    0  501    0  0.00000000000E+00  0.00000000000E+00  0.61021501020E+03  0.61021501020E+03  0.00000000000E+00 0. -1.
         -1   -1    0    0    0  501 -0.00000000000E+00 -0.00000000000E+00 -0.27881802965E+02  0.27881802965E+02  0.00000000000E+00 0.  1.
         25    2    1    2    0    0  0.24696295296E+01  0.72689362353E+02  0.39104856633E+03  0.41696256353E+03  0.12509578605E+03 0.  0.
          5    1    3    3  502    0 -0.26551489591E+02  0.47416883386E+00  0.11069830503E+02  0.29072667284E+02  0.41800000000E+01 0. -1.
         -5    1    3    3    0  502  0.29021119121E+02  0.72215193519E+02  0.37997873583E+03  0.38788989625E+03  0.41800000000E+01 0. -1.
        -11    1    1    2    0    0 -0.19647928460E+02 -0.19989684791E+02  0.72754065238E+01  0.28957902737E+02  0.00000000000E+00 0.  1.
         11    1    1    2    0    0  0.17178298931E+02 -0.52699677561E+02  0.18400923438E+03  0.19217634690E+03  0.00000000000E+00 0. -1.
</event>
<event>
 7    1  0.2380582E-009  0.1226309E+03  0.7561462E-02  0.1238819E+00
          1   -1    0    0  501    0  0.00000000000E+00  0.00000000000E+00  0.11905562253E+03  0.11905562253E+03  0.00000000000E+00 0. -1.
         -1   -1    0    0    0  501 -0.00000000000E+00 -0.00000000000E+00 -0.18523737991E+03  0.18523737991E+03  0.00000000000E+00 0.  1.
         25    2    1    2    0    0  0.10077726006E+03  0.43233937608E+00 -0.22846479624E+02  0.16226276595E+03  0.12510395885E+03 0.  0.
          5    1    3    3  502    0  0.11276164154E+02  0.23115306354E+02 -0.57837240611E+02  0.63435700259E+02  0.41800000000E+01 0.  1.
         -5    1    3    3    0  502  0.89501095903E+02 -0.22682966978E+02  0.34990760988E+02  0.98827065692E+02  0.41800000000E+01 0.  1.
        -11    1    1    2    0    0 -0.78949081111E+02 -0.34629641867E+02 -0.51815553199E+02  0.10058340349E+03  0.00000000000E+00 0.  1.
         11    1    1    2    0    0 -0.21828178947E+02  0.34197302491E+02  0.84802754423E+01  0.41446832996E+02  0.00000000000E+00 0. -1.
</event>
<event>
 7    1  0.2380582E-009  0.1003599E+03  0.7561462E-02  0.1279541E+00
         -3   -1    0    0    0  501 -0.00000000000E+00  0.00000000000E+00  0.28711695081E+02  0.28711695081E+02  0.00000000000E+00 0.  1.
          3   -1    0    0  501    0  0.00000000000E+00 -0.00000000000E+00 -0.52872474201E+03  0.52872474201E+03  0.00000000000E+00 0. -1.
         25    2    1    2    0    0  0.30222135534E+02 -0.12129924421E+01 -0.39350957690E+03  0.41401913262E+03  0.12508879339E+03 0.  0.
          5    1    3    3  502    0 -0.45804494894E+02  0.50327190352E+01 -0.91981563165E+02  0.10296339338E+03  0.41800000000E+01 0.  1.
         -5    1    3    3    0  502  0.76026630428E+02 -0.62457114773E+01 -0.30152801374E+03  0.31105573924E+03  0.41800000000E+01 0.  1.
        -11    1    1    2    0    0 -0.30973767524E+02 -0.32172586612E+02 -0.99828614767E+02  0.10936270813E+03  0.00000000000E+00 0. -1.
         11    1    1    2    0    0  0.75163199005E+00  0.33385579054E+02 -0.66748552628E+01  0.34054596345E+02  0.00000000000E+00 0.  1.
</event>
<event>
 7    1  0.2380582E-009  0.1179507E+03  0.7561462E-02  0.1246517E+00
         -3   -1    0    0    0  501 -0.00000000000E+00  0.00000000000E+00  0.61856090129E+02  0.61856090129E+02  0.00000000000E+00 0.  1.
          3   -1    0    0  501    0  0.00000000000E+00 -0.00000000000E+00 -0.42143505747E+03  0.42143505747E+03  0.00000000000E+00 0. -1.
         25    2    1    2    0    0 -0.78966591503E+02  0.70041745210E+02 -0.11466492757E+03  0.19984563328E+03  0.12509461572E+03 0.  0.
          5    1    3    3  502    0 -0.56698687064E+02  0.82209956788E+02 -0.13435397164E+03  0.16745650243E+03  0.41800000000E+01 0. -1.
         -5    1    3    3    0  502 -0.22267904439E+02 -0.12168211578E+02  0.19689044071E+02  0.32389130855E+02  0.41800000000E+01 0. -1.
        -11    1    1    2    0    0  0.17915277393E+02 -0.36288086610E+02 -0.19110593774E+03  0.19534395776E+03  0.00000000000E+00 0. -1.
         11    1    1    2    0    0  0.61051314110E+02 -0.33753658600E+02 -0.53808102033E+02  0.88101556557E+02  0.00000000000E+00 0.  1.
</event>
<event>
 7    1  0.2380582E-009  0.1195605E+03  0.7561462E-02  0.1243824E+00
          1   -1    0    0  501    0  0.00000000000E+00  0.00000000000E+00  0.55926872691E+02  0.55926872691E+02  0.00000000000E+00 0. -1.
         -1   -1    0    0    0  501 -0.00000000000E+00 -0.00000000000E+00 -0.29074204328E+03  0.29074204328E+03  0.00000000000E+00 0.  1.
         25    2    1    2    0    0 -0.43105330298E+01  0.63300469609E+02 -0.83176232586E+02  0.16306877920E+03  0.12509041104E+03 0.  0.
          5    1    3    3  502    0  0.52822806579E+02  0.67972298385E+00 -0.17678427748E+02  0.55863316460E+02  0.41800000000E+01 0.  1.
         -5    1    3    3    0  502 -0.57133339609E+02  0.62620746625E+02 -0.65497804838E+02  0.10720546274E+03  0.41800000000E+01 0.  1.
        -11    1    1    2    0    0 -0.36946187596E+02 -0.37250032023E+02 -0.97490132133E+02  0.11071093680E+03  0.00000000000E+00 0.  1.
         11    1    1    2    0    0  0.41256720626E+02 -0.26050437586E+02 -0.54148805865E+02  0.72889199967E+02  0.00000000000E+00 0. -1.
</event>
<event>
 7    1  0.2380582E-009  0.1809402E+03  0.7561462E-02  0.1166896E+00
          2   -1    0    0  501    0  0.00000000000E+00  0.00000000000E+00  0.42371423365E+03  0.42371423365E+03  0.00000000000E+00 0. -1.
         -2   -1    0    0    0  501 -0.00000000000E+00 -0.00000000000E+00 -0.95317092438E+02  0.95317092438E+02  0.00000000000E+00 0.  1.
         25    2    1    2    0    0  0.10303122958E+03  0.11454325081E+03  0.25834159535E+03  0.32576637670E+03  0.12509101377E+03 0.  0.
          5    1    3    3  502    0  0.13032458900E+03  0.84241782649E+02  0.18283186392E+03  0.23984607419E+03  0.41800000000E+01 0. -1.
         -5    1    3    3    0  502 -0.27293359426E+02  0.30301468160E+02  0.75509731439E+02  0.85920302510E+02  0.41800000000E+01 0. -1.
        -11    1    1    2    0    0 -0.40725635694E+02 -0.69465566371E+01 -0.13499569247E+02  0.43463437757E+02  0.00000000000E+00 0.  1.
         11    1    1    2    0    0 -0.62305593883E+02 -0.10759669417E+03  0.83555115102E+02  0.14980151163E+03  0.00000000000E+00 0. -1.
</event>
<event>
 7    1  0.2380582E-009  0.1505854E+03  0.7561462E-02  0.1199756E+00
         -2   -1    0    0    0  501 -0.00000000000E+00  0.00000000000E+00  0.27395681471E+02  0.27395681471E+02  0.00000000000E+00 0.  1.
          2   -1    0    0  501    0  0.00000000000E+00 -0.00000000000E+00 -0.10577085496E+04  0.10577085496E+04  0.00000000000E+00 0. -1.
         25    2    1    2    0    0 -0.76058318125E+02 -0.82272977115E+02 -0.75920984166E+03  0.77755880846E+03  0.12507760158E+03 0.  0.
          5    1    3    3  502    0 -0.50685077986E+02 -0.11148099698E+03 -0.46862780819E+03  0.48438258106E+03  0.41800000000E+01 0.  1.
         -5    1    3    3    0  502 -0.25373240139E+02  0.29208019867E+02 -0.29058203347E+03  0.29317622740E+03  0.41800000000E+01 0.  1.
        -11    1    1    2    0    0  0.23309327855E+02 -0.15941184391E+02 -0.26460383530E+02  0.38698811628E+02  0.00000000000E+00 0. -1.
         11    1    1    2    0    0  0.52748990269E+02  0.98214161506E+02 -0.24464264295E+03  0.26884661100E+03  0.00000000000E+00 0.  1.
</event>
<event>
 7    1  0.2380582E-009  0.2508619E+03  0.7561462E-02  0.1112761E+00
          2   -1    0    0  501    0  0.00000000000E+00  0.00000000000E+00  0.11998072354E+03  0.11998072354E+03  0.00000000000E+00 0. -1.
         -2   -1    0    0    0  501 -0.00000000000E+00 -0.00000000000E+00 -0.66177268668E+03  0.66177268668E+03  0.00000000000E+00 0.  1.
         25    2    1    2    0    0  0.20617775567E+03  0.13537965528E+03 -0.16449842138E+03  0.32178232631E+03  0.12508883601E+03 0.  0.
          5    1    3    3  502    0  0.14285602400E+03  0.77253843000E+02 -0.34824497720E+02  0.16615118986E+03  0.41800000000E+01 0.  1.
         -5    1    3    3    0  502  0.63321731670E+02  0.58125812276E+02 -0.12967392366E+03  0.15563113645E+03  0.41800000000E+01 0.  1.
        -11    1    1    2    0    0 -0.66870067966E+01 -0.23609882771E+02 -0.83682292985E+01  0.25926239333E+02  0.00000000000E+00 0. -1.
         11    1    1    2    0    0 -0.19949074887E+03 -0.11176977250E+03 -0.36892531246E+03  0.43404484458E+03  0.00000000000E+00 0.  1.
</event>
<event>
 7    1  0.2380582E-009  0.5317693E+02  0.7561462E-02  0.1428922E+00
         -3   -1    0    0    0  501 -0.00000000000E+00  0.00000000000E+00  0.47615425487E+03  0.47615425487E+03  0.00000000000E+00 0.  1.
          3   -1    0    0  501    0  0.00000000000E+00 -0.00000000000E+00 -0.36055456660E+02  0.36055456660E+02  0.00000000000E+00 0. -1.
         25    2    1    2    0    0  0.37599207489E+01  0.12256111002E+02  0.10255288845E+03  0.16227494317E+03  0.12510680633E+03 0.  0.
          5    1    3    3  502    0  0.71078252263E+01  0.24726341865E+01 -0.28999669688E+02  0.30250427125E+02  0.41800000000E+01 0.  1.
         -5    1    3    3    0  502 -0.33479044775E+01  0.97834768157E+01  0.13155255814E+03  0.13202451604E+03  0.41800000000E+01 0.  1.
        -11    1    1    2    0    0 -0.30088290319E+02 -0.38870590849E+02  0.12885209945E+03  0.13790972258E+03  0.00000000000E+00 0.  1.
         11    1    1    2    0    0  0.26328369570E+02  0.26614479847E+02  0.20869381031E+03  0.21202504579E+03  0.00000000000E+00 0. -1.
</event>
<event>
 7    1  0.2380582E-009  0.1079082E+03  0.7561462E-02  0.1264493E+00
          3   -1    0    0  501    0  0.00000000000E+00  0.00000000000E+00  0.24798021578E+03  0.24798021578E+03  0.00000000000E+00 0. -1.
         -3   -1    0    0    0  501 -0.00000000000E+00 -0.00000000000E+00 -0.55696611495E+02  0.55696611495E+02  0.00000000000E+00 0.  1.
         25    2    1    2    0    0 -0.30136105964E+02 -0.16794531388E+02  0.70231884413E+02  0.14754773984E+03  0.12509027451E+03 0.  0.
          5    1    3    3  502    0 -0.68515092739E+02 -0.34063448121E+02  0.15167512582E+02  0.78116338041E+02  0.41800000000E+01 0. -1.
         -5    1    3    3    0  502  0.38378986775E+02  0.17268916733E+02  0.55064371831E+02  0.69431401802E+02  0.41800000000E+01 0. -1.
        -11    1    1    2    0    0  0.42196988691E+02  0.47719754039E+02  0.87323609826E+02  0.10808873028E+03  0.00000000000E+00 0. -1.
         11    1    1    2    0    0 -0.12060882727E+02 -0.30925222651E+02  0.34728110050E+02  0.48040357158E+02  0.00000000000E+00 0.  1.
</event>
<event>
 7    1  0.2380582E-009  0.2232765E+03  0.7561462E-02  0.1131464E+00
         -2   -1    0    0    0  501 -0.00000000000E+00  0.00000000000E+00  0.38754773393E+02  0.38754773393E+02  0.00000000000E+00 0.  1.
          2   -1    0    0  501    0  0.00000000000E+00 -0.00000000000E+00 -0.16582724124E+04  0.16582724124E+04  0.00000000000E+00 0. -1.
         25    2    1    2    0    0 -0.15950881569E+03 -0.14819040391E+03 -0.10696790148E+04  0.10987556547E+04  0.12508931175E+03 0.  0.
          5    1    3    3  502    0 -0.13823399580E+03 -0.10514429788E+03 -0.99374637009E+03  0.10088177642E+04  0.41800000000E+01 0. -1.
         -5    1    3    3    0  502 -0.21274819898E+02 -0.43046106030E+02 -0.75932644682E+02  0.89937890427E+02  0.41800000000E+01 0. -1.
        -11    1    1    2    0    0  0.67592641430E+02  0.27624468141E+02 -0.27346658135E+03  0.28304742982E+03  0.00000000000E+00 0. -1.
         11    1    1    2    0    0  0.91916174263E+02  0.12056593577E+03 -0.27637204293E+03  0.31522410135E+03  0.00000000000E+00 0.  1.
</event>
<event>
 7    1  0.2380582E-009  0.1210248E+03  0.7561462E-02  0.1241416E+00
          2   -1    0    0  501    0  0.00000000000E+00  0.00000000000E+00  0.38956120925E+03  0.38956120925E+03  0.00000000000E+00 0. -1.
         -2   -1    0    0    0  501 -0.00000000000E+00 -0.00000000000E+00 -0.48067760829E+02  0.48067760829E+02  0.00000000000E+00 0.  1.
         25    2    1    2    0    0  0.76016995291E+02 -0.18026953300E+02  0.24572218903E+03  0.28658185171E+03  0.12508480694E+03 0.  0.
          5    1    3    3  502    0  0.41158132500E+02 -0.59371586027E+02  0.20875710096E+03  0.22094337894E+03  0.41800000000E+01 0.  1.
         -5    1    3    3    0  502  0.34858862791E+02  0.41344632727E+02  0.36965088073E+02  0.65638472763E+02  0.41800000000E+01 0.  1.
        -11    1    1    2    0    0 -0.62004413527E+02 -0.27487069680E+02  0.67379158579E+02  0.95603542336E+02  0.00000000000E+00 0.  1.
         11    1    1    2    0    0 -0.14012581764E+02  0.45514022980E+02  0.28392100812E+02  0.55443576039E+02  0.00000000000E+00 0. -1.
</event>
<event>
 7    1  0.2380582E-009  0.1094732E+03  0.7561462E-02  0.1261549E+00
         -4   -1    0    0    0  501 -0.00000000000E+00  0.00000000000E+00  0.91568835809E+02  0.91568835809E+02  0.00000000000E+00 0.  1.
          4   -1    0    0  501    0  0.00000000000E+00 -0.00000000000E+00 -0.13945810157E+03  0.13945810157E+03  0.00000000000E+00 0. -1.
         25    2    1    2    0    0  0.27279872295E+02 -0.24019715814E+02 -0.39650646296E+02  0.13616377812E+03  0.12508901847E+03 0.  0.
          5    1    3    3  502    0  0.10849769578E+02 -0.73572430467E+02 -0.78634314001E+01  0.74899439104E+02  0.41800000000E+01 0. -1.
         -5    1    3    3    0  502  0.16430102717E+02  0.49552714653E+02 -0.31787214896E+02  0.61264339021E+02  0.41800000000E+01 0. -1.
        -11    1    1    2    0    0 -0.47594896432E+02 -0.13456018127E+02  0.62199485603E+01  0.49850038619E+02  0.00000000000E+00 0. -1.
         11    1    1    2    0    0  0.20315024137E+02  0.37475733940E+02 -0.14458568026E+02  0.45013120636E+02  0.00000000000E+00 0.  1.
</event>
<event>
 7    1  0.2380582E-009  0.1311082E+03  0.7561462E-02  0.1225821E+00
         -2   -1    0    0    0  501 -0.00000000000E+00  0.00000000000E+00  0.29695324404E+02  0.29695324404E+02  0.00000000000E+00 0.  1.
          2   -1    0    0  501    0  0.00000000000E+00 -0.00000000000E+00 -0.65712880844E+03  0.65712880844E+03  0.00000000000E+00 0. -1.
         25    2    1    2    0    0 -0.36624159176E+02 -0.69923600095E+02 -0.24137108364E+03  0.28308934476E+03  0.12509571622E+03 0.  0.
          5    1    3    3  502    0 -0.39138050610E+02 -0.10519029381E+03 -0.18387731242E+03  0.21546490048E+03  0.41800000000E+01 0. -1.
         -5    1    3    3    0  502  0.25138914348E+01  0.35266693711E+02 -0.57493771220E+02  0.67624444282E+02  0.41800000000E+01 0. -1.
        -11    1    1    2    0    0  0.55950725454E+02  0.17806850157E+02 -0.24902149993E+03  0.25585010264E+03  0.00000000000E+00 0. -1.
         11    1    1    2    0    0 -0.19326566279E+02  0.52116749939E+02 -0.13704090046E+03  0.14788468544E+03  0.00000000000E+00 0.  1.
</event>
<event>
 7    1  0.2380582E-009  0.1112859E+03  0.7561462E-02  0.1258207E+00
          2   -1    0    0  501    0  0.00000000000E+00  0.00000000000E+00  0.26684961439E+03  0.26684961439E+03  0.00000000000E+00 0. -1.
         -2   -1    0    0    0  501 -0.00000000000E+00 -0.00000000000E+00 -0.13873180498E+03  0.13873180498E+03  0.00000000000E+00 0.  1.
         25    2    1    2    0    0  0.41331179948E+02  0.41323815328E+02  0.21229198826E+03  0.25324003317E+03  0.12508677775E+03 0.  0.
          5    1    3    3  502    0  0.15982385789E+01 -0.38141917364E+02  0.11583120589E+03  0.12203155692E+03  0.41800000000E+01 0.  1.
         -5    1    3    3    0  502  0.39732941369E+02  0.79465732693E+02  0.96460782373E+02  0.13120847624E+03  0.41800000000E+01 0.  1.
        -11    1    1    2    0    0 -0.43171426774E+02  0.96341373993E+01  0.99080131819E+01  0.45329432142E+02  0.00000000000E+00 0. -1.
         11    1    1    2    0    0  0.18402468261E+01 -0.50957952728E+02 -0.94082192039E+02  0.10701195407E+03  0.00000000000E+00 0.  1.
</event>
<event>
 7    1  0.2380582E-009  0.1032559E+03  0.7561462E-02  0.1273594E+00
         -2   -1    0    0    0  501 -0.00000000000E+00  0.00000000000E+00  0.46935198092E+02  0.46935198092E+02  0.00000000000E+00 0. -1.
          2   -1    0    0  501    0  0.00000000000E+00 -0.00000000000E+00 -0.40476657576E+03  0.40476657576E+03  0.00000000000E+00 0.  1.
         25    2    1    2    0    0 -0.72395292965E+02 -0.26576284467E+02 -0.24518379524E+03  0.28584946062E+03  0.12508974118E+03 0.  0.
          5    1    3    3  502    0 -0.89697170062E+01  0.29738308165E+02 -0.16862476618E+03  0.17151270206E+03  0.41800000000E+01 0.  1.
         -5    1    3    3    0  502 -0.63425575959E+02 -0.56314592632E+02 -0.76559029061E+02  0.11433675857E+03  0.41800000000E+01 0.  1.
        -11    1    1    2    0    0  0.45987416068E+02 -0.80656870153E+01 -0.17674924516E+01  0.46722818550E+02  0.00000000000E+00 0.  1.
         11    1    1    2    0    0  0.26407876897E+02  0.34641971482E+02 -0.11088008997E+03  0.11912949468E+03  0.00000000000E+00 0. -1.
</event>
<event>
 7    1  0.2380582E-009  0.1273907E+03  0.7561462E-02  0.1231380E+00
          1   -1    0    0  501    0  0.00000000000E+00  0.00000000000E+00  0.27820484098E+03  0.27820484098E+03  0.00000000000E+00 0. -1.
         -1   -1    0    0    0  501 -0.00000000000E+00 -0.00000000000E+00 -0.80452025158E+02  0.80452025158E+02  0.00000000000E+00 0.  1.
         25    2    1    2    0    0  0.60089890406E+02 -0.49991920246E+02  0.45954890624E+02  0.15449811905E+03  0.12509128586E+03 0.  0.
          5    1    3    3  502    0  0.49439354809E+02 -0.88090246920E+02  0.52918592354E+02  0.11411393965E+03  0.41800000000E+01 0. -1.
         -5    1    3    3    0  502  0.10650535597E+02  0.38098326674E+02 -0.69637017301E+01  0.40384179398E+02  0.41800000000E+01 0. -1.
        -11    1    1    2    0    0 -0.28030751888E+02 -0.21646157481E+02  0.25190232041E+01  0.35505276551E+02  0.00000000000E+00 0.  1.
         11    1    1    2    0    0 -0.32059138518E+02  0.71638077727E+02  0.14927890200E+03  0.16865347054E+03  0.00000000000E+00 0. -1.
</event>
<event>
 7    1  0.2380582E-009  0.2673398E+03  0.7561462E-02  0.1102812E+00
          1   -1    0    0  501    0  0.00000000000E+00  0.00000000000E+00  0.11307907969E+04  0.11307907969E+04  0.00000000000E+00 0. -1.
         -1   -1    0    0    0  501 -0.00000000000E+00 -0.00000000000E+00 -0.71548557267E+02  0.71548557267E+02  0.00000000000E+00 0.  1.
         25    2    1    2    0    0  0.15423673305E+03 -0.20440825471E+03  0.67562498026E+03  0.73327292555E+03  0.12509342503E+03 0.  0.
          5    1    3    3  502    0  0.89671890867E+02 -0.36159346025E+02  0.15938265997E+03  0.18646407433E+03  0.41800000000E+01 0.  1.
         -5    1    3    3    0  502  0.64564842179E+02 -0.16824890868E+03  0.51624232028E+03  0.54680885122E+03  0.41800000000E+01 0.  1.
        -11    1    1    2    0    0 -0.11890953960E+03  0.13602507812E+03  0.19755835893E+03  0.26771553125E+03  0.00000000000E+00 0.  1.
         11    1    1    2    0    0 -0.35327193446E+02  0.68383176589E+02  0.18605890041E+03  0.20135089734E+03  0.00000000000E+00 0. -1.
</event>
<event>
 7    1  0.2380582E-009  0.9187178E+02  0.7561462E-02  0.1298381E+00
         -1   -1    0    0    0  501 -0.00000000000E+00  0.00000000000E+00  0.75643669414E+02  0.75643669414E+02  0.00000000000E+00 0.  1.
          1   -1    0    0  501    0  0.00000000000E+00 -0.00000000000E+00 -0.18481728576E+03  0.18481728576E+03  0.00000000000E+00 0. -1.
         25    2    1    2    0    0 -0.43619614241E+02  0.23852667313E+01 -0.78789874370E+02  0.15416096199E+03  0.12509755256E+03 0.  0.
          5    1    3    3  502    0 -0.22266476130E+02 -0.40766242143E+02 -0.92786220948E+02  0.10384814710E+03  0.41800000000E+01 0. -1.
         -5    1    3    3    0  502 -0.21353138111E+02  0.43151508875E+02  0.13996346578E+02  0.50312814897E+02  0.41800000000E+01 0. -1.
        -11    1    1    2    0    0  0.48345334564E+02 -0.32526511720E+02 -0.43875597147E+02  0.72940478225E+02  0.00000000000E+00 0.  1.
         11    1    1    2    0    0 -0.47257203224E+01  0.30141244989E+02  0.13491855171E+02  0.33359514954E+02  0.00000000000E+00 0. -1.
</event>
<event>
 7    1  0.2380582E-009  0.1345737E+03  0.7561462E-02  0.1220823E+00
         -2   -1    0    0    0  501 -0.00000000000E+00  0.00000000000E+00  0.28855810966E+03  0.28855810966E+03  0.00000000000E+00 0.  1.
          2   -1    0    0  501    0  0.00000000000E+00 -0.00000000000E+00 -0.76234526057E+02  0.76234526057E+02  0.00000000000E+00 0. -1.
         25    2    1    2    0    0 -0.66675719903E+02  0.75592003520E+02  0.11387066498E+03  0.19691051058E+03  0.12508964070E+03 0.  0.
          5    1    3    3  502    0 -0.87994583056E+02  0.25167759387E+02  0.10810101687E+03  0.14170308751E+03  0.41800000000E+01 0. -1.
         -5    1    3    3    0  502  0.21318863153E+02  0.50424244134E+02  0.57696481097E+01  0.55207423069E+02  0.41800000000E+01 0. -1.
        -11    1    1    2    0    0 -0.10433042746E+02 -0.32838122811E+02  0.65024834374E+02  0.73589535778E+02  0.00000000000E+00 0.  1.
         11    1    1    2    0    0  0.77108762648E+02 -0.42753880709E+02  0.33428084247E+02  0.94292589366E+02  0.00000000000E+00 0. -1.
</event>
<event>
 7    1  0.2380582E-009  0.5724326E+02  0.7561462E-02  0.1409779E+00
          2   -1    0    0  501    0  0.00000000000E+00  0.00000000000E+00  0.25135358411E+03  0.25135358411E+03  0.00000000000E+00 0. -1.
         -2   -1    0    0    0  501 -0.00000000000E+00 -0.00000000000E+00 -0.41970080482E+02  0.41970080482E+02  0.00000000000E+00 0.  1.
         25    2    1    2    0    0  0.12273846329E+02 -0.55892846418E+01  0.13059045014E+03  0.18133737296E+03  0.12508992669E+03 0.  0.
          5    1    3    3  502    0 -0.20388230915E+02  0.12617319478E+02  0.14036697971E+03  0.14246135653E+03  0.41800000000E+01 0. -1.
         -5    1    3    3    0  502  0.32662077244E+02 -0.18206604120E+02 -0.97765295692E+01  0.38876016435E+02  0.41800000000E+01 0. -1.
        -11    1    1    2    0    0 -0.83364072603E+01 -0.22584552950E+02 -0.40344075906E+01  0.24409714513E+02  0.00000000000E+00 0.  1.
         11    1    1    2    0    0 -0.39374390686E+01  0.28173837592E+02  0.82827461078E+02  0.87576577118E+02  0.00000000000E+00 0. -1.
</event>
<event>
 7    1  0.2380582E-009  0.3974522E+03  0.7561462E-02  0.1044665E+00
          2   -1    0    0  501    0  0.00000000000E+00  0.00000000000E+00  0.24560018160E+04  0.24560018160E+04  0.00000000000E+00 0. -1.
         -2   -1    0    0    0  501 -0.00000000000E+00 -0.00000000000E+00 -0.97573802920E+02  0.97573802920E+02  0.00000000000E+00 0.  1.
         25    2    1    2    0    0  0.39025165132E+03 -0.23159878930E+01  0.47209046263E+03  0.62515499911E+03  0.12509057858E+03 0.  0.
          5    1    3    3  502    0  0.24213039133E+03 -0.38087534540E+02  0.36169385654E+03  0.43694130607E+03  0.41800000000E+01 0. -1.
         -5    1    3    3    0  502  0.14812126000E+03  0.35771546647E+02  0.11039660608E+03  0.18821369304E+03  0.41800000000E+01 0. -1.
        -11    1    1    2    0    0 -0.38279750668E+03 -0.10000107349E+02  0.18522370232E+04  0.18914058061E+04  0.00000000000E+00 0.  1.
         11    1    1    2    0    0 -0.74541446384E+01  0.12316095242E+02  0.34100527233E+02  0.37014813682E+02  0.00000000000E+00 0. -1.
</event>
<event>
 7    1  0.2380582E-009  0.1268179E+03  0.7561462E-02  0.1232255E+00
          2   -1    0    0  501    0  0.00000000000E+00  0.00000000000E+00  0.95819269569E+03  0.95819269569E+03  0.00000000000E+00 0. -1.
         -2   -1    0    0    0  501 -0.00000000000E+00 -0.00000000000E+00 -0.18291843739E+02  0.18291843739E+02  0.00000000000E+00 0.  1.
         25    2    1    2    0    0  0.49895595690E+02  0.55937816225E+02  0.55882333243E+03  0.57753665791E+03  0.12508582895E+03 0.  0.
          5    1    3    3  502    0 -0.29105999477E+02 -0.20410144394E+02  0.12881599991E+03  0.13369654981E+03  0.41800000000E+01 0.  1.
         -5    1    3    3    0  502  0.79001595167E+02  0.76347960619E+02  0.43000733252E+03  0.44384010809E+03  0.41800000000E+01 0.  1.
        -11    1    1    2    0    0  0.42537610537E+00 -0.57549316704E+02  0.28199460540E+03  0.28780733533E+03  0.00000000000E+00 0. -1.
         11    1    1    2    0    0 -0.50320971795E+02  0.16115004796E+01  0.99082914122E+02  0.11114054619E+03  0.00000000000E+00 0.  1.
</event>
<event>
 7    1  0.2380582E-009  0.1179392E+03  0.7561462E-02  0.1246536E+00
         -1   -1    0    0    0  501 -0.00000000000E+00  0.00000000000E+00  0.83126749336E+02  0.83126749336E+02  0.00000000000E+00 0.  1.
          1   -1    0    0  501    0  0.00000000000E+00 -0.00000000000E+00 -0.29270256795E+03  0.29270256795E+03  0.00000000000E+00 0. -1.
         25    2    1    2    0    0 -0.48518264901E+02  0.45713783797E+02 -0.22151983481E+03  0.26299249434E+03  0.12510093048E+03 0.  0.
          5    1    3    3  502    0  0.17417992272E+02 -0.22758500792E+02 -0.12165874867E+03  0.12505862362E+03  0.41800000000E+01 0.  1.
         -5    1    3    3    0  502 -0.65936257173E+02  0.68472284590E+02 -0.99861086141E+02  0.13793387072E+03  0.41800000000E+01 0.  1.
        -11    1    1    2    0    0  0.62963209341E+02  0.89581251893E+00  0.11656318183E+02  0.64039347000E+02  0.00000000000E+00 0.  1.
         11    1    1    2    0    0 -0.14444944439E+02 -0.46609596316E+02  0.28769801618E+00  0.48797475947E+02  0.00000000000E+00 0. -1.
</event>
<event>
 7    1  0.2380582E-009  0.1379920E+03  0.7561462E-02  0.1216057E+00
         -1   -1    0    0    0  501 -0.00000000000E+00  0.00000000000E+00  0.18580510109E+03  0.18580510109E+03  0.00000000000E+00 0.  1.
          1   -1    0    0  501    0  0.00000000000E+00 -0.00000000000E+00 -0.12695462318E+03  0.12695462318E+03  0.00000000000E+00 0. -1.
         25    2    1    2    0    0 -0.10536203265E+03  0.97687779497E+01  0.53788145328E+02  0.17244499723E+03  0.12509006973E+03 0.  0.
          5    1    3    3  502    0 -0.20462242211E+02 -0.48999914441E+02 -0.50916759859E+01  0.53507873588E+02  0.41800000000E+01 0. -1.
         -5    1    3    3    0  502 -0.84899790443E+02  0.58768692391E+02  0.58879821314E+02  0.11893712364E+03  0.41800000000E+01 0. -1.
        -11    1    1    2    0    0  0.51930295693E+02  0.22895528077E+02  0.39213502416E+02  0.68983038411E+02  0.00000000000E+00 0.  1.
         11    1    1    2    0    0  0.53431736960E+02 -0.32664306027E+02 -0.34151169832E+02  0.71331688636E+02  0.00000000000E+00 0. -1.
</event>
<event>
 7    1  0.2380582E-009  0.1115873E+03  0.7561462E-02  0.1257658E+00
         -1   -1    0    0    0  501 -0.00000000000E+00  0.00000000000E+00  0.86331736782E+02  0.86331736782E+02  0.00000000000E+00 0.  1.
          1   -1    0    0  501    0  0.00000000000E+00 -0.00000000000E+00 -0.21662325118E+03  0.21662325118E+03  0.00000000000E+00 0. -1.
         25    2    1    2    0    0 -0.55710731747E+02  0.49233234129E+02 -0.62422611637E+02  0.15834009322E+03  0.12508959071E+03 0.  0.
          5    1    3    3  502    0 -0.76199176740E+01  0.84546155024E+02 -0.44305935608E+02  0.95846772532E+02  0.41800000000E+01 0.  1.
         -5    1    3    3    0  502 -0.48090814073E+02 -0.35312920896E+02 -0.18116676029E+02  0.62493320689E+02  0.41800000000E+01 0.  1.
        -11    1    1    2    0    0  0.10194588266E+02 -0.24577825056E+02 -0.85800880547E+02  0.89832011093E+02  0.00000000000E+00 0. -1.
         11    1    1    2    0    0  0.45516143481E+02 -0.24655409072E+02  0.17931977782E+02  0.54782883651E+02  0.00000000000E+00 0.  1.
</event>
<event>
 7    1  0.2380582E-009  0.2499988E+03  0.7561462E-02  0.1113306E+00
          1   -1    0    0  501    0  0.00000000000E+00  0.00000000000E+00  0.87479636224E+02  0.87479636224E+02  0.00000000000E+00 0. -1.
         -1   -1    0    0    0  501 -0.00000000000E+00 -0.00000000000E+00 -0.75110270809E+03  0.75110270809E+03  0.00000000000E+00 0.  1.
         25    2    1    2    0    0  0.14781203266E+03 -0.17996999851E+03 -0.35886399616E+03  0.44572455286E+03  0.12509760956E+03 0.  0.
          5    1    3    3  502    0  0.15888520434E+03 -0.18718301005E+03 -0.31310435817E+03  0.39791179791E+03  0.41800000000E+01 0.  1.
         -5    1    3    3    0  502 -0.11073171683E+02  0.72130115404E+01 -0.45759637993E+02  0.47812754950E+02  0.41800000000E+01 0.  1.
        -11    1    1    2    0    0 -0.11768188172E+03  0.97660761499E+02 -0.23706080772E+03  0.28210720689E+03  0.00000000000E+00 0.  1.
         11    1    1    2    0    0 -0.30130150943E+02  0.82309237014E+02 -0.67698267985E+02  0.11075058457E+03  0.00000000000E+00 0. -1.
</event>
<event>
 7    1  0.2966030E-009  0.2208137E+03  0.7561462E-02  0.1133278E+00
          2   -1    0    0  501    0  0.00000000000E+00  0.00000000000E+00  0.18998082540E+04  0.18998082540E+04  0.00000000000E+00 0. -1.
         -2   -1    0    0    0  501 -0.00000000000E+00 -0.00000000000E+00 -0.26802344762E+02  0.26802344762E+02  0.00000000000E+00 0.  1.
         25    2    1    2    0    0 -0.79566569983E+02 -0.18051598200E+03  0.93117966010E+03  0.96003107504E+03  0.12508895573E+03 0.  0.
          5    1    3    3  502    0 -0.10030543820E+02 -0.14746876508E+03  0.72454878624E+03  0.73948364724E+03  0.41800000000E+01 0.  1.
         -5    1    3    3    0  502 -0.69536026162E+02 -0.33047216923E+02  0.20663087386E+03  0.22054742781E+03  0.41800000000E+01 0.  1.
        -11    1    1    2    0    0 -0.75551785292E+01  0.92518613958E+02  0.36586892827E+03  0.37746105405E+03  0.00000000000E+00 0.  1.
         11    1    1    2    0    0  0.87121748512E+02  0.87997368041E+02  0.57595732089E+03  0.58911846969E+03  0.00000000000E+00 0. -1.
</event>
<event>
 7    1  0.2380582E-009  0.2035897E+03  0.7561462E-02  0.1146745E+00
         -3   -1    0    0    0  501 -0.00000000000E+00  0.00000000000E+00  0.97287316629E+02  0.97287316629E+02  0.00000000000E+00 0.  1.
          3   -1    0    0  501    0  0.00000000000E+00 -0.00000000000E+00 -0.42720256374E+03  0.42720256374E+03  0.00000000000E+00 0. -1.
         25    2    1    2    0    0 -0.12356574279E+03 -0.11389447328E+03 -0.16524095968E+03  0.26682172920E+03  0.12509523006E+03 0.  0.
          5    1    3    3  502    0 -0.14835761457E+03 -0.10714798512E+03 -0.13887286320E+03  0.22976905155E+03  0.41800000000E+01 0.  1.
         -5    1    3    3    0  502  0.24791871785E+02 -0.67464881615E+01 -0.26368096480E+02  0.37052677651E+02  0.41800000000E+01 0.  1.
        -11    1    1    2    0    0  0.10521030897E+02  0.79129876418E+02 -0.70052982534E+02  0.10620569568E+03  0.00000000000E+00 0.  1.
         11    1    1    2    0    0  0.11304471189E+03  0.34764596866E+02 -0.94621304898E+02  0.15146245549E+03  0.00000000000E+00 0. -1.
</event>
<event>
 7    1  0.2380582E-009  0.1640921E+03  0.7561462E-02  0.1184153E+00
         -2   -1    0    0    0  501 -0.00000000000E+00  0.00000000000E+00  0.32306147079E+02  0.32306147079E+02  0.00000000000E+00 0.  1.
          2   -1    0    0  501    0  0.00000000000E+00 -0.00000000000E+00 -0.11864470921E+04  0.11864470921E+04  0.00000000000E+00 0. -1.
         25    2    1    2    0    0 -0.35878820426E+02 -0.15499394012E+03 -0.51285309173E+03  0.55133897302E+03  0.12508380487E+03 0.  0.
          5    1    3    3  502    0 -0.66889411935E+01 -0.46838024093E+01 -0.22569807932E+03  0.22588442918E+03  0.41800000000E+01 0. -1.
         -5    1    3    3    0  502 -0.29189879233E+02 -0.15031013771E+03 -0.28715501241E+03  0.32545454383E+03  0.41800000000E+01 0. -1.
        -11    1    1    2    0    0 -0.11497953717E+02  0.26559166281E+02 -0.32911828601E+02  0.43826712346E+02  0.00000000000E+00 0.  1.
         11    1    1    2    0    0  0.47376774143E+02  0.12843477384E+03 -0.60837602471E+03  0.62358755384E+03  0.00000000000E+00 0. -1.
</event>
<event>
 7    1  0.2380582E-009  0.9682714E+02  0.7561462E-02  0.1287113E+00
          1   -1    0    0  501    0  0.00000000000E+00  0.00000000000E+00  0.26016479184E+02  0.26016479184E+02  0.00000000000E+00 0. -1.
         -1   -1    0    0    0  501 -0.00000000000E+00 -0.00000000000E+00 -0.10023292894E+04  0.10023292894E+04  0.00000000000E+00 0.  1.
         25    2    1    2    0    0 -0.14947814776E+02  0.15198132285E+02 -0.89253127566E+03  0.90150717288E+03  0.12509470142E+03 0.  0.
          5    1    3    3  502    0  0.34295753279E+02  0.52288941715E+02 -0.53717782211E+03  0.54082142809E+03  0.41800000000E+01 0. -1.
         -5    1    3    3    0  502 -0.49243568056E+02 -0.37090809430E+02 -0.35535345355E+03  0.36068574478E+03  0.41800000000E+01 0. -1.
        -11    1    1    2    0    0  0.25109955791E+02  0.20285968375E+02 -0.83934270539E+02  0.89927705206E+02  0.00000000000E+00 0.  1.
         11    1    1    2    0    0 -0.10162141014E+02 -0.35484100659E+02  0.15273598036E+00  0.36910890505E+02  0.00000000000E+00 0. -1.
</event>
<event>
 7    1  0.2380582E-009  0.1133262E+03  0.7561462E-02  0.1254531E+00
          2   -1    0    0  501    0  0.00000000000E+00  0.00000000000E+00  0.59919080249E+03  0.59919080249E+03  0.00000000000E+00 0.  1.
         -2   -1    0    0    0  501 -0.00000000000E+00 -0.00000000000E+00 -0.42297875849E+02  0.42297875849E+02  0.00000000000E+00 0. -1.
         25    2    1    2    0    0  0.84743446589E+02 -0.68147298766E+02  0.21501429461E+03  0.27148796323E+03  0.12509620787E+03 0.  0.
          5    1    3    3  502    0  0.13275001013E+02 -0.37917675718E+01 -0.15805730474E+02  0.21398520253E+02  0.41800000000E+01 0. -1.
         -5    1    3    3    0  502  0.71468445576E+02 -0.64355531194E+02  0.23082002508E+03  0.25008944297E+03  0.41800000000E+01 0. -1.
        -11    1    1    2    0    0 -0.11852850661E+02  0.32954455936E+02  0.25210097503E+02  0.43151306479E+02  0.00000000000E+00 0. -1.
         11    1    1    2    0    0 -0.72890595928E+02  0.35192842830E+02  0.31666853453E+03  0.32684940863E+03  0.00000000000E+00 0.  1.
</event>
<event>
 7    1  0.2380582E-009  0.3196458E+03  0.7561462E-02  0.1075812E+00
          2   -1    0    0  501    0  0.00000000000E+00  0.00000000000E+00  0.11812918669E+04  0.11812918669E+04  0.00000000000E+00 0. -1.
         -2   -1    0    0    0  501 -0.00000000000E+00 -0.00000000000E+00 -0.13470006499E+03  0.13470006499E+03  0.00000000000E+00 0.  1.
         25    2    1    2    0    0 -0.30614229114E+03  0.33572252975E+00  0.91069096883E+03  0.96887978792E+03  0.12508712000E+03 0.  0.
          5    1    3    3  502    0 -0.13398520840E+03 -0.60826815872E+02  0.37390479703E+03  0.40183853379E+03  0.41800000000E+01 0. -1.
         -5    1    3    3    0  502 -0.17215708274E+03  0.61162538401E+02  0.53678617181E+03  0.56704125413E+03  0.41800000000E+01 0. -1.
        -11    1    1    2    0    0  0.14861478911E+03 -0.22332960783E+02  0.10934802295E+03  0.18585506934E+03  0.00000000000E+00 0.  1.
         11    1    1    2    0    0  0.15752750204E+03  0.21997238253E+02  0.26552810116E+02  0.16125707462E+03  0.00000000000E+00 0. -1.
</event>
<event>
 7    1  0.2380582E-009  0.1117891E+03  0.7561462E-02  0.1257292E+00
         -2   -1    0    0    0  501 -0.00000000000E+00  0.00000000000E+00  0.29750895685E+03  0.29750895685E+03  0.00000000000E+00 0.  1.
          2   -1    0    0  501    0  0.00000000000E+00 -0.00000000000E+00 -0.53706383895E+02  0.53706383895E+02  0.00000000000E+00 0. -1.
         25    2    1    2    0    0 -0.34690318940E+01  0.51813785256E+02  0.18920055546E+03  0.23268381927E+03  0.12509279371E+03 0.  0.
          5    1    3    3  502    0  0.58043528011E+02  0.20542500425E+02  0.59581160299E+02  0.85781306415E+02  0.41800000000E+01 0. -1.
         -5    1    3    3    0  502 -0.61512559905E+02  0.31271284831E+02  0.12961939516E+03  0.14690251286E+03  0.41800000000E+01 0. -1.
        -11    1    1    2    0    0 -0.36719482486E+02 -0.24759538499E+02 -0.16188069005E+01  0.44316765186E+02  0.00000000000E+00 0. -1.
         11    1    1    2    0    0  0.40188514380E+02 -0.27054246757E+02  0.56220824398E+02  0.74214756293E+02  0.00000000000E+00 0.  1.
</event>
<event>
 7    1  0.2380582E-009  0.1556282E+03  0.7561462E-02  0.1193723E+00
         -2   -1    0    0    0  501 -0.00000000000E+00  0.00000000000E+00  0.72053806108E+02  0.72053806108E+02  0.00000000000E+00 0.  1.
          2   -1    0    0  501    0  0.00000000000E+00 -0.00000000000E+00 -0.43663859123E+03  0.43663859123E+03  0.00000000000E+00 0. -1.
         25    2    1    2    0    0  0.11910846800E+03 -0.73806793521E+02 -0.18017667768E+03  0.26027834288E+03  0.12508761199E+03 0.  0.
          5    1    3    3  502    0  0.71888295658E+02  0.10040655193E+02 -0.13620525111E+03  0.15439586989E+03  0.41800000000E+01 0.  1.
         -5    1    3    3    0  502  0.47220172342E+02 -0.83847448714E+02 -0.43971426579E+02  0.10588247299E+03  0.41800000000E+01 0.  1.
        -11    1    1    2    0    0 -0.31789452858E+02  0.33083999763E+02 -0.68370267048E+01  0.46388202030E+02  0.00000000000E+00 0.  1.
         11    1    1    2    0    0 -0.87319015142E+02  0.40722793757E+02 -0.17757108074E+03  0.20202585243E+03  0.00000000000E+00 0. -1.
</event>
<event>
 7    1  0.2380582E-009  0.1395130E+03  0.7561462E-02  0.1213986E+00
          4   -1    0    0  501    0  0.00000000000E+00  0.00000000000E+00  0.15824789996E+03  0.15824789996E+03  0.00000000000E+00 0. -1.
         -4   -1    0    0    0  501 -0.00000000000E+00 -0.00000000000E+00 -0.19648237112E+03  0.19648237112E+03  0.00000000000E+00 0.  1.
         25    2    1    2    0    0 -0.11036632981E+03 -0.24328528097E+02 -0.96600812439E+02  0.19429847238E+03  0.12509026888E+03 0.  0.
          5    1    3    3  502    0 -0.40471148254E+02 -0.70967944221E+02 -0.64793945957E+02  0.10435559774E+03  0.41800000000E+01 0.  1.
         -5    1    3    3    0  502 -0.69895181557E+02  0.46639416124E+02 -0.31806866482E+02  0.89942874630E+02  0.41800000000E+01 0.  1.
        -11    1    1    2    0    0  0.51202686353E+02  0.13395959736E+02 -0.24260101425E+02  0.58221296346E+02  0.00000000000E+00 0.  1.
         11    1    1    2    0    0  0.59163643459E+02  0.10932568361E+02  0.82626442700E+02  0.10221050235E+03  0.00000000000E+00 0. -1.
</event>
<event>
 7    1  0.2380582E-009  0.1761671E+03  0.7561462E-02  0.1171565E+00
         -2   -1    0    0    0  501 -0.00000000000E+00  0.00000000000E+00  0.26032964980E+03  0.26032964980E+03  0.00000000000E+00 0.  1.
          2   -1    0    0  501    0  0.00000000000E+00 -0.00000000000E+00 -0.15361527478E+03  0.15361527478E+03  0.00000000000E+00 0. -1.
         25    2    1    2    0    0 -0.14003263943E+03 -0.89421230837E+02  0.75546371353E+02  0.22127347748E+03  0.12509756585E+03 0.  0.
          5    1    3    3  502    0 -0.13872998424E+03 -0.56130958687E+02  0.12990737307E+02  0.15027616147E+03  0.41800000000E+01 0.  1.
         -5    1    3    3    0  502 -0.13026551970E+01 -0.33290272150E+02  0.62555634046E+02  0.70997316014E+02  0.41800000000E+01 0.  1.
        -11    1    1    2    0    0  0.80080405731E+02  0.32661705486E+02  0.59959118072E+02  0.10523665819E+03  0.00000000000E+00 0.  1.
         11    1    1    2    0    0  0.59952233702E+02  0.56759525351E+02 -0.28791114402E+02  0.87434788914E+02  0.00000000000E+00 0. -1.
</event>
<event>
 7    1  0.2380582E-009  0.1149482E+03  0.7561462E-02  0.1251672E+00
          1   -1    0    0  501    0  0.00000000000E+00  0.00000000000E+00  0.27602037426E+02  0.27602037426E+02  0.00000000000E+00 0. -1.
         -1   -1    0    0    0  501 -0.00000000000E+00 -0.00000000000E+00 -0.56050456294E+03  0.56050456294E+03  0.00000000000E+00 0.  1.
         25    2    1    2    0    0 -0.28138349211E+02 -0.49255033234E+02 -0.36752529461E+03  0.39235195235E+03  0.12508951730E+03 0.  0.
          5    1    3    3  502    0  0.29711846057E+02  0.27772491021E+02 -0.10499416903E+03  0.11267365701E+03  0.41800000000E+01 0. -1.
         -5    1    3    3    0  502 -0.57850195268E+02 -0.77027524254E+02 -0.26253112558E+03  0.27967829534E+03  0.41800000000E+01 0. -1.
        -11    1    1    2    0    0 -0.45247501634E+01 -0.17604726903E+02 -0.48399428919E+01  0.18810231805E+02  0.00000000000E+00 0. -1.
         11    1    1    2    0    0  0.32663099375E+02  0.66859760137E+02 -0.16053728801E+03  0.17694441621E+03  0.00000000000E+00 0.  1.
</event>
<event>
 7    1  0.2380582E-009  0.1125044E+03  0.7561462E-02  0.1256001E+00
          2   -1    0    0  501    0  0.00000000000E+00  0.00000000000E+00  0.65702763872E+03  0.65702763872E+03  0.00000000000E+00 0. -1.
         -2   -1    0    0    0  501 -0.00000000000E+00 -0.00000000000E+00 -0.36402226357E+02  0.36402226357E+02  0.00000000000E+00 0.  1.
         25    2    1    2    0    0  0.29477731311E+02 -0.87832171828E+02  0.39383305835E+03  0.42348045054E+03  0.12509111514E+03 0.  0.
          5    1    3    3  502    0 -0.19886834507E+02  0.10021403634E+02  0.10888304467E+02  0.25138462397E+02  0.41800000000E+01 0.  1.
         -5    1    3    3    0  502  0.49364565818E+02 -0.97853575462E+02  0.38294475388E+03  0.39834198814E+03  0.41800000000E+01 0.  1.
        -11    1    1    2    0    0 -0.14444101978E+02  0.46360607936E+02  0.11124689312E+02  0.49816631384E+02  0.00000000000E+00 0.  1.
         11    1    1    2    0    0 -0.15033629332E+02  0.41471563892E+02  0.21566766469E+03  0.22013278315E+03  0.00000000000E+00 0. -1.
</event>
<event>
 7    1  0.2380582E-009  0.1270448E+03  0.7561462E-02  0.1231908E+00
         -2   -1    0    0    0  501 -0.00000000000E+00  0.00000000000E+00  0.78396842030E+02  0.78396842030E+02  0.00000000000E+00 0.  1.
          2   -1    0    0  501    0  0.00000000000E+00 -0.00000000000E+00 -0.24665123263E+03  0.24665123263E+03  0.00000000000E+00 0. -1.
         25    2    1    2    0    0 -0.78644544880E+02  0.35397253412E+02 -0.74499689632E+02  0.16921866729E+03  0.12508726400E+03 0.  0.
          5    1    3    3  502    0 -0.56720415446E+02 -0.42425794676E+02 -0.33383641550E+02  0.78416155895E+02  0.41800000000E+01 0. -1.
         -5    1    3    3    0  502 -0.21924129434E+02  0.77823048089E+02 -0.41116048082E+02  0.90802511392E+02  0.41800000000E+01 0. -1.
        -11    1    1    2    0    0  0.77568527988E+02 -0.11692231575E+02 -0.10376089520E+03  0.13007654741E+03  0.00000000000E+00 0. -1.
         11    1    1    2    0    0  0.10760168921E+01 -0.23705021838E+02  0.10006194241E+02  0.25752859955E+02  0.00000000000E+00 0.  1.
</event>
<event>
 7    1  0.2380582E-009  0.1494009E+03  0.7561462E-02  0.1201211E+00
          2   -1    0    0  501    0  0.00000000000E+00  0.00000000000E+00  0.10689102059E+03  0.10689102059E+03  0.00000000000E+00 0.  1.
         -2   -1    0    0    0  501 -0.00000000000E+00 -0.00000000000E+00 -0.22998189863E+03  0.22998189863E+03  0.00000000000E+00 0. -1.
         25    2    1    2    0    0 -0.90774928373E+02  0.65781756287E+02 -0.78115136531E+02  0.18524781134E+03  0.12508976764E+03 0.  0.
          5    1    3    3  502    0 -0.36800923661E+02  0.89543972459E+02 -0.80649500774E+02  0.12607238144E+03  0.41800000000E+01 0.  1.
         -5    1    3    3    0  502 -0.53974004712E+02 -0.23762216171E+02  0.25343642429E+01  0.59175429903E+02  0.41800000000E+01 0.  1.
        -11    1    1    2    0    0  0.61554515896E+02 -0.87066872001E+02 -0.44308801968E+02  0.11546804129E+03  0.00000000000E+00 0. -1.
         11    1    1    2    0    0  0.29220412477E+02  0.21285115714E+02 -0.66693953319E+00  0.36157066593E+02  0.00000000000E+00 0.  1.
</event>
<event>
 7    1  0.2380582E-009  0.1131325E+03  0.7561462E-02  0.1254876E+00
         -2   -1    0    0    0  501 -0.00000000000E+00  0.00000000000E+00  0.16289147031E+02  0.16289147031E+02  0.00000000000E+00 0. -1.
          2   -1    0    0  501    0  0.00000000000E+00 -0.00000000000E+00 -0.14479758357E+04  0.14479758357E+04  0.00000000000E+00 0.  1.
         25    2    1    2    0    0 -0.18401659081E+02 -0.91361921724E+02 -0.10391423040E+04  0.10507855384E+04  0.12509155818E+03 0.  0.
          5    1    3    3  502    0 -0.49099390088E+01 -0.74164947966E+02 -0.23882176169E+03  0.25015565807E+03  0.41800000000E+01 0.  1.
         -5    1    3    3    0  502 -0.13491720073E+02 -0.17196973758E+02 -0.80032054228E+03  0.80062988029E+03  0.41800000000E+01 0.  1.
        -11    1    1    2    0    0  0.52551232950E+02  0.75309447868E+02 -0.26432800700E+03  0.27982573203E+03  0.00000000000E+00 0.  1.
         11    1    1    2    0    0 -0.34149573868E+02  0.16052473856E+02 -0.12821637773E+03  0.13365371237E+03  0.00000000000E+00 0. -1.
</event>
<event>
 7    1  0.2380582E-009  0.9020424E+02  0.7561462E-02  0.1302358E+00
         -2   -1    0    0    0  501 -0.00000000000E+00  0.00000000000E+00  0.40061701158E+03  0.40061701158E+03  0.00000000000E+00 0.  1.
          2   -1    0    0  501    0  0.00000000000E+00 -0.00000000000E+00 -0.30953610124E+02  0.30953610124E+02  0.00000000000E+00 0. -1.
         25    2    1    2    0    0 -0.28406750081E+02  0.10109035019E+02  0.23510967792E+03  0.26801817942E+03  0.12509215727E+03 0.  0.
          5    1    3    3  502    0 -0.54712763878E+02 -0.38966587962E+02  0.88845566924E+02  0.11145801304E+03  0.41800000000E+01 0.  1.
         -5    1    3    3    0  502  0.26306013796E+02  0.49075622981E+02  0.14626411099E+03  0.15656016638E+03  0.41800000000E+01 0.  1.
        -11    1    1    2    0    0  0.20047487714E+02 -0.29778441371E+02  0.10120534316E+02  0.37297219051E+02  0.00000000000E+00 0. -1.
         11    1    1    2    0    0  0.83592623676E+01  0.19669406352E+02  0.12443318923E+03  0.12625522324E+03  0.00000000000E+00 0.  1.
</event>
<event>
 7    1  0.2380582E-009  0.7317840E+02  0.7561462E-02  0.1349607E+00
          1   -1    0    0  501    0  0.00000000000E+00  0.00000000000E+00  0.13795893948E+03  0.13795893948E+03  0.00000000000E+00 0. -1.
         -1   -1    0    0    0  501 -0.00000000000E+00 -0.00000000000E+00 -0.15470082023E+03  0.15470082023E+03  0.00000000000E+00 0.  1.
         25    2    1    2    0    0 -0.10964116122E+02 -0.25019885089E+02  0.83450965673E+02  0.15284002708E+03  0.12509917551E+03 0.  0.
          5    1    3    3  502    0  0.24564002691E+02 -0.35871915661E+01 -0.25711306789E+02  0.35983355434E+02  0.41800000000E+01 0.  1.
         -5    1    3    3    0  502 -0.35528118813E+02 -0.21432693523E+02  0.10916227246E+03  0.11685667164E+03  0.41800000000E+01 0.  1.
        -11    1    1    2    0    0  0.43068472273E+02  0.11016970540E+02 -0.13722344057E+02  0.46524936005E+02  0.00000000000E+00 0. -1.
         11    1    1    2    0    0 -0.32104356151E+02  0.14002914549E+02 -0.86470502367E+02  0.93294796636E+02  0.00000000000E+00 0.  1.
</event>
<event>
 7    1  0.2380582E-009  0.1286266E+03  0.7561462E-02  0.1229508E+00
         -1   -1    0    0    0  501 -0.00000000000E+00  0.00000000000E+00  0.60344700156E+02  0.60344700156E+02  0.00000000000E+00 0.  1.
          1   -1    0    0  501    0  0.00000000000E+00 -0.00000000000E+00 -0.39076834815E+03  0.39076834815E+03  0.00000000000E+00 0. -1.
         25    2    1    2    0    0  0.43294912568E+02 -0.81235994630E+02 -0.25735245621E+03  0.30058734860E+03  0.12509488857E+03 0.  0.
          5    1    3    3  502    0  0.87668050235E+02 -0.54685605197E+02 -0.16879666784E+03  0.19795451478E+03  0.41800000000E+01 0. -1.
         -5    1    3    3    0  502 -0.44373137666E+02 -0.26550389433E+02 -0.88555788368E+02  0.10263283382E+03  0.41800000000E+01 0. -1.
        -11    1    1    2    0    0 -0.74124292478E+01  0.59610022609E+02  0.66802964284E+01  0.60439434670E+02  0.00000000000E+00 0.  1.
         11    1    1    2    0    0 -0.35882483321E+02  0.21625972021E+02 -0.79751488213E+02  0.90086265031E+02  0.00000000000E+00 0. -1.
</event>
<event>
 7    1  0.2380582E-009  0.1088863E+03  0.7561462E-02  0.1262646E+00
          2   -1    0    0  501    0  0.00000000000E+00  0.00000000000E+00  0.31431025061E+03  0.31431025061E+03  0.00000000000E+00 0. -1.
         -2   -1    0    0    0  501 -0.00000000000E+00 -0.00000000000E+00 -0.40863051900E+02  0.40863051900E+02  0.00000000000E+00 0.  1.
         25    2    1    2    0    0 -0.25956493336E+02  0.77676141899E+01  0.12180426196E+03  0.17668662447E+03  0.12509120536E+03 0.  0.
          5    1    3    3  502    0 -0.45890805989E+02 -0.47566506331E+02  0.45931030891E+02  0.80595723196E+02  0.41800000000E+01 0.  1.
         -5    1    3    3    0  502  0.19934312653E+02  0.55334120521E+02  0.75873231070E+02  0.96090901275E+02  0.41800000000E+01 0.  1.
        -11    1    1    2    0    0 -0.32211248127E+02 -0.11727197425E+02  0.72415353269E+02  0.80119130390E+02  0.00000000000E+00 0.  1.
         11    1    1    2    0    0  0.58167741462E+02  0.39595832351E+01  0.79227583479E+02  0.98367547648E+02  0.00000000000E+00 0. -1.
</event>
<event>
 7    1  0.2380582E-009  0.2161724E+03  0.7561462E-02  0.1136769E+00
          2   -1    0    0  501    0  0.00000000000E+00  0.00000000000E+00  0.15114274810E+04  0.15114274810E+04  0.00000000000E+00 0. -1.
         -2   -1    0    0    0  501 -0.00000000000E+00 -0.00000000000E+00 -0.32650517013E+02  0.32650517013E+02  0.00000000000E+00 0.  1.
         25    2    1    2    0    0  0.18942277890E+03  0.37569261015E+02  0.71082311394E+03  0.74713370541E+03  0.12508731315E+03 0.  0.
          5    1    3    3  502    0  0.12268291654E+03  0.83843927014E+02  0.44834790453E+03  0.47234967768E+03  0.41800000000E+01 0.  1.
         -5    1    3    3    0  502  0.66739862355E+02 -0.46274665999E+02  0.26247520941E+03  0.27478402773E+03  0.41800000000E+01 0.  1.
        -11    1    1    2    0    0 -0.13009241809E+03  0.36197437418E+01  0.36356929597E+03  0.38616029413E+03  0.00000000000E+00 0. -1.
         11    1    1    2    0    0 -0.59330360813E+02 -0.41189004757E+02  0.40438455412E+03  0.41078399852E+03  0.00000000000E+00 0.  1.
</event>
<event>
 7    1  0.2380582E-009  0.1417818E+03  0.7561462E-02  0.1210951E+00
         -2   -1    0    0    0  501 -0.00000000000E+00  0.00000000000E+00  0.12533189999E+03  0.12533189999E+03  0.00000000000E+00 0.  1.
          2   -1    0    0  501    0  0.00000000000E+00 -0.00000000000E+00 -0.23135809100E+03  0.23135809100E+03  0.00000000000E+00 0. -1.
         25    2    1    2    0    0  0.12721607829E+01  0.11581363115E+03  0.87024025776E+01  0.17069714768E+03  0.12508944345E+03 0.  0.
          5    1    3    3  502    0  0.42229873169E+02  0.63675360690E+01 -0.24144818780E+02  0.49237712959E+02  0.41800000000E+01 0.  1.
         -5    1    3    3    0  502 -0.40957712386E+02  0.10944609508E+03  0.32847221358E+02  0.12145943472E+03  0.41800000000E+01 0.  1.
        -11    1    1    2    0    0 -0.14473550858E+02 -0.10669960197E+03 -0.48940330997E+02  0.11827698311E+03  0.00000000000E+00 0.  1.
         11    1    1    2    0    0  0.13201390075E+02 -0.91140291790E+01 -0.65788262592E+02  0.67715860200E+02  0.00000000000E+00 0. -1.
</event>
<event>
 7    1  0.2380582E-009  0.4031368E+03  0.7561462E-02  0.1042699E+00
          1   -1    0    0  501    0  0.00000000000E+00  0.00000000000E+00  0.36524639803E+03  0.36524639803E+03  0.00000000000E+00 0. -1.
         -1   -1    0    0    0  501 -0.00000000000E+00 -0.00000000000E+00 -0.53333280981E+03  0.53333280981E+03  0.00000000000E+00 0.  1.
         25    2    1    2    0    0  0.12804693110E+03 -0.37652111966E+03 -0.24507175554E+03  0.48360332344E+03  0.12509132248E+03 0.  0.
          5    1    3    3  502    0 -0.55602012499E+01 -0.86556316111E+02 -0.10630081190E+02  0.87483614025E+02  0.41800000000E+01 0. -1.
         -5    1    3    3    0  502  0.13360713235E+03 -0.28996480355E+03 -0.23444167435E+03  0.39611970942E+03  0.41800000000E+01 0. -1.
        -11    1    1    2    0    0 -0.10923418817E+03  0.25846685873E+03  0.90106519702E+02  0.29471411541E+03  0.00000000000E+00 0. -1.
         11    1    1    2    0    0 -0.18812742935E+02  0.11805426093E+03 -0.13121175940E+02  0.12026176898E+03  0.00000000000E+00 0.  1.
</event>
<event>
 7    1  0.2380582E-009  0.1337582E+03  0.7561462E-02  0.1221983E+00
          1   -1    0    0  501    0  0.00000000000E+00  0.00000000000E+00  0.93421232722E+03  0.93421232722E+03  0.00000000000E+00 0. -1.
         -1   -1    0    0    0  501 -0.00000000000E+00 -0.00000000000E+00 -0.21951584857E+02  0.21951584857E+02  0.00000000000E+00 0.  1.
         25    2    1    2    0    0  0.82706831502E+02 -0.11800414118E+02  0.63506747203E+03  0.65263914517E+03  0.12508992775E+03 0.  0.
          5    1    3    3  502    0  0.11088556710E+03  0.14164380807E+02  0.46840661738E+03  0.48157914228E+03  0.41800000000E+01 0.  1.
         -5    1    3    3    0  502 -0.28178735593E+02 -0.25964794924E+02  0.16666085466E+03  0.17106000289E+03  0.41800000000E+01 0.  1.
        -11    1    1    2    0    0 -0.37760786958E+01 -0.28316053029E+02  0.32315517491E+02  0.43131778310E+02  0.00000000000E+00 0.  1.
         11    1    1    2    0    0 -0.78930752807E+02  0.40116467147E+02  0.24487775283E+03  0.26039298859E+03  0.00000000000E+00 0. -1.
</event>
<event>
 7    1  0.2380582E-009  0.1194409E+03  0.7561462E-02  0.1244022E+00
         -1   -1    0    0    0  501 -0.00000000000E+00  0.00000000000E+00  0.16953885860E+02  0.16953885860E+02  0.00000000000E+00 0.  1.
          1   -1    0    0  501    0  0.00000000000E+00 -0.00000000000E+00 -0.11996168216E+04  0.11996168216E+04  0.00000000000E+00 0. -1.
         25    2    1    2    0    0  0.86185486286E+02 -0.18402895060E+02 -0.74657618027E+03  0.76209570964E+03  0.12508906073E+03 0.  0.
          5    1    3    3  502    0  0.88083918562E+02 -0.38058450819E+02 -0.29863066428E+03  0.31369566213E+03  0.41800000000E+01 0.  1.
         -5    1    3    3    0  502 -0.18984322768E+01  0.19655555760E+02 -0.44794551598E+03  0.44840004751E+03  0.41800000000E+01 0.  1.
        -11    1    1    2    0    0 -0.66549427966E+02 -0.28049957729E+02 -0.18975190869E+03  0.20303057244E+03  0.00000000000E+00 0.  1.
         11    1    1    2    0    0 -0.19636058319E+02  0.46452852789E+02 -0.24633484678E+03  0.25144442539E+03  0.00000000000E+00 0. -1.
</event>
<event>
 7    1  0.2758486E-009  0.1185652E+03  0.7561462E-02  0.1245483E+00
          1   -1    0    0  501    0  0.00000000000E+00  0.00000000000E+00  0.22032479148E+03  0.22032479148E+03  0.00000000000E+00 0. -1.
         -1   -1    0    0    0  501 -0.00000000000E+00 -0.00000000000E+00 -0.79770286497E+02  0.79770286497E+02  0.00000000000E+00 0.  1.
         25    2    1    2    0    0 -0.72188817204E+02 -0.17808060332E+02  0.93355980077E+02  0.17288215405E+03  0.12507816689E+03 0.  0.
          5    1    3    3  502    0  0.17323200091E+02 -0.38386287996E+02  0.66567167185E+00  0.42326302535E+02  0.41800000000E+01 0. -1.
         -5    1    3    3    0  502 -0.89512017295E+02  0.20578227664E+02  0.92690308405E+02  0.13055585152E+03  0.41800000000E+01 0. -1.
        -11    1    1    2    0    0  0.37613073698E+02 -0.26977821048E+02 -0.93463252855E+01  0.47221816334E+02  0.00000000000E+00 0.  1.
         11    1    1    2    0    0  0.34575743506E+02  0.44785881380E+02  0.56544850192E+02  0.79991107588E+02  0.00000000000E+00 0. -1.
</event>
<event>
 7    1  0.2380582E-009  0.1193877E+03  0.7561462E-02  0.1244111E+00
          2   -1    0    0  501    0  0.00000000000E+00  0.00000000000E+00  0.25576111482E+03  0.25576111482E+03  0.00000000000E+00 0. -1.
         -2   -1    0    0    0  501 -0.00000000000E+00 -0.00000000000E+00 -0.87376963542E+02  0.87376963542E+02  0.00000000000E+00 0.  1.
         25    2    1    2    0    0 -0.88869328968E+02  0.49183638080E+02  0.77906940003E+02  0.17897954970E+03  0.12508956801E+03 0.  0.
          5    1    3    3  502    0 -0.63071234957E+02  0.26754485185E+02  0.11145890031E+03  0.13089821242E+03  0.41800000000E+01 0.  1.
         -5    1    3    3    0  502 -0.25798094011E+02  0.22429152895E+02 -0.33551960309E+02  0.48081337281E+02  0.41800000000E+01 0.  1.
        -11    1    1    2    0    0 -0.12655237285E+02 -0.29749633292E+02  0.12436018037E+02  0.34638854720E+02  0.00000000000E+00 0. -1.
         11    1    1    2    0    0  0.10152456625E+03 -0.19434004788E+02  0.78041193234E+02  0.12951967393E+03  0.00000000000E+00 0.  1.
</event>
<event>
 7    1  0.2380582E-009  0.1208468E+03  0.7561462E-02  0.1241707E+00
         -1   -1    0    0    0  501 -0.00000000000E+00  0.00000000000E+00  0.11726059251E+03  0.11726059251E+03  0.00000000000E+00 0.  1.
          1   -1    0    0  501    0  0.00000000000E+00 -0.00000000000E+00 -0.23158728456E+03  0.23158728456E+03  0.00000000000E+00 0. -1.
         25    2    1    2    0    0 -0.32510158963E+02  0.62680683849E+02 -0.16772830901E+03  0.22083007730E+03  0.12508940337E+03 0.  0.
          5    1    3    3  502    0 -0.57797064451E+02  0.89125943661E+02 -0.11617433277E+03  0.15747343423E+03  0.41800000000E+01 0. -1.
         -5    1    3    3    0  502  0.25286905487E+02 -0.26445259812E+02 -0.51553976232E+02  0.63356643069E+02  0.41800000000E+01 0. -1.
        -11    1    1    2    0    0  0.45065290846E+02 -0.12409057120E+02  0.59698715479E+02  0.75820853118E+02  0.00000000000E+00 0.  1.
         11    1    1    2    0    0 -0.12555131883E+02 -0.50271626729E+02 -0.62970985261E+01  0.52196946658E+02  0.00000000000E+00 0. -1.
</event>
<event>
 7    1  0.2380582E-009  0.9423213E+02  0.7561462E-02  0.1292915E+00
         -2   -1    0    0    0  501 -0.00000000000E+00  0.00000000000E+00  0.46724426482E+02  0.46724426482E+02  0.00000000000E+00 0.  1.
          2   -1    0    0  501    0  0.00000000000E+00 -0.00000000000E+00 -0.29443656785E+03  0.29443656785E+03  0.00000000000E+00 0. -1.
         25    2    1    2    0    0  0.25327702282E+02 -0.80488406330E+01 -0.89651042441E+02  0.15617561081E+03  0.12508891103E+03 0.  0.
          5    1    3    3  502    0 -0.36823277090E+02  0.27147329754E+02 -0.66792554614E+02  0.81065707918E+02  0.41800000000E+01 0.  1.
         -5    1    3    3    0  502  0.62150979372E+02 -0.35196170387E+02 -0.22858487827E+02  0.75109902893E+02  0.41800000000E+01 0.  1.
        -11    1    1    2    0    0  0.48298358961E+01 -0.25449984525E+02 -0.62822352989E+01  0.26655121599E+02  0.00000000000E+00 0.  1.
         11    1    1    2    0    0 -0.30157538178E+02  0.33498825158E+02 -0.15177886363E+03  0.15833026192E+03  0.00000000000E+00 0. -1.
</event>
<event>
 7    1  0.2380582E-009  0.1132631E+03  0.7561462E-02  0.1254644E+00
         -2   -1    0    0    0  501 -0.00000000000E+00  0.00000000000E+00  0.19806599085E+02  0.19806599085E+02  0.00000000000E+00 0.  1.
          2   -1    0    0  501    0  0.00000000000E+00 -0.00000000000E+00 -0.71888384095E+03  0.71888384095E+03  0.00000000000E+00 0. -1.
         25    2    1    2    0    0 -0.33307433680E+02 -0.25244791252E+02 -0.33485024062E+03  0.35988770933E+03  0.12509114702E+03 0.  0.
          5    1    3    3  502    0  0.88176800239E+01  0.42499616731E+02 -0.18505839945E+03  0.19012641192E+03  0.41800000000E+01 0.  1.
         -5    1    3    3    0  502 -0.42125113704E+02 -0.67744407983E+02 -0.14979184117E+03  0.16976129741E+03  0.41800000000E+01 0.  1.
        -11    1    1    2    0    0 -0.18187377369E+02 -0.25116581434E+02 -0.13548194487E+03  0.13898554150E+03  0.00000000000E+00 0.  1.
         11    1    1    2    0    0  0.51494811049E+02  0.50361372685E+02 -0.22874505637E+03  0.23981718921E+03  0.00000000000E+00 0. -1.
</event>
<event>
 7    1  0.2380582E-009  0.1700761E+03  0.7561462E-02  0.1177768E+00
          2   -1    0    0  501    0  0.00000000000E+00  0.00000000000E+00  0.29469474576E+03  0.29469474576E+03  0.00000000000E+00 0.  1.
         -2   -1    0    0    0  501 -0.00000000000E+00 -0.00000000000E+00 -0.14856168354E+03  0.14856168354E+03  0.00000000000E+00 0. -1.
         25    2    1    2    0    0  0.10057317528E+03  0.11898363564E+03 -0.16423926241E+02  0.20047092487E+03  0.12508707858E+03 0.  0.
          5    1    3    3  502    0  0.59063875638E+01  0.52660588955E+02  0.44877868587E+02  0.69566648130E+02  0.41800000000E+01 0. -1.
         -5    1    3    3    0  502  0.94666787721E+02  0.66323046690E+02 -0.61301794828E+02  0.13090427674E+03  0.41800000000E+01 0. -1.
        -11    1    1    2    0    0 -0.43956295334E+02 -0.10378857829E+03  0.68315914497E+02  0.13180018610E+03  0.00000000000E+00 0.  1.
         11    1    1    2    0    0 -0.56616879951E+02 -0.15195057358E+02  0.94241073966E+02  0.11098531833E+03  0.00000000000E+00 0. -1.
</event>
<event>
 7    1  0.2380582E-009  0.1618630E+03  0.7561462E-02  0.1186609E+00
         -1   -1    0    0    0  501 -0.00000000000E+00  0.00000000000E+00  0.38163935211E+02  0.38163935211E+02  0.00000000000E+00 0.  1.
          1   -1    0    0  501    0  0.00000000000E+00 -0.00000000000E+00 -0.88302914220E+03  0.88302914220E+03  0.00000000000E+00 0. -1.
         25    2    1    2    0    0 -0.14389742944E+03  0.73172335477E+01 -0.52085131366E+03  0.55470563250E+03  0.12510889531E+03 0.  0.
          5    1    3    3  502    0 -0.11058591531E+03  0.50274832148E+02 -0.24472422551E+03  0.27324754778E+03  0.41800000000E+01 0. -1.
         -5    1    3    3    0  502 -0.33311514126E+02 -0.42957598600E+02 -0.27612708815E+03  0.28145808473E+03  0.41800000000E+01 0. -1.
        -11    1    1    2    0    0  0.84250564726E+02  0.11681480763E+02 -0.27234673738E+03  0.28531975047E+03  0.00000000000E+00 0. -1.
         11    1    1    2    0    0  0.59646864712E+02 -0.18998714311E+02 -0.51667155950E+02  0.81167694432E+02  0.00000000000E+00 0.  1.
</event>
<event>
 7    1  0.2461172E-009  0.7234080E+02  0.7561462E-02  0.1352309E+00
          2   -1    0    0  501    0  0.00000000000E+00  0.00000000000E+00  0.15434410692E+03  0.15434410692E+03  0.00000000000E+00 0. -1.
         -2   -1    0    0    0  501 -0.00000000000E+00 -0.00000000000E+00 -0.10312373238E+03  0.10312373238E+03  0.00000000000E+00 0.  1.
         25    2    1    2    0    0 -0.22002877454E+02 -0.19675632877E+02 -0.29489611552E+02  0.13186447983E+03  0.12508935488E+03 0.  0.
          5    1    3    3  502    0  0.22411232686E+02 -0.18342827971E+02 -0.67290491066E+02  0.73377144101E+02  0.41800000000E+01 0. -1.
         -5    1    3    3    0  502 -0.44414110140E+02 -0.13328049058E+01  0.37800879514E+02  0.58487335727E+02  0.41800000000E+01 0. -1.
        -11    1    1    2    0    0 -0.22732421382E+02  0.24926020035E+01  0.73706211455E+02  0.77172415109E+02  0.00000000000E+00 0. -1.
         11    1    1    2    0    0  0.44735298836E+02  0.17183030873E+02  0.70037746362E+01  0.48430944355E+02  0.00000000000E+00 0.  1.
</event>
<event>
 7    1  0.2380582E-009  0.7436362E+02  0.7561462E-02  0.1345853E+00
          2   -1    0    0  501    0  0.00000000000E+00  0.00000000000E+00  0.62516193156E+03  0.62516193156E+03  0.00000000000E+00 0. -1.
         -2   -1    0    0    0  501 -0.00000000000E+00 -0.00000000000E+00 -0.28580499164E+02  0.28580499164E+02  0.00000000000E+00 0.  1.
         25    2    1    2    0    0  0.60825410588E+02  0.18777050265E+02  0.43520295836E+03  0.45727527992E+03  0.12508700362E+03 0.  0.
          5    1    3    3  502    0  0.76523152131E+01 -0.12416832482E-01  0.37341131452E+03  0.37351310592E+03  0.41800000000E+01 0.  1.
         -5    1    3    3    0  502  0.53173095374E+02  0.18789467097E+02  0.61791643840E+02  0.83762174004E+02  0.41800000000E+01 0.  1.
        -11    1    1    2    0    0 -0.70626030466E+02 -0.12244589422E+02  0.16821380811E+03  0.18284925865E+03  0.00000000000E+00 0. -1.
         11    1    1    2    0    0  0.98006198789E+01 -0.65324608423E+01 -0.68353340752E+01  0.13617892149E+02  0.00000000000E+00 0.  1.
</event>
<event>
 7    1  0.2380582E-009  0.1759958E+03  0.7561462E-02  0.1171736E+00
         -2   -1    0    0    0  501 -0.00000000000E+00  0.00000000000E+00  0.38228536863E+02  0.38228536863E+02  0.00000000000E+00 0.  1.
          2   -1    0    0  501    0  0.00000000000E+00 -0.00000000000E+00 -0.90423341988E+03  0.90423341988E+03  0.00000000000E+00 0. -1.
         25    2    1    2    0    0  0.36847064410E+02 -0.13884141795E+03 -0.59644554805E+03  0.62612295828E+03  0.12509205252E+03 0.  0.
          5    1    3    3  502    0  0.47423434192E+02  0.68216505117E+00 -0.10834365507E+03  0.11834385262E+03  0.41800000000E+01 0. -1.
         -5    1    3    3    0  502 -0.10576369782E+02 -0.13952358300E+03 -0.48810189298E+03  0.50777910566E+03  0.41800000000E+01 0. -1.
        -11    1    1    2    0    0  0.65741521931E+01  0.11435439616E+03 -0.16986677119E+03  0.20487768877E+03  0.00000000000E+00 0.  1.
         11    1    1    2    0    0 -0.43421216603E+02  0.24487021789E+02 -0.99692563775E+02  0.11146130970E+03  0.00000000000E+00 0. -1.
</event>
<event>
 7    1  0.2380582E-009  0.9960221E+02  0.7561462E-02  0.1281135E+00
          2   -1    0    0  501    0  0.00000000000E+00  0.00000000000E+00  0.23908733727E+03  0.23908733727E+03  0.00000000000E+00 0.  1.
         -2   -1    0    0    0  501 -0.00000000000E+00 -0.00000000000E+00 -0.77018902238E+02  0.77018902238E+02  0.00000000000E+00 0. -1.
         25    2    1    2    0    0 -0.21342910382E+02  0.47745680908E+02  0.15099574784E+03  0.20293536284E+03  0.12509146956E+03 0.  0.
          5    1    3    3  502    0  0.28065701556E+01 -0.25482105275E+02 -0.71524707672E+01  0.26941506331E+02  0.41800000000E+01 0.  1.
         -5    1    3    3    0  502 -0.24149480538E+02  0.73227786183E+02  0.15814821861E+03  0.17599385651E+03  0.41800000000E+01 0.  1.
        -11    1    1    2    0    0  0.31462913887E+01  0.22870742272E+02 -0.23081714539E+02  0.32645605334E+02  0.00000000000E+00 0. -1.
         11    1    1    2    0    0  0.18196618993E+02 -0.70616423179E+02  0.34154401723E+02  0.80525271328E+02  0.00000000000E+00 0.  1.
</event>
<event>
 7    1  0.3036867E-009  0.9196255E+02  0.7561462E-02  0.1298168E+00
         -1   -1    0    0    0  501 -0.00000000000E+00  0.00000000000E+00  0.55416228806E+02  0.55416228806E+02  0.00000000000E+00 0.  1.
          1   -1    0    0  501    0  0.00000000000E+00 -0.00000000000E+00 -0.33395616648E+03  0.33395616648E+03  0.00000000000E+00 0. -1.
         25    2    1    2    0    0  0.29022911579E+02 -0.54884390959E+02 -0.22869806139E+03  0.26796483020E+03  0.12509085168E+03 0.  0.
          5    1    3    3  502    0 -0.47875260283E+01  0.24916363695E+02 -0.26676049407E+01  0.25852158544E+02  0.41800000000E+01 0. -1.
         -5    1    3    3    0  502  0.33810437607E+02 -0.79800754654E+02 -0.22603045645E+03  0.24211267166E+03  0.41800000000E+01 0. -1.
        -11    1    1    2    0    0 -0.68669704462E+01  0.47639722890E+02 -0.73717556303E+02  0.88039630778E+02  0.00000000000E+00 0. -1.
         11    1    1    2    0    0 -0.22155941133E+02  0.72446680688E+01  0.23875680025E+02  0.33367934301E+02  0.00000000000E+00 0.  1.
</event>
<event>
 7    1  0.2380582E-009  0.1385941E+03  0.7561462E-02  0.1215233E+00
         -1   -1    0    0    0  501 -0.00000000000E+00  0.00000000000E+00  0.41739932474E+02  0.41739932474E+02  0.00000000000E+00 0.  1.
          1   -1    0    0  501    0  0.00000000000E+00 -0.00000000000E+00 -0.64386921573E+03  0.64386921573E+03  0.00000000000E+00 0. -1.
         25    2    1    2    0    0  0.16146979055E+02  0.11917035568E+03 -0.25405126192E+03  0.30765423884E+03  0.12508712319E+03 0.  0.
          5    1    3    3  502    0  0.38654858727E+02  0.77309549155E+02 -0.24400616449E+03  0.25889659172E+03  0.41800000000E+01 0.  1.
         -5    1    3    3    0  502 -0.22507879672E+02  0.41860806524E+02 -0.10045097426E+02  0.48757647118E+02  0.41800000000E+01 0.  1.
        -11    1    1    2    0    0  0.31782072266E+01  0.10945510497E+02 -0.99100445062E+01  0.15103449385E+02  0.00000000000E+00 0.  1.
         11    1    1    2    0    0 -0.19325186282E+02 -0.13011586618E+03 -0.33816797683E+03  0.36285145998E+03  0.00000000000E+00 0. -1.
</event>
<event>
 7    1  0.2380582E-009  0.1025813E+03  0.7561462E-02  0.1274960E+00
         -1   -1    0    0    0  501 -0.00000000000E+00  0.00000000000E+00  0.81126870630E+02  0.81126870630E+02  0.00000000000E+00 0.  1.
          1   -1    0    0  501    0  0.00000000000E+00 -0.00000000000E+00 -0.23915358547E+03  0.23915358547E+03  0.00000000000E+00 0. -1.
         25    2    1    2    0    0  0.76888586104E+02  0.31816024134E+02 -0.55502899618E+02  0.16016185682E+03  0.12508850646E+03 0.  0.
          5    1    3    3  502    0  0.44178178429E+02 -0.13325241855E+02 -0.85108540870E+02  0.96903094113E+02  0.41800000000E+01 0.  1.
         -5    1    3    3    0  502  0.32710407675E+02  0.45141265989E+02  0.29605641251E+02  0.63258762707E+02  0.41800000000E+01 0.  1.
        -11    1    1    2    0    0 -0.12975355123E+02 -0.36602292034E+02 -0.85343752046E+02  0.93763765048E+02  0.00000000000E+00 0.  1.
         11    1    1    2    0    0 -0.63913230980E+02  0.47862678998E+01 -0.17180063171E+02  0.66354834227E+02  0.00000000000E+00 0. -1.
</event>
<event>
 7    1  0.2380582E-009  0.8661586E+02  0.7561462E-02  0.1311260E+00
          1   -1    0    0  501    0  0.00000000000E+00  0.00000000000E+00  0.54672658874E+02  0.54672658874E+02  0.00000000000E+00 0. -1.
         -1   -1    0    0    0  501 -0.00000000000E+00 -0.00000000000E+00 -0.27277423030E+03  0.27277423030E+03  0.00000000000E+00 0.  1.
         25    2    1    2    0    0 -0.33175733871E+02  0.26635066877E+02 -0.17590149503E+03  0.21999699333E+03  0.12508910829E+03 0.  0.
          5    1    3    3  502    0  0.31877114990E+02 -0.30072162914E+02 -0.76781040889E+02  0.88505853380E+02  0.41800000000E+01 0.  1.
         -5    1    3    3    0  502 -0.65052848861E+02  0.56707229791E+02 -0.99120454143E+02  0.13149113995E+03  0.41800000000E+01 0.  1.
        -11    1    1    2    0    0  0.21555152362E+02 -0.14329031186E+02 -0.70151018796E+02  0.74773733130E+02  0.00000000000E+00 0.  1.
         11    1    1    2    0    0  0.11620581509E+02 -0.12306035691E+02  0.27950942399E+02  0.32676162719E+02  0.00000000000E+00 0. -1.
</event>
<event>
 7    1  0.2380582E-009  0.2852553E+03  0.7561462E-02  0.1092853E+00
          1   -1    0    0  501    0  0.00000000000E+00  0.00000000000E+00  0.43771930015E+03  0.43771930015E+03  0.00000000000E+00 0. -1.
         -1   -1    0    0    0  501 -0.00000000000E+00 -0.00000000000E+00 -0.20581190139E+03  0.20581190139E+03  0.00000000000E+00 0.  1.
         25    2    1    2    0    0 -0.18772799461E+03  0.20634277615E+03  0.85451806909E+02  0.31744011984E+03  0.12508827742E+03 0.  0.
          5    1    3    3  502    0 -0.26550642572E+02  0.28827353395E+02 -0.31669319428E+02  0.50560568804E+02  0.41800000000E+01 0.  1.
         -5    1    3    3    0  502 -0.16117735204E+03  0.17751542275E+03  0.11712112634E+03  0.26687955103E+03  0.41800000000E+01 0.  1.
        -11    1    1    2    0    0  0.12174298945E+03 -0.71546189702E+02  0.67636341275E+02  0.15657230726E+03  0.00000000000E+00 0.  1.
         11    1    1    2    0    0  0.65985005163E+02 -0.13479658644E+03  0.78819250578E+02  0.16951877443E+03  0.00000000000E+00 0. -1.
</event>
<event>
 7    1  0.2380582E-009  0.1170702E+03  0.7561462E-02  0.1248010E+00
         -4   -1    0    0    0  501 -0.00000000000E+00  0.00000000000E+00  0.10847071854E+03  0.10847071854E+03  0.00000000000E+00 0.  1.
          4   -1    0    0  501    0  0.00000000000E+00 -0.00000000000E+00 -0.20197324530E+03  0.20197324530E+03  0.00000000000E+00 0. -1.
         25    2    1    2    0    0  0.13880754351E+02 -0.51943655836E+02 -0.13864151000E+03  0.19431998471E+03  0.12509184401E+03 0.  0.
          5    1    3    3  502    0  0.86010176618E+01 -0.92315399736E+02 -0.78409520828E+02  0.12149747277E+03  0.41800000000E+01 0.  1.
         -5    1    3    3    0  502  0.52797366889E+01  0.40371743900E+02 -0.60231989173E+02  0.72822511937E+02  0.41800000000E+01 0.  1.
        -11    1    1    2    0    0 -0.10492934130E+02  0.75690424775E+02  0.50436669062E+02  0.91558722443E+02  0.00000000000E+00 0.  1.
         11    1    1    2    0    0 -0.33878202211E+01 -0.23746768939E+02 -0.52976858258E+01  0.24565256685E+02  0.00000000000E+00 0. -1.
</event>
<event>
 7    1  0.2380582E-009  0.6934328E+02  0.7561462E-02  0.1362341E+00
          1   -1    0    0  501    0  0.00000000000E+00  0.00000000000E+00  0.34198986731E+02  0.34198986731E+02  0.00000000000E+00 0. -1.
         -1   -1    0    0    0  501 -0.00000000000E+00 -0.00000000000E+00 -0.37111769781E+03  0.37111769781E+03  0.00000000000E+00 0.  1.
         25    2    1    2    0    0  0.10482447675E+02  0.15567282510E+02 -0.15570298354E+03  0.20060647078E+03  0.12508922831E+03 0.  0.
          5    1    3    3  502    0 -0.18949694095E+02  0.27566514412E+02  0.72899372937E+01  0.34490856888E+02  0.41800000000E+01 0.  1.
         -5    1    3    3    0  502  0.29432141770E+02 -0.11999231902E+02 -0.16299292084E+03  0.16611561389E+03  0.41800000000E+01 0.  1.
        -11    1    1    2    0    0 -0.39313336220E+02  0.16293348352E+01 -0.16052308749E+03  0.16527508812E+03  0.00000000000E+00 0.  1.
         11    1    1    2    0    0  0.28830888545E+02 -0.17196617345E+02 -0.20692640054E+02  0.39435125647E+02  0.00000000000E+00 0. -1.
</event>
<event>
 7    1  0.2380582E-009  0.1479515E+03  0.7561462E-02  0.1203013E+00
         -2   -1    0    0    0  501 -0.00000000000E+00  0.00000000000E+00  0.53943681803E+02  0.53943681803E+02  0.00000000000E+00 0.  1.
          2   -1    0    0  501    0  0.00000000000E+00 -0.00000000000E+00 -0.44609694508E+03  0.44609694508E+03  0.00000000000E+00 0. -1.
         25    2    1    2    0    0  0.10155856678E+03  0.15114920825E+02 -0.27581882426E+03  0.31979093981E+03  0.12509043948E+03 0.  0.
          5    1    3    3  502    0  0.11809976114E+03  0.43326761922E+02 -0.19051925652E+03  0.22834145788E+03  0.41800000000E+01 0.  1.
         -5    1    3    3    0  502 -0.16541194365E+02 -0.28211841097E+02 -0.85299567737E+02  0.91449481930E+02  0.41800000000E+01 0.  1.
        -11    1    1    2    0    0 -0.10398994767E+03  0.16559296125E+02 -0.96283242743E+02  0.14268350409E+03  0.00000000000E+00 0. -1.
         11    1    1    2    0    0  0.24313808962E+01 -0.31674216949E+02 -0.20051196274E+02  0.37566182990E+02  0.00000000000E+00 0.  1.
</event>
<event>
 7    1  0.2413715E-009  0.9402574E+02  0.7561462E-02  0.1293386E+00
          1   -1    0    0  501    0  0.00000000000E+00  0.00000000000E+00  0.68959543825E+03  0.68959543825E+03  0.00000000000E+00 0.  1.
         -1   -1    0    0    0  501 -0.00000000000E+00 -0.00000000000E+00 -0.19457574608E+02  0.19457574608E+02  0.00000000000E+00 0. -1.
         25    2    1    2    0    0 -0.37252256097E+01  0.28444559937E+02  0.47190432631E+03  0.48904372547E+03  0.12508837650E+03 0.  0.
          5    1    3    3  502    0 -0.26649248667E+02  0.67767630813E+02  0.19115831223E+03  0.20460109231E+03  0.41800000000E+01 0.  1.
         -5    1    3    3    0  502  0.22924023057E+02 -0.39323070876E+02  0.28074601408E+03  0.28444263316E+03  0.41800000000E+01 0.  1.
        -11    1    1    2    0    0 -0.27832540515E+02 -0.14414254896E+01  0.16352274203E+03  0.16588072576E+03  0.00000000000E+00 0.  1.
         11    1    1    2    0    0  0.31557766124E+02 -0.27003134447E+02  0.34710795297E+02  0.54128561618E+02  0.00000000000E+00 0. -1.
</event>
<event>
 7    1  0.2380582E-009  0.1104654E+03  0.7561462E-02  0.1259711E+00
          1   -1    0    0  501    0  0.00000000000E+00  0.00000000000E+00  0.42103606325E+02  0.42103606325E+02  0.00000000000E+00 0. -1.
         -1   -1    0    0    0  501 -0.00000000000E+00 -0.00000000000E+00 -0.32577476207E+03  0.32577476207E+03  0.00000000000E+00 0.  1.
         25    2    1    2    0    0 -0.26496864985E+02  0.29577259003E+01 -0.21553228323E+03  0.25062403728E+03  0.12508961168E+03 0.  0.
          5    1    3    3  502    0  0.43534776986E+02  0.27411184667E+02 -0.67291350066E+02  0.84807122613E+02  0.41800000000E+01 0. -1.
         -5    1    3    3    0  502 -0.70031641971E+02 -0.24453458767E+02 -0.14824093317E+03  0.16581691466E+03  0.41800000000E+01 0. -1.
        -11    1    1    2    0    0  0.13125506595E+02  0.44145472570E+02 -0.38421239925E+02  0.59977440336E+02  0.00000000000E+00 0. -1.
         11    1    1    2    0    0  0.13371358390E+02 -0.47103198471E+02 -0.29717632593E+02  0.57276890787E+02  0.00000000000E+00 0.  1.
</event>
<event>
 7    1  0.2380582E-009  0.9495322E+02  0.7561462E-02  0.1291281E+00
         -1   -1    0    0    0  501 -0.00000000000E+00  0.00000000000E+00  0.89900518677E+02  0.89900518677E+02  0.00000000000E+00 0.  1.
          1   -1    0    0  501    0  0.00000000000E+00 -0.00000000000E+00 -0.19528580385E+03  0.19528580385E+03  0.00000000000E+00 0. -1.
         25    2    1    2    0    0  0.29791624136E+02  0.37869028075E+02 -0.12046532314E+03  0.18022566251E+03  0.12509113155E+03 0.  0.
          5    1    3    3  502    0  0.49346752321E+02 -0.23355139922E+01 -0.12559900299E+03  0.13503013939E+03  0.41800000000E+01 0. -1.
         -5    1    3    3    0  502 -0.19555128186E+02  0.40204542067E+02  0.51336798565E+01  0.45195523120E+02  0.41800000000E+01 0. -1.
        -11    1    1    2    0    0  0.14288531404E+02  0.18810649567E+02  0.22691846584E+02  0.32755496763E+02  0.00000000000E+00 0.  1.
         11    1    1    2    0    0 -0.44080155540E+02 -0.56679677642E+02 -0.76118086174E+01  0.72205163254E+02  0.00000000000E+00 0. -1.
</event>
<event>
 7    1  0.2380582E-009  0.2597378E+03  0.7561462E-02  0.1107301E+00
          2   -1    0    0  501    0  0.00000000000E+00  0.00000000000E+00  0.11257277144E+04  0.11257277144E+04  0.00000000000E+00 0. -1.
         -2   -1    0    0    0  501 -0.00000000000E+00 -0.00000000000E+00 -0.17492084010E+03  0.17492084010E+03  0.00000000000E+00 0.  1.
         25    2    1    2    0    0  0.20258656406E+03 -0.13318711228E+03  0.10014621809E+04  0.10379566337E+04  0.12508937110E+03 0.  0.
          5    1    3    3  502    0  0.16861731076E+03 -0.14803139869E+03  0.72359693032E+03  0.75759823287E+03  0.41800000000E+01 0. -1.
         -5    1    3    3    0  502  0.33969253302E+02  0.14844286408E+02  0.27786525061E+03  0.28035840081E+03  0.41800000000E+01 0. -1.
        -11    1    1    2    0    0 -0.11993081411E+03  0.12728804907E+03 -0.33392762673E+02  0.17804697191E+03  0.00000000000E+00 0. -1.
         11    1    1    2    0    0 -0.82655749955E+02  0.58990632116E+01 -0.17262543981E+02  0.84644948888E+02  0.00000000000E+00 0.  1.
</event>
<event>
 7    1  0.2380582E-009  0.1263760E+03  0.7561462E-02  0.1232934E+00
         -1   -1    0    0    0  501 -0.00000000000E+00  0.00000000000E+00  0.12438411270E+03  0.12438411270E+03  0.00000000000E+00 0.  1.
          1   -1    0    0  501    0  0.00000000000E+00 -0.00000000000E+00 -0.14937126737E+03  0.14937126737E+03  0.00000000000E+00 0. -1.
         25    2    1    2    0    0 -0.50264621284E+02  0.43464394240E+02 -0.64101573751E+02  0.15547891111E+03  0.12509594047E+03 0.  0.
          5    1    3    3  502    0  0.88616168255E+01 -0.38837815823E+02 -0.21614386300E+02  0.45514374497E+02  0.41800000000E+01 0. -1.
         -5    1    3    3    0  502 -0.59126238110E+02  0.82302210064E+02 -0.42487187451E+02  0.10996453661E+03  0.41800000000E+01 0. -1.
        -11    1    1    2    0    0  0.69474789219E+02 -0.67070669794E+01  0.19981959731E+02  0.72601720359E+02  0.00000000000E+00 0.  1.
         11    1    1    2    0    0 -0.19210167935E+02 -0.36757327261E+02  0.19132459354E+02  0.45674748608E+02  0.00000000000E+00 0. -1.
</event>
<event>
 7    1  0.2380582E-009  0.1513820E+03  0.7561462E-02  0.1198785E+00
          2   -1    0    0  501    0  0.00000000000E+00  0.00000000000E+00  0.10602505751E+04  0.10602505751E+04  0.00000000000E+00 0. -1.
         -2   -1    0    0    0  501 -0.00000000000E+00 -0.00000000000E+00 -0.26582539308E+02  0.26582539308E+02  0.00000000000E+00 0.  1.
         25    2    1    2    0    0  0.10677430503E+03  0.58762092423E+02  0.66873127467E+03  0.69116214245E+03  0.12509937535E+03 0.  0.
          5    1    3    3  502    0  0.15164844205E+02 -0.29078699064E+02  0.28621573227E+03  0.28811883145E+03  0.41800000000E+01 0.  1.
         -5    1    3    3    0  502  0.91609460828E+02  0.87840791487E+02  0.38251554240E+03  0.40304331100E+03  0.41800000000E+01 0.  1.
        -11    1    1    2    0    0 -0.78021346383E+02 -0.81291939742E+00  0.12661784566E+03  0.14872817544E+03  0.00000000000E+00 0. -1.
         11    1    1    2    0    0 -0.28752958650E+02 -0.57949173025E+02  0.23831891542E+03  0.24694279648E+03  0.00000000000E+00 0.  1.
</event>
<event>
 7    1  0.2380582E-009  0.1001689E+03  0.7561462E-02  0.1279941E+00
          3   -1    0    0  501    0  0.00000000000E+00  0.00000000000E+00  0.60528640929E+02  0.60528640929E+02  0.00000000000E+00 0. -1.
         -3   -1    0    0    0  501 -0.00000000000E+00 -0.00000000000E+00 -0.19157081098E+03  0.19157081098E+03  0.00000000000E+00 0.  1.
         25    2    1    2    0    0 -0.10622174162E+02 -0.18929156668E+02 -0.86694866662E+02  0.15373651278E+03  0.12509105444E+03 0.  0.
          5    1    3    3  502    0 -0.48479963707E+02  0.25109058701E+02 -0.77346489978E+02  0.94766679914E+02  0.41800000000E+01 0. -1.
         -5    1    3    3    0  502  0.37857789545E+02 -0.44038215369E+02 -0.93483766840E+01  0.58969832870E+02  0.41800000000E+01 0. -1.
        -11    1    1    2    0    0 -0.11880601358E+02 -0.30670858749E+02 -0.11979423093E+02  0.35005097381E+02  0.00000000000E+00 0.  1.
         11    1    1    2    0    0  0.22502775520E+02  0.49600015417E+02 -0.32367880295E+02  0.63357841742E+02  0.00000000000E+00 0. -1.
</event>
<event>
 7    1  0.2380582E-009  0.1068979E+03  0.7561462E-02  0.1266425E+00
         -2   -1    0    0    0  501 -0.00000000000E+00  0.00000000000E+00  0.22342468495E+02  0.22342468495E+02  0.00000000000E+00 0.  1.
          2   -1    0    0  501    0  0.00000000000E+00 -0.00000000000E+00 -0.83184592230E+03  0.83184592230E+03  0.00000000000E+00 0. -1.
         25    2    1    2    0    0 -0.49552864535E+02 -0.56795660722E+02 -0.54406448476E+03  0.56332416621E+03  0.12508684660E+03 0.  0.
          5    1    3    3  502    0 -0.50556667029E+01 -0.75598845649E+02 -0.17047180939E+03  0.18659811207E+03  0.41800000000E+01 0. -1.
         -5    1    3    3    0  502 -0.44497197832E+02  0.18803184927E+02 -0.37359267537E+03  0.37672605414E+03  0.41800000000E+01 0. -1.
        -11    1    1    2    0    0  0.16456972749E+02 -0.67423193829E+01 -0.20456165440E+01  0.17901825878E+02  0.00000000000E+00 0.  1.
         11    1    1    2    0    0  0.33095891786E+02  0.63537980105E+02 -0.26339335250E+03  0.27296239871E+03  0.00000000000E+00 0. -1.
</event>
<event>
 7    1  0.2380582E-009  0.1854307E+03  0.7561462E-02  0.1162648E+00
          1   -1    0    0  501    0  0.00000000000E+00  0.00000000000E+00  0.68342477262E+02  0.68342477262E+02  0.00000000000E+00 0. -1.
         -1   -1    0    0    0  501 -0.00000000000E+00 -0.00000000000E+00 -0.69067834918E+03  0.69067834918E+03  0.00000000000E+00 0.  1.
         25    2    1    2    0    0  0.14821883705E+03 -0.10528568383E+03 -0.40534309884E+03  0.46152552667E+03  0.12509550400E+03 0.  0.
          5    1    3    3  502    0  0.10515702311E+03 -0.71983290305E+02 -0.13487773244E+03  0.18560460312E+03  0.41800000000E+01 0.  1.
         -5    1    3    3    0  502  0.43061813945E+02 -0.33302393529E+02 -0.27046536639E+03  0.27592092355E+03  0.41800000000E+01 0.  1.
        -11    1    1    2    0    0 -0.22680992827E+02  0.43013388406E+02 -0.13585586339E+02  0.50489079749E+02  0.00000000000E+00 0. -1.
         11    1    1    2    0    0 -0.12553784422E+03  0.62272295429E+02 -0.20340718675E+03  0.24700622002E+03  0.00000000000E+00 0.  1.
</event>
<event>
 7    1  0.2380582E-009  0.1590937E+03  0.7561462E-02  0.1189724E+00
         -1   -1    0    0    0  501 -0.00000000000E+00  0.00000000000E+00  0.86243261777E+02  0.86243261777E+02  0.00000000000E+00 0.  1.
          1   -1    0    0  501    0  0.00000000000E+00 -0.00000000000E+00 -0.32552705103E+03  0.32552705103E+03  0.00000000000E+00 0. -1.
         25    2    1    2    0    0 -0.11692121375E+03  0.47823745245E+02 -0.10028031021E+03  0.20410834365E+03  0.12508554871E+03 0.  0.
          5    1    3    3  502    0  0.10906484085E+02  0.38341040239E+02 -0.55099952507E+02  0.68135628918E+02  0.41800000000E+01 0.  1.
         -5    1    3    3    0  502 -0.12782769784E+03  0.94827050063E+01 -0.45180357705E+02  0.13597271473E+03  0.41800000000E+01 0.  1.
        -11    1    1    2    0    0  0.83433506351E+02  0.89842904953E+01 -0.10186803702E+03  0.13198092447E+03  0.00000000000E+00 0.  1.
         11    1    1    2    0    0  0.33487707401E+02 -0.56808035741E+02 -0.37135442025E+02  0.75681044694E+02  0.00000000000E+00 0. -1.
</event>
<event>
 7    1  0.2380582E-009  0.1115332E+03  0.7561462E-02  0.1257757E+00
         -3   -1    0    0    0  501 -0.00000000000E+00  0.00000000000E+00  0.65790241463E+03  0.65790241463E+03  0.00000000000E+00 0.  1.
          3   -1    0    0  501    0  0.00000000000E+00 -0.00000000000E+00 -0.28564161061E+02  0.28564161061E+02  0.00000000000E+00 0. -1.
         25    2    1    2    0    0 -0.20825656196E+02 -0.30387862645E+02  0.53186696849E+03  0.54761901890E+03  0.12508791926E+03 0.  0.
          5    1    3    3  502    0 -0.68167566777E+02  0.84933942606E+01  0.29515301337E+03  0.30307050105E+03  0.41800000000E+01 0. -1.
         -5    1    3    3    0  502  0.47341910581E+02 -0.38881256906E+02  0.23671395512E+03  0.24454851785E+03  0.41800000000E+01 0. -1.
        -11    1    1    2    0    0 -0.14655175000E+02  0.50136087793E+02  0.77848080600E+02  0.93748200551E+02  0.00000000000E+00 0.  1.
         11    1    1    2    0    0  0.35480831196E+02 -0.19748225148E+02  0.19623204480E+02  0.45099356236E+02  0.00000000000E+00 0. -1.
</event>
<event>
 7    1  0.2380582E-009  0.2098892E+03  0.7561462E-02  0.1141654E+00
          1   -1    0    0  501    0  0.00000000000E+00  0.00000000000E+00  0.27552926827E+03  0.27552926827E+03  0.00000000000E+00 0. -1.
         -1   -1    0    0    0  501 -0.00000000000E+00 -0.00000000000E+00 -0.20189502254E+03  0.20189502254E+03  0.00000000000E+00 0.  1.
         25    2    1    2    0    0  0.93004273051E+02 -0.15762439973E+03 -0.64174879111E+02  0.23078440769E+03  0.12509109292E+03 0.  0.
          5    1    3    3  502    0 -0.12021866719E+02 -0.95382630963E+02 -0.48086242080E+02  0.10757383811E+03  0.41800000000E+01 0. -1.
         -5    1    3    3    0  502  0.10502613977E+03 -0.62241768770E+02 -0.16088637031E+02  0.12321056958E+03  0.41800000000E+01 0. -1.
        -11    1    1    2    0    0 -0.97312214315E+02  0.86678758666E+02  0.10919903941E+03  0.17002148237E+03  0.00000000000E+00 0. -1.
         11    1    1    2    0    0  0.43079412646E+01  0.70945641068E+02  0.28610085426E+02  0.76618400744E+02  0.00000000000E+00 0.  1.
</event>
<event>
 7    1  0.2380582E-009  0.8004809E+02  0.7561462E-02  0.1328915E+00
         -1   -1    0    0    0  501 -0.00000000000E+00  0.00000000000E+00  0.53279447463E+02  0.53279447463E+02  0.00000000000E+00 0.  1.
          1   -1    0    0  501    0  0.00000000000E+00 -0.00000000000E+00 -0.24093345406E+03  0.24093345406E+03  0.00000000000E+00 0. -1.
         25    2    1    2    0    0 -0.35724004051E+02 -0.24989956530E+02 -0.10896132182E+03  0.17152634051E+03  0.12509201990E+03 0.  0.
          5    1    3    3  502    0  0.17440288505E+02  0.78855123506E+00 -0.11082048617E+03  0.11226503477E+03  0.41800000000E+01 0.  1.
         -5    1    3    3    0  502 -0.53164292556E+02 -0.25778507765E+02  0.18591643515E+01  0.59261305737E+02  0.41800000000E+01 0.  1.
        -11    1    1    2    0    0  0.40161398249E+02  0.46215811983E+02 -0.80256801358E+02  0.10094549693E+03  0.00000000000E+00 0. -1.
         11    1    1    2    0    0 -0.44373941981E+01 -0.21225855453E+02  0.15641165797E+01  0.21741064087E+02  0.00000000000E+00 0.  1.
</event>
<event>
 7    1  0.2380582E-009  0.1005191E+03  0.7561462E-02  0.1279208E+00
          1   -1    0    0  501    0  0.00000000000E+00  0.00000000000E+00  0.28311233315E+03  0.28311233315E+03  0.00000000000E+00 0. -1.
         -1   -1    0    0    0  501 -0.00000000000E+00 -0.00000000000E+00 -0.50412676273E+02  0.50412676273E+02  0.00000000000E+00 0.  1.
         25    2    1    2    0    0  0.10580939032E+02  0.48321582312E+02  0.11687628633E+03  0.17819282737E+03  0.12508271595E+03 0.  0.
          5    1    3    3  502    0 -0.42985777644E+01  0.85815060205E+02  0.10539438861E+03  0.13604466869E+03  0.41800000000E+01 0. -1.
         -5    1    3    3    0  502  0.14879516796E+02 -0.37493477892E+02  0.11481897725E+02  0.42148158678E+02  0.41800000000E+01 0. -1.
        -11    1    1    2    0    0 -0.24071134788E+02 -0.54532266599E+02  0.12456955997E+03  0.13809693299E+03  0.00000000000E+00 0. -1.
         11    1    1    2    0    0  0.13490195756E+02  0.62106842866E+01 -0.87461894266E+01  0.17235249065E+02  0.00000000000E+00 0.  1.
</event>
<event>
 7    1  0.2380582E-009  0.1285861E+03  0.7561462E-02  0.1229569E+00
         -2   -1    0    0    0  501 -0.00000000000E+00  0.00000000000E+00  0.52070664117E+02  0.52070664117E+02  0.00000000000E+00 0.  1.
          2   -1    0    0  501    0  0.00000000000E+00 -0.00000000000E+00 -0.38148246006E+03  0.38148246006E+03  0.00000000000E+00 0. -1.
         25    2    1    2    0    0 -0.12214710071E+02 -0.91061870361E+02 -0.17509133080E+03  0.23398351854E+03  0.12509935832E+03 0.  0.
          5    1    3    3  502    0 -0.63454685337E+02 -0.33452653595E+02 -0.52065445778E+02  0.88734774287E+02  0.41800000000E+01 0.  1.
         -5    1    3    3    0  502  0.51239975266E+02 -0.57609216766E+02 -0.12302588502E+03  0.14524874425E+03  0.41800000000E+01 0.  1.
        -11    1    1    2    0    0  0.35025096690E+02  0.61387855460E+02 -0.44434703010E+02  0.83484543646E+02  0.00000000000E+00 0.  1.
         11    1    1    2    0    0 -0.22810386619E+02  0.29674014901E+02 -0.10988576213E+03  0.11608506199E+03  0.00000000000E+00 0. -1.
</event>
<event>
 7    1  0.2380582E-009  0.9986111E+02  0.7561462E-02  0.1280588E+00
         -3   -1    0    0    0  501 -0.00000000000E+00  0.00000000000E+00  0.86763259906E+03  0.86763259906E+03  0.00000000000E+00 0.  1.
          3   -1    0    0  501    0  0.00000000000E+00 -0.00000000000E+00 -0.19291688596E+02  0.19291688596E+02  0.00000000000E+00 0. -1.
         25    2    1    2    0    0 -0.65233010746E+01  0.65363482115E+02  0.37576724498E+03  0.40145219631E+03  0.12509158753E+03 0.  0.
          5    1    3    3  502    0 -0.27247798855E+02  0.61276240456E+02  0.78177897770E+02  0.10308480143E+03  0.41800000000E+01 0.  1.
         -5    1    3    3    0  502  0.20724497781E+02  0.40872416590E+01  0.29758934721E+03  0.29836739487E+03  0.41800000000E+01 0.  1.
        -11    1    1    2    0    0  0.26130393585E+02 -0.81511064924E+02  0.37519147185E+03  0.38483177067E+03  0.00000000000E+00 0.  1.
         11    1    1    2    0    0 -0.19607092510E+02  0.16147582810E+02  0.97382193640E+02  0.10064032067E+03  0.00000000000E+00 0. -1.
</event>
<event>
 7    1  0.2380582E-009  0.1634627E+03  0.7561462E-02  0.1184842E+00
          2   -1    0    0  501    0  0.00000000000E+00  0.00000000000E+00  0.81516451885E+03  0.81516451885E+03  0.00000000000E+00 0. -1.
         -2   -1    0    0    0  501 -0.00000000000E+00 -0.00000000000E+00 -0.96218786251E+02  0.96218786251E+02  0.00000000000E+00 0.  1.
         25    2    1    2    0    0  0.11959722676E+03 -0.61401818673E+02  0.72615459785E+03  0.74901367080E+03  0.12508916451E+03 0.  0.
          5    1    3    3  502    0  0.99503879848E+02 -0.95351125030E+02  0.47003708473E+03  0.48984200777E+03  0.41800000000E+01 0.  1.
         -5    1    3    3    0  502  0.20093346914E+02  0.33949306357E+02  0.25611751312E+03  0.25917166303E+03  0.41800000000E+01 0.  1.
        -11    1    1    2    0    0 -0.11027277730E+03  0.26720793146E+02 -0.32988245895E+02  0.11816222140E+03  0.00000000000E+00 0.  1.
         11    1    1    2    0    0 -0.93244494657E+01  0.34681025527E+02  0.25779380647E+02  0.44207412908E+02  0.00000000000E+00 0. -1.
</event>
<event>
 7    1  0.2837147E-009  0.7009679E+02  0.7561462E-02  0.1359764E+00
         -2   -1    0    0    0  501 -0.00000000000E+00  0.00000000000E+00  0.20757278585E+02  0.20757278585E+02  0.00000000000E+00 0.  1.
          2   -1    0    0  501    0  0.00000000000E+00 -0.00000000000E+00 -0.77926369854E+03  0.77926369854E+03  0.00000000000E+00 0. -1.
         25    2    1    2    0    0  0.63968062084E+02  0.50907901332E+01 -0.47285275589E+03  0.49331129796E+03  0.12509388009E+03 0.  0.
          5    1    3    3  502    0  0.17196810137E+02 -0.58607295010E+01 -0.42489792498E+03  0.42530670989E+03  0.41800000000E+01 0.  1.
         -5    1    3    3    0  502  0.46771251947E+02  0.10951519634E+02 -0.47954830909E+02  0.68004588069E+02  0.41800000000E+01 0.  1.
        -11    1    1    2    0    0 -0.21112922204E+02  0.15102721315E+02 -0.11326652203E+02  0.28322088998E+02  0.00000000000E+00 0.  1.
         11    1    1    2    0    0 -0.42855139880E+02 -0.20193511448E+02 -0.27432701186E+03  0.27838759016E+03  0.00000000000E+00 0. -1.
</event>
<event>
 7    1  0.2380582E-009  0.1859957E+03  0.7561462E-02  0.1162123E+00
         -2   -1    0    0    0  501 -0.00000000000E+00  0.00000000000E+00  0.38194792233E+02  0.38194792233E+02  0.00000000000E+00 0. -1.
          2   -1    0    0  501    0  0.00000000000E+00 -0.00000000000E+00 -0.95345814580E+03  0.95345814580E+03  0.00000000000E+00 0.  1.
         25    2    1    2    0    0  0.31040016947E+02  0.15301005825E+03 -0.43914463292E+03  0.48256705434E+03  0.12508953885E+03 0.  0.
          5    1    3    3  502    0 -0.44137275763E+02  0.57831299192E+02 -0.11181216412E+03  0.13346157021E+03  0.41800000000E+01 0.  1.
         -5    1    3    3    0  502  0.75177292710E+02  0.95178759061E+02 -0.32733246880E+03  0.34910548413E+03  0.41800000000E+01 0.  1.
        -11    1    1    2    0    0  0.11027569392E+02 -0.12870774894E+03 -0.30559354934E+03  0.33177508846E+03  0.00000000000E+00 0. -1.
         11    1    1    2    0    0 -0.42067586339E+02 -0.24302309312E+02 -0.17052517131E+03  0.17731079524E+03  0.00000000000E+00 0.  1.
</event>
<event>
 7    1  0.2380582E-009  0.9277894E+02  0.7561462E-02  0.1296258E+00
          2   -1    0    0  501    0  0.00000000000E+00  0.00000000000E+00  0.28174061267E+03  0.28174061267E+03  0.00000000000E+00 0.  1.
         -2   -1    0    0    0  501 -0.00000000000E+00 -0.00000000000E+00 -0.46292284935E+02  0.46292284935E+02  0.00000000000E+00 0. -1.
         25    2    1    2    0    0  0.20634755242E+02 -0.23420438562E+02  0.15865602642E+03  0.20443091590E+03  0.12508379027E+03 0.  0.
          5    1    3    3  502    0 -0.45629037360E+02 -0.38316003181E+02  0.87816782609E+02  0.10620444839E+03  0.41800000000E+01 0. -1.
         -5    1    3    3    0  502  0.66263792602E+02  0.14895564619E+02  0.70839243815E+02  0.98226467511E+02  0.41800000000E+01 0. -1.
        -11    1    1    2    0    0  0.12515453062E+01  0.33615153322E+02  0.90000290888E+02  0.96081201379E+02  0.00000000000E+00 0.  1.
         11    1    1    2    0    0 -0.21886300548E+02 -0.10194714760E+02 -0.13207989581E+02  0.27520780321E+02  0.00000000000E+00 0. -1.
</event>
<event>
 7    1  0.2380582E-009  0.1976745E+03  0.7561462E-02  0.1151716E+00
         -1   -1    0    0    0  501 -0.00000000000E+00  0.00000000000E+00  0.14246221097E+03  0.14246221097E+03  0.00000000000E+00 0.  1.
          1   -1    0    0  501    0  0.00000000000E+00 -0.00000000000E+00 -0.42445158853E+03  0.42445158853E+03  0.00000000000E+00 0. -1.
         25    2    1    2    0    0  0.11034217987E+03  0.14206590609E+03 -0.29544552293E+03  0.36782926856E+03  0.12510873454E+03 0.  0.
          5    1    3    3  502    0  0.10989282524E+02  0.84696704725E+02 -0.55801202375E+02  0.10210554690E+03  0.41800000000E+01 0. -1.
         -5    1    3    3    0  502  0.99352897348E+02  0.57369201364E+02 -0.23964432056E+03  0.26572372166E+03  0.41800000000E+01 0. -1.
        -11    1    1    2    0    0 -0.12191972760E+03 -0.13207569910E+03  0.16293791184E+01  0.17975278898E+03  0.00000000000E+00 0. -1.
         11    1    1    2    0    0  0.11577547724E+02 -0.99902069869E+01  0.11826766260E+02  0.19331741957E+02  0.00000000000E+00 0.  1.
</event>
<event>
 7    1  0.2380582E-009  0.1078137E+03  0.7561462E-02  0.1264673E+00
          2   -1    0    0  501    0  0.00000000000E+00  0.00000000000E+00  0.68624955847E+03  0.68624955847E+03  0.00000000000E+00 0. -1.
         -2   -1    0    0    0  501 -0.00000000000E+00 -0.00000000000E+00 -0.17892905472E+02  0.17892905472E+02  0.00000000000E+00 0.  1.
         25    2    1    2    0    0  0.32286628221E+01 -0.17863474355E+02  0.42365527982E+03  0.44210828147E+03  0.12508560447E+03 0.  0.
          5    1    3    3  502    0  0.30910927392E+02 -0.64138996370E+02  0.26783227659E+03  0.27716582956E+03  0.41800000000E+01 0.  1.
         -5    1    3    3    0  502 -0.27682264569E+02  0.46275522016E+02  0.15582300323E+03  0.16494245192E+03  0.41800000000E+01 0.  1.
        -11    1    1    2    0    0 -0.44500391327E+02 -0.17301756205E+01  0.15635950630E+03  0.16257789994E+03  0.00000000000E+00 0.  1.
         11    1    1    2    0    0  0.41271728505E+02  0.19593649975E+02  0.88341866876E+02  0.99456282538E+02  0.00000000000E+00 0. -1.
</event>
<event>
 7    1  0.2380582E-009  0.1800224E+03  0.7561462E-02  0.1167781E+00
          1   -1    0    0  501    0  0.00000000000E+00  0.00000000000E+00  0.26954774493E+03  0.26954774493E+03  0.00000000000E+00 0. -1.
         -1   -1    0    0    0  501 -0.00000000000E+00 -0.00000000000E+00 -0.15148112877E+03  0.15148112877E+03  0.00000000000E+00 0.  1.
         25    2    1    2    0    0  0.87141159814E+02 -0.13653678174E+03  0.90411826582E+02  0.22373293770E+03  0.12508498920E+03 0.  0.
          5    1    3    3  502    0  0.40156503475E+02 -0.57528355887E+01 -0.20721644058E+02  0.45743839160E+02  0.41800000000E+01 0. -1.
         -5    1    3    3    0  502  0.46984656339E+02 -0.13078394615E+03  0.11113347064E+03  0.17798909854E+03  0.41800000000E+01 0. -1.
        -11    1    1    2    0    0 -0.79866280102E+02  0.51820482990E+02  0.52488733135E+02  0.10871546468E+03  0.00000000000E+00 0. -1.
         11    1    1    2    0    0 -0.72748797114E+01  0.84716298748E+02 -0.24833943557E+02  0.88580471329E+02  0.00000000000E+00 0.  1.
</event>
<event>
 7    1  0.2380582E-009  0.1052569E+03  0.7561462E-02  0.1269614E+00
         -1   -1    0    0    0  501 -0.00000000000E+00  0.00000000000E+00  0.16445021298E+03  0.16445021298E+03  0.00000000000E+00 0.  1.
          1   -1    0    0  501    0  0.00000000000E+00 -0.00000000000E+00 -0.82926250756E+02  0.82926250756E+02  0.00000000000E+00 0. -1.
         25    2    1    2    0    0  0.13853915322E+02  0.69271952090E+01  0.33750768867E+01  0.12608959106E+03  0.12508907557E+03 0.  0.
          5    1    3    3  502    0  0.38147648130E+02  0.57862673712E+02  0.59879924333E+00  0.69434595322E+02  0.41800000000E+01 0.  1.
         -5    1    3    3    0  502 -0.24293732809E+02 -0.50935478503E+02  0.27762776433E+01  0.56654995735E+02  0.41800000000E+01 0.  1.
        -11    1    1    2    0    0  0.27011550940E+02  0.21659542591E+02  0.85477119742E+01  0.35662628190E+02  0.00000000000E+00 0. -1.
         11    1    1    2    0    0 -0.40865466262E+02 -0.28586737800E+02  0.69601173365E+02  0.85624244491E+02  0.00000000000E+00 0.  1.
</event>
<event>
 7    1  0.2380582E-009  0.1288720E+03  0.7561462E-02  0.1229139E+00
          3   -1    0    0  501    0  0.00000000000E+00  0.00000000000E+00  0.15354922571E+03  0.15354922571E+03  0.00000000000E+00 0. -1.
         -3   -1    0    0    0  501 -0.00000000000E+00 -0.00000000000E+00 -0.12114949493E+03  0.12114949493E+03  0.00000000000E+00 0.  1.
         25    2    1    2    0    0 -0.28075261435E+02 -0.78490790413E+02  0.20552308788E+02  0.15171989292E+03  0.12508998372E+03 0.  0.
          5    1    3    3  502    0 -0.27126826554E+02  0.29702148006E+02  0.15543970828E+02  0.43326316993E+02  0.41800000000E+01 0.  1.
         -5    1    3    3    0  502 -0.94843488114E+00 -0.10819293842E+03  0.50083379595E+01  0.10839357592E+03  0.41800000000E+01 0.  1.
        -11    1    1    2    0    0  0.22436255259E+02 -0.68799907911E+01 -0.20845197393E+02  0.31388566034E+02  0.00000000000E+00 0.  1.
         11    1    1    2    0    0  0.56390061761E+01  0.85370781204E+02  0.32692619383E+02  0.91590261688E+02  0.00000000000E+00 0. -1.
</event>
<event>
 7    1  0.2380582E-009  0.1150175E+03  0.7561462E-02  0.1251551E+00
         -2   -1    0    0    0  501 -0.00000000000E+00  0.00000000000E+00  0.23961423400E+02  0.23961423400E+02  0.00000000000E+00 0.  1.
          2   -1    0    0  501    0  0.00000000000E+00 -0.00000000000E+00 -0.16304351283E+04  0.16304351283E+04  0.00000000000E+00 0. -1.
         25    2    1    2    0    0 -0.44882982846E+02 -0.98861019219E+02 -0.13720413723E+04  0.13820031821E+04  0.12508910685E+03 0.  0.
          5    1    3    3  502    0 -0.12258835050E+02 -0.68153028322E+02 -0.26134314983E+03  0.27039383993E+03  0.41800000000E+01 0. -1.
         -5    1    3    3    0  502 -0.32624147795E+02 -0.30707990897E+02 -0.11106982225E+04  0.11116093422E+04  0.41800000000E+01 0. -1.
        -11    1    1    2    0    0 -0.35485984675E+01  0.36662247796E+02 -0.15976184766E+02  0.40149115111E+02  0.00000000000E+00 0.  1.
         11    1    1    2    0    0  0.48431581313E+02  0.62198771423E+02 -0.21845614784E+03  0.23224425454E+03  0.00000000000E+00 0. -1.
</event>
<event>
 7    1  0.2380582E-009  0.1931342E+03  0.7561462E-02  0.1155664E+00
         -2   -1    0    0    0  501 -0.00000000000E+00  0.00000000000E+00  0.11555604300E+04  0.11555604300E+04  0.00000000000E+00 0.  1.
          2   -1    0    0  501    0  0.00000000000E+00 -0.00000000000E+00 -0.42086627848E+02  0.42086627848E+02  0.00000000000E+00 0. -1.
         25    2    1    2    0    0 -0.17496413590E+03 -0.15880695986E+02  0.78363763491E+03  0.81277313009E+03  0.12509025856E+03 0.  0.
          5    1    3    3  502    0 -0.18199789597E+02  0.20528934745E+02  0.25359388091E+02  0.37593090688E+02  0.41800000000E+01 0. -1.
         -5    1    3    3    0  502 -0.15676434630E+03 -0.36409630731E+02  0.75827824682E+03  0.77518003940E+03  0.41800000000E+01 0. -1.
        -11    1    1    2    0    0  0.10574585362E+03  0.53753371333E+02  0.21480850964E+03  0.24538603526E+03  0.00000000000E+00 0.  1.
         11    1    1    2    0    0  0.69218282277E+02 -0.37872675347E+02  0.11502765757E+03  0.13948789247E+03  0.00000000000E+00 0. -1.
</event>
<event>
 7    1  0.2380582E-009  0.1061937E+03  0.7561462E-02  0.1267785E+00
          2   -1    0    0  501    0  0.00000000000E+00  0.00000000000E+00  0.81019130428E+02  0.81019130428E+02  0.00000000000E+00 0.  1.
         -2   -1    0    0    0  501 -0.00000000000E+00 -0.00000000000E+00 -0.17073304440E+03  0.17073304440E+03  0.00000000000E+00 0. -1.
         25    2    1    2    0    0  0.23917592922E+02 -0.19464774326E+02 -0.13407115871E+02  0.12952877298E+03  0.12508806331E+03 0.  0.
          5    1    3    3  502    0  0.36606918482E+02  0.43809408228E+02 -0.27243828426E+02  0.63395814668E+02  0.41800000000E+01 0. -1.
         -5    1    3    3    0  502 -0.12689325560E+02 -0.63274182555E+02  0.13836712555E+02  0.66132958315E+02  0.41800000000E+01 0. -1.
        -11    1    1    2    0    0 -0.55680368252E+02  0.18584040941E+02 -0.29620476894E+02  0.65749848957E+02  0.00000000000E+00 0.  1.
         11    1    1    2    0    0  0.31762775330E+02  0.88073338558E+00 -0.46686321207E+02  0.56473552889E+02  0.00000000000E+00 0. -1.
</event>
<event>
 7    1  0.2380582E-009  0.9889391E+02  0.7561462E-02  0.1282639E+00
          1   -1    0    0  501    0  0.00000000000E+00  0.00000000000E+00  0.50973289646E+03  0.50973289646E+03  0.00000000000E+00 0. -1.
         -1   -1    0    0    0  501 -0.00000000000E+00 -0.00000000000E+00 -0.27289439215E+02  0.27289439215E+02  0.00000000000E+00 0.  1.
         25    2    1    2    0    0  0.20190955360E+02 -0.20730589509E+02  0.18679272870E+03  0.22666528697E+03  0.12509275279E+03 0.  0.
          5    1    3    3  502    0  0.78605806009E+01 -0.68594128044E+02  0.64014546783E+02  0.94245836669E+02  0.41800000000E+01 0. -1.
         -5    1    3    3    0  502  0.12330374759E+02  0.47863538535E+02  0.12277818191E+03  0.13241945030E+03  0.41800000000E+01 0. -1.
        -11    1    1    2    0    0 -0.31166167761E+01 -0.27590842148E+02  0.34801181750E+02  0.44520670725E+02  0.00000000000E+00 0.  1.
         11    1    1    2    0    0 -0.17074338584E+02  0.48321431656E+02  0.26084954679E+03  0.26583637798E+03  0.00000000000E+00 0. -1.
</event>
<event>
 7    1  0.2380582E-009  0.1293354E+03  0.7561462E-02  0.1228445E+00
         -2   -1    0    0    0  501 -0.00000000000E+00  0.00000000000E+00  0.52470893762E+02  0.52470893762E+02  0.00000000000E+00 0.  1.
          2   -1    0    0  501    0  0.00000000000E+00 -0.00000000000E+00 -0.34931533733E+03  0.34931533733E+03  0.00000000000E+00 0. -1.
         25    2    1    2    0    0 -0.78351540569E+02  0.56298293436E+01 -0.19650900564E+03  0.24583470863E+03  0.12509298854E+03 0.  0.
          5    1    3    3  502    0 -0.11169819533E+03 -0.54245999490E+01 -0.14104019804E+03  0.18004366967E+03  0.41800000000E+01 0.  1.
         -5    1    3    3    0  502  0.33346654764E+02  0.11054429293E+02 -0.55468807603E+02  0.65791038963E+02  0.41800000000E+01 0.  1.
        -11    1    1    2    0    0  0.74203193271E+02  0.26646151575E+02 -0.94193588480E+02  0.12283551358E+03  0.00000000000E+00 0. -1.
         11    1    1    2    0    0  0.41483472981E+01 -0.32275980918E+02 -0.61418494453E+01  0.33116008880E+02  0.00000000000E+00 0.  1.
</event>
<event>
 7    1  0.2380582E-009  0.1314450E+03  0.7561462E-02  0.1225327E+00
          2   -1    0    0  501    0  0.00000000000E+00  0.00000000000E+00  0.32874816466E+03  0.32874816466E+03  0.00000000000E+00 0. -1.
         -2   -1    0    0    0  501 -0.00000000000E+00 -0.00000000000E+00 -0.65510654319E+02  0.65510654319E+02  0.00000000000E+00 0.  1.
         25    2    1    2    0    0 -0.84882752584E+02 -0.99501287479E+01  0.20969481183E+03  0.25869661720E+03  0.12509172192E+03 0.  0.
          5    1    3    3  502    0 -0.11648983294E+03  0.36056858937E+01  0.15544620102E+03  0.19432929774E+03  0.41800000000E+01 0. -1.
         -5    1    3    3    0  502  0.31607080354E+02 -0.13555814642E+02  0.54248610810E+02  0.64367319456E+02  0.41800000000E+01 0. -1.
        -11    1    1    2    0    0  0.21234852358E+00 -0.21352427042E+02 -0.11543242054E+02  0.24273806245E+02  0.00000000000E+00 0. -1.
         11    1    1    2    0    0  0.84670404060E+02  0.31302555790E+02  0.65085940571E+02  0.11128839554E+03  0.00000000000E+00 0.  1.
</event>
<event>
 7    1  0.2380582E-009  0.1098647E+03  0.7561462E-02  0.1260821E+00
         -2   -1    0    0    0  501 -0.00000000000E+00  0.00000000000E+00  0.31659940522E+02  0.31659940522E+02  0.00000000000E+00 0.  1.
          2   -1    0    0  501    0  0.00000000000E+00 -0.00000000000E+00 -0.61185944033E+03  0.61185944033E+03  0.00000000000E+00 0. -1.
         25    2    1    2    0    0 -0.31397733873E+02 -0.79146511233E+02 -0.29372557347E+03  0.33041615299E+03  0.12510049445E+03 0.  0.
          5    1    3    3  502    0 -0.41133436754E+02 -0.96840909568E+02 -0.29118171598E+03  0.30963589183E+03  0.41800000000E+01 0. -1.
         -5    1    3    3    0  502  0.97357028817E+01  0.17694398335E+02 -0.25438574908E+01  0.20780261162E+02  0.41800000000E+01 0. -1.
        -11    1    1    2    0    0  0.37429893049E+02  0.42349961280E+02 -0.26308359360E+03  0.26908640496E+03  0.00000000000E+00 0. -1.
         11    1    1    2    0    0 -0.60321591759E+01  0.36796549953E+02 -0.23390332734E+02  0.44016822900E+02  0.00000000000E+00 0.  1.
</event>
<event>
 7    1  0.2380582E-009  0.7930465E+02  0.7561462E-02  0.1331036E+00
          1   -1    0    0  501    0  0.00000000000E+00  0.00000000000E+00  0.60753721193E+03  0.60753721193E+03  0.00000000000E+00 0. -1.
         -1   -1    0    0    0  501 -0.00000000000E+00 -0.00000000000E+00 -0.25338108517E+02  0.25338108517E+02  0.00000000000E+00 0.  1.
         25    2    1    2    0    0  0.80233291894E+01 -0.35519094396E+02  0.45256300841E+03  0.47094188134E+03  0.12508796561E+03 0.  0.
          5    1    3    3  502    0  0.41760871642E+02  0.10301331441E+02  0.58290694769E+02  0.72562837089E+02  0.41800000000E+01 0.  1.
         -5    1    3    3    0  502 -0.33737542452E+02 -0.45820425837E+02  0.39427231364E+03  0.39837904425E+03  0.41800000000E+01 0.  1.
        -11    1    1    2    0    0 -0.15460841268E+01 -0.11133084150E+02 -0.97033271933E+01  0.14848922434E+02  0.00000000000E+00 0.  1.
         11    1    1    2    0    0 -0.64772450627E+01  0.46652178547E+02  0.13933942220E+03  0.14708451667E+03  0.00000000000E+00 0. -1.
</event>
<event>
 7    1  0.2380582E-009  0.8628737E+02  0.7561462E-02  0.1312100E+00
          1   -1    0    0  501    0  0.00000000000E+00  0.00000000000E+00  0.10408415085E+03  0.10408415085E+03  0.00000000000E+00 0. -1.
         -1   -1    0    0    0  501 -0.00000000000E+00 -0.00000000000E+00 -0.11565399058E+03  0.11565399058E+03  0.00000000000E+00 0.  1.
         25    2    1    2    0    0  0.14770942601E+02  0.31350609227E-01 -0.14575459088E+02  0.12680989681E+03  0.12510045640E+03 0.  0.
          5    1    3    3  502    0 -0.24708889690E+02  0.31173880249E+02 -0.50828511099E+02  0.64678821728E+02  0.41800000000E+01 0.  1.
         -5    1    3    3    0  502  0.39479832292E+02 -0.31142529640E+02  0.36253052011E+02  0.62131075077E+02  0.41800000000E+01 0.  1.
        -11    1    1    2    0    0 -0.28192669806E+02  0.34802682874E+02 -0.20028767325E+02  0.49063274315E+02  0.00000000000E+00 0.  1.
         11    1    1    2    0    0  0.13421727204E+02 -0.34834033483E+02  0.23034386684E+02  0.43864970304E+02  0.00000000000E+00 0. -1.
</event>
<event>
 7    1  0.2380582E-009  0.1485825E+03  0.7561462E-02  0.1202226E+00
          1   -1    0    0  501    0  0.00000000000E+00  0.00000000000E+00  0.34581456032E+03  0.34581456032E+03  0.00000000000E+00 0. -1.
         -1   -1    0    0    0  501 -0.00000000000E+00 -0.00000000000E+00 -0.13309084328E+03  0.13309084328E+03  0.00000000000E+00 0.  1.
         25    2    1    2    0    0  0.11399667941E+03  0.39824574271E+02  0.26924728441E+03  0.32050382585E+03  0.12508941838E+03 0.  0.
          5    1    3    3  502    0  0.13819214816E+03  0.37677930591E+02  0.19306428021E+03  0.24043291156E+03  0.41800000000E+01 0.  1.
         -5    1    3    3    0  502 -0.24195468749E+02  0.21466436797E+01  0.76183004195E+02  0.80070914290E+02  0.41800000000E+01 0.  1.
        -11    1    1    2    0    0 -0.12306750939E+02 -0.23086444794E+02  0.17533884320E+02  0.31494081209E+02  0.00000000000E+00 0. -1.
         11    1    1    2    0    0 -0.10168992847E+03 -0.16738129477E+02 -0.74057451687E+02  0.12690749655E+03  0.00000000000E+00 0.  1.
</event>
<event>
 7    1  0.2380582E-009  0.1166191E+03  0.7561462E-02  0.1248781E+00
         -1   -1    0    0    0  501 -0.00000000000E+00  0.00000000000E+00  0.56132805017E+02  0.56132805017E+02  0.00000000000E+00 0.  1.
          1   -1    0    0  501    0  0.00000000000E+00 -0.00000000000E+00 -0.28482143911E+03  0.28482143911E+03  0.00000000000E+00 0. -1.
         25    2    1    2    0    0  0.53000172628E+02  0.49688258709E+02 -0.99242562072E+02  0.17542950870E+03  0.12509390490E+03 0.  0.
          5    1    3    3  502    0  0.44006573052E+02  0.84915022909E+02 -0.35835632475E+02  0.10221939416E+03  0.41800000000E+01 0.  1.
         -5    1    3    3    0  502  0.89935995755E+01 -0.35226764201E+02 -0.63406929597E+02  0.73210114536E+02  0.41800000000E+01 0.  1.
        -11    1    1    2    0    0 -0.39004432421E+02  0.94543933134E+01 -0.35208455560E+02  0.53388825088E+02  0.00000000000E+00 0.  1.
         11    1    1    2    0    0 -0.13995740207E+02 -0.59142652022E+02 -0.94237616461E+02  0.11213591034E+03  0.00000000000E+00 0. -1.
</event>
<event>
 7    1  0.2748599E-009  0.7243706E+02  0.7561462E-02  0.1351996E+00
         -2   -1    0    0    0  501 -0.00000000000E+00  0.00000000000E+00  0.41645077156E+02  0.41645077156E+02  0.00000000000E+00 0. -1.
          2   -1    0    0  501    0  0.00000000000E+00 -0.00000000000E+00 -0.31658612053E+03  0.31658612053E+03  0.00000000000E+00 0.  1.
         25    2    1    2    0    0  0.67357705656E+01  0.10341404689E+02 -0.99648693489E+02  0.16040629601E+03  0.12509197588E+03 0.  0.
          5    1    3    3  502    0  0.29676910651E+02  0.71114279435E+01  0.21131153307E+02  0.37353573768E+02  0.41800000000E+01 0. -1.
         -5    1    3    3    0  502 -0.22941140085E+02  0.32299767459E+01 -0.12077984680E+03  0.12305272224E+03  0.41800000000E+01 0. -1.
        -11    1    1    2    0    0 -0.47903594933E+02  0.69683538653E+00 -0.76973831229E+02  0.90665377521E+02  0.00000000000E+00 0.  1.
         11    1    1    2    0    0  0.41167824368E+02 -0.11038240076E+02 -0.98318518655E+02  0.10715952416E+03  0.00000000000E+00 0. -1.
</event>
<event>
 7    1  0.2380582E-009  0.1618698E+03  0.7561462E-02  0.1186602E+00
         -1   -1    0    0    0  501 -0.00000000000E+00  0.00000000000E+00  0.42331282649E+02  0.42331282649E+02  0.00000000000E+00 0.  1.
          1   -1    0    0  501    0  0.00000000000E+00 -0.00000000000E+00 -0.89733097788E+03  0.89733097788E+03  0.00000000000E+00 0. -1.
         25    2    1    2    0    0  0.92563964377E+02  0.84819418380E+02 -0.68836692365E+03  0.71081781201E+03  0.12510203460E+03 0.  0.
          5    1    3    3  502    0  0.48371795740E+01 -0.31018594770E+02 -0.11074520465E+03  0.11518473979E+03  0.41800000000E+01 0.  1.
         -5    1    3    3    0  502  0.87726784803E+02  0.11583801315E+03 -0.57762171900E+03  0.59563307222E+03  0.41800000000E+01 0.  1.
        -11    1    1    2    0    0 -0.38610959475E+02 -0.84326385944E+02 -0.63346123128E+02  0.11231418821E+03  0.00000000000E+00 0.  1.
         11    1    1    2    0    0 -0.53953004901E+02 -0.49303243556E+00 -0.10328664846E+03  0.11653026032E+03  0.00000000000E+00 0. -1.
</event>
<event>
 7    1  0.2380582E-009  0.1016978E+03  0.7561462E-02  0.1276766E+00
          1   -1    0    0  501    0  0.00000000000E+00  0.00000000000E+00  0.37555496927E+03  0.37555496927E+03  0.00000000000E+00 0. -1.
         -1   -1    0    0    0  501 -0.00000000000E+00 -0.00000000000E+00 -0.42945597043E+02  0.42945597043E+02  0.00000000000E+00 0.  1.
         25    2    1    2    0    0 -0.35771516881E+02 -0.49061691471E+02  0.19670990959E+03  0.24089132688E+03  0.12508873589E+03 0.  0.
          5    1    3    3  502    0 -0.67655855008E+02  0.11985072888E+01  0.15167248905E+03  0.16613478706E+03  0.41800000000E+01 0. -1.
         -5    1    3    3    0  502  0.31884338127E+02 -0.50260198760E+02  0.45037420534E+02  0.74756539818E+02  0.41800000000E+01 0. -1.
        -11    1    1    2    0    0  0.33331795239E+02  0.73276760801E+01 -0.13296440540E+01  0.34153643493E+02  0.00000000000E+00 0.  1.
         11    1    1    2    0    0  0.24397216423E+01  0.41734015391E+02  0.13722910670E+03  0.14345559594E+03  0.00000000000E+00 0. -1.
</event>
<event>
 7    1  0.2380582E-009  0.9523029E+02  0.7561462E-02  0.1290658E+00
         -2   -1    0    0    0  501 -0.00000000000E+00  0.00000000000E+00  0.98473919357E+02  0.98473919357E+02  0.00000000000E+00 0.  1.
          2   -1    0    0  501    0  0.00000000000E+00 -0.00000000000E+00 -0.13224861547E+03  0.13224861547E+03  0.00000000000E+00 0. -1.
         25    2    1    2    0    0  0.33073707759E+02  0.16671648632E+00 -0.38169553745E+02  0.13490044516E+03  0.12508923747E+03 0.  0.
          5    1    3    3  502    0  0.34842817280E+02  0.46866300536E+02 -0.59396986710E+02  0.83402316947E+02  0.41800000000E+01 0. -1.
         -5    1    3    3    0  502 -0.17691095215E+01 -0.46699584049E+02  0.21227432965E+02  0.51498128210E+02  0.41800000000E+01 0. -1.
        -11    1    1    2    0    0  0.13297255636E+02  0.27816994745E+02  0.23096846754E+02  0.38523584128E+02  0.00000000000E+00 0.  1.
         11    1    1    2    0    0 -0.46370963395E+02 -0.27983711231E+02 -0.18701989127E+02  0.57298505546E+02  0.00000000000E+00 0. -1.
</event>
<event>
 7    1  0.2381704E-009  0.9528630E+02  0.7561462E-02  0.1290533E+00
          1   -1    0    0  501    0  0.00000000000E+00  0.00000000000E+00  0.58324931777E+03  0.58324931777E+03  0.00000000000E+00 0. -1.
         -1   -1    0    0    0  501 -0.00000000000E+00 -0.00000000000E+00 -0.26667119529E+02  0.26667119529E+02  0.00000000000E+00 0.  1.
         25    2    1    2    0    0 -0.46063386702E+02 -0.41061683741E+02  0.33808033594E+03  0.36572096635E+03  0.12508242967E+03 0.  0.
          5    1    3    3  502    0  0.10830572917E+02 -0.37925812406E+02  0.23727525771E+02  0.46218356046E+02  0.41800000000E+01 0. -1.
         -5    1    3    3    0  502 -0.56893959618E+02 -0.31358713349E+01  0.31435281017E+03  0.31950261030E+03  0.41800000000E+01 0. -1.
        -11    1    1    2    0    0 -0.18683617081E+02  0.37776136453E+01  0.77238515406E+01  0.20567104675E+02  0.00000000000E+00 0.  1.
         11    1    1    2    0    0  0.64747003783E+02  0.37284070096E+02  0.21077801076E+03  0.22362836627E+03  0.00000000000E+00 0. -1.
</event>
<event>
 7    1  0.2380582E-009  0.2211347E+03  0.7561462E-02  0.1133040E+00
         -3   -1    0    0    0  501 -0.00000000000E+00  0.00000000000E+00  0.40498228875E+03  0.40498228875E+03  0.00000000000E+00 0.  1.
          3   -1    0    0  501    0  0.00000000000E+00 -0.00000000000E+00 -0.15924386466E+03  0.15924386466E+03  0.00000000000E+00 0. -1.
         25    2    1    2    0    0  0.18474859440E+03  0.11187783022E+03  0.36876808509E+02  0.25230177774E+03  0.12509035141E+03 0.  0.
          5    1    3    3  502    0  0.55752671002E+02  0.51324317467E+02  0.72924601803E+02  0.10525215359E+03  0.41800000000E+01 0.  1.
         -5    1    3    3    0  502  0.12899592340E+03  0.60553512756E+02 -0.36047793294E+02  0.14704962415E+03  0.41800000000E+01 0.  1.
        -11    1    1    2    0    0 -0.60717142042E+02 -0.70541647616E+02  0.48275391031E+02  0.10484850388E+03  0.00000000000E+00 0. -1.
         11    1    1    2    0    0 -0.12403145236E+03 -0.41336182608E+02  0.16058622454E+03  0.20707587180E+03  0.00000000000E+00 0.  1.
</event>
<event>
 7    1  0.2380582E-009  0.1737044E+03  0.7561462E-02  0.1174039E+00
          3   -1    0    0  501    0  0.00000000000E+00  0.00000000000E+00  0.26948150108E+02  0.26948150108E+02  0.00000000000E+00 0. -1.
         -3   -1    0    0    0  501 -0.00000000000E+00 -0.00000000000E+00 -0.15717107944E+04  0.15717107944E+04  0.00000000000E+00 0.  1.
         25    2    1    2    0    0  0.13997437953E+03 -0.26324120015E+02 -0.10461763247E+04  0.10632106990E+04  0.12508517798E+03 0.  0.
          5    1    3    3  502    0  0.88998884840E+02 -0.43211460369E+02 -0.31837200487E+03  0.33341601295E+03  0.41800000000E+01 0.  1.
         -5    1    3    3    0  502  0.50975494693E+02  0.16887340353E+02 -0.72780431985E+03  0.72979468600E+03  0.41800000000E+01 0.  1.
        -11    1    1    2    0    0 -0.13021313893E+03 -0.33058501884E+02 -0.36476318939E+03  0.38871649107E+03  0.00000000000E+00 0. -1.
         11    1    1    2    0    0 -0.97612406056E+01  0.59382621899E+02 -0.13382313021E+03  0.14673175451E+03  0.00000000000E+00 0.  1.
</event>
<event>
 7    1  0.2380582E-009  0.1339043E+03  0.7561462E-02  0.1221775E+00
          1   -1    0    0  501    0  0.00000000000E+00  0.00000000000E+00  0.15814317329E+04  0.15814317329E+04  0.00000000000E+00 0. -1.
         -1   -1    0    0    0  501 -0.00000000000E+00 -0.00000000000E+00 -0.35395013426E+02  0.35395013426E+02  0.00000000000E+00 0.  1.
         25    2    1    2    0    0 -0.95013643177E+02 -0.54155942376E+02  0.14107847965E+04  0.14205356948E+04  0.12508980570E+03 0.  0.
          5    1    3    3  502    0 -0.27817317065E+02 -0.79747723147E+02  0.99240616494E+03  0.99600249553E+03  0.41800000000E+01 0. -1.
         -5    1    3    3    0  502 -0.67196326112E+02  0.25591780771E+02  0.41837863160E+03  0.42453319925E+03  0.41800000000E+01 0. -1.
        -11    1    1    2    0    0  0.70560307151E+02  0.49841138909E+02  0.14567280225E+03  0.16936192426E+03  0.00000000000E+00 0. -1.
         11    1    1    2    0    0  0.24453336026E+02  0.43148034671E+01 -0.10420879308E+02  0.26929127303E+02  0.00000000000E+00 0.  1.
</event>
<event>
 7    1  0.2380582E-009  0.8879121E+02  0.7561462E-02  0.1305806E+00
          2   -1    0    0  501    0  0.00000000000E+00  0.00000000000E+00  0.11122839115E+04  0.11122839115E+04  0.00000000000E+00 0. -1.
         -2   -1    0    0    0  501 -0.00000000000E+00 -0.00000000000E+00 -0.14508557180E+02  0.14508557180E+02  0.00000000000E+00 0.  1.
         25    2    1    2    0    0  0.43379244066E+02  0.38276010352E+02  0.73096121315E+03  0.74384041686E+03  0.12508980308E+03 0.  0.
          5    1    3    3  502    0 -0.15868854202E+02 -0.55973591371E+01  0.52071908331E+03  0.52100766509E+03  0.41800000000E+01 0.  1.
         -5    1    3    3    0  502  0.59248098269E+02  0.43873369489E+02  0.21024212985E+03  0.22283275177E+03  0.41800000000E+01 0.  1.
        -11    1    1    2    0    0 -0.82755457717E+01  0.18149895625E+02  0.15108813146E+02  0.25023580953E+02  0.00000000000E+00 0.  1.
         11    1    1    2    0    0 -0.35103698295E+02 -0.56425905978E+02  0.35170532806E+03  0.35792847091E+03  0.00000000000E+00 0. -1.
</event>
<event>
 7    1  0.2380582E-009  0.1790432E+03  0.7561462E-02  0.1168732E+00
          2   -1    0    0  501    0  0.00000000000E+00  0.00000000000E+00  0.26473799873E+04  0.26473799873E+04  0.00000000000E+00 0. -1.
         -2   -1    0    0    0  501 -0.00000000000E+00 -0.00000000000E+00 -0.15211363881E+02  0.15211363881E+02  0.00000000000E+00 0.  1.
         25    2    1    2    0    0 -0.14510723994E+03  0.40800081389E+02  0.18667111411E+04  0.18769600093E+04  0.12509050548E+03 0.  0.
          5    1    3    3  502    0 -0.15382405565E+03  0.15940897726E+02  0.12300611516E+04  0.12397515321E+04  0.41800000000E+01 0.  1.
         -5    1    3    3    0  502  0.87168157084E+01  0.24859183663E+02  0.63664998947E+03  0.63720847718E+03  0.41800000000E+01 0. -1.
        -11    1    1    2    0    0  0.12926533738E+03  0.38597107770E+01  0.57572387590E+03  0.59006983154E+03  0.00000000000E+00 0.  1.
         11    1    1    2    0    0  0.15841902568E+02 -0.44659792166E+02  0.18973360648E+03  0.19556151038E+03  0.00000000000E+00 0. -1.
</event>
<event>
 7    1  0.2380582E-009  0.7263256E+02  0.7561462E-02  0.1351363E+00
          3   -1    0    0  501    0  0.00000000000E+00  0.00000000000E+00  0.32141865124E+03  0.32141865124E+03  0.00000000000E+00 0. -1.
         -3   -1    0    0    0  501 -0.00000000000E+00 -0.00000000000E+00 -0.39302227810E+02  0.39302227810E+02  0.00000000000E+00 0.  1.
         25    2    1    2    0    0  0.16267370443E+01 -0.21756785813E+02  0.13499697648E+03  0.18533252478E+03  0.12509179461E+03 0.  0.
          5    1    3    3  502    0  0.23621671540E+02  0.58909988744E+01 -0.16505935177E+02  0.29708677691E+02  0.41800000000E+01 0.  1.
         -5    1    3    3    0  502 -0.21994934496E+02 -0.27647784688E+02  0.15150291166E+03  0.15562384709E+03  0.41800000000E+01 0.  1.
        -11    1    1    2    0    0 -0.48505015038E+01  0.53179424213E+02  0.12743057358E+03  0.13816703517E+03  0.00000000000E+00 0. -1.
         11    1    1    2    0    0  0.32237644596E+01 -0.31422638399E+02  0.19688873373E+02  0.37221319106E+02  0.00000000000E+00 0.  1.
</event>
<event>
 7    1  0.2380582E-009  0.6885497E+02  0.7561462E-02  0.1364031E+00
          4   -1    0    0  501    0  0.00000000000E+00  0.00000000000E+00  0.33039836792E+03  0.33039836792E+03  0.00000000000E+00 0. -1.
         -4   -1    0    0    0  501 -0.00000000000E+00 -0.00000000000E+00 -0.37897861088E+02  0.37897861088E+02  0.00000000000E+00 0.  1.
         25    2    1    2    0    0  0.18772292987E+02  0.18875435683E+02  0.15101401765E+03  0.19789195296E+03  0.12508921002E+03 0.  0.
          5    1    3    3  502    0  0.38372807523E+02  0.18792833777E+02 -0.25675836488E+01  0.43008229961E+02  0.41800000000E+01 0. -1.
         -5    1    3    3    0  502 -0.19600514537E+02  0.82601906039E-01  0.15358160130E+03  0.15488372300E+03  0.41800000000E+01 0. -1.
        -11    1    1    2    0    0 -0.40873261731E+02 -0.29310453199E+02  0.13648458783E+03  0.14545710332E+03  0.00000000000E+00 0. -1.
         11    1    1    2    0    0  0.22100968745E+02  0.10435017516E+02  0.50019013562E+01  0.24947172729E+02  0.00000000000E+00 0.  1.
</event>
<event>
 7    1  0.2380582E-009  0.1065224E+03  0.7561462E-02  0.1267149E+00
          1   -1    0    0  501    0  0.00000000000E+00  0.00000000000E+00  0.45834187188E+03  0.45834187188E+03  0.00000000000E+00 0.  1.
         -1   -1    0    0    0  501 -0.00000000000E+00 -0.00000000000E+00 -0.27365930212E+02  0.27365930212E+02  0.00000000000E+00 0. -1.
         25    2    1    2    0    0  0.29394833057E+02 -0.15352581366E+01  0.24040909526E+03  0.27260151729E+03  0.12509452794E+03 0.  0.
          5    1    3    3  502    0  0.73774816932E+02 -0.46721775001E+01  0.19635526015E+03  0.20985093149E+03  0.41800000000E+01 0.  1.
         -5    1    3    3    0  502 -0.44379983875E+02  0.31369193635E+01  0.44053835107E+02  0.62750585810E+02  0.41800000000E+01 0.  1.
        -11    1    1    2    0    0  0.32233486235E+02  0.48684326118E+01  0.51373620167E+02  0.60843636643E+02  0.00000000000E+00 0. -1.
         11    1    1    2    0    0 -0.61628319292E+02 -0.33331744753E+01  0.13919322625E+03  0.15226264816E+03  0.00000000000E+00 0.  1.
</event>
<event>
 7    1  0.2380582E-009  0.3301775E+03  0.7561462E-02  0.1071058E+00
          2   -1    0    0  501    0  0.00000000000E+00  0.00000000000E+00  0.25698871997E+04  0.25698871997E+04  0.00000000000E+00 0.  1.
         -2   -1    0    0    0  501 -0.00000000000E+00 -0.00000000000E+00 -0.50870851446E+02  0.50870851446E+02  0.00000000000E+00 0. -1.
         25    2    1    2    0    0 -0.24181969251E+03 -0.21806968473E+03  0.16834334582E+04  0.17191936254E+04  0.12508941783E+03 0.  0.
          5    1    3    3  502    0 -0.78384236962E+02 -0.54758737872E+02  0.25859237333E+03  0.27573555433E+03  0.41800000000E+01 0.  1.
         -5    1    3    3    0  502 -0.16343545555E+03 -0.16331094686E+03  0.14248410848E+04  0.14434580711E+04  0.41800000000E+01 0.  1.
        -11    1    1    2    0    0  0.87583944076E+02  0.35344273811E+02  0.17217113242E+03  0.19637480436E+03  0.00000000000E+00 0. -1.
         11    1    1    2    0    0  0.15423574843E+03  0.18272541092E+03  0.66341175766E+03  0.70518962137E+03  0.00000000000E+00 0.  1.
</event>
<event>
 7    1  0.2380582E-009  0.1079954E+03  0.7561462E-02  0.1264328E+00
          2   -1    0    0  501    0  0.00000000000E+00  0.00000000000E+00  0.83888215464E+03  0.83888215464E+03  0.00000000000E+00 0. -1.
         -2   -1    0    0    0  501 -0.00000000000E+00 -0.00000000000E+00 -0.26338789270E+02  0.26338789270E+02  0.00000000000E+00 0.  1.
         25    2    1    2    0    0 -0.80288938195E+02 -0.15436876691E+02  0.59221283411E+03  0.61077682475E+03  0.12509067912E+03 0.  0.
          5    1    3    3  502    0 -0.25964657678E+02  0.39054018378E+02  0.80211906029E+02  0.93009688036E+02  0.41800000000E+01 0.  1.
         -5    1    3    3    0  502 -0.54324280517E+02 -0.54490895069E+02  0.51200092808E+03  0.51776713671E+03  0.41800000000E+01 0.  1.
        -11    1    1    2    0    0  0.53316057942E+02 -0.10600883417E+02  0.33420928590E+02  0.63811748381E+02  0.00000000000E+00 0.  1.
         11    1    1    2    0    0  0.26972880254E+02  0.26037760109E+02  0.18690960267E+03  0.19063237078E+03  0.00000000000E+00 0. -1.
</event>
<event>
 7    1  0.2380582E-009  0.1096014E+03  0.7561462E-02  0.1261310E+00
          2   -1    0    0  501    0  0.00000000000E+00  0.00000000000E+00  0.59122634785E+02  0.59122634785E+02  0.00000000000E+00 0. -1.
         -2   -1    0    0    0  501 -0.00000000000E+00 -0.00000000000E+00 -0.24566345112E+03  0.24566345112E+03  0.00000000000E+00 0.  1.
         25    2    1    2    0    0 -0.29811816139E+02  0.24421437124E+02 -0.15294717616E+03  0.20131381255E+03  0.12509700818E+03 0.  0.
          5    1    3    3  502    0 -0.26806503201E+02 -0.45625753661E+02 -0.33568650679E+02  0.62806247455E+02  0.41800000000E+01 0.  1.
         -5    1    3    3    0  502 -0.30053129378E+01  0.70047190785E+02 -0.11937852548E+03  0.13850756510E+03  0.41800000000E+01 0.  1.
        -11    1    1    2    0    0 -0.37807792144E+01 -0.52173688152E+02 -0.79450055786E+01  0.52910406732E+02  0.00000000000E+00 0. -1.
         11    1    1    2    0    0  0.33592595353E+02  0.27752251028E+02 -0.25648634596E+02  0.50561866623E+02  0.00000000000E+00 0.  1.
</event>
<event>
 7    1  0.2380582E-009  0.8955044E+02  0.7561462E-02  0.1303944E+00
         -2   -1    0    0    0  501 -0.00000000000E+00  0.00000000000E+00  0.23933445596E+02  0.23933445596E+02  0.00000000000E+00 0.  1.
          2   -1    0    0  501    0  0.00000000000E+00 -0.00000000000E+00 -0.74717489545E+03  0.74717489545E+03  0.00000000000E+00 0. -1.
         25    2    1    2    0    0  0.73042100890E+02  0.44438144334E+01 -0.32194216135E+03  0.35305641144E+03  0.12508868220E+03 0.  0.
          5    1    3    3  502    0  0.21584766721E+02  0.20451275778E+02 -0.36971338423E+01  0.30253892874E+02  0.41800000000E+01 0.  1.
         -5    1    3    3    0  502  0.51457334169E+02 -0.16007461345E+02 -0.31824502751E+03  0.32280251857E+03  0.41800000000E+01 0.  1.
        -11    1    1    2    0    0 -0.78892470953E+02  0.99190109295E+01 -0.39196976147E+03  0.39995337560E+03  0.00000000000E+00 0. -1.
         11    1    1    2    0    0  0.58503700623E+01 -0.14362825363E+02 -0.93295270321E+01  0.18098554001E+02  0.00000000000E+00 0.  1.
</event>
<event>
 7    1  0.2380582E-009  0.7567609E+02  0.7561462E-02  0.1341790E+00
          1   -1    0    0  501    0  0.00000000000E+00  0.00000000000E+00  0.32740632569E+03  0.32740632569E+03  0.00000000000E+00 0. -1.
         -1   -1    0    0    0  501 -0.00000000000E+00 -0.00000000000E+00 -0.44012377648E+02  0.44012377648E+02  0.00000000000E+00 0.  1.
         25    2    1    2    0    0 -0.57470214132E+02 -0.62452495528E+01  0.16926987914E+03  0.21826778364E+03  0.12508678881E+03 0.  0.
          5    1    3    3  502    0 -0.43685896490E+02 -0.26093707892E+02  0.40276162280E+01  0.51215556584E+02  0.41800000000E+01 0. -1.
         -5    1    3    3    0  502 -0.13784317642E+02  0.19848458339E+02  0.16524226292E+03  0.16705222706E+03  0.41800000000E+01 0. -1.
        -11    1    1    2    0    0 -0.78467345604E+01  0.69025696385E+01 -0.89875296628E+01  0.13783773080E+02  0.00000000000E+00 0.  1.
         11    1    1    2    0    0  0.65316948692E+02 -0.65732008576E+00  0.12311159857E+03  0.13936714662E+03  0.00000000000E+00 0. -1.
</event>
<event>
 7    1  0.2380582E-009  0.1289855E+03  0.7561462E-02  0.1228969E+00
         -3   -1    0    0    0  501 -0.00000000000E+00  0.00000000000E+00  0.32444254095E+02  0.32444254095E+02  0.00000000000E+00 0.  1.
          3   -1    0    0  501    0  0.00000000000E+00 -0.00000000000E+00 -0.54555154063E+03  0.54555154063E+03  0.00000000000E+00 0. -1.
         25    2    1    2    0    0  0.42144384397E+02  0.63055204484E+02 -0.31159407956E+03  0.34422200939E+03  0.12508322583E+03 0.  0.
          5    1    3    3  502    0 -0.29778986829E+02 -0.14815729171E+02 -0.12665288944E+03  0.13101420034E+03  0.41800000000E+01 0. -1.
         -5    1    3    3    0  502  0.71923371227E+02  0.77870933655E+02 -0.18494119011E+03  0.21320780904E+03  0.41800000000E+01 0. -1.
        -11    1    1    2    0    0  0.27078626783E+02 -0.33546890730E+02 -0.78920314801E+02  0.89928093466E+02  0.00000000000E+00 0. -1.
         11    1    1    2    0    0 -0.69223011180E+02 -0.29508313754E+02 -0.12259289218E+03  0.14384569187E+03  0.00000000000E+00 0.  1.
</event>
<event>
 7    1  0.2380582E-009  0.1781049E+03  0.7561462E-02  0.1169650E+00
         -1   -1    0    0    0  501 -0.00000000000E+00  0.00000000000E+00  0.12736223855E+03  0.12736223855E+03  0.00000000000E+00 0.  1.
          1   -1    0    0  501    0  0.00000000000E+00 -0.00000000000E+00 -0.35763252420E+03  0.35763252420E+03  0.00000000000E+00 0. -1.
         25    2    1    2    0    0  0.81441334009E+02 -0.14421868301E+03 -0.31633998150E+02  0.20995450930E+03  0.12509383166E+03 0.  0.
          5    1    3    3  502    0  0.66542436547E+02 -0.11044953319E+03 -0.77833708780E+02  0.15067366679E+03  0.41800000000E+01 0. -1.
         -5    1    3    3    0  502  0.14898897462E+02 -0.33769149822E+02  0.46199710630E+02  0.59280842501E+02  0.41800000000E+01 0. -1.
        -11    1    1    2    0    0  0.12359798831E+02 -0.53772231483E+01 -0.17403734199E+02  0.22012930745E+02  0.00000000000E+00 0.  1.
         11    1    1    2    0    0 -0.93801132840E+02  0.14959590616E+03 -0.18123255330E+03  0.25302732271E+03  0.00000000000E+00 0. -1.
</event>
<event>
 7    1  0.2380582E-009  0.6912168E+02  0.7561462E-02  0.1363106E+00
          2   -1    0    0  501    0  0.00000000000E+00  0.00000000000E+00  0.46839025087E+02  0.46839025087E+02  0.00000000000E+00 0. -1.
         -2   -1    0    0    0  501 -0.00000000000E+00 -0.00000000000E+00 -0.29760467123E+03  0.29760467123E+03  0.00000000000E+00 0.  1.
         25    2    1    2    0    0  0.23827015986E+01 -0.19358980660E+02 -0.95606535585E+02  0.15864471657E+03  0.12508832500E+03 0.  0.
          5    1    3    3  502    0 -0.28034105621E+02 -0.25219984875E+02  0.17150017402E+02  0.41635972571E+02  0.41800000000E+01 0.  1.
         -5    1    3    3    0  502  0.30416807220E+02  0.58610042146E+01 -0.11275655299E+03  0.11700874400E+03  0.41800000000E+01 0.  1.
        -11    1    1    2    0    0  0.31558967287E+02  0.40703493484E+01 -0.14320942567E+03  0.14670199644E+03  0.00000000000E+00 0.  1.
         11    1    1    2    0    0 -0.33941668886E+02  0.15288631312E+02 -0.11949684891E+02  0.39096983300E+02  0.00000000000E+00 0. -1.
</event>
<event>
 7    1  0.2380582E-009  0.8124790E+02  0.7561462E-02  0.1325547E+00
          2   -1    0    0  501    0  0.00000000000E+00  0.00000000000E+00  0.18737443549E+03  0.18737443549E+03  0.00000000000E+00 0. -1.
         -2   -1    0    0    0  501 -0.00000000000E+00 -0.00000000000E+00 -0.82255874813E+02  0.82255874813E+02  0.00000000000E+00 0.  1.
         25    2    1    2    0    0  0.41179265809E+02 -0.36465367668E+02  0.68240199571E+02  0.15274018322E+03  0.12508950300E+03 0.  0.
          5    1    3    3  502    0  0.14208966614E+02 -0.35768665818E+02  0.10213010834E+03  0.10922144302E+03  0.41800000000E+01 0.  1.
         -5    1    3    3    0  502  0.26970299195E+02 -0.69670185027E+00 -0.33889908767E+02  0.43518740197E+02  0.41800000000E+01 0.  1.
        -11    1    1    2    0    0 -0.53864065486E+02 -0.40596668889E+01 -0.85683311320E+01  0.54692181748E+02  0.00000000000E+00 0.  1.
         11    1    1    2    0    0  0.12684799677E+02  0.40525034557E+02  0.45446692241E+02  0.62197945339E+02  0.00000000000E+00 0. -1.
</event>
<event>
 7    1  0.2380582E-009  0.1826797E+03  0.7561462E-02  0.1165235E+00
         -2   -1    0    0    0  501 -0.00000000000E+00  0.00000000000E+00  0.46309269403E+02  0.46309269403E+02  0.00000000000E+00 0.  1.
          2   -1    0    0  501    0  0.00000000000E+00 -0.00000000000E+00 -0.91428296559E+03  0.91428296559E+03  0.00000000000E+00 0. -1.
         25    2    1    2    0    0 -0.11328973430E+03  0.12105254234E+03 -0.33041265920E+03  0.39026708450E+03  0.12509032729E+03 0.  0.
          5    1    3    3  502    0 -0.15665750180E+02 -0.18761507031E+02 -0.10328428073E+03  0.10621923046E+03  0.41800000000E+01 0.  1.
         -5    1    3    3    0  502 -0.97623984118E+02  0.13981404937E+03 -0.22712837848E+03  0.28404785404E+03  0.41800000000E+01 0.  1.
        -11    1    1    2    0    0  0.71497125556E+02 -0.48949977455E+02 -0.14418343490E+03  0.16821653354E+03  0.00000000000E+00 0.  1.
         11    1    1    2    0    0  0.41792608742E+02 -0.72102564880E+02 -0.39337760208E+03  0.40210861695E+03  0.00000000000E+00 0. -1.
</event>
<event>
 7    1  0.2380582E-009  0.1138260E+03  0.7561462E-02  0.1253644E+00
         -2   -1    0    0    0  501 -0.00000000000E+00  0.00000000000E+00  0.12697523620E+02  0.12697523620E+02  0.00000000000E+00 0.  1.
          2   -1    0    0  501    0  0.00000000000E+00 -0.00000000000E+00 -0.13344669845E+04  0.13344669845E+04  0.00000000000E+00 0. -1.
         25    2    1    2    0    0  0.46572893552E+02 -0.48553610324E+02 -0.98452893798E+03  0.99472140390E+03  0.12508778587E+03 0.  0.
          5    1    3    3  502    0 -0.76174480878E+01  0.32466302008E+02 -0.11723561719E+03  0.12195797890E+03  0.41800000000E+01 0. -1.
         -5    1    3    3    0  502  0.54190341640E+02 -0.81019912332E+02 -0.86729332080E+03  0.87276342500E+03  0.41800000000E+01 0. -1.
        -11    1    1    2    0    0  0.18131062073E+02  0.15344966849E+02 -0.40792883168E+02  0.47204477930E+02  0.00000000000E+00 0.  1.
         11    1    1    2    0    0 -0.64703955625E+02  0.33208643475E+02 -0.29644763976E+03  0.30523862632E+03  0.00000000000E+00 0. -1.
</event>
<event>
 7    1  0.2380582E-009  0.9168982E+02  0.7561462E-02  0.1298810E+00
         -1   -1    0    0    0  501 -0.00000000000E+00  0.00000000000E+00  0.11591299862E+03  0.11591299862E+03  0.00000000000E+00 0.  1.
          1   -1    0    0  501    0  0.00000000000E+00 -0.00000000000E+00 -0.33458660427E+03  0.33458660427E+03  0.00000000000E+00 0. -1.
         25    2    1    2    0    0  0.70492217262E+01 -0.56060479359E+02 -0.29185637790E+03  0.32252211291E+03  0.12509156296E+03 0.  0.
          5    1    3    3  502    0 -0.38600710455E+02 -0.38329294956E+02 -0.25582797979E+03  0.26158091930E+03  0.41800000000E+01 0.  1.
         -5    1    3    3    0  502  0.45649932181E+02 -0.17731184403E+02 -0.36028398112E+02  0.60941193613E+02  0.41800000000E+01 0.  1.
        -11    1    1    2    0    0  0.24107474377E+02  0.16057350380E+02  0.71612017051E+02  0.77248234984E+02  0.00000000000E+00 0.  1.
         11    1    1    2    0    0 -0.31156696103E+02  0.40003128979E+02  0.15707551953E+01  0.50729254992E+02  0.00000000000E+00 0. -1.
</event>
<event>
 7    1  0.2380582E-009  0.1152811E+03  0.7561462E-02  0.1251091E+00
         -2   -1    0    0    0  501 -0.00000000000E+00  0.00000000000E+00  0.16334783753E+03  0.16334783753E+03  0.00000000000E+00 0. -1.
          2   -1    0    0  501    0  0.00000000000E+00 -0.00000000000E+00 -0.10283777352E+03  0.10283777352E+03  0.00000000000E+00 0.  1.
         25    2    1    2    0    0  0.15798510132E+02 -0.40594780057E+02  0.49119909297E+02  0.14127559997E+03  0.12509396695E+03 0.  0.
          5    1    3    3  502    0 -0.24484215739E+02 -0.72427705831E+02  0.11361032828E+02  0.77406684849E+02  0.41800000000E+01 0.  1.
         -5    1    3    3    0  502  0.40282725871E+02  0.31832925775E+02  0.37758876469E+02  0.63868915124E+02  0.41800000000E+01 0.  1.
        -11    1    1    2    0    0  0.16193147718E+01  0.69076802603E+02 -0.26865602028E+02  0.74134927063E+02  0.00000000000E+00 0.  1.
         11    1    1    2    0    0 -0.17417824904E+02 -0.28482022547E+02  0.38255756739E+02  0.50775084012E+02  0.00000000000E+00 0. -1.
</event>
<event>
 7    1  0.2380582E-009  0.1016208E+03  0.7561462E-02  0.1276924E+00
          2   -1    0    0  501    0  0.00000000000E+00  0.00000000000E+00  0.19349303737E+03  0.19349303737E+03  0.00000000000E+00 0. -1.
         -2   -1    0    0    0  501 -0.00000000000E+00 -0.00000000000E+00 -0.65322821830E+02  0.65322821830E+02  0.00000000000E+00 0.  1.
         25    2    1    2    0    0  0.21501049194E+02  0.17217001332E+02  0.60841674468E+02  0.14180238001E+03  0.12508990916E+03 0.  0.
          5    1    3    3  502    0  0.29288479374E+02  0.68961430256E+02  0.42231600417E+02  0.86107342084E+02  0.41800000000E+01 0. -1.
         -5    1    3    3    0  502 -0.77874301805E+01 -0.51744428924E+02  0.18610074051E+02  0.55695037927E+02  0.41800000000E+01 0. -1.
        -11    1    1    2    0    0  0.26029142803E+02 -0.85251247576E+01  0.62763916609E+02  0.68479947834E+02  0.00000000000E+00 0. -1.
         11    1    1    2    0    0 -0.47530191996E+02 -0.86918765743E+01  0.45646244650E+01  0.48533531358E+02  0.00000000000E+00 0.  1.
</event>
<event>
 7    1  0.2380582E-009  0.9226702E+02  0.7561462E-02  0.1297453E+00
          1   -1    0    0  501    0  0.00000000000E+00  0.00000000000E+00  0.74280006249E+02  0.74280006249E+02  0.00000000000E+00 0. -1.
         -1   -1    0    0    0  501 -0.00000000000E+00 -0.00000000000E+00 -0.15419857867E+03  0.15419857867E+03  0.00000000000E+00 0.  1.
         25    2    1    2    0    0  0.28682543972E+02 -0.19886416412E+02 -0.91026607978E+02  0.15859557110E+03  0.12509418023E+03 0.  0.
          5    1    3    3  502    0 -0.35530188170E+02  0.22650111781E+02 -0.43496444131E+01  0.42565404281E+02  0.41800000000E+01 0.  1.
         -5    1    3    3    0  502  0.64212732142E+02 -0.42536528193E+02 -0.86676963565E+02  0.11603016682E+03  0.41800000000E+01 0.  1.
        -11    1    1    2    0    0 -0.40632863431E+02 -0.13846167804E+01 -0.45229413702E+01  0.40907257948E+02  0.00000000000E+00 0. -1.
         11    1    1    2    0    0  0.11950319459E+02  0.21271033193E+02  0.15630976928E+02  0.28975755866E+02  0.00000000000E+00 0.  1.
</event>
<event>
 7    1  0.2380582E-009  0.1833376E+03  0.7561462E-02  0.1164611E+00
         -1   -1    0    0    0  501 -0.00000000000E+00  0.00000000000E+00  0.18535145669E+03  0.18535145669E+03  0.00000000000E+00 0.  1.
          1   -1    0    0  501    0  0.00000000000E+00 -0.00000000000E+00 -0.21050459415E+03  0.21050459415E+03  0.00000000000E+00 0. -1.
         25    2    1    2    0    0  0.13672686027E+03 -0.63431296653E+02  0.52643951402E+02  0.20282577949E+03  0.12509655268E+03 0.  0.
          5    1    3    3  502    0  0.15245388534E+03 -0.75358349048E+02  0.61368647240E+02  0.18084427331E+03  0.41800000000E+01 0. -1.
         -5    1    3    3    0  502 -0.15727025069E+02  0.11927052395E+02 -0.87246958376E+01  0.21981506177E+02  0.41800000000E+01 0. -1.
        -11    1    1    2    0    0 -0.91082672921E+02 -0.81968337956E+01 -0.45688893577E+02  0.10222874540E+03  0.00000000000E+00 0.  1.
         11    1    1    2    0    0 -0.45644187347E+02  0.71628130449E+02 -0.32108195277E+02  0.90801525946E+02  0.00000000000E+00 0. -1.
</event>
<event>
 7    1  0.2380582E-009  0.1072257E+03  0.7561462E-02  0.1265796E+00
          1   -1    0    0  501    0  0.00000000000E+00  0.00000000000E+00  0.28599396807E+03  0.28599396807E+03  0.00000000000E+00 0. -1.
         -1   -1    0    0    0  501 -0.00000000000E+00 -0.00000000000E+00 -0.48903636468E+02  0.48903636468E+02  0.00000000000E+00 0.  1.
         25    2    1    2    0    0 -0.17127606391E+02  0.42157907676E+02  0.12951575415E+03  0.18572108547E+03  0.12508935580E+03 0.  0.
          5    1    3    3  502    0 -0.55595669505E+00 -0.36289068869E+02  0.40380403240E+01  0.36755731211E+02  0.41800000000E+01 0. -1.
         -5    1    3    3    0  502 -0.16571649696E+02  0.78446976545E+02  0.12547771383E+03  0.14896535426E+03  0.41800000000E+01 0. -1.
        -11    1    1    2    0    0  0.13281574068E+02  0.26089306025E+02  0.11921817793E+02  0.31609837678E+02  0.00000000000E+00 0.  1.
         11    1    1    2    0    0  0.38460323230E+01 -0.68247213700E+02  0.95652759662E+02  0.11756668139E+03  0.00000000000E+00 0. -1.
</event>
<event>
 7    1  0.2380582E-009  0.1525167E+03  0.7561462E-02  0.1197414E+00
          1   -1    0    0  501    0  0.00000000000E+00  0.00000000000E+00  0.40980990189E+02  0.40980990189E+02  0.00000000000E+00 0. -1.
         -1   -1    0    0    0  501 -0.00000000000E+00 -0.00000000000E+00 -0.66335819194E+03  0.66335819194E+03  0.00000000000E+00 0.  1.
         25    2    1    2    0    0 -0.11504646255E+03  0.40447744759E+02 -0.28887946226E+03  0.33759504738E+03  0.12508942280E+03 0.  0.
          5    1    3    3  502    0 -0.12797584131E+03  0.52299070344E+02 -0.28806114577E+03  0.31954609186E+03  0.41800000000E+01 0.  1.
         -5    1    3    3    0  502  0.12929378763E+02 -0.11851325585E+02 -0.81831648371E+00  0.18048955515E+02  0.41800000000E+01 0.  1.
        -11    1    1    2    0    0  0.10670425341E+03 -0.63503717750E+02 -0.30403255346E+03  0.32841180464E+03  0.00000000000E+00 0.  1.
         11    1    1    2    0    0  0.83422091425E+01  0.23055972990E+02 -0.29465186032E+02  0.38332330112E+02  0.00000000000E+00 0. -1.
</event>
<event>
 7    1  0.2380582E-009  0.9389933E+02  0.7561462E-02  0.1293674E+00
          1   -1    0    0  501    0  0.00000000000E+00  0.00000000000E+00  0.20299490212E+03  0.20299490212E+03  0.00000000000E+00 0.  1.
         -1   -1    0    0    0  501 -0.00000000000E+00 -0.00000000000E+00 -0.67293312143E+02  0.67293312143E+02  0.00000000000E+00 0. -1.
         25    2    1    2    0    0 -0.26301566175E+01  0.46430030752E+02  0.79939673720E+02  0.15556536079E+03  0.12509022570E+03 0.  0.
          5    1    3    3  502    0  0.45740921858E+02  0.64899872502E+02  0.34974780577E+02  0.86861574126E+02  0.41800000000E+01 0. -1.
         -5    1    3    3    0  502 -0.48371078476E+02 -0.18469841750E+02  0.44964893143E+02  0.68703786668E+02  0.41800000000E+01 0. -1.
        -11    1    1    2    0    0  0.15975605287E+02 -0.36068351302E+02  0.77636065627E+02  0.87083319964E+02  0.00000000000E+00 0.  1.
         11    1    1    2    0    0 -0.13345448670E+02 -0.10361679450E+02 -0.21874149374E+02  0.27639533500E+02  0.00000000000E+00 0. -1.
</event>
<event>
 7    1  0.2380582E-009  0.2328211E+03  0.7561462E-02  0.1124670E+00
         -1   -1    0    0    0  501 -0.00000000000E+00  0.00000000000E+00  0.65117887253E+03  0.65117887253E+03  0.00000000000E+00 0.  1.
          1   -1    0    0  501    0  0.00000000000E+00 -0.00000000000E+00 -0.95788396298E+02  0.95788396298E+02  0.00000000000E+00 0. -1.
         25    2    1    2    0    0 -0.20913192494E+03 -0.74936289812E+02  0.23825303834E+03  0.34894699481E+03  0.12509150790E+03 0.  0.
          5    1    3    3  502    0 -0.17242238127E+03 -0.25713535906E+02  0.22721757847E+03  0.28641921000E+03  0.41800000000E+01 0.  1.
         -5    1    3    3    0  502 -0.36709543667E+02 -0.49222753906E+02  0.11035459869E+02  0.62527784807E+02  0.41800000000E+01 0.  1.
        -11    1    1    2    0    0  0.10797767224E+03  0.76930755326E+01  0.91393844149E+02  0.14167284801E+03  0.00000000000E+00 0. -1.
         11    1    1    2    0    0  0.10115425270E+03  0.67243214280E+02  0.22574359374E+03  0.25634742601E+03  0.00000000000E+00 0.  1.
</event>
<event>
 7    1  0.2380582E-009  0.1642890E+03  0.7561462E-02  0.1183938E+00
          2   -1    0    0  501    0  0.00000000000E+00  0.00000000000E+00  0.19281883359E+03  0.19281883359E+03  0.00000000000E+00 0. -1.
         -2   -1    0    0    0  501 -0.00000000000E+00 -0.00000000000E+00 -0.18493110080E+03  0.18493110080E+03  0.00000000000E+00 0.  1.
         25    2    1    2    0    0 -0.17809737410E+02 -0.14456934463E+03 -0.45905859147E+02  0.19741333208E+03  0.12508874300E+03 0.  0.
          5    1    3    3  502    0 -0.48738805395E+02 -0.71120805193E+02 -0.73088545737E+02  0.11310635703E+03  0.41800000000E+01 0. -1.
         -5    1    3    3    0  502  0.30929067985E+02 -0.73448539442E+02  0.27182686589E+02  0.84306975054E+02  0.41800000000E+01 0. -1.
        -11    1    1    2    0    0  0.39213063258E+02  0.41146330439E+02 -0.88763571972E+01  0.57528032782E+02  0.00000000000E+00 0.  1.
         11    1    1    2    0    0 -0.21403325848E+02  0.10342301420E+03  0.62669949138E+02  0.12280856952E+03  0.00000000000E+00 0. -1.
</event>
<event>
 7    1  0.2380582E-009  0.3630881E+02  0.7561462E-02  0.1537276E+00
         -1   -1    0    0    0  501 -0.00000000000E+00  0.00000000000E+00  0.34378894247E+02  0.34378894247E+02  0.00000000000E+00 0.  1.
          1   -1    0    0  501    0  0.00000000000E+00 -0.00000000000E+00 -0.41104564530E+03  0.41104564530E+03  0.00000000000E+00 0. -1.
         25    2    1    2    0    0  0.19173416727E+02 -0.13801729699E+02 -0.28939928173E+03  0.31616115535E+03  0.12509126362E+03 0.  0.
          5    1    3    3  502    0  0.27184276042E+02 -0.11355727231E+02 -0.33331911971E+01  0.29941943298E+02  0.41800000000E+01 0. -1.
         -5    1    3    3    0  502 -0.80108593154E+01 -0.24460024674E+01 -0.28606609053E+03  0.28621921205E+03  0.41800000000E+01 0. -1.
        -11    1    1    2    0    0 -0.15474885796E+02 -0.34518403432E+01  0.17155404578E+02  0.23360119828E+02  0.00000000000E+00 0.  1.
         11    1    1    2    0    0 -0.36985309309E+01  0.17253570042E+02 -0.10442287390E+03  0.10590326437E+03  0.00000000000E+00 0. -1.
</event>
<event>
 7    1  0.2380582E-009  0.1152223E+03  0.7561462E-02  0.1251194E+00
         -2   -1    0    0    0  501 -0.00000000000E+00  0.00000000000E+00  0.38586659097E+02  0.38586659097E+02  0.00000000000E+00 0. -1.
          2   -1    0    0  501    0  0.00000000000E+00 -0.00000000000E+00 -0.43806272598E+03  0.43806272598E+03  0.00000000000E+00 0.  1.
         25    2    1    2    0    0 -0.69463449254E+02 -0.18469854051E+02 -0.21362359375E+03  0.25777632755E+03  0.12508912402E+03 0.  0.
          5    1    3    3  502    0 -0.82766080453E+02  0.13691234492E+02 -0.68224763153E+02  0.10821166611E+03  0.41800000000E+01 0.  1.
         -5    1    3    3    0  502  0.13302631199E+02 -0.32161088543E+02 -0.14539883059E+03  0.14956466144E+03  0.41800000000E+01 0.  1.
        -11    1    1    2    0    0  0.62117325175E+02 -0.25257336363E+02 -0.13920893638E+03  0.15451738768E+03  0.00000000000E+00 0.  1.
         11    1    1    2    0    0  0.73461240790E+01  0.43727190414E+02 -0.46643536757E+02  0.64355669848E+02  0.00000000000E+00 0. -1.
</event>
<event>
 7    1  0.2380582E-009  0.1614928E+03  0.7561462E-02  0.1187022E+00
          2   -1    0    0  501    0  0.00000000000E+00  0.00000000000E+00  0.12433442721E+03  0.12433442721E+03  0.00000000000E+00 0. -1.
         -2   -1    0    0    0  501 -0.00000000000E+00 -0.00000000000E+00 -0.29391618735E+03  0.29391618735E+03  0.00000000000E+00 0.  1.
         25    2    1    2    0    0 -0.10738335861E+03  0.10371396583E+03 -0.38486556400E+02  0.19853701909E+03  0.12509180833E+03 0.  0.
          5    1    3    3  502    0 -0.18052377547E+02  0.25225838504E+02  0.43824708697E+02  0.53854514720E+02  0.41800000000E+01 0.  1.
         -5    1    3    3    0  502 -0.89330981061E+02  0.78488127323E+02 -0.82311265097E+02  0.14468250437E+03  0.41800000000E+01 0.  1.
        -11    1    1    2    0    0  0.99430980985E+02 -0.37905485453E+02 -0.10172262278E+03  0.14721018237E+03  0.00000000000E+00 0.  1.
         11    1    1    2    0    0  0.79523776239E+01 -0.65808480374E+02 -0.29372580963E+02  0.72503413102E+02  0.00000000000E+00 0. -1.
</event>
<event>
 7    1  0.2380582E-009  0.1251369E+03  0.7561462E-02  0.1234855E+00
          1   -1    0    0  501    0  0.00000000000E+00  0.00000000000E+00  0.15055492684E+03  0.15055492684E+03  0.00000000000E+00 0. -1.
         -1   -1    0    0    0  501 -0.00000000000E+00 -0.00000000000E+00 -0.12556327188E+03  0.12556327188E+03  0.00000000000E+00 0.  1.
         25    2    1    2    0    0 -0.69726108857E+02  0.49198983400E+02  0.26084725550E+02  0.15365800057E+03  0.12509235791E+03 0.  0.
          5    1    3    3  502    0 -0.73993840056E+02  0.86248312469E+02  0.16325063775E+02  0.11488185182E+03  0.41800000000E+01 0.  1.
         -5    1    3    3    0  502  0.42677311991E+01 -0.37049329069E+02  0.97596617745E+01  0.38776148752E+02  0.41800000000E+01 0.  1.
        -11    1    1    2    0    0 -0.74057083299E+00 -0.24273574728E+02 -0.33181013135E+02  0.41118542142E+02  0.00000000000E+00 0.  1.
         11    1    1    2    0    0  0.70466679690E+02 -0.24925408673E+02  0.32087942547E+02  0.81341656001E+02  0.00000000000E+00 0. -1.
</event>
<event>
 7    1  0.2380582E-009  0.9884501E+02  0.7561462E-02  0.1282744E+00
          1   -1    0    0  501    0  0.00000000000E+00  0.00000000000E+00  0.15394250722E+02  0.15394250722E+02  0.00000000000E+00 0. -1.
         -1   -1    0    0    0  501 -0.00000000000E+00 -0.00000000000E+00 -0.86192202574E+03  0.86192202574E+03  0.00000000000E+00 0.  1.
         25    2    1    2    0    0 -0.12159523738E+02  0.27661777425E+02 -0.38129086666E+03  0.40242381531E+03  0.12509665937E+03 0.  0.
          5    1    3    3  502    0 -0.38004175024E+02 -0.23835071008E+02 -0.55187470525E+02  0.71242945140E+02  0.41800000000E+01 0.  1.
         -5    1    3    3    0  502  0.25844651286E+02  0.51496848434E+02 -0.32610339613E+03  0.33118087017E+03  0.41800000000E+01 0.  1.
        -11    1    1    2    0    0 -0.38832339454E+02 -0.18669669861E+02 -0.23339956793E+03  0.23734334933E+03  0.00000000000E+00 0. -1.
         11    1    1    2    0    0  0.50991863192E+02 -0.89921075642E+01 -0.23183734043E+03  0.23754911182E+03  0.00000000000E+00 0.  1.
</event>
<event>
 7    1  0.2380582E-009  0.1816826E+03  0.7561462E-02  0.1166184E+00
         -1   -1    0    0    0  501 -0.00000000000E+00  0.00000000000E+00  0.63640015993E+02  0.63640015993E+02  0.00000000000E+00 0.  1.
          1   -1    0    0  501    0  0.00000000000E+00 -0.00000000000E+00 -0.73238733720E+03  0.73238733720E+03  0.00000000000E+00 0. -1.
         25    2    1    2    0    0 -0.11061712289E+03  0.13633305436E+03 -0.39284861146E+03  0.44810630654E+03  0.12508549417E+03 0.  0.
          5    1    3    3  502    0 -0.74793231590E+02  0.89663124248E+02 -0.36430160453E+03  0.38257892625E+03  0.41800000000E+01 0.  1.
         -5    1    3    3    0  502 -0.35823891297E+02  0.46669930111E+02 -0.28547006928E+02  0.65527380299E+02  0.41800000000E+01 0.  1.
        -11    1    1    2    0    0  0.71377807431E+02 -0.36271353413E+02 -0.20254314809E+03  0.21779377702E+03  0.00000000000E+00 0. -1.
         11    1    1    2    0    0  0.39239315456E+02 -0.10006170095E+03 -0.73355561653E+02  0.13012726962E+03  0.00000000000E+00 0.  1.
</event>
<event>
 7    1  0.2380582E-009  0.1580998E+03  0.7561462E-02  0.1190859E+00
         -2   -1    0    0    0  501 -0.00000000000E+00  0.00000000000E+00  0.20666724608E+02  0.20666724608E+02  0.00000000000E+00 0. -1.
          2   -1    0    0  501    0  0.00000000000E+00 -0.00000000000E+00 -0.17022306005E+04  0.17022306005E+04  0.00000000000E+00 0.  1.
         25    2    1    2    0    0 -0.10392466175E+03 -0.10775207161E+03 -0.10019630917E+04  0.10207781190E+04  0.12508831666E+03 0.  0.
          5    1    3    3  502    0 -0.50058585360E+02 -0.26745998607E+02 -0.11322998099E+03  0.12672691665E+03  0.41800000000E+01 0.  1.
         -5    1    3    3    0  502 -0.53866076391E+02 -0.81006073005E+02 -0.88873311068E+03  0.89405120237E+03  0.41800000000E+01 0.  1.
        -11    1    1    2    0    0  0.18031232981E+02  0.62065756587E+02 -0.14520000378E+03  0.15893496972E+03  0.00000000000E+00 0.  1.
         11    1    1    2    0    0  0.85893428770E+02  0.45686315026E+02 -0.53440078043E+03  0.54318423634E+03  0.00000000000E+00 0. -1.
</event>
<event>
 7    1  0.2380582E-009  0.1415779E+03  0.7561462E-02  0.1211221E+00
         -2   -1    0    0    0  501 -0.00000000000E+00  0.00000000000E+00  0.33212787427E+02  0.33212787427E+02  0.00000000000E+00 0.  1.
          2   -1    0    0  501    0  0.00000000000E+00 -0.00000000000E+00 -0.62230855572E+03  0.62230855572E+03  0.00000000000E+00 0. -1.
         25    2    1    2    0    0 -0.54994098113E+01 -0.92879210736E+02 -0.36337305995E+03  0.39540404351E+03  0.12509030990E+03 0.  0.
          5    1    3    3  502    0  0.59029088789E+02 -0.53936793889E+02 -0.20015485855E+03  0.21557609065E+03  0.41800000000E+01 0. -1.
         -5    1    3    3    0  502 -0.64528498600E+02 -0.38942416847E+02 -0.16321820140E+03  0.17982795286E+03  0.41800000000E+01 0. -1.
        -11    1    1    2    0    0 -0.19921092938E+02  0.99385326060E+02 -0.19454242725E+03  0.21936510429E+03  0.00000000000E+00 0.  1.
         11    1    1    2    0    0  0.25420502749E+02 -0.65061153236E+01 -0.31180281091E+02  0.40752195347E+02  0.00000000000E+00 0. -1.
</event>
<event>
 7    1  0.2380582E-009  0.1075401E+03  0.7561462E-02  0.1265194E+00
         -2   -1    0    0    0  501 -0.00000000000E+00  0.00000000000E+00  0.23451518675E+02  0.23451518675E+02  0.00000000000E+00 0.  1.
          2   -1    0    0  501    0  0.00000000000E+00 -0.00000000000E+00 -0.74955226858E+03  0.74955226858E+03  0.00000000000E+00 0. -1.
         25    2    1    2    0    0 -0.29387453663E+02  0.38356622570E+02 -0.62311631584E+03  0.63738156640E+03  0.12508583129E+03 0.  0.
          5    1    3    3  502    0 -0.75315885990E+02  0.43690780868E+02 -0.37974895982E+03  0.38962560478E+03  0.41800000000E+01 0. -1.
         -5    1    3    3    0  502  0.45928432327E+02 -0.53341582985E+01 -0.24336735603E+03  0.24775596162E+03  0.41800000000E+01 0. -1.
        -11    1    1    2    0    0 -0.15609490338E+02 -0.32567985454E+02 -0.20614282580E+02  0.41584594641E+02  0.00000000000E+00 0.  1.
         11    1    1    2    0    0  0.44996944001E+02 -0.57886371151E+01 -0.82370151486E+02  0.94037626219E+02  0.00000000000E+00 0. -1.
</event>
<event>
 7    1  0.2380582E-009  0.1570242E+03  0.7561462E-02  0.1192098E+00
         -2   -1    0    0    0  501 -0.00000000000E+00  0.00000000000E+00  0.18606236593E+03  0.18606236593E+03  0.00000000000E+00 0.  1.
          2   -1    0    0  501    0  0.00000000000E+00 -0.00000000000E+00 -0.57322973410E+03  0.57322973410E+03  0.00000000000E+00 0. -1.
         25    2    1    2    0    0 -0.90118210104E-01  0.12597270353E+03  0.12963662390E+03  0.21981895430E+03  0.12508232591E+03 0.  0.
          5    1    3    3  502    0 -0.32701736683E+02 -0.12348092861E+02  0.22250951778E+02  0.41646803412E+02  0.41800000000E+01 0. -1.
         -5    1    3    3    0  502  0.32611618472E+02  0.13832079639E+03  0.10738567213E+03  0.17817215089E+03  0.41800000000E+01 0. -1.
        -11    1    1    2    0    0  0.10201909998E+02  0.89464182641E-01 -0.34486265798E+01  0.10769400946E+02  0.00000000000E+00 0.  1.
         11    1    1    2    0    0 -0.10111791788E+02 -0.12606216771E+03 -0.51335536550E+03  0.52870374478E+03  0.00000000000E+00 0. -1.
</event>
<event>
 7    1  0.2380582E-009  0.1014376E+03  0.7561462E-02  0.1277302E+00
          2   -1    0    0  501    0  0.00000000000E+00  0.00000000000E+00  0.27362861818E+03  0.27362861818E+03  0.00000000000E+00 0. -1.
         -2   -1    0    0    0  501 -0.00000000000E+00 -0.00000000000E+00 -0.61337493727E+02  0.61337493727E+02  0.00000000000E+00 0.  1.
         25    2    1    2    0    0 -0.24498912984E+02 -0.60701405432E+02  0.14816169825E+03  0.20465569808E+03  0.12508880274E+03 0.  0.
          5    1    3    3  502    0  0.93969728490E+01  0.92928263699E+01  0.12157228950E+03  0.12235993501E+03  0.41800000000E+01 0.  1.
         -5    1    3    3    0  502 -0.33895885833E+02 -0.69994231801E+02  0.26589408743E+02  0.82295763070E+02  0.41800000000E+01 0.  1.
        -11    1    1    2    0    0 -0.32854528482E+02  0.35845278983E+02  0.15247388389E+02  0.50958678553E+02  0.00000000000E+00 0.  1.
         11    1    1    2    0    0  0.57353441466E+02  0.24856126449E+02  0.48882037820E+02  0.79351735277E+02  0.00000000000E+00 0. -1.
</event>
<event>
 7    1  0.2380582E-009  0.9570941E+02  0.7561462E-02  0.1289586E+00
          1   -1    0    0  501    0  0.00000000000E+00  0.00000000000E+00  0.52769139747E+03  0.52769139747E+03  0.00000000000E+00 0. -1.
         -1   -1    0    0    0  501 -0.00000000000E+00 -0.00000000000E+00 -0.28462247027E+02  0.28462247027E+02  0.00000000000E+00 0.  1.
         25    2    1    2    0    0  0.44650980083E+01 -0.13409302445E+01  0.38466715744E+03  0.40452166662E+03  0.12508885463E+03 0.  0.
          5    1    3    3  502    0 -0.42595717131E+02  0.25097742941E+02  0.29964499071E+03  0.30372501490E+03  0.41800000000E+01 0. -1.
         -5    1    3    3    0  502  0.47060815139E+02 -0.26438673185E+02  0.85022166734E+02  0.10079665172E+03  0.41800000000E+01 0. -1.
        -11    1    1    2    0    0 -0.44565940083E+02 -0.10623193288E+02  0.23667158085E+02  0.51566555275E+02  0.00000000000E+00 0.  1.
         11    1    1    2    0    0  0.40100842075E+02  0.11964123533E+02  0.90894834918E+02  0.10006542261E+03  0.00000000000E+00 0. -1.
</event>
<event>
 7    1  0.2380582E-009  0.7743239E+02  0.7561462E-02  0.1336500E+00
         -1   -1    0    0    0  501 -0.00000000000E+00  0.00000000000E+00  0.73086823645E+02  0.73086823645E+02  0.00000000000E+00 0.  1.
          1   -1    0    0  501    0  0.00000000000E+00 -0.00000000000E+00 -0.16364351795E+03  0.16364351795E+03  0.00000000000E+00 0. -1.
         25    2    1    2    0    0 -0.46534595420E+01  0.87608994509E+00 -0.68791382034E+02  0.14283919445E+03  0.12509340114E+03 0.  0.
          5    1    3    3  502    0 -0.10273965241E+02 -0.41326603926E+02 -0.86526641030E+02  0.96528620428E+02  0.41800000000E+01 0.  1.
         -5    1    3    3    0  502  0.56205056989E+01  0.42202693871E+02  0.17735258996E+02  0.46310574019E+02  0.41800000000E+01 0.  1.
        -11    1    1    2    0    0  0.30457420831E+02  0.19716329408E+02  0.19384019161E+02  0.41135487451E+02  0.00000000000E+00 0.  1.
         11    1    1    2    0    0 -0.25803961289E+02 -0.20592419353E+02 -0.41149331434E+02  0.52755659701E+02  0.00000000000E+00 0. -1.
</event>
<event>
 7    1  0.2380582E-009  0.1307053E+03  0.7561462E-02  0.1226413E+00
          1   -1    0    0  501    0  0.00000000000E+00  0.00000000000E+00  0.99085131199E+03  0.99085131199E+03  0.00000000000E+00 0. -1.
         -1   -1    0    0    0  501 -0.00000000000E+00 -0.00000000000E+00 -0.24216565359E+02  0.24216565359E+02  0.00000000000E+00 0.  1.
         25    2    1    2    0    0 -0.96466841491E+02  0.42722770581E+02  0.61603373217E+03  0.63739879451E+03  0.12509427419E+03 0.  0.
          5    1    3    3  502    0 -0.16241139023E+02  0.57756130909E+02  0.43024534416E+03  0.43442844500E+03  0.41800000000E+01 0.  1.
         -5    1    3    3    0  502 -0.80225702469E+02 -0.15033360328E+02  0.18578838801E+03  0.20297034950E+03  0.41800000000E+01 0.  1.
        -11    1    1    2    0    0  0.69254155517E+02 -0.43823608735E+00  0.29360359701E+03  0.30166107187E+03  0.00000000000E+00 0.  1.
         11    1    1    2    0    0  0.27212685975E+02 -0.42284534493E+02  0.56997417452E+02  0.76008010969E+02  0.00000000000E+00 0. -1.
</event>
<event>
 7    1  0.2380582E-009  0.2851636E+03  0.7561462E-02  0.1092902E+00
          1   -1    0    0  501    0  0.00000000000E+00  0.00000000000E+00  0.10285156189E+04  0.10285156189E+04  0.00000000000E+00 0. -1.
         -1   -1    0    0    0  501 -0.00000000000E+00 -0.00000000000E+00 -0.10112182544E+03  0.10112182544E+03  0.00000000000E+00 0.  1.
         25    2    1    2    0    0  0.27640725203E+03  0.65407892698E+02  0.65641626596E+03  0.72609136037E+03  0.12508872048E+03 0.  0.
          5    1    3    3  502    0  0.31948317606E+02 -0.30282909996E+01  0.21040011549E+03  0.21287448542E+03  0.41800000000E+01 0. -1.
         -5    1    3    3    0  502  0.24445893442E+03  0.68436183698E+02  0.44601615047E+03  0.51321687496E+03  0.41800000000E+01 0. -1.
        -11    1    1    2    0    0 -0.20739385973E+03 -0.50964305553E+02  0.14172121723E+03  0.25630933831E+03  0.00000000000E+00 0.  1.
         11    1    1    2    0    0 -0.69013392300E+02 -0.14443587145E+02  0.12925631028E+03  0.14723674567E+03  0.00000000000E+00 0. -1.
</event>
<event>
 7    1  0.2380582E-009  0.1078922E+03  0.7561462E-02  0.1264524E+00
          3   -1    0    0  501    0  0.00000000000E+00  0.00000000000E+00  0.40383523273E+03  0.40383523273E+03  0.00000000000E+00 0. -1.
         -3   -1    0    0    0  501 -0.00000000000E+00 -0.00000000000E+00 -0.46318441591E+02  0.46318441591E+02  0.00000000000E+00 0.  1.
         25    2    1    2    0    0  0.18909795176E+02  0.60436907822E+02  0.11003148586E+03  0.17822296549E+03  0.12508516046E+03 0.  0.
          5    1    3    3  502    0  0.20050425724E+02 -0.31612402290E+02  0.66228455589E+02  0.76190841182E+02  0.41800000000E+01 0. -1.
         -5    1    3    3    0  502 -0.11406305486E+01  0.92049310112E+02  0.43803030275E+02  0.10203212431E+03  0.41800000000E+01 0. -1.
        -11    1    1    2    0    0 -0.34803992979E+02 -0.60811784745E+02  0.24620452634E+03  0.25598058497E+03  0.00000000000E+00 0. -1.
         11    1    1    2    0    0  0.15894197803E+02  0.37487692346E+00  0.12807789371E+01  0.15950123861E+02  0.00000000000E+00 0.  1.
</event>
<event>
 7    1  0.2380582E-009  0.9301095E+02  0.7561462E-02  0.1295720E+00
         -2   -1    0    0    0  501 -0.00000000000E+00  0.00000000000E+00  0.91153795829E+02  0.91153795829E+02  0.00000000000E+00 0.  1.
          2   -1    0    0  501    0  0.00000000000E+00 -0.00000000000E+00 -0.16331998173E+03  0.16331998173E+03  0.00000000000E+00 0. -1.
         25    2    1    2    0    0  0.45376578796E+02 -0.15353371514E+02 -0.68864490266E+02  0.15061314887E+03  0.12508893905E+03 0.  0.
          5    1    3    3  502    0 -0.16915740965E+02 -0.26150826426E+02 -0.80300421359E+02  0.86230146037E+02  0.41800000000E+01 0. -1.
         -5    1    3    3    0  502  0.62292319762E+02  0.10797454912E+02  0.11435931092E+02  0.64383002833E+02  0.41800000000E+01 0. -1.
        -11    1    1    2    0    0 -0.11481759512E+02  0.44856057692E+02  0.23097589289E+02  0.51743553649E+02  0.00000000000E+00 0.  1.
         11    1    1    2    0    0 -0.33894819284E+02 -0.29502686178E+02 -0.26399284920E+02  0.52117075036E+02  0.00000000000E+00 0. -1.
</event>
<event>
 7    1  0.2380582E-009  0.1304003E+03  0.7561462E-02  0.1226863E+00
         -1   -1    0    0    0  501 -0.00000000000E+00  0.00000000000E+00  0.41835898768E+02  0.41835898768E+02  0.00000000000E+00 0.  1.
          1   -1    0    0  501    0  0.00000000000E+00 -0.00000000000E+00 -0.47633181110E+03  0.47633181110E+03  0.00000000000E+00 0. -1.
         25    2    1    2    0    0  0.75514065819E+02  0.20088451913E+02 -0.31782093444E+03  0.35037610824E+03  0.12508937135E+03 0.  0.
          5    1    3    3  502    0 -0.32251024698E+02  0.15801036530E+02 -0.11604451662E+03  0.12154671360E+03  0.41800000000E+01 0.  1.
         -5    1    3    3    0  502  0.10776509052E+03  0.42874153837E+01 -0.20177641782E+03  0.22882939464E+03  0.41800000000E+01 0.  1.
        -11    1    1    2    0    0 -0.84010189141E+02 -0.41482528198E+02 -0.74341124461E+02  0.11960399162E+03  0.00000000000E+00 0.  1.
         11    1    1    2    0    0  0.84961233215E+01  0.21394076285E+02 -0.42333853436E+02  0.48187610008E+02  0.00000000000E+00 0. -1.
</event>
<event>
 7    1  0.2380582E-009  0.9463925E+02  0.7561462E-02  0.1291991E+00
         -1   -1    0    0    0  501 -0.00000000000E+00  0.00000000000E+00  0.53998036108E+02  0.53998036108E+02  0.00000000000E+00 0.  1.
          1   -1    0    0  501    0  0.00000000000E+00 -0.00000000000E+00 -0.28216528915E+03  0.28216528915E+03  0.00000000000E+00 0. -1.
         25    2    1    2    0    0 -0.49304928357E+02 -0.30825900585E+02 -0.14328945378E+03  0.19889856116E+03  0.12509019930E+03 0.  0.
          5    1    3    3  502    0 -0.58562520346E+02 -0.11498335576E+02 -0.62746954589E+01  0.60155005722E+02  0.41800000000E+01 0. -1.
         -5    1    3    3    0  502  0.92575919888E+01 -0.19327565009E+02 -0.13701475832E+03  0.13874355544E+03  0.41800000000E+01 0. -1.
        -11    1    1    2    0    0 -0.25435323074E+02  0.19443000426E+02 -0.20983757013E+02  0.38279289228E+02  0.00000000000E+00 0.  1.
         11    1    1    2    0    0  0.74740251431E+02  0.11382900159E+02 -0.63894042253E+02  0.98985474871E+02  0.00000000000E+00 0. -1.
</event>
<event>
 7    1  0.2380582E-009  0.9122609E+02  0.7561462E-02  0.1299909E+00
         -2   -1    0    0    0  501 -0.00000000000E+00  0.00000000000E+00  0.96303568851E+02  0.96303568851E+02  0.00000000000E+00 0.  1.
          2   -1    0    0  501    0  0.00000000000E+00 -0.00000000000E+00 -0.17365887066E+03  0.17365887066E+03  0.00000000000E+00 0. -1.
         25    2    1    2    0    0 -0.11012187935E+02 -0.66094102325E+02 -0.41167990970E+02  0.14775684902E+03  0.12509030461E+03 0.  0.
          5    1    3    3  502    0 -0.10803628095E+02 -0.14256809192E+02 -0.80489222820E+02  0.82558841916E+02  0.41800000000E+01 0. -1.
         -5    1    3    3    0  502 -0.20855984020E+00 -0.51837293133E+02  0.39321231851E+02  0.65198007108E+02  0.41800000000E+01 0. -1.
        -11    1    1    2    0    0 -0.33740098264E+02  0.18618713756E+01  0.43114724437E+01  0.34065372308E+02  0.00000000000E+00 0.  1.
         11    1    1    2    0    0  0.44752286199E+02  0.64232230950E+02 -0.40498783280E+02  0.88140218175E+02  0.00000000000E+00 0. -1.
</event>
<event>
 7    1  0.2380582E-009  0.1971168E+03  0.7561462E-02  0.1152195E+00
          2   -1    0    0  501    0  0.00000000000E+00  0.00000000000E+00  0.36395938048E+04  0.36395938048E+04  0.00000000000E+00 0. -1.
         -2   -1    0    0    0  501 -0.00000000000E+00 -0.00000000000E+00 -0.20221601810E+02  0.20221601810E+02  0.00000000000E+00 0.  1.
         25    2    1    2    0    0  0.35379914661E+02 -0.19294085267E+03  0.28848545080E+04  0.28942201950E+04  0.12508834499E+03 0.  0.
          5    1    3    3  502    0  0.28964548222E+02 -0.17491884054E+03  0.17041842257E+04  0.17133875491E+04  0.41800000000E+01 0. -1.
         -5    1    3    3    0  502  0.64153664386E+01 -0.18022012131E+02  0.11806702823E+04  0.11808326459E+04  0.41800000000E+01 0. -1.
        -11    1    1    2    0    0 -0.42306390725E+01  0.80946798557E+02  0.46597318731E+03  0.47297071135E+03  0.00000000000E+00 0. -1.
         11    1    1    2    0    0 -0.31149275589E+02  0.11199405412E+03  0.26854450774E+03  0.29262450028E+03  0.00000000000E+00 0.  1.
</event>
<event>
 7    1  0.2380582E-009  0.7880699E+02  0.7561462E-02  0.1332472E+00
         -1   -1    0    0    0  501 -0.00000000000E+00  0.00000000000E+00  0.24500004099E+02  0.24500004099E+02  0.00000000000E+00 0.  1.
          1   -1    0    0  501    0  0.00000000000E+00 -0.00000000000E+00 -0.67642343378E+03  0.67642343378E+03  0.00000000000E+00 0. -1.
         25    2    1    2    0    0 -0.50552008898E+01  0.37989963143E+02 -0.53737587356E+03  0.55307228667E+03  0.12508929788E+03 0.  0.
          5    1    3    3  502    0 -0.31710402003E+02  0.90674705074E+00 -0.47273067836E+03  0.47381234519E+03  0.41800000000E+01 0. -1.
         -5    1    3    3    0  502  0.26655201114E+02  0.37083216093E+02 -0.64645195201E+02  0.79259941489E+02  0.41800000000E+01 0. -1.
        -11    1    1    2    0    0  0.22772953775E+02  0.12689086287E+02 -0.79677531479E+02  0.83833939172E+02  0.00000000000E+00 0.  1.
         11    1    1    2    0    0 -0.17717752885E+02 -0.50679049430E+02 -0.34870024643E+02  0.64017212037E+02  0.00000000000E+00 0. -1.
</event>
<event>
 7    1  0.3159113E-009  0.1167384E+03  0.7561462E-02  0.1248577E+00
          2   -1    0    0  501    0  0.00000000000E+00  0.00000000000E+00  0.51279713036E+03  0.51279713036E+03  0.00000000000E+00 0. -1.
         -2   -1    0    0    0  501 -0.00000000000E+00 -0.00000000000E+00 -0.45146006996E+02  0.45146006996E+02  0.00000000000E+00 0.  1.
         25    2    1    2    0    0 -0.68465735112E+02 -0.77200289909E+02  0.20728728011E+03  0.26318118512E+03  0.12509547578E+03 0.  0.
          5    1    3    3  502    0 -0.61497826037E+02 -0.88266207493E+02  0.21970832437E+03  0.24466737868E+03  0.41800000000E+01 0. -1.
         -5    1    3    3    0  502 -0.69679090749E+01  0.11065917584E+02 -0.12421044252E+02  0.18513806448E+02  0.41800000000E+01 0. -1.
        -11    1    1    2    0    0  0.20132722493E+02  0.55631200677E+02  0.48840368723E+02  0.76717264164E+02  0.00000000000E+00 0.  1.
         11    1    1    2    0    0  0.48333012619E+02  0.21569089232E+02  0.21152347453E+03  0.21804468807E+03  0.00000000000E+00 0. -1.
</event>
<event>
 7    1  0.2380582E-009  0.1084182E+03  0.7561462E-02  0.1263527E+00
         -1   -1    0    0    0  501 -0.00000000000E+00  0.00000000000E+00  0.26735485782E+03  0.26735485782E+03  0.00000000000E+00 0.  1.
          1   -1    0    0  501    0  0.00000000000E+00 -0.00000000000E+00 -0.44484102629E+02  0.44484102629E+02  0.00000000000E+00 0. -1.
         25    2    1    2    0    0  0.20110033812E+02  0.26781819738E+02  0.13222476730E+03  0.18506966013E+03  0.12508281530E+03 0.  0.
          5    1    3    3  502    0 -0.52132042909E+02 -0.81695146769E-01  0.53012661593E+02  0.74468592448E+02  0.41800000000E+01 0. -1.
         -5    1    3    3    0  502  0.72242076721E+02  0.26863514885E+02  0.79212105706E+02  0.11060106768E+03  0.41800000000E+01 0. -1.
        -11    1    1    2    0    0  0.21818057447E+02 -0.38113282776E+02  0.56270484037E+02  0.71379390082E+02  0.00000000000E+00 0. -1.
         11    1    1    2    0    0 -0.41928091259E+02  0.11331463038E+02  0.34375503853E+02  0.55389910240E+02  0.00000000000E+00 0.  1.
</event>
<event>
 7    1  0.2380582E-009  0.9308507E+02  0.7561462E-02  0.1295548E+00
         -1   -1    0    0    0  501 -0.00000000000E+00  0.00000000000E+00  0.21722342285E+02  0.21722342285E+02  0.00000000000E+00 0.  1.
          1   -1    0    0  501    0  0.00000000000E+00 -0.00000000000E+00 -0.13218260655E+04  0.13218260655E+04  0.00000000000E+00 0. -1.
         25    2    1    2    0    0  0.32807209794E+02  0.17071762096E+02 -0.11756330233E+04  0.11828482518E+04  0.12509685534E+03 0.  0.
          5    1    3    3  502    0 -0.22423983969E+02  0.21562804975E+02 -0.94838362465E+03  0.94890292524E+03  0.41800000000E+01 0.  1.
         -5    1    3    3    0  502  0.55231193763E+02 -0.44910428789E+01 -0.22724939867E+03  0.23394532658E+03  0.41800000000E+01 0.  1.
        -11    1    1    2    0    0  0.53995825289E+01 -0.49074869070E+02 -0.79434009759E+02  0.93526788527E+02  0.00000000000E+00 0. -1.
         11    1    1    2    0    0 -0.38206792323E+02  0.32003106974E+02 -0.45036690129E+02  0.67173367441E+02  0.00000000000E+00 0.  1.
</event>
<event>
 7    1  0.2380582E-009  0.1278220E+03  0.7561462E-02  0.1230724E+00
         -2   -1    0    0    0  501 -0.00000000000E+00  0.00000000000E+00  0.16798690680E+02  0.16798690680E+02  0.00000000000E+00 0.  1.
          2   -1    0    0  501    0  0.00000000000E+00 -0.00000000000E+00 -0.17440468662E+04  0.17440468662E+04  0.00000000000E+00 0. -1.
         25    2    1    2    0    0  0.96300365987E+02  0.43745684313E+01 -0.13693370936E+04  0.13784143842E+04  0.12509692715E+03 0.  0.
          5    1    3    3  502    0  0.46806000930E+02  0.39364342952E+02 -0.24913846871E+03  0.25656929319E+03  0.41800000000E+01 0.  1.
         -5    1    3    3    0  502  0.49494365057E+02 -0.34989774520E+02 -0.11201986249E+04  0.11218450910E+04  0.41800000000E+01 0.  1.
        -11    1    1    2    0    0 -0.82667773700E+02  0.36596466542E+02 -0.26447975963E+03  0.27950457138E+03  0.00000000000E+00 0. -1.
         11    1    1    2    0    0 -0.13632592287E+02 -0.40971034974E+02 -0.93431322283E+02  0.10292660134E+03  0.00000000000E+00 0.  1.
</event>
<event>
 7    1  0.2380582E-009  0.8404970E+02  0.7561462E-02  0.1317937E+00
         -2   -1    0    0    0  501 -0.00000000000E+00  0.00000000000E+00  0.18807875092E+03  0.18807875092E+03  0.00000000000E+00 0.  1.
          2   -1    0    0  501    0  0.00000000000E+00 -0.00000000000E+00 -0.65990732920E+02  0.65990732920E+02  0.00000000000E+00 0. -1.
         25    2    1    2    0    0 -0.18832832830E+02  0.11036521026E+02  0.60025808897E+02  0.14044970931E+03  0.12508614121E+03 0.  0.
          5    1    3    3  502    0 -0.53492853833E+02  0.34661484579E+02 -0.37656800993E+01  0.63988722999E+02  0.41800000000E+01 0.  1.
         -5    1    3    3    0  502  0.34660021003E+02 -0.23624963553E+02  0.63791488996E+02  0.76460986308E+02  0.41800000000E+01 0.  1.
        -11    1    1    2    0    0  0.14734395225E+02 -0.34885429047E+02  0.76557731419E+02  0.85411836431E+02  0.00000000000E+00 0.  1.
         11    1    1    2    0    0  0.40984376045E+01  0.23848908021E+02 -0.14495522318E+02  0.28207938100E+02  0.00000000000E+00 0. -1.
</event>
<event>
 7    1  0.2380582E-009  0.1090395E+03  0.7561462E-02  0.1262359E+00
         -2   -1    0    0    0  501 -0.00000000000E+00  0.00000000000E+00  0.23512341052E+02  0.23512341052E+02  0.00000000000E+00 0.  1.
          2   -1    0    0  501    0  0.00000000000E+00 -0.00000000000E+00 -0.75580523201E+03  0.75580523201E+03  0.00000000000E+00 0. -1.
         25    2    1    2    0    0  0.17883445633E+02 -0.74950637078E+02 -0.44263162095E+03  0.46637583930E+03  0.12508499508E+03 0.  0.
          5    1    3    3  502    0 -0.25542531957E+02 -0.62273940262E+02 -0.39437120607E+03  0.40009571999E+03  0.41800000000E+01 0.  1.
         -5    1    3    3    0  502  0.43425977590E+02 -0.12676696816E+02 -0.48260414873E+02  0.66280119308E+02  0.41800000000E+01 0.  1.
        -11    1    1    2    0    0 -0.40826055672E+02  0.71040349447E+02 -0.27098461450E+03  0.28310097027E+03  0.00000000000E+00 0. -1.
         11    1    1    2    0    0  0.22942610039E+02  0.39102876314E+01 -0.18676655505E+02  0.29840763489E+02  0.00000000000E+00 0.  1.
</event>
<event>
 7    1  0.2380582E-009  0.1176015E+03  0.7561462E-02  0.1247107E+00
          2   -1    0    0  501    0  0.00000000000E+00  0.00000000000E+00  0.19366513696E+03  0.19366513696E+03  0.00000000000E+00 0. -1.
         -2   -1    0    0    0  501 -0.00000000000E+00 -0.00000000000E+00 -0.97032651978E+02  0.97032651978E+02  0.00000000000E+00 0.  1.
         25    2    1    2    0    0 -0.17378159484E+01  0.78481272586E+02  0.37031432590E+02  0.15225434450E+03  0.12509088004E+03 0.  0.
          5    1    3    3  502    0 -0.74598692769E+01 -0.15299230823E+02  0.53924531403E+02  0.56701354485E+02  0.41800000000E+01 0.  1.
         -5    1    3    3    0  502  0.57220533284E+01  0.93780503409E+02 -0.16893098813E+02  0.95552990018E+02  0.41800000000E+01 0.  1.
        -11    1    1    2    0    0  0.32179282410E+02  0.69623180475E+01  0.72396625425E+01  0.33710425728E+02  0.00000000000E+00 0.  1.
         11    1    1    2    0    0 -0.30441466462E+02 -0.85443590634E+02  0.52361389853E+02  0.10473301871E+03  0.00000000000E+00 0. -1.
</event>
<event>
 7    1  0.2380582E-009  0.7544994E+02  0.7561462E-02  0.1342483E+00
          2   -1    0    0  501    0  0.00000000000E+00  0.00000000000E+00  0.10660701477E+03  0.10660701477E+03  0.00000000000E+00 0. -1.
         -2   -1    0    0    0  501 -0.00000000000E+00 -0.00000000000E+00 -0.13712400761E+03  0.13712400761E+03  0.00000000000E+00 0.  1.
         25    2    1    2    0    0  0.40785965672E+02 -0.34948402969E+02 -0.21314047343E+02  0.13779194440E+03  0.12508974962E+03 0.  0.
          5    1    3    3  502    0  0.42688175627E+02 -0.40669447699E+02 -0.68249242578E+02  0.90286853014E+02  0.41800000000E+01 0. -1.
         -5    1    3    3    0  502 -0.19022099555E+01  0.57210447306E+01  0.46935195236E+02  0.47505091383E+02  0.41800000000E+01 0. -1.
        -11    1    1    2    0    0 -0.58726895716E+02  0.29408304466E+02 -0.34693960587E+02  0.74278984600E+02  0.00000000000E+00 0.  1.
         11    1    1    2    0    0  0.17940930044E+02  0.55400985026E+01  0.25491015091E+02  0.31660093377E+02  0.00000000000E+00 0. -1.
</event>
<event>
 7    1  0.2380582E-009  0.8869935E+02  0.7561462E-02  0.1306032E+00
         -2   -1    0    0    0  501 -0.00000000000E+00  0.00000000000E+00  0.16341363316E+03  0.16341363316E+03  0.00000000000E+00 0.  1.
          2   -1    0    0  501    0  0.00000000000E+00 -0.00000000000E+00 -0.12056998515E+03  0.12056998515E+03  0.00000000000E+00 0. -1.
         25    2    1    2    0    0 -0.44304782630E+02 -0.35697083080E+02 -0.46539785287E+02  0.14508343385E+03  0.12508419428E+03 0.  0.
          5    1    3    3  502    0 -0.50357663116E+02 -0.60480665016E+02  0.13274199895E+02  0.79921723318E+02  0.41800000000E+01 0.  1.
         -5    1    3    3    0  502  0.60528804862E+01  0.24783581936E+02 -0.59813985182E+02  0.65161710530E+02  0.41800000000E+01 0.  1.
        -11    1    1    2    0    0  0.29539794339E+02 -0.45286706321E+01  0.91240446855E+02  0.96010038276E+02  0.00000000000E+00 0.  1.
         11    1    1    2    0    0  0.14764988290E+02  0.40225753713E+02 -0.18570135577E+01  0.42890146191E+02  0.00000000000E+00 0. -1.
</event>
<event>
 7    1  0.2380582E-009  0.1136432E+03  0.7561462E-02  0.1253968E+00
         -1   -1    0    0    0  501 -0.00000000000E+00  0.00000000000E+00  0.22877303205E+03  0.22877303205E+03  0.00000000000E+00 0.  1.
          1   -1    0    0  501    0  0.00000000000E+00 -0.00000000000E+00 -0.10200917203E+03  0.10200917203E+03  0.00000000000E+00 0. -1.
         25    2    1    2    0    0  0.25076302360E+02 -0.86860246120E+02  0.13101356324E+03  0.20245371968E+03  0.12509768808E+03 0.  0.
          5    1    3    3  502    0 -0.14580691603E+02 -0.11721083573E+02 -0.20891102683E+02  0.28352970551E+02  0.41800000000E+01 0.  1.
         -5    1    3    3    0  502  0.39656993963E+02 -0.75139162547E+02  0.15190466592E+03  0.17410074913E+03  0.41800000000E+01 0.  1.
        -11    1    1    2    0    0  0.29747132930E+02  0.17045687575E+02 -0.17639968322E+02  0.38556657854E+02  0.00000000000E+00 0. -1.
         11    1    1    2    0    0 -0.54823435290E+02  0.69814558546E+02  0.13390265091E+02  0.89771826545E+02  0.00000000000E+00 0.  1.
</event>
<event>
 7    1  0.2975869E-009  0.2146299E+03  0.7561462E-02  0.1137951E+00
          1   -1    0    0  501    0  0.00000000000E+00  0.00000000000E+00  0.93478559315E+03  0.93478559315E+03  0.00000000000E+00 0. -1.
         -1   -1    0    0    0  501 -0.00000000000E+00 -0.00000000000E+00 -0.63396728386E+02  0.63396728386E+02  0.00000000000E+00 0.  1.
         25    2    1    2    0    0  0.20116354883E+03  0.39796688128E+02  0.30029365380E+03  0.38454472151E+03  0.12509122496E+03 0.  0.
          5    1    3    3  502    0  0.14739720241E+01  0.17122835022E+02  0.97185384276E+02  0.98781756360E+02  0.41800000000E+01 0.  1.
         -5    1    3    3    0  502  0.19968957681E+03  0.22673853106E+02  0.20310826952E+03  0.28576296515E+03  0.41800000000E+01 0.  1.
        -11    1    1    2    0    0 -0.15450186503E+03 -0.92360460814E+01  0.49918817294E+03  0.52263272271E+03  0.00000000000E+00 0. -1.
         11    1    1    2    0    0 -0.46661683807E+02 -0.30560642046E+02  0.71907038021E+02  0.91004877314E+02  0.00000000000E+00 0.  1.
</event>
<event>
 7    1  0.2380582E-009  0.8747637E+02  0.7561462E-02  0.1309081E+00
         -4   -1    0    0    0  501 -0.00000000000E+00  0.00000000000E+00  0.34179888785E+03  0.34179888785E+03  0.00000000000E+00 0.  1.
          4   -1    0    0  501    0  0.00000000000E+00 -0.00000000000E+00 -0.46623939607E+02  0.46623939607E+02  0.00000000000E+00 0. -1.
         25    2    1    2    0    0  0.63905083358E+02  0.17860564662E+00  0.15888452479E+03  0.21207480701E+03  0.12509012738E+03 0.  0.
          5    1    3    3  502    0  0.32111268700E+02 -0.38623621816E+02  0.15336508663E+03  0.16143494026E+03  0.41800000000E+01 0. -1.
         -5    1    3    3    0  502  0.31793814658E+02  0.38802227462E+02  0.55194381640E+01  0.50639866747E+02  0.41800000000E+01 0. -1.
        -11    1    1    2    0    0 -0.59491549314E+02 -0.12790018202E+02  0.14708213137E+03  0.15917280664E+03  0.00000000000E+00 0.  1.
         11    1    1    2    0    0 -0.44135340444E+01  0.12611412556E+02 -0.10791707924E+02  0.17175213807E+02  0.00000000000E+00 0. -1.
</event>
<event>
 7    1  0.2380582E-009  0.1166633E+03  0.7561462E-02  0.1248705E+00
         -1   -1    0    0    0  501 -0.00000000000E+00  0.00000000000E+00  0.26818891140E+03  0.26818891140E+03  0.00000000000E+00 0.  1.
          1   -1    0    0  501    0  0.00000000000E+00 -0.00000000000E+00 -0.69147705446E+02  0.69147705446E+02  0.00000000000E+00 0. -1.
         25    2    1    2    0    0  0.65650328100E+02 -0.96195326737E+01  0.75941375097E+02  0.16067336013E+03  0.12508531175E+03 0.  0.
          5    1    3    3  502    0  0.10257745911E+03  0.52940805679E+00  0.60542185393E+02  0.11918575420E+03  0.41800000000E+01 0.  1.
         -5    1    3    3    0  502 -0.36927131012E+02 -0.10148940730E+02  0.15399189704E+02  0.41487605936E+02  0.41800000000E+01 0.  1.
        -11    1    1    2    0    0 -0.32809493942E+02 -0.27332055638E+02 -0.13813258324E+01  0.42724843115E+02  0.00000000000E+00 0. -1.
         11    1    1    2    0    0 -0.32840834158E+02  0.36951588312E+02  0.12448115669E+03  0.13393841360E+03  0.00000000000E+00 0.  1.
</event>
<event>
 7    1  0.2380582E-009  0.2074206E+03  0.7561462E-02  0.1143625E+00
         -2   -1    0    0    0  501 -0.00000000000E+00  0.00000000000E+00  0.40784464703E+02  0.40784464703E+02  0.00000000000E+00 0.  1.
          2   -1    0    0  501    0  0.00000000000E+00 -0.00000000000E+00 -0.11666444061E+04  0.11666444061E+04  0.00000000000E+00 0. -1.
         25    2    1    2    0    0 -0.37036596399E+02  0.18072520235E+03 -0.69481673032E+03  0.72969212971E+03  0.12508799779E+03 0.  0.
          5    1    3    3  502    0 -0.72426780538E+02  0.52211425363E+02 -0.29183068888E+03  0.30521188517E+03  0.41800000000E+01 0. -1.
         -5    1    3    3    0  502  0.35390184138E+02  0.12851377699E+03 -0.40298604144E+03  0.42448024454E+03  0.41800000000E+01 0. -1.
        -11    1    1    2    0    0  0.44987338400E+02 -0.86164815473E+02 -0.13152256080E+03  0.16354332772E+03  0.00000000000E+00 0.  1.
         11    1    1    2    0    0 -0.79507420013E+01 -0.94560386880E+02 -0.29952065032E+03  0.31419341342E+03  0.00000000000E+00 0. -1.
</event>
<event>
 7    1  0.2380582E-009  0.9434606E+02  0.7561462E-02  0.1292656E+00
         -1   -1    0    0    0  501 -0.00000000000E+00  0.00000000000E+00  0.36052706696E+03  0.36052706696E+03  0.00000000000E+00 0.  1.
          1   -1    0    0  501    0  0.00000000000E+00 -0.00000000000E+00 -0.34805341100E+02  0.34805341100E+02  0.00000000000E+00 0. -1.
         25    2    1    2    0    0 -0.11883853553E+02  0.62522746142E+01  0.14135873417E+03  0.18923486419E+03  0.12508886915E+03 0.  0.
          5    1    3    3  502    0  0.38877085091E+02  0.46451326900E+02  0.73732913733E+02  0.95515278796E+02  0.41800000000E+01 0. -1.
         -5    1    3    3    0  502 -0.50760938644E+02 -0.40199052286E+02  0.67625820441E+02  0.93719585398E+02  0.41800000000E+01 0. -1.
        -11    1    1    2    0    0  0.25760684758E+02  0.20519803231E+02  0.19029842561E+02  0.38036957183E+02  0.00000000000E+00 0. -1.
         11    1    1    2    0    0 -0.13876831205E+02 -0.26772077845E+02  0.16533314913E+03  0.16806058669E+03  0.00000000000E+00 0.  1.
</event>
<event>
 7    1  0.2623564E-009  0.8876522E+02  0.7561462E-02  0.1305870E+00
          2   -1    0    0  501    0  0.00000000000E+00  0.00000000000E+00  0.20903594647E+03  0.20903594647E+03  0.00000000000E+00 0.  1.
         -2   -1    0    0    0  501 -0.00000000000E+00 -0.00000000000E+00 -0.70223791767E+02  0.70223791767E+02  0.00000000000E+00 0. -1.
         25    2    1    2    0    0 -0.15014331853E+02  0.52933411718E+01  0.18924332289E+02  0.12749821703E+03  0.12507683787E+03 0.  0.
          5    1    3    3  502    0  0.12313326814E+02  0.48208642463E+02 -0.28777475362E+02  0.57630779221E+02  0.41800000000E+01 0. -1.
         -5    1    3    3    0  502 -0.27327658668E+02 -0.42915301291E+02  0.47701807651E+02  0.69867437812E+02  0.41800000000E+01 0. -1.
        -11    1    1    2    0    0 -0.28305760282E+02  0.10857938774E+02  0.94013105293E+02  0.98780437671E+02  0.00000000000E+00 0.  1.
         11    1    1    2    0    0  0.43320092135E+02 -0.16151279946E+02  0.25874717124E+02  0.52981083537E+02  0.00000000000E+00 0. -1.
</event>
<event>
 7    1  0.2675787E-009  0.2326293E+03  0.7561462E-02  0.1124803E+00
          1   -1    0    0  501    0  0.00000000000E+00  0.00000000000E+00  0.16196247837E+04  0.16196247837E+04  0.00000000000E+00 0. -1.
         -1   -1    0    0    0  501 -0.00000000000E+00 -0.00000000000E+00 -0.36392571925E+02  0.36392571925E+02  0.00000000000E+00 0.  1.
         25    2    1    2    0    0 -0.49119990286E+02  0.20997623640E+03  0.89350962435E+03  0.92763787961E+03  0.12509913499E+03 0.  0.
          5    1    3    3  502    0 -0.74724172803E+02  0.89580080416E+02  0.30944696487E+03  0.33073129467E+03  0.41800000000E+01 0.  1.
         -5    1    3    3    0  502  0.25604182516E+02  0.12039615598E+03  0.58406265949E+03  0.59690658494E+03  0.41800000000E+01 0.  1.
        -11    1    1    2    0    0  0.62860910639E+02 -0.13214198714E+03  0.34571480821E+03  0.37540874719E+03  0.00000000000E+00 0.  1.
         11    1    1    2    0    0 -0.13740920353E+02 -0.77834249262E+02  0.34400777919E+03  0.35297072881E+03  0.00000000000E+00 0. -1.
</event>
<event>
 7    1  0.2380582E-009  0.9993125E+02  0.7561462E-02  0.1280441E+00
         -2   -1    0    0    0  501 -0.00000000000E+00  0.00000000000E+00  0.22908291207E+02  0.22908291207E+02  0.00000000000E+00 0. -1.
          2   -1    0    0  501    0  0.00000000000E+00 -0.00000000000E+00 -0.82712232179E+03  0.82712232179E+03  0.00000000000E+00 0.  1.
         25    2    1    2    0    0  0.56784611687E+01  0.38438494844E+02 -0.67356841233E+03  0.68618676535E+03  0.12509239802E+03 0.  0.
          5    1    3    3  502    0  0.45190804997E+02  0.60388606118E+02 -0.28006685096E+03  0.29007569014E+03  0.41800000000E+01 0. -1.
         -5    1    3    3    0  502 -0.39512343828E+02 -0.21950111273E+02 -0.39350156137E+03  0.39611107521E+03  0.41800000000E+01 0. -1.
        -11    1    1    2    0    0 -0.34238081346E+02 -0.36885447381E+02 -0.28642512579E+02  0.57906614213E+02  0.00000000000E+00 0. -1.
         11    1    1    2    0    0  0.28559620177E+02 -0.15530474638E+01 -0.10200310567E+03  0.10593723343E+03  0.00000000000E+00 0.  1.
</event>
<event>
 7    1  0.2554364E-009  0.9387139E+02  0.7561462E-02  0.1293738E+00
          3   -1    0    0  501    0  0.00000000000E+00  0.00000000000E+00  0.27079928335E+03  0.27079928335E+03  0.00000000000E+00 0. -1.
         -3   -1    0    0    0  501 -0.00000000000E+00 -0.00000000000E+00 -0.77452384078E+02  0.77452384078E+02  0.00000000000E+00 0.  1.
         25    2    1    2    0    0 -0.19533390287E+01  0.13456657056E+02 -0.82697403067E+01  0.12609940389E+03  0.12509106244E+03 0.  0.
          5    1    3    3  502    0  0.32625271102E+02  0.47686887829E+02  0.28889589280E+02  0.64734290404E+02  0.41800000000E+01 0. -1.
         -5    1    3    3    0  502 -0.34578610131E+02 -0.34230230773E+02 -0.37159329587E+02  0.61365113483E+02  0.41800000000E+01 0. -1.
        -11    1    1    2    0    0  0.69174375337E+01 -0.46778829723E+02  0.16812094852E+03  0.17464467694E+03  0.00000000000E+00 0. -1.
         11    1    1    2    0    0 -0.49640985049E+01  0.33322172668E+02  0.33495691064E+02  0.47507586606E+02  0.00000000000E+00 0.  1.
</event>
<event>
 7    1  0.2380582E-009  0.2241122E+03  0.7561462E-02  0.1130854E+00
          2   -1    0    0  501    0  0.00000000000E+00  0.00000000000E+00  0.22724344264E+03  0.22724344264E+03  0.00000000000E+00 0. -1.
         -2   -1    0    0    0  501 -0.00000000000E+00 -0.00000000000E+00 -0.26260432821E+03  0.26260432821E+03  0.00000000000E+00 0.  1.
         25    2    1    2    0    0  0.21781769982E+03  0.56976727262E+01 -0.32988679165E+02  0.25340183253E+03  0.12508885619E+03 0.  0.
          5    1    3    3  502    0  0.99126489126E+02  0.30882602148E+02 -0.71386472702E+02  0.12606861960E+03  0.41800000000E+01 0.  1.
         -5    1    3    3    0  502  0.11869121070E+03 -0.25184929422E+02  0.38397793536E+02  0.12733321293E+03  0.41800000000E+01 0.  1.
        -11    1    1    2    0    0 -0.15659791657E+03  0.17215792830E+02  0.34672036399E+02  0.16131162731E+03  0.00000000000E+00 0. -1.
         11    1    1    2    0    0 -0.61219783251E+02 -0.22913465556E+02 -0.37044242806E+02  0.75134311005E+02  0.00000000000E+00 0.  1.
</event>
<event>
 7    1  0.2380582E-009  0.1387133E+03  0.7561462E-02  0.1215071E+00
          2   -1    0    0  501    0  0.00000000000E+00  0.00000000000E+00  0.70581968830E+02  0.70581968830E+02  0.00000000000E+00 0. -1.
         -2   -1    0    0    0  501 -0.00000000000E+00 -0.00000000000E+00 -0.39419171545E+03  0.39419171545E+03  0.00000000000E+00 0.  1.
         25    2    1    2    0    0  0.40417459229E+02  0.96643894455E+02 -0.25001796710E+03  0.29854616334E+03  0.12508882614E+03 0.  0.
          5    1    3    3  502    0 -0.24030222221E+02  0.79925264326E+02 -0.79075759224E+02  0.11504758822E+03  0.41800000000E+01 0. -1.
         -5    1    3    3    0  502  0.64447681451E+02  0.16718630129E+02 -0.17094220788E+03  0.18349857512E+03  0.41800000000E+01 0. -1.
        -11    1    1    2    0    0 -0.31302535876E+02 -0.12555695795E+01  0.15884292246E+02  0.35124577540E+02  0.00000000000E+00 0. -1.
         11    1    1    2    0    0 -0.91149233532E+01 -0.95388324876E+02 -0.89476071768E+02  0.13110294341E+03  0.00000000000E+00 0.  1.
</event>
<event>
 7    1  0.2380582E-009  0.8310622E+02  0.7561462E-02  0.1320461E+00
         -2   -1    0    0    0  501 -0.00000000000E+00  0.00000000000E+00  0.38625290571E+02  0.38625290571E+02  0.00000000000E+00 0.  1.
          2   -1    0    0  501    0  0.00000000000E+00 -0.00000000000E+00 -0.46274356599E+03  0.46274356599E+03  0.00000000000E+00 0. -1.
         25    2    1    2    0    0  0.52311916675E+02  0.50755722337E+02 -0.17123133262E+03  0.22423086502E+03  0.12508649640E+03 0.  0.
          5    1    3    3  502    0  0.42856375153E+02  0.57385331858E+02 -0.22782052706E+02  0.75274428122E+02  0.41800000000E+01 0.  1.
         -5    1    3    3    0  502  0.94555415222E+01 -0.66296095202E+01 -0.14844927991E+03  0.14895643690E+03  0.41800000000E+01 0.  1.
        -11    1    1    2    0    0 -0.15356946939E+02  0.42371520680E+01 -0.22411288023E+00  0.15932341432E+02  0.00000000000E+00 0.  1.
         11    1    1    2    0    0 -0.36954969736E+02 -0.54992874405E+02 -0.25266282992E+03  0.26120565011E+03  0.00000000000E+00 0. -1.
</event>
<event>
 7    1  0.2380582E-009  0.8397236E+02  0.7561462E-02  0.1318142E+00
         -2   -1    0    0    0  501 -0.00000000000E+00  0.00000000000E+00  0.17154758462E+02  0.17154758462E+02  0.00000000000E+00 0.  1.
          2   -1    0    0  501    0  0.00000000000E+00 -0.00000000000E+00 -0.65758106966E+03  0.65758106966E+03  0.00000000000E+00 0. -1.
         25    2    1    2    0    0 -0.17625878849E+02 -0.25182440056E+02 -0.36405696728E+03  0.38617423105E+03  0.12509290313E+03 0.  0.
          5    1    3    3  502    0 -0.13481062674E+02 -0.54087316523E+02 -0.34825016357E+03  0.35270784750E+03  0.41800000000E+01 0.  1.
         -5    1    3    3    0  502 -0.41448161756E+01  0.28904876467E+02 -0.15806803706E+02  0.33466383553E+02  0.41800000000E+01 0.  1.
        -11    1    1    2    0    0  0.48105423471E+02  0.14338442202E+02 -0.18230611519E+03  0.18909056647E+03  0.00000000000E+00 0. -1.
         11    1    1    2    0    0 -0.30479544622E+02  0.10843997854E+02 -0.94063228739E+02  0.99471030610E+02  0.00000000000E+00 0.  1.
</event>
<event>
 7    1  0.2380582E-009  0.9959236E+02  0.7561462E-02  0.1281156E+00
         -2   -1    0    0    0  501 -0.00000000000E+00  0.00000000000E+00  0.17912435144E+02  0.17912435144E+02  0.00000000000E+00 0.  1.
          2   -1    0    0  501    0  0.00000000000E+00 -0.00000000000E+00 -0.10257739128E+04  0.10257739128E+04  0.00000000000E+00 0. -1.
         25    2    1    2    0    0  0.39009083758E+02 -0.49960816009E+02 -0.39117486981E+03  0.41555073881E+03  0.12508735350E+03 0.  0.
          5    1    3    3  502    0  0.51747885373E+02 -0.35774658094E+02 -0.39097968987E+03  0.39603063025E+03  0.41800000000E+01 0. -1.
         -5    1    3    3    0  502 -0.12738801615E+02 -0.14186157916E+02 -0.19517993203E+00  0.19520108560E+02  0.41800000000E+01 0. -1.
        -11    1    1    2    0    0 -0.72084977098E+02  0.37642468517E+02 -0.48647357384E+03  0.49322382080E+03  0.00000000000E+00 0. -1.
         11    1    1    2    0    0  0.33075893340E+02  0.12318347492E+02 -0.13021303399E+03  0.13491178832E+03  0.00000000000E+00 0.  1.
</event>
<event>
 7    1  0.2380582E-009  0.1547514E+03  0.7561462E-02  0.1194753E+00
         -2   -1    0    0    0  501 -0.00000000000E+00  0.00000000000E+00  0.18953446563E+02  0.18953446563E+02  0.00000000000E+00 0.  1.
          2   -1    0    0  501    0  0.00000000000E+00 -0.00000000000E+00 -0.21871410585E+04  0.21871410585E+04  0.00000000000E+00 0. -1.
         25    2    1    2    0    0 -0.68747223683E+02  0.87304629945E+02 -0.18403185243E+04  0.18479090496E+04  0.12508919039E+03 0.  0.
          5    1    3    3  502    0 -0.37730955751E+02 -0.28091144430E+02 -0.58980383300E+03  0.59169144935E+03  0.41800000000E+01 0. -1.
         -5    1    3    3    0  502 -0.31016267932E+02  0.11539577437E+03 -0.12505146913E+04  0.12562176002E+04  0.41800000000E+01 0. -1.
        -11    1    1    2    0    0  0.76632673794E+02 -0.26029251619E+02 -0.15990754760E+03  0.17922196409E+03  0.00000000000E+00 0. -1.
         11    1    1    2    0    0 -0.78854501109E+01 -0.61275378325E+02 -0.16796154007E+03  0.17896349140E+03  0.00000000000E+00 0.  1.
</event>
<event>
 7    1  0.2380582E-009  0.1243443E+03  0.7561462E-02  0.1236098E+00
         -2   -1    0    0    0  501 -0.00000000000E+00  0.00000000000E+00  0.41279444928E+02  0.41279444928E+02  0.00000000000E+00 0.  1.
          2   -1    0    0  501    0  0.00000000000E+00 -0.00000000000E+00 -0.46208651443E+03  0.46208651443E+03  0.00000000000E+00 0. -1.
         25    2    1    2    0    0  0.41153784606E+02  0.65659800685E+02 -0.29803561128E+03  0.33238197395E+03  0.12509079745E+03 0.  0.
          5    1    3    3  502    0  0.70160091282E+02  0.15684307767E+02 -0.83994838934E+02  0.11063923936E+03  0.41800000000E+01 0. -1.
         -5    1    3    3    0  502 -0.29006306676E+02  0.49975492918E+02 -0.21404077234E+03  0.22174273459E+03  0.41800000000E+01 0. -1.
        -11    1    1    2    0    0 -0.60450752923E+02 -0.75790901022E+02 -0.95631985420E+02  0.13617646949E+03  0.00000000000E+00 0. -1.
         11    1    1    2    0    0  0.19296968316E+02  0.10131100337E+02 -0.27139472809E+02  0.34807515921E+02  0.00000000000E+00 0.  1.
</event>
<event>
 7    1  0.2380582E-009  0.9295792E+02  0.7561462E-02  0.1295843E+00
         -2   -1    0    0    0  501 -0.00000000000E+00  0.00000000000E+00  0.24698265703E+03  0.24698265703E+03  0.00000000000E+00 0.  1.
          2   -1    0    0  501    0  0.00000000000E+00 -0.00000000000E+00 -0.75426493014E+02  0.75426493014E+02  0.00000000000E+00 0. -1.
         25    2    1    2    0    0  0.44711710149E+02 -0.46959067646E+02  0.14830091698E+03  0.20456280411E+03  0.12509391589E+03 0.  0.
          5    1    3    3  502    0 -0.12953555736E+02  0.12429829938E+02  0.11296756583E+03  0.11446151584E+03  0.41800000000E+01 0.  1.
         -5    1    3    3    0  502  0.57665265885E+02 -0.59388897584E+02  0.35333351147E+02  0.90101288277E+02  0.41800000000E+01 0.  1.
        -11    1    1    2    0    0  0.10829699303E+02  0.20261391781E+02 -0.29036013106E+02  0.37025618712E+02  0.00000000000E+00 0. -1.
         11    1    1    2    0    0 -0.55541409452E+02  0.26697675865E+02  0.52291260148E+02  0.80820727220E+02  0.00000000000E+00 0.  1.
</event>
<event>
 7    1  0.2380582E-009  0.1010719E+03  0.7561462E-02  0.1278058E+00
         -1   -1    0    0    0  501 -0.00000000000E+00  0.00000000000E+00  0.45162897250E+02  0.45162897250E+02  0.00000000000E+00 0.  1.
          1   -1    0    0  501    0  0.00000000000E+00 -0.00000000000E+00 -0.33682749474E+03  0.33682749474E+03  0.00000000000E+00 0. -1.
         25    2    1    2    0    0 -0.29624189742E+02 -0.32647774677E+02 -0.22674392821E+03  0.26268412767E+03  0.12508665852E+03 0.  0.
          5    1    3    3  502    0 -0.12425435875E+02 -0.80481449759E+02 -0.14396593589E+03  0.16545488300E+03  0.41800000000E+01 0. -1.
         -5    1    3    3    0  502 -0.17198753867E+02  0.47833675083E+02 -0.82777992316E+02  0.97229244666E+02  0.41800000000E+01 0. -1.
        -11    1    1    2    0    0 -0.44639631815E+01 -0.12358456967E+02  0.15957583972E+02  0.20671306493E+02  0.00000000000E+00 0.  1.
         11    1    1    2    0    0  0.34088152924E+02  0.45006231644E+02 -0.80878253255E+02  0.98634957830E+02  0.00000000000E+00 0. -1.
</event>
<event>
 7    1  0.2380582E-009  0.1615793E+03  0.7561462E-02  0.1186925E+00
          2   -1    0    0  501    0  0.00000000000E+00  0.00000000000E+00  0.24302160206E+04  0.24302160206E+04  0.00000000000E+00 0. -1.
         -2   -1    0    0    0  501 -0.00000000000E+00 -0.00000000000E+00 -0.18744311922E+02  0.18744311922E+02  0.00000000000E+00 0.  1.
         25    2    1    2    0    0 -0.14151653814E+03 -0.67165883845E+02  0.18175201175E+04  0.18285416671E+04  0.12508822507E+03 0.  0.
          5    1    3    3  502    0 -0.12043804740E+03 -0.37273554070E+02  0.76127716766E+03  0.77165733295E+03  0.41800000000E+01 0.  1.
         -5    1    3    3    0  502 -0.21078490740E+02 -0.29892329775E+02  0.10562429499E+04  0.10568843341E+04  0.41800000000E+01 0.  1.
        -11    1    1    2    0    0  0.74599691921E+02  0.53764374126E+02  0.19404277680E+03  0.21472848248E+03  0.00000000000E+00 0.  1.
         11    1    1    2    0    0  0.66916846220E+02  0.13401509719E+02  0.39990881438E+03  0.40569018301E+03  0.00000000000E+00 0. -1.
</event>
<event>
 7    1  0.2380582E-009  0.2431870E+03  0.7561462E-02  0.1117688E+00
          2   -1    0    0  501    0  0.00000000000E+00  0.00000000000E+00  0.19998739829E+04  0.19998739829E+04  0.00000000000E+00 0. -1.
         -2   -1    0    0    0  501 -0.00000000000E+00 -0.00000000000E+00 -0.37258678951E+02  0.37258678951E+02  0.00000000000E+00 0.  1.
         25    2    1    2    0    0 -0.18314795322E+03 -0.13792541517E+03  0.13841434999E+04  0.14085694104E+04  0.12509181666E+03 0.  0.
          5    1    3    3  502    0 -0.18081320268E+03 -0.78436828009E+02  0.94124866603E+03  0.96167160401E+03  0.41800000000E+01 0. -1.
         -5    1    3    3    0  502 -0.23347505423E+01 -0.59488587166E+02  0.44289483387E+03  0.44689780636E+03  0.41800000000E+01 0. -1.
        -11    1    1    2    0    0  0.11897245392E+03  0.82733324580E+02  0.46462014825E+03  0.48669408250E+03  0.00000000000E+00 0. -1.
         11    1    1    2    0    0  0.64175499303E+02  0.55192090594E+02  0.11385165576E+03  0.14186916893E+03  0.00000000000E+00 0.  1.
</event>
<event>
 7    1  0.2983557E-009  0.1538210E+03  0.7561462E-02  0.1195855E+00
         -2   -1    0    0    0  501 -0.00000000000E+00  0.00000000000E+00  0.33813190186E+02  0.33813190186E+02  0.00000000000E+00 0.  1.
          2   -1    0    0  501    0  0.00000000000E+00 -0.00000000000E+00 -0.96376036066E+03  0.96376036066E+03  0.00000000000E+00 0. -1.
         25    2    1    2    0    0  0.11820037402E+03 -0.60643946768E+02 -0.33908615388E+03  0.38506621733E+03  0.12509018860E+03 0.  0.
          5    1    3    3  502    0  0.99289688263E+02 -0.82244094093E+02 -0.16942883536E+03  0.21294632155E+03  0.41800000000E+01 0. -1.
         -5    1    3    3    0  502  0.18910685755E+02  0.21600147325E+02 -0.16965731851E+03  0.17211989579E+03  0.41800000000E+01 0. -1.
        -11    1    1    2    0    0 -0.81725651533E+02  0.34481743058E+01 -0.43346024422E+03  0.44111081979E+03  0.00000000000E+00 0. -1.
         11    1    1    2    0    0 -0.36474722485E+02  0.57195772462E+02 -0.15740077238E+03  0.17139651372E+03  0.00000000000E+00 0.  1.
</event>
<event>
 7    1  0.2380582E-009  0.1255651E+03  0.7561462E-02  0.1234189E+00
          1   -1    0    0  501    0  0.00000000000E+00  0.00000000000E+00  0.29464451045E+03  0.29464451045E+03  0.00000000000E+00 0. -1.
         -1   -1    0    0    0  501 -0.00000000000E+00 -0.00000000000E+00 -0.64718890647E+02  0.64718890647E+02  0.00000000000E+00 0.  1.
         25    2    1    2    0    0  0.48402197323E+02  0.62309145403E+02  0.17185150735E+03  0.22672802389E+03  0.12508978347E+03 0.  0.
          5    1    3    3  502    0  0.31324614950E+01 -0.32701450997E+02  0.81450851261E+02  0.87925597999E+02  0.41800000000E+01 0. -1.
         -5    1    3    3    0  502  0.45269735828E+02  0.95010596401E+02  0.90400656094E+02  0.13880242589E+03  0.41800000000E+01 0. -1.
        -11    1    1    2    0    0 -0.68079859704E+02 -0.28998876980E+02  0.16444270974E+02  0.75803800771E+02  0.00000000000E+00 0.  1.
         11    1    1    2    0    0  0.19677662381E+02 -0.33310268423E+02  0.41629841472E+02  0.56831576436E+02  0.00000000000E+00 0. -1.
</event>
<event>
 7    1  0.2380582E-009  0.2346650E+03  0.7561462E-02  0.1123399E+00
          1   -1    0    0  501    0  0.00000000000E+00  0.00000000000E+00  0.22041021510E+03  0.22041021510E+03  0.00000000000E+00 0. -1.
         -1   -1    0    0    0  501 -0.00000000000E+00 -0.00000000000E+00 -0.26062542712E+03  0.26062542712E+03  0.00000000000E+00 0.  1.
         25    2    1    2    0    0  0.14787970505E+03  0.15416520992E+03 -0.12476879030E+02  0.24787007310E+03  0.12509429049E+03 0.  0.
          5    1    3    3  502    0  0.13276965340E+03  0.65655236690E+02  0.25384950905E+02  0.15033382554E+03  0.41800000000E+01 0.  1.
         -5    1    3    3    0  502  0.15110051649E+02  0.88509973227E+02 -0.37861829935E+02  0.97536247557E+02  0.41800000000E+01 0.  1.
        -11    1    1    2    0    0 -0.51735323655E+02 -0.11747032812E+03 -0.20695677291E+02  0.13001589427E+03  0.00000000000E+00 0. -1.
         11    1    1    2    0    0 -0.96144381397E+02 -0.36694881792E+02 -0.70426557041E+01  0.10314967486E+03  0.00000000000E+00 0.  1.
</event>
<event>
 7    1  0.2380582E-009  0.3028267E+03  0.7561462E-02  0.1083836E+00
         -2   -1    0    0    0  501 -0.00000000000E+00  0.00000000000E+00  0.65894748795E+02  0.65894748795E+02  0.00000000000E+00 0.  1.
          2   -1    0    0  501    0  0.00000000000E+00 -0.00000000000E+00 -0.16045849395E+04  0.16045849395E+04  0.00000000000E+00 0. -1.
         25    2    1    2    0    0  0.27867120710E+03 -0.10379345468E+03 -0.59248315144E+03  0.67462019049E+03  0.12508154850E+03 0.  0.
          5    1    3    3  502    0  0.19824790305E+03 -0.39816901978E+02 -0.27828847487E+03  0.34401971512E+03  0.41800000000E+01 0. -1.
         -5    1    3    3    0  502  0.80423304059E+02 -0.63976552703E+02 -0.31419467657E+03  0.33060047537E+03  0.41800000000E+01 0. -1.
        -11    1    1    2    0    0 -0.19213496869E+03  0.49553139350E+02 -0.73412669174E+03  0.76046917053E+03  0.00000000000E+00 0. -1.
         11    1    1    2    0    0 -0.86536238418E+02  0.54240315330E+02 -0.21208034757E+03  0.23539032731E+03  0.00000000000E+00 0.  1.
</event>
<event>
 7    1  0.2380582E-009  0.1191040E+03  0.7561462E-02  0.1244582E+00
          2   -1    0    0  501    0  0.00000000000E+00  0.00000000000E+00  0.32682124177E+03  0.32682124177E+03  0.00000000000E+00 0. -1.
         -2   -1    0    0    0  501 -0.00000000000E+00 -0.00000000000E+00 -0.61452258931E+02  0.61452258931E+02  0.00000000000E+00 0.  1.
         25    2    1    2    0    0 -0.52614113823E+02  0.17960013872E+02  0.54164862808E+02  0.14721085926E+03  0.12508556131E+03 0.  0.
          5    1    3    3  502    0 -0.17133693518E+02  0.64248633986E+02  0.58384172266E+02  0.88586874839E+02  0.41800000000E+01 0. -1.
         -5    1    3    3    0  502 -0.35480420306E+02 -0.46288620113E+02 -0.42193094585E+01  0.58623984421E+02  0.41800000000E+01 0. -1.
        -11    1    1    2    0    0  0.33865321937E+02  0.39873634578E+02  0.70536288033E+02  0.87818760489E+02  0.00000000000E+00 0.  1.
         11    1    1    2    0    0  0.18748791886E+02 -0.57833648450E+02  0.14066783200E+03  0.15324388095E+03  0.00000000000E+00 0. -1.
</event>
<event>
 7    1  0.2380582E-009  0.1610051E+03  0.7561462E-02  0.1187567E+00
         -1   -1    0    0    0  501 -0.00000000000E+00  0.00000000000E+00  0.39849694763E+02  0.39849694763E+02  0.00000000000E+00 0.  1.
          1   -1    0    0  501    0  0.00000000000E+00 -0.00000000000E+00 -0.72682501695E+03  0.72682501695E+03  0.00000000000E+00 0. -1.
         25    2    1    2    0    0 -0.10437554594E+03  0.77365923324E+02 -0.33860964090E+03  0.38364566024E+03  0.12509101899E+03 0.  0.
          5    1    3    3  502    0  0.17012972290E+01 -0.22022519645E+02 -0.10619030085E+02  0.24862059121E+02  0.41800000000E+01 0. -1.
         -5    1    3    3    0  502 -0.10607684317E+03  0.99388442969E+02 -0.32799061081E+03  0.35878360112E+03  0.41800000000E+01 0. -1.
        -11    1    1    2    0    0  0.33082861185E+02 -0.75902999775E+02 -0.13830972837E+03  0.16119963412E+03  0.00000000000E+00 0.  1.
         11    1    1    2    0    0  0.71292684753E+02 -0.14629235485E+01 -0.21005595292E+03  0.22182941735E+03  0.00000000000E+00 0. -1.
</event>
<event>
 7    1  0.2380582E-009  0.1035044E+03  0.7561462E-02  0.1273095E+00
          2   -1    0    0  501    0  0.00000000000E+00  0.00000000000E+00  0.19287786765E+03  0.19287786765E+03  0.00000000000E+00 0. -1.
         -2   -1    0    0    0  501 -0.00000000000E+00 -0.00000000000E+00 -0.62405701084E+02  0.62405701084E+02  0.00000000000E+00 0.  1.
         25    2    1    2    0    0 -0.11740882606E+02 -0.58366721320E+01  0.89923884794E+02  0.15461761602E+03  0.12509351326E+03 0.  0.
          5    1    3    3  502    0 -0.36039612494E+02  0.46332774787E+02  0.16275779826E+02  0.61056966000E+02  0.41800000000E+01 0. -1.
         -5    1    3    3    0  502  0.24298729888E+02 -0.52169446919E+02  0.73648104968E+02  0.93560650016E+02  0.41800000000E+01 0. -1.
        -11    1    1    2    0    0  0.10773514999E+02  0.47539366671E+02  0.31331736589E+02  0.57945989737E+02  0.00000000000E+00 0. -1.
         11    1    1    2    0    0  0.96736760692E+00 -0.41702694539E+02  0.92165451818E+01  0.42719962980E+02  0.00000000000E+00 0.  1.
</event>
<event>
 7    1  0.2380582E-009  0.1351595E+03  0.7561462E-02  0.1219995E+00
         -3   -1    0    0    0  501 -0.00000000000E+00  0.00000000000E+00  0.55212625676E+02  0.55212625676E+02  0.00000000000E+00 0.  1.
          3   -1    0    0  501    0  0.00000000000E+00 -0.00000000000E+00 -0.48464557532E+03  0.48464557532E+03  0.00000000000E+00 0. -1.
         25    2    1    2    0    0  0.83170295450E+02 -0.74856297781E+02 -0.29276294950E+03  0.33745517434E+03  0.12508032110E+03 0.  0.
          5    1    3    3  502    0  0.83515264980E+02 -0.24467882239E+01 -0.21701909254E+03  0.23258449042E+03  0.41800000000E+01 0. -1.
         -5    1    3    3    0  502 -0.34496953040E+00 -0.72409509557E+02 -0.75743856961E+02  0.10487068392E+03  0.41800000000E+01 0. -1.
        -11    1    1    2    0    0 -0.58021076384E+02  0.64978895397E+02 -0.29643613151E+02  0.92018726097E+02  0.00000000000E+00 0. -1.
         11    1    1    2    0    0 -0.25149219066E+02  0.98774023843E+01 -0.10702638699E+03  0.11038430055E+03  0.00000000000E+00 0.  1.
</event>
<event>
 7    1  0.2380582E-009  0.7569807E+02  0.7561462E-02  0.1341723E+00
         -1   -1    0    0    0  501 -0.00000000000E+00  0.00000000000E+00  0.77780183119E+02  0.77780183119E+02  0.00000000000E+00 0.  1.
          1   -1    0    0  501    0  0.00000000000E+00 -0.00000000000E+00 -0.15988961363E+03  0.15988961363E+03  0.00000000000E+00 0. -1.
         25    2    1    2    0    0  0.14700305284E+02 -0.11236518723E+02 -0.30168870749E+02  0.12999930692E+03  0.12508917103E+03 0.  0.
          5    1    3    3  502    0 -0.26613170836E+02 -0.23059005385E+02  0.36295750293E+02  0.50742807181E+02  0.41800000000E+01 0.  1.
         -5    1    3    3    0  502  0.41313476120E+02  0.11822486662E+02 -0.66464621042E+02  0.79256499735E+02  0.41800000000E+01 0.  1.
        -11    1    1    2    0    0 -0.42165639284E+02 -0.21225810523E+01 -0.62440428690E+02  0.75374091182E+02  0.00000000000E+00 0. -1.
         11    1    1    2    0    0  0.27465334001E+02  0.13359099776E+02  0.10499868925E+02  0.32296398654E+02  0.00000000000E+00 0.  1.
</event>
<event>
 7    1  0.2464190E-009  0.9163823E+02  0.7561462E-02  0.1298932E+00
         -1   -1    0    0    0  501 -0.00000000000E+00  0.00000000000E+00  0.27754893046E+02  0.27754893046E+02  0.00000000000E+00 0.  1.
          1   -1    0    0  501    0  0.00000000000E+00 -0.00000000000E+00 -0.64337978805E+03  0.64337978805E+03  0.00000000000E+00 0. -1.
         25    2    1    2    0    0 -0.54425623199E+02 -0.48198554386E+02 -0.40913542639E+03  0.43396388045E+03  0.12509038054E+03 0.  0.
          5    1    3    3  502    0 -0.29326901102E+02 -0.43954068172E+02 -0.46792489306E+02  0.70703866179E+02  0.41800000000E+01 0. -1.
         -5    1    3    3    0  502 -0.25098722097E+02 -0.42444862134E+01 -0.36234293708E+03  0.36326001427E+03  0.41800000000E+01 0. -1.
        -11    1    1    2    0    0  0.68452471995E+02  0.17393830190E+02 -0.82297535581E+02  0.10844893090E+03  0.00000000000E+00 0.  1.
         11    1    1    2    0    0 -0.14026848796E+02  0.30804724195E+02 -0.12419193304E+03  0.12872186975E+03  0.00000000000E+00 0. -1.
</event>
<event>
 7    1  0.2380582E-009  0.7883798E+02  0.7561462E-02  0.1332382E+00
         -2   -1    0    0    0  501 -0.00000000000E+00  0.00000000000E+00  0.57477186938E+02  0.57477186938E+02  0.00000000000E+00 0. -1.
          2   -1    0    0  501    0  0.00000000000E+00 -0.00000000000E+00 -0.21763018875E+03  0.21763018875E+03  0.00000000000E+00 0.  1.
         25    2    1    2    0    0  0.40933617608E+01 -0.11344223834E+02 -0.64730609405E+02  0.14136151880E+03  0.12509028810E+03 0.  0.
          5    1    3    3  502    0  0.33803394766E+02 -0.17799920205E+02 -0.92379152767E+02  0.10005441981E+03  0.41800000000E+01 0. -1.
         -5    1    3    3    0  502 -0.29710033006E+02  0.64556963703E+01  0.27648543362E+02  0.41307098989E+02  0.41800000000E+01 0. -1.
        -11    1    1    2    0    0 -0.21030965211E+02 -0.34096231045E+02 -0.21858889796E+02  0.45636230479E+02  0.00000000000E+00 0. -1.
         11    1    1    2    0    0  0.16937603451E+02  0.45440454879E+02 -0.73563502614E+02  0.88109626416E+02  0.00000000000E+00 0.  1.
</event>
<event>
 7    1  0.2380582E-009  0.6827559E+02  0.7561462E-02  0.1366057E+00
          1   -1    0    0  501    0  0.00000000000E+00  0.00000000000E+00  0.68916851948E+03  0.68916851948E+03  0.00000000000E+00 0. -1.
         -1   -1    0    0    0  501 -0.00000000000E+00 -0.00000000000E+00 -0.18197432244E+02  0.18197432244E+02  0.00000000000E+00 0.  1.
         25    2    1    2    0    0 -0.26886653445E+02  0.20996490087E+01  0.36923334883E+03  0.39077897696E+03  0.12509053635E+03 0.  0.
          5    1    3    3  502    0 -0.29142229578E+02 -0.73737597562E+01  0.10837953579E+02  0.32226937730E+02  0.41800000000E+01 0. -1.
         -5    1    3    3    0  502  0.22555761321E+01  0.94734087649E+01  0.35839539525E+03  0.35855203923E+03  0.41800000000E+01 0. -1.
        -11    1    1    2    0    0  0.49378880309E+02 -0.31511948048E+02  0.17434765508E+03  0.18392493447E+03  0.00000000000E+00 0.  1.
         11    1    1    2    0    0 -0.22492226864E+02  0.29412299039E+02  0.12739008332E+03  0.13266204029E+03  0.00000000000E+00 0. -1.
</event>
<event>
 7    1  0.2380582E-009  0.1110601E+03  0.7561462E-02  0.1258619E+00
          2   -1    0    0  501    0  0.00000000000E+00  0.00000000000E+00  0.52374718369E+03  0.52374718369E+03  0.00000000000E+00 0. -1.
         -2   -1    0    0    0  501 -0.00000000000E+00 -0.00000000000E+00 -0.32813553220E+02  0.32813553220E+02  0.00000000000E+00 0.  1.
         25    2    1    2    0    0  0.65350830816E+02  0.25758965204E+00  0.34144156879E+03  0.36945985052E+03  0.12508972302E+03 0.  0.
          5    1    3    3  502    0  0.88308936498E+02 -0.10743399579E+02  0.13703587868E+03  0.16343253454E+03  0.41800000000E+01 0. -1.
         -5    1    3    3    0  502 -0.22958105682E+02  0.11000989231E+02  0.20440569011E+03  0.20602731598E+03  0.41800000000E+01 0. -1.
        -11    1    1    2    0    0 -0.55038504451E+02 -0.38816382367E+02  0.64736156393E+02  0.93416906697E+02  0.00000000000E+00 0.  1.
         11    1    1    2    0    0 -0.10312326365E+02  0.38558792715E+02  0.84755905287E+02  0.93683979696E+02  0.00000000000E+00 0. -1.
</event>
<event>
 7    1  0.2380582E-009  0.1906415E+03  0.7561462E-02  0.1157884E+00
         -2   -1    0    0    0  501 -0.00000000000E+00  0.00000000000E+00  0.39640775533E+02  0.39640775533E+02  0.00000000000E+00 0.  1.
          2   -1    0    0  501    0  0.00000000000E+00 -0.00000000000E+00 -0.10018011708E+04  0.10018011708E+04  0.00000000000E+00 0. -1.
         25    2    1    2    0    0  0.11086729745E+03  0.12322071615E+03 -0.45365206611E+03  0.49892155476E+03  0.12509044002E+03 0.  0.
          5    1    3    3  502    0  0.58415920536E+02 -0.12726025348E+02 -0.10286014520E+03  0.11904643365E+03  0.41800000000E+01 0.  1.
         -5    1    3    3    0  502  0.52451376913E+02  0.13594674150E+03 -0.35079192091E+03  0.37987512111E+03  0.41800000000E+01 0.  1.
        -11    1    1    2    0    0 -0.91907876096E+02 -0.60451306672E+02 -0.40756532569E+03  0.42215034392E+03  0.00000000000E+00 0. -1.
         11    1    1    2    0    0 -0.18959421354E+02 -0.62769409476E+02 -0.10094300347E+03  0.12037004766E+03  0.00000000000E+00 0.  1.
</event>
<event>
 7    1  0.2380582E-009  0.1114268E+03  0.7561462E-02  0.1257950E+00
         -2   -1    0    0    0  501 -0.00000000000E+00  0.00000000000E+00  0.43853781530E+02  0.43853781530E+02  0.00000000000E+00 0.  1.
          2   -1    0    0  501    0  0.00000000000E+00 -0.00000000000E+00 -0.46008268098E+03  0.46008268098E+03  0.00000000000E+00 0. -1.
         25    2    1    2    0    0  0.37570861281E+02  0.10061687325E+02 -0.37550850288E+03  0.39770133031E+03  0.12508759023E+03 0.  0.
          5    1    3    3  502    0 -0.43716666478E+02 -0.14031872205E+01 -0.83637427312E+02  0.94476491836E+02  0.41800000000E+01 0. -1.
         -5    1    3    3    0  502  0.81287527758E+02  0.11464874546E+02 -0.29187107556E+03  0.30322483847E+03  0.41800000000E+01 0. -1.
        -11    1    1    2    0    0  0.28928225423E+02  0.25206263117E+01 -0.42259481516E+01  0.29343728817E+02  0.00000000000E+00 0.  1.
         11    1    1    2    0    0 -0.66499086703E+02 -0.12582313637E+02 -0.36494448426E+02  0.76891403387E+02  0.00000000000E+00 0. -1.
</event>
<event>
 7    1  0.2380582E-009  0.1892627E+03  0.7561462E-02  0.1159128E+00
         -2   -1    0    0    0  501 -0.00000000000E+00  0.00000000000E+00  0.25155674545E+03  0.25155674545E+03  0.00000000000E+00 0.  1.
          2   -1    0    0  501    0  0.00000000000E+00 -0.00000000000E+00 -0.18200208310E+03  0.18200208310E+03  0.00000000000E+00 0. -1.
         25    2    1    2    0    0  0.19746709352E+02  0.16989676789E+03 -0.32416486762E+02  0.21436765192E+03  0.12509123592E+03 0.  0.
          5    1    3    3  502    0  0.37688510090E+02  0.17950401343E+03 -0.46500959336E+02  0.18926681233E+03  0.41800000000E+01 0. -1.
         -5    1    3    3    0  502 -0.17941800738E+02 -0.96072455347E+01  0.14084472574E+02  0.25100839591E+02  0.41800000000E+01 0. -1.
        -11    1    1    2    0    0 -0.29265401001E+02 -0.12352947750E+03  0.25851052201E+02  0.12955412926E+03  0.00000000000E+00 0. -1.
         11    1    1    2    0    0  0.95186916486E+01 -0.46367290390E+02  0.76120096912E+02  0.89637047378E+02  0.00000000000E+00 0.  1.
</event>
<event>
 7    1  0.2380582E-009  0.1219101E+03  0.7561462E-02  0.1239979E+00
         -1   -1    0    0    0  501 -0.00000000000E+00  0.00000000000E+00  0.43134051197E+02  0.43134051197E+02  0.00000000000E+00 0.  1.
          1   -1    0    0  501    0  0.00000000000E+00 -0.00000000000E+00 -0.63084121123E+03  0.63084121123E+03  0.00000000000E+00 0. -1.
         25    2    1    2    0    0  0.98393287191E+02  0.69063160210E+02 -0.25453926587E+03  0.30803843155E+03  0.12508588401E+03 0.  0.
          5    1    3    3  502    0  0.84535677896E+02  0.55872478603E+02 -0.26646319735E+03  0.28511071997E+03  0.41800000000E+01 0.  1.
         -5    1    3    3    0  502  0.13857609295E+02  0.13190681608E+02  0.11923931472E+02  0.22927711582E+02  0.41800000000E+01 0.  1.
        -11    1    1    2    0    0 -0.51091666098E+02 -0.50990886763E+02 -0.29166701012E+03  0.30046642686E+03  0.00000000000E+00 0. -1.
         11    1    1    2    0    0 -0.47301621093E+02 -0.18072273447E+02 -0.41500884038E+02  0.65470404013E+02  0.00000000000E+00 0.  1.
</event>
<event>
 7    1  0.2380582E-009  0.1126524E+03  0.7561462E-02  0.1255735E+00
         -4   -1    0    0    0  501 -0.00000000000E+00  0.00000000000E+00  0.24805070743E+03  0.24805070743E+03  0.00000000000E+00 0.  1.
          4   -1    0    0  501    0  0.00000000000E+00 -0.00000000000E+00 -0.85532048874E+02  0.85532048874E+02  0.00000000000E+00 0. -1.
         25    2    1    2    0    0  0.68298146469E+02  0.68224595060E+02  0.93982109230E+02  0.18384390342E+03  0.12508681700E+03 0.  0.
          5    1    3    3  502    0  0.19834628772E+02 -0.22367076184E+01 -0.28105836437E+02  0.34725002539E+02  0.41800000000E+01 0. -1.
         -5    1    3    3    0  502  0.48463517697E+02  0.70461302678E+02  0.12208794567E+03  0.14911890088E+03  0.41800000000E+01 0. -1.
        -11    1    1    2    0    0 -0.56376285758E+02 -0.68758979041E+01  0.66165299333E+02  0.87197536684E+02  0.00000000000E+00 0.  1.
         11    1    1    2    0    0 -0.11921860711E+02 -0.61348697156E+02  0.23712499927E+01  0.62541316200E+02  0.00000000000E+00 0. -1.
</event>
<event>
 7    1  0.2380582E-009  0.1111041E+03  0.7561462E-02  0.1258539E+00
          1   -1    0    0  501    0  0.00000000000E+00  0.00000000000E+00  0.87608164793E+02  0.87608164793E+02  0.00000000000E+00 0. -1.
         -1   -1    0    0    0  501 -0.00000000000E+00 -0.00000000000E+00 -0.23289687052E+03  0.23289687052E+03  0.00000000000E+00 0.  1.
         25    2    1    2    0    0 -0.38105486478E+01 -0.71150964183E+02 -0.14677230678E+03  0.20558631554E+03  0.12508654249E+03 0.  0.
          5    1    3    3  502    0  0.35164822013E+02  0.19016497982E+02 -0.19262731489E+02  0.44572605120E+02  0.41800000000E+01 0. -1.
         -5    1    3    3    0  502 -0.38975370661E+02 -0.90167462165E+02 -0.12750957529E+03  0.16101371042E+03  0.41800000000E+01 0. -1.
        -11    1    1    2    0    0 -0.20103553245E+02  0.30480616715E+02 -0.38510170648E+02  0.53068390703E+02  0.00000000000E+00 0.  1.
         11    1    1    2    0    0  0.23914101893E+02  0.40670347467E+02  0.39993771697E+02  0.61850329078E+02  0.00000000000E+00 0. -1.
</event>
<event>
 7    1  0.2380582E-009  0.7661223E+02  0.7561462E-02  0.1338950E+00
         -1   -1    0    0    0  501 -0.00000000000E+00  0.00000000000E+00  0.10248604017E+04  0.10248604017E+04  0.00000000000E+00 0.  1.
          1   -1    0    0  501    0  0.00000000000E+00 -0.00000000000E+00 -0.15511228960E+02  0.15511228960E+02  0.00000000000E+00 0. -1.
         25    2    1    2    0    0  0.31316727882E+01  0.51061445881E+02  0.72417398791E+03  0.73667560036E+03  0.12508355916E+03 0.  0.
          5    1    3    3  502    0  0.28138949847E+02  0.11945119016E+02  0.63763074217E+03  0.63837678695E+03  0.41800000000E+01 0. -1.
         -5    1    3    3    0  502 -0.25007277058E+02  0.39116326865E+02  0.86543245743E+02  0.98298813406E+02  0.41800000000E+01 0. -1.
        -11    1    1    2    0    0 -0.45060114315E+01  0.11928425964E+02  0.11909828681E+01  0.12806635982E+02  0.00000000000E+00 0. -1.
         11    1    1    2    0    0  0.13743386433E+01 -0.62989871845E+02  0.28398420200E+03  0.29088939435E+03  0.00000000000E+00 0.  1.
</event>
<event>
 7    1  0.2380582E-009  0.1256899E+03  0.7561462E-02  0.1233995E+00
         -3   -1    0    0    0  501 -0.00000000000E+00  0.00000000000E+00  0.59499515431E+03  0.59499515431E+03  0.00000000000E+00 0.  1.
          3   -1    0    0  501    0  0.00000000000E+00 -0.00000000000E+00 -0.40268822681E+02  0.40268822681E+02  0.00000000000E+00 0. -1.
         25    2    1    2    0    0  0.24354632194E+02 -0.64524132872E+02  0.47482721768E+03  0.49584760288E+03  0.12508975499E+03 0.  0.
          5    1    3    3  502    0  0.24434034593E+02 -0.99599211509E+02  0.28879488410E+03  0.30649140683E+03  0.41800000000E+01 0. -1.
         -5    1    3    3    0  502 -0.79402398974E-01  0.35075078637E+02  0.18603233358E+03  0.18935619605E+03  0.41800000000E+01 0. -1.
        -11    1    1    2    0    0 -0.58783463271E+02  0.42705307065E+02  0.59081947640E+02  0.93647826150E+02  0.00000000000E+00 0.  1.
         11    1    1    2    0    0  0.34428831078E+02  0.21818825807E+02  0.20817166309E+02  0.45768547957E+02  0.00000000000E+00 0. -1.
</event>
<event>
 7    1  0.2380582E-009  0.9720712E+02  0.7561462E-02  0.1286281E+00
         -1   -1    0    0    0  501 -0.00000000000E+00  0.00000000000E+00  0.42761396013E+03  0.42761396013E+03  0.00000000000E+00 0.  1.
          1   -1    0    0  501    0  0.00000000000E+00 -0.00000000000E+00 -0.41519250071E+02  0.41519250071E+02  0.00000000000E+00 0. -1.
         25    2    1    2    0    0  0.66089686438E+02 -0.36441561296E+02  0.22949699245E+03  0.27205104068E+03  0.12508822946E+03 0.  0.
          5    1    3    3  502    0  0.19329176486E+02 -0.16653345243E+02 -0.96058202360E+01  0.27580702562E+02  0.41800000000E+01 0.  1.
         -5    1    3    3    0  502  0.46760509953E+02 -0.19788216053E+02  0.23910281269E+03  0.24447033812E+03  0.41800000000E+01 0.  1.
        -11    1    1    2    0    0  0.22773754760E+02  0.10221584134E+02  0.19799905984E+02  0.31861590749E+02  0.00000000000E+00 0. -1.
         11    1    1    2    0    0 -0.88863441199E+02  0.26219977163E+02  0.13679781163E+03  0.16522057877E+03  0.00000000000E+00 0.  1.
</event>
<event>
 7    1  0.2752266E-009  0.1470632E+03  0.7561462E-02  0.1204129E+00
         -1   -1    0    0    0  501 -0.00000000000E+00  0.00000000000E+00  0.40399969662E+02  0.40399969662E+02  0.00000000000E+00 0.  1.
          1   -1    0    0  501    0  0.00000000000E+00 -0.00000000000E+00 -0.61581668954E+03  0.61581668954E+03  0.00000000000E+00 0. -1.
         25    2    1    2    0    0 -0.10518902843E+03 -0.22779688114E+02 -0.22919486572E+03  0.28242141684E+03  0.12509166369E+03 0.  0.
          5    1    3    3  502    0 -0.84073502041E+02 -0.68680892805E+02 -0.11905637672E+03  0.16117478717E+03  0.41800000000E+01 0. -1.
         -5    1    3    3    0  502 -0.21115526388E+02  0.45901204691E+02 -0.11013848900E+03  0.12124662967E+03  0.41800000000E+01 0. -1.
        -11    1    1    2    0    0  0.85773831184E+01 -0.25414128300E+02 -0.33224013298E+02  0.42699935340E+02  0.00000000000E+00 0.  1.
         11    1    1    2    0    0  0.96611645310E+02  0.48193816414E+02 -0.31299784086E+03  0.33109530703E+03  0.00000000000E+00 0. -1.
</event>
<event>
 7    1  0.2380582E-009  0.1024500E+03  0.7561462E-02  0.1275227E+00
         -1   -1    0    0    0  501 -0.00000000000E+00  0.00000000000E+00  0.24888325017E+03  0.24888325017E+03  0.00000000000E+00 0.  1.
          1   -1    0    0  501    0  0.00000000000E+00 -0.00000000000E+00 -0.10108501829E+03  0.10108501829E+03  0.00000000000E+00 0. -1.
         25    2    1    2    0    0 -0.37800496070E+01  0.14819399135E+02  0.20740479943E+03  0.24268965633E+03  0.12509042767E+03 0.  0.
          5    1    3    3  502    0  0.51067925430E+02  0.29774149268E+02  0.15222507886E+03  0.16335354299E+03  0.41800000000E+01 0. -1.
         -5    1    3    3    0  502 -0.54847975037E+02 -0.14954750132E+02  0.55179720572E+02  0.79336113338E+02  0.41800000000E+01 0. -1.
        -11    1    1    2    0    0  0.45451832946E+02 -0.42918921984E+01 -0.24692096694E+02  0.51903652048E+02  0.00000000000E+00 0. -1.
         11    1    1    2    0    0 -0.41671783339E+02 -0.10527506937E+02 -0.34914470865E+02  0.55374960088E+02  0.00000000000E+00 0.  1.
</event>
<event>
 7    1  0.2380582E-009  0.9162420E+02  0.7561462E-02  0.1298965E+00
         -2   -1    0    0    0  501 -0.00000000000E+00  0.00000000000E+00  0.45817688207E+02  0.45817688207E+02  0.00000000000E+00 0.  1.
          2   -1    0    0  501    0  0.00000000000E+00 -0.00000000000E+00 -0.33023886404E+03  0.33023886404E+03  0.00000000000E+00 0. -1.
         25    2    1    2    0    0 -0.72779452085E+01 -0.50885802255E+02 -0.13103650234E+03  0.18831125272E+03  0.12509288388E+03 0.  0.
          5    1    3    3  502    0 -0.32109983946E+02 -0.49869556252E+02 -0.48775898006E+01  0.59659760241E+02  0.41800000000E+01 0. -1.
         -5    1    3    3    0  502  0.24832038738E+02 -0.10162460025E+01 -0.12615891254E+03  0.12865149248E+03  0.41800000000E+01 0. -1.
        -11    1    1    2    0    0  0.45856069662E+02  0.28154624586E+02 -0.43857105017E+02  0.69418352551E+02  0.00000000000E+00 0.  1.
         11    1    1    2    0    0 -0.38578124453E+02  0.22731177668E+02 -0.10952756847E+03  0.11832694697E+03  0.00000000000E+00 0. -1.
</event>
<event>
 7    1  0.2380582E-009  0.1520429E+03  0.7561462E-02  0.1197985E+00
         -2   -1    0    0    0  501 -0.00000000000E+00  0.00000000000E+00  0.56205002533E+02  0.56205002533E+02  0.00000000000E+00 0.  1.
          2   -1    0    0  501    0  0.00000000000E+00 -0.00000000000E+00 -0.50710336163E+03  0.50710336163E+03  0.00000000000E+00 0. -1.
         25    2    1    2    0    0  0.43950901243E+01  0.12774744992E+03 -0.26138504560E+03  0.31671139710E+03  0.12508093065E+03 0.  0.
          5    1    3    3  502    0 -0.50470993156E+02  0.59181864762E+02 -0.64651348973E+02  0.10122787951E+03  0.41800000000E+01 0.  1.
         -5    1    3    3    0  502  0.54866083280E+02  0.68565585160E+02 -0.19673369663E+03  0.21548351759E+03  0.41800000000E+01 0.  1.
        -11    1    1    2    0    0 -0.25294105064E+02 -0.34866222848E+02 -0.12336523022E+03  0.13066914430E+03  0.00000000000E+00 0. -1.
         11    1    1    2    0    0  0.20899014940E+02 -0.92881227074E+02 -0.66148083281E+02  0.11592782276E+03  0.00000000000E+00 0.  1.
</event>
<event>
 7    1  0.2380582E-009  0.1991062E+03  0.7561462E-02  0.1150495E+00
          2   -1    0    0  501    0  0.00000000000E+00  0.00000000000E+00  0.25685777858E+04  0.25685777858E+04  0.00000000000E+00 0.  1.
         -2   -1    0    0    0  501 -0.00000000000E+00 -0.00000000000E+00 -0.24163897037E+02  0.24163897037E+02  0.00000000000E+00 0. -1.
         25    2    1    2    0    0 -0.15131859919E+03  0.10432308643E+03  0.19799624439E+04  0.19924051025E+04  0.12508472499E+03 0.  0.
          5    1    3    3  502    0 -0.10662797488E+03  0.36337947105E+02  0.15917663211E+04  0.15957529460E+04  0.41800000000E+01 0. -1.
         -5    1    3    3    0  502 -0.44690624312E+02  0.67985139323E+02  0.38819612284E+03  0.39665215650E+03  0.41800000000E+01 0. -1.
        -11    1    1    2    0    0  0.14303487924E+02 -0.57456723163E+02  0.14668418270E+03  0.15818379897E+03  0.00000000000E+00 0.  1.
         11    1    1    2    0    0  0.13701511127E+03 -0.46866363266E+02  0.41776726212E+03  0.44215278131E+03  0.00000000000E+00 0. -1.
</event>
<event>
 7    1  0.2380582E-009  0.1535789E+03  0.7561462E-02  0.1196143E+00
         -1   -1    0    0    0  501 -0.00000000000E+00  0.00000000000E+00  0.53195621403E+02  0.53195621403E+02  0.00000000000E+00 0.  1.
          1   -1    0    0  501    0  0.00000000000E+00 -0.00000000000E+00 -0.46444582901E+03  0.46444582901E+03  0.00000000000E+00 0. -1.
         25    2    1    2    0    0 -0.10320740509E+03 -0.44571854186E+02 -0.24142493185E+03  0.29423231321E+03  0.12509291653E+03 0.  0.
          5    1    3    3  502    0  0.55382613426E+01 -0.54418570831E+02 -0.11299127217E+03  0.12560474982E+03  0.41800000000E+01 0.  1.
         -5    1    3    3    0  502 -0.10874566643E+03  0.98467166443E+01 -0.12843365968E+03  0.16862756339E+03  0.41800000000E+01 0.  1.
        -11    1    1    2    0    0 -0.21230972665E+01 -0.19583075819E+02 -0.11829354663E+02  0.22976902147E+02  0.00000000000E+00 0.  1.
         11    1    1    2    0    0  0.10533050235E+03  0.64154930005E+02 -0.15799592109E+03  0.20043223506E+03  0.00000000000E+00 0. -1.
</event>
<event>
 7    1  0.2380582E-009  0.3289489E+03  0.7561462E-02  0.1071603E+00
          1   -1    0    0  501    0  0.00000000000E+00  0.00000000000E+00  0.14360097171E+03  0.14360097171E+03  0.00000000000E+00 0. -1.
         -1   -1    0    0    0  501 -0.00000000000E+00 -0.00000000000E+00 -0.86735684852E+03  0.86735684852E+03  0.00000000000E+00 0.  1.
         25    2    1    2    0    0  0.28653968701E+03  0.13708723530E+03 -0.21197033988E+03  0.40184167969E+03  0.12508960080E+03 0.  0.
          5    1    3    3  502    0  0.24681239290E+03  0.15048001375E+03 -0.14679110883E+03  0.32423092674E+03  0.41800000000E+01 0.  1.
         -5    1    3    3    0  502  0.39727294112E+02 -0.13392778445E+02 -0.65179231051E+02  0.77610752943E+02  0.41800000000E+01 0.  1.
        -11    1    1    2    0    0 -0.13905570787E+03 -0.24677051381E+02 -0.26665817367E+03  0.30174828639E+03  0.00000000000E+00 0.  1.
         11    1    1    2    0    0 -0.14748397914E+03 -0.11241018392E+03 -0.24512736325E+03  0.30736785415E+03  0.00000000000E+00 0. -1.
</event>
<event>
 7    1  0.2380582E-009  0.1023079E+03  0.7561462E-02  0.1275516E+00
          1   -1    0    0  501    0  0.00000000000E+00  0.00000000000E+00  0.93931828762E+02  0.93931828762E+02  0.00000000000E+00 0. -1.
         -1   -1    0    0    0  501 -0.00000000000E+00 -0.00000000000E+00 -0.23460093171E+03  0.23460093171E+03  0.00000000000E+00 0.  1.
         25    2    1    2    0    0  0.38148827745E+01 -0.61311994027E+02  0.12805575107E+02  0.13994787342E+03  0.12509080932E+03 0.  0.
          5    1    3    3  502    0  0.49239479442E+02 -0.55288119378E+02  0.42226111123E+02  0.85333576865E+02  0.41800000000E+01 0. -1.
         -5    1    3    3    0  502 -0.45424596667E+02 -0.60238746481E+01 -0.29420536016E+02  0.54614296550E+02  0.41800000000E+01 0. -1.
        -11    1    1    2    0    0 -0.19220381764E+02  0.65681795071E+02 -0.15779720246E+03  0.17199848366E+03  0.00000000000E+00 0.  1.
         11    1    1    2    0    0  0.15405498990E+02 -0.43698010449E+01  0.43225244031E+01  0.16586403393E+02  0.00000000000E+00 0. -1.
</event>
<event>
 7    1  0.2380582E-009  0.1485103E+03  0.7561462E-02  0.1202316E+00
         -2   -1    0    0    0  501 -0.00000000000E+00  0.00000000000E+00  0.15419056595E+03  0.15419056595E+03  0.00000000000E+00 0.  1.
          2   -1    0    0  501    0  0.00000000000E+00 -0.00000000000E+00 -0.29607343228E+03  0.29607343228E+03  0.00000000000E+00 0. -1.
         25    2    1    2    0    0 -0.27615722189E+02  0.13168182419E+03  0.54464852125E+02  0.19161787557E+03  0.12509300215E+03 0.  0.
          5    1    3    3  502    0 -0.34622137066E+02  0.19903323166E+02 -0.30955642054E+02  0.50700678724E+02  0.41800000000E+01 0.  1.
         -5    1    3    3    0  502  0.70064148773E+01  0.11177850102E+03  0.85420494179E+02  0.14091719684E+03  0.41800000000E+01 0.  1.
        -11    1    1    2    0    0 -0.16279080985E+02 -0.37652347481E+02 -0.54691797129E+01  0.41383809338E+02  0.00000000000E+00 0.  1.
         11    1    1    2    0    0  0.43894803173E+02 -0.94029476707E+02 -0.19087853875E+03  0.21726231332E+03  0.00000000000E+00 0. -1.
</event>
<event>
 7    1  0.2380582E-009  0.7308225E+02  0.7561462E-02  0.1349915E+00
          1   -1    0    0  501    0  0.00000000000E+00  0.00000000000E+00  0.45699139251E+02  0.45699139251E+02  0.00000000000E+00 0. -1.
         -1   -1    0    0    0  501 -0.00000000000E+00 -0.00000000000E+00 -0.27292502817E+03  0.27292502817E+03  0.00000000000E+00 0.  1.
         25    2    1    2    0    0  0.16965281841E+02 -0.44050104920E+01 -0.15940851682E+03  0.20338755861E+03  0.12509276101E+03 0.  0.
          5    1    3    3  502    0 -0.16550452740E+02 -0.85326497690E+01  0.15880109223E+02  0.24826877913E+02  0.41800000000E+01 0. -1.
         -5    1    3    3    0  502  0.33515734581E+02  0.41276392771E+01 -0.17528862604E+03  0.17856068069E+03  0.41800000000E+01 0. -1.
        -11    1    1    2    0    0 -0.23923840855E+02  0.45482749005E+02 -0.34609715902E+02  0.61958559159E+02  0.00000000000E+00 0. -1.
         11    1    1    2    0    0  0.69585590142E+01 -0.41077738513E+02 -0.33207656202E+02  0.53278049658E+02  0.00000000000E+00 0.  1.
</event>
<event>
 7    1  0.2380582E-009  0.1579479E+03  0.7561462E-02  0.1191033E+00
          2   -1    0    0  501    0  0.00000000000E+00  0.00000000000E+00  0.58725849830E+02  0.58725849830E+02  0.00000000000E+00 0. -1.
         -2   -1    0    0    0  501 -0.00000000000E+00 -0.00000000000E+00 -0.64330595433E+03  0.64330595433E+03  0.00000000000E+00 0.  1.
         25    2    1    2    0    0 -0.13809831355E+03 -0.49069353854E+02 -0.18631194474E+03  0.26802619924E+03  0.12508779730E+03 0.  0.
          5    1    3    3  502    0 -0.38271450087E+02 -0.31229606752E+02  0.66333814111E+01  0.50014661636E+02  0.41800000000E+01 0. -1.
         -5    1    3    3    0  502 -0.99826863466E+02 -0.17839747102E+02 -0.19294532615E+03  0.21801153761E+03  0.41800000000E+01 0. -1.
        -11    1    1    2    0    0  0.11775579951E+03  0.68889707917E+02 -0.36811567100E+03  0.39258294335E+03  0.00000000000E+00 0.  1.
         11    1    1    2    0    0  0.20342514040E+02 -0.19820354063E+02 -0.30152488764E+02  0.41422661568E+02  0.00000000000E+00 0. -1.
</event>
<event>
 7    1  0.2380582E-009  0.1288048E+03  0.7561462E-02  0.1229240E+00
         -3   -1    0    0    0  501 -0.00000000000E+00  0.00000000000E+00  0.26025141171E+02  0.26025141171E+02  0.00000000000E+00 0.  1.
          3   -1    0    0  501    0  0.00000000000E+00 -0.00000000000E+00 -0.72917765453E+03  0.72917765453E+03  0.00000000000E+00 0. -1.
         25    2    1    2    0    0  0.84751305766E+02  0.37976773710E+01 -0.37329575376E+03  0.40273335099E+03  0.12508887255E+03 0.  0.
          5    1    3    3  502    0  0.10566483732E+03 -0.29584400742E+02 -0.24549591453E+03  0.26893495694E+03  0.41800000000E+01 0. -1.
         -5    1    3    3    0  502 -0.20913531555E+02  0.33382078113E+02 -0.12779983924E+03  0.13379839405E+03  0.41800000000E+01 0. -1.
        -11    1    1    2    0    0 -0.16728998229E+02 -0.30762091025E+02 -0.38402467439E+02  0.51970329337E+02  0.00000000000E+00 0.  1.
         11    1    1    2    0    0 -0.68022307538E+02  0.26964413654E+02 -0.29145429216E+03  0.30049911538E+03  0.00000000000E+00 0. -1.
</event>
<event>
 7    1  0.2380582E-009  0.2255153E+03  0.7561462E-02  0.1129837E+00
          2   -1    0    0  501    0  0.00000000000E+00  0.00000000000E+00  0.13141273762E+04  0.13141273762E+04  0.00000000000E+00 0.  1.
         -2   -1    0    0    0  501 -0.00000000000E+00 -0.00000000000E+00 -0.45984328096E+02  0.45984328096E+02  0.00000000000E+00 0. -1.
         25    2    1    2    0    0  0.21751176370E+03 -0.25589871846E+02  0.59841706987E+03  0.64939666570E+03  0.12508729358E+03 0.  0.
          5    1    3    3  502    0  0.18766214854E+03  0.67214934410E+01  0.56062349297E+03  0.59125158244E+03  0.41800000000E+01 0. -1.
         -5    1    3    3    0  502  0.29849615157E+02 -0.32311365287E+02  0.37793576904E+02  0.58145083257E+02  0.41800000000E+01 0. -1.
        -11    1    1    2    0    0 -0.16469106257E+03  0.18919007818E+02  0.60288945217E+03  0.62526535686E+03  0.00000000000E+00 0.  1.
         11    1    1    2    0    0 -0.52820701135E+02  0.66708640280E+01  0.66836526095E+02  0.85449681776E+02  0.00000000000E+00 0. -1.
</event>
<event>
 7    1  0.2380582E-009  0.3733925E+03  0.7561462E-02  0.1053403E+00
          2   -1    0    0  501    0  0.00000000000E+00  0.00000000000E+00  0.40948326404E+04  0.40948326404E+04  0.00000000000E+00 0. -1.
         -2   -1    0    0    0  501 -0.00000000000E+00 -0.00000000000E+00 -0.36620767759E+02  0.36620767759E+02  0.00000000000E+00 0.  1.
         25    2    1    2    0    0 -0.10276648894E+03 -0.35445410659E+03  0.22703498621E+04  0.23035481550E+04  0.12508773302E+03 0.  0.
          5    1    3    3  502    0 -0.90345219244E+02 -0.32144908899E+03  0.17238199293E+04  0.17558657115E+04  0.41800000000E+01 0. -1.
         -5    1    3    3    0  502 -0.12421269697E+02 -0.33005017604E+02  0.54652993276E+03  0.54768244351E+03  0.41800000000E+01 0. -1.
        -11    1    1    2    0    0  0.53884062125E+02  0.68064303900E+02  0.31994451961E+03  0.33151280103E+03  0.00000000000E+00 0.  1.
         11    1    1    2    0    0  0.48882426817E+02  0.28638980269E+03  0.14679174909E+04  0.14963924522E+04  0.00000000000E+00 0. -1.
</event>
<event>
 7    1  0.2380582E-009  0.6514114E+02  0.7561462E-02  0.1377441E+00
          2   -1    0    0  501    0  0.00000000000E+00  0.00000000000E+00  0.33792126024E+03  0.33792126024E+03  0.00000000000E+00 0. -1.
         -2   -1    0    0    0  501 -0.00000000000E+00 -0.00000000000E+00 -0.39467075075E+02  0.39467075075E+02  0.00000000000E+00 0.  1.
         25    2    1    2    0    0  0.39014801625E+02  0.78920075642E+01  0.16564675422E+03  0.21135296767E+03  0.12508713455E+03 0.  0.
          5    1    3    3  502    0  0.33179496871E+02  0.25657660410E+02  0.18159539418E+03  0.18642305152E+03  0.41800000000E+01 0. -1.
         -5    1    3    3    0  502  0.58353047534E+01 -0.17765652846E+02 -0.15948639962E+02  0.24929916150E+02  0.41800000000E+01 0. -1.
        -11    1    1    2    0    0 -0.14057118600E+02 -0.31576321835E+02  0.65569160000E+01  0.35180389870E+02  0.00000000000E+00 0.  1.
         11    1    1    2    0    0 -0.24957683025E+02  0.23684314270E+02  0.12625051494E+03  0.13085497777E+03  0.00000000000E+00 0. -1.
</event>
<event>
 7    1  0.2380582E-009  0.1441992E+03  0.7561462E-02  0.1207788E+00
          1   -1    0    0  501    0  0.00000000000E+00  0.00000000000E+00  0.14458877569E+03  0.14458877569E+03  0.00000000000E+00 0. -1.
         -1   -1    0    0    0  501 -0.00000000000E+00 -0.00000000000E+00 -0.15083299791E+03  0.15083299791E+03  0.00000000000E+00 0.  1.
         25    2    1    2    0    0  0.91074210391E+02  0.37938842362E+02 -0.12308015833E+02  0.15978806309E+03  0.12508745058E+03 0.  0.
          5    1    3    3  502    0  0.11780825062E+03  0.45186770976E+02 -0.25545980673E+02  0.12880488234E+03  0.41800000000E+01 0. -1.
         -5    1    3    3    0  502 -0.26734040229E+02 -0.72479286144E+01  0.13237964840E+02  0.30983180748E+02  0.41800000000E+01 0. -1.
        -11    1    1    2    0    0 -0.87932069850E+02 -0.63450890233E+02  0.12451315073E+02  0.10914714667E+03  0.00000000000E+00 0. -1.
         11    1    1    2    0    0 -0.31421405410E+01  0.25512047871E+02 -0.63875214537E+01  0.26486563841E+02  0.00000000000E+00 0.  1.
</event>
<event>
 7    1  0.2380582E-009  0.1399356E+03  0.7561462E-02  0.1213416E+00
         -1   -1    0    0    0  501 -0.00000000000E+00  0.00000000000E+00  0.84272293900E+02  0.84272293900E+02  0.00000000000E+00 0.  1.
          1   -1    0    0  501    0  0.00000000000E+00 -0.00000000000E+00 -0.24759755450E+03  0.24759755450E+03  0.00000000000E+00 0. -1.
         25    2    1    2    0    0  0.13576517043E+02 -0.94199330835E+02 -0.93815208988E+02  0.18305034123E+03  0.12509315825E+03 0.  0.
          5    1    3    3  502    0 -0.43805183813E+02 -0.76328376334E+02 -0.84523561333E+02  0.12209266965E+03  0.41800000000E+01 0.  1.
         -5    1    3    3    0  502  0.57381700855E+02 -0.17870954501E+02 -0.92916476544E+01  0.60957671576E+02  0.41800000000E+01 0.  1.
        -11    1    1    2    0    0  0.23055940937E+02  0.91975781785E+02 -0.52233733570E+02  0.10825656456E+03  0.00000000000E+00 0.  1.
         11    1    1    2    0    0 -0.36632457980E+02  0.22235490502E+01 -0.17276318039E+02  0.40562942608E+02  0.00000000000E+00 0. -1.
</event>
<event>
 7    1  0.2399564E-009  0.1253616E+03  0.7561462E-02  0.1234505E+00
          1   -1    0    0  501    0  0.00000000000E+00  0.00000000000E+00  0.10073907468E+04  0.10073907468E+04  0.00000000000E+00 0. -1.
         -1   -1    0    0    0  501 -0.00000000000E+00 -0.00000000000E+00 -0.22163082180E+02  0.22163082180E+02  0.00000000000E+00 0.  1.
         25    2    1    2    0    0  0.71674368668E+02 -0.39555394300E+01  0.78572194096E+03  0.79884844665E+03  0.12508801215E+03 0.  0.
          5    1    3    3  502    0  0.85414440146E+02  0.42466230345E+02  0.50330159136E+03  0.51227821696E+03  0.41800000000E+01 0.  1.
         -5    1    3    3    0  502 -0.13740071478E+02 -0.46421769775E+02  0.28242034960E+03  0.28657022969E+03  0.41800000000E+01 0.  1.
        -11    1    1    2    0    0 -0.55124577482E+02  0.39248649471E+02  0.78835060771E+02  0.10389486193E+03  0.00000000000E+00 0.  1.
         11    1    1    2    0    0 -0.16549791186E+02 -0.35293110041E+02  0.12067066288E+03  0.12681052040E+03  0.00000000000E+00 0. -1.
</event>
<event>
 7    1  0.2380582E-009  0.9836161E+02  0.7561462E-02  0.1283779E+00
         -3   -1    0    0    0  501 -0.00000000000E+00  0.00000000000E+00  0.55071902991E+03  0.55071902991E+03  0.00000000000E+00 0.  1.
          3   -1    0    0  501    0  0.00000000000E+00 -0.00000000000E+00 -0.52745827485E+02  0.52745827485E+02  0.00000000000E+00 0. -1.
         25    2    1    2    0    0  0.36970115661E+01  0.33593510960E+02  0.40480607889E+02  0.13574479055E+03  0.12508307909E+03 0.  0.
          5    1    3    3  502    0 -0.34579939525E+02 -0.18563775515E+02 -0.22438591415E+02  0.45402078847E+02  0.41800000000E+01 0. -1.
         -5    1    3    3    0  502  0.38276951092E+02  0.52157286475E+02  0.62919199304E+02  0.90342711706E+02  0.41800000000E+01 0. -1.
        -11    1    1    2    0    0 -0.21864178218E+02  0.23743465945E+02  0.96596017753E+02  0.10184588902E+03  0.00000000000E+00 0. -1.
         11    1    1    2    0    0  0.18167166652E+02 -0.57336976905E+02  0.36089657679E+03  0.36587417783E+03  0.00000000000E+00 0.  1.
</event>
<event>
 7    1  0.2409986E-009  0.1258244E+03  0.7561462E-02  0.1233786E+00
          1   -1    0    0  501    0  0.00000000000E+00  0.00000000000E+00  0.52009929940E+03  0.52009929940E+03  0.00000000000E+00 0. -1.
         -1   -1    0    0    0  501 -0.00000000000E+00 -0.00000000000E+00 -0.41314670884E+02  0.41314670884E+02  0.00000000000E+00 0.  1.
         25    2    1    2    0    0 -0.73025251801E+02 -0.51342215931E+02  0.17884332177E+03  0.23580061087E+03  0.12509310056E+03 0.  0.
          5    1    3    3  502    0 -0.40035419276E+02 -0.82314441915E+02  0.62549321897E+02  0.11094319364E+03  0.41800000000E+01 0. -1.
         -5    1    3    3    0  502 -0.32989832525E+02  0.30972225984E+02  0.11629399987E+03  0.12485741723E+03  0.41800000000E+01 0. -1.
        -11    1    1    2    0    0  0.73116590819E+02  0.10655119849E+02  0.11836528088E+03  0.13953460914E+03  0.00000000000E+00 0.  1.
         11    1    1    2    0    0 -0.91339018659E-01  0.40687096082E+02  0.18157602587E+03  0.18607875027E+03  0.00000000000E+00 0. -1.
</event>
<event>
 7    1  0.2380582E-009  0.1856500E+03  0.7561462E-02  0.1162444E+00
         -1   -1    0    0    0  501 -0.00000000000E+00  0.00000000000E+00  0.13832086147E+02  0.13832086147E+02  0.00000000000E+00 0.  1.
          1   -1    0    0  501    0  0.00000000000E+00 -0.00000000000E+00 -0.34583314136E+04  0.34583314136E+04  0.00000000000E+00 0. -1.
         25    2    1    2    0    0 -0.70497086081E+02  0.14920561751E+03 -0.25492649733E+04  0.25576614485E+04  0.12509206870E+03 0.  0.
          5    1    3    3  502    0  0.19349949950E+02  0.15753798811E+02 -0.94630332598E+03  0.94664146323E+03  0.41800000000E+01 0.  1.
         -5    1    3    3    0  502 -0.89847036030E+02  0.13345181870E+03 -0.16029616473E+04  0.16110199853E+04  0.41800000000E+01 0.  1.
        -11    1    1    2    0    0  0.59716098868E+01 -0.10873882949E+03 -0.46539258371E+03  0.47796448627E+03  0.00000000000E+00 0.  1.
         11    1    1    2    0    0  0.64525476194E+02 -0.40466788028E+02 -0.42984177043E+03  0.43653756495E+03  0.00000000000E+00 0. -1.
</event>
<event>
 7    1  0.2654507E-009  0.9968761E+02  0.7561462E-02  0.1280954E+00
         -2   -1    0    0    0  501 -0.00000000000E+00  0.00000000000E+00  0.21780690283E+02  0.21780690283E+02  0.00000000000E+00 0.  1.
          2   -1    0    0  501    0  0.00000000000E+00 -0.00000000000E+00 -0.10158938959E+04  0.10158938959E+04  0.00000000000E+00 0. -1.
         25    2    1    2    0    0 -0.13637952040E+02  0.37808626222E+02 -0.86449626426E+03  0.87442408096E+03  0.12509275161E+03 0.  0.
          5    1    3    3  502    0 -0.64384586323E+02 -0.34195900971E+01 -0.36880298095E+03  0.37441979076E+03  0.41800000000E+01 0. -1.
         -5    1    3    3    0  502  0.50746634283E+02  0.41228216319E+02 -0.49569328330E+03  0.50000429021E+03  0.41800000000E+01 0. -1.
        -11    1    1    2    0    0  0.35349580801E+02 -0.17197725796E+02 -0.12729176378E+03  0.13322367568E+03  0.00000000000E+00 0. -1.
         11    1    1    2    0    0 -0.21711628761E+02 -0.20610900426E+02 -0.23251775533E+01  0.30026829511E+02  0.00000000000E+00 0.  1.
</event>
<event>
 7    1  0.2380582E-009  0.9747689E+02  0.7561462E-02  0.1285693E+00
          1   -1    0    0  501    0  0.00000000000E+00  0.00000000000E+00  0.11631675076E+03  0.11631675076E+03  0.00000000000E+00 0. -1.
         -1   -1    0    0    0  501 -0.00000000000E+00 -0.00000000000E+00 -0.12852390041E+03  0.12852390041E+03  0.00000000000E+00 0.  1.
         25    2    1    2    0    0  0.62086080443E+01 -0.40601531412E+01 -0.58747686308E+02  0.13840627194E+03  0.12509985535E+03 0.  0.
          5    1    3    3  502    0  0.24105197447E+02 -0.53245491562E+02  0.13365881112E+01  0.58612300615E+02  0.41800000000E+01 0. -1.
         -5    1    3    3    0  502 -0.17896589402E+02  0.49185338421E+02 -0.60084274419E+02  0.79793971328E+02  0.41800000000E+01 0. -1.
        -11    1    1    2    0    0  0.26007230422E+02  0.31979423368E+02 -0.26950551475E+01  0.41307661219E+02  0.00000000000E+00 0.  1.
         11    1    1    2    0    0 -0.32215838467E+02 -0.27919270226E+02  0.49235591807E+02  0.65126718009E+02  0.00000000000E+00 0. -1.
</event>
<event>
 7    1  0.2380582E-009  0.9851937E+02  0.7561462E-02  0.1283441E+00
         -2   -1    0    0    0  501 -0.00000000000E+00  0.00000000000E+00  0.31601885292E+02  0.31601885292E+02  0.00000000000E+00 0.  1.
          2   -1    0    0  501    0  0.00000000000E+00 -0.00000000000E+00 -0.62248893966E+03  0.62248893966E+03  0.00000000000E+00 0. -1.
         25    2    1    2    0    0  0.73662472622E+02  0.20700098407E+02 -0.42151026026E+03  0.44628814134E+03  0.12509017404E+03 0.  0.
          5    1    3    3  502    0  0.29061040189E+02  0.28507404240E+02 -0.38711699625E+03  0.38927401319E+03  0.41800000000E+01 0. -1.
         -5    1    3    3    0  502  0.44601432433E+02 -0.78073058328E+01 -0.34393264010E+02  0.57014128150E+02  0.41800000000E+01 0. -1.
        -11    1    1    2    0    0 -0.52630853393E+02  0.26532292090E+02 -0.48490293886E+02  0.76323507870E+02  0.00000000000E+00 0.  1.
         11    1    1    2    0    0 -0.21031619228E+02 -0.47232390498E+02 -0.12088650022E+03  0.13147917574E+03  0.00000000000E+00 0. -1.
</event>
<event>
 7    1  0.2380582E-009  0.1325333E+03  0.7561462E-02  0.1223744E+00
         -2   -1    0    0    0  501 -0.00000000000E+00  0.00000000000E+00  0.23260162344E+02  0.23260162344E+02  0.00000000000E+00 0. -1.
          2   -1    0    0  501    0  0.00000000000E+00 -0.00000000000E+00 -0.84516320315E+03  0.84516320315E+03  0.00000000000E+00 0.  1.
         25    2    1    2    0    0 -0.53801528830E+02 -0.62688734012E+02 -0.51197519278E+03  0.53346999242E+03  0.12508858025E+03 0.  0.
          5    1    3    3  502    0  0.13170013083E+02  0.27945578998E+02 -0.59723764731E+02  0.67370654619E+02  0.41800000000E+01 0. -1.
         -5    1    3    3    0  502 -0.66971541913E+02 -0.90634313010E+02 -0.45225142805E+03  0.46609933780E+03  0.41800000000E+01 0. -1.
        -11    1    1    2    0    0 -0.13352032497E+02  0.51299144342E+02 -0.18755391278E+03  0.19490087014E+03  0.00000000000E+00 0.  1.
         11    1    1    2    0    0  0.67153561327E+02  0.11389589669E+02 -0.12237393524E+03  0.14005250293E+03  0.00000000000E+00 0. -1.
</event>
<event>
 7    1  0.2380582E-009  0.1179447E+03  0.7561462E-02  0.1246527E+00
         -2   -1    0    0    0  501 -0.00000000000E+00  0.00000000000E+00  0.21438500054E+02  0.21438500054E+02  0.00000000000E+00 0.  1.
          2   -1    0    0  501    0  0.00000000000E+00 -0.00000000000E+00 -0.65934322981E+03  0.65934322981E+03  0.00000000000E+00 0. -1.
         25    2    1    2    0    0  0.11044917243E+02  0.46923035422E+02 -0.38293309398E+03  0.40572104097E+03  0.12509215469E+03 0.  0.
          5    1    3    3  502    0 -0.94592562532E+01  0.87643570599E+02 -0.25580196230E+03  0.27059746730E+03  0.41800000000E+01 0.  1.
         -5    1    3    3    0  502  0.20504173497E+02 -0.40720535177E+02 -0.12713113169E+03  0.13512357366E+03  0.41800000000E+01 0.  1.
        -11    1    1    2    0    0  0.45035715021E+01  0.26461265039E+02 -0.88228251168E+02  0.92220957531E+02  0.00000000000E+00 0. -1.
         11    1    1    2    0    0 -0.15548488746E+02 -0.73384300461E+02 -0.16674338460E+03  0.18283973137E+03  0.00000000000E+00 0.  1.
</event>
<event>
 7    1  0.2380582E-009  0.9364946E+02  0.7561462E-02  0.1294247E+00
          2   -1    0    0  501    0  0.00000000000E+00  0.00000000000E+00  0.17301393551E+04  0.17301393551E+04  0.00000000000E+00 0. -1.
         -2   -1    0    0    0  501 -0.00000000000E+00 -0.00000000000E+00 -0.96734267221E+01  0.96734267221E+01  0.00000000000E+00 0.  1.
         25    2    1    2    0    0  0.11337489315E+02  0.19894016223E+02  0.14133598299E+04  0.14190692821E+04  0.12508920074E+03 0.  0.
          5    1    3    3  502    0 -0.85265372980E+01  0.57860008455E+02  0.35305204967E+03  0.35788783801E+03  0.41800000000E+01 0.  1.
         -5    1    3    3    0  502  0.19864026613E+02 -0.37965992232E+02  0.10603077802E+04  0.10611814441E+04  0.41800000000E+01 0.  1.
        -11    1    1    2    0    0 -0.46761185109E+02 -0.18105914399E+02  0.23616430591E+03  0.24142910337E+03  0.00000000000E+00 0. -1.
         11    1    1    2    0    0  0.35423695794E+02 -0.17881018232E+01  0.70941792549E+02  0.79314396310E+02  0.00000000000E+00 0.  1.
</event>
<event>
 7    1  0.2380582E-009  0.8839567E+02  0.7561462E-02  0.1306784E+00
          2   -1    0    0  501    0  0.00000000000E+00  0.00000000000E+00  0.37797661417E+02  0.37797661417E+02  0.00000000000E+00 0.  1.
         -2   -1    0    0    0  501 -0.00000000000E+00 -0.00000000000E+00 -0.50292233689E+03  0.50292233689E+03  0.00000000000E+00 0. -1.
         25    2    1    2    0    0 -0.10459660785E+02  0.56200961181E+02 -0.37417013514E+03  0.39864604597E+03  0.12508967741E+03 0.  0.
          5    1    3    3  502    0  0.63346016688E+01 -0.15790564217E+01  0.83535313549E+01  0.11396248663E+02  0.41800000000E+01 0.  1.
         -5    1    3    3    0  502 -0.16794262454E+02  0.57780017603E+02 -0.38252366649E+03  0.38724979731E+03  0.41800000000E+01 0.  1.
        -11    1    1    2    0    0 -0.34203522367E+01 -0.80589198819E+02 -0.72767047060E+02  0.10863406884E+03  0.00000000000E+00 0. -1.
         11    1    1    2    0    0  0.13880013022E+02  0.24388237638E+02 -0.18187493273E+02  0.33439883494E+02  0.00000000000E+00 0.  1.
</event>
<event>
 7    1  0.2380582E-009  0.1636912E+03  0.7561462E-02  0.1184591E+00
          2   -1    0    0  501    0  0.00000000000E+00  0.00000000000E+00  0.34444823101E+03  0.34444823101E+03  0.00000000000E+00 0. -1.
         -2   -1    0    0    0  501 -0.00000000000E+00 -0.00000000000E+00 -0.12502708350E+03  0.12502708350E+03  0.00000000000E+00 0.  1.
         25    2    1    2    0    0 -0.99444851505E+01  0.15302710641E+03  0.14011821779E+02  0.19838955868E+03  0.12508356311E+03 0.  0.
          5    1    3    3  502    0  0.65929295398E+01  0.26463351308E+02 -0.48808370847E+02  0.56066970197E+02  0.41800000000E+01 0.  1.
         -5    1    3    3    0  502 -0.16537414690E+02  0.12656375510E+03  0.62820192625E+02  0.14232258848E+03  0.41800000000E+01 0.  1.
        -11    1    1    2    0    0 -0.24679585652E+02 -0.12535169763E+03  0.12211692912E+03  0.17673334270E+03  0.00000000000E+00 0. -1.
         11    1    1    2    0    0  0.34624070803E+02 -0.27675408779E+02  0.83292396615E+02  0.94352413132E+02  0.00000000000E+00 0.  1.
</event>
<event>
 7    1  0.2380582E-009  0.1631840E+03  0.7561462E-02  0.1185148E+00
         -2   -1    0    0    0  501 -0.00000000000E+00  0.00000000000E+00  0.53628124898E+02  0.53628124898E+02  0.00000000000E+00 0.  1.
          2   -1    0    0  501    0  0.00000000000E+00 -0.00000000000E+00 -0.81346602245E+03  0.81346602245E+03  0.00000000000E+00 0. -1.
         25    2    1    2    0    0  0.11570444566E+03 -0.85755429423E+02 -0.17983939693E+03  0.26216552389E+03  0.12508813217E+03 0.  0.
          5    1    3    3  502    0  0.75046854669E+02 -0.85212383658E+02 -0.18876722459E+03  0.22032639017E+03  0.41800000000E+01 0. -1.
         -5    1    3    3    0  502  0.40657590986E+02 -0.54304576475E+00  0.89278276694E+01  0.41839133719E+02  0.41800000000E+01 0. -1.
        -11    1    1    2    0    0 -0.23241514164E+02  0.75311871816E+02 -0.26845008046E+03  0.27978114968E+03  0.00000000000E+00 0. -1.
         11    1    1    2    0    0 -0.92462931492E+02  0.10443557607E+02 -0.31154842016E+03  0.32514747377E+03  0.00000000000E+00 0.  1.
</event>
<event>
 7    1  0.2380582E-009  0.1413862E+03  0.7561462E-02  0.1211476E+00
          2   -1    0    0  501    0  0.00000000000E+00  0.00000000000E+00  0.10557209746E+04  0.10557209746E+04  0.00000000000E+00 0. -1.
         -2   -1    0    0    0  501 -0.00000000000E+00 -0.00000000000E+00 -0.29091244051E+02  0.29091244051E+02  0.00000000000E+00 0.  1.
         25    2    1    2    0    0  0.18200763448E+02  0.11830207522E+03  0.75942046116E+03  0.77890539617E+03  0.12509008977E+03 0.  0.
          5    1    3    3  502    0  0.44710443127E+02  0.90521556510E+02  0.27551329060E+03  0.29345906293E+03  0.41800000000E+01 0. -1.
         -5    1    3    3    0  502 -0.26509679679E+02  0.27780518709E+02  0.48390717056E+03  0.48544633324E+03  0.41800000000E+01 0. -1.
        -11    1    1    2    0    0 -0.27388781999E+02 -0.31376447225E+01  0.23595662045E+02  0.36286987491E+02  0.00000000000E+00 0.  1.
         11    1    1    2    0    0  0.91880185515E+01 -0.11516443050E+03  0.24361360732E+03  0.26961983497E+03  0.00000000000E+00 0. -1.
</event>
<event>
 7    1  0.2380582E-009  0.7199592E+02  0.7561462E-02  0.1353434E+00
         -1   -1    0    0    0  501 -0.00000000000E+00  0.00000000000E+00  0.11498519263E+03  0.11498519263E+03  0.00000000000E+00 0.  1.
          1   -1    0    0  501    0  0.00000000000E+00 -0.00000000000E+00 -0.12627710649E+03  0.12627710649E+03  0.00000000000E+00 0. -1.
         25    2    1    2    0    0  0.26404950504E+02  0.43818084390E+02  0.15500514956E+02  0.13603340999E+03  0.12509027436E+03 0.  0.
          5    1    3    3  502    0  0.11249722943E+02 -0.30352938086E+01  0.64951513217E+02  0.66120652930E+02  0.41800000000E+01 0. -1.
         -5    1    3    3    0  502  0.15155227561E+02  0.46853378199E+02 -0.49450998261E+02  0.69912757062E+02  0.41800000000E+01 0. -1.
        -11    1    1    2    0    0 -0.47474670054E+02 -0.23705602130E+02 -0.46092144380E+02  0.70287165561E+02  0.00000000000E+00 0. -1.
         11    1    1    2    0    0  0.21069719551E+02 -0.20112482260E+02  0.19299715570E+02  0.34941723565E+02  0.00000000000E+00 0.  1.
</event>
<event>
 7    1  0.2380582E-009  0.1499629E+03  0.7561462E-02  0.1200519E+00
         -3   -1    0    0    0  501 -0.00000000000E+00  0.00000000000E+00  0.41506588949E+03  0.41506588949E+03  0.00000000000E+00 0.  1.
          3   -1    0    0  501    0  0.00000000000E+00 -0.00000000000E+00 -0.68152577332E+02  0.68152577332E+02  0.00000000000E+00 0. -1.
         25    2    1    2    0    0  0.11540329850E+03  0.17690497964E+02  0.25954465402E+03  0.31087412319E+03  0.12509363699E+03 0.  0.
          5    1    3    3  502    0 -0.51181937046E+01  0.46578952167E+02  0.67727324856E+02  0.82463674572E+02  0.41800000000E+01 0.  1.
         -5    1    3    3    0  502  0.12052149221E+03 -0.28888454203E+02  0.19181732916E+03  0.22841044862E+03  0.41800000000E+01 0.  1.
        -11    1    1    2    0    0 -0.40911582887E+02 -0.33316872323E+02 -0.46039325761E+01  0.52961946630E+02  0.00000000000E+00 0. -1.
         11    1    1    2    0    0 -0.74491715617E+02  0.15626374359E+02  0.91972590715E+02  0.11938239700E+03  0.00000000000E+00 0.  1.
</event>
<event>
 7    1  0.2380582E-009  0.9453319E+02  0.7561462E-02  0.1292231E+00
          2   -1    0    0  501    0  0.00000000000E+00  0.00000000000E+00  0.36533686364E+03  0.36533686364E+03  0.00000000000E+00 0. -1.
         -2   -1    0    0    0  501 -0.00000000000E+00 -0.00000000000E+00 -0.38963868231E+02  0.38963868231E+02  0.00000000000E+00 0.  1.
         25    2    1    2    0    0  0.46045760740E+01  0.36034046549E+02  0.24241719911E+03  0.27519629129E+03  0.12508895110E+03 0.  0.
          5    1    3    3  502    0 -0.40751877498E+02  0.46119188539E+01  0.19666493265E+02  0.45675252298E+02  0.41800000000E+01 0. -1.
         -5    1    3    3    0  502  0.45356453572E+02  0.31422127695E+02  0.22275070584E+03  0.22952103900E+03  0.41800000000E+01 0. -1.
        -11    1    1    2    0    0 -0.43993323421E+02 -0.28458644332E+02  0.68216643894E+02  0.86016378946E+02  0.00000000000E+00 0. -1.
         11    1    1    2    0    0  0.39388747347E+02 -0.75754022174E+01  0.15739152406E+02  0.43088061627E+02  0.00000000000E+00 0.  1.
</event>
<event>
 7    1  0.2380582E-009  0.1458783E+03  0.7561462E-02  0.1205631E+00
          2   -1    0    0  501    0  0.00000000000E+00  0.00000000000E+00  0.22364624326E+03  0.22364624326E+03  0.00000000000E+00 0. -1.
         -2   -1    0    0    0  501 -0.00000000000E+00 -0.00000000000E+00 -0.10606880255E+03  0.10606880255E+03  0.00000000000E+00 0.  1.
         25    2    1    2    0    0  0.51149602536E+02  0.96744001868E+02  0.33783041174E+02  0.16960004182E+03  0.12508875480E+03 0.  0.
          5    1    3    3  502    0  0.73294853496E+02  0.82096711787E+01  0.60170258154E+01  0.74116200993E+02  0.41800000000E+01 0.  1.
         -5    1    3    3    0  502 -0.22145250961E+02  0.88534330689E+02  0.27766015359E+02  0.95483840830E+02  0.41800000000E+01 0.  1.
        -11    1    1    2    0    0  0.15082489119E+02 -0.21827304709E+02 -0.42652105074E+01  0.26872006429E+02  0.00000000000E+00 0.  1.
         11    1    1    2    0    0 -0.66232091654E+02 -0.74916697159E+02  0.88059610046E+02  0.13324299756E+03  0.00000000000E+00 0. -1.
</event>
<event>
 7    1  0.2380582E-009  0.8039041E+02  0.7561462E-02  0.1327947E+00
         -2   -1    0    0    0  501 -0.00000000000E+00  0.00000000000E+00  0.52076660909E+02  0.52076660909E+02  0.00000000000E+00 0.  1.
          2   -1    0    0  501    0  0.00000000000E+00 -0.00000000000E+00 -0.21830203441E+03  0.21830203441E+03  0.00000000000E+00 0. -1.
         25    2    1    2    0    0 -0.33105918588E+01  0.15428487303E+02 -0.97164543649E+02  0.15917900658E+03  0.12509200356E+03 0.  0.
          5    1    3    3  502    0 -0.51836725631E+02  0.24423057847E+02 -0.91402878623E+01  0.58176878061E+02  0.41800000000E+01 0.  1.
         -5    1    3    3    0  502  0.48526133772E+02 -0.89945705435E+01 -0.88024255787E+02  0.10100212852E+03  0.41800000000E+01 0.  1.
        -11    1    1    2    0    0  0.26264249864E+02 -0.16149524305E+02  0.71108300858E+01  0.31641457942E+02  0.00000000000E+00 0.  1.
         11    1    1    2    0    0 -0.22953658005E+02  0.72103700120E+00 -0.76171659933E+02  0.79558230794E+02  0.00000000000E+00 0. -1.
</event>
<event>
 7    1  0.2380582E-009  0.8983734E+02  0.7561462E-02  0.1303246E+00
          1   -1    0    0  501    0  0.00000000000E+00  0.00000000000E+00  0.17311595588E+03  0.17311595588E+03  0.00000000000E+00 0. -1.
         -1   -1    0    0    0  501 -0.00000000000E+00 -0.00000000000E+00 -0.10552348905E+03  0.10552348905E+03  0.00000000000E+00 0.  1.
         25    2    1    2    0    0  0.34317861660E+02  0.55329847744E+01  0.11090217817E+03  0.17076069414E+03  0.12510632274E+03 0.  0.
          5    1    3    3  502    0  0.14479733037E+02  0.43730605648E+02 -0.55043881262E+01  0.46581103763E+02  0.41800000000E+01 0. -1.
         -5    1    3    3    0  502  0.19838128623E+02 -0.38197620874E+02  0.11640656630E+03  0.12417959037E+03  0.41800000000E+01 0. -1.
        -11    1    1    2    0    0  0.13273965019E+02 -0.32759124012E+02 -0.39368848233E+02  0.52908076553E+02  0.00000000000E+00 0.  1.
         11    1    1    2    0    0 -0.47591826679E+02  0.27226139237E+02 -0.39408631038E+01  0.54970674240E+02  0.00000000000E+00 0. -1.
</event>
<event>
 7    1  0.2380582E-009  0.8885566E+02  0.7561462E-02  0.1305647E+00
          1   -1    0    0  501    0  0.00000000000E+00  0.00000000000E+00  0.27378112158E+03  0.27378112158E+03  0.00000000000E+00 0. -1.
         -1   -1    0    0    0  501 -0.00000000000E+00 -0.00000000000E+00 -0.72345245795E+02  0.72345245795E+02  0.00000000000E+00 0.  1.
         25    2    1    2    0    0 -0.16935114525E+02 -0.35523289141E+02  0.20873423310E+03  0.24650764606E+03  0.12508931738E+03 0.  0.
          5    1    3    3  502    0 -0.34539865905E+02 -0.55743546805E+02  0.20929500728E+03  0.21936776841E+03  0.41800000000E+01 0.  1.
         -5    1    3    3    0  502  0.17604751381E+02  0.20220257664E+02 -0.56077417603E+00  0.27139877650E+02  0.41800000000E+01 0.  1.
        -11    1    1    2    0    0  0.24590598359E+02 -0.18205071243E+02  0.22244488782E+02  0.37827760016E+02  0.00000000000E+00 0. -1.
         11    1    1    2    0    0 -0.76554838343E+01  0.53728360384E+02 -0.29542846099E+02  0.61790961296E+02  0.00000000000E+00 0.  1.
</event>
<event>
 7    1  0.2380582E-009  0.1628007E+03  0.7561462E-02  0.1185571E+00
         -3   -1    0    0    0  501 -0.00000000000E+00  0.00000000000E+00  0.39706448470E+02  0.39706448470E+02  0.00000000000E+00 0.  1.
          3   -1    0    0  501    0  0.00000000000E+00 -0.00000000000E+00 -0.91795220459E+03  0.91795220459E+03  0.00000000000E+00 0. -1.
         25    2    1    2    0    0  0.10855182641E+03 -0.10965639817E+03 -0.39772871246E+03  0.44457186548E+03  0.12509192697E+03 0.  0.
          5    1    3    3  502    0  0.55806772931E+02 -0.76434419106E+02 -0.35849139064E+03  0.37079666381E+03  0.41800000000E+01 0. -1.
         -5    1    3    3    0  502  0.52745053474E+02 -0.33221979061E+02 -0.39237321817E+02  0.73775201674E+02  0.41800000000E+01 0. -1.
        -11    1    1    2    0    0 -0.23460448699E+02  0.71293802847E+02 -0.12761747977E+03  0.14805208583E+03  0.00000000000E+00 0.  1.
         11    1    1    2    0    0 -0.85091377706E+02  0.38362595320E+02 -0.35289956389E+03  0.36503470174E+03  0.00000000000E+00 0. -1.
</event>
<event>
 7    1  0.2380582E-009  0.8689668E+02  0.7561462E-02  0.1310546E+00
         -3   -1    0    0    0  501 -0.00000000000E+00  0.00000000000E+00  0.82623469571E+02  0.82623469571E+02  0.00000000000E+00 0.  1.
          3   -1    0    0  501    0  0.00000000000E+00 -0.00000000000E+00 -0.15473453194E+03  0.15473453194E+03  0.00000000000E+00 0. -1.
         25    2    1    2    0    0 -0.17717074231E+02  0.19904503538E+02 -0.55025910692E+02  0.13923440309E+03  0.12509310204E+03 0.  0.
          5    1    3    3  502    0  0.20759844396E+02 -0.14301192114E+02 -0.78458783409E+02  0.82515140001E+02  0.41800000000E+01 0. -1.
         -5    1    3    3    0  502 -0.38476918627E+02  0.34205695652E+02  0.23432872717E+02  0.56719263094E+02  0.41800000000E+01 0. -1.
        -11    1    1    2    0    0 -0.35915364163E+02 -0.23360168604E+02 -0.62295037654E+01  0.43294544429E+02  0.00000000000E+00 0. -1.
         11    1    1    2    0    0  0.53632438394E+02  0.34556650660E+01 -0.10855647907E+02  0.54829053983E+02  0.00000000000E+00 0.  1.
</event>
<event>
 7    1  0.2380582E-009  0.5634125E+02  0.7561462E-02  0.1413860E+00
         -2   -1    0    0    0  501 -0.00000000000E+00  0.00000000000E+00  0.14380456650E+02  0.14380456650E+02  0.00000000000E+00 0.  1.
          2   -1    0    0  501    0  0.00000000000E+00 -0.00000000000E+00 -0.88969382029E+03  0.88969382029E+03  0.00000000000E+00 0. -1.
         25    2    1    2    0    0 -0.10532616779E+02 -0.11488597722E+02 -0.61436306830E+03  0.62716222948E+03  0.12509020148E+03 0.  0.
          5    1    3    3  502    0 -0.36803973535E+01  0.59519647062E+01 -0.60627401846E+03  0.60632881267E+03  0.41800000000E+01 0.  1.
         -5    1    3    3    0  502 -0.68522194253E+01 -0.17440562428E+02 -0.80890498327E+01  0.20833416812E+02  0.41800000000E+01 0.  1.
        -11    1    1    2    0    0  0.16927785872E+02 -0.34749888425E+02 -0.66318083816E+02  0.76760620900E+02  0.00000000000E+00 0. -1.
         11    1    1    2    0    0 -0.63951690928E+01  0.46238486146E+02 -0.19463221153E+03  0.20015142656E+03  0.00000000000E+00 0.  1.
</event>
<event>
 7    1  0.2380582E-009  0.1214437E+03  0.7561462E-02  0.1240734E+00
          1   -1    0    0  501    0  0.00000000000E+00  0.00000000000E+00  0.29676012993E+03  0.29676012993E+03  0.00000000000E+00 0. -1.
         -1   -1    0    0    0  501 -0.00000000000E+00 -0.00000000000E+00 -0.77436082617E+02  0.77436082617E+02  0.00000000000E+00 0.  1.
         25    2    1    2    0    0  0.38038870178E+02  0.64959155519E+02  0.21048588214E+03  0.25615944391E+03  0.12508679622E+03 0.  0.
          5    1    3    3  502    0  0.70686747124E+02  0.28342967150E+02  0.18629191520E+03  0.20130099372E+03  0.41800000000E+01 0. -1.
         -5    1    3    3    0  502 -0.32647876947E+02  0.36616188369E+02  0.24193966947E+02  0.54858450182E+02  0.41800000000E+01 0. -1.
        -11    1    1    2    0    0  0.56559032157E+01 -0.72772866061E+02  0.12375168052E+01  0.73002813122E+02  0.00000000000E+00 0.  1.
         11    1    1    2    0    0 -0.43694773393E+02  0.78137105419E+01  0.76006483659E+01  0.45033955521E+02  0.00000000000E+00 0. -1.
</event>
<event>
 7    1  0.2380582E-009  0.8020662E+02  0.7561462E-02  0.1328466E+00
         -1   -1    0    0    0  501 -0.00000000000E+00  0.00000000000E+00  0.42930933532E+02  0.42930933532E+02  0.00000000000E+00 0.  1.
          1   -1    0    0  501    0  0.00000000000E+00 -0.00000000000E+00 -0.34039599323E+03  0.34039599323E+03  0.00000000000E+00 0. -1.
         25    2    1    2    0    0  0.10115134708E+02 -0.10737140720E+02 -0.25164732242E+03  0.28140916195E+03  0.12508852627E+03 0.  0.
          5    1    3    3  502    0  0.79980541579E+01  0.37116148063E+02 -0.16866816597E+02  0.41755708824E+02  0.41800000000E+01 0.  1.
         -5    1    3    3    0  502  0.21170805497E+01 -0.47853288783E+02 -0.23478050583E+03  0.23965345312E+03  0.41800000000E+01 0.  1.
        -11    1    1    2    0    0 -0.41128063748E+02  0.12739969456E+02  0.39573146817E+01  0.43237539117E+02  0.00000000000E+00 0.  1.
         11    1    1    2    0    0  0.31012929040E+02 -0.20028287355E+01 -0.49775051955E+02  0.58680225696E+02  0.00000000000E+00 0. -1.
</event>
<event>
 7    1  0.2380582E-009  0.1451579E+03  0.7561462E-02  0.1206552E+00
         -1   -1    0    0    0  501 -0.00000000000E+00  0.00000000000E+00  0.13393811689E+04  0.13393811689E+04  0.00000000000E+00 0.  1.
          1   -1    0    0  501    0  0.00000000000E+00 -0.00000000000E+00 -0.21728007600E+02  0.21728007600E+02  0.00000000000E+00 0. -1.
         25    2    1    2    0    0 -0.26267130344E+01 -0.10855140557E+03  0.99051928056E+03  0.10042740428E+04  0.12509036987E+03 0.  0.
          5    1    3    3  502    0  0.12668392406E+02 -0.12491462006E+03  0.59591969047E+03  0.60901715933E+03  0.41800000000E+01 0. -1.
         -5    1    3    3    0  502 -0.15295105440E+02  0.16363214493E+02  0.39459959009E+03  0.39525688348E+03  0.41800000000E+01 0. -1.
        -11    1    1    2    0    0 -0.25707329212E+02  0.11055144085E+03  0.27417622789E+03  0.29674078215E+03  0.00000000000E+00 0. -1.
         11    1    1    2    0    0  0.28334042247E+02 -0.20000352742E+01  0.52957652796E+02  0.60094351488E+02  0.00000000000E+00 0.  1.
</event>
<event>
 7    1  0.2380582E-009  0.1119513E+03  0.7561462E-02  0.1256998E+00
         -2   -1    0    0    0  501 -0.00000000000E+00  0.00000000000E+00  0.25030744648E+03  0.25030744648E+03  0.00000000000E+00 0.  1.
          2   -1    0    0  501    0  0.00000000000E+00 -0.00000000000E+00 -0.65024440603E+02  0.65024440603E+02  0.00000000000E+00 0. -1.
         25    2    1    2    0    0  0.76097810590E+01  0.52789618610E+02  0.15471303669E+03  0.20598065370E+03  0.12508898182E+03 0.  0.
          5    1    3    3  502    0 -0.51815172060E+02  0.14012913270E+02  0.10871225555E+03  0.12131364598E+03  0.41800000000E+01 0.  1.
         -5    1    3    3    0  502  0.59424953119E+02  0.38776705340E+02  0.46000781146E+02  0.84667007720E+02  0.41800000000E+01 0.  1.
        -11    1    1    2    0    0 -0.23067844448E+02  0.16261162062E+02 -0.72205686127E+01  0.29132240734E+02  0.00000000000E+00 0. -1.
         11    1    1    2    0    0  0.15458063389E+02 -0.69050780671E+02  0.37790537794E+02  0.80218992650E+02  0.00000000000E+00 0.  1.
</event>
<event>
 7    1  0.2568130E-009  0.9079108E+02  0.7561462E-02  0.1300947E+00
         -1   -1    0    0    0  501 -0.00000000000E+00  0.00000000000E+00  0.33211152477E+02  0.33211152477E+02  0.00000000000E+00 0.  1.
          1   -1    0    0  501    0  0.00000000000E+00 -0.00000000000E+00 -0.65790463656E+03  0.65790463656E+03  0.00000000000E+00 0. -1.
         25    2    1    2    0    0 -0.57392805026E+02 -0.19397369352E+01 -0.53127306108E+03  0.54881344273E+03  0.12508969919E+03 0.  0.
          5    1    3    3  502    0 -0.58595591418E+02 -0.31438753449E+02 -0.12677069358E+03  0.14321354581E+03  0.41800000000E+01 0.  1.
         -5    1    3    3    0  502  0.12027863913E+01  0.29499016514E+02 -0.40450236750E+03  0.40559989692E+03  0.41800000000E+01 0.  1.
        -11    1    1    2    0    0  0.25931223209E+02 -0.30440650117E+02 -0.16438447386E+01  0.40022040705E+02  0.00000000000E+00 0.  1.
         11    1    1    2    0    0  0.31461581818E+02  0.32380387052E+02 -0.91776578264E+02  0.10228030560E+03  0.00000000000E+00 0. -1.
</event>
<event>
 7    1  0.2380582E-009  0.2786187E+03  0.7561462E-02  0.1096446E+00
          1   -1    0    0  501    0  0.00000000000E+00  0.00000000000E+00  0.37936815273E+02  0.37936815273E+02  0.00000000000E+00 0. -1.
         -1   -1    0    0    0  501 -0.00000000000E+00 -0.00000000000E+00 -0.22461138760E+04  0.22461138760E+04  0.00000000000E+00 0.  1.
         25    2    1    2    0    0  0.13105885580E+03  0.23676138752E+03 -0.11138280252E+04  0.11530363927E+04  0.12509066585E+03 0.  0.
          5    1    3    3  502    0  0.11295326022E+03  0.12817322093E+03 -0.85209924827E+03  0.86906697950E+03  0.41800000000E+01 0.  1.
         -5    1    3    3    0  502  0.18105595575E+02  0.10858816659E+03 -0.26172877697E+03  0.28396941315E+03  0.41800000000E+01 0.  1.
        -11    1    1    2    0    0 -0.27132909230E+02 -0.10453294301E+03 -0.57685442396E+03  0.58687678211E+03  0.00000000000E+00 0.  1.
         11    1    1    2    0    0 -0.10392594657E+03 -0.13222844451E+03 -0.51749461152E+03  0.54413751650E+03  0.00000000000E+00 0. -1.
</event>
<event>
 7    1  0.2380582E-009  0.1059106E+03  0.7561462E-02  0.1268336E+00
         -1   -1    0    0    0  501 -0.00000000000E+00  0.00000000000E+00  0.24740047242E+02  0.24740047242E+02  0.00000000000E+00 0.  1.
          1   -1    0    0  501    0  0.00000000000E+00 -0.00000000000E+00 -0.51578618587E+03  0.51578618587E+03  0.00000000000E+00 0. -1.
         25    2    1    2    0    0  0.43565907914E+01 -0.31418867804E+02 -0.29694048453E+03  0.32377042126E+03  0.12509000438E+03 0.  0.
          5    1    3    3  502    0 -0.51738784647E+02 -0.21690669308E+01 -0.64407516705E+02  0.82749062208E+02  0.41800000000E+01 0. -1.
         -5    1    3    3    0  502  0.56095375439E+02 -0.29249800873E+02 -0.23253296782E+03  0.24102135906E+03  0.41800000000E+01 0. -1.
        -11    1    1    2    0    0  0.39698233888E+02 -0.40562963495E+01 -0.79919256467E+02  0.89327995993E+02  0.00000000000E+00 0.  1.
         11    1    1    2    0    0 -0.44054824680E+02  0.35475164153E+02 -0.11418639763E+03  0.12742781585E+03  0.00000000000E+00 0. -1.
</event>
<event>
 7    1  0.2380582E-009  0.9563820E+02  0.7561462E-02  0.1289745E+00
         -2   -1    0    0    0  501 -0.00000000000E+00  0.00000000000E+00  0.61073232353E+03  0.61073232353E+03  0.00000000000E+00 0.  1.
          2   -1    0    0  501    0  0.00000000000E+00 -0.00000000000E+00 -0.29381096052E+02  0.29381096052E+02  0.00000000000E+00 0. -1.
         25    2    1    2    0    0  0.98148684603E+01  0.71805145080E+02  0.25150772214E+03  0.29009674770E+03  0.12509068003E+03 0.  0.
          5    1    3    3  502    0  0.43972749900E+02  0.59562979983E+02  0.60714533132E+02  0.95838813910E+02  0.41800000000E+01 0. -1.
         -5    1    3    3    0  502 -0.34157881440E+02  0.12242165096E+02  0.19079318900E+03  0.19425793379E+03  0.41800000000E+01 0. -1.
        -11    1    1    2    0    0 -0.17915042795E+02 -0.15433092547E+02  0.10915619351E+02  0.26043806360E+02  0.00000000000E+00 0. -1.
         11    1    1    2    0    0  0.81001743344E+01 -0.56372052533E+02  0.31892788599E+03  0.32397286552E+03  0.00000000000E+00 0.  1.
</event>
<event>
 7    1  0.2380582E-009  0.1327787E+03  0.7561462E-02  0.1223390E+00
         -2   -1    0    0    0  501 -0.00000000000E+00  0.00000000000E+00  0.25927397180E+02  0.25927397180E+02  0.00000000000E+00 0. -1.
          2   -1    0    0  501    0  0.00000000000E+00 -0.00000000000E+00 -0.81783274696E+03  0.81783274696E+03  0.00000000000E+00 0.  1.
         25    2    1    2    0    0 -0.46984164074E+02  0.64142373995E+02 -0.58884293736E+03  0.60721059591E+03  0.12508775757E+03 0.  0.
          5    1    3    3  502    0 -0.65412052233E+02 -0.12864069226E+02 -0.21883608747E+03  0.22880324830E+03  0.41800000000E+01 0.  1.
         -5    1    3    3    0  502  0.18427888159E+02  0.77006443221E+02 -0.37000684989E+03  0.37840734761E+03  0.41800000000E+01 0.  1.
        -11    1    1    2    0    0  0.61624951397E+02 -0.88311891395E+01 -0.85064956588E+02  0.10541191287E+03  0.00000000000E+00 0. -1.
         11    1    1    2    0    0 -0.14640787323E+02 -0.55311184855E+02 -0.11799745583E+03  0.13113763535E+03  0.00000000000E+00 0.  1.
</event>
<event>
 7    1  0.2380582E-009  0.1339759E+03  0.7561462E-02  0.1221673E+00
          2   -1    0    0  501    0  0.00000000000E+00  0.00000000000E+00  0.38480166110E+03  0.38480166110E+03  0.00000000000E+00 0. -1.
         -2   -1    0    0    0  501 -0.00000000000E+00 -0.00000000000E+00 -0.72526824287E+02  0.72526824287E+02  0.00000000000E+00 0.  1.
         25    2    1    2    0    0 -0.10825187387E+03 -0.65569380500E+02  0.14355036069E+03  0.22862883991E+03  0.12508648420E+03 0.  0.
          5    1    3    3  502    0 -0.92955325136E+02 -0.74581105439E+02  0.16300061969E+03  0.20196462110E+03  0.41800000000E+01 0.  1.
         -5    1    3    3    0  502 -0.15296548730E+02  0.90117249386E+01 -0.19450258999E+02  0.26664218806E+02  0.41800000000E+01 0.  1.
        -11    1    1    2    0    0  0.29577690977E+02  0.25997248587E+01  0.10581999117E+03  0.10990663721E+03  0.00000000000E+00 0. -1.
         11    1    1    2    0    0  0.78674182888E+02  0.62969655642E+02  0.62904484960E+02  0.11879300827E+03  0.00000000000E+00 0.  1.
</event>
<event>
 7    1  0.2380582E-009  0.1386034E+03  0.7561462E-02  0.1215221E+00
         -2   -1    0    0    0  501 -0.00000000000E+00  0.00000000000E+00  0.12168471623E+03  0.12168471623E+03  0.00000000000E+00 0.  1.
          2   -1    0    0  501    0  0.00000000000E+00 -0.00000000000E+00 -0.19004306581E+03  0.19004306581E+03  0.00000000000E+00 0. -1.
         25    2    1    2    0    0  0.31217400678E+02 -0.99287496019E+02 -0.55838244673E+02  0.17204251782E+03  0.12509270721E+03 0.  0.
          5    1    3    3  502    0 -0.24447670112E+02  0.14493722240E+02  0.84347991048E+01  0.29939518937E+02  0.41800000000E+01 0.  1.
         -5    1    3    3    0  502  0.55665070789E+02 -0.11378121826E+03 -0.64273043778E+02  0.14210299888E+03  0.41800000000E+01 0.  1.
        -11    1    1    2    0    0 -0.35733240778E+02  0.17423600891E+02  0.27610594905E+02  0.48402389564E+02  0.00000000000E+00 0.  1.
         11    1    1    2    0    0  0.45158401005E+01  0.81863895128E+02 -0.40130699811E+02  0.91282874652E+02  0.00000000000E+00 0. -1.
</event>
<event>
 7    1  0.2380582E-009  0.3604367E+03  0.7561462E-02  0.1058411E+00
         -2   -1    0    0    0  501 -0.00000000000E+00  0.00000000000E+00  0.16017769417E+03  0.16017769417E+03  0.00000000000E+00 0.  1.
          2   -1    0    0  501    0  0.00000000000E+00 -0.00000000000E+00 -0.86549144837E+03  0.86549144837E+03  0.00000000000E+00 0. -1.
         25    2    1    2    0    0  0.17214812204E+03 -0.30569966066E+03 -0.43778671260E+03  0.57479623565E+03  0.12508496450E+03 0.  0.
          5    1    3    3  502    0 -0.11726224496E+02 -0.23459100250E+02 -0.75740658408E+02  0.80261780827E+02  0.41800000000E+01 0.  1.
         -5    1    3    3    0  502  0.18387434654E+03 -0.28224056041E+03 -0.36204605419E+03  0.49453445483E+03  0.41800000000E+01 0.  1.
        -11    1    1    2    0    0 -0.17808345329E+03  0.28645516706E+03 -0.26787831932E+03  0.43073085916E+03  0.00000000000E+00 0.  1.
         11    1    1    2    0    0  0.59353312453E+01  0.19244493595E+02  0.35127771726E+00  0.20142047730E+02  0.00000000000E+00 0. -1.
</event>
<event>
 7    1  0.2380582E-009  0.1081320E+03  0.7561462E-02  0.1264069E+00
         -1   -1    0    0    0  501 -0.00000000000E+00  0.00000000000E+00  0.14215806224E+02  0.14215806224E+02  0.00000000000E+00 0.  1.
          1   -1    0    0  501    0  0.00000000000E+00 -0.00000000000E+00 -0.92853106037E+03  0.92853106037E+03  0.00000000000E+00 0. -1.
         25    2    1    2    0    0  0.16657900808E+02  0.34328931319E+02 -0.51295053281E+03  0.52935936002E+03  0.12508845569E+03 0.  0.
          5    1    3    3  502    0  0.60518958259E+02 -0.33636014276E+01 -0.37231745825E+03  0.37724212416E+03  0.41800000000E+01 0. -1.
         -5    1    3    3    0  502 -0.43861057451E+02  0.37692532746E+02 -0.14063307456E+03  0.15211723586E+03  0.41800000000E+01 0. -1.
        -11    1    1    2    0    0  0.75902105584E+01 -0.61004990522E+02 -0.21744286415E+03  0.22596596941E+03  0.00000000000E+00 0. -1.
         11    1    1    2    0    0 -0.24248111366E+02  0.26676059204E+02 -0.18392185719E+03  0.18742153716E+03  0.00000000000E+00 0.  1.
</event>
<event>
 7    1  0.2380582E-009  0.1146612E+03  0.7561462E-02  0.1252174E+00
          2   -1    0    0  501    0  0.00000000000E+00  0.00000000000E+00  0.27492080272E+04  0.27492080272E+04  0.00000000000E+00 0.  1.
         -2   -1    0    0    0  501 -0.00000000000E+00 -0.00000000000E+00 -0.11848301245E+02  0.11848301245E+02  0.00000000000E+00 0. -1.
         25    2    1    2    0    0  0.10430196209E+03  0.24097529817E+02  0.22152914911E+04  0.22214018713E+04  0.12510113003E+03 0.  0.
          5    1    3    3  502    0  0.41972539530E+02  0.52442555898E+01  0.17575104335E+03  0.18081785843E+03  0.41800000000E+01 0. -1.
         -5    1    3    3    0  502  0.62329422558E+02  0.18853274227E+02  0.20395404478E+04  0.20405840128E+04  0.41800000000E+01 0. -1.
        -11    1    1    2    0    0 -0.75866552075E+02  0.10710481179E+02  0.43472294110E+03  0.44142324774E+03  0.00000000000E+00 0.  1.
         11    1    1    2    0    0 -0.28435410013E+02 -0.34808010996E+02  0.87345293734E+02  0.98231209448E+02  0.00000000000E+00 0. -1.
</event>
<event>
 7    1  0.2380582E-009  0.1224122E+03  0.7561462E-02  0.1239170E+00
         -1   -1    0    0    0  501 -0.00000000000E+00  0.00000000000E+00  0.25142867391E+02  0.25142867391E+02  0.00000000000E+00 0.  1.
          1   -1    0    0  501    0  0.00000000000E+00 -0.00000000000E+00 -0.10245112577E+04  0.10245112577E+04  0.00000000000E+00 0. -1.
         25    2    1    2    0    0  0.72353478559E+02 -0.44727418799E+02 -0.79907027599E+03  0.81326290272E+03  0.12509066760E+03 0.  0.
          5    1    3    3  502    0  0.44008654933E+01  0.39579455695E+02 -0.15221609779E+03  0.15739477042E+03  0.41800000000E+01 0. -1.
         -5    1    3    3    0  502  0.67952613066E+02 -0.84306874493E+02 -0.64685417820E+03  0.65586813229E+03  0.41800000000E+01 0. -1.
        -11    1    1    2    0    0 -0.50214272668E+02  0.43909960879E+01 -0.27188837426E+02  0.57271169944E+02  0.00000000000E+00 0.  1.
         11    1    1    2    0    0 -0.22139205891E+02  0.40336422711E+02 -0.17310927689E+03  0.17912005242E+03  0.00000000000E+00 0. -1.
</event>
<event>
 7    1  0.2380582E-009  0.1115158E+03  0.7561462E-02  0.1257788E+00
         -2   -1    0    0    0  501 -0.00000000000E+00  0.00000000000E+00  0.82727757869E+02  0.82727757869E+02  0.00000000000E+00 0.  1.
          2   -1    0    0  501    0  0.00000000000E+00 -0.00000000000E+00 -0.25982068279E+03  0.25982068279E+03  0.00000000000E+00 0. -1.
         25    2    1    2    0    0  0.30447478064E+02  0.71564600283E+02 -0.24551606736E+02  0.14932068260E+03  0.12508134922E+03 0.  0.
          5    1    3    3  502    0 -0.39227602219E+02  0.62631347690E+02  0.21607575721E+01  0.74051548010E+02  0.41800000000E+01 0.  1.
         -5    1    3    3    0  502  0.69675080284E+02  0.89332525927E+01 -0.26712364308E+02  0.75269134586E+02  0.41800000000E+01 0.  1.
        -11    1    1    2    0    0 -0.12546275533E+02 -0.44167668331E+02 -0.10017959032E+02  0.46995228042E+02  0.00000000000E+00 0.  1.
         11    1    1    2    0    0 -0.17901202532E+02 -0.27396931952E+02 -0.14252335916E+03  0.14623253003E+03  0.00000000000E+00 0. -1.
</event>
<event>
 7    1  0.2380582E-009  0.9105455E+02  0.7561462E-02  0.1300318E+00
         -3   -1    0    0    0  501 -0.00000000000E+00  0.00000000000E+00  0.32967712167E+02  0.32967712167E+02  0.00000000000E+00 0.  1.
          3   -1    0    0  501    0  0.00000000000E+00 -0.00000000000E+00 -0.42739287887E+03  0.42739287887E+03  0.00000000000E+00 0. -1.
         25    2    1    2    0    0 -0.26026975526E+02 -0.38610932105E+02 -0.20328429691E+03  0.24318613312E+03  0.12508709941E+03 0.  0.
          5    1    3    3  502    0  0.28711398971E+01  0.18056545086E+02 -0.17045108201E+03  0.17147981229E+03  0.41800000000E+01 0.  1.
         -5    1    3    3    0  502 -0.28898115423E+02 -0.56667477191E+02 -0.32833214896E+02  0.71706320827E+02  0.41800000000E+01 0.  1.
        -11    1    1    2    0    0  0.43260281931E+02 -0.13018414975E+02 -0.59363119704E+02  0.74598331766E+02  0.00000000000E+00 0. -1.
         11    1    1    2    0    0 -0.17233306405E+02  0.51629347080E+02 -0.13177775009E+03  0.14257612615E+03  0.00000000000E+00 0.  1.
</event>
<event>
 7    1  0.2380582E-009  0.1312697E+03  0.7561462E-02  0.1225584E+00
          1   -1    0    0  501    0  0.00000000000E+00  0.00000000000E+00  0.49920259149E+03  0.49920259149E+03  0.00000000000E+00 0. -1.
         -1   -1    0    0    0  501 -0.00000000000E+00 -0.00000000000E+00 -0.85814714879E+02  0.85814714879E+02  0.00000000000E+00 0.  1.
         25    2    1    2    0    0  0.42706033523E+02  0.66943511769E+02  0.42709851975E+03  0.45206790469E+03  0.12508799227E+03 0.  0.
          5    1    3    3  502    0 -0.30411899457E+02 -0.17990313978E+02  0.88735380614E+02  0.95603217510E+02  0.41800000000E+01 0.  1.
         -5    1    3    3    0  502  0.73117932980E+02  0.84933825747E+02  0.33836313914E+03  0.35646468718E+03  0.41800000000E+01 0.  1.
        -11    1    1    2    0    0 -0.50628716628E+02 -0.82818017967E+02  0.15967996830E+02  0.98372089386E+02  0.00000000000E+00 0. -1.
         11    1    1    2    0    0  0.79226831055E+01  0.15874506198E+02 -0.29678639972E+02  0.34577312291E+02  0.00000000000E+00 0.  1.
</event>
<event>
 7    1  0.2380582E-009  0.8572963E+02  0.7561462E-02  0.1313535E+00
         -1   -1    0    0    0  501 -0.00000000000E+00  0.00000000000E+00  0.35806946112E+02  0.35806946112E+02  0.00000000000E+00 0.  1.
          1   -1    0    0  501    0  0.00000000000E+00 -0.00000000000E+00 -0.54827958573E+03  0.54827958573E+03  0.00000000000E+00 0. -1.
         25    2    1    2    0    0  0.83728154471E+02 -0.81131514639E+01 -0.33224919315E+03  0.36484671287E+03  0.12508944986E+03 0.  0.
          5    1    3    3  502    0  0.22617494741E+02  0.56180621961E+01  0.29142859838E+01  0.23855379980E+02  0.41800000000E+01 0. -1.
         -5    1    3    3    0  502  0.61110659729E+02 -0.13731213660E+02 -0.33516347913E+03  0.34099133289E+03  0.41800000000E+01 0. -1.
        -11    1    1    2    0    0 -0.36764356571E+02  0.96855739598E+01 -0.16577474516E+03  0.17007849479E+03  0.00000000000E+00 0. -1.
         11    1    1    2    0    0 -0.46963797900E+02 -0.15724224959E+01 -0.14448701306E+02  0.49161324180E+02  0.00000000000E+00 0.  1.
</event>
<event>
 7    1  0.2380582E-009  0.1065483E+03  0.7561462E-02  0.1267099E+00
         -2   -1    0    0    0  501 -0.00000000000E+00  0.00000000000E+00  0.80677645114E+02  0.80677645114E+02  0.00000000000E+00 0.  1.
          2   -1    0    0  501    0  0.00000000000E+00 -0.00000000000E+00 -0.18266230055E+03  0.18266230055E+03  0.00000000000E+00 0. -1.
         25    2    1    2    0    0  0.31048822198E+02  0.70872220862E+00 -0.10001840612E+03  0.16314236073E+03  0.12508883505E+03 0.  0.
          5    1    3    3  502    0  0.78033114385E+02  0.16313910810E+01 -0.80144596320E+02  0.11194845732E+03  0.41800000000E+01 0.  1.
         -5    1    3    3    0  502 -0.46984292187E+02 -0.92266887238E+00 -0.19873809796E+02  0.51193903406E+02  0.41800000000E+01 0.  1.
        -11    1    1    2    0    0 -0.58916266246E+02 -0.65606115687E+01  0.21744928199E+02  0.63142774368E+02  0.00000000000E+00 0.  1.
         11    1    1    2    0    0  0.27867444048E+02  0.58518893601E+01 -0.23711177519E+02  0.37054810568E+02  0.00000000000E+00 0. -1.
</event>
<event>
 7    1  0.2380582E-009  0.1552529E+03  0.7561462E-02  0.1194163E+00
         -2   -1    0    0    0  501 -0.00000000000E+00  0.00000000000E+00  0.22493267698E+02  0.22493267698E+02  0.00000000000E+00 0.  1.
          2   -1    0    0  501    0  0.00000000000E+00 -0.00000000000E+00 -0.12462586930E+04  0.12462586930E+04  0.00000000000E+00 0. -1.
         25    2    1    2    0    0  0.12675541604E+03 -0.14924124193E+02 -0.63829346368E+03  0.66283939694E+03  0.12509138812E+03 0.  0.
          5    1    3    3  502    0  0.14375814025E+03 -0.36776084691E+00 -0.60892265049E+03  0.62567627797E+03  0.41800000000E+01 0. -1.
         -5    1    3    3    0  502 -0.17002724205E+02 -0.14556363346E+02 -0.29370813192E+02  0.37163118973E+02  0.41800000000E+01 0. -1.
        -11    1    1    2    0    0  0.65519208558E+01  0.81231917304E+01 -0.78248051608E+01  0.13043829445E+02  0.00000000000E+00 0.  1.
         11    1    1    2    0    0 -0.13330733690E+03  0.68009324624E+01 -0.57764715642E+03  0.59286873427E+03  0.00000000000E+00 0. -1.
</event>
<event>
 7    1  0.2380582E-009  0.1053993E+03  0.7561462E-02  0.1269335E+00
         -2   -1    0    0    0  501 -0.00000000000E+00  0.00000000000E+00  0.36374237767E+02  0.36374237767E+02  0.00000000000E+00 0. -1.
          2   -1    0    0  501    0  0.00000000000E+00 -0.00000000000E+00 -0.48146650757E+03  0.48146650757E+03  0.00000000000E+00 0.  1.
         25    2    1    2    0    0 -0.40670668718E+02  0.54983987571E+02 -0.33046595808E+03  0.35990813997E+03  0.12509507418E+03 0.  0.
          5    1    3    3  502    0 -0.48062680038E+02 -0.59842761946E+01 -0.26738858557E+03  0.27177189124E+03  0.41800000000E+01 0.  1.
         -5    1    3    3    0  502  0.73920113195E+01  0.60968263765E+02 -0.63077372511E+02  0.88136248733E+02  0.41800000000E+01 0.  1.
        -11    1    1    2    0    0 -0.62152873303E+01 -0.53352715280E+02 -0.30923964598E+02  0.61979299858E+02  0.00000000000E+00 0.  1.
         11    1    1    2    0    0  0.46885956049E+02 -0.16312722902E+01 -0.83702347127E+02  0.95953305511E+02  0.00000000000E+00 0. -1.
</event>
<event>
 7    1  0.2380582E-009  0.8163817E+02  0.7561462E-02  0.1324466E+00
         -2   -1    0    0    0  501 -0.00000000000E+00  0.00000000000E+00  0.54216689807E+02  0.54216689807E+02  0.00000000000E+00 0. -1.
          2   -1    0    0  501    0  0.00000000000E+00 -0.00000000000E+00 -0.34751425891E+03  0.34751425891E+03  0.00000000000E+00 0.  1.
         25    2    1    2    0    0  0.25326189375E+01 -0.40835521270E+02 -0.26830933447E+03  0.29884657281E+03  0.12508165797E+03 0.  0.
          5    1    3    3  502    0 -0.20870259354E+02 -0.66011791192E+01 -0.25370634749E+03  0.25468318839E+03  0.41800000000E+01 0.  1.
         -5    1    3    3    0  502  0.23402878291E+02 -0.34234342150E+02 -0.14602986983E+02  0.44163384422E+02  0.41800000000E+01 0.  1.
        -11    1    1    2    0    0  0.32894339282E+02 -0.12578747534E+02 -0.13777670648E+02  0.37816486547E+02  0.00000000000E+00 0. -1.
         11    1    1    2    0    0 -0.35426958219E+02  0.53414268803E+02 -0.11210563980E+02  0.65067889356E+02  0.00000000000E+00 0.  1.
</event>
<event>
 7    1  0.2380582E-009  0.1330122E+03  0.7561462E-02  0.1223053E+00
         -1   -1    0    0    0  501 -0.00000000000E+00  0.00000000000E+00  0.14536057116E+03  0.14536057116E+03  0.00000000000E+00 0.  1.
          1   -1    0    0  501    0  0.00000000000E+00 -0.00000000000E+00 -0.19690739345E+03  0.19690739345E+03  0.00000000000E+00 0. -1.
         25    2    1    2    0    0 -0.11097786225E+03  0.59717190330E+02  0.44432542378E+00  0.17756748628E+03  0.12509111091E+03 0.  0.
          5    1    3    3  502    0 -0.77859077843E+02  0.25829994772E+02  0.59728683041E+02  0.10155891202E+03  0.41800000000E+01 0.  1.
         -5    1    3    3    0  502 -0.33118784405E+02  0.33887195558E+02 -0.59284357617E+02  0.76008574262E+02  0.41800000000E+01 0.  1.
        -11    1    1    2    0    0  0.10375855252E+03 -0.33358377930E+02 -0.35084953500E+01  0.10904553241E+03  0.00000000000E+00 0.  1.
         11    1    1    2    0    0  0.72193097269E+01 -0.26358812400E+02 -0.48482652369E+02  0.55654945915E+02  0.00000000000E+00 0. -1.
</event>
<event>
 7    1  0.2380582E-009  0.9389010E+02  0.7561462E-02  0.1293696E+00
         -1   -1    0    0    0  501 -0.00000000000E+00  0.00000000000E+00  0.58293463798E+02  0.58293463798E+02  0.00000000000E+00 0.  1.
          1   -1    0    0  501    0  0.00000000000E+00 -0.00000000000E+00 -0.23982952880E+03  0.23982952880E+03  0.00000000000E+00 0. -1.
         25    2    1    2    0    0 -0.17847044916E+02 -0.15348467588E+02 -0.14931128228E+03  0.19620363244E+03  0.12509162201E+03 0.  0.
          5    1    3    3  502    0  0.30997029433E+02  0.40818446541E+02 -0.75043103408E+02  0.90971980196E+02  0.41800000000E+01 0. -1.
         -5    1    3    3    0  502 -0.48844074349E+02 -0.56166914129E+02 -0.74268178872E+02  0.10523165225E+03  0.41800000000E+01 0. -1.
        -11    1    1    2    0    0 -0.15857882449E+02  0.22326245094E+02  0.23723212917E+02  0.36231539947E+02  0.00000000000E+00 0.  1.
         11    1    1    2    0    0  0.33704927365E+02 -0.69777775062E+01 -0.55947995639E+02  0.65687820208E+02  0.00000000000E+00 0. -1.
</event>
<event>
 7    1  0.2380582E-009  0.1031791E+03  0.7561462E-02  0.1273749E+00
          1   -1    0    0  501    0  0.00000000000E+00  0.00000000000E+00  0.66782162400E+02  0.66782162400E+02  0.00000000000E+00 0. -1.
         -1   -1    0    0    0  501 -0.00000000000E+00 -0.00000000000E+00 -0.68691486520E+03  0.68691486520E+03  0.00000000000E+00 0.  1.
         25    2    1    2    0    0 -0.18771987156E+02  0.83004176740E+02 -0.61062859900E+03  0.62909338886E+03  0.12509646332E+03 0.  0.
          5    1    3    3  502    0  0.33255172875E+01 -0.16782422360E+02 -0.10917431433E+02  0.20721280718E+02  0.41800000000E+01 0.  1.
         -5    1    3    3    0  502 -0.22097504443E+02  0.99786599100E+02 -0.59971116757E+03  0.60837210814E+03  0.41800000000E+01 0.  1.
        -11    1    1    2    0    0  0.15585859047E+02 -0.34606796683E+02 -0.49052273640E+02  0.62021568250E+02  0.00000000000E+00 0.  1.
         11    1    1    2    0    0  0.31861281089E+01 -0.48397380058E+02  0.39548169841E+02  0.62582070488E+02  0.00000000000E+00 0. -1.
</event>
<event>
 7    1  0.2380582E-009  0.1010853E+03  0.7561462E-02  0.1278030E+00
          2   -1    0    0  501    0  0.00000000000E+00  0.00000000000E+00  0.75622143307E+02  0.75622143307E+02  0.00000000000E+00 0. -1.
         -2   -1    0    0    0  501 -0.00000000000E+00 -0.00000000000E+00 -0.15910180071E+03  0.15910180071E+03  0.00000000000E+00 0.  1.
         25    2    1    2    0    0  0.21886739678E+02 -0.15120768913E+02 -0.59816053133E+02  0.14118277385E+03  0.12508776276E+03 0.  0.
          5    1    3    3  502    0  0.47748491107E+01  0.52299342804E+02 -0.46435587468E+02  0.70226466701E+02  0.41800000000E+01 0. -1.
         -5    1    3    3    0  502  0.17111890567E+02 -0.67420111717E+02 -0.13380465665E+02  0.70956307149E+02  0.41800000000E+01 0. -1.
        -11    1    1    2    0    0  0.22634657409E+02  0.25492260215E+02 -0.32364681342E+02  0.47006974432E+02  0.00000000000E+00 0.  1.
         11    1    1    2    0    0 -0.44521397087E+02 -0.10371491302E+02  0.87010770736E+01  0.46534195734E+02  0.00000000000E+00 0. -1.
</event>
<event>
 7    1  0.2380582E-009  0.2130637E+03  0.7561462E-02  0.1139163E+00
          2   -1    0    0  501    0  0.00000000000E+00  0.00000000000E+00  0.43253231819E+03  0.43253231819E+03  0.00000000000E+00 0. -1.
         -2   -1    0    0    0  501 -0.00000000000E+00 -0.00000000000E+00 -0.15529492762E+03  0.15529492762E+03  0.00000000000E+00 0.  1.
         25    2    1    2    0    0  0.20276554822E+03  0.58504655251E+02  0.26160334888E+03  0.35863740514E+03  0.12509122268E+03 0.  0.
          5    1    3    3  502    0  0.25212619301E+02  0.40648455186E+01 -0.11523464624E+02  0.28327756319E+02  0.41800000000E+01 0.  1.
         -5    1    3    3    0  502  0.17755292892E+03  0.54439809733E+02  0.27312681350E+03  0.33030964882E+03  0.41800000000E+01 0.  1.
        -11    1    1    2    0    0 -0.13333972706E+03 -0.19210710630E+02  0.48122559433E+02  0.14305353873E+03  0.00000000000E+00 0. -1.
         11    1    1    2    0    0 -0.69425821160E+02 -0.39293944622E+02 -0.32488517741E+02  0.86136301945E+02  0.00000000000E+00 0.  1.
</event>
<event>
 7    1  0.2380582E-009  0.1028924E+03  0.7561462E-02  0.1274329E+00
         -1   -1    0    0    0  501 -0.00000000000E+00  0.00000000000E+00  0.30774320656E+02  0.30774320656E+02  0.00000000000E+00 0.  1.
          1   -1    0    0  501    0  0.00000000000E+00 -0.00000000000E+00 -0.41365603537E+03  0.41365603537E+03  0.00000000000E+00 0. -1.
         25    2    1    2    0    0  0.28349303858E+02 -0.20771820632E+01 -0.21259436407E+03  0.24829805091E+03  0.12509021039E+03 0.  0.
          5    1    3    3  502    0  0.26587041627E+02 -0.52130443013E+02 -0.46782818217E+02  0.75037046527E+02  0.41800000000E+01 0. -1.
         -5    1    3    3    0  502  0.17622622309E+01  0.50053260949E+02 -0.16581154585E+03  0.17326100438E+03  0.41800000000E+01 0. -1.
        -11    1    1    2    0    0  0.29181988207E+02  0.21379441836E+02 -0.54625909858E+02  0.65518386707E+02  0.00000000000E+00 0.  1.
         11    1    1    2    0    0 -0.57531292064E+02 -0.19302259773E+02 -0.11566144079E+03  0.13061391842E+03  0.00000000000E+00 0. -1.
</event>
<event>
 7    1  0.2380582E-009  0.5539845E+02  0.7561462E-02  0.1418224E+00
          3   -1    0    0  501    0  0.00000000000E+00  0.00000000000E+00  0.18014948600E+03  0.18014948600E+03  0.00000000000E+00 0. -1.
         -3   -1    0    0    0  501 -0.00000000000E+00 -0.00000000000E+00 -0.76216569026E+02  0.76216569026E+02  0.00000000000E+00 0.  1.
         25    2    1    2    0    0  0.10649236537E+02 -0.42222057147E+02  0.51355758261E+02  0.14206070385E+03  0.12509085228E+03 0.  0.
          5    1    3    3  502    0  0.37351209136E+01 -0.50805967838E+02 -0.30392145105E+02  0.59467237874E+02  0.41800000000E+01 0. -1.
         -5    1    3    3    0  502  0.69141156233E+01  0.85839106912E+01  0.81747903366E+02  0.82593465979E+02  0.41800000000E+01 0. -1.
        -11    1    1    2    0    0 -0.16206773525E+02  0.24962109091E+02  0.77767272428E+02  0.83267731200E+02  0.00000000000E+00 0. -1.
         11    1    1    2    0    0  0.55575369878E+01  0.17259948056E+02 -0.25190113717E+02  0.31037619970E+02  0.00000000000E+00 0.  1.
</event>
<event>
 7    1  0.2380582E-009  0.1831688E+03  0.7561462E-02  0.1164771E+00
         -1   -1    0    0    0  501 -0.00000000000E+00  0.00000000000E+00  0.50330349284E+02  0.50330349284E+02  0.00000000000E+00 0.  1.
          1   -1    0    0  501    0  0.00000000000E+00 -0.00000000000E+00 -0.10095175269E+04  0.10095175269E+04  0.00000000000E+00 0. -1.
         25    2    1    2    0    0  0.97364289861E+02 -0.11960110147E+03 -0.78213093904E+03  0.80694446022E+03  0.12508528156E+03 0.  0.
          5    1    3    3  502    0  0.65608303382E+02 -0.14077798290E+03 -0.54459525526E+03  0.56632530793E+03  0.41800000000E+01 0. -1.
         -5    1    3    3    0  502  0.31755986478E+02  0.21176881426E+02 -0.23753568377E+03  0.24061915229E+03  0.41800000000E+01 0. -1.
        -11    1    1    2    0    0  0.69921785076E+01  0.41854687345E+02 -0.14873398129E+02  0.44965802394E+02  0.00000000000E+00 0.  1.
         11    1    1    2    0    0 -0.10435646837E+03  0.77746414127E+02 -0.16218284043E+03  0.20793761356E+03  0.00000000000E+00 0. -1.
</event>
<event>
 7    1  0.2610828E-009  0.1064579E+03  0.7561462E-02  0.1267273E+00
          1   -1    0    0  501    0  0.00000000000E+00  0.00000000000E+00  0.43710367445E+03  0.43710367445E+03  0.00000000000E+00 0. -1.
         -1   -1    0    0    0  501 -0.00000000000E+00 -0.00000000000E+00 -0.36892622156E+02  0.36892622156E+02  0.00000000000E+00 0.  1.
         25    2    1    2    0    0 -0.62766628354E+02 -0.19894054888E+02  0.23583321573E+03  0.27495562225E+03  0.12509142859E+03 0.  0.
          5    1    3    3  502    0  0.10463839347E+02 -0.57444775124E+02  0.10850742482E+03  0.12329123150E+03  0.41800000000E+01 0. -1.
         -5    1    3    3    0  502 -0.73230467701E+02  0.37550720236E+02  0.12732579091E+03  0.15166439075E+03  0.41800000000E+01 0. -1.
        -11    1    1    2    0    0  0.39170249911E+02  0.26712682455E+02  0.18154344544E+02  0.50768652807E+02  0.00000000000E+00 0.  1.
         11    1    1    2    0    0  0.23596378443E+02 -0.68186275666E+01  0.14622349201E+03  0.14827202155E+03  0.00000000000E+00 0. -1.
</event>
<event>
 7    1  0.3652310E-009  0.1399953E+03  0.7561462E-02  0.1213335E+00
          2   -1    0    0  501    0  0.00000000000E+00  0.00000000000E+00  0.23784523787E+04  0.23784523787E+04  0.00000000000E+00 0.  1.
         -2   -1    0    0    0  501 -0.00000000000E+00 -0.00000000000E+00 -0.11361059253E+02  0.11361059253E+02  0.00000000000E+00 0. -1.
         25    2    1    2    0    0 -0.33864305632E+02  0.85157757440E+02  0.18599789383E+04  0.18664316953E+04  0.12508791878E+03 0.  0.
          5    1    3    3  502    0  0.12184634675E+02  0.10122864673E+03  0.14396205249E+04  0.14432326328E+04  0.41800000000E+01 0.  1.
         -5    1    3    3    0  502 -0.46048940308E+02 -0.16070889288E+02  0.42035841343E+03  0.42319906253E+03  0.41800000000E+01 0.  1.
        -11    1    1    2    0    0 -0.31401804515E+02 -0.23644136554E+02  0.13437526712E+03  0.14000653889E+03  0.00000000000E+00 0. -1.
         11    1    1    2    0    0  0.65266110147E+02 -0.61513620887E+02  0.37273711408E+03  0.38337520382E+03  0.00000000000E+00 0.  1.
</event>
<event>
 7    1  0.2380582E-009  0.9628272E+02  0.7561462E-02  0.1288313E+00
         -2   -1    0    0    0  501 -0.00000000000E+00  0.00000000000E+00  0.11819936847E+03  0.11819936847E+03  0.00000000000E+00 0.  1.
          2   -1    0    0  501    0  0.00000000000E+00 -0.00000000000E+00 -0.17829175618E+03  0.17829175618E+03  0.00000000000E+00 0. -1.
         25    2    1    2    0    0 -0.82723593199E+02 -0.27627130269E+01  0.15299808041E+02  0.15077512095E+03  0.12509287556E+03 0.  0.
          5    1    3    3  502    0 -0.65377334802E+02 -0.16736037308E+02  0.66466931027E+02  0.94813586425E+02  0.41800000000E+01 0. -1.
         -5    1    3    3    0  502 -0.17346258397E+02  0.13973324281E+02 -0.51167122986E+02  0.55961534526E+02  0.41800000000E+01 0. -1.
        -11    1    1    2    0    0  0.20356334533E+02 -0.26483870576E+02 -0.68845840831E+02  0.76521405868E+02  0.00000000000E+00 0. -1.
         11    1    1    2    0    0  0.62367258666E+02  0.29246583602E+02 -0.65463549147E+01  0.69194597828E+02  0.00000000000E+00 0.  1.
</event>
<event>
 7    1  0.2380582E-009  0.1507810E+03  0.7561462E-02  0.1199517E+00
         -1   -1    0    0    0  501 -0.00000000000E+00  0.00000000000E+00  0.87059248762E+03  0.87059248762E+03  0.00000000000E+00 0.  1.
          1   -1    0    0  501    0  0.00000000000E+00 -0.00000000000E+00 -0.58829722744E+02  0.58829722744E+02  0.00000000000E+00 0. -1.
         25    2    1    2    0    0 -0.90543630797E+02 -0.10009856195E+03  0.12233957552E+03  0.22097740444E+03  0.12508465274E+03 0.  0.
          5    1    3    3  502    0 -0.11573222573E+02  0.18991419529E+02  0.61651939644E+02  0.65673796588E+02  0.41800000000E+01 0. -1.
         -5    1    3    3    0  502 -0.78970408224E+02 -0.11908998148E+03  0.60687635877E+02  0.15530360785E+03  0.41800000000E+01 0. -1.
        -11    1    1    2    0    0  0.88994149214E+01  0.18592464475E+02  0.18568387890E+02  0.27742825199E+02  0.00000000000E+00 0. -1.
         11    1    1    2    0    0  0.81644215876E+02  0.81506097475E+02  0.67085480147E+03  0.68070198072E+03  0.00000000000E+00 0.  1.
</event>
<event>
 7    1  0.2380582E-009  0.9099372E+02  0.7561462E-02  0.1300463E+00
          2   -1    0    0  501    0  0.00000000000E+00  0.00000000000E+00  0.10411113282E+03  0.10411113282E+03  0.00000000000E+00 0. -1.
         -2   -1    0    0    0  501 -0.00000000000E+00 -0.00000000000E+00 -0.11334553180E+03  0.11334553180E+03  0.00000000000E+00 0.  1.
         25    2    1    2    0    0  0.11565536254E+01 -0.40583661606E+01  0.11404023980E+01  0.12516478811E+03  0.12508843157E+03 0.  0.
          5    1    3    3  502    0  0.29010732137E+02  0.37906213035E+02  0.39190518646E+02  0.61902122076E+02  0.41800000000E+01 0. -1.
         -5    1    3    3    0  502 -0.27854178511E+02 -0.41964579196E+02 -0.38050116248E+02  0.63262666037E+02  0.41800000000E+01 0. -1.
        -11    1    1    2    0    0 -0.73697096953E+01  0.43237849780E+02 -0.24430456063E+02  0.50206289029E+02  0.00000000000E+00 0.  1.
         11    1    1    2    0    0  0.62131560699E+01 -0.39179483620E+02  0.14055654676E+02  0.42085587479E+02  0.00000000000E+00 0. -1.
</event>
<event>
 7    1  0.2380582E-009  0.1074844E+03  0.7561462E-02  0.1265301E+00
          2   -1    0    0  501    0  0.00000000000E+00  0.00000000000E+00  0.19624514024E+02  0.19624514024E+02  0.00000000000E+00 0. -1.
         -2   -1    0    0    0  501 -0.00000000000E+00 -0.00000000000E+00 -0.61595701384E+03  0.61595701384E+03  0.00000000000E+00 0.  1.
         25    2    1    2    0    0  0.50396790629E+01 -0.52806416619E+01 -0.39490547172E+03  0.41430858000E+03  0.12509190354E+03 0.  0.
          5    1    3    3  502    0 -0.44130979927E+02 -0.42907438051E+02 -0.22942109175E+03  0.23757125535E+03  0.41800000000E+01 0.  1.
         -5    1    3    3    0  502  0.49170658990E+02  0.37626796389E+02 -0.16548437997E+03  0.17673732465E+03  0.41800000000E+01 0.  1.
        -11    1    1    2    0    0  0.12024039023E+02  0.45747698954E+02 -0.11437024150E+03  0.12376583380E+03  0.00000000000E+00 0.  1.
         11    1    1    2    0    0 -0.17063718085E+02 -0.40467057292E+02 -0.87056786601E+02  0.97507114069E+02  0.00000000000E+00 0. -1.
</event>
<event>
 7    1  0.2380582E-009  0.1353299E+03  0.7561462E-02  0.1219755E+00
          2   -1    0    0  501    0  0.00000000000E+00  0.00000000000E+00  0.14755540145E+03  0.14755540145E+03  0.00000000000E+00 0. -1.
         -2   -1    0    0    0  501 -0.00000000000E+00 -0.00000000000E+00 -0.19321063228E+03  0.19321063228E+03  0.00000000000E+00 0.  1.
         25    2    1    2    0    0  0.72007961489E+02  0.76854146619E+02 -0.99636863318E+02  0.19148715814E+03  0.12509244913E+03 0.  0.
          5    1    3    3  502    0 -0.26830320597E+02 -0.49585842484E+01  0.21073784515E+01  0.27683336233E+02  0.41800000000E+01 0.  1.
         -5    1    3    3    0  502  0.98838282086E+02  0.81812730867E+02 -0.10174424177E+03  0.16380382191E+03  0.41800000000E+01 0.  1.
        -11    1    1    2    0    0 -0.56506666040E+02 -0.80883357604E+02  0.61740063270E+01  0.98859694509E+02  0.00000000000E+00 0.  1.
         11    1    1    2    0    0 -0.15501295449E+02  0.40292109856E+01  0.47807626163E+02  0.50419181083E+02  0.00000000000E+00 0. -1.
</event>
<event>
 7    1  0.2380582E-009  0.9946108E+02  0.7561462E-02  0.1281433E+00
          1   -1    0    0  501    0  0.00000000000E+00  0.00000000000E+00  0.12024433412E+03  0.12024433412E+03  0.00000000000E+00 0. -1.
         -1   -1    0    0    0  501 -0.00000000000E+00 -0.00000000000E+00 -0.11004593100E+03  0.11004593100E+03  0.00000000000E+00 0.  1.
         25    2    1    2    0    0 -0.21629391596E+02  0.15248424932E+01 -0.25514931077E+02  0.12949743844E+03  0.12509364144E+03 0.  0.
          5    1    3    3  502    0 -0.23303325013E+02 -0.49446678071E+02 -0.48691284860E+02  0.73323478847E+02  0.41800000000E+01 0.  1.
         -5    1    3    3    0  502  0.16739334163E+01  0.50971520564E+02  0.23176353783E+02  0.56173959593E+02  0.41800000000E+01 0.  1.
        -11    1    1    2    0    0  0.33761059416E+02 -0.40142047316E+02  0.28442106860E+02  0.59666963542E+02  0.00000000000E+00 0. -1.
         11    1    1    2    0    0 -0.12131667820E+02  0.38617204823E+02  0.72712273348E+01  0.41125863145E+02  0.00000000000E+00 0.  1.
</event>
<event>
 7    1  0.2380582E-009  0.9838839E+02  0.7561462E-02  0.1283722E+00
          2   -1    0    0  501    0  0.00000000000E+00  0.00000000000E+00  0.33654402365E+03  0.33654402365E+03  0.00000000000E+00 0.  1.
         -2   -1    0    0    0  501 -0.00000000000E+00 -0.00000000000E+00 -0.56172603599E+02  0.56172603599E+02  0.00000000000E+00 0. -1.
         25    2    1    2    0    0  0.25140901412E+02  0.53724000192E+02  0.24165322457E+03  0.27849899513E+03  0.12508827373E+03 0.  0.
          5    1    3    3  502    0  0.15878007550E+02  0.82794587214E+02  0.23095862337E+03  0.24589919257E+03  0.41800000000E+01 0. -1.
         -5    1    3    3    0  502  0.92628938618E+01 -0.29070587022E+02  0.10694601197E+02  0.32599802564E+02  0.41800000000E+01 0. -1.
        -11    1    1    2    0    0 -0.28342714128E+02 -0.64435995517E+02  0.58477476218E+02  0.91514600951E+02  0.00000000000E+00 0.  1.
         11    1    1    2    0    0  0.32018127157E+01  0.10711995324E+02 -0.19759280741E+02  0.22703031161E+02  0.00000000000E+00 0. -1.
</event>
<event>
 7    1  0.2380582E-009  0.8165647E+02  0.7561462E-02  0.1324415E+00
         -2   -1    0    0    0  501 -0.00000000000E+00  0.00000000000E+00  0.10393352137E+03  0.10393352137E+03  0.00000000000E+00 0. -1.
          2   -1    0    0  501    0  0.00000000000E+00 -0.00000000000E+00 -0.17313375630E+03  0.17313375630E+03  0.00000000000E+00 0.  1.
         25    2    1    2    0    0  0.76999115160E+02 -0.19389367148E+02 -0.37128078124E+02  0.15274510527E+03  0.12509101369E+03 0.  0.
          5    1    3    3  502    0  0.26488232308E+02  0.50226320196E+01 -0.78375060430E+02  0.82987805011E+02  0.41800000000E+01 0. -1.
         -5    1    3    3    0  502  0.50510882852E+02 -0.24411999168E+02  0.41246982306E+02  0.69757300258E+02  0.41800000000E+01 0. -1.
        -11    1    1    2    0    0 -0.22541392603E+02  0.93268485590E+01 -0.58187163382E+02  0.63093981226E+02  0.00000000000E+00 0.  1.
         11    1    1    2    0    0 -0.54457722557E+02  0.10062518589E+02  0.26115006569E+02  0.61228191175E+02  0.00000000000E+00 0. -1.
</event>
<event>
 7    1  0.2380582E-009  0.1409936E+03  0.7561462E-02  0.1211998E+00
         -1   -1    0    0    0  501 -0.00000000000E+00  0.00000000000E+00  0.65166064339E+03  0.65166064339E+03  0.00000000000E+00 0.  1.
          1   -1    0    0  501    0  0.00000000000E+00 -0.00000000000E+00 -0.38141960987E+02  0.38141960987E+02  0.00000000000E+00 0. -1.
         25    2    1    2    0    0 -0.41663089183E+02  0.10784671803E+03  0.25124631783E+03  0.30354527421E+03  0.12509314004E+03 0.  0.
          5    1    3    3  502    0 -0.41460068160E+02 -0.18057151989E+01  0.14471990964E+03  0.15061049932E+03  0.41800000000E+01 0. -1.
         -5    1    3    3    0  502 -0.20302102302E+00  0.10965243323E+03  0.10652640819E+03  0.15293477490E+03  0.41800000000E+01 0. -1.
        -11    1    1    2    0    0 -0.70350485842E+00 -0.79651366806E+02  0.26151766382E+03  0.27337944992E+03  0.00000000000E+00 0.  1.
         11    1    1    2    0    0  0.42366594042E+02 -0.28195351227E+02  0.10075470077E+03  0.11287788024E+03  0.00000000000E+00 0. -1.
</event>
<event>
 7    1  0.2380582E-009  0.1250903E+03  0.7561462E-02  0.1234928E+00
          2   -1    0    0  501    0  0.00000000000E+00  0.00000000000E+00  0.24205036205E+03  0.24205036205E+03  0.00000000000E+00 0. -1.
         -2   -1    0    0    0  501 -0.00000000000E+00 -0.00000000000E+00 -0.76641311623E+02  0.76641311623E+02  0.00000000000E+00 0.  1.
         25    2    1    2    0    0 -0.35470188020E+02 -0.63658949370E+02  0.53982207472E+02  0.15450626401E+03  0.12509001088E+03 0.  0.
          5    1    3    3  502    0 -0.44978506531E+01  0.30210508619E+02  0.45832296903E+02  0.55235652716E+02  0.41800000000E+01 0.  1.
         -5    1    3    3    0  502 -0.30972337367E+02 -0.93869457990E+02  0.81499105692E+01  0.99270611298E+02  0.41800000000E+01 0.  1.
        -11    1    1    2    0    0 -0.15103155414E+01  0.79980431606E+02  0.78073766919E+02  0.11177953110E+03  0.00000000000E+00 0.  1.
         11    1    1    2    0    0  0.36980503561E+02 -0.16321482236E+02  0.33353076035E+02  0.52405878554E+02  0.00000000000E+00 0. -1.
</event>
<event>
 7    1  0.2380582E-009  0.8814787E+02  0.7561462E-02  0.1307400E+00
         -2   -1    0    0    0  501 -0.00000000000E+00  0.00000000000E+00  0.24378330784E+02  0.24378330784E+02  0.00000000000E+00 0. -1.
          2   -1    0    0  501    0  0.00000000000E+00 -0.00000000000E+00 -0.66463317196E+03  0.66463317196E+03  0.00000000000E+00 0.  1.
         25    2    1    2    0    0  0.32184537533E+02 -0.16750272562E+02 -0.52944467343E+03  0.54523015112E+03  0.12509132417E+03 0.  0.
          5    1    3    3  502    0  0.45067017523E+02 -0.41673283914E+02 -0.50201739188E+03  0.50577330180E+03  0.41800000000E+01 0.  1.
         -5    1    3    3    0  502 -0.12882479990E+02  0.24923011353E+02 -0.27427281552E+02  0.39456849329E+02  0.41800000000E+01 0.  1.
        -11    1    1    2    0    0 -0.44456213068E+02  0.40202254686E+02 -0.96745306441E+02  0.11380786651E+03  0.00000000000E+00 0.  1.
         11    1    1    2    0    0  0.12271675534E+02 -0.23451982125E+02 -0.14064861306E+02  0.29973485109E+02  0.00000000000E+00 0. -1.
</event>
<event>
 7    1  0.2380582E-009  0.9676747E+02  0.7561462E-02  0.1287244E+00
         -3   -1    0    0    0  501 -0.00000000000E+00  0.00000000000E+00  0.84157631724E+02  0.84157631724E+02  0.00000000000E+00 0.  1.
          3   -1    0    0  501    0  0.00000000000E+00 -0.00000000000E+00 -0.14252344443E+03  0.14252344443E+03  0.00000000000E+00 0. -1.
         25    2    1    2    0    0  0.14326226515E+02  0.73482947063E+01 -0.39130039867E+02  0.13205311388E+03  0.12509047392E+03 0.  0.
          5    1    3    3  502    0  0.30845040902E+02  0.60368198626E+02 -0.83763426032E+01  0.68435162519E+02  0.41800000000E+01 0.  1.
         -5    1    3    3    0  502 -0.16518814386E+02 -0.53019903920E+02 -0.30753697263E+02  0.63617951364E+02  0.41800000000E+01 0.  1.
        -11    1    1    2    0    0  0.11685960164E+02  0.25484094381E+02  0.22160294829E+02  0.35736247680E+02  0.00000000000E+00 0.  1.
         11    1    1    2    0    0 -0.26012186680E+02 -0.32832389087E+02 -0.41396067666E+02  0.58891714589E+02  0.00000000000E+00 0. -1.
</event>
<event>
 7    1  0.2380582E-009  0.1806865E+03  0.7561462E-02  0.1167140E+00
         -1   -1    0    0    0  501 -0.00000000000E+00  0.00000000000E+00  0.50109573881E+02  0.50109573881E+02  0.00000000000E+00 0.  1.
          1   -1    0    0  501    0  0.00000000000E+00 -0.00000000000E+00 -0.76608066926E+03  0.76608066926E+03  0.00000000000E+00 0. -1.
         25    2    1    2    0    0 -0.15663434209E+03  0.29666715317E+02 -0.44116542110E+03  0.48547853428E+03  0.12509215544E+03 0.  0.
          5    1    3    3  502    0  0.14723041452E+02 -0.11666404899E+02 -0.95727701048E+02  0.97642911165E+02  0.41800000000E+01 0. -1.
         -5    1    3    3    0  502 -0.17135738355E+03  0.41333120215E+02 -0.34543772005E+03  0.38783562312E+03  0.41800000000E+01 0. -1.
        -11    1    1    2    0    0  0.11087508223E+03 -0.41757060231E+02 -0.25138300450E+03  0.27790349205E+03  0.00000000000E+00 0. -1.
         11    1    1    2    0    0  0.45759259861E+02  0.12090344915E+02 -0.23422669771E+02  0.52808216808E+02  0.00000000000E+00 0.  1.
</event>
<event>
 7    1  0.2380582E-009  0.1260269E+03  0.7561462E-02  0.1233473E+00
         -2   -1    0    0    0  501 -0.00000000000E+00  0.00000000000E+00  0.30861848638E+03  0.30861848638E+03  0.00000000000E+00 0.  1.
          2   -1    0    0  501    0  0.00000000000E+00 -0.00000000000E+00 -0.53798275932E+02  0.53798275932E+02  0.00000000000E+00 0. -1.
         25    2    1    2    0    0 -0.68374248374E+02 -0.25944514814E+01  0.11681287549E+03  0.18432215200E+03  0.12509052250E+03 0.  0.
          5    1    3    3  502    0 -0.10058105156E+03  0.20307853454E+02  0.80435128325E+02  0.13044630740E+03  0.41800000000E+01 0. -1.
         -5    1    3    3    0  502  0.32206803186E+02 -0.22902304936E+02  0.36377747164E+02  0.53875844602E+02  0.41800000000E+01 0. -1.
        -11    1    1    2    0    0  0.63744124994E+01 -0.36017954541E+02  0.28076312590E+02  0.46110796054E+02  0.00000000000E+00 0. -1.
         11    1    1    2    0    0  0.61999835874E+02  0.38612406023E+02  0.10993102237E+03  0.13198381426E+03  0.00000000000E+00 0.  1.
</event>
<event>
 7    1  0.2380582E-009  0.1220848E+03  0.7561462E-02  0.1239697E+00
         -1   -1    0    0    0  501 -0.00000000000E+00  0.00000000000E+00  0.27423996239E+03  0.27423996239E+03  0.00000000000E+00 0.  1.
          1   -1    0    0  501    0  0.00000000000E+00 -0.00000000000E+00 -0.10520655366E+03  0.10520655366E+03  0.00000000000E+00 0. -1.
         25    2    1    2    0    0 -0.32123881074E+02 -0.11615888932E+03  0.34467969279E+02  0.17708534469E+03  0.12508535924E+03 0.  0.
          5    1    3    3  502    0 -0.11856843822E+02 -0.28762036451E+02  0.72918249773E+02  0.79387549629E+02  0.41800000000E+01 0.  1.
         -5    1    3    3    0  502 -0.20267037253E+02 -0.87396852866E+02 -0.38450280493E+02  0.97697795061E+02  0.41800000000E+01 0.  1.
        -11    1    1    2    0    0  0.24507044211E+02  0.43653494381E+02  0.85795131202E+00  0.50069540322E+02  0.00000000000E+00 0. -1.
         11    1    1    2    0    0  0.76168368635E+01  0.72505394936E+02  0.13370748814E+03  0.15229163104E+03  0.00000000000E+00 0.  1.
</event>
<event>
 7    1  0.2380582E-009  0.1162918E+03  0.7561462E-02  0.1249343E+00
         -2   -1    0    0    0  501 -0.00000000000E+00  0.00000000000E+00  0.47182830119E+02  0.47182830119E+02  0.00000000000E+00 0.  1.
          2   -1    0    0  501    0  0.00000000000E+00 -0.00000000000E+00 -0.40120294019E+03  0.40120294019E+03  0.00000000000E+00 0. -1.
         25    2    1    2    0    0 -0.71600857379E+02  0.20127157892E+02 -0.13942745998E+03  0.20154388099E+03  0.12509250221E+03 0.  0.
          5    1    3    3  502    0  0.14429599984E+02 -0.22759223389E+02 -0.88648955567E+02  0.92748613618E+02  0.41800000000E+01 0. -1.
         -5    1    3    3    0  502 -0.86030457363E+02  0.42886381281E+02 -0.50778504409E+02  0.10879526738E+03  0.41800000000E+01 0. -1.
        -11    1    1    2    0    0  0.34929359075E+02  0.30643278190E+02 -0.14931808715E+03  0.15638082291E+03  0.00000000000E+00 0. -1.
         11    1    1    2    0    0  0.36671498304E+02 -0.50770436082E+02 -0.65274562951E+02  0.90461066412E+02  0.00000000000E+00 0.  1.
</event>
<event>
 7    1  0.2380582E-009  0.1426767E+03  0.7561462E-02  0.1209772E+00
          2   -1    0    0  501    0  0.00000000000E+00  0.00000000000E+00  0.17071339569E+04  0.17071339569E+04  0.00000000000E+00 0.  1.
         -2   -1    0    0    0  501 -0.00000000000E+00 -0.00000000000E+00 -0.13551643937E+02  0.13551643937E+02  0.00000000000E+00 0. -1.
         25    2    1    2    0    0  0.48963223650E+02  0.81758153829E+02  0.11754877187E+04  0.11859602505E+04  0.12509414844E+03 0.  0.
          5    1    3    3  502    0 -0.32612727815E+02 -0.60572592817E+01  0.38198808556E+03  0.38344836721E+03  0.41800000000E+01 0.  1.
         -5    1    3    3    0  502  0.81575951464E+02  0.87815413111E+02  0.79349963312E+03  0.80251188328E+03  0.41800000000E+01 0.  1.
        -11    1    1    2    0    0 -0.51767803994E+02 -0.16113081531E+01  0.18505403490E+03  0.19216528739E+03  0.00000000000E+00 0.  1.
         11    1    1    2    0    0  0.28045803446E+01 -0.80146845676E+02  0.33304055936E+03  0.34256006294E+03  0.00000000000E+00 0. -1.
</event>
<event>
 7    1  0.2380582E-009  0.1115145E+03  0.7561462E-02  0.1257791E+00
         -1   -1    0    0    0  501 -0.00000000000E+00  0.00000000000E+00  0.38062875893E+02  0.38062875893E+02  0.00000000000E+00 0.  1.
          1   -1    0    0  501    0  0.00000000000E+00 -0.00000000000E+00 -0.37334431140E+03  0.37334431140E+03  0.00000000000E+00 0. -1.
         25    2    1    2    0    0 -0.13509328360E+02 -0.45643141166E+02 -0.19525712259E+03  0.23672375647E+03  0.12508794773E+03 0.  0.
          5    1    3    3  502    0  0.47251769710E+02 -0.41144074547E+02 -0.53958710335E+02  0.82792387525E+02  0.41800000000E+01 0.  1.
         -5    1    3    3    0  502 -0.60761098070E+02 -0.44990666190E+01 -0.14129841226E+03  0.15393136895E+03  0.41800000000E+01 0.  1.
        -11    1    1    2    0    0 -0.18600281585E+02  0.60854960821E+02 -0.11429454365E+03  0.13081490526E+03  0.00000000000E+00 0. -1.
         11    1    1    2    0    0  0.32109609944E+02 -0.15211819656E+02 -0.25729769264E+02  0.43868525555E+02  0.00000000000E+00 0.  1.
</event>
<event>
 7    1  0.2380582E-009  0.1056867E+03  0.7561462E-02  0.1268773E+00
          1   -1    0    0  501    0  0.00000000000E+00  0.00000000000E+00  0.39524106121E+03  0.39524106121E+03  0.00000000000E+00 0. -1.
         -1   -1    0    0    0  501 -0.00000000000E+00 -0.00000000000E+00 -0.44862929681E+02  0.44862929681E+02  0.00000000000E+00 0.  1.
         25    2    1    2    0    0  0.45467500964E+02 -0.60115499341E+01  0.28777871739E+03  0.31712123502E+03  0.12508339274E+03 0.  0.
          5    1    3    3  502    0  0.82886253341E+02  0.21895522650E+02  0.19930385945E+03  0.21700010529E+03  0.41800000000E+01 0. -1.
         -5    1    3    3    0  502 -0.37418752377E+02 -0.27907072584E+02  0.88474857944E+02  0.10012112973E+03  0.41800000000E+01 0. -1.
        -11    1    1    2    0    0 -0.27876497735E+02 -0.28545439770E+02 -0.95922885881E+01  0.41035999537E+02  0.00000000000E+00 0.  1.
         11    1    1    2    0    0 -0.17591003229E+02  0.34556989704E+02  0.72191702729E+02  0.81946756342E+02  0.00000000000E+00 0. -1.
</event>
<event>
 7    1  0.2380582E-009  0.1214523E+03  0.7561462E-02  0.1240720E+00
         -1   -1    0    0    0  501 -0.00000000000E+00  0.00000000000E+00  0.88604840820E+02  0.88604840820E+02  0.00000000000E+00 0.  1.
          1   -1    0    0  501    0  0.00000000000E+00 -0.00000000000E+00 -0.20573534648E+03  0.20573534648E+03  0.00000000000E+00 0. -1.
         25    2    1    2    0    0  0.81559348447E+02  0.11242053652E+02 -0.50632808183E+02  0.15807649638E+03  0.12508471671E+03 0.  0.
          5    1    3    3  502    0 -0.27332641906E+02  0.92947837763E+01 -0.38660787833E+02  0.48431345582E+02  0.41800000000E+01 0. -1.
         -5    1    3    3    0  502  0.10889199035E+03  0.19472698752E+01 -0.11972020350E+02  0.10964515080E+03  0.41800000000E+01 0. -1.
        -11    1    1    2    0    0 -0.25856223221E+02 -0.35558074123E+02  0.28421189999E+01  0.44056765144E+02  0.00000000000E+00 0.  1.
         11    1    1    2    0    0 -0.55703125226E+02  0.24316020471E+02 -0.69339816481E+02  0.92206925777E+02  0.00000000000E+00 0. -1.
</event>
<event>
 7    1  0.2380582E-009  0.2590130E+03  0.7561462E-02  0.1107738E+00
         -2   -1    0    0    0  501 -0.00000000000E+00  0.00000000000E+00  0.35509498446E+03  0.35509498446E+03  0.00000000000E+00 0. -1.
          2   -1    0    0  501    0  0.00000000000E+00 -0.00000000000E+00 -0.19450364598E+03  0.19450364598E+03  0.00000000000E+00 0.  1.
         25    2    1    2    0    0  0.31315153062E+02  0.23556496233E+03  0.10782088383E+03  0.28938671585E+03  0.12509131877E+03 0.  0.
          5    1    3    3  502    0  0.79448132566E+02  0.13700848118E+03  0.56339582312E+02  0.16815157037E+03  0.41800000000E+01 0. -1.
         -5    1    3    3    0  502 -0.48132979504E+02  0.98556481157E+02  0.51481301521E+02  0.12123514548E+03  0.41800000000E+01 0. -1.
        -11    1    1    2    0    0 -0.44391805666E+02 -0.64685368434E+02 -0.68669502178E+01  0.78752678082E+02  0.00000000000E+00 0.  1.
         11    1    1    2    0    0  0.13076652604E+02 -0.17087959390E+03  0.59637404865E+02  0.18145923651E+03  0.00000000000E+00 0. -1.
</event>
<event>
 7    1  0.2380582E-009  0.1326373E+03  0.7561462E-02  0.1223594E+00
         -2   -1    0    0    0  501 -0.00000000000E+00  0.00000000000E+00  0.19687793178E+02  0.19687793178E+02  0.00000000000E+00 0.  1.
          2   -1    0    0  501    0  0.00000000000E+00 -0.00000000000E+00 -0.10109843625E+04  0.10109843625E+04  0.00000000000E+00 0. -1.
         25    2    1    2    0    0 -0.57989403281E+02  0.56815504245E+02 -0.38691256541E+03  0.41465479735E+03  0.12508595156E+03 0.  0.
          5    1    3    3  502    0 -0.96856057793E+02  0.30681867640E+02 -0.24980650411E+03  0.26970953789E+03  0.41800000000E+01 0. -1.
         -5    1    3    3    0  502  0.38866654512E+02  0.26133636605E+02 -0.13710606130E+03  0.14494525946E+03  0.41800000000E+01 0. -1.
        -11    1    1    2    0    0  0.75830274165E+02 -0.24563442073E+02 -0.46805960735E+03  0.47479826158E+03  0.00000000000E+00 0.  1.
         11    1    1    2    0    0 -0.17840870884E+02 -0.32252062172E+02 -0.13632439656E+03  0.14121909674E+03  0.00000000000E+00 0. -1.
</event>
<event>
 7    1  0.2380582E-009  0.1058667E+03  0.7561462E-02  0.1268421E+00
         -1   -1    0    0    0  501 -0.00000000000E+00  0.00000000000E+00  0.10800240717E+03  0.10800240717E+03  0.00000000000E+00 0.  1.
          1   -1    0    0  501    0  0.00000000000E+00 -0.00000000000E+00 -0.12588045501E+03  0.12588045501E+03  0.00000000000E+00 0. -1.
         25    2    1    2    0    0 -0.27624209589E+02 -0.44605198649E+02 -0.24456524662E+02  0.13783160060E+03  0.12508680116E+03 0.  0.
          5    1    3    3  502    0  0.32116214569E+02  0.24989357866E+02 -0.20928579309E+02  0.45949940987E+02  0.41800000000E+01 0. -1.
         -5    1    3    3    0  502 -0.59740424158E+02 -0.69594556515E+02 -0.35279453533E+01  0.91881659615E+02  0.41800000000E+01 0. -1.
        -11    1    1    2    0    0  0.39230051981E+02  0.72480505706E+01  0.30483159350E+02  0.50207113236E+02  0.00000000000E+00 0.  1.
         11    1    1    2    0    0 -0.11605842392E+02  0.37357148078E+02 -0.23904682531E+02  0.45844148340E+02  0.00000000000E+00 0. -1.
</event>
<event>
 7    1  0.2380582E-009  0.7774381E+02  0.7561462E-02  0.1335579E+00
         -1   -1    0    0    0  501 -0.00000000000E+00  0.00000000000E+00  0.12799334446E+03  0.12799334446E+03  0.00000000000E+00 0.  1.
          1   -1    0    0  501    0  0.00000000000E+00 -0.00000000000E+00 -0.12908913016E+03  0.12908913016E+03  0.00000000000E+00 0. -1.
         25    2    1    2    0    0 -0.54210054352E+02  0.24649852313E+02 -0.32445785974E+02  0.14229012727E+03  0.12508959221E+03 0.  0.
          5    1    3    3  502    0 -0.18073458447E+02 -0.98545150475E-01 -0.77278966257E+02  0.79474339489E+02  0.41800000000E+01 0.  1.
         -5    1    3    3    0  502 -0.36136595905E+02  0.24748397463E+02  0.44833180283E+02  0.62815787784E+02  0.41800000000E+01 0.  1.
        -11    1    1    2    0    0  0.10719136764E+02  0.24840504874E+02 -0.17982145907E+02  0.32485506719E+02  0.00000000000E+00 0. -1.
         11    1    1    2    0    0  0.43490917587E+02 -0.49490357187E+02  0.49332146178E+02  0.82306840625E+02  0.00000000000E+00 0.  1.
</event>
<event>
 7    1  0.2380582E-009  0.7964633E+02  0.7561462E-02  0.1330058E+00
         -1   -1    0    0    0  501 -0.00000000000E+00  0.00000000000E+00  0.14271577723E+02  0.14271577723E+02  0.00000000000E+00 0.  1.
          1   -1    0    0  501    0  0.00000000000E+00 -0.00000000000E+00 -0.88093966483E+03  0.88093966483E+03  0.00000000000E+00 0. -1.
         25    2    1    2    0    0 -0.10695609324E+02  0.63084125145E+01 -0.45742075385E+03  0.47437883545E+03  0.12508933345E+03 0.  0.
          5    1    3    3  502    0  0.25570023950E+02 -0.17887759276E+01 -0.42223897292E+03  0.42303693515E+03  0.41800000000E+01 0. -1.
         -5    1    3    3    0  502 -0.36265633274E+02  0.80971884421E+01 -0.35181780927E+02  0.51341900302E+02  0.41800000000E+01 0. -1.
        -11    1    1    2    0    0 -0.42450019183E+02 -0.52402934510E+01 -0.14000197795E+03  0.14638995401E+03  0.00000000000E+00 0.  1.
         11    1    1    2    0    0  0.53145628507E+02 -0.10681190635E+01 -0.26924535531E+03  0.27444245310E+03  0.00000000000E+00 0. -1.
</event>
<event>
 7    1  0.2380582E-009  0.2580661E+03  0.7561462E-02  0.1108311E+00
         -2   -1    0    0    0  501 -0.00000000000E+00  0.00000000000E+00  0.15349402778E+03  0.15349402778E+03  0.00000000000E+00 0.  1.
          2   -1    0    0  501    0  0.00000000000E+00 -0.00000000000E+00 -0.46656605300E+03  0.46656605300E+03  0.00000000000E+00 0. -1.
         25    2    1    2    0    0  0.42998519226E+01 -0.24235202691E+03 -0.14255461796E+03  0.30776821286E+03  0.12508581085E+03 0.  0.
          5    1    3    3  502    0  0.38135488062E+02 -0.21080523540E+03 -0.14884708791E+03  0.26089478857E+03  0.41800000000E+01 0.  1.
         -5    1    3    3    0  502 -0.33835636140E+02 -0.31546791503E+02  0.62924699474E+01  0.46873424295E+02  0.41800000000E+01 0.  1.
        -11    1    1    2    0    0 -0.26128228583E+02  0.22495765688E+02 -0.22083131087E+01  0.34548812564E+02  0.00000000000E+00 0.  1.
         11    1    1    2    0    0  0.21828376661E+02  0.21985626122E+03 -0.16830909414E+03  0.27774305535E+03  0.00000000000E+00 0. -1.
</event>
<event>
 7    1  0.2380582E-009  0.1381677E+03  0.7561462E-02  0.1215816E+00
          1   -1    0    0  501    0  0.00000000000E+00  0.00000000000E+00  0.13463607945E+03  0.13463607945E+03  0.00000000000E+00 0. -1.
         -1   -1    0    0    0  501 -0.00000000000E+00 -0.00000000000E+00 -0.17967547735E+03  0.17967547735E+03  0.00000000000E+00 0.  1.
         25    2    1    2    0    0 -0.85248439765E+02 -0.40473054099E+02  0.34873821137E+02  0.16052118569E+03  0.12508198537E+03 0.  0.
          5    1    3    3  502    0 -0.54452347822E+02 -0.85722985755E+02  0.25997886292E+02  0.10491354041E+03  0.41800000000E+01 0. -1.
         -5    1    3    3    0  502 -0.30796091943E+02  0.45249931657E+02  0.88759348459E+01  0.55607645277E+02  0.41800000000E+01 0. -1.
        -11    1    1    2    0    0  0.61551437560E+02  0.62302913923E+02 -0.26657872545E+02  0.91547117473E+02  0.00000000000E+00 0.  1.
         11    1    1    2    0    0  0.23697002205E+02 -0.21829859824E+02 -0.53255346498E+02  0.62243253643E+02  0.00000000000E+00 0. -1.
</event>
<event>
 7    1  0.2380582E-009  0.1696169E+03  0.7561462E-02  0.1178248E+00
         -2   -1    0    0    0  501 -0.00000000000E+00  0.00000000000E+00  0.30839735359E+02  0.30839735359E+02  0.00000000000E+00 0.  1.
          2   -1    0    0  501    0  0.00000000000E+00 -0.00000000000E+00 -0.20430274385E+04  0.20430274385E+04  0.00000000000E+00 0. -1.
         25    2    1    2    0    0 -0.13066254567E+03 -0.69561437196E+02 -0.17465899590E+04  0.17573093271E+04  0.12509233358E+03 0.  0.
          5    1    3    3  502    0 -0.11281791826E+03 -0.87328593389E+02 -0.16790695087E+04  0.16851249370E+04  0.41800000000E+01 0. -1.
         -5    1    3    3    0  502 -0.17844627411E+02  0.17767156193E+02 -0.67520450342E+02  0.72184390148E+02  0.41800000000E+01 0. -1.
        -11    1    1    2    0    0  0.50311312885E+02  0.75146346354E+02 -0.12127525126E+03  0.15128082543E+03  0.00000000000E+00 0.  1.
         11    1    1    2    0    0  0.80351232787E+02 -0.55849091580E+01 -0.14432249288E+03  0.16527702130E+03  0.00000000000E+00 0. -1.
</event>
<event>
 7    1  0.2380582E-009  0.1135004E+03  0.7561462E-02  0.1254222E+00
          3   -1    0    0  501    0  0.00000000000E+00  0.00000000000E+00  0.35630131650E+03  0.35630131650E+03  0.00000000000E+00 0. -1.
         -3   -1    0    0    0  501 -0.00000000000E+00 -0.00000000000E+00 -0.44959353472E+02  0.44959353472E+02  0.00000000000E+00 0.  1.
         25    2    1    2    0    0  0.24850471547E+02 -0.57864610098E+02  0.14042708370E+03  0.19832810863E+03  0.12509362014E+03 0.  0.
          5    1    3    3  502    0 -0.36506788464E+02 -0.38780358068E+02  0.11903702408E+03  0.13047584941E+03  0.41800000000E+01 0.  1.
         -5    1    3    3    0  502  0.61357260011E+02 -0.19084252030E+02  0.21390059613E+02  0.67852259224E+02  0.41800000000E+01 0.  1.
        -11    1    1    2    0    0 -0.38340909947E+02 -0.10297780560E+02  0.56023728731E+02  0.68663875808E+02  0.00000000000E+00 0.  1.
         11    1    1    2    0    0  0.13490438401E+02  0.68162390658E+02  0.11489115060E+03  0.13426868553E+03  0.00000000000E+00 0. -1.
</event>
<event>
 7    1  0.2380582E-009  0.1824411E+03  0.7561462E-02  0.1165461E+00
          3   -1    0    0  501    0  0.00000000000E+00  0.00000000000E+00  0.22291803401E+03  0.22291803401E+03  0.00000000000E+00 0. -1.
         -3   -1    0    0    0  501 -0.00000000000E+00 -0.00000000000E+00 -0.19884977163E+03  0.19884977163E+03  0.00000000000E+00 0.  1.
         25    2    1    2    0    0  0.16089197523E+03  0.36160064582E+02 -0.59841646189E+02  0.21545948691E+03  0.12509192587E+03 0.  0.
          5    1    3    3  502    0  0.54685472246E+02  0.56008298702E+02 -0.72271693146E+02  0.10662129444E+03  0.41800000000E+01 0. -1.
         -5    1    3    3    0  502  0.10620650298E+03 -0.19848234119E+02  0.12430046956E+02  0.10883819247E+03  0.41800000000E+01 0. -1.
        -11    1    1    2    0    0 -0.10309027192E+03  0.11123912064E+02  0.80995158412E+02  0.13157340640E+03  0.00000000000E+00 0.  1.
         11    1    1    2    0    0 -0.57801703305E+02 -0.47283976647E+02  0.29147501574E+01  0.74734912330E+02  0.00000000000E+00 0. -1.
</event>
<event>
 7    1  0.2380582E-009  0.1047779E+03  0.7561462E-02  0.1270558E+00
         -1   -1    0    0    0  501 -0.00000000000E+00  0.00000000000E+00  0.14276653878E+02  0.14276653878E+02  0.00000000000E+00 0.  1.
          1   -1    0    0  501    0  0.00000000000E+00 -0.00000000000E+00 -0.90143701485E+03  0.90143701485E+03  0.00000000000E+00 0. -1.
         25    2    1    2    0    0 -0.25159621342E+02  0.17533332840E+02 -0.57819169095E+03  0.59236204563E+03  0.12508691903E+03 0.  0.
          5    1    3    3  502    0  0.47312742797E+02  0.18328127517E+02 -0.15964957070E+03  0.16757050371E+03  0.41800000000E+01 0.  1.
         -5    1    3    3    0  502 -0.72472364140E+02 -0.79479467706E+00 -0.41854212026E+03  0.42479154193E+03  0.41800000000E+01 0.  1.
        -11    1    1    2    0    0 -0.82761014237E+01  0.28203576782E+02 -0.47843500435E+02  0.56151011852E+02  0.00000000000E+00 0.  1.
         11    1    1    2    0    0  0.33435722766E+02 -0.45736909622E+02 -0.26112516958E+03  0.26720061124E+03  0.00000000000E+00 0. -1.
</event>
<event>
 7    1  0.2380582E-009  0.8641881E+02  0.7561462E-02  0.1311763E+00
          1   -1    0    0  501    0  0.00000000000E+00  0.00000000000E+00  0.90842066178E+02  0.90842066178E+02  0.00000000000E+00 0. -1.
         -1   -1    0    0    0  501 -0.00000000000E+00 -0.00000000000E+00 -0.15000957927E+03  0.15000957927E+03  0.00000000000E+00 0.  1.
         25    2    1    2    0    0 -0.12609691698E+02 -0.36478965531E+02 -0.44636642600E+02  0.13831047748E+03  0.12509052349E+03 0.  0.
          5    1    3    3  502    0 -0.32760021039E+02 -0.76391154763E+02 -0.42267664291E+02  0.93342676998E+02  0.41800000000E+01 0. -1.
         -5    1    3    3    0  502  0.20150329341E+02  0.39912189232E+02 -0.23689783084E+01  0.44967800480E+02  0.41800000000E+01 0. -1.
        -11    1    1    2    0    0  0.22160229764E+01  0.33935147326E+02  0.36799717578E+02  0.50107127194E+02  0.00000000000E+00 0. -1.
         11    1    1    2    0    0  0.10393668722E+02  0.25438182050E+01 -0.51330588073E+02  0.52434040780E+02  0.00000000000E+00 0.  1.
</event>
<event>
 7    1  0.2380582E-009  0.8694274E+02  0.7561462E-02  0.1310429E+00
          2   -1    0    0  501    0  0.00000000000E+00  0.00000000000E+00  0.19076815803E+02  0.19076815803E+02  0.00000000000E+00 0. -1.
         -2   -1    0    0    0  501 -0.00000000000E+00 -0.00000000000E+00 -0.85490988806E+03  0.85490988806E+03  0.00000000000E+00 0.  1.
         25    2    1    2    0    0  0.17963740772E+01  0.55555425515E+02 -0.60495622655E+03  0.62024628652E+03  0.12507512797E+03 0.  0.
          5    1    3    3  502    0 -0.18559607931E+02 -0.64238583561E+01 -0.11378047054E+02  0.23079370822E+02  0.41800000000E+01 0. -1.
         -5    1    3    3    0  502  0.20355982009E+02  0.61979283871E+02 -0.59357817949E+03  0.59716691570E+03  0.41800000000E+01 0. -1.
        -11    1    1    2    0    0 -0.31942425740E+02 -0.47483168508E+02 -0.72737749873E+02  0.92551337701E+02  0.00000000000E+00 0. -1.
         11    1    1    2    0    0  0.30146051663E+02 -0.80722570078E+01 -0.15813909584E+03  0.16118907965E+03  0.00000000000E+00 0.  1.
</event>
<event>
 7    1  0.2380582E-009  0.9359444E+02  0.7561462E-02  0.1294374E+00
          1   -1    0    0  501    0  0.00000000000E+00  0.00000000000E+00  0.31130654939E+02  0.31130654939E+02  0.00000000000E+00 0. -1.
         -1   -1    0    0    0  501 -0.00000000000E+00 -0.00000000000E+00 -0.40929767258E+03  0.40929767258E+03  0.00000000000E+00 0.  1.
         25    2    1    2    0    0  0.46609144749E+00 -0.23065401367E+01 -0.27794674089E+03  0.30480723736E+03  0.12509006279E+03 0.  0.
          5    1    3    3  502    0 -0.19067105415E+02  0.57247484085E+02 -0.11057156012E+03  0.12603321487E+03  0.41800000000E+01 0.  1.
         -5    1    3    3    0  502  0.19533196862E+02 -0.59554024222E+02 -0.16737518077E+03  0.17877402250E+03  0.41800000000E+01 0.  1.
        -11    1    1    2    0    0 -0.21257670783E+02 -0.22879614344E+02 -0.10904667027E+01  0.31249870996E+02  0.00000000000E+00 0. -1.
         11    1    1    2    0    0  0.20791579335E+02  0.25186154481E+02 -0.99129810043E+02  0.10437121916E+03  0.00000000000E+00 0.  1.
</event>
<event>
 7    1  0.2380582E-009  0.1763642E+03  0.7561462E-02  0.1171369E+00
         -2   -1    0    0    0  501 -0.00000000000E+00  0.00000000000E+00  0.34168259183E+02  0.34168259183E+02  0.00000000000E+00 0.  1.
          2   -1    0    0  501    0  0.00000000000E+00 -0.00000000000E+00 -0.11952764342E+04  0.11952764342E+04  0.00000000000E+00 0. -1.
         25    2    1    2    0    0 -0.15048377229E+03  0.46420775368E+02 -0.44895247087E+03  0.49194048979E+03  0.12508745056E+03 0.  0.
          5    1    3    3  502    0 -0.20380495150E+01  0.54505311058E+01  0.73922815195E+01  0.10294666640E+02  0.41800000000E+01 0. -1.
         -5    1    3    3    0  502 -0.14844572277E+03  0.40970244262E+02 -0.45634475239E+03  0.48164582315E+03  0.41800000000E+01 0. -1.
        -11    1    1    2    0    0  0.14613100326E+02  0.31612547346E+02 -0.14237883581E+03  0.14657635804E+03  0.00000000000E+00 0.  1.
         11    1    1    2    0    0  0.13587067196E+03 -0.78033322714E+02 -0.56977686832E+03  0.59092784554E+03  0.00000000000E+00 0. -1.
</event>
<event>
 7    1  0.2380582E-009  0.8464549E+02  0.7561462E-02  0.1316362E+00
         -1   -1    0    0    0  501 -0.00000000000E+00  0.00000000000E+00  0.24439907983E+02  0.24439907983E+02  0.00000000000E+00 0.  1.
          1   -1    0    0  501    0  0.00000000000E+00 -0.00000000000E+00 -0.52667495162E+03  0.52667495162E+03  0.00000000000E+00 0. -1.
         25    2    1    2    0    0  0.22940726291E+02  0.21184126266E+02 -0.27625994990E+03  0.30486292105E+03  0.12508715595E+03 0.  0.
          5    1    3    3  502    0  0.51477608880E+02  0.21449173088E+02 -0.26949666094E+03  0.27523795868E+03  0.41800000000E+01 0. -1.
         -5    1    3    3    0  502 -0.28536882588E+02 -0.26504682241E+00 -0.67632889584E+01  0.29624962367E+02  0.41800000000E+01 0. -1.
        -11    1    1    2    0    0 -0.25370226269E+02 -0.49755313172E+02 -0.80494846129E+02  0.97972750411E+02  0.00000000000E+00 0.  1.
         11    1    1    2    0    0  0.24294999776E+01  0.28571186906E+02 -0.14548024762E+03  0.14827918815E+03  0.00000000000E+00 0. -1.
</event>
<event>
 7    1  0.2380582E-009  0.1032261E+03  0.7561462E-02  0.1273654E+00
          1   -1    0    0  501    0  0.00000000000E+00  0.00000000000E+00  0.26026591709E+03  0.26026591709E+03  0.00000000000E+00 0. -1.
         -1   -1    0    0    0  501 -0.00000000000E+00 -0.00000000000E+00 -0.66299362370E+02  0.66299362370E+02  0.00000000000E+00 0.  1.
         25    2    1    2    0    0 -0.37129408894E+02 -0.35760010293E+02  0.17490743942E+03  0.22112805617E+03  0.12509050132E+03 0.  0.
          5    1    3    3  502    0 -0.25611988995E+01  0.29003485466E+02  0.13357808325E+03  0.13677842898E+03  0.41800000000E+01 0. -1.
         -5    1    3    3    0  502 -0.34568209995E+02 -0.64763495759E+02  0.41329356161E+02  0.84349627183E+02  0.41800000000E+01 0. -1.
        -11    1    1    2    0    0 -0.18519320459E+02 -0.18219411845E+02  0.20084457883E+01  0.26056593268E+02  0.00000000000E+00 0. -1.
         11    1    1    2    0    0  0.55648729353E+02  0.53979422138E+02  0.17050669520E+02  0.79380630031E+02  0.00000000000E+00 0.  1.
</event>
<event>
 7    1  0.2380582E-009  0.1668421E+03  0.7561462E-02  0.1181182E+00
          2   -1    0    0  501    0  0.00000000000E+00  0.00000000000E+00  0.47864559862E+03  0.47864559862E+03  0.00000000000E+00 0. -1.
         -2   -1    0    0    0  501 -0.00000000000E+00 -0.00000000000E+00 -0.73504544908E+02  0.73504544908E+02  0.00000000000E+00 0.  1.
         25    2    1    2    0    0 -0.13125591426E+03 -0.57424644824E+02  0.29504547781E+03  0.35103517267E+03  0.12509258017E+03 0.  0.
          5    1    3    3  502    0 -0.80847110260E+02  0.32323605816E+02  0.13635173930E+03  0.16183429779E+03  0.41800000000E+01 0. -1.
         -5    1    3    3    0  502 -0.50408804003E+02 -0.89748250640E+02  0.15869373851E+03  0.18920087488E+03  0.41800000000E+01 0. -1.
        -11    1    1    2    0    0  0.79203967276E+02  0.38925451958E+02  0.11578221874E+03  0.14558152843E+03  0.00000000000E+00 0. -1.
         11    1    1    2    0    0  0.52051946987E+02  0.18499192866E+02 -0.56866428366E+01  0.55533442434E+02  0.00000000000E+00 0.  1.
</event>
<event>
 7    1  0.2380582E-009  0.3232141E+03  0.7561462E-02  0.1074180E+00
          2   -1    0    0  501    0  0.00000000000E+00  0.00000000000E+00  0.86887023840E+03  0.86887023840E+03  0.00000000000E+00 0. -1.
         -2   -1    0    0    0  501 -0.00000000000E+00 -0.00000000000E+00 -0.12384464105E+03  0.12384464105E+03  0.00000000000E+00 0.  1.
         25    2    1    2    0    0 -0.21490397371E+03  0.22241866782E+03  0.37568263226E+03  0.50242843632E+03  0.12507242592E+03 0.  0.
          5    1    3    3  502    0 -0.10332501212E+03  0.35370304249E+02  0.81317258116E+02  0.13622439363E+03  0.41800000000E+01 0. -1.
         -5    1    3    3    0  502 -0.11157896159E+03  0.18704836358E+03  0.29436537415E+03  0.36620404269E+03  0.41800000000E+01 0. -1.
        -11    1    1    2    0    0  0.17303410616E+03 -0.12560355554E+03  0.21395925891E+03  0.30248242847E+03  0.00000000000E+00 0.  1.
         11    1    1    2    0    0  0.41869867552E+02 -0.96815112290E+02  0.15538370618E+03  0.18780401466E+03  0.00000000000E+00 0. -1.
</event>
<event>
 7    1  0.2380582E-009  0.1365454E+03  0.7561462E-02  0.1218054E+00
          1   -1    0    0  501    0  0.00000000000E+00  0.00000000000E+00  0.37142183559E+03  0.37142183559E+03  0.00000000000E+00 0. -1.
         -1   -1    0    0    0  501 -0.00000000000E+00 -0.00000000000E+00 -0.70618203799E+02  0.70618203799E+02  0.00000000000E+00 0.  1.
         25    2    1    2    0    0 -0.10794943423E+03  0.14175657503E+02  0.22854355721E+03  0.28237262549E+03  0.12509241571E+03 0.  0.
          5    1    3    3  502    0 -0.60442506359E+02 -0.37250427376E+02  0.40885535802E+02  0.82036518408E+02  0.41800000000E+01 0.  1.
         -5    1    3    3    0  502 -0.47506927868E+02  0.51426084880E+02  0.18765802140E+03  0.20033610708E+03  0.41800000000E+01 0.  1.
        -11    1    1    2    0    0  0.10265781627E+03 -0.36451374338E+02  0.32320553728E+02  0.11363075343E+03  0.00000000000E+00 0.  1.
         11    1    1    2    0    0  0.52916179582E+01  0.22275716835E+02  0.39939520859E+02  0.46036660474E+02  0.00000000000E+00 0. -1.
</event>
<event>
 7    1  0.2380582E-009  0.1151026E+03  0.7561462E-02  0.1251402E+00
          1   -1    0    0  501    0  0.00000000000E+00  0.00000000000E+00  0.57493923957E+02  0.57493923957E+02  0.00000000000E+00 0. -1.
         -1   -1    0    0    0  501 -0.00000000000E+00 -0.00000000000E+00 -0.38269382418E+03  0.38269382418E+03  0.00000000000E+00 0.  1.
         25    2    1    2    0    0  0.94380249467E+02 -0.93074427070E+01 -0.12618725510E+03  0.20140543008E+03  0.12508662573E+03 0.  0.
          5    1    3    3  502    0  0.82353207837E+02 -0.34543019034E+02 -0.14290468538E+03  0.16856598859E+03  0.41800000000E+01 0.  1.
         -5    1    3    3    0  502  0.12027041630E+02  0.25235576327E+02  0.16717430274E+02  0.32839441498E+02  0.41800000000E+01 0.  1.
        -11    1    1    2    0    0 -0.25149744227E+02  0.31064077437E+02 -0.13894263563E+03  0.14457711623E+03  0.00000000000E+00 0.  1.
         11    1    1    2    0    0 -0.69230505240E+02 -0.21756634730E+02 -0.60070009489E+02  0.94205201823E+02  0.00000000000E+00 0. -1.
</event>
<event>
 7    1  0.2380582E-009  0.1100935E+03  0.7561462E-02  0.1260397E+00
          1   -1    0    0  501    0  0.00000000000E+00  0.00000000000E+00  0.96570834447E+03  0.96570834447E+03  0.00000000000E+00 0. -1.
         -1   -1    0    0    0  501 -0.00000000000E+00 -0.00000000000E+00 -0.24624285191E+02  0.24624285191E+02  0.00000000000E+00 0.  1.
         25    2    1    2    0    0 -0.66964334381E+02 -0.76470091418E+02  0.65598790696E+03  0.67550203298E+03  0.12510381896E+03 0.  0.
          5    1    3    3  502    0 -0.77303738158E+02 -0.71873448109E+02  0.65492840252E+03  0.66339305491E+03  0.41800000000E+01 0. -1.
         -5    1    3    3    0  502  0.10339403777E+02 -0.45966433082E+01  0.10595044400E+01  0.12108978067E+02  0.41800000000E+01 0. -1.
        -11    1    1    2    0    0  0.58769882560E+02  0.59438477179E+02  0.28383627166E+03  0.29588825725E+03  0.00000000000E+00 0. -1.
         11    1    1    2    0    0  0.81944518209E+01  0.17031614239E+02  0.12598806608E+01  0.18942339441E+02  0.00000000000E+00 0.  1.
</event>
<event>
 7    1  0.2380582E-009  0.9187596E+02  0.7561462E-02  0.1298371E+00
         -1   -1    0    0    0  501 -0.00000000000E+00  0.00000000000E+00  0.10742301804E+03  0.10742301804E+03  0.00000000000E+00 0.  1.
          1   -1    0    0  501    0  0.00000000000E+00 -0.00000000000E+00 -0.13373508895E+03  0.13373508895E+03  0.00000000000E+00 0. -1.
         25    2    1    2    0    0  0.51277479367E+02  0.35255870531E+01 -0.23894998228E+02  0.13733167274E+03  0.12508879943E+03 0.  0.
          5    1    3    3  502    0  0.24970176644E+02 -0.31536543684E+02 -0.65352317271E+02  0.76853504031E+02  0.41800000000E+01 0.  1.
         -5    1    3    3    0  502  0.26307302723E+02  0.35062130737E+02  0.41457319042E+02  0.60478168710E+02  0.41800000000E+01 0.  1.
        -11    1    1    2    0    0 -0.43451342684E+02  0.37570971910E+02 -0.16364406682E+02  0.59727639475E+02  0.00000000000E+00 0.  1.
         11    1    1    2    0    0 -0.78261366836E+01 -0.41096558963E+02  0.13947334001E+02  0.44098794765E+02  0.00000000000E+00 0. -1.
</event>
<event>
 7    1  0.2380582E-009  0.8304410E+02  0.7561462E-02  0.1320628E+00
         -2   -1    0    0    0  501 -0.00000000000E+00  0.00000000000E+00  0.48899856075E+02  0.48899856075E+02  0.00000000000E+00 0.  1.
          2   -1    0    0  501    0  0.00000000000E+00 -0.00000000000E+00 -0.29460094661E+03  0.29460094661E+03  0.00000000000E+00 0. -1.
         25    2    1    2    0    0 -0.41904079695E+02 -0.25225153305E+02 -0.10963883525E+03  0.17336526396E+03  0.12507030142E+03 0.  0.
          5    1    3    3  502    0  0.65539348855E+01 -0.47099143634E+02 -0.11013212206E+03  0.12003266265E+03  0.41800000000E+01 0. -1.
         -5    1    3    3    0  502 -0.48458014581E+02  0.21873990329E+02  0.49328680691E+00  0.53332601304E+02  0.41800000000E+01 0. -1.
        -11    1    1    2    0    0  0.32884088419E+02 -0.51953554056E+01 -0.13429140968E+03  0.13835656003E+03  0.00000000000E+00 0. -1.
         11    1    1    2    0    0  0.90199912767E+01  0.30420508711E+02 -0.17708455972E+01  0.31778978697E+02  0.00000000000E+00 0.  1.
</event>
<event>
 7    1  0.2380582E-009  0.2141749E+03  0.7561462E-02  0.1138302E+00
          3   -1    0    0  501    0  0.00000000000E+00  0.00000000000E+00  0.19558471778E+03  0.19558471778E+03  0.00000000000E+00 0. -1.
         -3   -1    0    0    0  501 -0.00000000000E+00 -0.00000000000E+00 -0.24600506884E+03  0.24600506884E+03  0.00000000000E+00 0.  1.
         25    2    1    2    0    0 -0.18535025141E+03 -0.42874091468E+02 -0.22621168251E+02  0.22880552346E+03  0.12508935566E+03 0.  0.
          5    1    3    3  502    0 -0.76980867582E+02 -0.81747409171E+02 -0.75841599024E+01  0.11262186627E+03  0.41800000000E+01 0.  1.
         -5    1    3    3    0  502 -0.10836938382E+03  0.38873317702E+02 -0.15037008348E+02  0.11618365720E+03  0.41800000000E+01 0.  1.
        -11    1    1    2    0    0  0.74267671600E+02 -0.14626897286E+02 -0.42551244780E+02  0.86834564555E+02  0.00000000000E+00 0. -1.
         11    1    1    2    0    0  0.11108257981E+03  0.57500988755E+02  0.14752061975E+02  0.12594969860E+03  0.00000000000E+00 0.  1.
</event>
<event>
 7    1  0.2380582E-009  0.1192398E+03  0.7561462E-02  0.1244356E+00
          2   -1    0    0  501    0  0.00000000000E+00  0.00000000000E+00  0.52978259129E+03  0.52978259129E+03  0.00000000000E+00 0. -1.
         -2   -1    0    0    0  501 -0.00000000000E+00 -0.00000000000E+00 -0.66619440833E+02  0.66619440833E+02  0.00000000000E+00 0.  1.
         25    2    1    2    0    0 -0.45046101667E+02 -0.52388780607E+02  0.26588034418E+02  0.14535372149E+03  0.12508814959E+03 0.  0.
          5    1    3    3  502    0  0.13760329305E+02  0.27924394903E+02  0.32949576513E+02  0.45522142806E+02  0.41800000000E+01 0. -1.
         -5    1    3    3    0  502 -0.58806430971E+02 -0.80313175510E+02 -0.63615420953E+01  0.99831578681E+02  0.41800000000E+01 0. -1.
        -11    1    1    2    0    0  0.80297694086E+01  0.67121684012E+02  0.33860798559E+03  0.34528997316E+03  0.00000000000E+00 0. -1.
         11    1    1    2    0    0  0.37016332258E+02 -0.14732903404E+02  0.97967130450E+02  0.10575833747E+03  0.00000000000E+00 0.  1.
</event>
<event>
 7    1  0.2380582E-009  0.1172169E+03  0.7561462E-02  0.1247760E+00
         -1   -1    0    0    0  501 -0.00000000000E+00  0.00000000000E+00  0.62306637194E+02  0.62306637194E+02  0.00000000000E+00 0.  1.
          1   -1    0    0  501    0  0.00000000000E+00 -0.00000000000E+00 -0.33513887430E+03  0.33513887430E+03  0.00000000000E+00 0. -1.
         25    2    1    2    0    0 -0.27466861847E+01  0.45379294958E+02 -0.26390892515E+03  0.29557198176E+03  0.12509216974E+03 0.  0.
          5    1    3    3  502    0  0.60733251118E+02  0.28156064291E+02 -0.12691908472E+03  0.14355214458E+03  0.41800000000E+01 0.  1.
         -5    1    3    3    0  502 -0.63479937303E+02  0.17223230667E+02 -0.13698984043E+03  0.15201983718E+03  0.41800000000E+01 0.  1.
        -11    1    1    2    0    0  0.41719041262E+02 -0.10970128243E+00 -0.48585373553E+01  0.42001140740E+02  0.00000000000E+00 0. -1.
         11    1    1    2    0    0 -0.38972355078E+02 -0.45269593675E+02 -0.40647746040E+01  0.59872388998E+02  0.00000000000E+00 0.  1.
</event>
<event>
 7    1  0.2380582E-009  0.1232089E+03  0.7561462E-02  0.1237895E+00
          2   -1    0    0  501    0  0.00000000000E+00  0.00000000000E+00  0.48337117201E+02  0.48337117201E+02  0.00000000000E+00 0. -1.
         -2   -1    0    0    0  501 -0.00000000000E+00 -0.00000000000E+00 -0.49610043987E+03  0.49610043987E+03  0.00000000000E+00 0.  1.
         25    2    1    2    0    0 -0.75515720267E+02  0.79246178350E+02 -0.24709823234E+03  0.29780452419E+03  0.12508963750E+03 0.  0.
          5    1    3    3  502    0 -0.92788613877E+02  0.60418645090E+02 -0.10261955262E+03  0.15102445007E+03  0.41800000000E+01 0.  1.
         -5    1    3    3    0  502  0.17272893610E+02  0.18827533260E+02 -0.14447867973E+03  0.14678007412E+03  0.41800000000E+01 0.  1.
        -11    1    1    2    0    0  0.32841974547E+02 -0.39909106198E+02 -0.17624367114E+03  0.18366590230E+03  0.00000000000E+00 0.  1.
         11    1    1    2    0    0  0.42673745720E+02 -0.39337072152E+02 -0.24421419187E+02  0.62967130587E+02  0.00000000000E+00 0. -1.
</event>
<event>
 7    1  0.2380582E-009  0.9788985E+02  0.7561462E-02  0.1284797E+00
          2   -1    0    0  501    0  0.00000000000E+00  0.00000000000E+00  0.37513352359E+03  0.37513352359E+03  0.00000000000E+00 0. -1.
         -2   -1    0    0    0  501 -0.00000000000E+00 -0.00000000000E+00 -0.33593070698E+02  0.33593070698E+02  0.00000000000E+00 0.  1.
         25    2    1    2    0    0  0.29829346948E+02 -0.73684020359E+01  0.17928671235E+03  0.22076066543E+03  0.12508981929E+03 0.  0.
          5    1    3    3  502    0  0.74904229564E+02 -0.14018658768E+02  0.14402100836E+03  0.16299291288E+03  0.41800000000E+01 0. -1.
         -5    1    3    3    0  502 -0.45074882616E+02  0.66502567321E+01  0.35265703988E+02  0.57767752555E+02  0.41800000000E+01 0. -1.
        -11    1    1    2    0    0 -0.51152841075E+02  0.22430488847E-01  0.43675385844E+02  0.67261824104E+02  0.00000000000E+00 0.  1.
         11    1    1    2    0    0  0.21323494127E+02  0.73459715471E+01  0.11857835471E+03  0.12070410475E+03  0.00000000000E+00 0. -1.
</event>
<event>
 7    1  0.2380582E-009  0.1009477E+03  0.7561462E-02  0.1278316E+00
          2   -1    0    0  501    0  0.00000000000E+00  0.00000000000E+00  0.64522223794E+02  0.64522223794E+02  0.00000000000E+00 0. -1.
         -2   -1    0    0    0  501 -0.00000000000E+00 -0.00000000000E+00 -0.24021440516E+03  0.24021440516E+03  0.00000000000E+00 0.  1.
         25    2    1    2    0    0 -0.35472167725E+02  0.13752719378E+02 -0.15632318976E+03  0.20379087660E+03  0.12508544982E+03 0.  0.
          5    1    3    3  502    0 -0.48216304614E+02 -0.38253902527E+02 -0.34565138577E+02  0.70713466144E+02  0.41800000000E+01 0. -1.
         -5    1    3    3    0  502  0.12744136889E+02  0.52006621905E+02 -0.12175805118E+03  0.13307741046E+03  0.41800000000E+01 0. -1.
        -11    1    1    2    0    0  0.38470631843E+02 -0.42654520933E+02 -0.35683746420E+02  0.67621944878E+02  0.00000000000E+00 0.  1.
         11    1    1    2    0    0 -0.29984641185E+01  0.28901801555E+02  0.16314754811E+02  0.33323807476E+02  0.00000000000E+00 0. -1.
</event>
<event>
 7    1  0.2380582E-009  0.9540521E+02  0.7561462E-02  0.1290266E+00
          3   -1    0    0  501    0  0.00000000000E+00  0.00000000000E+00  0.31725819784E+02  0.31725819784E+02  0.00000000000E+00 0. -1.
         -3   -1    0    0    0  501 -0.00000000000E+00 -0.00000000000E+00 -0.53132069204E+03  0.53132069204E+03  0.00000000000E+00 0.  1.
         25    2    1    2    0    0 -0.10736092837E+02 -0.71425357793E+02 -0.25805613089E+03  0.29573161131E+03  0.12508946323E+03 0.  0.
          5    1    3    3  502    0  0.93270476619E+01 -0.25058462128E+02 -0.24059852645E+03  0.24211576502E+03  0.41800000000E+01 0.  1.
         -5    1    3    3    0  502 -0.20063140499E+02 -0.46366895664E+02 -0.17457604444E+02  0.53615846288E+02  0.41800000000E+01 0.  1.
        -11    1    1    2    0    0 -0.37574130469E+01 -0.20069337213E+02 -0.29011599986E+02  0.35476321437E+02  0.00000000000E+00 0.  1.
         11    1    1    2    0    0  0.14493505884E+02  0.91494695006E+02 -0.21252714138E+03  0.23183857908E+03  0.00000000000E+00 0. -1.
</event>
<event>
 7    1  0.2380582E-009  0.8916873E+02  0.7561462E-02  0.1304877E+00
          2   -1    0    0  501    0  0.00000000000E+00  0.00000000000E+00  0.24813874118E+03  0.24813874118E+03  0.00000000000E+00 0.  1.
         -2   -1    0    0    0  501 -0.00000000000E+00 -0.00000000000E+00 -0.53893237851E+02  0.53893237851E+02  0.00000000000E+00 0. -1.
         25    2    1    2    0    0  0.39005352798E+02  0.13402529987E+02  0.88473127373E+02  0.15866972975E+03  0.12509014155E+03 0.  0.
          5    1    3    3  502    0 -0.12435005301E+02 -0.17148093186E+02  0.95842505758E+02  0.98244311625E+02  0.41800000000E+01 0.  1.
         -5    1    3    3    0  502  0.51440358098E+02  0.30550623173E+02 -0.73693783848E+01  0.60425418123E+02  0.41800000000E+01 0.  1.
        -11    1    1    2    0    0 -0.40224144065E+02 -0.47732422767E+02  0.68080934596E+02  0.92365467598E+02  0.00000000000E+00 0. -1.
         11    1    1    2    0    0  0.12187912677E+01  0.34329892780E+02  0.37691441361E+02  0.50996781686E+02  0.00000000000E+00 0.  1.
</event>
<event>
 7    1  0.3108383E-009  0.9779845E+02  0.7561462E-02  0.1284995E+00
          1   -1    0    0  501    0  0.00000000000E+00  0.00000000000E+00  0.80450716354E+03  0.80450716354E+03  0.00000000000E+00 0. -1.
         -1   -1    0    0    0  501 -0.00000000000E+00 -0.00000000000E+00 -0.24711517138E+02  0.24711517138E+02  0.00000000000E+00 0.  1.
         25    2    1    2    0    0 -0.28188711734E+02  0.72870427554E+02  0.55339555633E+03  0.57271171864E+03  0.12508944087E+03 0.  0.
          5    1    3    3  502    0 -0.13012976571E+02 -0.72283772838E+01  0.23338680656E+01  0.15636698422E+02  0.41800000000E+01 0.  1.
         -5    1    3    3    0  502 -0.15175735163E+02  0.80098804838E+02  0.55106168827E+03  0.55707502022E+03  0.41800000000E+01 0.  1.
        -11    1    1    2    0    0  0.41729176196E+02 -0.24753436828E+02  0.38113963021E+02  0.61698711153E+02  0.00000000000E+00 0.  1.
         11    1    1    2    0    0 -0.13540464462E+02 -0.48116990726E+02  0.18828612705E+03  0.19480825089E+03  0.00000000000E+00 0. -1.
</event>
<event>
 7    1  0.2380582E-009  0.1008451E+03  0.7561462E-02  0.1278529E+00
         -2   -1    0    0    0  501 -0.00000000000E+00  0.00000000000E+00  0.41645028420E+02  0.41645028420E+02  0.00000000000E+00 0.  1.
          2   -1    0    0  501    0  0.00000000000E+00 -0.00000000000E+00 -0.30384579141E+03  0.30384579141E+03  0.00000000000E+00 0. -1.
         25    2    1    2    0    0  0.12296435766E+01  0.13876286544E+02 -0.18212866531E+03  0.22138807603E+03  0.12509103136E+03 0.  0.
          5    1    3    3  502    0  0.36908824153E+02 -0.38341106194E+02 -0.12554886075E+03  0.13642686891E+03  0.41800000000E+01 0.  1.
         -5    1    3    3    0  502 -0.35679180576E+02  0.52217392738E+02 -0.56579804561E+02  0.84961207119E+02  0.41800000000E+01 0.  1.
        -11    1    1    2    0    0 -0.30234475432E+02 -0.37035544450E+02 -0.16664542364E+02  0.50630643188E+02  0.00000000000E+00 0.  1.
         11    1    1    2    0    0  0.29004831856E+02  0.23159257907E+02 -0.63407555309E+02  0.73472100610E+02  0.00000000000E+00 0. -1.
</event>
<event>
 7    1  0.2380582E-009  0.3113225E+03  0.7561462E-02  0.1079714E+00
          1   -1    0    0  501    0  0.00000000000E+00  0.00000000000E+00  0.81646383332E+03  0.81646383332E+03  0.00000000000E+00 0. -1.
         -1   -1    0    0    0  501 -0.00000000000E+00 -0.00000000000E+00 -0.13585135511E+03  0.13585135511E+03  0.00000000000E+00 0.  1.
         25    2    1    2    0    0  0.26017782926E+03 -0.17077960711E+03  0.28318169717E+03  0.43897394749E+03  0.12509226962E+03 0.  0.
          5    1    3    3  502    0  0.21289065602E+03 -0.14103872893E+03  0.15417973682E+03  0.29833407135E+03  0.41800000000E+01 0.  1.
         -5    1    3    3    0  502  0.47287173244E+02 -0.29740878179E+02  0.12900196035E+03  0.14063987615E+03  0.41800000000E+01 0.  1.
        -11    1    1    2    0    0 -0.19125939676E+03  0.12591577876E+03  0.21891210376E+03  0.31679243893E+03  0.00000000000E+00 0. -1.
         11    1    1    2    0    0 -0.68918432502E+02  0.44863828350E+02  0.17851867728E+03  0.19654880201E+03  0.00000000000E+00 0.  1.
</event>
<event>
 7    1  0.2380582E-009  0.1212981E+03  0.7561462E-02  0.1240971E+00
         -2   -1    0    0    0  501 -0.00000000000E+00  0.00000000000E+00  0.17460566535E+03  0.17460566535E+03  0.00000000000E+00 0.  1.
          2   -1    0    0  501    0  0.00000000000E+00 -0.00000000000E+00 -0.88997465472E+02  0.88997465472E+02  0.00000000000E+00 0. -1.
         25    2    1    2    0    0 -0.48791708308E+02  0.37272906913E+02  0.58669674619E+02  0.15119509356E+03  0.12509166722E+03 0.  0.
          5    1    3    3  502    0  0.39523163230E+02  0.99774968349E+01 -0.11823986376E+01  0.40993918346E+02  0.41800000000E+01 0.  1.
         -5    1    3    3    0  502 -0.88314871539E+02  0.27295410078E+02  0.59852073256E+02  0.11020117522E+03  0.41800000000E+01 0.  1.
        -11    1    1    2    0    0 -0.26693106803E+02 -0.13729546268E+02  0.88465126161E+01  0.31293500555E+02  0.00000000000E+00 0. -1.
         11    1    1    2    0    0  0.75484815112E+02 -0.23543360645E+02  0.18092012643E+02  0.81114536702E+02  0.00000000000E+00 0.  1.
</event>
<event>
 7    1  0.2380582E-009  0.8527306E+02  0.7561462E-02  0.1314720E+00
          3   -1    0    0  501    0  0.00000000000E+00  0.00000000000E+00  0.12078916706E+03  0.12078916706E+03  0.00000000000E+00 0. -1.
         -3   -1    0    0    0  501 -0.00000000000E+00 -0.00000000000E+00 -0.11964082545E+03  0.11964082545E+03  0.00000000000E+00 0.  1.
         25    2    1    2    0    0 -0.21795456123E+02 -0.39403293279E+01  0.46089937618E+02  0.13513855581E+03  0.12509028265E+03 0.  0.
          5    1    3    3  502    0 -0.61083557466E+02  0.30377600563E+02  0.48698889128E+01  0.68521440635E+02  0.41800000000E+01 0.  1.
         -5    1    3    3    0  502  0.39288101343E+02 -0.34317929891E+02  0.41220048705E+02  0.66617115177E+02  0.41800000000E+01 0.  1.
        -11    1    1    2    0    0  0.18942035857E+02  0.23451682167E+02 -0.68339083847E+02  0.74692787470E+02  0.00000000000E+00 0.  1.
         11    1    1    2    0    0  0.28534202660E+01 -0.19511352839E+02  0.23397487841E+02  0.30598649220E+02  0.00000000000E+00 0. -1.
</event>
<event>
 7    1  0.2380582E-009  0.1149470E+03  0.7561462E-02  0.1251674E+00
         -2   -1    0    0    0  501 -0.00000000000E+00  0.00000000000E+00  0.10375375440E+03  0.10375375440E+03  0.00000000000E+00 0.  1.
          2   -1    0    0  501    0  0.00000000000E+00 -0.00000000000E+00 -0.18605926260E+03  0.18605926260E+03  0.00000000000E+00 0. -1.
         25    2    1    2    0    0  0.49192690320E+02  0.72833880546E+02 -0.56798569452E+02  0.16309067867E+03  0.12509115493E+03 0.  0.
          5    1    3    3  502    0  0.41750481196E+02  0.82743409754E+02  0.11560514166E+02  0.93491670354E+02  0.41800000000E+01 0. -1.
         -5    1    3    3    0  502  0.74422091247E+01 -0.99095292081E+01 -0.68359083618E+02  0.69599008318E+02  0.41800000000E+01 0. -1.
        -11    1    1    2    0    0  0.33719795344E+01 -0.71376503813E+02 -0.12336334322E+02  0.72513175955E+02  0.00000000000E+00 0. -1.
         11    1    1    2    0    0 -0.52564669855E+02 -0.14573767330E+01 -0.13170604427E+02  0.54209162370E+02  0.00000000000E+00 0.  1.
</event>
<event>
 7    1  0.2380582E-009  0.1236799E+03  0.7561462E-02  0.1237147E+00
         -1   -1    0    0    0  501 -0.00000000000E+00  0.00000000000E+00  0.51308045733E+02  0.51308045733E+02  0.00000000000E+00 0.  1.
          1   -1    0    0  501    0  0.00000000000E+00 -0.00000000000E+00 -0.41178607655E+03  0.41178607655E+03  0.00000000000E+00 0. -1.
         25    2    1    2    0    0  0.82135729911E+02 -0.43962263507E+02 -0.23230220294E+03  0.27980450518E+03  0.12508912378E+03 0.  0.
          5    1    3    3  502    0 -0.22443663654E+02  0.17636933423E+02 -0.19610493190E+02  0.34882994452E+02  0.41800000000E+01 0.  1.
         -5    1    3    3    0  502  0.10457939356E+03 -0.61599196930E+02 -0.21269170975E+03  0.24492151072E+03  0.41800000000E+01 0.  1.
        -11    1    1    2    0    0 -0.33667287114E+02  0.33473761581E+02 -0.12486823331E+03  0.13358912615E+03  0.00000000000E+00 0. -1.
         11    1    1    2    0    0 -0.48468442796E+02  0.10488501925E+02 -0.33075945746E+01  0.49700490959E+02  0.00000000000E+00 0.  1.
</event>
<event>
 7    1  0.2380582E-009  0.1850571E+03  0.7561462E-02  0.1162997E+00
          4   -1    0    0  501    0  0.00000000000E+00  0.00000000000E+00  0.30203542960E+03  0.30203542960E+03  0.00000000000E+00 0. -1.
         -4   -1    0    0    0  501 -0.00000000000E+00 -0.00000000000E+00 -0.15608419495E+03  0.15608419495E+03  0.00000000000E+00 0.  1.
         25    2    1    2    0    0  0.79153438744E+02 -0.16423828462E+03  0.12582490358E+03  0.25439770886E+03  0.12508719723E+03 0.  0.
          5    1    3    3  502    0  0.53371261771E+02 -0.10921428660E+03  0.14619302183E+03  0.19017393095E+03  0.41800000000E+01 0. -1.
         -5    1    3    3    0  502  0.25782176973E+02 -0.55023998027E+02 -0.20368118251E+02  0.64223777913E+02  0.41800000000E+01 0. -1.
        -11    1    1    2    0    0 -0.71570339720E+02  0.10045119822E+03 -0.24179769725E+02  0.12568777990E+03  0.00000000000E+00 0.  1.
         11    1    1    2    0    0 -0.75830990237E+01  0.63787086406E+02  0.44306100796E+02  0.78034135804E+02  0.00000000000E+00 0. -1.
</event>
<event>
 7    1  0.2380582E-009  0.8809769E+02  0.7561462E-02  0.1307525E+00
          2   -1    0    0  501    0  0.00000000000E+00  0.00000000000E+00  0.83486173094E+02  0.83486173094E+02  0.00000000000E+00 0. -1.
         -2   -1    0    0    0  501 -0.00000000000E+00 -0.00000000000E+00 -0.15153598909E+03  0.15153598909E+03  0.00000000000E+00 0.  1.
         25    2    1    2    0    0  0.25166201426E+02  0.20499031963E+01 -0.15732047141E+02  0.12857900002E+03  0.12509005613E+03 0.  0.
          5    1    3    3  502    0  0.51113671617E+02  0.41584435775E+02  0.20193560761E+02  0.69044369945E+02  0.41800000000E+01 0.  1.
         -5    1    3    3    0  502 -0.25947470191E+02 -0.39534532579E+02 -0.35925607902E+02  0.59534630079E+02  0.41800000000E+01 0.  1.
        -11    1    1    2    0    0 -0.28455522586E+02  0.23519063062E+02  0.10633398993E+02  0.38417863906E+02  0.00000000000E+00 0. -1.
         11    1    1    2    0    0  0.32893211601E+01 -0.25568966258E+02 -0.62951167850E+02  0.68025298256E+02  0.00000000000E+00 0.  1.
</event>
<event>
 7    1  0.2380582E-009  0.1745367E+03  0.7561462E-02  0.1173198E+00
         -2   -1    0    0    0  501 -0.00000000000E+00  0.00000000000E+00  0.58833661912E+02  0.58833661912E+02  0.00000000000E+00 0.  1.
          2   -1    0    0  501    0  0.00000000000E+00 -0.00000000000E+00 -0.63364649698E+03  0.63364649698E+03  0.00000000000E+00 0. -1.
         25    2    1    2    0    0 -0.12310659930E+03 -0.94349482926E+02 -0.24472217938E+03  0.31558534242E+03  0.12509238007E+03 0.  0.
          5    1    3    3  502    0  0.18400217733E+02  0.48820108112E+01 -0.57675163980E+02  0.60879380601E+02  0.41800000000E+01 0. -1.
         -5    1    3    3    0  502 -0.14150681704E+03 -0.99231493737E+02 -0.18704701540E+03  0.25470596182E+03  0.41800000000E+01 0. -1.
        -11    1    1    2    0    0  0.83513722428E+02  0.76553714886E+02 -0.30802773565E+03  0.32820130869E+03  0.00000000000E+00 0. -1.
         11    1    1    2    0    0  0.39592876877E+02  0.17795768040E+02 -0.22062920046E+02  0.48693507786E+02  0.00000000000E+00 0.  1.
</event>
<event>
 7    1  0.2996044E-009  0.9167762E+02  0.7561462E-02  0.1298839E+00
          2   -1    0    0  501    0  0.00000000000E+00  0.00000000000E+00  0.57886691686E+03  0.57886691686E+03  0.00000000000E+00 0. -1.
         -2   -1    0    0    0  501 -0.00000000000E+00 -0.00000000000E+00 -0.36973407780E+02  0.36973407780E+02  0.00000000000E+00 0.  1.
         25    2    1    2    0    0 -0.36562526712E+02 -0.40408465834E+02  0.46456419999E+03  0.48418721223E+03  0.12509075946E+03 0.  0.
          5    1    3    3  502    0  0.33742458791E+01  0.18866507884E+02  0.66547674715E+01  0.20714463186E+02  0.41800000000E+01 0. -1.
         -5    1    3    3    0  502 -0.39936772591E+02 -0.59274973718E+02  0.45790943252E+03  0.46347274904E+03  0.41800000000E+01 0. -1.
        -11    1    1    2    0    0  0.90429215004E+01  0.58509501907E+02  0.14873973263E+02  0.61044011363E+02  0.00000000000E+00 0.  1.
         11    1    1    2    0    0  0.27519605212E+02 -0.18101036073E+02  0.62455335829E+02  0.70609101053E+02  0.00000000000E+00 0. -1.
</event>
<event>
 7    1  0.2380582E-009  0.1167929E+03  0.7561462E-02  0.1248483E+00
         -1   -1    0    0    0  501 -0.00000000000E+00  0.00000000000E+00  0.99339863422E+02  0.99339863422E+02  0.00000000000E+00 0.  1.
          1   -1    0    0  501    0  0.00000000000E+00 -0.00000000000E+00 -0.20393541306E+03  0.20393541306E+03  0.00000000000E+00 0. -1.
         25    2    1    2    0    0  0.50123594913E+02  0.67095751847E+02 -0.98856953218E+02  0.18010316490E+03  0.12510091177E+03 0.  0.
          5    1    3    3  502    0 -0.84288515624E+01 -0.20892421840E+02 -0.65193936694E+02  0.69103260493E+02  0.41800000000E+01 0.  1.
         -5    1    3    3    0  502  0.58552446476E+02  0.87988173687E+02 -0.33663016524E+02  0.11099990441E+03  0.41800000000E+01 0.  1.
        -11    1    1    2    0    0 -0.62906142987E+02 -0.38951027557E+02 -0.33873102913E+02  0.81374151143E+02  0.00000000000E+00 0. -1.
         11    1    1    2    0    0  0.12782548074E+02 -0.28144724290E+02  0.28134506497E+02  0.41797960434E+02  0.00000000000E+00 0.  1.
</event>
<event>
 7    1  0.2380582E-009  0.3301686E+03  0.7561462E-02  0.1071062E+00
         -1   -1    0    0    0  501 -0.00000000000E+00  0.00000000000E+00  0.17023505621E+03  0.17023505621E+03  0.00000000000E+00 0.  1.
          1   -1    0    0  501    0  0.00000000000E+00 -0.00000000000E+00 -0.69059682261E+03  0.69059682261E+03  0.00000000000E+00 0. -1.
         25    2    1    2    0    0 -0.31358873259E+03 -0.65769520998E+02 -0.33127756731E+03  0.47755293538E+03  0.12509379035E+03 0.  0.
          5    1    3    3  502    0 -0.13355861023E+02  0.14075339065E+02 -0.66302213717E+02  0.69209465662E+02  0.41800000000E+01 0.  1.
         -5    1    3    3    0  502 -0.30023287156E+03 -0.79844860062E+02 -0.26497535359E+03  0.40834346971E+03  0.41800000000E+01 0.  1.
        -11    1    1    2    0    0  0.10667669942E+03 -0.14896499086E+02 -0.88840859132E+02  0.13962278516E+03  0.00000000000E+00 0.  1.
         11    1    1    2    0    0  0.20691203317E+03  0.80666020084E+02 -0.10024333996E+03  0.24365615829E+03  0.00000000000E+00 0. -1.
</event>
<event>
 7    1  0.2380582E-009  0.9032938E+02  0.7561462E-02  0.1302056E+00
         -2   -1    0    0    0  501 -0.00000000000E+00  0.00000000000E+00  0.12679198450E+03  0.12679198450E+03  0.00000000000E+00 0.  1.
          2   -1    0    0  501    0  0.00000000000E+00 -0.00000000000E+00 -0.21631095274E+03  0.21631095274E+03  0.00000000000E+00 0. -1.
         25    2    1    2    0    0  0.12739290865E+02 -0.56562754383E+02  0.66473102770E+02  0.15306165175E+03  0.12509021196E+03 0.  0.
          5    1    3    3  502    0 -0.31895788333E+02  0.14481989467E+01 -0.21367605877E+02  0.38645641080E+02  0.41800000000E+01 0. -1.
         -5    1    3    3    0  502  0.44635079198E+02 -0.58010953330E+02  0.87840708647E+02  0.11441601067E+03  0.41800000000E+01 0. -1.
        -11    1    1    2    0    0  0.17445044912E+02  0.31076080774E+02 -0.14459914615E+03  0.14892604022E+03  0.00000000000E+00 0. -1.
         11    1    1    2    0    0 -0.30184335778E+02  0.25486673609E+02 -0.11392924864E+02  0.41115245286E+02  0.00000000000E+00 0.  1.
</event>
<event>
 7    1  0.2380582E-009  0.1999434E+03  0.7561462E-02  0.1149787E+00
          1   -1    0    0  501    0  0.00000000000E+00  0.00000000000E+00  0.68060266459E+03  0.68060266459E+03  0.00000000000E+00 0. -1.
         -1   -1    0    0    0  501 -0.00000000000E+00 -0.00000000000E+00 -0.94155717920E+02  0.94155717920E+02  0.00000000000E+00 0.  1.
         25    2    1    2    0    0  0.34208781411E+02  0.17791277161E+03  0.89581246175E+02  0.23768655913E+03  0.12508759209E+03 0.  0.
          5    1    3    3  502    0  0.79264124620E+02  0.12723916539E+03  0.77058221979E+02  0.16860619394E+03  0.41800000000E+01 0.  1.
         -5    1    3    3    0  502 -0.45055343210E+02  0.50673606220E+02  0.12523024196E+02  0.69080365185E+02  0.41800000000E+01 0.  1.
        -11    1    1    2    0    0 -0.21633991258E+02 -0.68099752639E+02  0.32477638717E+03  0.33254369270E+03  0.00000000000E+00 0. -1.
         11    1    1    2    0    0 -0.12574790153E+02 -0.10981301897E+03  0.17208931332E+03  0.20452813069E+03  0.00000000000E+00 0.  1.
</event>
<event>
 7    1  0.2380582E-009  0.2089238E+03  0.7561462E-02  0.1142421E+00
         -1   -1    0    0    0  501 -0.00000000000E+00  0.00000000000E+00  0.46514011724E+02  0.46514011724E+02  0.00000000000E+00 0.  1.
          1   -1    0    0  501    0  0.00000000000E+00 -0.00000000000E+00 -0.11478164179E+04  0.11478164179E+04  0.00000000000E+00 0. -1.
         25    2    1    2    0    0  0.34778741113E+02 -0.20286965988E+03 -0.56487850225E+03  0.61408630911E+03  0.12509441632E+03 0.  0.
          5    1    3    3  502    0  0.45060074917E+02 -0.16913986232E+03 -0.54698342924E+03  0.57432312128E+03  0.41800000000E+01 0.  1.
         -5    1    3    3    0  502 -0.10281333804E+02 -0.33729797560E+02 -0.17895073018E+02  0.39763187831E+02  0.41800000000E+01 0.  1.
        -11    1    1    2    0    0 -0.30874810422E+02  0.10871554845E+03 -0.39060285535E+03  0.40662380034E+03  0.00000000000E+00 0. -1.
         11    1    1    2    0    0 -0.39039306907E+01  0.94154111429E+02 -0.14582104860E+03  0.17362032021E+03  0.00000000000E+00 0.  1.
</event>
<event>
 7    1  0.2380582E-009  0.1643756E+03  0.7561462E-02  0.1183843E+00
          2   -1    0    0  501    0  0.00000000000E+00  0.00000000000E+00  0.37117014181E+03  0.37117014181E+03  0.00000000000E+00 0. -1.
         -2   -1    0    0    0  501 -0.00000000000E+00 -0.00000000000E+00 -0.95726288798E+02  0.95726288798E+02  0.00000000000E+00 0.  1.
         25    2    1    2    0    0 -0.14451577570E+03 -0.68718584243E+00  0.80451925152E+02  0.20736625277E+03  0.12507185486E+03 0.  0.
          5    1    3    3  502    0 -0.15455385325E+03  0.24397017371E+02  0.45521088743E+02  0.16300843515E+03  0.41800000000E+01 0. -1.
         -5    1    3    3    0  502  0.10038077548E+02 -0.25084203214E+02  0.34930836409E+02  0.44357817619E+02  0.41800000000E+01 0. -1.
        -11    1    1    2    0    0  0.50763632043E+02 -0.47042299136E+01  0.14381407247E+03  0.15258297270E+03  0.00000000000E+00 0. -1.
         11    1    1    2    0    0  0.93752143656E+02  0.53914157561E+01  0.51177855384E+02  0.10694720513E+03  0.00000000000E+00 0.  1.
</event>
<event>
 7    1  0.2380582E-009  0.1490278E+03  0.7561462E-02  0.1201673E+00
          1   -1    0    0  501    0  0.00000000000E+00  0.00000000000E+00  0.65796380325E+02  0.65796380325E+02  0.00000000000E+00 0. -1.
         -1   -1    0    0    0  501 -0.00000000000E+00 -0.00000000000E+00 -0.36989730721E+03  0.36989730721E+03  0.00000000000E+00 0.  1.
         25    2    1    2    0    0 -0.10351265373E+03 -0.19056165139E+02 -0.10994418945E+03  0.19701475659E+03  0.12509629335E+03 0.  0.
          5    1    3    3  502    0 -0.83580817359E+02  0.43954218968E+02 -0.82013447082E+02  0.12514553247E+03  0.41800000000E+01 0.  1.
         -5    1    3    3    0  502 -0.19931836373E+02 -0.63010384107E+02 -0.27930742365E+02  0.71869224120E+02  0.41800000000E+01 0.  1.
        -11    1    1    2    0    0 -0.32143715727E+01 -0.22536364821E+02 -0.46761293696E+02  0.52008061991E+02  0.00000000000E+00 0.  1.
         11    1    1    2    0    0  0.10672702530E+03  0.41592529960E+02 -0.14739544374E+03  0.18667086895E+03  0.00000000000E+00 0. -1.
</event>
<event>
 7    1  0.3317354E-009  0.7254853E+02  0.7561462E-02  0.1351635E+00
         -2   -1    0    0    0  501 -0.00000000000E+00  0.00000000000E+00  0.28851417620E+03  0.28851417620E+03  0.00000000000E+00 0.  1.
          2   -1    0    0  501    0  0.00000000000E+00 -0.00000000000E+00 -0.61724349221E+02  0.61724349221E+02  0.00000000000E+00 0. -1.
         25    2    1    2    0    0  0.21976708198E+01 -0.77318626291E+01  0.22618295802E+03  0.25859462515E+03  0.12509131944E+03 0.  0.
          5    1    3    3  502    0 -0.22309871972E+02  0.50823195287E+02  0.14594296545E+03  0.15619714828E+03  0.41800000000E+01 0. -1.
         -5    1    3    3    0  502  0.24507542792E+02 -0.58555057916E+02  0.80239992576E+02  0.10239747687E+03  0.41800000000E+01 0. -1.
        -11    1    1    2    0    0  0.11008141486E+02  0.11557468609E+01  0.44229898246E+02  0.45593846390E+02  0.00000000000E+00 0.  1.
         11    1    1    2    0    0 -0.13205812305E+02  0.65761157682E+01 -0.43623029295E+02  0.46050053877E+02  0.00000000000E+00 0. -1.
</event>
<event>
 7    1  0.2380582E-009  0.1031773E+03  0.7561462E-02  0.1273753E+00
          2   -1    0    0  501    0  0.00000000000E+00  0.00000000000E+00  0.82510650648E+02  0.82510650648E+02  0.00000000000E+00 0. -1.
         -2   -1    0    0    0  501 -0.00000000000E+00 -0.00000000000E+00 -0.15678223999E+03  0.15678223999E+03  0.00000000000E+00 0.  1.
         25    2    1    2    0    0 -0.15944232507E+02 -0.26020097537E+02 -0.67468477416E+02  0.14536139987E+03  0.12508667835E+03 0.  0.
          5    1    3    3  502    0 -0.64501046392E+02 -0.14164287925E+01 -0.88461498471E+01  0.65254256745E+02  0.41800000000E+01 0.  1.
         -5    1    3    3    0  502  0.48556813885E+02 -0.24603668744E+02 -0.58622327569E+02  0.80107143127E+02  0.41800000000E+01 0.  1.
        -11    1    1    2    0    0  0.46134603620E+02 -0.16383628947E+01  0.13681832501E+02  0.48148503868E+02  0.00000000000E+00 0.  1.
         11    1    1    2    0    0 -0.30190371113E+02  0.27658460431E+02 -0.20484944432E+02  0.45782986903E+02  0.00000000000E+00 0. -1.
</event>
<event>
 7    1  0.2380582E-009  0.1104691E+03  0.7561462E-02  0.1259704E+00
         -2   -1    0    0    0  501 -0.00000000000E+00  0.00000000000E+00  0.22833918343E+03  0.22833918343E+03  0.00000000000E+00 0. -1.
          2   -1    0    0  501    0  0.00000000000E+00 -0.00000000000E+00 -0.59445014269E+02  0.59445014269E+02  0.00000000000E+00 0.  1.
         25    2    1    2    0    0  0.41293654259E+02  0.11667683572E+02  0.99458776312E+02  0.16546834461E+03  0.12508566728E+03 0.  0.
          5    1    3    3  502    0 -0.12412418341E+02  0.51932805676E+02  0.11560706425E+02  0.54792396986E+02  0.41800000000E+01 0.  1.
         -5    1    3    3    0  502  0.53706072600E+02 -0.40265122104E+02  0.87898069887E+02  0.11067594762E+03  0.41800000000E+01 0.  1.
        -11    1    1    2    0    0  0.25579506652E+02 -0.20355206101E+02  0.28915104097E+02  0.43643199022E+02  0.00000000000E+00 0. -1.
         11    1    1    2    0    0 -0.66873160911E+02  0.86875225289E+01  0.40520288757E+02  0.78672654073E+02  0.00000000000E+00 0.  1.
</event>
<event>
 7    1  0.2380582E-009  0.1768205E+03  0.7561462E-02  0.1170916E+00
          1   -1    0    0  501    0  0.00000000000E+00  0.00000000000E+00  0.85605401272E+03  0.85605401272E+03  0.00000000000E+00 0. -1.
         -1   -1    0    0    0  501 -0.00000000000E+00 -0.00000000000E+00 -0.40117908982E+02  0.40117908982E+02  0.00000000000E+00 0.  1.
         25    2    1    2    0    0  0.13980058963E+03  0.23765243926E+02  0.55050859660E+03  0.58207920049E+03  0.12508992379E+03 0.  0.
          5    1    3    3  502    0  0.17253950402E+02  0.58633888535E+02  0.19567032335E+03  0.20503653219E+03  0.41800000000E+01 0.  1.
         -5    1    3    3    0  502  0.12254663923E+03 -0.34868644609E+02  0.35483827324E+03  0.37704266830E+03  0.41800000000E+01 0.  1.
        -11    1    1    2    0    0 -0.12872573149E+03 -0.48688580933E+02  0.24075565123E+03  0.27731602092E+03  0.00000000000E+00 0. -1.
         11    1    1    2    0    0 -0.11074858142E+02  0.24923337007E+02  0.24671855914E+02  0.36776700296E+02  0.00000000000E+00 0.  1.
</event>
<event>
 7    1  0.2380582E-009  0.1115177E+03  0.7561462E-02  0.1257785E+00
          2   -1    0    0  501    0  0.00000000000E+00  0.00000000000E+00  0.68649443387E+02  0.68649443387E+02  0.00000000000E+00 0. -1.
         -2   -1    0    0    0  501 -0.00000000000E+00 -0.00000000000E+00 -0.35326568971E+03  0.35326568971E+03  0.00000000000E+00 0.  1.
         25    2    1    2    0    0 -0.82788258081E+02 -0.16700805457E+02 -0.60210220983E+02  0.16249725603E+03  0.12508906798E+03 0.  0.
          5    1    3    3  502    0 -0.64673382245E+01  0.16854613264E+02 -0.75405549787E+02  0.77649042432E+02  0.41800000000E+01 0. -1.
         -5    1    3    3    0  502 -0.76320919857E+02 -0.33555418720E+02  0.15195328803E+02  0.84848213598E+02  0.41800000000E+01 0. -1.
        -11    1    1    2    0    0  0.92893923418E+02  0.35692978596E+02 -0.21292502095E+03  0.23503262385E+03  0.00000000000E+00 0.  1.
         11    1    1    2    0    0 -0.10105665336E+02 -0.18992173139E+02 -0.11481004389E+02  0.24385253213E+02  0.00000000000E+00 0. -1.
</event>
<event>
 7    1  0.2380582E-009  0.1135275E+03  0.7561462E-02  0.1254173E+00
          3   -1    0    0  501    0  0.00000000000E+00  0.00000000000E+00  0.17213729848E+03  0.17213729848E+03  0.00000000000E+00 0. -1.
         -3   -1    0    0    0  501 -0.00000000000E+00 -0.00000000000E+00 -0.12307677444E+03  0.12307677444E+03  0.00000000000E+00 0.  1.
         25    2    1    2    0    0  0.43224404695E+02 -0.54379665122E+02  0.94811529586E+02  0.17164731881E+03  0.12509228103E+03 0.  0.
          5    1    3    3  502    0 -0.23811983987E+02 -0.34851908052E+02 -0.11900141689E+02  0.44053965184E+02  0.41800000000E+01 0.  1.
         -5    1    3    3    0  502  0.67036388681E+02 -0.19527757070E+02  0.10671167128E+03  0.12759335363E+03  0.41800000000E+01 0.  1.
        -11    1    1    2    0    0 -0.86284971641E+01  0.74280336891E+02 -0.27439072414E+02  0.79655019346E+02  0.00000000000E+00 0. -1.
         11    1    1    2    0    0 -0.34595907531E+02 -0.19900671770E+02 -0.18311933129E+02  0.43911734760E+02  0.00000000000E+00 0.  1.
</event>
<event>
 7    1  0.2380582E-009  0.1832741E+03  0.7561462E-02  0.1164671E+00
         -2   -1    0    0    0  501 -0.00000000000E+00  0.00000000000E+00  0.13835910800E+03  0.13835910800E+03  0.00000000000E+00 0.  1.
          2   -1    0    0  501    0  0.00000000000E+00 -0.00000000000E+00 -0.38712631995E+03  0.38712631995E+03  0.00000000000E+00 0. -1.
         25    2    1    2    0    0 -0.32077701794E+02 -0.15836776170E+03 -0.27103097897E+03  0.33943189550E+03  0.12508754225E+03 0.  0.
          5    1    3    3  502    0  0.41178633924E+02 -0.16381641303E+02 -0.59950096898E+02  0.74669435392E+02  0.41800000000E+01 0.  1.
         -5    1    3    3    0  502 -0.73256335718E+02 -0.14198612040E+03 -0.21108088207E+03  0.26476246011E+03  0.41800000000E+01 0.  1.
        -11    1    1    2    0    0 -0.12381655642E+01  0.13643760618E+02  0.34421410036E+02  0.37047519844E+02  0.00000000000E+00 0.  1.
         11    1    1    2    0    0  0.33315867358E+02  0.14472400108E+03 -0.12157643025E+02  0.14900601260E+03  0.00000000000E+00 0. -1.
</event>
<event>
 7    1  0.2380582E-009  0.8679767E+02  0.7561462E-02  0.1310797E+00
          2   -1    0    0  501    0  0.00000000000E+00  0.00000000000E+00  0.96852804597E+02  0.96852804597E+02  0.00000000000E+00 0. -1.
         -2   -1    0    0    0  501 -0.00000000000E+00 -0.00000000000E+00 -0.14144312351E+03  0.14144312351E+03  0.00000000000E+00 0.  1.
         25    2    1    2    0    0  0.15344275283E+02  0.17170535930E+02  0.11485028529E+02  0.12770628868E+03  0.12508683464E+03 0.  0.
          5    1    3    3  502    0  0.69600075642E+02  0.36830831783E+01 -0.27055350536E+01  0.69875088200E+02  0.41800000000E+01 0.  1.
         -5    1    3    3    0  502 -0.54255800359E+02  0.13487452752E+02  0.14190563582E+02  0.57831200481E+02  0.41800000000E+01 0.  1.
        -11    1    1    2    0    0 -0.88104498580E+00 -0.29006950542E+02 -0.77146587256E+02  0.82424361358E+02  0.00000000000E+00 0.  1.
         11    1    1    2    0    0 -0.14463230297E+02  0.11836414612E+02  0.21071239813E+02  0.28165278070E+02  0.00000000000E+00 0. -1.
</event>
<event>
 7    1  0.2380582E-009  0.2032852E+03  0.7561462E-02  0.1146997E+00
          1   -1    0    0  501    0  0.00000000000E+00  0.00000000000E+00  0.12604169358E+03  0.12604169358E+03  0.00000000000E+00 0. -1.
         -1   -1    0    0    0  501 -0.00000000000E+00 -0.00000000000E+00 -0.36766948922E+03  0.36766948922E+03  0.00000000000E+00 0.  1.
         25    2    1    2    0    0 -0.24830601862E+02  0.18301233934E+03 -0.14098268242E+03  0.26388202009E+03  0.12509008212E+03 0.  0.
          5    1    3    3  502    0 -0.38728532780E+02  0.17861777785E+01 -0.40220677865E+02  0.56020219656E+02  0.41800000000E+01 0.  1.
         -5    1    3    3    0  502  0.13897930919E+02  0.18122616157E+03 -0.10076200455E+03  0.20786180044E+03  0.41800000000E+01 0.  1.
        -11    1    1    2    0    0  0.20761282543E+02 -0.79149509407E+02  0.45374294307E+01  0.81952815437E+02  0.00000000000E+00 0. -1.
         11    1    1    2    0    0  0.40693193185E+01 -0.10386282994E+03 -0.10518254265E+03  0.14787634727E+03  0.00000000000E+00 0.  1.
</event>
<event>
 7    1  0.2380582E-009  0.1658405E+03  0.7561462E-02  0.1182256E+00
         -1   -1    0    0    0  501 -0.00000000000E+00  0.00000000000E+00  0.13136158638E+03  0.13136158638E+03  0.00000000000E+00 0.  1.
          1   -1    0    0  501    0  0.00000000000E+00 -0.00000000000E+00 -0.26929002540E+03  0.26929002540E+03  0.00000000000E+00 0. -1.
         25    2    1    2    0    0 -0.81645421965E+02 -0.10830604425E+03 -0.14699692050E+03  0.23590616681E+03  0.12508977077E+03 0.  0.
          5    1    3    3  502    0 -0.10235689498E+03 -0.39669573831E+02 -0.68248094833E+02  0.12932858882E+03  0.41800000000E+01 0. -1.
         -5    1    3    3    0  502  0.20711473012E+02 -0.68636470421E+02 -0.78748825672E+02  0.10657757799E+03  0.41800000000E+01 0. -1.
        -11    1    1    2    0    0 -0.10559046228E+02  0.54698369986E+01 -0.20310894036E+02  0.23536036000E+02  0.00000000000E+00 0. -1.
         11    1    1    2    0    0  0.92204468193E+02  0.10283620725E+03  0.29379375522E+02  0.14120940898E+03  0.00000000000E+00 0.  1.
</event>
<event>
 7    1  0.2380582E-009  0.7681129E+02  0.7561462E-02  0.1338352E+00
          2   -1    0    0  501    0  0.00000000000E+00  0.00000000000E+00  0.72765398478E+03  0.72765398478E+03  0.00000000000E+00 0. -1.
         -2   -1    0    0    0  501 -0.00000000000E+00 -0.00000000000E+00 -0.18634455458E+02  0.18634455458E+02  0.00000000000E+00 0.  1.
         25    2    1    2    0    0 -0.41128842253E+02  0.82306185535E+01  0.41295888861E+03  0.43352240127E+03  0.12508918410E+03 0.  0.
          5    1    3    3  502    0 -0.43898458582E+02 -0.26177711572E+02  0.38634749273E+03  0.38973607067E+03  0.41800000000E+01 0. -1.
         -5    1    3    3    0  502  0.27696163292E+01  0.34408330125E+02  0.26611395882E+02  0.43786330600E+02  0.41800000000E+01 0. -1.
        -11    1    1    2    0    0 -0.12953833149E+02 -0.23822302069E+01  0.15364392388E+01  0.13260371772E+02  0.00000000000E+00 0.  1.
         11    1    1    2    0    0  0.54082675402E+02 -0.58483883466E+01  0.29452420148E+03  0.29950566719E+03  0.00000000000E+00 0. -1.
</event>
<event>
 7    1  0.2380582E-009  0.1163543E+03  0.7561462E-02  0.1249235E+00
         -2   -1    0    0    0  501 -0.00000000000E+00  0.00000000000E+00  0.20843468906E+02  0.20843468906E+02  0.00000000000E+00 0.  1.
          2   -1    0    0  501    0  0.00000000000E+00 -0.00000000000E+00 -0.73497199421E+03  0.73497199421E+03  0.00000000000E+00 0. -1.
         25    2    1    2    0    0 -0.40923708976E+02  0.26478386288E+02 -0.39064520386E+03  0.41307087719E+03  0.12509204367E+03 0.  0.
          5    1    3    3  502    0  0.39604521411E+02  0.25073818356E+01 -0.21053506367E+03  0.21428320166E+03  0.41800000000E+01 0.  1.
         -5    1    3    3    0  502 -0.80528230387E+02  0.23971004452E+02 -0.18011014019E+03  0.19878767553E+03  0.41800000000E+01 0.  1.
        -11    1    1    2    0    0  0.68888751329E+02 -0.37721831632E+02 -0.27174240497E+03  0.28286486403E+03  0.00000000000E+00 0.  1.
         11    1    1    2    0    0 -0.27965042354E+02  0.11243445345E+02 -0.51740916476E+02  0.59879721900E+02  0.00000000000E+00 0. -1.
</event>
<event>
 7    1  0.2380582E-009  0.1103986E+03  0.7561462E-02  0.1259833E+00
          2   -1    0    0  501    0  0.00000000000E+00  0.00000000000E+00  0.74883183989E+03  0.74883183989E+03  0.00000000000E+00 0. -1.
         -2   -1    0    0    0  501 -0.00000000000E+00 -0.00000000000E+00 -0.27338692301E+02  0.27338692301E+02  0.00000000000E+00 0.  1.
         25    2    1    2    0    0  0.50717274714E+02 -0.70804550490E+02  0.29301768519E+03  0.33029191472E+03  0.12509140166E+03 0.  0.
          5    1    3    3  502    0  0.13354627952E+02 -0.63120897043E+02  0.28346933058E+03  0.29074890802E+03  0.41800000000E+01 0.  1.
         -5    1    3    3    0  502  0.37362646762E+02 -0.76836534468E+01  0.95483546096E+01  0.39543006703E+02  0.41800000000E+01 0.  1.
        -11    1    1    2    0    0 -0.71060135020E+02  0.42120536126E+02  0.23168174959E+03  0.24596771220E+03  0.00000000000E+00 0.  1.
         11    1    1    2    0    0  0.20342860307E+02  0.28684014364E+02  0.19679371281E+03  0.19991090528E+03  0.00000000000E+00 0. -1.
</event>
<event>
 7    1  0.2380582E-009  0.1109607E+03  0.7561462E-02  0.1258801E+00
          1   -1    0    0  501    0  0.00000000000E+00  0.00000000000E+00  0.16777972302E+03  0.16777972302E+03  0.00000000000E+00 0. -1.
         -1   -1    0    0    0  501 -0.00000000000E+00 -0.00000000000E+00 -0.10051931310E+03  0.10051931310E+03  0.00000000000E+00 0.  1.
         25    2    1    2    0    0  0.55135340146E+02 -0.22880915986E+02 -0.20477174452E+01  0.13861912864E+03  0.12509047777E+03 0.  0.
          5    1    3    3  502    0  0.27866056963E+02  0.38903082406E+02  0.36876727922E+02  0.60558504056E+02  0.41800000000E+01 0. -1.
         -5    1    3    3    0  502  0.27269283184E+02 -0.61783998392E+02 -0.38924445367E+02  0.78060624580E+02  0.41800000000E+01 0. -1.
        -11    1    1    2    0    0  0.11304287119E+02  0.36664578046E+02  0.41014751625E+02  0.56163048719E+02  0.00000000000E+00 0. -1.
         11    1    1    2    0    0 -0.66439627265E+02 -0.13783662059E+02  0.28293375740E+02  0.73516858759E+02  0.00000000000E+00 0.  1.
</event>
<event>
 7    1  0.2380582E-009  0.1150476E+03  0.7561462E-02  0.1251498E+00
         -1   -1    0    0    0  501 -0.00000000000E+00  0.00000000000E+00  0.86670063706E+02  0.86670063706E+02  0.00000000000E+00 0.  1.
          1   -1    0    0  501    0  0.00000000000E+00 -0.00000000000E+00 -0.24561285988E+03  0.24561285988E+03  0.00000000000E+00 0. -1.
         25    2    1    2    0    0  0.38804012015E+02  0.50153007494E+02 -0.34921663043E+01  0.14028834842E+03  0.12509016735E+03 0.  0.
          5    1    3    3  502    0  0.25872799041E+02 -0.38270961118E+02  0.15359292024E+02  0.48861523171E+02  0.41800000000E+01 0.  1.
         -5    1    3    3    0  502  0.12931212974E+02  0.88423968612E+02 -0.18851458329E+02  0.91426825250E+02  0.41800000000E+01 0.  1.
        -11    1    1    2    0    0 -0.42466637174E+02  0.14734110523E+01 -0.19943152901E+02  0.46939488287E+02  0.00000000000E+00 0.  1.
         11    1    1    2    0    0  0.36626251591E+01 -0.51626418546E+02 -0.13550747697E+03  0.14505508688E+03  0.00000000000E+00 0. -1.
</event>
<event>
 7    1  0.2380582E-009  0.1539875E+03  0.7561462E-02  0.1195657E+00
         -1   -1    0    0    0  501 -0.00000000000E+00  0.00000000000E+00  0.75783012801E+02  0.75783012801E+02  0.00000000000E+00 0.  1.
          1   -1    0    0  501    0  0.00000000000E+00 -0.00000000000E+00 -0.32360805281E+03  0.32360805281E+03  0.00000000000E+00 0. -1.
         25    2    1    2    0    0  0.97437407277E+01 -0.10980947141E+03 -0.16084959527E+03  0.23167669148E+03  0.12509371121E+03 0.  0.
          5    1    3    3  502    0  0.37591358826E+02  0.11927761028E+02 -0.55656968198E+02  0.68341438750E+02  0.41800000000E+01 0. -1.
         -5    1    3    3    0  502 -0.27847618098E+02 -0.12173723243E+03 -0.10519262707E+03  0.16333525273E+03  0.41800000000E+01 0. -1.
        -11    1    1    2    0    0  0.34190324072E+02  0.87806393713E+02 -0.58926396610E+02  0.11113622836E+03  0.00000000000E+00 0.  1.
         11    1    1    2    0    0 -0.43934064799E+02  0.22003077692E+02 -0.28049048135E+02  0.56578145772E+02  0.00000000000E+00 0. -1.
</event>
<event>
 7    1  0.2380582E-009  0.3474551E+03  0.7561462E-02  0.1063664E+00
          2   -1    0    0  501    0  0.00000000000E+00  0.00000000000E+00  0.72793821972E+03  0.72793821972E+03  0.00000000000E+00 0. -1.
         -2   -1    0    0    0  501 -0.00000000000E+00 -0.00000000000E+00 -0.18171145653E+03  0.18171145653E+03  0.00000000000E+00 0.  1.
         25    2    1    2    0    0 -0.10538582942E+03  0.32446728076E+03  0.35450913190E+03  0.50765048480E+03  0.12508837191E+03 0.  0.
          5    1    3    3  502    0 -0.52642224084E+02  0.13651273313E+03  0.69153610667E+02  0.16188460190E+03  0.41800000000E+01 0.  1.
         -5    1    3    3    0  502 -0.52743605332E+02  0.18795454763E+03  0.28535552123E+03  0.34576588289E+03  0.41800000000E+01 0.  1.
        -11    1    1    2    0    0  0.62140790486E+02 -0.63842900433E+02  0.45198846659E+02  0.99901599172E+02  0.00000000000E+00 0. -1.
         11    1    1    2    0    0  0.43245038929E+02 -0.26062438033E+03  0.14651878463E+03  0.30209759228E+03  0.00000000000E+00 0.  1.
</event>
<event>
 7    1  0.2380582E-009  0.1118596E+03  0.7561462E-02  0.1257165E+00
         -1   -1    0    0    0  501 -0.00000000000E+00  0.00000000000E+00  0.65657742166E+03  0.65657742166E+03  0.00000000000E+00 0.  1.
          1   -1    0    0  501    0  0.00000000000E+00 -0.00000000000E+00 -0.26875911164E+02  0.26875911164E+02  0.00000000000E+00 0. -1.
         25    2    1    2    0    0  0.11299377329E+02 -0.60735798643E+02  0.29605639156E+03  0.32728932205E+03  0.12510955272E+03 0.  0.
          5    1    3    3  502    0 -0.43069674482E+02 -0.35673547015E+02  0.53814729742E+02  0.77724490052E+02  0.41800000000E+01 0. -1.
         -5    1    3    3    0  502  0.54369051811E+02 -0.25062251628E+02  0.24224166182E+03  0.24956483200E+03  0.41800000000E+01 0. -1.
        -11    1    1    2    0    0  0.24967065919E+02  0.66381741258E+02  0.29272964684E+03  0.30119849949E+03  0.00000000000E+00 0.  1.
         11    1    1    2    0    0 -0.36266443247E+02 -0.56459426151E+01  0.40915472089E+02  0.54965511278E+02  0.00000000000E+00 0. -1.
</event>
<event>
 7    1  0.2380582E-009  0.1035261E+03  0.7561462E-02  0.1273051E+00
         -2   -1    0    0    0  501 -0.00000000000E+00  0.00000000000E+00  0.42498563178E+02  0.42498563178E+02  0.00000000000E+00 0.  1.
          2   -1    0    0  501    0  0.00000000000E+00 -0.00000000000E+00 -0.54301914298E+03  0.54301914298E+03  0.00000000000E+00 0. -1.
         25    2    1    2    0    0  0.49660332640E+02 -0.27025897228E+02 -0.97866106781E+02  0.16859065712E+03  0.12509391293E+03 0.  0.
          5    1    3    3  502    0 -0.19267538546E+02 -0.22420315041E+02 -0.94717058859E+02  0.99311138384E+02  0.41800000000E+01 0.  1.
         -5    1    3    3    0  502  0.68927871186E+02 -0.46055821870E+01 -0.31490479212E+01  0.69279518736E+02  0.41800000000E+01 0.  1.
        -11    1    1    2    0    0 -0.60099120867E+02 -0.17228217763E+02 -0.24444765008E+03  0.25231601107E+03  0.00000000000E+00 0. -1.
         11    1    1    2    0    0  0.10438788227E+02  0.44254114990E+02 -0.15820682295E+03  0.16461103797E+03  0.00000000000E+00 0.  1.
</event>
<event>
 7    1  0.2380582E-009  0.9348803E+02  0.7561462E-02  0.1294618E+00
          2   -1    0    0  501    0  0.00000000000E+00  0.00000000000E+00  0.18206640307E+03  0.18206640307E+03  0.00000000000E+00 0. -1.
         -2   -1    0    0    0  501 -0.00000000000E+00 -0.00000000000E+00 -0.90573223808E+02  0.90573223808E+02  0.00000000000E+00 0.  1.
         25    2    1    2    0    0  0.15401056090E+02 -0.28951562079E+02  0.11452575803E+03  0.17273876429E+03  0.12508855248E+03 0.  0.
          5    1    3    3  502    0 -0.14682861832E+02  0.43792147532E+02  0.64256423192E+02  0.79244551475E+02  0.41800000000E+01 0. -1.
         -5    1    3    3    0  502  0.30083917922E+02 -0.72743709612E+02  0.50269334834E+02  0.93494212817E+02  0.41800000000E+01 0. -1.
        -11    1    1    2    0    0 -0.31347773644E+02  0.32793520572E+02  0.23121548935E+02  0.50918601013E+02  0.00000000000E+00 0. -1.
         11    1    1    2    0    0  0.15946717554E+02 -0.38419584930E+01 -0.46154127696E+02  0.48982261576E+02  0.00000000000E+00 0.  1.
</event>
<event>
 7    1  0.2380582E-009  0.1269214E+03  0.7561462E-02  0.1232097E+00
          1   -1    0    0  501    0  0.00000000000E+00  0.00000000000E+00  0.15816421336E+03  0.15816421336E+03  0.00000000000E+00 0. -1.
         -1   -1    0    0    0  501 -0.00000000000E+00 -0.00000000000E+00 -0.11986471934E+03  0.11986471934E+03  0.00000000000E+00 0.  1.
         25    2    1    2    0    0  0.62447879888E+02  0.51338130338E+02  0.45711095545E+02  0.15579531424E+03  0.12508930552E+03 0.  0.
          5    1    3    3  502    0 -0.26828473798E+02  0.40104658421E+02  0.44407049984E+02  0.65708516355E+02  0.41800000000E+01 0.  1.
         -5    1    3    3    0  502  0.89276353686E+02  0.11233471917E+02  0.13040455615E+01  0.90086797887E+02  0.41800000000E+01 0.  1.
        -11    1    1    2    0    0 -0.71032713089E+02 -0.83788351339E+01 -0.23918179111E+02  0.75418369771E+02  0.00000000000E+00 0.  1.
         11    1    1    2    0    0  0.85848332003E+01 -0.42959295204E+02  0.16506577594E+02  0.46815248684E+02  0.00000000000E+00 0. -1.
</event>
<event>
 7    1  0.2380582E-009  0.1149354E+03  0.7561462E-02  0.1251694E+00
          1   -1    0    0  501    0  0.00000000000E+00  0.00000000000E+00  0.94302091976E+01  0.94302091976E+01  0.00000000000E+00 0. -1.
         -1   -1    0    0    0  501 -0.00000000000E+00 -0.00000000000E+00 -0.17610369914E+04  0.17610369914E+04  0.00000000000E+00 0.  1.
         25    2    1    2    0    0  0.34098623113E+02  0.34175379338E+02 -0.13181973078E+04  0.13249989827E+04  0.12508992522E+03 0.  0.
          5    1    3    3  502    0 -0.21325620980E+02  0.63433751341E+02 -0.51451634763E+03  0.51886719621E+03  0.41800000000E+01 0. -1.
         -5    1    3    3    0  502  0.55424244093E+02 -0.29258372003E+02 -0.80368096015E+03  0.80613178654E+03  0.41800000000E+01 0. -1.
        -11    1    1    2    0    0 -0.55723317482E+02  0.42797140099E+01 -0.29328918031E+03  0.29856648732E+03  0.00000000000E+00 0.  1.
         11    1    1    2    0    0  0.21624694369E+02 -0.38455093348E+02 -0.14012029411E+03  0.14690173053E+03  0.00000000000E+00 0. -1.
</event>
<event>
 7    1  0.2380582E-009  0.1190361E+03  0.7561462E-02  0.1244696E+00
         -1   -1    0    0    0  501 -0.00000000000E+00  0.00000000000E+00  0.11448693844E+04  0.11448693844E+04  0.00000000000E+00 0.  1.
          1   -1    0    0  501    0  0.00000000000E+00 -0.00000000000E+00 -0.16101596478E+02  0.16101596478E+02  0.00000000000E+00 0. -1.
         25    2    1    2    0    0 -0.35954511082E+02 -0.69911831659E+02  0.61966303637E+03  0.63703490869E+03  0.12510317811E+03 0.  0.
          5    1    3    3  502    0 -0.45769302958E+02 -0.22691836571E+01  0.47232049578E+03  0.47455674205E+03  0.41800000000E+01 0. -1.
         -5    1    3    3    0  502  0.98147918759E+01 -0.67642648002E+02  0.14734254059E+03  0.16247816665E+03  0.41800000000E+01 0. -1.
        -11    1    1    2    0    0  0.62891902097E+02  0.73123976937E+02  0.38449303156E+03  0.39640559869E+03  0.00000000000E+00 0.  1.
         11    1    1    2    0    0 -0.26937391015E+02 -0.32121452785E+01  0.12461171997E+03  0.12753047347E+03  0.00000000000E+00 0. -1.
</event>
<event>
 7    1  0.2380582E-009  0.1139598E+03  0.7561462E-02  0.1253408E+00
         -2   -1    0    0    0  501 -0.00000000000E+00  0.00000000000E+00  0.47170588384E+02  0.47170588384E+02  0.00000000000E+00 0. -1.
          2   -1    0    0  501    0  0.00000000000E+00 -0.00000000000E+00 -0.42947587593E+03  0.42947587593E+03  0.00000000000E+00 0.  1.
         25    2    1    2    0    0  0.84586144588E+02  0.10814787377E+02 -0.26508827565E+03  0.30527189917E+03  0.12508942023E+03 0.  0.
          5    1    3    3  502    0  0.91985007966E+02 -0.20313828098E+02 -0.25434713045E+03  0.27126339316E+03  0.41800000000E+01 0.  1.
         -5    1    3    3    0  502 -0.73988633779E+01  0.31128615475E+02 -0.10741145201E+02  0.34008506009E+02  0.41800000000E+01 0.  1.
        -11    1    1    2    0    0 -0.24110870440E+02  0.21925037848E+02 -0.92871726204E+02  0.98423568754E+02  0.00000000000E+00 0.  1.
         11    1    1    2    0    0 -0.60475274148E+02 -0.32739825225E+02 -0.24345285695E+02  0.72950996392E+02  0.00000000000E+00 0. -1.
</event>
<event>
 7    1  0.2380582E-009  0.1687670E+03  0.7561462E-02  0.1179140E+00
         -1   -1    0    0    0  501 -0.00000000000E+00  0.00000000000E+00  0.38999572361E+02  0.38999572361E+02  0.00000000000E+00 0.  1.
          1   -1    0    0  501    0  0.00000000000E+00 -0.00000000000E+00 -0.92219615259E+03  0.92219615259E+03  0.00000000000E+00 0. -1.
         25    2    1    2    0    0  0.13949632353E+03  0.65280373055E+02 -0.53452510474E+03  0.57016193840E+03  0.12508715770E+03 0.  0.
          5    1    3    3  502    0  0.13575790189E+03  0.43067377487E+02 -0.27587121317E+03  0.31049541958E+03  0.41800000000E+01 0. -1.
         -5    1    3    3    0  502  0.37384216398E+01  0.22212995568E+02 -0.25865389157E+03  0.25966651882E+03  0.41800000000E+01 0. -1.
        -11    1    1    2    0    0 -0.98090505857E+02 -0.81636867996E+02 -0.21365618127E+03  0.24886801592E+03  0.00000000000E+00 0.  1.
         11    1    1    2    0    0 -0.41405817675E+02  0.16356494941E+02 -0.13501529422E+03  0.14216577063E+03  0.00000000000E+00 0. -1.
</event>
<event>
 7    1  0.2530321E-009  0.1065846E+03  0.7561462E-02  0.1267029E+00
          2   -1    0    0  501    0  0.00000000000E+00  0.00000000000E+00  0.66123392994E+03  0.66123392994E+03  0.00000000000E+00 0. -1.
         -2   -1    0    0    0  501 -0.00000000000E+00 -0.00000000000E+00 -0.21830054002E+02  0.21830054002E+02  0.00000000000E+00 0.  1.
         25    2    1    2    0    0  0.43086607292E+02 -0.26871841622E+02  0.38195304345E+03  0.40510981261E+03  0.12508909335E+03 0.  0.
          5    1    3    3  502    0  0.72282255718E+02 -0.47027294523E+02  0.33594697213E+03  0.34686327480E+03  0.41800000000E+01 0. -1.
         -5    1    3    3    0  502 -0.29195648426E+02  0.20155452902E+02  0.46006071313E+02  0.58246537806E+02  0.41800000000E+01 0. -1.
        -11    1    1    2    0    0 -0.53155633908E+02 -0.89477992362E+01  0.78818584315E+02  0.95487977048E+02  0.00000000000E+00 0.  1.
         11    1    1    2    0    0  0.10069026616E+02  0.35819640858E+02  0.17863224818E+03  0.18246619429E+03  0.00000000000E+00 0. -1.
</event>
<event>
 7    1  0.2380582E-009  0.1112605E+03  0.7561462E-02  0.1258253E+00
         -1   -1    0    0    0  501 -0.00000000000E+00  0.00000000000E+00  0.20003558211E+03  0.20003558211E+03  0.00000000000E+00 0.  1.
          1   -1    0    0  501    0  0.00000000000E+00 -0.00000000000E+00 -0.71788650806E+02  0.71788650806E+02  0.00000000000E+00 0. -1.
         25    2    1    2    0    0  0.61220850294E+01 -0.45274146719E+02  0.10512747064E+03  0.16966835089E+03  0.12509330887E+03 0.  0.
          5    1    3    3  502    0  0.61857818501E+02 -0.15030222945E+02  0.77481540506E+02  0.10036512756E+03  0.41800000000E+01 0.  1.
         -5    1    3    3    0  502 -0.55735733472E+02 -0.30243923774E+02  0.27645930133E+02  0.69303223329E+02  0.41800000000E+01 0.  1.
        -11    1    1    2    0    0  0.36333361054E+02  0.37124294375E+02 -0.23171503891E+01  0.51997072458E+02  0.00000000000E+00 0.  1.
         11    1    1    2    0    0 -0.42455446083E+02  0.81498523446E+01  0.25436611056E+02  0.50158809569E+02  0.00000000000E+00 0. -1.
</event>
<event>
 7    1  0.2380582E-009  0.1069935E+03  0.7561462E-02  0.1266241E+00
         -1   -1    0    0    0  501 -0.00000000000E+00  0.00000000000E+00  0.53284402252E+02  0.53284402252E+02  0.00000000000E+00 0.  1.
          1   -1    0    0  501    0  0.00000000000E+00 -0.00000000000E+00 -0.31528340393E+03  0.31528340393E+03  0.00000000000E+00 0. -1.
         25    2    1    2    0    0 -0.49259209443E+02 -0.36702950811E+02 -0.20135511690E+03  0.24487808703E+03  0.12509123908E+03 0.  0.
          5    1    3    3  502    0 -0.71938531849E+02  0.20310151808E+02 -0.13524826788E+03  0.15458726014E+03  0.41800000000E+01 0.  1.
         -5    1    3    3    0  502  0.22679322406E+02 -0.57013102619E+02 -0.66106849014E+02  0.90290826896E+02  0.41800000000E+01 0.  1.
        -11    1    1    2    0    0  0.28307341286E+02 -0.69942017466E+01  0.15811620874E+02  0.33169741986E+02  0.00000000000E+00 0.  1.
         11    1    1    2    0    0  0.20951868157E+02  0.43697152558E+02 -0.76455505650E+02  0.90519977160E+02  0.00000000000E+00 0. -1.
</event>
<event>
 7    1  0.2380582E-009  0.9522848E+02  0.7561462E-02  0.1290662E+00
          1   -1    0    0  501    0  0.00000000000E+00  0.00000000000E+00  0.12163619912E+03  0.12163619912E+03  0.00000000000E+00 0. -1.
         -1   -1    0    0    0  501 -0.00000000000E+00 -0.00000000000E+00 -0.30234292147E+03  0.30234292147E+03  0.00000000000E+00 0.  1.
         25    2    1    2    0    0  0.23230864744E+02 -0.43558416430E+02 -0.26000987592E+03  0.29272797186E+03  0.12509005241E+03 0.  0.
          5    1    3    3  502    0  0.53610960824E+02 -0.68368440774E+02 -0.12654591525E+03  0.15355689461E+03  0.41800000000E+01 0.  1.
         -5    1    3    3    0  502 -0.30380096080E+02  0.24810024344E+02 -0.13346396067E+03  0.13917107725E+03  0.41800000000E+01 0.  1.
        -11    1    1    2    0    0 -0.34573799252E+02  0.26578047861E+02 -0.55634030725E+01  0.43962389341E+02  0.00000000000E+00 0.  1.
         11    1    1    2    0    0  0.11342934508E+02  0.16980368569E+02  0.84866556638E+02  0.87288759388E+02  0.00000000000E+00 0. -1.
</event>
<event>
 7    1  0.2380582E-009  0.1492863E+03  0.7561462E-02  0.1201353E+00
         -1   -1    0    0    0  501 -0.00000000000E+00  0.00000000000E+00  0.32646900839E+02  0.32646900839E+02  0.00000000000E+00 0.  1.
          1   -1    0    0  501    0  0.00000000000E+00 -0.00000000000E+00 -0.91949996695E+03  0.91949996695E+03  0.00000000000E+00 0. -1.
         25    2    1    2    0    0 -0.49390993529E+02 -0.11306286295E+03 -0.61696131341E+03  0.64149285271E+03  0.12509650922E+03 0.  0.
          5    1    3    3  502    0  0.30495578569E+02 -0.84807973852E+02 -0.29048042511E+03  0.30416890458E+03  0.41800000000E+01 0.  1.
         -5    1    3    3    0  502 -0.79886572098E+02 -0.28254889099E+02 -0.32648088829E+03  0.33732394813E+03  0.41800000000E+01 0.  1.
        -11    1    1    2    0    0  0.36772857371E+02  0.77612738466E+02 -0.81014433000E+02  0.11806489133E+03  0.00000000000E+00 0.  1.
         11    1    1    2    0    0  0.12618136158E+02  0.35450124485E+02 -0.18887731970E+03  0.19258912374E+03  0.00000000000E+00 0. -1.
</event>
<event>
 7    1  0.2380582E-009  0.1221815E+03  0.7561462E-02  0.1239541E+00
          1   -1    0    0  501    0  0.00000000000E+00  0.00000000000E+00  0.62823317108E+03  0.62823317108E+03  0.00000000000E+00 0. -1.
         -1   -1    0    0    0  501 -0.00000000000E+00 -0.00000000000E+00 -0.29198354207E+02  0.29198354207E+02  0.00000000000E+00 0.  1.
         25    2    1    2    0    0  0.10277568256E+02 -0.38709982212E+02  0.41857867251E+03  0.43870268862E+03  0.12509137776E+03 0.  0.
          5    1    3    3  502    0  0.42542409688E+02  0.25176842644E+02  0.25971374221E+03  0.26440958818E+03  0.41800000000E+01 0.  1.
         -5    1    3    3    0  502 -0.32264841431E+02 -0.63886824856E+02  0.15886493030E+03  0.17429310044E+03  0.41800000000E+01 0.  1.
        -11    1    1    2    0    0  0.51508506270E+02  0.32630092386E+02  0.99680201455E+02  0.11685029615E+03  0.00000000000E+00 0. -1.
         11    1    1    2    0    0 -0.61786074527E+02  0.60798898262E+01  0.80775942906E+02  0.10187854052E+03  0.00000000000E+00 0.  1.
</event>
<event>
 7    1  0.2380582E-009  0.8495456E+02  0.7561462E-02  0.1315551E+00
         -1   -1    0    0    0  501 -0.00000000000E+00  0.00000000000E+00  0.11996626990E+03  0.11996626990E+03  0.00000000000E+00 0.  1.
          1   -1    0    0  501    0  0.00000000000E+00 -0.00000000000E+00 -0.14158271697E+03  0.14158271697E+03  0.00000000000E+00 0. -1.
         25    2    1    2    0    0  0.12856491998E+02 -0.54739047874E+02  0.34905966361E+02  0.14151906982E+03  0.12509023898E+03 0.  0.
          5    1    3    3  502    0  0.48527082816E+01 -0.77521924281E+02 -0.20920600618E+02  0.80550241788E+02  0.41800000000E+01 0.  1.
         -5    1    3    3    0  502  0.80037837165E+01  0.22782876407E+02  0.55826566979E+02  0.60968828034E+02  0.41800000000E+01 0.  1.
        -11    1    1    2    0    0 -0.26273184434E+02  0.35804191203E+02 -0.77125336661E+02  0.88997403799E+02  0.00000000000E+00 0. -1.
         11    1    1    2    0    0  0.13416692436E+02  0.18934856671E+02  0.20602923234E+02  0.31032513254E+02  0.00000000000E+00 0.  1.
</event>
<event>
 7    1  0.2380582E-009  0.9285242E+02  0.7561462E-02  0.1296088E+00
          2   -1    0    0  501    0  0.00000000000E+00  0.00000000000E+00  0.19443893123E+03  0.19443893123E+03  0.00000000000E+00 0. -1.
         -2   -1    0    0    0  501 -0.00000000000E+00 -0.00000000000E+00 -0.93000128845E+02  0.93000128845E+02  0.00000000000E+00 0.  1.
         25    2    1    2    0    0 -0.46076824659E+02 -0.20121453726E+02  0.12324094122E+03  0.18265853954E+03  0.12509142977E+03 0.  0.
          5    1    3    3  502    0  0.15885997404E+02  0.77161031010E+01  0.11226424411E+03  0.11372174843E+03  0.41800000000E+01 0.  1.
         -5    1    3    3    0  502 -0.61962822063E+02 -0.27837556827E+02  0.10976697105E+02  0.68936791102E+02  0.41800000000E+01 0.  1.
        -11    1    1    2    0    0  0.39103797146E+02  0.53013854827E+02 -0.23105911910E+01  0.65915966097E+02  0.00000000000E+00 0. -1.
         11    1    1    2    0    0  0.69730275126E+01 -0.32892401101E+02 -0.19491547639E+02  0.38864554445E+02  0.00000000000E+00 0.  1.
</event>
<event>
 7    1  0.2380582E-009  0.7588150E+02  0.7561462E-02  0.1341163E+00
         -1   -1    0    0    0  501 -0.00000000000E+00  0.00000000000E+00  0.48818050442E+02  0.48818050442E+02  0.00000000000E+00 0.  1.
          1   -1    0    0  501    0  0.00000000000E+00 -0.00000000000E+00 -0.27882613958E+03  0.27882613958E+03  0.00000000000E+00 0. -1.
         25    2    1    2    0    0  0.21480673190E+02  0.35964578990E+02 -0.11738045768E+03  0.17657960520E+03  0.12508922760E+03 0.  0.
          5    1    3    3  502    0  0.40633903166E+02  0.12330371042E+02 -0.13471994995E+03  0.14131556691E+03  0.41800000000E+01 0.  1.
         -5    1    3    3    0  502 -0.19153229976E+02  0.23634207948E+02  0.17339492269E+02  0.35264038283E+02  0.41800000000E+01 0.  1.
        -11    1    1    2    0    0 -0.27759635917E+02  0.11835145452E+02 -0.18300627708E+01  0.30232717110E+02  0.00000000000E+00 0.  1.
         11    1    1    2    0    0  0.62789627273E+01 -0.47799724443E+02 -0.11079756869E+03  0.12083186772E+03  0.00000000000E+00 0. -1.
</event>
<event>
 7    1  0.2380582E-009  0.7268853E+02  0.7561462E-02  0.1351182E+00
          1   -1    0    0  501    0  0.00000000000E+00  0.00000000000E+00  0.68022870673E+02  0.68022870673E+02  0.00000000000E+00 0. -1.
         -1   -1    0    0    0  501 -0.00000000000E+00 -0.00000000000E+00 -0.24914433195E+03  0.24914433195E+03  0.00000000000E+00 0.  1.
         25    2    1    2    0    0  0.49745056054E+02 -0.44339296837E+02 -0.15153025760E+03  0.20748354437E+03  0.12508980123E+03 0.  0.
          5    1    3    3  502    0  0.32334379972E+02 -0.17408131717E+02  0.13474468216E+02  0.39339406093E+02  0.41800000000E+01 0. -1.
         -5    1    3    3    0  502  0.17410676082E+02 -0.26931165119E+02 -0.16500472582E+03  0.16814413828E+03  0.41800000000E+01 0. -1.
        -11    1    1    2    0    0 -0.13499619643E+02 -0.53939657547E+01 -0.44119083757E+02  0.46452428878E+02  0.00000000000E+00 0.  1.
         11    1    1    2    0    0 -0.36245436411E+02  0.49733262592E+02  0.14527880077E+02  0.63231229374E+02  0.00000000000E+00 0. -1.
</event>
<event>
 7    1  0.2380582E-009  0.2180257E+03  0.7561462E-02  0.1135364E+00
         -2   -1    0    0    0  501 -0.00000000000E+00  0.00000000000E+00  0.92681940922E+02  0.92681940922E+02  0.00000000000E+00 0.  1.
          2   -1    0    0  501    0  0.00000000000E+00 -0.00000000000E+00 -0.60354990461E+03  0.60354990461E+03  0.00000000000E+00 0. -1.
         25    2    1    2    0    0 -0.74552960079E+02 -0.18743059665E+03 -0.32613271965E+03  0.40335850652E+03  0.12508861473E+03 0.  0.
          5    1    3    3  502    0 -0.91128350361E+02 -0.15892249556E+03 -0.19297967655E+03  0.26611907823E+03  0.41800000000E+01 0. -1.
         -5    1    3    3    0  502  0.16575390282E+02 -0.28508101092E+02 -0.13315304310E+03  0.13723942829E+03  0.41800000000E+01 0. -1.
        -11    1    1    2    0    0  0.84514222393E+02  0.97264433057E+02 -0.70099052651E+02  0.14668640328E+03  0.00000000000E+00 0.  1.
         11    1    1    2    0    0 -0.99612623143E+01  0.90166163595E+02 -0.11463619139E+03  0.14618693574E+03  0.00000000000E+00 0. -1.
</event>
<event>
 7    1  0.2380582E-009  0.1066099E+03  0.7561462E-02  0.1266980E+00
         -3   -1    0    0    0  501 -0.00000000000E+00  0.00000000000E+00  0.22528934373E+02  0.22528934373E+02  0.00000000000E+00 0.  1.
          3   -1    0    0  501    0  0.00000000000E+00 -0.00000000000E+00 -0.53805401475E+03  0.53805401475E+03  0.00000000000E+00 0. -1.
         25    2    1    2    0    0  0.18049842567E+02 -0.13779944290E+02 -0.31919347801E+03  0.34358067059E+03  0.12509003605E+03 0.  0.
          5    1    3    3  502    0 -0.37171043019E+02  0.32164590270E+02 -0.18317258714E+03  0.18969954240E+03  0.41800000000E+01 0.  1.
         -5    1    3    3    0  502  0.55220885586E+02 -0.45944534560E+02 -0.13602089087E+03  0.15388112819E+03  0.41800000000E+01 0.  1.
        -11    1    1    2    0    0  0.34906309283E+02  0.17101670973E+02 -0.94341413309E+02  0.10203538525E+03  0.00000000000E+00 0. -1.
         11    1    1    2    0    0 -0.52956151850E+02 -0.33217266829E+01 -0.10199018906E+03  0.11496689328E+03  0.00000000000E+00 0.  1.
</event>
<event>
 7    1  0.2380582E-009  0.1017122E+03  0.7561462E-02  0.1276736E+00
         -2   -1    0    0    0  501 -0.00000000000E+00  0.00000000000E+00  0.21316753125E+02  0.21316753125E+02  0.00000000000E+00 0.  1.
          2   -1    0    0  501    0  0.00000000000E+00 -0.00000000000E+00 -0.98264011244E+03  0.98264011244E+03  0.00000000000E+00 0. -1.
         25    2    1    2    0    0  0.24857361812E+02  0.66560916642E+01 -0.83811668203E+03  0.84779062882E+03  0.12508871102E+03 0.  0.
          5    1    3    3  502    0  0.44283917371E+02 -0.50440943589E+02 -0.44201365122E+03  0.44710054171E+03  0.41800000000E+01 0.  1.
         -5    1    3    3    0  502 -0.19426555560E+02  0.57097035253E+02 -0.39610303080E+03  0.40069008711E+03  0.41800000000E+01 0.  1.
        -11    1    1    2    0    0 -0.29118210949E+02 -0.35865716662E+02 -0.11729026610E+03  0.12606040759E+03  0.00000000000E+00 0. -1.
         11    1    1    2    0    0  0.42608491373E+01  0.29209624998E+02 -0.59164111912E+01  0.30105829158E+02  0.00000000000E+00 0.  1.
</event>
<event>
 7    1  0.2380582E-009  0.1082316E+03  0.7561462E-02  0.1263880E+00
         -1   -1    0    0    0  501 -0.00000000000E+00  0.00000000000E+00  0.14338260616E+03  0.14338260616E+03  0.00000000000E+00 0.  1.
          1   -1    0    0  501    0  0.00000000000E+00 -0.00000000000E+00 -0.12683073523E+03  0.12683073523E+03  0.00000000000E+00 0. -1.
         25    2    1    2    0    0  0.64828654186E+02 -0.11053976563E+02 -0.36096841625E+02  0.14586589489E+03  0.12509569343E+03 0.  0.
          5    1    3    3  502    0  0.30230825560E+01  0.42238831085E+02 -0.47027752148E+02  0.63421918542E+02  0.41800000000E+01 0.  1.
         -5    1    3    3    0  502  0.61805571630E+02 -0.53292807647E+02  0.10930910523E+02  0.82443976349E+02  0.41800000000E+01 0.  1.
        -11    1    1    2    0    0 -0.55675160331E+02 -0.20507888380E+02  0.66114022046E+02  0.88833332003E+02  0.00000000000E+00 0.  1.
         11    1    1    2    0    0 -0.91534938545E+01  0.31561864943E+02 -0.13465309489E+02  0.35514114491E+02  0.00000000000E+00 0. -1.
</event>
<event>
 7    1  0.2380582E-009  0.6967766E+02  0.7561462E-02  0.1361193E+00
          1   -1    0    0  501    0  0.00000000000E+00  0.00000000000E+00  0.18539528286E+03  0.18539528286E+03  0.00000000000E+00 0. -1.
         -1   -1    0    0    0  501 -0.00000000000E+00 -0.00000000000E+00 -0.79554804579E+02  0.79554804579E+02  0.00000000000E+00 0.  1.
         25    2    1    2    0    0 -0.31952010056E+02  0.11627751836E+01  0.10805048605E+03  0.16835640269E+03  0.12508672111E+03 0.  0.
          5    1    3    3  502    0 -0.40381422265E+02 -0.41228374949E+02  0.68896910965E+01  0.58269875651E+02  0.41800000000E+01 0. -1.
         -5    1    3    3    0  502  0.84294122091E+01  0.42391150132E+02  0.10116079495E+03  0.11008652703E+03  0.41800000000E+01 0. -1.
        -11    1    1    2    0    0  0.23975795251E+02  0.85937653936E+01  0.42826261208E+02  0.49827504559E+02  0.00000000000E+00 0. -1.
         11    1    1    2    0    0  0.79762148046E+01 -0.97565405772E+01 -0.45036268974E+02  0.46766180192E+02  0.00000000000E+00 0.  1.
</event>
<event>
 7    1  0.2380582E-009  0.1095918E+03  0.7561462E-02  0.1261328E+00
         -2   -1    0    0    0  501 -0.00000000000E+00  0.00000000000E+00  0.21713400975E+03  0.21713400975E+03  0.00000000000E+00 0.  1.
          2   -1    0    0  501    0  0.00000000000E+00 -0.00000000000E+00 -0.59297514391E+02  0.59297514391E+02  0.00000000000E+00 0. -1.
         25    2    1    2    0    0 -0.21569509940E+01  0.29159037808E+02  0.76517283261E+02  0.14952147616E+03  0.12508747049E+03 0.  0.
          5    1    3    3  502    0  0.60189517633E+02  0.32801443414E+01  0.42020827648E+02  0.73598639498E+02  0.41800000000E+01 0.  1.
         -5    1    3    3    0  502 -0.62346468627E+02  0.25878893467E+02  0.34496455613E+02  0.75922836665E+02  0.41800000000E+01 0.  1.
        -11    1    1    2    0    0 -0.20247436975E+02 -0.54002119164E+02  0.28357749760E+02  0.64267795588E+02  0.00000000000E+00 0.  1.
         11    1    1    2    0    0  0.22404387969E+02  0.24843081356E+02  0.52961462339E+02  0.62642252391E+02  0.00000000000E+00 0. -1.
</event>
<event>
 7    1  0.2380582E-009  0.7598039E+02  0.7561462E-02  0.1340862E+00
          2   -1    0    0  501    0  0.00000000000E+00  0.00000000000E+00  0.15408397445E+04  0.15408397445E+04  0.00000000000E+00 0. -1.
         -2   -1    0    0    0  501 -0.00000000000E+00 -0.00000000000E+00 -0.17462102475E+02  0.17462102475E+02  0.00000000000E+00 0.  1.
         25    2    1    2    0    0  0.55207701235E+02 -0.13516739950E+02  0.13323794776E+04  0.13394449741E+04  0.12508866387E+03 0.  0.
          5    1    3    3  502    0 -0.90265411059E+01  0.30291543884E+01  0.10209303226E+04  0.10209832762E+04  0.41800000000E+01 0.  1.
         -5    1    3    3    0  502  0.64234242341E+02 -0.16545894339E+02  0.31144915499E+03  0.31846169794E+03  0.41800000000E+01 0.  1.
        -11    1    1    2    0    0 -0.24461233768E+02 -0.18531069831E+02  0.16407815571E+03  0.16692331679E+03  0.00000000000E+00 0. -1.
         11    1    1    2    0    0 -0.30746467466E+02  0.32047809781E+02  0.26920008653E+02  0.51933556005E+02  0.00000000000E+00 0.  1.
</event>
<event>
 7    1  0.2380582E-009  0.1701360E+03  0.7561462E-02  0.1177706E+00
          2   -1    0    0  501    0  0.00000000000E+00  0.00000000000E+00  0.10644436880E+04  0.10644436880E+04  0.00000000000E+00 0. -1.
         -2   -1    0    0    0  501 -0.00000000000E+00 -0.00000000000E+00 -0.34969919971E+02  0.34969919971E+02  0.00000000000E+00 0.  1.
         25    2    1    2    0    0  0.91343415151E+02  0.12551518191E+03  0.43876488391E+03  0.48193239457E+03  0.12508608715E+03 0.  0.
          5    1    3    3  502    0 -0.38158359145E+01  0.61827162679E+01 -0.68879734536E+01  0.10849108833E+02  0.41800000000E+01 0.  1.
         -5    1    3    3    0  502  0.95159251065E+02  0.11933246564E+03  0.44565285737E+03  0.47108328574E+03  0.41800000000E+01 0.  1.
        -11    1    1    2    0    0 -0.64006749442E+02 -0.15518160661E+02  0.19244049231E+03  0.20339867346E+03  0.00000000000E+00 0.  1.
         11    1    1    2    0    0 -0.27336665708E+02 -0.10999702125E+03  0.39826839185E+03  0.41408253998E+03  0.00000000000E+00 0. -1.
</event>
<event>
 7    1  0.2380582E-009  0.1879105E+03  0.7561462E-02  0.1160360E+00
          2   -1    0    0  501    0  0.00000000000E+00  0.00000000000E+00  0.50252911292E+02  0.50252911292E+02  0.00000000000E+00 0. -1.
         -2   -1    0    0    0  501 -0.00000000000E+00 -0.00000000000E+00 -0.79484790899E+03  0.79484790899E+03  0.00000000000E+00 0.  1.
         25    2    1    2    0    0  0.82927862147E+02  0.14503686940E+03 -0.43953087877E+03  0.48656755699E+03  0.12509144783E+03 0.  0.
          5    1    3    3  502    0  0.44267376916E+02 -0.12707507026E+02 -0.97895014898E+02  0.10826812890E+03  0.41800000000E+01 0. -1.
         -5    1    3    3    0  502  0.38660485231E+02  0.15774437642E+03 -0.34163586387E+03  0.37829942809E+03  0.41800000000E+01 0. -1.
        -11    1    1    2    0    0 -0.70651688496E+02 -0.12604730357E+03 -0.17701812817E+03  0.22850602076E+03  0.00000000000E+00 0. -1.
         11    1    1    2    0    0 -0.12276173651E+02 -0.18989565832E+02 -0.12804599076E+03  0.13002724253E+03  0.00000000000E+00 0.  1.
</event>
<event>
 7    1  0.2380582E-009  0.1633519E+03  0.7561462E-02  0.1184964E+00
          2   -1    0    0  501    0  0.00000000000E+00  0.00000000000E+00  0.14590619787E+03  0.14590619787E+03  0.00000000000E+00 0. -1.
         -2   -1    0    0    0  501 -0.00000000000E+00 -0.00000000000E+00 -0.21435251353E+03  0.21435251353E+03  0.00000000000E+00 0.  1.
         25    2    1    2    0    0  0.75884497783E+02  0.11678872016E+03 -0.25621974215E+02  0.18895949512E+03  0.12510452858E+03 0.  0.
          5    1    3    3  502    0  0.11063635458E+03  0.89542305123E+02 -0.25170576330E+02  0.14460033774E+03  0.41800000000E+01 0. -1.
         -5    1    3    3    0  502 -0.34751856794E+02  0.27246415040E+02 -0.45139788474E+00  0.44359157378E+02  0.41800000000E+01 0. -1.
        -11    1    1    2    0    0 -0.50648294753E+02 -0.89108691803E+02 -0.70779098482E+02  0.12456038495E+03  0.00000000000E+00 0.  1.
         11    1    1    2    0    0 -0.25236203030E+02 -0.27680028360E+02  0.27954757034E+02  0.46738831332E+02  0.00000000000E+00 0. -1.
</event>
<event>
 7    1  0.2380582E-009  0.9484149E+02  0.7561462E-02  0.1291533E+00
         -1   -1    0    0    0  501 -0.00000000000E+00  0.00000000000E+00  0.64945983547E+02  0.64945983547E+02  0.00000000000E+00 0.  1.
          1   -1    0    0  501    0  0.00000000000E+00 -0.00000000000E+00 -0.20937078036E+03  0.20937078036E+03  0.00000000000E+00 0. -1.
         25    2    1    2    0    0  0.23031089691E+02  0.12986064866E+02 -0.41827814951E+02  0.13451764033E+03  0.12508541275E+03 0.  0.
          5    1    3    3  502    0  0.67009614833E+01 -0.51959974755E+02  0.48507099137E+01  0.52780144448E+02  0.41800000000E+01 0. -1.
         -5    1    3    3    0  502  0.16330128207E+02  0.64946039621E+02 -0.46678524864E+02  0.81737495883E+02  0.41800000000E+01 0. -1.
        -11    1    1    2    0    0  0.36728527573E+01  0.24072300033E+02 -0.88807779813E+02  0.92085760199E+02  0.00000000000E+00 0. -1.
         11    1    1    2    0    0 -0.26703942448E+02 -0.37058364899E+02 -0.13789202046E+02  0.47713363372E+02  0.00000000000E+00 0.  1.
</event>
<event>
 7    1  0.2380582E-009  0.1202134E+03  0.7561462E-02  0.1242745E+00
         -2   -1    0    0    0  501 -0.00000000000E+00  0.00000000000E+00  0.58743179667E+03  0.58743179667E+03  0.00000000000E+00 0.  1.
          2   -1    0    0  501    0  0.00000000000E+00 -0.00000000000E+00 -0.70804804809E+02  0.70804804809E+02  0.00000000000E+00 0. -1.
         25    2    1    2    0    0 -0.52753833137E+02  0.87331350668E+02  0.44676128372E+02  0.16749040581E+03  0.12508935955E+03 0.  0.
          5    1    3    3  502    0 -0.54421592728E+02  0.74794042175E+02  0.84588726373E+02  0.12541364969E+03  0.41800000000E+01 0. -1.
         -5    1    3    3    0  502  0.16677595904E+01  0.12537308492E+02 -0.39912598002E+02  0.42076756119E+02  0.41800000000E+01 0. -1.
        -11    1    1    2    0    0  0.50940769797E+02 -0.39292835004E+01  0.18011536306E+03  0.18722164754E+03  0.00000000000E+00 0.  1.
         11    1    1    2    0    0  0.18130633400E+01 -0.83402067167E+02  0.29183550043E+03  0.30352454813E+03  0.00000000000E+00 0. -1.
</event>
<event>
 7    1  0.2380582E-009  0.1538252E+03  0.7561462E-02  0.1195850E+00
          4   -1    0    0  501    0  0.00000000000E+00  0.00000000000E+00  0.55494960936E+02  0.55494960936E+02  0.00000000000E+00 0. -1.
         -4   -1    0    0    0  501 -0.00000000000E+00 -0.00000000000E+00 -0.52011645667E+03  0.52011645667E+03  0.00000000000E+00 0.  1.
         25    2    1    2    0    0  0.11889281316E+03  0.47817617611E+02 -0.22846287218E+03  0.29028404406E+03  0.12509003436E+03 0.  0.
          5    1    3    3  502    0  0.96105206347E+02 -0.20867553165E+01 -0.60786280661E+02  0.11381128921E+03  0.41800000000E+01 0. -1.
         -5    1    3    3    0  502  0.22787606814E+02  0.49904372927E+02 -0.16767659152E+03  0.17647275485E+03  0.41800000000E+01 0. -1.
        -11    1    1    2    0    0 -0.11664300067E+03 -0.84162150644E+01 -0.20062818945E+03  0.23222422932E+03  0.00000000000E+00 0.  1.
         11    1    1    2    0    0 -0.22498124902E+01 -0.39401402546E+02 -0.35530434098E+02  0.53103144220E+02  0.00000000000E+00 0. -1.
</event>
<event>
 7    1  0.2380582E-009  0.1276042E+03  0.7561462E-02  0.1231055E+00
          1   -1    0    0  501    0  0.00000000000E+00  0.00000000000E+00  0.20383755536E+03  0.20383755536E+03  0.00000000000E+00 0. -1.
         -1   -1    0    0    0  501 -0.00000000000E+00 -0.00000000000E+00 -0.13482038325E+03  0.13482038325E+03  0.00000000000E+00 0.  1.
         25    2    1    2    0    0  0.11398865882E+03 -0.69045983760E+01 -0.11063396799E+02  0.16973059837E+03  0.12507993227E+03 0.  0.
          5    1    3    3  502    0  0.10394450134E+03 -0.17145579453E+02 -0.58098132413E+02  0.12037979749E+03  0.41800000000E+01 0. -1.
         -5    1    3    3    0  502  0.10044157474E+02  0.10240981077E+02  0.47034735614E+02  0.49350800875E+02  0.41800000000E+01 0. -1.
        -11    1    1    2    0    0 -0.77833483946E+01  0.25812205303E+02 -0.96253640883E+01  0.28626877033E+02  0.00000000000E+00 0. -1.
         11    1    1    2    0    0 -0.10620531042E+03 -0.18907606927E+02  0.89705933003E+02  0.14030046321E+03  0.00000000000E+00 0.  1.
</event>
<event>
 7    1  0.2380582E-009  0.1197781E+03  0.7561462E-02  0.1243464E+00
         -1   -1    0    0    0  501 -0.00000000000E+00  0.00000000000E+00  0.98902113132E+02  0.98902113132E+02  0.00000000000E+00 0.  1.
          1   -1    0    0  501    0  0.00000000000E+00 -0.00000000000E+00 -0.24022227922E+03  0.24022227922E+03  0.00000000000E+00 0. -1.
         25    2    1    2    0    0  0.34781098309E+02 -0.84976940471E+02 -0.11280012229E+03  0.19183900914E+03  0.12509009805E+03 0.  0.
          5    1    3    3  502    0  0.23935683162E+02 -0.10428628151E+03 -0.12628790022E+03  0.16557370438E+03  0.41800000000E+01 0.  1.
         -5    1    3    3    0  502  0.10845415147E+02  0.19309341039E+02  0.13487777930E+02  0.26265304768E+02  0.41800000000E+01 0.  1.
        -11    1    1    2    0    0  0.13686035609E+02  0.19824249329E+01 -0.47367331584E+02  0.49344722926E+02  0.00000000000E+00 0. -1.
         11    1    1    2    0    0 -0.48467133918E+02  0.82994515539E+02  0.18847287782E+02  0.97940660282E+02  0.00000000000E+00 0.  1.
</event>
<event>
 7    1  0.2380582E-009  0.1072662E+03  0.7561462E-02  0.1265718E+00
          1   -1    0    0  501    0  0.00000000000E+00  0.00000000000E+00  0.66837654939E+03  0.66837654939E+03  0.00000000000E+00 0. -1.
         -1   -1    0    0    0  501 -0.00000000000E+00 -0.00000000000E+00 -0.37535820847E+02  0.37535820847E+02  0.00000000000E+00 0.  1.
         25    2    1    2    0    0  0.82888080474E+02 -0.12552185061E+02  0.51729330986E+03  0.53876564459E+03  0.12509220653E+03 0.  0.
          5    1    3    3  502    0  0.50093286359E+02 -0.34937535086E+02  0.48077862821E+03  0.48466022164E+03  0.41800000000E+01 0.  1.
         -5    1    3    3    0  502  0.32794794114E+02  0.22385350025E+02  0.36514681642E+02  0.54105422946E+02  0.41800000000E+01 0.  1.
        -11    1    1    2    0    0 -0.29026550220E+02 -0.32208075039E+02  0.14254195567E+02  0.45640801994E+02  0.00000000000E+00 0. -1.
         11    1    1    2    0    0 -0.53861530253E+02  0.44760260099E+02  0.99293223120E+02  0.12150592365E+03  0.00000000000E+00 0.  1.
</event>
<event>
 7    1  0.2380582E-009  0.9133376E+02  0.7561462E-02  0.1299654E+00
          1   -1    0    0  501    0  0.00000000000E+00  0.00000000000E+00  0.51018376927E+02  0.51018376927E+02  0.00000000000E+00 0. -1.
         -1   -1    0    0    0  501 -0.00000000000E+00 -0.00000000000E+00 -0.26300336918E+03  0.26300336918E+03  0.00000000000E+00 0.  1.
         25    2    1    2    0    0 -0.27614824222E+02  0.24782641532E+02 -0.14869482009E+03  0.19782393656E+03  0.12508957797E+03 0.  0.
          5    1    3    3  502    0 -0.22447059102E+01 -0.32033321023E+02 -0.12812806011E+03  0.13215689368E+03  0.41800000000E+01 0.  1.
         -5    1    3    3    0  502 -0.25370118312E+02  0.56815962555E+02 -0.20566759982E+02  0.65667042878E+02  0.41800000000E+01 0.  1.
        -11    1    1    2    0    0 -0.28255624290E+02 -0.52778783969E+01 -0.46530679418E+02  0.54693147939E+02  0.00000000000E+00 0.  1.
         11    1    1    2    0    0  0.55870448512E+02 -0.19504763135E+02 -0.16759492738E+02  0.61504661602E+02  0.00000000000E+00 0. -1.
</event>
<event>
 7    1  0.2380582E-009  0.1049257E+03  0.7561462E-02  0.1270266E+00
         -2   -1    0    0    0  501 -0.00000000000E+00  0.00000000000E+00  0.19084151437E+02  0.19084151437E+02  0.00000000000E+00 0.  1.
          2   -1    0    0  501    0  0.00000000000E+00 -0.00000000000E+00 -0.10075084682E+04  0.10075084682E+04  0.00000000000E+00 0. -1.
         25    2    1    2    0    0  0.79012472899E+02 -0.39736860067E+02 -0.55480514796E+03  0.57556706201E+03  0.12508677686E+03 0.  0.
          5    1    3    3  502    0  0.42353533862E+02 -0.42837343124E+02 -0.52381191348E+03  0.52728099994E+03  0.41800000000E+01 0.  1.
         -5    1    3    3    0  502  0.36658939037E+02  0.31004830570E+01 -0.30993234481E+02  0.48286062069E+02  0.41800000000E+01 0.  1.
        -11    1    1    2    0    0 -0.26844241548E+02  0.52294205422E+02 -0.12960214380E+03  0.14230956715E+03  0.00000000000E+00 0.  1.
         11    1    1    2    0    0 -0.52168231351E+02 -0.12557345355E+02 -0.30401702498E+03  0.30871599046E+03  0.00000000000E+00 0. -1.
</event>
<event>
 7    1  0.2380582E-009  0.8520721E+02  0.7561462E-02  0.1314892E+00
         -2   -1    0    0    0  501 -0.00000000000E+00  0.00000000000E+00  0.25288500978E+03  0.25288500978E+03  0.00000000000E+00 0. -1.
          2   -1    0    0  501    0  0.00000000000E+00 -0.00000000000E+00 -0.56235864723E+02  0.56235864723E+02  0.00000000000E+00 0.  1.
         25    2    1    2    0    0  0.23654103395E+02 -0.74301412632E+01  0.16793427676E+03  0.21086584273E+03  0.12509100174E+03 0.  0.
          5    1    3    3  502    0  0.49099334893E+02 -0.23655166815E+02  0.17523886384E+02  0.57400963389E+02  0.41800000000E+01 0.  1.
         -5    1    3    3    0  502 -0.25445231499E+02  0.16225025552E+02  0.15041039037E+03  0.15346487934E+03  0.41800000000E+01 0.  1.
        -11    1    1    2    0    0  0.26969778624E+02  0.19455847388E+02  0.31957614302E+02  0.46121449115E+02  0.00000000000E+00 0.  1.
         11    1    1    2    0    0 -0.50623882019E+02 -0.12025706125E+02 -0.32427460030E+01  0.52133582652E+02  0.00000000000E+00 0. -1.
</event>
<event>
 7    1  0.2380582E-009  0.2043623E+03  0.7561462E-02  0.1146110E+00
         -2   -1    0    0    0  501 -0.00000000000E+00  0.00000000000E+00  0.23660533967E+02  0.23660533967E+02  0.00000000000E+00 0.  1.
          2   -1    0    0  501    0  0.00000000000E+00 -0.00000000000E+00 -0.23899766774E+04  0.23899766774E+04  0.00000000000E+00 0. -1.
         25    2    1    2    0    0 -0.13726819242E+02  0.18533521831E+03 -0.17202742043E+04  0.17347990721E+04  0.12508762408E+03 0.  0.
          5    1    3    3  502    0 -0.31601177141E+02  0.10921625123E+02 -0.59374359794E+03  0.59469895644E+03  0.41800000000E+01 0. -1.
         -5    1    3    3    0  502  0.17874357899E+02  0.17441359319E+03 -0.11265306064E+04  0.11401001156E+04  0.41800000000E+01 0. -1.
        -11    1    1    2    0    0 -0.30009213639E+02 -0.64322250636E+02 -0.14363477694E+03  0.16021502419E+03  0.00000000000E+00 0.  1.
         11    1    1    2    0    0  0.43736032881E+02 -0.12101296768E+03 -0.50240716222E+03  0.51862311515E+03  0.00000000000E+00 0. -1.
</event>
<event>
 7    1  0.2380582E-009  0.1350550E+03  0.7561462E-02  0.1220142E+00
          1   -1    0    0  501    0  0.00000000000E+00  0.00000000000E+00  0.60942224939E+03  0.60942224939E+03  0.00000000000E+00 0. -1.
         -1   -1    0    0    0  501 -0.00000000000E+00 -0.00000000000E+00 -0.44302720246E+02  0.44302720246E+02  0.00000000000E+00 0.  1.
         25    2    1    2    0    0 -0.10073756596E+03 -0.15188640515E+02  0.44056316526E+03  0.46917086964E+03  0.12508657137E+03 0.  0.
          5    1    3    3  502    0 -0.10832455088E+03 -0.54304003067E+02  0.33387160450E+03  0.35520536843E+03  0.41800000000E+01 0.  1.
         -5    1    3    3    0  502  0.75869849156E+01  0.39115362552E+02  0.10669156076E+03  0.11396550121E+03  0.41800000000E+01 0.  1.
        -11    1    1    2    0    0  0.80742446227E+02  0.27526458369E+02  0.13431328288E+03  0.15911350191E+03  0.00000000000E+00 0. -1.
         11    1    1    2    0    0  0.19995119734E+02 -0.12337817855E+02 -0.97569189950E+01  0.25440598084E+02  0.00000000000E+00 0.  1.
</event>
<event>
 7    1  0.2380582E-009  0.2060447E+03  0.7561462E-02  0.1144737E+00
          2   -1    0    0  501    0  0.00000000000E+00  0.00000000000E+00  0.21636583948E+03  0.21636583948E+03  0.00000000000E+00 0. -1.
         -2   -1    0    0    0  501 -0.00000000000E+00 -0.00000000000E+00 -0.39534087795E+03  0.39534087795E+03  0.00000000000E+00 0.  1.
         25    2    1    2    0    0 -0.12654123878E+03 -0.14474421596E+03  0.10306896634E+03  0.25146405093E+03  0.12508950364E+03 0.  0.
          5    1    3    3  502    0 -0.67739330664E+02 -0.50643190643E+01  0.67254432735E+02  0.95681217430E+02  0.41800000000E+01 0. -1.
         -5    1    3    3    0  502 -0.58801908118E+02 -0.13967989690E+03  0.35814533608E+02  0.15578283350E+03  0.41800000000E+01 0. -1.
        -11    1    1    2    0    0  0.31258416489E+02  0.30704954312E+02 -0.27845563989E+01  0.43904858216E+02  0.00000000000E+00 0. -1.
         11    1    1    2    0    0  0.95282822293E+02  0.11403926165E+03 -0.27925944841E+03  0.31633780828E+03  0.00000000000E+00 0.  1.
</event>
<event>
 7    1  0.2380582E-009  0.1461919E+03  0.7561462E-02  0.1205232E+00
         -2   -1    0    0    0  501 -0.00000000000E+00  0.00000000000E+00  0.47539783709E+02  0.47539783709E+02  0.00000000000E+00 0.  1.
          2   -1    0    0  501    0  0.00000000000E+00 -0.00000000000E+00 -0.50079009638E+03  0.50079009638E+03  0.00000000000E+00 0. -1.
         25    2    1    2    0    0  0.11400436720E+02  0.97370040762E+02 -0.32637765519E+03  0.36301524720E+03  0.12508717399E+03 0.  0.
          5    1    3    3  502    0 -0.51935529153E+02  0.72322321950E+02 -0.20953317406E+03  0.22770472299E+03  0.41800000000E+01 0.  1.
         -5    1    3    3    0  502  0.63335965873E+02  0.25047718812E+02 -0.11684448114E+03  0.13531052421E+03  0.41800000000E+01 0.  1.
        -11    1    1    2    0    0  0.39204597454E+02 -0.61682916291E+02 -0.71499703485E+02  0.10224475645E+03  0.00000000000E+00 0.  1.
         11    1    1    2    0    0 -0.50605034174E+02 -0.35687124471E+02 -0.55372953989E+02  0.83069876431E+02  0.00000000000E+00 0. -1.
</event>
<event>
 7    1  0.2380582E-009  0.1946347E+03  0.7561462E-02  0.1154346E+00
          2   -1    0    0  501    0  0.00000000000E+00  0.00000000000E+00  0.11089852957E+04  0.11089852957E+04  0.00000000000E+00 0. -1.
         -2   -1    0    0    0  501 -0.00000000000E+00 -0.00000000000E+00 -0.60411504197E+02  0.60411504197E+02  0.00000000000E+00 0.  1.
         25    2    1    2    0    0  0.11629239566E+03 -0.11700568973E+03  0.91437762678E+03  0.93752222932E+03  0.12508890199E+03 0.  0.
          5    1    3    3  502    0 -0.13242094456E+02 -0.56600333389E+02  0.37555628276E+03  0.38005123960E+03  0.41800000000E+01 0.  1.
         -5    1    3    3    0  502  0.12953449012E+03 -0.60405356344E+02  0.53882134402E+03  0.55747098971E+03  0.41800000000E+01 0.  1.
        -11    1    1    2    0    0 -0.32983990117E+02 -0.11435416168E+02  0.35121265511E+02  0.49519850950E+02  0.00000000000E+00 0.  1.
         11    1    1    2    0    0 -0.83308405545E+02  0.12844110590E+03  0.99074899236E+02  0.18235471965E+03  0.00000000000E+00 0. -1.
</event>
<event>
 7    1  0.2380582E-009  0.1223332E+03  0.7561462E-02  0.1239297E+00
          2   -1    0    0  501    0  0.00000000000E+00  0.00000000000E+00  0.62060249797E+02  0.62060249797E+02  0.00000000000E+00 0. -1.
         -2   -1    0    0    0  501 -0.00000000000E+00 -0.00000000000E+00 -0.35203448549E+03  0.35203448549E+03  0.00000000000E+00 0.  1.
         25    2    1    2    0    0 -0.60315728730E+02  0.79315362697E+02 -0.14288809747E+03  0.21446069123E+03  0.12508983090E+03 0.  0.
          5    1    3    3  502    0 -0.15556769882E+02  0.60531291082E+02  0.89815874383E+00  0.62644468058E+02  0.41800000000E+01 0. -1.
         -5    1    3    3    0  502 -0.44758958848E+02  0.18784071616E+02 -0.14378625621E+03  0.15181622318E+03  0.41800000000E+01 0. -1.
        -11    1    1    2    0    0  0.26741662187E+02 -0.93211593407E+02 -0.12016132648E+03  0.15440939745E+03  0.00000000000E+00 0. -1.
         11    1    1    2    0    0  0.33574066543E+02  0.13896230710E+02 -0.26924811746E+02  0.45224646596E+02  0.00000000000E+00 0.  1.
</event>
<event>
 7    1  0.2380582E-009  0.1203890E+03  0.7561462E-02  0.1242457E+00
          3   -1    0    0  501    0  0.00000000000E+00  0.00000000000E+00  0.56538499013E+02  0.56538499013E+02  0.00000000000E+00 0. -1.
         -3   -1    0    0    0  501 -0.00000000000E+00 -0.00000000000E+00 -0.43021648764E+03  0.43021648764E+03  0.00000000000E+00 0.  1.
         25    2    1    2    0    0 -0.11798847069E+02  0.60752262213E+02 -0.55145847978E+02  0.15006476986E+03  0.12509324702E+03 0.  0.
          5    1    3    3  502    0  0.27421816511E+02 -0.29789397065E+02 -0.18703560796E+02  0.44795756325E+02  0.41800000000E+01 0.  1.
         -5    1    3    3    0  502 -0.39220663580E+02  0.90541659278E+02 -0.36442287182E+02  0.10526901354E+03  0.41800000000E+01 0.  1.
        -11    1    1    2    0    0  0.45709213553E+02 -0.44180640230E+02 -0.25489079981E+03  0.26269865055E+03  0.00000000000E+00 0.  1.
         11    1    1    2    0    0 -0.33910366484E+02 -0.16571621984E+02 -0.63641340837E+02  0.73991566234E+02  0.00000000000E+00 0. -1.
</event>
<event>
 7    1  0.2380582E-009  0.1309446E+03  0.7561462E-02  0.1226061E+00
          2   -1    0    0  501    0  0.00000000000E+00  0.00000000000E+00  0.25361583477E+03  0.25361583477E+03  0.00000000000E+00 0. -1.
         -2   -1    0    0    0  501 -0.00000000000E+00 -0.00000000000E+00 -0.97520642103E+02  0.97520642103E+02  0.00000000000E+00 0.  1.
         25    2    1    2    0    0  0.84330435991E+02 -0.35118224648E+02  0.71045762680E+02  0.17041132899E+03  0.12509040137E+03 0.  0.
          5    1    3    3  502    0  0.44384681309E+02 -0.45872468103E+02 -0.22686705076E+02  0.67870776126E+02  0.41800000000E+01 0.  1.
         -5    1    3    3    0  502  0.39945754681E+02  0.10754243454E+02  0.93732467757E+02  0.10254055286E+03  0.41800000000E+01 0.  1.
        -11    1    1    2    0    0  0.26680843137E+02  0.36636323983E+02  0.91431508637E+01  0.46235103906E+02  0.00000000000E+00 0.  1.
         11    1    1    2    0    0 -0.11101127913E+03 -0.15180993348E+01  0.75906279120E+02  0.13449004398E+03  0.00000000000E+00 0. -1.
</event>
<event>
 7    1  0.2380582E-009  0.1411021E+03  0.7561462E-02  0.1211854E+00
         -2   -1    0    0    0  501 -0.00000000000E+00  0.00000000000E+00  0.54013124067E+02  0.54013124067E+02  0.00000000000E+00 0.  1.
          2   -1    0    0  501    0  0.00000000000E+00 -0.00000000000E+00 -0.59250284887E+03  0.59250284887E+03  0.00000000000E+00 0. -1.
         25    2    1    2    0    0  0.61033021058E+02 -0.92236908500E+02 -0.12484678273E+03  0.20848883526E+03  0.12509275887E+03 0.  0.
          5    1    3    3  502    0 -0.38825258134E+02 -0.23689004186E+02 -0.30856579225E+02  0.55119601504E+02  0.41800000000E+01 0.  1.
         -5    1    3    3    0  502  0.99858279192E+02 -0.68547904315E+02 -0.93990203503E+02  0.15336923376E+03  0.41800000000E+01 0.  1.
        -11    1    1    2    0    0 -0.12534993501E+02  0.48287259111E+02 -0.58408267737E+02  0.76813483156E+02  0.00000000000E+00 0.  1.
         11    1    1    2    0    0 -0.48498027557E+02  0.43949649389E+02 -0.35523467434E+03  0.36121365452E+03  0.00000000000E+00 0. -1.
</event>
<event>
 7    1  0.2380582E-009  0.1510130E+03  0.7561462E-02  0.1199234E+00
          1   -1    0    0  501    0  0.00000000000E+00  0.00000000000E+00  0.34162948164E+03  0.34162948164E+03  0.00000000000E+00 0. -1.
         -1   -1    0    0    0  501 -0.00000000000E+00 -0.00000000000E+00 -0.99480072401E+02  0.99480072401E+02  0.00000000000E+00 0.  1.
         25    2    1    2    0    0 -0.12050259074E+03  0.97375620155E+01  0.23019990041E+03  0.28854099702E+03  0.12509283881E+03 0.  0.
          5    1    3    3  502    0 -0.83266530110E+02  0.65213582099E+02  0.12435938656E+03  0.16330601872E+03  0.41800000000E+01 0. -1.
         -5    1    3    3    0  502 -0.37236060634E+02 -0.55476020084E+02  0.10584051386E+03  0.12523497830E+03  0.41800000000E+01 0. -1.
        -11    1    1    2    0    0  0.83735713053E+02 -0.27853405036E+02 -0.30683006579E+02  0.93428735972E+02  0.00000000000E+00 0.  1.
         11    1    1    2    0    0  0.36766877692E+02  0.18115843020E+02  0.42632515399E+02  0.59139821041E+02  0.00000000000E+00 0. -1.
</event>
<event>
 7    1  0.2380582E-009  0.1308294E+03  0.7561462E-02  0.1226230E+00
         -1   -1    0    0    0  501 -0.00000000000E+00  0.00000000000E+00  0.23458124322E+02  0.23458124322E+02  0.00000000000E+00 0. -1.
          1   -1    0    0  501    0  0.00000000000E+00 -0.00000000000E+00 -0.79319516617E+03  0.79319516617E+03  0.00000000000E+00 0.  1.
         25    2    1    2    0    0  0.37180799386E+02 -0.70932837995E+02 -0.36104536776E+03  0.39040358885E+03  0.12508926916E+03 0.  0.
          5    1    3    3  502    0  0.72784782371E+02 -0.11052734872E+02 -0.23537044299E+03  0.24665057333E+03  0.41800000000E+01 0.  1.
         -5    1    3    3    0  502 -0.35603982985E+02 -0.59880103123E+02 -0.12567492478E+03  0.14375301552E+03  0.41800000000E+01 0.  1.
        -11    1    1    2    0    0  0.11086993157E+02 -0.15545120602E+02 -0.37604236768E+02  0.42174053809E+02  0.00000000000E+00 0.  1.
         11    1    1    2    0    0 -0.48267792543E+02  0.86477958597E+02 -0.37108743731E+03  0.38407564783E+03  0.00000000000E+00 0. -1.
</event>
<event>
 7    1  0.2380582E-009  0.2317749E+03  0.7561462E-02  0.1125397E+00
         -4   -1    0    0    0  501 -0.00000000000E+00  0.00000000000E+00  0.28114996351E+03  0.28114996351E+03  0.00000000000E+00 0. -1.
          4   -1    0    0  501    0  0.00000000000E+00 -0.00000000000E+00 -0.27082710745E+03  0.27082710745E+03  0.00000000000E+00 0.  1.
         25    2    1    2    0    0  0.10423912285E+03 -0.18782987527E+03 -0.12858146095E+03  0.27986874113E+03  0.12508982129E+03 0.  0.
          5    1    3    3  502    0  0.46240320247E+02 -0.16854706428E+03 -0.13115302331E+03  0.21855175135E+03  0.41800000000E+01 0.  1.
         -5    1    3    3    0  502  0.57998802604E+02 -0.19282810986E+02  0.25715623679E+01  0.61316989782E+02  0.41800000000E+01 0.  1.
        -11    1    1    2    0    0 -0.90957361045E+02  0.87350798324E+02  0.10831592409E+03  0.16624001597E+03  0.00000000000E+00 0.  1.
         11    1    1    2    0    0 -0.13281761806E+02  0.10047907694E+03  0.30588392910E+02  0.10586831386E+03  0.00000000000E+00 0. -1.
</event>
<event>
 7    1  0.2380582E-009  0.9822834E+02  0.7561462E-02  0.1284066E+00
         -1   -1    0    0    0  501 -0.00000000000E+00  0.00000000000E+00  0.18466430742E+03  0.18466430742E+03  0.00000000000E+00 0.  1.
          1   -1    0    0  501    0  0.00000000000E+00 -0.00000000000E+00 -0.69891593702E+02  0.69891593702E+02  0.00000000000E+00 0. -1.
         25    2    1    2    0    0  0.47705871418E+01  0.38437644959E+00  0.10313469571E+03  0.16219525197E+03  0.12509047947E+03 0.  0.
          5    1    3    3  502    0  0.38973680413E+02 -0.37804473780E+02  0.93822687357E+01  0.55259617890E+02  0.41800000000E+01 0. -1.
         -5    1    3    3    0  502 -0.34203093271E+02  0.38188850230E+02  0.93752426978E+02  0.10693563408E+03  0.41800000000E+01 0. -1.
        -11    1    1    2    0    0  0.42426072819E+02 -0.66780520043E+01  0.12526504753E+02  0.44737918534E+02  0.00000000000E+00 0.  1.
         11    1    1    2    0    0 -0.47196659961E+02  0.62936755547E+01 -0.88848674520E+00  0.47622730625E+02  0.00000000000E+00 0. -1.
</event>
<event>
 7    1  0.2380582E-009  0.1053515E+03  0.7561462E-02  0.1269429E+00
         -1   -1    0    0    0  501 -0.00000000000E+00  0.00000000000E+00  0.47739653976E+02  0.47739653976E+02  0.00000000000E+00 0.  1.
          1   -1    0    0  501    0  0.00000000000E+00 -0.00000000000E+00 -0.26879688736E+03  0.26879688736E+03  0.00000000000E+00 0. -1.
         25    2    1    2    0    0  0.28973330153E+02  0.13656177017E+02 -0.13410943875E+03  0.18616889720E+03  0.12509025419E+03 0.  0.
          5    1    3    3  502    0 -0.14738171354E+02  0.59701525948E+02 -0.43454200124E+02  0.75413697719E+02  0.41800000000E+01 0. -1.
         -5    1    3    3    0  502  0.43711501506E+02 -0.46045348931E+02 -0.90655238624E+02  0.11075519948E+03  0.41800000000E+01 0. -1.
        -11    1    1    2    0    0  0.20076837412E+01  0.31013803094E+02 -0.42011363020E+01  0.31361382664E+02  0.00000000000E+00 0.  1.
         11    1    1    2    0    0 -0.30981013894E+02 -0.44669980111E+02 -0.82746658335E+02  0.99006261472E+02  0.00000000000E+00 0. -1.
</event>
<event>
 7    1  0.2380582E-009  0.9988003E+02  0.7561462E-02  0.1280548E+00
          1   -1    0    0  501    0  0.00000000000E+00  0.00000000000E+00  0.17918356425E+03  0.17918356425E+03  0.00000000000E+00 0. -1.
         -1   -1    0    0    0  501 -0.00000000000E+00 -0.00000000000E+00 -0.71283935004E+02  0.71283935004E+02  0.00000000000E+00 0.  1.
         25    2    1    2    0    0 -0.19771738787E+02  0.24354219709E+02  0.63197099980E+02  0.14361533983E+03  0.12508973866E+03 0.  0.
          5    1    3    3  502    0  0.51305855627E+02 -0.49378350498E+01  0.20943157640E+02  0.55792125686E+02  0.41800000000E+01 0.  1.
         -5    1    3    3    0  502 -0.71077594414E+02  0.29292054759E+02  0.42253942340E+02  0.87823214146E+02  0.41800000000E+01 0.  1.
        -11    1    1    2    0    0 -0.16920003907E+02  0.10937958615E+02 -0.17349641229E+02  0.26588259095E+02  0.00000000000E+00 0.  1.
         11    1    1    2    0    0  0.36691742694E+02 -0.35292178325E+02  0.62052170497E+02  0.80263900330E+02  0.00000000000E+00 0. -1.
</event>
<event>
 7    1  0.2380582E-009  0.1240930E+03  0.7561462E-02  0.1236494E+00
         -3   -1    0    0    0  501 -0.00000000000E+00  0.00000000000E+00  0.12998523148E+03  0.12998523148E+03  0.00000000000E+00 0.  1.
          3   -1    0    0  501    0  0.00000000000E+00 -0.00000000000E+00 -0.12750190630E+03  0.12750190630E+03  0.00000000000E+00 0. -1.
         25    2    1    2    0    0 -0.29078808420E+02 -0.61407489143E+02  0.16375127441E+02  0.14330208786E+03  0.12510350421E+03 0.  0.
          5    1    3    3  502    0 -0.35658402891E+02 -0.97495318609E+02  0.27003759056E+01  0.10393085816E+03  0.41800000000E+01 0. -1.
         -5    1    3    3    0  502  0.65795944710E+01  0.36087829466E+02  0.13674751536E+02  0.39371229705E+02  0.41800000000E+01 0. -1.
        -11    1    1    2    0    0 -0.71699463784E+01  0.69796100225E+02 -0.26349734402E+02  0.74948063622E+02  0.00000000000E+00 0.  1.
         11    1    1    2    0    0  0.36248754798E+02 -0.83886110817E+01  0.12457932140E+02  0.39236986295E+02  0.00000000000E+00 0. -1.
</event>
<event>
 7    1  0.2380582E-009  0.8475155E+02  0.7561462E-02  0.1316084E+00
          2   -1    0    0  501    0  0.00000000000E+00  0.00000000000E+00  0.48763822217E+03  0.48763822217E+03  0.00000000000E+00 0.  1.
         -2   -1    0    0    0  501 -0.00000000000E+00 -0.00000000000E+00 -0.38141550155E+02  0.38141550155E+02  0.00000000000E+00 0. -1.
         25    2    1    2    0    0 -0.12369273848E+02 -0.66902093047E+02  0.15865423973E+03  0.21318596122E+03  0.12509275475E+03 0.  0.
          5    1    3    3  502    0  0.42622000887E+01 -0.33229273486E+01 -0.20872854864E+02  0.21962619742E+02  0.41800000000E+01 0. -1.
         -5    1    3    3    0  502 -0.16631473936E+02 -0.63579165698E+02  0.17952709459E+03  0.19122334148E+03  0.41800000000E+01 0. -1.
        -11    1    1    2    0    0  0.17876881325E+02 -0.94828430860E+01  0.12223775635E+02  0.23641655815E+02  0.00000000000E+00 0. -1.
         11    1    1    2    0    0 -0.55076074772E+01  0.76384936133E+02  0.27861865666E+03  0.28895215529E+03  0.00000000000E+00 0.  1.
</event>
<event>
 7    1  0.2380582E-009  0.1430121E+03  0.7561462E-02  0.1209333E+00
         -1   -1    0    0    0  501 -0.00000000000E+00  0.00000000000E+00  0.26716223111E+02  0.26716223111E+02  0.00000000000E+00 0.  1.
          1   -1    0    0  501    0  0.00000000000E+00 -0.00000000000E+00 -0.10512092654E+04  0.10512092654E+04  0.00000000000E+00 0. -1.
         25    2    1    2    0    0  0.46679511534E+02 -0.11370639448E+03 -0.65579902235E+03  0.67884341867E+03  0.12509160010E+03 0.  0.
          5    1    3    3  502    0  0.68389438372E+02 -0.45065027049E+02 -0.18246227082E+03  0.20004480652E+03  0.41800000000E+01 0.  1.
         -5    1    3    3    0  502 -0.21709926838E+02 -0.68641367433E+02 -0.47333675153E+03  0.47879861215E+03  0.41800000000E+01 0.  1.
        -11    1    1    2    0    0 -0.43033089731E+02  0.42098934566E+02 -0.72022159434E+02  0.93868836964E+02  0.00000000000E+00 0.  1.
         11    1    1    2    0    0 -0.36464218032E+01  0.71607459916E+02 -0.29667186054E+03  0.30521323291E+03  0.00000000000E+00 0. -1.
</event>
<event>
 7    1  0.2380582E-009  0.9700693E+02  0.7561462E-02  0.1286719E+00
         -1   -1    0    0    0  501 -0.00000000000E+00  0.00000000000E+00  0.42963247132E+02  0.42963247132E+02  0.00000000000E+00 0.  1.
          1   -1    0    0  501    0  0.00000000000E+00 -0.00000000000E+00 -0.37563147993E+03  0.37563147993E+03  0.00000000000E+00 0. -1.
         25    2    1    2    0    0  0.38102076063E+02  0.33228192162E+02 -0.10193919569E+03  0.16909992288E+03  0.12508918157E+03 0.  0.
          5    1    3    3  502    0  0.91148482511E+01 -0.35854850469E+02  0.59299399305E+01  0.37699964832E+02  0.41800000000E+01 0. -1.
         -5    1    3    3    0  502  0.28987227812E+02  0.69083042630E+02 -0.10786913563E+03  0.13139995805E+03  0.41800000000E+01 0. -1.
        -11    1    1    2    0    0  0.17715121012E+02 -0.21024471558E+01 -0.11703716324E+02  0.21335950232E+02  0.00000000000E+00 0.  1.
         11    1    1    2    0    0 -0.55817197075E+02 -0.31125745006E+02 -0.21902532078E+03  0.22815885394E+03  0.00000000000E+00 0. -1.
</event>
<event>
 7    1  0.2380582E-009  0.9269355E+02  0.7561462E-02  0.1296457E+00
         -2   -1    0    0    0  501 -0.00000000000E+00  0.00000000000E+00  0.91777371529E+02  0.91777371529E+02  0.00000000000E+00 0.  1.
          2   -1    0    0  501    0  0.00000000000E+00 -0.00000000000E+00 -0.15725049604E+03  0.15725049604E+03  0.00000000000E+00 0. -1.
         25    2    1    2    0    0  0.18629862375E+02 -0.88416691221E+01  0.77773503156E+01  0.12701703356E+03  0.12509033836E+03 0.  0.
          5    1    3    3  502    0  0.67748456622E+02 -0.25257200509E+02  0.16634896194E+02  0.74309970553E+02  0.41800000000E+01 0. -1.
         -5    1    3    3    0  502 -0.49118594247E+02  0.16415531387E+02 -0.88575458781E+01  0.52707063004E+02  0.41800000000E+01 0. -1.
        -11    1    1    2    0    0  0.20003394194E+02 -0.37907392346E+01  0.14707110573E+02  0.25115823391E+02  0.00000000000E+00 0.  1.
         11    1    1    2    0    0 -0.38633256569E+02  0.12632408357E+02 -0.87957585399E+02  0.96895010621E+02  0.00000000000E+00 0. -1.
</event>
<event>
 7    1  0.2380582E-009  0.1079316E+03  0.7561462E-02  0.1264449E+00
          1   -1    0    0  501    0  0.00000000000E+00  0.00000000000E+00  0.63748873121E+02  0.63748873121E+02  0.00000000000E+00 0. -1.
         -1   -1    0    0    0  501 -0.00000000000E+00 -0.00000000000E+00 -0.34105772332E+03  0.34105772332E+03  0.00000000000E+00 0.  1.
         25    2    1    2    0    0 -0.99682811075E+01 -0.90342565922E+02 -0.21329976804E+03  0.26345201303E+03  0.12509606819E+03 0.  0.
          5    1    3    3  502    0 -0.13507791575E+02 -0.89045483798E+02 -0.56181018249E+02  0.10623247069E+03  0.41800000000E+01 0. -1.
         -5    1    3    3    0  502  0.35395104679E+01 -0.12970821238E+01 -0.15711874979E+03  0.15721954234E+03  0.41800000000E+01 0. -1.
        -11    1    1    2    0    0  0.40530585225E+02  0.24185754434E+02 -0.47685662042E+01  0.47438573755E+02  0.00000000000E+00 0.  1.
         11    1    1    2    0    0 -0.30562304118E+02  0.66156811488E+02 -0.59240515955E+02  0.93916009657E+02  0.00000000000E+00 0. -1.
</event>
<event>
 7    1  0.2380582E-009  0.1409971E+03  0.7561462E-02  0.1211994E+00
          2   -1    0    0  501    0  0.00000000000E+00  0.00000000000E+00  0.19774159485E+03  0.19774159485E+03  0.00000000000E+00 0. -1.
         -2   -1    0    0    0  501 -0.00000000000E+00 -0.00000000000E+00 -0.17661172751E+03  0.17661172751E+03  0.00000000000E+00 0.  1.
         25    2    1    2    0    0 -0.43802047989E+02 -0.12231988346E+03 -0.67848003104E+02  0.19269425131E+03  0.12508776785E+03 0.  0.
          5    1    3    3  502    0 -0.20394627978E+02 -0.24640696171E+02  0.35876144501E+02  0.48245983277E+02  0.41800000000E+01 0.  1.
         -5    1    3    3    0  502 -0.23407420011E+02 -0.97679187284E+02 -0.10372414760E+03  0.14444826803E+03  0.41800000000E+01 0.  1.
        -11    1    1    2    0    0 -0.18918274861E+02  0.12308259139E+02  0.39910801382E+02  0.45850479100E+02  0.00000000000E+00 0. -1.
         11    1    1    2    0    0  0.62720322850E+02  0.11001162432E+03  0.49067069062E+02  0.13580859196E+03  0.00000000000E+00 0.  1.
</event>
<event>
 7    1  0.2380582E-009  0.1160400E+03  0.7561462E-02  0.1249777E+00
          2   -1    0    0  501    0  0.00000000000E+00  0.00000000000E+00  0.68633738493E+02  0.68633738493E+02  0.00000000000E+00 0.  1.
         -2   -1    0    0    0  501 -0.00000000000E+00 -0.00000000000E+00 -0.36701247726E+03  0.36701247726E+03  0.00000000000E+00 0. -1.
         25    2    1    2    0    0  0.11643170189E+02 -0.10474724531E+03 -0.92207294758E+02  0.18776974331E+03  0.12509093686E+03 0.  0.
          5    1    3    3  502    0  0.21068179060E+02 -0.68778004689E+02 -0.12081431698E+03  0.14066930612E+03  0.41800000000E+01 0. -1.
         -5    1    3    3    0  502 -0.94250088713E+01 -0.35969240618E+02  0.28607022220E+02  0.47100437187E+02  0.41800000000E+01 0. -1.
        -11    1    1    2    0    0 -0.37582525008E+02  0.66715085330E+02 -0.68601071693E+02  0.10280785881E+03  0.00000000000E+00 0.  1.
         11    1    1    2    0    0  0.25939354820E+02  0.38032159977E+02 -0.13757037232E+03  0.14506861363E+03  0.00000000000E+00 0. -1.
</event>
<event>
 7    1  0.2380582E-009  0.8978195E+02  0.7561462E-02  0.1303381E+00
         -1   -1    0    0    0  501 -0.00000000000E+00  0.00000000000E+00  0.16960172049E+03  0.16960172049E+03  0.00000000000E+00 0.  1.
          1   -1    0    0  501    0  0.00000000000E+00 -0.00000000000E+00 -0.81729039136E+02  0.81729039136E+02  0.00000000000E+00 0. -1.
         25    2    1    2    0    0 -0.34683905010E+02  0.15491343896E+02  0.51556925094E+02  0.14053355222E+03  0.12509439544E+03 0.  0.
          5    1    3    3  502    0  0.20682039837E+02 -0.82927801138E+01 -0.30896710938E+02  0.38322266642E+02  0.41800000000E+01 0. -1.
         -5    1    3    3    0  502 -0.55365944846E+02  0.23784124010E+02  0.82453636032E+02  0.10221128557E+03  0.41800000000E+01 0. -1.
        -11    1    1    2    0    0  0.57490160466E+02 -0.34285128821E+02  0.44197199151E+02  0.80212100218E+02  0.00000000000E+00 0.  1.
         11    1    1    2    0    0 -0.22806255456E+02  0.18793784925E+02 -0.78814428935E+01  0.30585107190E+02  0.00000000000E+00 0. -1.
</event>
<event>
 7    1  0.2380582E-009  0.1282826E+03  0.7561462E-02  0.1230027E+00
          3   -1    0    0  501    0  0.00000000000E+00  0.00000000000E+00  0.33668376691E+03  0.33668376691E+03  0.00000000000E+00 0. -1.
         -3   -1    0    0    0  501 -0.00000000000E+00 -0.00000000000E+00 -0.69312558201E+02  0.69312558201E+02  0.00000000000E+00 0.  1.
         25    2    1    2    0    0  0.84390654570E+01 -0.10359534339E+03  0.17391384721E+03  0.23810960043E+03  0.12508773948E+03 0.  0.
          5    1    3    3  502    0  0.27489887474E+02 -0.24722653006E+02 -0.87227926142E+01  0.38216004448E+02  0.41800000000E+01 0.  1.
         -5    1    3    3    0  502 -0.19050822017E+02 -0.78872690385E+02  0.18263663983E+03  0.19989359598E+03  0.41800000000E+01 0.  1.
        -11    1    1    2    0    0  0.37459637279E+02  0.19326128624E+02  0.18088588911E+02  0.45868515580E+02  0.00000000000E+00 0.  1.
         11    1    1    2    0    0 -0.45898702736E+02  0.84269214767E+02  0.75368772583E+02  0.12201820910E+03  0.00000000000E+00 0. -1.
</event>
<event>
 7    1  0.2380582E-009  0.1072909E+03  0.7561462E-02  0.1265671E+00
          2   -1    0    0  501    0  0.00000000000E+00  0.00000000000E+00  0.33315931645E+03  0.33315931645E+03  0.00000000000E+00 0. -1.
         -2   -1    0    0    0  501 -0.00000000000E+00 -0.00000000000E+00 -0.55128170954E+02  0.55128170954E+02  0.00000000000E+00 0.  1.
         25    2    1    2    0    0  0.60258717595E+02 -0.56381394982E+01  0.77193755629E+02  0.15896324738E+03  0.12509011330E+03 0.  0.
          5    1    3    3  502    0  0.52481728066E+02  0.34400262699E+02 -0.89846093535E+01  0.63528776628E+02  0.41800000000E+01 0. -1.
         -5    1    3    3    0  502  0.77769895288E+01 -0.40038402197E+02  0.86178364983E+02  0.95434470752E+02  0.41800000000E+01 0. -1.
        -11    1    1    2    0    0 -0.83575012151E+02  0.16139662847E+02  0.15546583857E+03  0.17724248457E+03  0.00000000000E+00 0.  1.
         11    1    1    2    0    0  0.23316294556E+02 -0.10501523349E+02  0.45371551288E+02  0.52081755450E+02  0.00000000000E+00 0. -1.
</event>
<event>
 7    1  0.2380582E-009  0.1326522E+03  0.7561462E-02  0.1223573E+00
         -2   -1    0    0    0  501 -0.00000000000E+00  0.00000000000E+00  0.21089340964E+03  0.21089340964E+03  0.00000000000E+00 0.  1.
          2   -1    0    0  501    0  0.00000000000E+00 -0.00000000000E+00 -0.12791468486E+03  0.12791468486E+03  0.00000000000E+00 0. -1.
         25    2    1    2    0    0 -0.90286247397E+02  0.76098999553E+02  0.78854421273E+02  0.18923015308E+03  0.12508943552E+03 0.  0.
          5    1    3    3  502    0 -0.55725598802E+02  0.49016186474E+02  0.11174518024E+03  0.13421023286E+03  0.41800000000E+01 0. -1.
         -5    1    3    3    0  502 -0.34560648596E+02  0.27082813079E+02 -0.32890758966E+02  0.55019920220E+02  0.41800000000E+01 0. -1.
        -11    1    1    2    0    0  0.35842566151E+02  0.16490993368E+02 -0.11359679600E+02  0.41057091119E+02  0.00000000000E+00 0.  1.
         11    1    1    2    0    0  0.54443681246E+02 -0.92589992922E+02  0.15483983101E+02  0.10852085030E+03  0.00000000000E+00 0. -1.
</event>
<event>
 7    1  0.2401777E-009  0.1311245E+03  0.7561462E-02  0.1225797E+00
          1   -1    0    0  501    0  0.00000000000E+00  0.00000000000E+00  0.54031626428E+03  0.54031626428E+03  0.00000000000E+00 0. -1.
         -1   -1    0    0    0  501 -0.00000000000E+00 -0.00000000000E+00 -0.55807964797E+02  0.55807964797E+02  0.00000000000E+00 0.  1.
         25    2    1    2    0    0 -0.34071526887E+02 -0.12338690091E+03  0.18138494980E+03  0.25482016495E+03  0.12509044805E+03 0.  0.
          5    1    3    3  502    0 -0.46745150535E+01  0.10049226547E+01  0.10636330625E+03  0.10655273941E+03  0.41800000000E+01 0. -1.
         -5    1    3    3    0  502 -0.29397011833E+02 -0.12439182357E+03  0.75021643547E+02  0.14826742554E+03  0.41800000000E+01 0. -1.
        -11    1    1    2    0    0  0.24142849426E+02  0.85142563054E+02  0.28388015317E+03  0.29735513210E+03  0.00000000000E+00 0. -1.
         11    1    1    2    0    0  0.99286774612E+01  0.38244337856E+02  0.19243196520E+02  0.43948932029E+02  0.00000000000E+00 0.  1.
</event>
<event>
 7    1  0.2380582E-009  0.1376274E+03  0.7561462E-02  0.1216558E+00
          1   -1    0    0  501    0  0.00000000000E+00  0.00000000000E+00  0.15952385900E+03  0.15952385900E+03  0.00000000000E+00 0. -1.
         -1   -1    0    0    0  501 -0.00000000000E+00 -0.00000000000E+00 -0.13292870958E+03  0.13292870958E+03  0.00000000000E+00 0.  1.
         25    2    1    2    0    0 -0.77012474193E+02 -0.41769947526E+02  0.53744840076E+02  0.16189876815E+03  0.12508818327E+03 0.  0.
          5    1    3    3  502    0 -0.27794690458E+02  0.44852624893E+02  0.20971177619E+02  0.56934747458E+02  0.41800000000E+01 0.  1.
         -5    1    3    3    0  502 -0.49217783735E+02 -0.86622572419E+02  0.32773662457E+02  0.10496402069E+03  0.41800000000E+01 0.  1.
        -11    1    1    2    0    0  0.38985183008E+02  0.66613924266E+02  0.86104475400E+00  0.77188087153E+02  0.00000000000E+00 0. -1.
         11    1    1    2    0    0  0.38027291185E+02 -0.24843976740E+02 -0.28010735413E+02  0.53365713276E+02  0.00000000000E+00 0.  1.
</event>
<event>
 7    1  0.2380582E-009  0.1212801E+03  0.7561462E-02  0.1241000E+00
          2   -1    0    0  501    0  0.00000000000E+00  0.00000000000E+00  0.11013030048E+03  0.11013030048E+03  0.00000000000E+00 0. -1.
         -2   -1    0    0    0  501 -0.00000000000E+00 -0.00000000000E+00 -0.14253856504E+03  0.14253856504E+03  0.00000000000E+00 0.  1.
         25    2    1    2    0    0 -0.37070397940E+02 -0.51074646517E+02 -0.19409394182E+02  0.14144577689E+03  0.12508936524E+03 0.  0.
          5    1    3    3  502    0 -0.72694051870E+02 -0.63133529844E+00 -0.29810210445E+02  0.78682557205E+02  0.41800000000E+01 0. -1.
         -5    1    3    3    0  502  0.35623653930E+02 -0.50443311218E+02  0.10400816263E+02  0.62763219682E+02  0.41800000000E+01 0. -1.
        -11    1    1    2    0    0  0.64387257388E+02  0.48099189529E+02 -0.20094173108E+02  0.82843386822E+02  0.00000000000E+00 0.  1.
         11    1    1    2    0    0 -0.27316859448E+02  0.29754569874E+01  0.70953027327E+01  0.28379701817E+02  0.00000000000E+00 0. -1.
</event>
<event>
 7    1  0.2380582E-009  0.1228235E+03  0.7561462E-02  0.1238511E+00
          2   -1    0    0  501    0  0.00000000000E+00  0.00000000000E+00  0.11168604235E+03  0.11168604235E+03  0.00000000000E+00 0.  1.
         -2   -1    0    0    0  501 -0.00000000000E+00 -0.00000000000E+00 -0.18852558308E+03  0.18852558308E+03  0.00000000000E+00 0. -1.
         25    2    1    2    0    0 -0.66411385880E+02 -0.28273934657E+02  0.23695545911E+02  0.14634934798E+03  0.12508703052E+03 0.  0.
          5    1    3    3  502    0 -0.34680833829E+01  0.45908802975E+02  0.14920287198E+02  0.48577084753E+02  0.41800000000E+01 0.  1.
         -5    1    3    3    0  502 -0.62943302497E+02 -0.74182737633E+02  0.87752587132E+01  0.97772263231E+02  0.41800000000E+01 0.  1.
        -11    1    1    2    0    0  0.53200345461E+02  0.52312020786E+02 -0.10202120826E+03  0.12639284478E+03  0.00000000000E+00 0. -1.
         11    1    1    2    0    0  0.13211040418E+02 -0.24038086128E+02  0.14861216274E+01  0.27469432669E+02  0.00000000000E+00 0.  1.
</event>
<event>
 7    1  0.2380582E-009  0.1114653E+03  0.7561462E-02  0.1257880E+00
         -4   -1    0    0    0  501 -0.00000000000E+00  0.00000000000E+00  0.40544423752E+02  0.40544423752E+02  0.00000000000E+00 0.  1.
          4   -1    0    0  501    0  0.00000000000E+00 -0.00000000000E+00 -0.44888090827E+03  0.44888090827E+03  0.00000000000E+00 0. -1.
         25    2    1    2    0    0  0.67985685897E+02 -0.20849108747E+02 -0.29093852502E+03  0.32457616141E+03  0.12509084855E+03 0.  0.
          5    1    3    3  502    0  0.72179701299E+02  0.23780003446E+02 -0.86404569793E+02  0.11514608080E+03  0.41800000000E+01 0.  1.
         -5    1    3    3    0  502 -0.41940154028E+01 -0.44629112193E+02 -0.20453395523E+03  0.20943008060E+03  0.41800000000E+01 0.  1.
        -11    1    1    2    0    0 -0.80047159082E+02  0.28061321443E+01 -0.50904899460E+02  0.94903797836E+02  0.00000000000E+00 0.  1.
         11    1    1    2    0    0  0.12061473185E+02  0.18042976602E+02 -0.66493060035E+02  0.69945372776E+02  0.00000000000E+00 0. -1.
</event>
<event>
 7    1  0.2380582E-009  0.1297114E+03  0.7561462E-02  0.1227885E+00
          1   -1    0    0  501    0  0.00000000000E+00  0.00000000000E+00  0.37257873077E+03  0.37257873077E+03  0.00000000000E+00 0. -1.
         -1   -1    0    0    0  501 -0.00000000000E+00 -0.00000000000E+00 -0.64796802844E+02  0.64796802844E+02  0.00000000000E+00 0.  1.
         25    2    1    2    0    0 -0.82196297478E+02 -0.61655245086E+02  0.22434766369E+03  0.27665415827E+03  0.12509216011E+03 0.  0.
          5    1    3    3  502    0 -0.10512746466E+03 -0.61099221944E+02  0.22208700065E+03  0.25322915907E+03  0.41800000000E+01 0. -1.
         -5    1    3    3    0  502  0.22931167181E+02 -0.55602314233E+00  0.22606630369E+01  0.23424999197E+02  0.41800000000E+01 0. -1.
        -11    1    1    2    0    0  0.81405655337E+02  0.36397644127E+02  0.97231275679E+02  0.13193024744E+03  0.00000000000E+00 0. -1.
         11    1    1    2    0    0  0.79064214081E+00  0.25257600959E+02 -0.13797011441E+02  0.28791127903E+02  0.00000000000E+00 0.  1.
</event>
<event>
 7    1  0.2380582E-009  0.1093843E+03  0.7561462E-02  0.1261714E+00
         -2   -1    0    0    0  501 -0.00000000000E+00  0.00000000000E+00  0.36091416750E+02  0.36091416750E+02  0.00000000000E+00 0.  1.
          2   -1    0    0  501    0  0.00000000000E+00 -0.00000000000E+00 -0.41714150530E+03  0.41714150530E+03  0.00000000000E+00 0. -1.
         25    2    1    2    0    0  0.53052294556E+02  0.21738625338E+02 -0.22376927644E+03  0.26269329611E+03  0.12509182608E+03 0.  0.
          5    1    3    3  502    0 -0.11149683272E+02  0.45237883128E+02 -0.16792293469E+03  0.17431685490E+03  0.41800000000E+01 0.  1.
         -5    1    3    3    0  502  0.64201977828E+02 -0.23499257789E+02 -0.55846341754E+02  0.88376441210E+02  0.41800000000E+01 0.  1.
        -11    1    1    2    0    0 -0.75505816676E+02 -0.53475958472E+01 -0.89120623916E+02  0.11692822901E+03  0.00000000000E+00 0.  1.
         11    1    1    2    0    0  0.22453522120E+02 -0.16391029491E+02 -0.68160188190E+02  0.73611396926E+02  0.00000000000E+00 0. -1.
</event>
<event>
 7    1  0.2380582E-009  0.9040183E+02  0.7561462E-02  0.1301882E+00
          1   -1    0    0  501    0  0.00000000000E+00  0.00000000000E+00  0.18720613493E+03  0.18720613493E+03  0.00000000000E+00 0. -1.
         -1   -1    0    0    0  501 -0.00000000000E+00 -0.00000000000E+00 -0.64924925792E+02  0.64924925792E+02  0.00000000000E+00 0.  1.
         25    2    1    2    0    0 -0.32451928857E+02  0.75685093943E+01  0.84694227974E+02  0.15469588467E+03  0.12508914606E+03 0.  0.
          5    1    3    3  502    0  0.18998293515E+01 -0.47626341110E+02  0.74812754120E+02  0.88804832628E+02  0.41800000000E+01 0.  1.
         -5    1    3    3    0  502 -0.34351758208E+02  0.55194850504E+02  0.98814738544E+01  0.65891052046E+02  0.41800000000E+01 0.  1.
        -11    1    1    2    0    0 -0.58756729914E+01 -0.25017334324E+02  0.47649196035E+02  0.54137200080E+02  0.00000000000E+00 0. -1.
         11    1    1    2    0    0  0.38327601848E+02  0.17448824929E+02 -0.10062214871E+02  0.43297975968E+02  0.00000000000E+00 0.  1.
</event>
<event>
 7    1  0.2380582E-009  0.1145666E+03  0.7561462E-02  0.1252340E+00
          2   -1    0    0  501    0  0.00000000000E+00  0.00000000000E+00  0.20993654649E+03  0.20993654649E+03  0.00000000000E+00 0. -1.
         -2   -1    0    0    0  501 -0.00000000000E+00 -0.00000000000E+00 -0.85036852292E+02  0.85036852292E+02  0.00000000000E+00 0.  1.
         25    2    1    2    0    0 -0.65097834263E+02 -0.35859473828E+02  0.45174510071E+02  0.15235580548E+03  0.12509166724E+03 0.  0.
          5    1    3    3  502    0  0.28266417211E+02 -0.42242841326E+02  0.23766715770E+02  0.56265239391E+02  0.41800000000E+01 0.  1.
         -5    1    3    3    0  502 -0.93364251474E+02  0.63833674982E+01  0.21407794302E+02  0.96090566086E+02  0.41800000000E+01 0.  1.
        -11    1    1    2    0    0  0.67231447833E+02  0.22450573377E+02  0.10000074727E+02  0.71582800429E+02  0.00000000000E+00 0.  1.
         11    1    1    2    0    0 -0.21336135703E+01  0.13408900451E+02  0.69725109401E+02  0.71034792877E+02  0.00000000000E+00 0. -1.
</event>
<event>
 7    1  0.2380582E-009  0.1978759E+03  0.7561462E-02  0.1151544E+00
          1   -1    0    0  501    0  0.00000000000E+00  0.00000000000E+00  0.13006002587E+04  0.13006002587E+04  0.00000000000E+00 0. -1.
         -1   -1    0    0    0  501 -0.00000000000E+00 -0.00000000000E+00 -0.36766323755E+02  0.36766323755E+02  0.00000000000E+00 0.  1.
         25    2    1    2    0    0  0.18521218051E+03  0.99388490115E+01  0.53786272500E+03  0.58253335947E+03  0.12508585618E+03 0.  0.
          5    1    3    3  502    0  0.43824694203E+02  0.46082471043E+02  0.81943752136E+02  0.10380967620E+03  0.41800000000E+01 0. -1.
         -5    1    3    3    0  502  0.14138748630E+03 -0.36143622031E+02  0.45591897287E+03  0.47872368326E+03  0.41800000000E+01 0. -1.
        -11    1    1    2    0    0 -0.72189317752E+02  0.30883710411E+01  0.13610622843E+03  0.15409653160E+03  0.00000000000E+00 0.  1.
         11    1    1    2    0    0 -0.11302286275E+03 -0.13027220053E+02  0.58986498148E+03  0.60073669136E+03  0.00000000000E+00 0. -1.
</event>
<event>
 7    1  0.2380582E-009  0.2587539E+03  0.7561462E-02  0.1107894E+00
         -1   -1    0    0    0  501 -0.00000000000E+00  0.00000000000E+00  0.53614768725E+02  0.53614768725E+02  0.00000000000E+00 0.  1.
          1   -1    0    0  501    0  0.00000000000E+00 -0.00000000000E+00 -0.12917171596E+04  0.12917171596E+04  0.00000000000E+00 0. -1.
         25    2    1    2    0    0 -0.23877198102E+03  0.16957758536E+02 -0.62606903919E+03  0.68184227924E+03  0.12508727926E+03 0.  0.
          5    1    3    3  502    0 -0.21886079870E+03 -0.19472807100E+02 -0.57697487183E+03  0.61741130096E+03  0.41800000000E+01 0.  1.
         -5    1    3    3    0  502 -0.19911182320E+02  0.36430565636E+02 -0.49094167355E+02  0.64430978281E+02  0.41800000000E+01 0.  1.
        -11    1    1    2    0    0  0.50415746697E+02  0.34096751950E+02 -0.13528935741E+03  0.14834940592E+03  0.00000000000E+00 0.  1.
         11    1    1    2    0    0  0.18835623433E+03 -0.51054510486E+02 -0.47674399431E+03  0.51514024320E+03  0.00000000000E+00 0. -1.
</event>
<event>
 7    1  0.2380582E-009  0.1127119E+03  0.7561462E-02  0.1255629E+00
         -2   -1    0    0    0  501 -0.00000000000E+00  0.00000000000E+00  0.15379429875E+02  0.15379429875E+02  0.00000000000E+00 0.  1.
          2   -1    0    0  501    0  0.00000000000E+00 -0.00000000000E+00 -0.12674653122E+04  0.12674653122E+04  0.00000000000E+00 0. -1.
         25    2    1    2    0    0  0.10169044543E+02  0.70679028522E+02 -0.91740502359E+03  0.92864307213E+03  0.12508814319E+03 0.  0.
          5    1    3    3  502    0  0.44303106442E+02  0.19178957233E+02 -0.12885353451E+03  0.13766373305E+03  0.41800000000E+01 0. -1.
         -5    1    3    3    0  502 -0.34134061899E+02  0.51500071289E+02 -0.78855148908E+03  0.79097933908E+03  0.41800000000E+01 0. -1.
        -11    1    1    2    0    0 -0.19207867802E+02 -0.90891638522E+02 -0.25096676445E+03  0.26760894790E+03  0.00000000000E+00 0.  1.
         11    1    1    2    0    0  0.90388232590E+01  0.20212610000E+02 -0.83714094319E+02  0.86592722076E+02  0.00000000000E+00 0. -1.
</event>
<event>
 7    1  0.2380582E-009  0.7988447E+02  0.7561462E-02  0.1329380E+00
          1   -1    0    0  501    0  0.00000000000E+00  0.00000000000E+00  0.38890127147E+03  0.38890127147E+03  0.00000000000E+00 0. -1.
         -1   -1    0    0    0  501 -0.00000000000E+00 -0.00000000000E+00 -0.41352919605E+02  0.41352919605E+02  0.00000000000E+00 0.  1.
         25    2    1    2    0    0  0.35467890200E+02 -0.45553322973E+02  0.24777202741E+03  0.28349888513E+03  0.12509022277E+03 0.  0.
          5    1    3    3  502    0  0.37797035490E+02 -0.47896349673E+02  0.26161388128E+03  0.26866702716E+03  0.41800000000E+01 0. -1.
         -5    1    3    3    0  502 -0.23291452904E+01  0.23430267003E+01 -0.13841853877E+02  0.14831857964E+02  0.41800000000E+01 0. -1.
        -11    1    1    2    0    0 -0.40001242761E+02 -0.69371786880E+01  0.86727826253E+01  0.41514347267E+02  0.00000000000E+00 0.  1.
         11    1    1    2    0    0  0.45333525613E+01  0.52490501661E+02  0.91103541834E+02  0.10524095868E+03  0.00000000000E+00 0. -1.
</event>
<event>
 7    1  0.2380582E-009  0.1139026E+03  0.7561462E-02  0.1253509E+00
          2   -1    0    0  501    0  0.00000000000E+00  0.00000000000E+00  0.50278551742E+03  0.50278551742E+03  0.00000000000E+00 0.  1.
         -2   -1    0    0    0  501 -0.00000000000E+00 -0.00000000000E+00 -0.38756770840E+02  0.38756770840E+02  0.00000000000E+00 0. -1.
         25    2    1    2    0    0 -0.48344621556E+02 -0.28225303251E+02  0.38393660060E+03  0.40766135550E+03  0.12508635941E+03 0.  0.
          5    1    3    3  502    0  0.40057631485E+00  0.37975318049E+02  0.22947867688E+03  0.23263753091E+03  0.41800000000E+01 0. -1.
         -5    1    3    3    0  502 -0.48745197870E+02 -0.66200621301E+02  0.15445792371E+03  0.17502382459E+03  0.41800000000E+01 0. -1.
        -11    1    1    2    0    0 -0.27239645238E+02  0.12983339444E+02  0.22672648983E+02  0.37744064272E+02  0.00000000000E+00 0.  1.
         11    1    1    2    0    0  0.75584266794E+02  0.15241963807E+02  0.57419496998E+02  0.96136868490E+02  0.00000000000E+00 0. -1.
</event>
<event>
 7    1  0.2380582E-009  0.1207142E+03  0.7561462E-02  0.1241923E+00
          1   -1    0    0  501    0  0.00000000000E+00  0.00000000000E+00  0.84489160059E+03  0.84489160059E+03  0.00000000000E+00 0. -1.
         -1   -1    0    0    0  501 -0.00000000000E+00 -0.00000000000E+00 -0.22587612561E+02  0.22587612561E+02  0.00000000000E+00 0.  1.
         25    2    1    2    0    0  0.28121941645E+02  0.75085794342E+02  0.53144805365E+03  0.55182754216E+03  0.12509149630E+03 0.  0.
          5    1    3    3  502    0 -0.42429061865E+02 -0.34513583000E+01  0.16472245250E+03  0.17018547506E+03  0.41800000000E+01 0. -1.
         -5    1    3    3    0  502  0.70551003510E+02  0.78537152642E+02  0.36672560115E+03  0.38164206710E+03  0.41800000000E+01 0. -1.
        -11    1    1    2    0    0 -0.17201578061E+02 -0.78986947014E-01  0.23579550716E+01  0.17362617281E+02  0.00000000000E+00 0.  1.
         11    1    1    2    0    0 -0.10920363584E+02 -0.75006807395E+02  0.28849797930E+03  0.29828905370E+03  0.00000000000E+00 0. -1.
</event>
<event>
 7    1  0.2380582E-009  0.9923060E+02  0.7561462E-02  0.1281922E+00
         -4   -1    0    0    0  501 -0.00000000000E+00  0.00000000000E+00  0.27674547327E+03  0.27674547327E+03  0.00000000000E+00 0.  1.
          4   -1    0    0  501    0  0.00000000000E+00 -0.00000000000E+00 -0.53306662945E+02  0.53306662945E+02  0.00000000000E+00 0. -1.
         25    2    1    2    0    0 -0.41626805320E+02 -0.10731640043E+02  0.11815289558E+03  0.17735823726E+03  0.12509148080E+03 0.  0.
          5    1    3    3  502    0  0.39606906946E+02 -0.78917419079E+01  0.96689759786E+01  0.41736652533E+02  0.41800000000E+01 0. -1.
         -5    1    3    3    0  502 -0.81233712266E+02 -0.28398981353E+01  0.10848391960E+03  0.13562158472E+03  0.41800000000E+01 0. -1.
        -11    1    1    2    0    0 -0.16898566686E+02 -0.35851667069E+00  0.89484514793E+02  0.91066835225E+02  0.00000000000E+00 0.  1.
         11    1    1    2    0    0  0.58525372006E+02  0.11090156714E+02  0.15801399951E+02  0.61627063737E+02  0.00000000000E+00 0. -1.
</event>
<event>
 7    1  0.2380582E-009  0.3125893E+03  0.7561462E-02  0.1079111E+00
          3   -1    0    0  501    0  0.00000000000E+00  0.00000000000E+00  0.20624308218E+03  0.20624308218E+03  0.00000000000E+00 0. -1.
         -3   -1    0    0    0  501 -0.00000000000E+00 -0.00000000000E+00 -0.58521919153E+03  0.58521919153E+03  0.00000000000E+00 0.  1.
         25    2    1    2    0    0  0.26890780639E+03 -0.14854192974E+03 -0.32872703487E+03  0.46699546000E+03  0.12508870044E+03 0.  0.
          5    1    3    3  502    0  0.59413814229E+02  0.25830507163E+01 -0.16729197157E+02  0.61919398493E+02  0.41800000000E+01 0. -1.
         -5    1    3    3    0  502  0.20949399216E+03 -0.15112498046E+03 -0.31199783771E+03  0.40507606151E+03  0.41800000000E+01 0. -1.
        -11    1    1    2    0    0 -0.14608728212E+03  0.81828820974E+02  0.18936352639E+02  0.16851123224E+03  0.00000000000E+00 0. -1.
         11    1    1    2    0    0 -0.12282052427E+03  0.66713108764E+02 -0.69185427123E+02  0.15595558146E+03  0.00000000000E+00 0.  1.
</event>
<event>
 7    1  0.2380582E-009  0.2697570E+03  0.7561462E-02  0.1101419E+00
         -1   -1    0    0    0  501 -0.00000000000E+00  0.00000000000E+00  0.97646402764E+02  0.97646402764E+02  0.00000000000E+00 0.  1.
          1   -1    0    0  501    0  0.00000000000E+00 -0.00000000000E+00 -0.90882574452E+03  0.90882574452E+03  0.00000000000E+00 0. -1.
         25    2    1    2    0    0 -0.16732692933E+02  0.26174663354E+03 -0.56648758547E+03  0.63666887002E+03  0.12509109631E+03 0.  0.
          5    1    3    3  502    0  0.19228802509E+02  0.21442073150E+03 -0.51393780884E+03  0.55722126727E+03  0.41800000000E+01 0. -1.
         -5    1    3    3    0  502 -0.35961495442E+02  0.47325902041E+02 -0.52549776625E+02  0.79447602744E+02  0.41800000000E+01 0. -1.
        -11    1    1    2    0    0 -0.10929687316E+02 -0.62425478289E+02 -0.16360690842E+02  0.65452812081E+02  0.00000000000E+00 0.  1.
         11    1    1    2    0    0  0.27662380249E+02 -0.19932115525E+03 -0.22833106544E+03  0.30435046519E+03  0.00000000000E+00 0. -1.
</event>
<event>
 7    1  0.2380582E-009  0.5452787E+02  0.7561462E-02  0.1422345E+00
          1   -1    0    0  501    0  0.00000000000E+00  0.00000000000E+00  0.13587134962E+04  0.13587134962E+04  0.00000000000E+00 0. -1.
         -1   -1    0    0    0  501 -0.00000000000E+00 -0.00000000000E+00 -0.56529433932E+02  0.56529433932E+02  0.00000000000E+00 0.  1.
         25    2    1    2    0    0 -0.30583904694E+02  0.12146901266E+01  0.13123754174E+04  0.13186790881E+04  0.12509376725E+03 0.  0.
          5    1    3    3  502    0 -0.26379183173E+02 -0.28737265475E+01  0.54282107081E+02  0.60565164561E+02  0.41800000000E+01 0.  1.
         -5    1    3    3    0  502 -0.42047215204E+01  0.40884166742E+01  0.12580933103E+04  0.12581139236E+04  0.41800000000E+01 0.  1.
        -11    1    1    2    0    0  0.47049433599E+02  0.17377723615E+02 -0.35233670579E+02  0.61294747104E+02  0.00000000000E+00 0.  1.
         11    1    1    2    0    0 -0.16465528905E+02 -0.18592413742E+02  0.25042315427E+02  0.35269094868E+02  0.00000000000E+00 0. -1.
</event>
<event>
 7    1  0.2380582E-009  0.8528892E+02  0.7561462E-02  0.1314679E+00
          1   -1    0    0  501    0  0.00000000000E+00  0.00000000000E+00  0.58206072973E+02  0.58206072973E+02  0.00000000000E+00 0. -1.
         -1   -1    0    0    0  501 -0.00000000000E+00 -0.00000000000E+00 -0.29509351939E+03  0.29509351939E+03  0.00000000000E+00 0.  1.
         25    2    1    2    0    0  0.47592509614E+02 -0.61056873982E+01 -0.20467775640E+03  0.24462802141E+03  0.12509020146E+03 0.  0.
          5    1    3    3  502    0  0.56174321599E+02  0.11330693587E+02 -0.23039076485E+02  0.61904850129E+02  0.41800000000E+01 0.  1.
         -5    1    3    3    0  502 -0.85818119852E+01 -0.17436380985E+02 -0.18163867992E+03  0.18272317128E+03  0.41800000000E+01 0.  1.
        -11    1    1    2    0    0 -0.19847876263E+02  0.42835713148E+02 -0.40132886784E+02  0.61963578937E+02  0.00000000000E+00 0.  1.
         11    1    1    2    0    0 -0.27744633350E+02 -0.36730025749E+02  0.79231967718E+01  0.46707992018E+02  0.00000000000E+00 0. -1.
</event>
<event>
 7    1  0.2380582E-009  0.1074898E+03  0.7561462E-02  0.1265290E+00
          2   -1    0    0  501    0  0.00000000000E+00  0.00000000000E+00  0.64497246129E+02  0.64497246129E+02  0.00000000000E+00 0. -1.
         -2   -1    0    0    0  501 -0.00000000000E+00 -0.00000000000E+00 -0.22374994744E+03  0.22374994744E+03  0.00000000000E+00 0.  1.
         25    2    1    2    0    0 -0.49982099604E+02  0.22756242359E+02 -0.11156503404E+03  0.17638271561E+03  0.12509216082E+03 0.  0.
          5    1    3    3  502    0 -0.92123428243E+02  0.12861257117E+02 -0.74741066368E+02  0.11939781140E+03  0.41800000000E+01 0.  1.
         -5    1    3    3    0  502  0.42141328639E+02  0.98949852426E+01 -0.36823967676E+02  0.56984904210E+02  0.41800000000E+01 0.  1.
        -11    1    1    2    0    0  0.61651098361E+02 -0.24946908009E+02 -0.40388463637E+01  0.66629711303E+02  0.00000000000E+00 0. -1.
         11    1    1    2    0    0 -0.11668998757E+02  0.21906656501E+01 -0.43648820904E+02  0.45234766655E+02  0.00000000000E+00 0.  1.
</event>
<event>
 7    1  0.2380582E-009  0.2537670E+03  0.7561462E-02  0.1110947E+00
         -1   -1    0    0    0  501 -0.00000000000E+00  0.00000000000E+00  0.72003149417E+02  0.72003149417E+02  0.00000000000E+00 0.  1.
          1   -1    0    0  501    0  0.00000000000E+00 -0.00000000000E+00 -0.10264185615E+04  0.10264185615E+04  0.00000000000E+00 0. -1.
         25    2    1    2    0    0  0.23573878783E+03 -0.80415017633E+02 -0.50243224165E+03  0.57456561196E+03  0.12509250114E+03 0.  0.
          5    1    3    3  502    0  0.14535213946E+03 -0.23068775004E+02 -0.40045624962E+03  0.42666391116E+03  0.41800000000E+01 0. -1.
         -5    1    3    3    0  502  0.90386648372E+02 -0.57346242629E+02 -0.10197599203E+03  0.14790170080E+03  0.41800000000E+01 0. -1.
        -11    1    1    2    0    0 -0.11040121475E+03  0.13865699730E+02 -0.27732682162E+03  0.29881574898E+03  0.00000000000E+00 0.  1.
         11    1    1    2    0    0 -0.12533757308E+03  0.66549317903E+02 -0.17465634879E+03  0.22504034997E+03  0.00000000000E+00 0. -1.
</event>
<event>
 7    1  0.2380582E-009  0.1437633E+03  0.7561462E-02  0.1208353E+00
          2   -1    0    0  501    0  0.00000000000E+00  0.00000000000E+00  0.11347497603E+04  0.11347497603E+04  0.00000000000E+00 0. -1.
         -2   -1    0    0    0  501 -0.00000000000E+00 -0.00000000000E+00 -0.26779140037E+02  0.26779140037E+02  0.00000000000E+00 0.  1.
         25    2    1    2    0    0  0.91511757741E+02 -0.23343368190E+02  0.90950258038E+03  0.92290937755E+03  0.12508981095E+03 0.  0.
          5    1    3    3  502    0  0.10908476918E+03 -0.53470213394E+02  0.71554976565E+03  0.72580127453E+03  0.41800000000E+01 0. -1.
         -5    1    3    3    0  502 -0.17573011441E+02  0.30126845204E+02  0.19395281473E+03  0.19710810302E+03  0.41800000000E+01 0. -1.
        -11    1    1    2    0    0 -0.15260379113E+02  0.48266739774E+02  0.95534985780E+02  0.10811794877E+03  0.00000000000E+00 0.  1.
         11    1    1    2    0    0 -0.76251378628E+02 -0.24923371584E+02  0.10293305410E+03  0.13050157401E+03  0.00000000000E+00 0. -1.
</event>
<event>
 7    1  0.2380582E-009  0.1141923E+03  0.7561462E-02  0.1252998E+00
          2   -1    0    0  501    0  0.00000000000E+00  0.00000000000E+00  0.35249465256E+03  0.35249465256E+03  0.00000000000E+00 0. -1.
         -2   -1    0    0    0  501 -0.00000000000E+00 -0.00000000000E+00 -0.41960309172E+02  0.41960309172E+02  0.00000000000E+00 0.  1.
         25    2    1    2    0    0  0.30654739883E+02 -0.51530614592E+02  0.11964913478E+03  0.18318868859E+03  0.12508822029E+03 0.  0.
          5    1    3    3  502    0  0.70190568614E+02  0.32110015729E+01  0.70007334930E+02  0.99275000869E+02  0.41800000000E+01 0. -1.
         -5    1    3    3    0  502 -0.39535828731E+02 -0.54741616165E+02  0.49641799853E+02  0.83913687718E+02  0.41800000000E+01 0. -1.
        -11    1    1    2    0    0 -0.52173320429E+02  0.31513886274E+02  0.12220379227E+03  0.13656114834E+03  0.00000000000E+00 0. -1.
         11    1    1    2    0    0  0.21518580546E+02  0.20016728318E+02  0.68681416334E+02  0.74705124797E+02  0.00000000000E+00 0.  1.
</event>
<event>
 7    1  0.2380582E-009  0.8930526E+02  0.7561462E-02  0.1304543E+00
          1   -1    0    0  501    0  0.00000000000E+00  0.00000000000E+00  0.30215709876E+03  0.30215709876E+03  0.00000000000E+00 0. -1.
         -1   -1    0    0    0  501 -0.00000000000E+00 -0.00000000000E+00 -0.68933140232E+02  0.68933140232E+02  0.00000000000E+00 0.  1.
         25    2    1    2    0    0 -0.11722611884E+02  0.34299943119E+02  0.23686967957E+03  0.27030923376E+03  0.12508369609E+03 0.  0.
          5    1    3    3  502    0  0.50149304792E+02  0.29355337883E+02  0.63797305898E+02  0.86395933199E+02  0.41800000000E+01 0. -1.
         -5    1    3    3    0  502 -0.61871916676E+02  0.49446052363E+01  0.17307237367E+03  0.18391330056E+03  0.41800000000E+01 0. -1.
        -11    1    1    2    0    0  0.23334704009E+02 -0.15414014839E+01  0.39178878315E+02  0.45627500871E+02  0.00000000000E+00 0. -1.
         11    1    1    2    0    0 -0.11612092126E+02 -0.32758541636E+02 -0.42824599356E+02  0.55153504364E+02  0.00000000000E+00 0.  1.
</event>
<event>
 7    1  0.2380582E-009  0.1139198E+03  0.7561462E-02  0.1253478E+00
          1   -1    0    0  501    0  0.00000000000E+00  0.00000000000E+00  0.55745182427E+03  0.55745182427E+03  0.00000000000E+00 0. -1.
         -1   -1    0    0    0  501 -0.00000000000E+00 -0.00000000000E+00 -0.39952259991E+02  0.39952259991E+02  0.00000000000E+00 0.  1.
         25    2    1    2    0    0 -0.25197579778E+02 -0.95743925108E+02  0.33422717330E+03  0.37034808656E+03  0.12509230440E+03 0.  0.
          5    1    3    3  502    0  0.20864306383E+02 -0.58112125011E+02  0.28888675744E+03  0.29544097444E+03  0.41800000000E+01 0. -1.
         -5    1    3    3    0  502 -0.46061886161E+02 -0.37631800097E+02  0.45340415868E+02  0.74907112121E+02  0.41800000000E+01 0. -1.
        -11    1    1    2    0    0  0.31308307066E+02  0.42781420011E+02  0.22350787362E+02  0.57532753152E+02  0.00000000000E+00 0.  1.
         11    1    1    2    0    0 -0.61107272884E+01  0.52962505097E+02  0.16092160361E+03  0.16952324455E+03  0.00000000000E+00 0. -1.
</event>
<event>
 7    1  0.2380582E-009  0.6623060E+02  0.7561462E-02  0.1373401E+00
          1   -1    0    0  501    0  0.00000000000E+00  0.00000000000E+00  0.36891656667E+03  0.36891656667E+03  0.00000000000E+00 0. -1.
         -1   -1    0    0    0  501 -0.00000000000E+00 -0.00000000000E+00 -0.67253390855E+02  0.67253390855E+02  0.00000000000E+00 0.  1.
         25    2    1    2    0    0 -0.67572827322E+01  0.38584384588E+02  0.30696883237E+03  0.33378383726E+03  0.12508944945E+03 0.  0.
          5    1    3    3  502    0 -0.10374149963E+02  0.35667830514E+02  0.12744578317E+02  0.39493212043E+02  0.41800000000E+01 0.  1.
         -5    1    3    3    0  502  0.36168672307E+01  0.29165540739E+01  0.29422425405E+03  0.29429062521E+03  0.41800000000E+01 0.  1.
        -11    1    1    2    0    0 -0.23346372905E+01  0.24743714833E+02 -0.25192863757E+02  0.35389014387E+02  0.00000000000E+00 0.  1.
         11    1    1    2    0    0  0.90919200227E+01 -0.63328099421E+02  0.19887207201E+02  0.66997105879E+02  0.00000000000E+00 0. -1.
</event>
<event>
 7    1  0.2380582E-009  0.2793225E+03  0.7561462E-02  0.1096060E+00
          1   -1    0    0  501    0  0.00000000000E+00  0.00000000000E+00  0.24979546428E+03  0.24979546428E+03  0.00000000000E+00 0. -1.
         -1   -1    0    0    0  501 -0.00000000000E+00 -0.00000000000E+00 -0.32713692332E+03  0.32713692332E+03  0.00000000000E+00 0.  1.
         25    2    1    2    0    0  0.25954273717E+03 -0.49049823294E+02 -0.54303597195E+02  0.29726211478E+03  0.12509023397E+03 0.  0.
          5    1    3    3  502    0  0.86534819891E+02 -0.63364776903E+02 -0.61048309775E+02  0.12348173360E+03  0.41800000000E+01 0. -1.
         -5    1    3    3    0  502  0.17300791727E+03  0.14314953609E+02  0.67447125802E+01  0.17378038118E+03  0.41800000000E+01 0. -1.
        -11    1    1    2    0    0 -0.96135148438E+02  0.60936489938E+02  0.25232346905E+01  0.11384897577E+03  0.00000000000E+00 0.  1.
         11    1    1    2    0    0 -0.16340758873E+03 -0.11886666644E+02 -0.25561096538E+02  0.16582129705E+03  0.00000000000E+00 0. -1.
</event>
<event>
 7    1  0.2380582E-009  0.1280126E+03  0.7561462E-02  0.1230435E+00
         -2   -1    0    0    0  501 -0.00000000000E+00  0.00000000000E+00  0.11468194645E+03  0.11468194645E+03  0.00000000000E+00 0.  1.
          2   -1    0    0  501    0  0.00000000000E+00 -0.00000000000E+00 -0.22329311884E+03  0.22329311884E+03  0.00000000000E+00 0. -1.
         25    2    1    2    0    0  0.97441812122E+02 -0.37627700814E+02 -0.21467411423E+01  0.16298039329E+03  0.12508896627E+03 0.  0.
          5    1    3    3  502    0  0.83409570184E+02 -0.18364823230E+01 -0.53123792647E+02  0.98995650464E+02  0.41800000000E+01 0. -1.
         -5    1    3    3    0  502  0.14032241938E+02 -0.35791218491E+02  0.50977051505E+02  0.63984742830E+02  0.41800000000E+01 0. -1.
        -11    1    1    2    0    0 -0.89416964091E+02 -0.58502287291E+01 -0.47875069725E+02  0.10159547699E+03  0.00000000000E+00 0.  1.
         11    1    1    2    0    0 -0.80248480304E+01  0.43477929543E+02 -0.58589361527E+02  0.73399195005E+02  0.00000000000E+00 0. -1.
</event>
<event>
 7    1  0.2380582E-009  0.1995561E+03  0.7561462E-02  0.1150114E+00
          2   -1    0    0  501    0  0.00000000000E+00  0.00000000000E+00  0.73289098665E+03  0.73289098665E+03  0.00000000000E+00 0.  1.
         -2   -1    0    0    0  501 -0.00000000000E+00 -0.00000000000E+00 -0.67440558438E+02  0.67440558438E+02  0.00000000000E+00 0. -1.
         25    2    1    2    0    0 -0.83988762098E+02  0.16190586955E+03  0.22400340411E+03  0.31479070974E+03  0.12509213857E+03 0.  0.
          5    1    3    3  502    0 -0.15975835163E+02 -0.16836954705E+02  0.53796223397E+02  0.58738542753E+02  0.41800000000E+01 0. -1.
         -5    1    3    3    0  502 -0.68012926935E+02  0.17874282426E+03  0.17020718071E+03  0.25605216699E+03  0.41800000000E+01 0. -1.
        -11    1    1    2    0    0  0.18931472425E+02 -0.17191504469E+02  0.13059261441E+02  0.28713982369E+02  0.00000000000E+00 0. -1.
         11    1    1    2    0    0  0.65057289674E+02 -0.14471436508E+03  0.42838776266E+03  0.45682685297E+03  0.00000000000E+00 0.  1.
</event>
<event>
 7    1  0.2380582E-009  0.1688883E+03  0.7561462E-02  0.1179012E+00
          2   -1    0    0  501    0  0.00000000000E+00  0.00000000000E+00  0.19888958653E+03  0.19888958653E+03  0.00000000000E+00 0. -1.
         -2   -1    0    0    0  501 -0.00000000000E+00 -0.00000000000E+00 -0.29531581756E+03  0.29531581756E+03  0.00000000000E+00 0.  1.
         25    2    1    2    0    0  0.33444039644E+02  0.14588798098E+03 -0.20871003099E+03  0.28567620490E+03  0.12509680342E+03 0.  0.
          5    1    3    3  502    0  0.36041726999E+02  0.65020680536E+01 -0.27881611534E+01  0.36966595957E+02  0.41800000000E+01 0. -1.
         -5    1    3    3    0  502 -0.25976873552E+01  0.13938591293E+03 -0.20592186984E+03  0.24870960894E+03  0.41800000000E+01 0. -1.
        -11    1    1    2    0    0 -0.51197463104E+02 -0.11335611385E+03  0.11749724668E+03  0.17110345336E+03  0.00000000000E+00 0. -1.
         11    1    1    2    0    0  0.17753423460E+02 -0.32531867135E+02 -0.52134467167E+01  0.37425745824E+02  0.00000000000E+00 0.  1.
</event>
<event>
 7    1  0.2453851E-009  0.1363705E+03  0.7561462E-02  0.1218298E+00
         -1   -1    0    0    0  501 -0.00000000000E+00  0.00000000000E+00  0.29759940630E+02  0.29759940630E+02  0.00000000000E+00 0.  1.
          1   -1    0    0  501    0  0.00000000000E+00 -0.00000000000E+00 -0.83354002896E+03  0.83354002896E+03  0.00000000000E+00 0. -1.
         25    2    1    2    0    0  0.32829519507E+02  0.10883310907E+03 -0.43781731570E+03  0.46931174371E+03  0.12508832031E+03 0.  0.
          5    1    3    3  502    0 -0.15694315645E+02  0.35786410098E+02 -0.23489373288E+02  0.45784295875E+02  0.41800000000E+01 0.  1.
         -5    1    3    3    0  502  0.48523835152E+02  0.73046698973E+02 -0.41432794241E+03  0.42352744784E+03  0.41800000000E+01 0.  1.
        -11    1    1    2    0    0 -0.63982024696E+02 -0.85176769822E+02 -0.27836796196E+03  0.29805620920E+03  0.00000000000E+00 0. -1.
         11    1    1    2    0    0  0.31152505189E+02 -0.23656339249E+02 -0.87594810677E+02  0.95932016677E+02  0.00000000000E+00 0.  1.
</event>
<event>
 7    1  0.2380582E-009  0.9955831E+02  0.7561462E-02  0.1281228E+00
          1   -1    0    0  501    0  0.00000000000E+00  0.00000000000E+00  0.32802509190E+03  0.32802509190E+03  0.00000000000E+00 0. -1.
         -1   -1    0    0    0  501 -0.00000000000E+00 -0.00000000000E+00 -0.44419112848E+02  0.44419112848E+02  0.00000000000E+00 0.  1.
         25    2    1    2    0    0 -0.12204848223E+02 -0.23911255957E+02  0.18685211372E+03  0.22645240872E+03  0.12508506918E+03 0.  0.
          5    1    3    3  502    0 -0.29559556178E+02  0.43922938005E+02  0.11152086299E+03  0.12352071538E+03  0.41800000000E+01 0.  1.
         -5    1    3    3    0  502  0.17354707955E+02 -0.67834193962E+02  0.75331250726E+02  0.10293169334E+03  0.41800000000E+01 0.  1.
        -11    1    1    2    0    0 -0.51090963804E+01  0.46848682727E+02  0.22117863718E+01  0.47178320636E+02  0.00000000000E+00 0.  1.
         11    1    1    2    0    0  0.17313944603E+02 -0.22937426771E+02  0.94542078959E+02  0.98813475389E+02  0.00000000000E+00 0. -1.
</event>
<event>
 7    1  0.2380582E-009  0.6983832E+02  0.7561462E-02  0.1360644E+00
          3   -1    0    0  501    0  0.00000000000E+00  0.00000000000E+00  0.89773179028E+02  0.89773179028E+02  0.00000000000E+00 0. -1.
         -3   -1    0    0    0  501 -0.00000000000E+00 -0.00000000000E+00 -0.13694707770E+03  0.13694707770E+03  0.00000000000E+00 0.  1.
         25    2    1    2    0    0 -0.13810533825E+02 -0.34013082636E+02 -0.39362142976E+02  0.13617842564E+03  0.12509022614E+03 0.  0.
          5    1    3    3  502    0  0.19975047366E+01  0.54447803404E+01  0.42898562455E+02  0.43490168071E+02  0.41800000000E+01 0.  1.
         -5    1    3    3    0  502 -0.15808038562E+02 -0.39457862976E+02 -0.82260705431E+02  0.92688257573E+02  0.41800000000E+01 0.  1.
        -11    1    1    2    0    0 -0.44054211878E+01 -0.26374938845E+02  0.15010253822E+01  0.26782423567E+02  0.00000000000E+00 0. -1.
         11    1    1    2    0    0  0.18215955013E+02  0.60388021481E+02 -0.93127810766E+01  0.63759407516E+02  0.00000000000E+00 0.  1.
</event>
<event>
 7    1  0.2380582E-009  0.1393165E+03  0.7561462E-02  0.1214252E+00
         -2   -1    0    0    0  501 -0.00000000000E+00  0.00000000000E+00  0.64587463735E+02  0.64587463735E+02  0.00000000000E+00 0.  1.
          2   -1    0    0  501    0  0.00000000000E+00 -0.00000000000E+00 -0.37822596396E+03  0.37822596396E+03  0.00000000000E+00 0. -1.
         25    2    1    2    0    0 -0.25101979986E+02 -0.88343480650E+02 -0.77293509566E+02  0.17336740899E+03  0.12508913584E+03 0.  0.
          5    1    3    3  502    0  0.18869391981E+02  0.25834605827E+02 -0.21901876009E+02  0.38995453385E+02  0.41800000000E+01 0. -1.
         -5    1    3    3    0  502 -0.43971371967E+02 -0.11417808648E+03 -0.55391633558E+02  0.13437195560E+03  0.41800000000E+01 0. -1.
        -11    1    1    2    0    0  0.16179613217E+02 -0.13889587041E+02 -0.77136921330E+02  0.80030026516E+02  0.00000000000E+00 0. -1.
         11    1    1    2    0    0  0.89223667694E+01  0.10223306769E+03 -0.15920806933E+03  0.18941599219E+03  0.00000000000E+00 0.  1.
</event>
<event>
 7    1  0.2380582E-009  0.8667218E+02  0.7561462E-02  0.1311117E+00
         -3   -1    0    0    0  501 -0.00000000000E+00  0.00000000000E+00  0.14211058945E+03  0.14211058945E+03  0.00000000000E+00 0.  1.
          3   -1    0    0  501    0  0.00000000000E+00 -0.00000000000E+00 -0.87786416872E+02  0.87786416872E+02  0.00000000000E+00 0. -1.
         25    2    1    2    0    0  0.15931099585E+02  0.18906549360E+02  0.46702823619E+02  0.13579442824E+03  0.12509082885E+03 0.  0.
          5    1    3    3  502    0  0.67747169224E+02 -0.89665777196E+01  0.23018662865E+02  0.72231639147E+02  0.41800000000E+01 0. -1.
         -5    1    3    3    0  502 -0.51816069639E+02  0.27873127080E+02  0.23684160754E+02  0.63562789088E+02  0.41800000000E+01 0. -1.
        -11    1    1    2    0    0 -0.85664257905E+01  0.11650640252E+02 -0.36883535808E+02  0.39617121081E+02  0.00000000000E+00 0. -1.
         11    1    1    2    0    0 -0.73646737947E+01 -0.30557189612E+02  0.44504884771E+02  0.54485457010E+02  0.00000000000E+00 0.  1.
</event>
<event>
 7    1  0.2380582E-009  0.1051772E+03  0.7561462E-02  0.1269771E+00
         -2   -1    0    0    0  501 -0.00000000000E+00  0.00000000000E+00  0.10781270453E+02  0.10781270453E+02  0.00000000000E+00 0. -1.
          2   -1    0    0  501    0  0.00000000000E+00 -0.00000000000E+00 -0.13007554703E+04  0.13007554703E+04  0.00000000000E+00 0.  1.
         25    2    1    2    0    0  0.43462857492E+02  0.12837700292E+02 -0.84583603785E+03  0.85623594617E+03  0.12509023167E+03 0.  0.
          5    1    3    3  502    0  0.40276826300E+02  0.55544413759E+02 -0.26369218781E+03  0.27250403107E+03  0.41800000000E+01 0.  1.
         -5    1    3    3    0  502  0.31860311919E+01 -0.42706713467E+02 -0.58214385004E+03  0.58373191510E+03  0.41800000000E+01 0.  1.
        -11    1    1    2    0    0  0.58298921056E+01 -0.41272099761E+02 -0.14866671411E+03  0.15439937094E+03  0.00000000000E+00 0.  1.
         11    1    1    2    0    0 -0.49292749598E+02  0.28434399469E+02 -0.29547144785E+03  0.30090142361E+03  0.00000000000E+00 0. -1.
</event>
<event>
 7    1  0.2380582E-009  0.1271169E+03  0.7561462E-02  0.1231798E+00
         -2   -1    0    0    0  501 -0.00000000000E+00  0.00000000000E+00  0.32953596214E+03  0.32953596214E+03  0.00000000000E+00 0.  1.
          2   -1    0    0  501    0  0.00000000000E+00 -0.00000000000E+00 -0.68577016671E+02  0.68577016671E+02  0.00000000000E+00 0. -1.
         25    2    1    2    0    0  0.81006814466E+02  0.52464536589E+02  0.18942067650E+03  0.24666248920E+03  0.12509020467E+03 0.  0.
          5    1    3    3  502    0  0.64065857997E+02 -0.11432170552E+02  0.16262254445E+03  0.17521042505E+03  0.41800000000E+01 0. -1.
         -5    1    3    3    0  502  0.16940956469E+02  0.63896707141E+02  0.26798132050E+02  0.71452064147E+02  0.41800000000E+01 0. -1.
        -11    1    1    2    0    0  0.87791791615E+01  0.10076632779E+02  0.32726517322E+02  0.35350211470E+02  0.00000000000E+00 0.  1.
         11    1    1    2    0    0 -0.89785993628E+02 -0.62541169368E+02  0.38811751645E+02  0.11610027814E+03  0.00000000000E+00 0. -1.
</event>
<event>
 7    1  0.2448587E-009  0.1842905E+03  0.7561462E-02  0.1163714E+00
         -1   -1    0    0    0  501 -0.00000000000E+00  0.00000000000E+00  0.41597698071E+02  0.41597698071E+02  0.00000000000E+00 0.  1.
          1   -1    0    0  501    0  0.00000000000E+00 -0.00000000000E+00 -0.87904985147E+03  0.87904985147E+03  0.00000000000E+00 0. -1.
         25    2    1    2    0    0  0.14166983229E+03 -0.67670412338E+02 -0.42349892133E+03  0.46866583968E+03  0.12508679716E+03 0.  0.
          5    1    3    3  502    0  0.96416708264E+02 -0.93919310186E+02 -0.21523336563E+03  0.25388952822E+03  0.41800000000E+01 0.  1.
         -5    1    3    3    0  502  0.45253124023E+02  0.26248897848E+02 -0.20826555570E+03  0.21477631146E+03  0.41800000000E+01 0.  1.
        -11    1    1    2    0    0 -0.63091073074E+02 -0.17579710096E+02 -0.14538892786E+03  0.15945993244E+03  0.00000000000E+00 0.  1.
         11    1    1    2    0    0 -0.78578759213E+02  0.85250122434E+02 -0.26856430420E+03  0.29252177742E+03  0.00000000000E+00 0. -1.
</event>
<event>
 7    1  0.2380582E-009  0.1002012E+03  0.7561462E-02  0.1279873E+00
          1   -1    0    0  501    0  0.00000000000E+00  0.00000000000E+00  0.85584160412E+02  0.85584160412E+02  0.00000000000E+00 0. -1.
         -1   -1    0    0    0  501 -0.00000000000E+00 -0.00000000000E+00 -0.16219738363E+03  0.16219738363E+03  0.00000000000E+00 0.  1.
         25    2    1    2    0    0 -0.20625962149E+01  0.11224932027E+02  0.27039393108E+01  0.12563893873E+03  0.12509028034E+03 0.  0.
          5    1    3    3  502    0 -0.25583385942E+01  0.68236199394E+02  0.28725498344E+01  0.68472242162E+02  0.41800000000E+01 0. -1.
         -5    1    3    3    0  502  0.49574237929E+00 -0.57011267367E+02 -0.16861052360E+00  0.57166696571E+02  0.41800000000E+01 0. -1.
        -11    1    1    2    0    0 -0.22029689461E+02 -0.34754293426E+02 -0.61600015746E+01  0.41606655101E+02  0.00000000000E+00 0. -1.
         11    1    1    2    0    0  0.24092285676E+02  0.23529361399E+02 -0.73157160954E+02  0.80535950207E+02  0.00000000000E+00 0.  1.
</event>
<event>
 7    1  0.2380582E-009  0.1114796E+03  0.7561462E-02  0.1257854E+00
         -2   -1    0    0    0  501 -0.00000000000E+00  0.00000000000E+00  0.30125383837E+02  0.30125383837E+02  0.00000000000E+00 0.  1.
          2   -1    0    0  501    0  0.00000000000E+00 -0.00000000000E+00 -0.63301018128E+03  0.63301018128E+03  0.00000000000E+00 0. -1.
         25    2    1    2    0    0 -0.34238237967E+02 -0.69659880518E+02 -0.25713417946E+03  0.29629391461E+03  0.12508933485E+03 0.  0.
          5    1    3    3  502    0  0.20888278734E+02 -0.17377681779E+02  0.66542489728E+00  0.27499440045E+02  0.41800000000E+01 0. -1.
         -5    1    3    3    0  502 -0.55126516701E+02 -0.52282198738E+02 -0.25779960436E+03  0.26879447456E+03  0.41800000000E+01 0. -1.
        -11    1    1    2    0    0  0.17476931923E+02 -0.20919792812E+02 -0.11924024844E+03  0.12231646548E+03  0.00000000000E+00 0. -1.
         11    1    1    2    0    0  0.16761306044E+02  0.90579673330E+02 -0.22651036955E+03  0.24452518503E+03  0.00000000000E+00 0.  1.
</event>
<event>
 7    1  0.2380582E-009  0.1237044E+03  0.7561462E-02  0.1237108E+00
         -1   -1    0    0    0  501 -0.00000000000E+00  0.00000000000E+00  0.15643502736E+03  0.15643502736E+03  0.00000000000E+00 0.  1.
          1   -1    0    0  501    0  0.00000000000E+00 -0.00000000000E+00 -0.10912277818E+03  0.10912277818E+03  0.00000000000E+00 0. -1.
         25    2    1    2    0    0  0.37475731626E+02 -0.47811440835E+02 -0.84547079177E+01  0.13931821551E+03  0.12509084200E+03 0.  0.
          5    1    3    3  502    0  0.13065967222E+02  0.40508374352E+02 -0.19359961171E+02  0.46946015684E+02  0.41800000000E+01 0.  1.
         -5    1    3    3    0  502  0.24409764404E+02 -0.88319815187E+02  0.10905253254E+02  0.92372199830E+02  0.41800000000E+01 0.  1.
        -11    1    1    2    0    0  0.59102316058E+01 -0.26344305972E+02  0.17594062052E+02  0.32225833027E+02  0.00000000000E+00 0.  1.
         11    1    1    2    0    0 -0.43385963232E+02  0.74155746807E+02  0.38172895045E+02  0.94013757005E+02  0.00000000000E+00 0. -1.
</event>
<event>
 7    1  0.2380582E-009  0.7060134E+02  0.7561462E-02  0.1358060E+00
          1   -1    0    0  501    0  0.00000000000E+00  0.00000000000E+00  0.52461161575E+03  0.52461161575E+03  0.00000000000E+00 0. -1.
         -1   -1    0    0    0  501 -0.00000000000E+00 -0.00000000000E+00 -0.25675606829E+02  0.25675606829E+02  0.00000000000E+00 0.  1.
         25    2    1    2    0    0 -0.31723881001E+02  0.30281090659E+02  0.27405580318E+03  0.30442933230E+03  0.12508911236E+03 0.  0.
          5    1    3    3  502    0 -0.22017242387E+02  0.23233912196E+02  0.28550763929E+03  0.28732674455E+03  0.41800000000E+01 0. -1.
         -5    1    3    3    0  502 -0.97066386149E+01  0.70471784635E+01 -0.11451836113E+02  0.17102587753E+02  0.41800000000E+01 0. -1.
        -11    1    1    2    0    0  0.60078600342E+02 -0.31505456389E+02  0.18386623335E+03  0.19598169243E+03  0.00000000000E+00 0.  1.
         11    1    1    2    0    0 -0.28354719341E+02  0.12243657300E+01  0.41013972392E+02  0.49876197847E+02  0.00000000000E+00 0. -1.
</event>
<event>
 7    1  0.2380582E-009  0.1187356E+03  0.7561462E-02  0.1245198E+00
         -1   -1    0    0    0  501 -0.00000000000E+00  0.00000000000E+00  0.71183279325E+02  0.71183279325E+02  0.00000000000E+00 0.  1.
          1   -1    0    0  501    0  0.00000000000E+00 -0.00000000000E+00 -0.25670502637E+03  0.25670502637E+03  0.00000000000E+00 0. -1.
         25    2    1    2    0    0  0.48225547434E+02 -0.64155756139E+02 -0.10552942274E+03  0.18227854770E+03  0.12508934974E+03 0.  0.
          5    1    3    3  502    0  0.39914410362E+02  0.22781496734E+02 -0.77971986413E+02  0.90604965720E+02  0.41800000000E+01 0. -1.
         -5    1    3    3    0  502  0.83111370718E+01 -0.86937252873E+02 -0.27557436327E+02  0.91673581982E+02  0.41800000000E+01 0. -1.
        -11    1    1    2    0    0  0.60875044029E+01  0.46327145247E+02 -0.74820268333E+02  0.88211873634E+02  0.00000000000E+00 0. -1.
         11    1    1    2    0    0 -0.54313051837E+02  0.17828610892E+02 -0.51720559765E+01  0.57397884362E+02  0.00000000000E+00 0.  1.
</event>
<event>
 7    1  0.2380582E-009  0.1040126E+03  0.7561462E-02  0.1272077E+00
         -1   -1    0    0    0  501 -0.00000000000E+00  0.00000000000E+00  0.50666405448E+02  0.50666405448E+02  0.00000000000E+00 0.  1.
          1   -1    0    0  501    0  0.00000000000E+00 -0.00000000000E+00 -0.24856612589E+03  0.24856612589E+03  0.00000000000E+00 0. -1.
         25    2    1    2    0    0  0.31307658937E+02  0.26777286260E+01 -0.12173422510E+03  0.17735733645E+03  0.12509621694E+03 0.  0.
          5    1    3    3  502    0 -0.31698788853E+02 -0.28162710422E+02 -0.75359861531E+01  0.43269099371E+02  0.41800000000E+01 0.  1.
         -5    1    3    3    0  502  0.63006447791E+02  0.30840439048E+02 -0.11419823895E+03  0.13408823708E+03  0.41800000000E+01 0.  1.
        -11    1    1    2    0    0  0.31601707656E+01 -0.42419487626E+02 -0.34250617306E+02  0.54612309927E+02  0.00000000000E+00 0.  1.
         11    1    1    2    0    0 -0.34467829703E+02  0.39741759000E+02 -0.41914878037E+02  0.67262884964E+02  0.00000000000E+00 0. -1.
</event>
<event>
 7    1  0.2380582E-009  0.8769339E+02  0.7561462E-02  0.1308536E+00
         -2   -1    0    0    0  501 -0.00000000000E+00  0.00000000000E+00  0.14469849720E+02  0.14469849720E+02  0.00000000000E+00 0.  1.
          2   -1    0    0  501    0  0.00000000000E+00 -0.00000000000E+00 -0.84827176220E+03  0.84827176220E+03  0.00000000000E+00 0. -1.
         25    2    1    2    0    0 -0.15621138448E+02 -0.16653589650E+02 -0.47970078853E+03  0.49626636748E+03  0.12508436738E+03 0.  0.
          5    1    3    3  502    0 -0.37016984162E+02 -0.38260040589E+02 -0.45130203010E+03  0.45445030817E+03  0.41800000000E+01 0. -1.
         -5    1    3    3    0  502  0.21395845715E+02  0.21606450939E+02 -0.28398758426E+02  0.41816059310E+02  0.41800000000E+01 0. -1.
        -11    1    1    2    0    0 -0.35459079033E+02 -0.50057658672E+01 -0.18717885417E+03  0.19057367979E+03  0.00000000000E+00 0. -1.
         11    1    1    2    0    0  0.51080217480E+02  0.21659355517E+02 -0.16692226978E+03  0.17590156466E+03  0.00000000000E+00 0.  1.
</event>
<event>
 7    1  0.2380582E-009  0.1881502E+03  0.7561462E-02  0.1160140E+00
          3   -1    0    0  501    0  0.00000000000E+00  0.00000000000E+00  0.84277300448E+03  0.84277300448E+03  0.00000000000E+00 0. -1.
         -3   -1    0    0    0  501 -0.00000000000E+00 -0.00000000000E+00 -0.66773577996E+02  0.66773577996E+02  0.00000000000E+00 0.  1.
         25    2    1    2    0    0  0.16499260601E+03 -0.72846816510E+02  0.19176892464E+03  0.29146707690E+03  0.12509403563E+03 0.  0.
          5    1    3    3  502    0  0.60595070890E+02 -0.64252431345E+02  0.20662948683E+02  0.90799600210E+02  0.41800000000E+01 0.  1.
         -5    1    3    3    0  502  0.10439753512E+03 -0.85943851643E+01  0.17110597596E+03  0.20066747670E+03  0.41800000000E+01 0.  1.
        -11    1    1    2    0    0 -0.83687332419E+02  0.53971365063E+02  0.44276911353E+03  0.45382922532E+03  0.00000000000E+00 0. -1.
         11    1    1    2    0    0 -0.81305273589E+02  0.18875451446E+02  0.14146138831E+03  0.16425028026E+03  0.00000000000E+00 0.  1.
</event>
<event>
 7    1  0.2380582E-009  0.9114439E+02  0.7561462E-02  0.1300104E+00
         -2   -1    0    0    0  501 -0.00000000000E+00  0.00000000000E+00  0.66238192856E+03  0.66238192856E+03  0.00000000000E+00 0.  1.
          2   -1    0    0  501    0  0.00000000000E+00 -0.00000000000E+00 -0.21226985153E+02  0.21226985153E+02  0.00000000000E+00 0. -1.
         25    2    1    2    0    0  0.32568876629E-01 -0.24294976437E+01  0.50536907360E+03  0.52062590788E+03  0.12509009505E+03 0.  0.
          5    1    3    3  502    0  0.58343053338E+02 -0.17904740278E+02  0.19318751387E+03  0.20264101143E+03  0.41800000000E+01 0. -1.
         -5    1    3    3    0  502 -0.58310484461E+02  0.15475242635E+02  0.31218155973E+03  0.31798489645E+03  0.41800000000E+01 0. -1.
        -11    1    1    2    0    0  0.52809463095E+01  0.31069313149E+02  0.12937395671E+03  0.13315709252E+03  0.00000000000E+00 0.  1.
         11    1    1    2    0    0 -0.53135151862E+01 -0.28639815505E+02  0.64119130978E+01  0.29825913320E+02  0.00000000000E+00 0. -1.
</event>
<event>
 7    1  0.2986608E-009  0.8436255E+02  0.7561462E-02  0.1317108E+00
         -1   -1    0    0    0  501 -0.00000000000E+00  0.00000000000E+00  0.69946303608E+02  0.69946303608E+02  0.00000000000E+00 0.  1.
          1   -1    0    0  501    0  0.00000000000E+00 -0.00000000000E+00 -0.26318185855E+03  0.26318185855E+03  0.00000000000E+00 0. -1.
         25    2    1    2    0    0  0.72095874268E+01  0.28731481753E+02 -0.13099280339E+02  0.12920356035E+03  0.12507794637E+03 0.  0.
          5    1    3    3  502    0  0.55608000505E+02  0.14358947302E+02 -0.41635476049E+02  0.71059231305E+02  0.41800000000E+01 0.  1.
         -5    1    3    3    0  502 -0.48398413078E+02  0.14372534451E+02  0.28536195711E+02  0.58144329050E+02  0.41800000000E+01 0.  1.
        -11    1    1    2    0    0 -0.26573573226E+02 -0.91627718907E+00 -0.69904048634E+01  0.27492910323E+02  0.00000000000E+00 0.  1.
         11    1    1    2    0    0  0.19363985799E+02 -0.27815204564E+02 -0.17314586974E+03  0.17643169148E+03  0.00000000000E+00 0. -1.
</event>
<event>
 7    1  0.2380582E-009  0.1284141E+03  0.7561462E-02  0.1229828E+00
          2   -1    0    0  501    0  0.00000000000E+00  0.00000000000E+00  0.18268291995E+03  0.18268291995E+03  0.00000000000E+00 0. -1.
         -2   -1    0    0    0  501 -0.00000000000E+00 -0.00000000000E+00 -0.12081082334E+03  0.12081082334E+03  0.00000000000E+00 0.  1.
         25    2    1    2    0    0 -0.11887999599E+02 -0.69836172148E+02 -0.40376305844E+02  0.14931461605E+03  0.12508474335E+03 0.  0.
          5    1    3    3  502    0  0.55684663463E+02 -0.24269748251E+02 -0.27050948114E+02  0.66626035594E+02  0.41800000000E+01 0.  1.
         -5    1    3    3    0  502 -0.67572663061E+02 -0.45566423897E+02 -0.13325357730E+02  0.82688580461E+02  0.41800000000E+01 0.  1.
        -11    1    1    2    0    0 -0.10356601813E+02  0.86135511176E+02  0.68133585302E+02  0.11031215224E+03  0.00000000000E+00 0. -1.
         11    1    1    2    0    0  0.22244601412E+02 -0.16299339028E+02  0.34114817152E+02  0.43866974982E+02  0.00000000000E+00 0.  1.
</event>
<event>
 7    1  0.2380582E-009  0.1114857E+03  0.7561462E-02  0.1257843E+00
         -1   -1    0    0    0  501 -0.00000000000E+00  0.00000000000E+00  0.12610194108E+02  0.12610194108E+02  0.00000000000E+00 0.  1.
          1   -1    0    0  501    0  0.00000000000E+00 -0.00000000000E+00 -0.10998020156E+04  0.10998020156E+04  0.00000000000E+00 0. -1.
         25    2    1    2    0    0  0.35002108397E+02 -0.10174081404E+02 -0.75638271034E+03  0.76752238537E+03  0.12508856068E+03 0.  0.
          5    1    3    3  502    0  0.12090965631E+02  0.56791881641E+02 -0.39290564484E+03  0.39719494888E+03  0.41800000000E+01 0. -1.
         -5    1    3    3    0  502  0.22911142766E+02 -0.66965963045E+02 -0.36347706551E+03  0.37032743649E+03  0.41800000000E+01 0. -1.
        -11    1    1    2    0    0 -0.55143601923E+02  0.32323044690E+02 -0.17683937891E+03  0.18803659746E+03  0.00000000000E+00 0.  1.
         11    1    1    2    0    0  0.20141493526E+02 -0.22148963286E+02 -0.15396973219E+03  0.15685322683E+03  0.00000000000E+00 0. -1.
</event>
<event>
 7    1  0.2380582E-009  0.1440457E+03  0.7561462E-02  0.1207987E+00
         -2   -1    0    0    0  501 -0.00000000000E+00  0.00000000000E+00  0.20848921706E+02  0.20848921706E+02  0.00000000000E+00 0.  1.
          2   -1    0    0  501    0  0.00000000000E+00 -0.00000000000E+00 -0.21693603355E+04  0.21693603355E+04  0.00000000000E+00 0. -1.
         25    2    1    2    0    0 -0.11562046062E+02 -0.11968308185E+03 -0.18244625794E+04  0.18326945148E+04  0.12509100657E+03 0.  0.
          5    1    3    3  502    0 -0.66007623938E+01 -0.13468684609E+03 -0.17834320903E+04  0.17885277771E+04  0.41800000000E+01 0.  1.
         -5    1    3    3    0  502 -0.49612836685E+01  0.15003764241E+02 -0.41030489127E+02  0.44166737655E+02  0.41800000000E+01 0.  1.
        -11    1    1    2    0    0 -0.25345095219E+02  0.26807980286E+02 -0.16949577169E+03  0.17346428531E+03  0.00000000000E+00 0. -1.
         11    1    1    2    0    0  0.36907141281E+02  0.92875101566E+02 -0.15455306271E+03  0.18405045711E+03  0.00000000000E+00 0.  1.
</event>
<event>
 7    1  0.2380582E-009  0.1994795E+03  0.7561462E-02  0.1150179E+00
          1   -1    0    0  501    0  0.00000000000E+00  0.00000000000E+00  0.38580844169E+03  0.38580844169E+03  0.00000000000E+00 0. -1.
         -1   -1    0    0    0  501 -0.00000000000E+00 -0.00000000000E+00 -0.10646352931E+03  0.10646352931E+03  0.00000000000E+00 0.  1.
         25    2    1    2    0    0  0.13591213334E+03 -0.10206126957E+03  0.12683381125E+03  0.24621715886E+03  0.12508981934E+03 0.  0.
          5    1    3    3  502    0  0.11738615417E+03 -0.11290632334E+02  0.77487518888E+02  0.14116931519E+03  0.41800000000E+01 0. -1.
         -5    1    3    3    0  502  0.18525979171E+02 -0.90770637232E+02  0.49346292367E+02  0.10504784366E+03  0.41800000000E+01 0. -1.
        -11    1    1    2    0    0 -0.46970152556E+02  0.85784662106E+02  0.51666660987E+02  0.11061034012E+03  0.00000000000E+00 0. -1.
         11    1    1    2    0    0 -0.88941980782E+02  0.16276607461E+02  0.10084444013E+03  0.13544447202E+03  0.00000000000E+00 0.  1.
</event>
<event>
 7    1  0.2380582E-009  0.1263106E+03  0.7561462E-02  0.1233035E+00
          2   -1    0    0  501    0  0.00000000000E+00  0.00000000000E+00  0.44190624670E+03  0.44190624670E+03  0.00000000000E+00 0. -1.
         -2   -1    0    0    0  501 -0.00000000000E+00 -0.00000000000E+00 -0.53571336699E+02  0.53571336699E+02  0.00000000000E+00 0.  1.
         25    2    1    2    0    0 -0.70889234278E+02  0.75710722063E+02  0.26770311072E+03  0.31315806934E+03  0.12508246851E+03 0.  0.
          5    1    3    3  502    0 -0.27008709238E+02  0.73062976339E+02  0.25579046491E+03  0.26742083543E+03  0.41800000000E+01 0. -1.
         -5    1    3    3    0  502 -0.43880525039E+02  0.26477457240E+01  0.11912645817E+02  0.45737233908E+02  0.41800000000E+01 0. -1.
        -11    1    1    2    0    0  0.45507504764E+02  0.50622081727E+01  0.17822556696E+02  0.49134534379E+02  0.00000000000E+00 0. -1.
         11    1    1    2    0    0  0.25381729514E+02 -0.80772930236E+02  0.10280924258E+03  0.13318497968E+03  0.00000000000E+00 0.  1.
</event>
<event>
 7    1  0.2380582E-009  0.1254338E+03  0.7561462E-02  0.1234393E+00
         -2   -1    0    0    0  501 -0.00000000000E+00  0.00000000000E+00  0.14606867633E+02  0.14606867633E+02  0.00000000000E+00 0.  1.
          2   -1    0    0  501    0  0.00000000000E+00 -0.00000000000E+00 -0.10963852866E+04  0.10963852866E+04  0.00000000000E+00 0. -1.
         25    2    1    2    0    0 -0.57678488793E+02 -0.30071392130E+02 -0.61953358475E+03  0.63537236465E+03  0.12508030390E+03 0.  0.
          5    1    3    3  502    0 -0.39958997522E+02 -0.78460617354E+02 -0.35037815198E+03  0.36129643195E+03  0.41800000000E+01 0.  1.
         -5    1    3    3    0  502 -0.17719491272E+02  0.48389225225E+02 -0.26915543278E+03  0.27407593269E+03  0.41800000000E+01 0.  1.
        -11    1    1    2    0    0  0.52226439109E+02  0.60603600379E+02 -0.35958216410E+03  0.36837444273E+03  0.00000000000E+00 0. -1.
         11    1    1    2    0    0  0.54520496838E+01 -0.30532208249E+02 -0.10266267007E+03  0.10724534681E+03  0.00000000000E+00 0.  1.
</event>
<event>
 7    1  0.2380582E-009  0.1005642E+03  0.7561462E-02  0.1279114E+00
         -3   -1    0    0    0  501 -0.00000000000E+00  0.00000000000E+00  0.21337725047E+03  0.21337725047E+03  0.00000000000E+00 0.  1.
          3   -1    0    0  501    0  0.00000000000E+00 -0.00000000000E+00 -0.73179816399E+02  0.73179816399E+02  0.00000000000E+00 0. -1.
         25    2    1    2    0    0 -0.46335095845E+02 -0.13046343238E+02  0.28449033714E+02  0.13700546256E+03  0.12507598120E+03 0.  0.
          5    1    3    3  502    0 -0.64201005240E+02  0.30071018028E+02  0.48539822715E+02  0.86021055494E+02  0.41800000000E+01 0.  1.
         -5    1    3    3    0  502  0.17865909395E+02 -0.43117361266E+02 -0.20090789000E+02  0.50984407064E+02  0.41800000000E+01 0.  1.
        -11    1    1    2    0    0 -0.12200889875E+02  0.20890458255E+02  0.77703234100E+02  0.81382218878E+02  0.00000000000E+00 0.  1.
         11    1    1    2    0    0  0.58535985720E+02 -0.78441150171E+01  0.34045166254E+02  0.68169385430E+02  0.00000000000E+00 0. -1.
</event>
<event>
 7    1  0.2380582E-009  0.1778386E+03  0.7561462E-02  0.1169911E+00
          3   -1    0    0  501    0  0.00000000000E+00  0.00000000000E+00  0.11907761690E+03  0.11907761690E+03  0.00000000000E+00 0. -1.
         -3   -1    0    0    0  501 -0.00000000000E+00 -0.00000000000E+00 -0.33049505956E+03  0.33049505956E+03  0.00000000000E+00 0.  1.
         25    2    1    2    0    0 -0.13194238932E+03 -0.86468424970E+02 -0.52770057489E+02  0.20812937571E+03  0.12509026921E+03 0.  0.
          5    1    3    3  502    0 -0.15437591585E+03 -0.70568584097E+02 -0.58772986683E+02  0.17967633350E+03  0.41800000000E+01 0.  1.
         -5    1    3    3    0  502  0.22433526531E+02 -0.15899840873E+02  0.60029291940E+01  0.28453042216E+02  0.41800000000E+01 0.  1.
        -11    1    1    2    0    0  0.90452787817E+02  0.53598407125E+02 -0.41761288137E+02  0.11313046123E+03  0.00000000000E+00 0. -1.
         11    1    1    2    0    0  0.41489601499E+02  0.32870017845E+02 -0.11688609704E+03  0.12831283952E+03  0.00000000000E+00 0.  1.
</event>
<event>
 7    1  0.2380582E-009  0.1134411E+03  0.7561462E-02  0.1254327E+00
          1   -1    0    0  501    0  0.00000000000E+00  0.00000000000E+00  0.37182066064E+03  0.37182066064E+03  0.00000000000E+00 0. -1.
         -1   -1    0    0    0  501 -0.00000000000E+00 -0.00000000000E+00 -0.70782584523E+02  0.70782584523E+02  0.00000000000E+00 0.  1.
         25    2    1    2    0    0  0.33589671942E+02 -0.83583737358E+02  0.50008578968E+02  0.16205881077E+03  0.12509073892E+03 0.  0.
          5    1    3    3  502    0 -0.11787466107E+02  0.45128079407E+01 -0.31171026272E+02  0.33888273363E+02  0.41800000000E+01 0. -1.
         -5    1    3    3    0  502  0.45377138049E+02 -0.88096545299E+02  0.81179605240E+02  0.12817053740E+03  0.41800000000E+01 0. -1.
        -11    1    1    2    0    0  0.21666574673E+02  0.15116176268E+02  0.19425536775E+02  0.32791625791E+02  0.00000000000E+00 0.  1.
         11    1    1    2    0    0 -0.55256246616E+02  0.68467561090E+02  0.23160396038E+03  0.24775280861E+03  0.00000000000E+00 0. -1.
</event>
<event>
 7    1  0.2380582E-009  0.8086998E+02  0.7561462E-02  0.1326601E+00
          2   -1    0    0  501    0  0.00000000000E+00  0.00000000000E+00  0.64979507689E+03  0.64979507689E+03  0.00000000000E+00 0. -1.
         -2   -1    0    0    0  501 -0.00000000000E+00 -0.00000000000E+00 -0.21041715550E+02  0.21041715550E+02  0.00000000000E+00 0.  1.
         25    2    1    2    0    0 -0.46609323382E+01 -0.49526940460E+01  0.49479421744E+03  0.51040643067E+03  0.12508858218E+03 0.  0.
          5    1    3    3  502    0 -0.36601958660E+02  0.30429025315E+02  0.82446962989E+02  0.95292198345E+02  0.41800000000E+01 0.  1.
         -5    1    3    3    0  502  0.31941026322E+02 -0.35381719361E+02  0.41234725445E+03  0.41511423233E+03  0.41800000000E+01 0.  1.
        -11    1    1    2    0    0 -0.23082467321E+02 -0.18656576735E+02  0.10140585385E+02  0.31363986115E+02  0.00000000000E+00 0.  1.
         11    1    1    2    0    0  0.27743399659E+02  0.23609270781E+02  0.12381855852E+03  0.12906637565E+03  0.00000000000E+00 0. -1.
</event>
<event>
 7    1  0.2380582E-009  0.2114920E+03  0.7561462E-02  0.1140390E+00
          2   -1    0    0  501    0  0.00000000000E+00  0.00000000000E+00  0.14612645249E+04  0.14612645249E+04  0.00000000000E+00 0. -1.
         -2   -1    0    0    0  501 -0.00000000000E+00 -0.00000000000E+00 -0.35563602262E+02  0.35563602262E+02  0.00000000000E+00 0.  1.
         25    2    1    2    0    0 -0.14815942727E+03 -0.13416313608E+03  0.69262188043E+03  0.73165776448E+03  0.12508817733E+03 0.  0.
          5    1    3    3  502    0  0.15330222916E+01 -0.35073257647E+02  0.34201072575E+02  0.49190134424E+02  0.41800000000E+01 0. -1.
         -5    1    3    3    0  502 -0.14969244956E+03 -0.99089878431E+02  0.65842080785E+03  0.68246763006E+03  0.41800000000E+01 0. -1.
        -11    1    1    2    0    0  0.10460335235E+03  0.56167265966E+02  0.29349043255E+03  0.31659636304E+03  0.00000000000E+00 0.  1.
         11    1    1    2    0    0  0.43556074920E+02  0.77995870111E+02  0.43958860968E+03  0.44857399966E+03  0.00000000000E+00 0. -1.
</event>
<event>
 7    1  0.2380582E-009  0.2383091E+03  0.7561462E-02  0.1120924E+00
         -2   -1    0    0    0  501 -0.00000000000E+00  0.00000000000E+00  0.47342366429E+02  0.47342366429E+02  0.00000000000E+00 0.  1.
          2   -1    0    0  501    0  0.00000000000E+00 -0.00000000000E+00 -0.13952233734E+04  0.13952233734E+04  0.00000000000E+00 0. -1.
         25    2    1    2    0    0 -0.20570593237E+03 -0.83028593905E+02 -0.86163043463E+03  0.89847833717E+03  0.12509052107E+03 0.  0.
          5    1    3    3  502    0 -0.17778020688E+03 -0.16601387973E+02 -0.67913365363E+03  0.70222603194E+03  0.41800000000E+01 0.  1.
         -5    1    3    3    0  502 -0.27925725486E+02 -0.66427205932E+02 -0.18249678100E+03  0.19625230523E+03  0.41800000000E+01 0.  1.
        -11    1    1    2    0    0  0.11132798196E+03  0.67489483788E+02 -0.17270371712E+03  0.21627603634E+03  0.00000000000E+00 0.  1.
         11    1    1    2    0    0  0.94377950414E+02  0.15539110117E+02 -0.31354685520E+03  0.32781136630E+03  0.00000000000E+00 0. -1.
</event>
<event>
 7    1  0.2380582E-009  0.1478421E+03  0.7561462E-02  0.1203150E+00
          1   -1    0    0  501    0  0.00000000000E+00  0.00000000000E+00  0.67062949260E+03  0.67062949260E+03  0.00000000000E+00 0. -1.
         -1   -1    0    0    0  501 -0.00000000000E+00 -0.00000000000E+00 -0.51341291581E+02  0.51341291581E+02  0.00000000000E+00 0.  1.
         25    2    1    2    0    0 -0.12279652070E+03 -0.37984817738E+02  0.46275761361E+03  0.49629854194E+03  0.12508317995E+03 0.  0.
          5    1    3    3  502    0 -0.13557658327E+03 -0.43094613509E+02  0.29099585210E+03  0.32393550899E+03  0.41800000000E+01 0.  1.
         -5    1    3    3    0  502  0.12780062569E+02  0.51097957711E+01  0.17176176151E+03  0.17236303296E+03  0.41800000000E+01 0.  1.
        -11    1    1    2    0    0  0.62785247899E+02  0.46818360363E+02  0.14372250296E+03  0.16367682817E+03  0.00000000000E+00 0. -1.
         11    1    1    2    0    0  0.60011272801E+02 -0.88335426251E+01  0.12808084444E+02  0.61995414070E+02  0.00000000000E+00 0.  1.
</event>
<event>
 7    1  0.2380582E-009  0.2352297E+03  0.7561462E-02  0.1123012E+00
          1   -1    0    0  501    0  0.00000000000E+00  0.00000000000E+00  0.30640472550E+03  0.30640472550E+03  0.00000000000E+00 0. -1.
         -1   -1    0    0    0  501 -0.00000000000E+00 -0.00000000000E+00 -0.25424644566E+03  0.25424644566E+03  0.00000000000E+00 0.  1.
         25    2    1    2    0    0 -0.18615057753E+03 -0.12806287515E+03  0.14854049176E+03  0.29793721557E+03  0.12510063637E+03 0.  0.
          5    1    3    3  502    0 -0.16259873083E+03 -0.10660569914E+03  0.59651085555E+02  0.20341791161E+03  0.41800000000E+01 0.  1.
         -5    1    3    3    0  502 -0.23551846702E+02 -0.21457176016E+02  0.88889406204E+02  0.94519303959E+02  0.41800000000E+01 0.  1.
        -11    1    1    2    0    0  0.10563755207E+03  0.17497632633E+02 -0.33646923519E+02  0.11223891935E+03  0.00000000000E+00 0. -1.
         11    1    1    2    0    0  0.80513025464E+02  0.11056524252E+03 -0.62735288401E+02  0.15047503625E+03  0.00000000000E+00 0.  1.
</event>
<event>
 7    1  0.2380582E-009  0.1075232E+03  0.7561462E-02  0.1265226E+00
          2   -1    0    0  501    0  0.00000000000E+00  0.00000000000E+00  0.73916460124E+02  0.73916460124E+02  0.00000000000E+00 0. -1.
         -2   -1    0    0    0  501 -0.00000000000E+00 -0.00000000000E+00 -0.27231463182E+03  0.27231463182E+03  0.00000000000E+00 0.  1.
         25    2    1    2    0    0  0.36727057636E+02  0.79987540264E+02 -0.82397639260E+02  0.17373512624E+03  0.12509052631E+03 0.  0.
          5    1    3    3  502    0  0.30228406062E+02  0.61511177089E+02 -0.11589416008E+03  0.13470824095E+03  0.41800000000E+01 0. -1.
         -5    1    3    3    0  502  0.64986515733E+01  0.18476363175E+02  0.33496520817E+02  0.39026885288E+02  0.41800000000E+01 0. -1.
        -11    1    1    2    0    0 -0.64063241810E+02 -0.33171033488E+02 -0.78271867799E+02  0.10644670828E+03  0.00000000000E+00 0.  1.
         11    1    1    2    0    0  0.27336184175E+02 -0.46816506776E+02 -0.37728664635E+02  0.66049257430E+02  0.00000000000E+00 0. -1.
</event>
<event>
 7    1  0.2380582E-009  0.9934068E+02  0.7561462E-02  0.1281689E+00
         -1   -1    0    0    0  501 -0.00000000000E+00  0.00000000000E+00  0.61233424974E+02  0.61233424974E+02  0.00000000000E+00 0.  1.
          1   -1    0    0  501    0  0.00000000000E+00 -0.00000000000E+00 -0.24609750765E+03  0.24609750765E+03  0.00000000000E+00 0. -1.
         25    2    1    2    0    0 -0.49121919201E+02 -0.13410804664E+02 -0.12938694661E+03  0.18702324258E+03  0.12507557190E+03 0.  0.
          5    1    3    3  502    0 -0.84634206480E+02  0.17700247682E+02 -0.94602644001E+02  0.12823174461E+03  0.41800000000E+01 0.  1.
         -5    1    3    3    0  502  0.35512287279E+02 -0.31111052346E+02 -0.34784302606E+02  0.58791497971E+02  0.41800000000E+01 0.  1.
        -11    1    1    2    0    0  0.35354984081E+02  0.27671429286E+02  0.14812437286E+02  0.47276751120E+02  0.00000000000E+00 0.  1.
         11    1    1    2    0    0  0.13766935120E+02 -0.14260624623E+02 -0.70289573357E+02  0.73030938922E+02  0.00000000000E+00 0. -1.
</event>
<event>
 7    1  0.2380582E-009  0.1302548E+03  0.7561462E-02  0.1227078E+00
          2   -1    0    0  501    0  0.00000000000E+00  0.00000000000E+00  0.98815111188E+02  0.98815111188E+02  0.00000000000E+00 0. -1.
         -2   -1    0    0    0  501 -0.00000000000E+00 -0.00000000000E+00 -0.21180627482E+03  0.21180627482E+03  0.00000000000E+00 0.  1.
         25    2    1    2    0    0 -0.63185559615E+02  0.71023557440E+02 -0.61573784883E+02  0.16873733334E+03  0.12507676052E+03 0.  0.
          5    1    3    3  502    0 -0.95774286239E+02  0.56366963567E+02 -0.18702249514E+02  0.11277054147E+03  0.41800000000E+01 0. -1.
         -5    1    3    3    0  502  0.32588726624E+02  0.14656593872E+02 -0.42871535370E+02  0.55966791867E+02  0.41800000000E+01 0. -1.
        -11    1    1    2    0    0  0.56473690701E+02 -0.17130499501E+02 -0.63031802560E+02  0.86346626387E+02  0.00000000000E+00 0.  1.
         11    1    1    2    0    0  0.67118689140E+01 -0.53893057939E+02  0.11614423808E+02  0.55537426288E+02  0.00000000000E+00 0. -1.
</event>
<event>
 7    1  0.2380582E-009  0.1929436E+03  0.7561462E-02  0.1155833E+00
         -2   -1    0    0    0  501 -0.00000000000E+00  0.00000000000E+00  0.46729562999E+02  0.46729562999E+02  0.00000000000E+00 0.  1.
          2   -1    0    0  501    0  0.00000000000E+00 -0.00000000000E+00 -0.92796043617E+03  0.92796043617E+03  0.00000000000E+00 0. -1.
         25    2    1    2    0    0 -0.86825248391E+01  0.17310629888E+03 -0.37193877825E+03  0.42898331576E+03  0.12508818282E+03 0.  0.
          5    1    3    3  502    0  0.78574673338E+01  0.18597602435E+03 -0.35784344729E+03  0.40338347338E+03  0.41800000000E+01 0.  1.
         -5    1    3    3    0  502 -0.16539992173E+02 -0.12869725473E+02 -0.14095330962E+02  0.25599842378E+02  0.41800000000E+01 0.  1.
        -11    1    1    2    0    0  0.17917982682E+02 -0.30138319703E+02 -0.32330463922E+02  0.47693095049E+02  0.00000000000E+00 0.  1.
         11    1    1    2    0    0 -0.92354578432E+01 -0.14296797918E+03 -0.47696163099E+03  0.49801358836E+03  0.00000000000E+00 0. -1.
</event>
<event>
 7    1  0.2380582E-009  0.1089947E+03  0.7561462E-02  0.1262443E+00
          1   -1    0    0  501    0  0.00000000000E+00  0.00000000000E+00  0.85741106937E+02  0.85741106937E+02  0.00000000000E+00 0. -1.
         -1   -1    0    0    0  501 -0.00000000000E+00 -0.00000000000E+00 -0.20847353595E+03  0.20847353595E+03  0.00000000000E+00 0.  1.
         25    2    1    2    0    0 -0.28796480295E+02 -0.66108096292E+01  0.10825124655E+02  0.12898664657E+03  0.12508969417E+03 0.  0.
          5    1    3    3  502    0 -0.90769463257E+01  0.56607981274E+02  0.22280821471E+02  0.61650319577E+02  0.41800000000E+01 0.  1.
         -5    1    3    3    0  502 -0.19719533970E+02 -0.63218790903E+02 -0.11455696816E+02  0.67336326992E+02  0.41800000000E+01 0.  1.
        -11    1    1    2    0    0  0.58865982175E+01 -0.40944423789E+02 -0.79818138465E+02  0.89900128509E+02  0.00000000000E+00 0.  1.
         11    1    1    2    0    0  0.22909882078E+02  0.47555233418E+02 -0.53739415201E+02  0.75327867808E+02  0.00000000000E+00 0. -1.
</event>
<event>
 7    1  0.2380582E-009  0.1021418E+03  0.7561462E-02  0.1275856E+00
          1   -1    0    0  501    0  0.00000000000E+00  0.00000000000E+00  0.20186629780E+02  0.20186629780E+02  0.00000000000E+00 0. -1.
         -1   -1    0    0    0  501 -0.00000000000E+00 -0.00000000000E+00 -0.68620562608E+03  0.68620562608E+03  0.00000000000E+00 0.  1.
         25    2    1    2    0    0 -0.11734722342E+02 -0.20726310253E+01 -0.51552260334E+03  0.53061610040E+03  0.12509153426E+03 0.  0.
          5    1    3    3  502    0 -0.36475976857E+02  0.52782348828E+02 -0.23178918078E+03  0.24054141007E+03  0.41800000000E+01 0. -1.
         -5    1    3    3    0  502  0.24741254516E+02 -0.54854979853E+02 -0.28373342256E+03  0.29007469033E+03  0.41800000000E+01 0. -1.
        -11    1    1    2    0    0  0.36773783175E+02  0.25996985454E+02 -0.40890044901E+02  0.60828859546E+02  0.00000000000E+00 0.  1.
         11    1    1    2    0    0 -0.25039060833E+02 -0.23924354429E+02 -0.10960634806E+03  0.11494729591E+03  0.00000000000E+00 0. -1.
</event>
<event>
 7    1  0.2380582E-009  0.1178102E+03  0.7561462E-02  0.1246754E+00
          1   -1    0    0  501    0  0.00000000000E+00  0.00000000000E+00  0.23373607348E+03  0.23373607348E+03  0.00000000000E+00 0. -1.
         -1   -1    0    0    0  501 -0.00000000000E+00 -0.00000000000E+00 -0.62503231442E+02  0.62503231442E+02  0.00000000000E+00 0.  1.
         25    2    1    2    0    0  0.29401924333E+02  0.45498296010E+02  0.11670238639E+03  0.17944501764E+03  0.12508596753E+03 0.  0.
          5    1    3    3  502    0  0.21785735973E+02  0.87359901644E+02  0.96866817668E+02  0.13231410912E+03  0.41800000000E+01 0. -1.
         -5    1    3    3    0  502  0.76161883606E+01 -0.41861605633E+02  0.19835568724E+02  0.47130908520E+02  0.41800000000E+01 0. -1.
        -11    1    1    2    0    0  0.29185412801E+02 -0.10673747342E+01  0.10198020490E+02  0.30934240432E+02  0.00000000000E+00 0. -1.
         11    1    1    2    0    0 -0.58587337135E+02 -0.44430921276E+02  0.44332435153E+02  0.85860046847E+02  0.00000000000E+00 0.  1.
</event>
<event>
 7    1  0.2380582E-009  0.1674213E+03  0.7561462E-02  0.1180564E+00
          1   -1    0    0  501    0  0.00000000000E+00  0.00000000000E+00  0.30972711861E+03  0.30972711861E+03  0.00000000000E+00 0. -1.
         -1   -1    0    0    0  501 -0.00000000000E+00 -0.00000000000E+00 -0.12976621775E+03  0.12976621775E+03  0.00000000000E+00 0.  1.
         25    2    1    2    0    0  0.13250342387E+03  0.91908863584E+02  0.13303366285E+03  0.24361709942E+03  0.12508772575E+03 0.  0.
          5    1    3    3  502    0  0.11864501846E+03  0.49267606371E+02  0.31195365163E+02  0.13226700515E+03  0.41800000000E+01 0.  1.
         -5    1    3    3    0  502  0.13858405409E+02  0.42641257213E+02  0.10183829769E+03  0.11135009427E+03  0.41800000000E+01 0.  1.
        -11    1    1    2    0    0 -0.10250844036E+03 -0.72288342070E+02  0.78616347670E+02  0.14803416789E+03  0.00000000000E+00 0. -1.
         11    1    1    2    0    0 -0.29994983512E+02 -0.19620521514E+02 -0.31689109660E+02  0.47842069055E+02  0.00000000000E+00 0.  1.
</event>
<event>
 7    1  0.2873842E-009  0.1089610E+03  0.7561462E-02  0.1262506E+00
          4   -1    0    0  501    0  0.00000000000E+00  0.00000000000E+00  0.23424269124E+03  0.23424269124E+03  0.00000000000E+00 0. -1.
         -4   -1    0    0    0  501 -0.00000000000E+00 -0.00000000000E+00 -0.65879750232E+02  0.65879750232E+02  0.00000000000E+00 0.  1.
         25    2    1    2    0    0 -0.58151699171E+02 -0.91094775382E+00  0.70075430381E+02  0.15472998359E+03  0.12509337287E+03 0.  0.
          5    1    3    3  502    0 -0.75614345281E+02  0.33879754338E+02  0.10758658825E+02  0.83657564547E+02  0.41800000000E+01 0. -1.
         -5    1    3    3    0  502  0.17462646110E+02 -0.34790702092E+02  0.59316771556E+02  0.71072419046E+02  0.41800000000E+01 0. -1.
        -11    1    1    2    0    0  0.16783572032E+02 -0.36410528769E+02  0.10546676080E+02  0.41456570912E+02  0.00000000000E+00 0.  1.
         11    1    1    2    0    0  0.41368127139E+02  0.37321476523E+02  0.87740834548E+02  0.10393588697E+03  0.00000000000E+00 0. -1.
</event>
<event>
 7    1  0.2380582E-009  0.1023809E+03  0.7561462E-02  0.1275367E+00
         -1   -1    0    0    0  501 -0.00000000000E+00  0.00000000000E+00  0.10409851013E+03  0.10409851013E+03  0.00000000000E+00 0.  1.
          1   -1    0    0  501    0  0.00000000000E+00 -0.00000000000E+00 -0.15018109149E+03  0.15018109149E+03  0.00000000000E+00 0. -1.
         25    2    1    2    0    0  0.38058751336E+02 -0.47942484655E+02 -0.18885884412E+02  0.14053980960E+03  0.12509121098E+03 0.  0.
          5    1    3    3  502    0 -0.44144287578E+02 -0.72363848621E+01  0.61897091400E+01  0.45352709851E+02  0.41800000000E+01 0. -1.
         -5    1    3    3    0  502  0.82203038914E+02 -0.40706099793E+02 -0.25075593552E+02  0.95187099751E+02  0.41800000000E+01 0. -1.
        -11    1    1    2    0    0 -0.35451944059E+02  0.21550344699E+02 -0.59127972027E+02  0.72231397399E+02  0.00000000000E+00 0. -1.
         11    1    1    2    0    0 -0.26068072767E+01  0.26392139956E+02  0.31931275083E+02  0.41508394622E+02  0.00000000000E+00 0.  1.
</event>
<event>
 7    1  0.2380582E-009  0.1084752E+03  0.7561462E-02  0.1263420E+00
         -2   -1    0    0    0  501 -0.00000000000E+00  0.00000000000E+00  0.28918402727E+02  0.28918402727E+02  0.00000000000E+00 0.  1.
          2   -1    0    0  501    0  0.00000000000E+00 -0.00000000000E+00 -0.45193340351E+03  0.45193340351E+03  0.00000000000E+00 0. -1.
         25    2    1    2    0    0  0.26864726349E+02 -0.17346880384E+02 -0.20553173209E+03  0.24272170944E+03  0.12509159666E+03 0.  0.
          5    1    3    3  502    0  0.36574551642E+02 -0.63130040099E+02 -0.78368600943E+02  0.10715507363E+03  0.41800000000E+01 0. -1.
         -5    1    3    3    0  502 -0.97098252927E+01  0.45783159714E+02 -0.12716313115E+03  0.13556663581E+03  0.41800000000E+01 0. -1.
        -11    1    1    2    0    0  0.30207442420E+02  0.25115914121E+02 -0.82761985719E+02  0.91612471857E+02  0.00000000000E+00 0.  1.
         11    1    1    2    0    0 -0.57072168769E+02 -0.77690337365E+01 -0.13472128297E+03  0.14651762494E+03  0.00000000000E+00 0. -1.
</event>
<event>
 7    1  0.2380582E-009  0.1785631E+03  0.7561462E-02  0.1169201E+00
          2   -1    0    0  501    0  0.00000000000E+00  0.00000000000E+00  0.25542102651E+03  0.25542102651E+03  0.00000000000E+00 0. -1.
         -2   -1    0    0    0  501 -0.00000000000E+00 -0.00000000000E+00 -0.15810797078E+03  0.15810797078E+03  0.00000000000E+00 0.  1.
         25    2    1    2    0    0 -0.16302234273E+03 -0.39619067107E+02  0.35958791440E+02  0.21233486547E+03  0.12508839156E+03 0.  0.
          5    1    3    3  502    0 -0.49237715597E+02  0.24351537226E+02 -0.33435901676E+02  0.64442081929E+02  0.41800000000E+01 0.  1.
         -5    1    3    3    0  502 -0.11378462714E+03 -0.63970604333E+02  0.69394693115E+02  0.14789278354E+03  0.41800000000E+01 0.  1.
        -11    1    1    2    0    0  0.38468034185E+02 -0.57102458983E+01 -0.21937271396E+02  0.44650200879E+02  0.00000000000E+00 0.  1.
         11    1    1    2    0    0  0.12455430855E+03  0.45329313005E+02  0.83291535682E+02  0.15654393093E+03  0.00000000000E+00 0. -1.
</event>
<event>
 7    1  0.2380582E-009  0.3584532E+02  0.7561462E-02  0.1541220E+00
         -2   -1    0    0    0  501 -0.00000000000E+00  0.00000000000E+00  0.36091187526E+02  0.36091187526E+02  0.00000000000E+00 0.  1.
          2   -1    0    0  501    0  0.00000000000E+00 -0.00000000000E+00 -0.35518021112E+03  0.35518021112E+03  0.00000000000E+00 0. -1.
         25    2    1    2    0    0  0.10851338915E+02 -0.54219809318E+01 -0.26808018799E+03  0.29607678243E+03  0.12508926600E+03 0.  0.
          5    1    3    3  502    0  0.14681561844E+02 -0.12834907638E+02  0.67750428467E+01  0.21063160205E+02  0.41800000000E+01 0.  1.
         -5    1    3    3    0  502 -0.38302229286E+01  0.74129267067E+01 -0.27485523084E+03  0.27501362223E+03  0.41800000000E+01 0.  1.
        -11    1    1    2    0    0  0.13864771567E+02 -0.60966513892E+01  0.16493405276E+02  0.22392710117E+02  0.00000000000E+00 0.  1.
         11    1    1    2    0    0 -0.24716110482E+02  0.11518632321E+02 -0.67502240872E+02  0.72801906092E+02  0.00000000000E+00 0. -1.
</event>
<event>
 7    1  0.2380582E-009  0.1160678E+03  0.7561462E-02  0.1249729E+00
          1   -1    0    0  501    0  0.00000000000E+00  0.00000000000E+00  0.23521253564E+03  0.23521253564E+03  0.00000000000E+00 0. -1.
         -1   -1    0    0    0  501 -0.00000000000E+00 -0.00000000000E+00 -0.70142009023E+02  0.70142009023E+02  0.00000000000E+00 0.  1.
         25    2    1    2    0    0  0.57510073509E+02  0.38373058044E+02  0.88896762622E+02  0.16831265515E+03  0.12508643148E+03 0.  0.
          5    1    3    3  502    0 -0.65196256702E+01 -0.27139141745E+02 -0.13133885375E+02  0.31128923505E+02  0.41800000000E+01 0. -1.
         -5    1    3    3    0  502  0.64029699180E+02  0.65512199789E+02  0.10203064800E+03  0.13718373165E+03  0.41800000000E+01 0. -1.
        -11    1    1    2    0    0 -0.17276275397E+01 -0.54199946380E+02  0.25030320982E+02  0.59725504208E+02  0.00000000000E+00 0.  1.
         11    1    1    2    0    0 -0.55782445970E+02  0.15826888336E+02  0.51143443013E+02  0.77316385301E+02  0.00000000000E+00 0. -1.
</event>
<event>
 7    1  0.2380582E-009  0.1211678E+03  0.7561462E-02  0.1241183E+00
          1   -1    0    0  501    0  0.00000000000E+00  0.00000000000E+00  0.12936696676E+03  0.12936696676E+03  0.00000000000E+00 0. -1.
         -1   -1    0    0    0  501 -0.00000000000E+00 -0.00000000000E+00 -0.13198761653E+03  0.13198761653E+03  0.00000000000E+00 0.  1.
         25    2    1    2    0    0 -0.68766880428E+02 -0.12228520709E+02  0.43049134029E+02  0.14958379480E+03  0.12507463038E+03 0.  0.
          5    1    3    3  502    0 -0.74807639616E+02 -0.59095638834E+02  0.23512599359E+02  0.98279154467E+02  0.41800000000E+01 0.  1.
         -5    1    3    3    0  502  0.60407591879E+01  0.46867118125E+02  0.19536534670E+02  0.51304640335E+02  0.41800000000E+01 0.  1.
        -11    1    1    2    0    0 -0.94456107343E+01  0.18742363191E+02 -0.20529968124E+02  0.29359416399E+02  0.00000000000E+00 0.  1.
         11    1    1    2    0    0  0.78212491163E+02 -0.65138424824E+01 -0.25139815675E+02  0.82411372091E+02  0.00000000000E+00 0. -1.
</event>
<event>
 7    1  0.2380582E-009  0.1693013E+03  0.7561462E-02  0.1178578E+00
         -1   -1    0    0    0  501 -0.00000000000E+00  0.00000000000E+00  0.88047156934E+02  0.88047156934E+02  0.00000000000E+00 0.  1.
          1   -1    0    0  501    0  0.00000000000E+00 -0.00000000000E+00 -0.84148550207E+03  0.84148550207E+03  0.00000000000E+00 0. -1.
         25    2    1    2    0    0 -0.14812909068E+03  0.58263398004E+02 -0.71362793985E+03  0.74178763107E+03  0.12508877657E+03 0.  0.
          5    1    3    3  502    0 -0.60815998043E+01 -0.73751217943E+01 -0.28961284752E+03  0.28980071105E+03  0.41800000000E+01 0.  1.
         -5    1    3    3    0  502 -0.14204749087E+03  0.65638519799E+02 -0.42401509234E+03  0.45198692003E+03  0.41800000000E+01 0.  1.
        -11    1    1    2    0    0  0.84937146992E+02 -0.66546168814E+02  0.78144950054E+01  0.10818400000E+03  0.00000000000E+00 0.  1.
         11    1    1    2    0    0  0.63191943683E+02  0.82827708096E+01 -0.47624900291E+02  0.79561027937E+02  0.00000000000E+00 0. -1.
</event>
<event>
 7    1  0.2380582E-009  0.4139705E+03  0.7561462E-02  0.1039047E+00
         -2   -1    0    0    0  501 -0.00000000000E+00  0.00000000000E+00  0.30983226218E+03  0.30983226218E+03  0.00000000000E+00 0.  1.
          2   -1    0    0  501    0  0.00000000000E+00 -0.00000000000E+00 -0.68735317070E+03  0.68735317070E+03  0.00000000000E+00 0. -1.
         25    2    1    2    0    0  0.83180341155E+02 -0.39884384342E+03  0.11849785591E+02  0.42636037368E+03  0.12508944894E+03 0.  0.
          5    1    3    3  502    0  0.76383021892E+02 -0.39364375708E+03 -0.11468656193E+02  0.40117175374E+03  0.41800000000E+01 0. -1.
         -5    1    3    3    0  502  0.67973192624E+01 -0.52000863338E+01  0.23318441784E+02  0.25188619936E+02  0.41800000000E+01 0. -1.
        -11    1    1    2    0    0 -0.97702530322E+02  0.25904348688E+03 -0.25909340315E+03  0.37918162413E+03  0.00000000000E+00 0. -1.
         11    1    1    2    0    0  0.14522189167E+02  0.13980035654E+03 -0.13027729096E+03  0.19164343507E+03  0.00000000000E+00 0.  1.
</event>
<event>
 7    1  0.2380582E-009  0.1291303E+03  0.7561462E-02  0.1228752E+00
         -1   -1    0    0    0  501 -0.00000000000E+00  0.00000000000E+00  0.86804030050E+02  0.86804030050E+02  0.00000000000E+00 0.  1.
          1   -1    0    0  501    0  0.00000000000E+00 -0.00000000000E+00 -0.22468296926E+03  0.22468296926E+03  0.00000000000E+00 0. -1.
         25    2    1    2    0    0  0.17015417475E-01 -0.77070536275E+02 -0.12129796996E+03  0.19052800042E+03  0.12509138090E+03 0.  0.
          5    1    3    3  502    0 -0.44809926058E+02 -0.87225359943E+02 -0.64966387447E+02  0.11770427685E+03  0.41800000000E+01 0. -1.
         -5    1    3    3    0  502  0.44826941476E+02  0.10154823668E+02 -0.56331582512E+02  0.72823723567E+02  0.41800000000E+01 0. -1.
        -11    1    1    2    0    0 -0.14259657748E+02  0.92131264307E+02 -0.27936168616E+02  0.97323877948E+02  0.00000000000E+00 0. -1.
         11    1    1    2    0    0  0.14242642330E+02 -0.15060728032E+02  0.11355199367E+02  0.23635120945E+02  0.00000000000E+00 0.  1.
</event>
<event>
 7    1  0.2380582E-009  0.4468171E+03  0.7561462E-02  0.1028675E+00
         -1   -1    0    0    0  501 -0.00000000000E+00  0.00000000000E+00  0.11628470968E+03  0.11628470968E+03  0.00000000000E+00 0.  1.
          1   -1    0    0  501    0  0.00000000000E+00 -0.00000000000E+00 -0.19053395050E+04  0.19053395050E+04  0.00000000000E+00 0. -1.
         25    2    1    2    0    0  0.52827810765E+02  0.43709152394E+03 -0.11705310358E+04  0.12568334031E+04  0.12509004545E+03 0.  0.
          5    1    3    3  502    0  0.76960800051E+02  0.40743584569E+03 -0.11119863804E+04  0.11867847807E+04  0.41800000000E+01 0. -1.
         -5    1    3    3    0  502 -0.24132989286E+02  0.29655678250E+02 -0.58544655435E+02  0.70048622430E+02  0.41800000000E+01 0. -1.
        -11    1    1    2    0    0 -0.10965277482E+02 -0.14771615354E+03 -0.13883936566E+03  0.20301888775E+03  0.00000000000E+00 0.  1.
         11    1    1    2    0    0 -0.41862533283E+02 -0.28937537041E+03 -0.47968439386E+03  0.56177192383E+03  0.00000000000E+00 0. -1.
</event>
<event>
 7    1  0.2380582E-009  0.1339316E+03  0.7561462E-02  0.1221736E+00
          1   -1    0    0  501    0  0.00000000000E+00  0.00000000000E+00  0.97417424247E+02  0.97417424247E+02  0.00000000000E+00 0. -1.
         -1   -1    0    0    0  501 -0.00000000000E+00 -0.00000000000E+00 -0.20313719854E+03  0.20313719854E+03  0.00000000000E+00 0.  1.
         25    2    1    2    0    0 -0.14502447308E+02  0.90596245229E+02 -0.58101774828E+02  0.16565397853E+03  0.12508966279E+03 0.  0.
          5    1    3    3  502    0  0.50307073678E+02  0.31810873720E+02 -0.49697577062E+02  0.77653428222E+02  0.41800000000E+01 0. -1.
         -5    1    3    3    0  502 -0.64809520986E+02  0.58785371509E+02 -0.84041977666E+01  0.88000550305E+02  0.41800000000E+01 0. -1.
        -11    1    1    2    0    0 -0.20351708078E+02 -0.82287024728E+02 -0.50974546835E+02  0.98912844896E+02  0.00000000000E+00 0.  1.
         11    1    1    2    0    0  0.34854155386E+02 -0.83092205012E+01  0.33565473691E+01  0.35987799366E+02  0.00000000000E+00 0. -1.
</event>
<event>
 7    1  0.2380582E-009  0.8648391E+02  0.7561462E-02  0.1311597E+00
          2   -1    0    0  501    0  0.00000000000E+00  0.00000000000E+00  0.11919935104E+03  0.11919935104E+03  0.00000000000E+00 0. -1.
         -2   -1    0    0    0  501 -0.00000000000E+00 -0.00000000000E+00 -0.15041640265E+03  0.15041640265E+03  0.00000000000E+00 0.  1.
         25    2    1    2    0    0 -0.21320961722E+02 -0.18988505723E+02  0.57024155224E+02  0.14039862467E+03  0.12507946582E+03 0.  0.
          5    1    3    3  502    0  0.10998114107E+02  0.28269550142E+02  0.74372773191E+02  0.80429520522E+02  0.41800000000E+01 0. -1.
         -5    1    3    3    0  502 -0.32319075828E+02 -0.47258055865E+02 -0.17348617967E+02  0.59969104145E+02  0.41800000000E+01 0. -1.
        -11    1    1    2    0    0  0.44700074303E+02 -0.11849817288E+02 -0.19203130647E+02  0.50072697542E+02  0.00000000000E+00 0. -1.
         11    1    1    2    0    0 -0.23379112581E+02  0.30838323012E+02 -0.69038076190E+02  0.79144431486E+02  0.00000000000E+00 0.  1.
</event>
<event>
 7    1  0.2380582E-009  0.1066598E+03  0.7561462E-02  0.1266883E+00
         -1   -1    0    0    0  501 -0.00000000000E+00  0.00000000000E+00  0.76346658765E+02  0.76346658765E+02  0.00000000000E+00 0.  1.
          1   -1    0    0  501    0  0.00000000000E+00 -0.00000000000E+00 -0.21578407475E+03  0.21578407475E+03  0.00000000000E+00 0. -1.
         25    2    1    2    0    0  0.34489966681E+02  0.39932300023E+02 -0.12628106537E+03  0.18541176018E+03  0.12508583835E+03 0.  0.
          5    1    3    3  502    0  0.62968016628E+02  0.58474625525E+02 -0.12422964180E+03  0.15111164498E+03  0.41800000000E+01 0.  1.
         -5    1    3    3    0  502 -0.28478049948E+02 -0.18542325502E+02 -0.20514235709E+01  0.34300115196E+02  0.41800000000E+01 0.  1.
        -11    1    1    2    0    0 -0.57707849372E+02 -0.39304124627E+02 -0.32004746014E+02  0.76806990952E+02  0.00000000000E+00 0. -1.
         11    1    1    2    0    0  0.23217882691E+02 -0.62817539675E+00  0.18848395397E+02  0.29911982382E+02  0.00000000000E+00 0.  1.
</event>
<event>
 7    1  0.2380582E-009  0.2039872E+03  0.7561462E-02  0.1146418E+00
          1   -1    0    0  501    0  0.00000000000E+00  0.00000000000E+00  0.36727349575E+03  0.36727349575E+03  0.00000000000E+00 0. -1.
         -1   -1    0    0    0  501 -0.00000000000E+00 -0.00000000000E+00 -0.14513190148E+03  0.14513190148E+03  0.00000000000E+00 0.  1.
         25    2    1    2    0    0  0.19385490059E+03 -0.81000534617E+01  0.38412738076E+02  0.23402616837E+03  0.12508947072E+03 0.  0.
          5    1    3    3  502    0  0.75065500352E+02 -0.45714353437E+02  0.61344098272E+02  0.10726230580E+03  0.41800000000E+01 0.  1.
         -5    1    3    3    0  502  0.11878940024E+03  0.37614299975E+02 -0.22931360196E+02  0.12676386257E+03  0.41800000000E+01 0.  1.
        -11    1    1    2    0    0 -0.11925427109E+03 -0.59409716553E+01  0.61026040119E+02  0.13409345208E+03  0.00000000000E+00 0. -1.
         11    1    1    2    0    0 -0.74600629502E+02  0.14041025117E+02  0.12270281607E+03  0.14428577678E+03  0.00000000000E+00 0.  1.
</event>
<event>
 7    1  0.2380582E-009  0.1290959E+03  0.7561462E-02  0.1228803E+00
         -1   -1    0    0    0  501 -0.00000000000E+00  0.00000000000E+00  0.27172052537E+03  0.27172052537E+03  0.00000000000E+00 0.  1.
          1   -1    0    0  501    0  0.00000000000E+00 -0.00000000000E+00 -0.12419492408E+03  0.12419492408E+03  0.00000000000E+00 0. -1.
         25    2    1    2    0    0 -0.16842831654E+02 -0.88718786961E+02 -0.48133345331E+02  0.16161597160E+03  0.12509276241E+03 0.  0.
          5    1    3    3  502    0 -0.68018716035E+02 -0.67424065867E+02 -0.15361265065E+02  0.97087544276E+02  0.41800000000E+01 0.  1.
         -5    1    3    3    0  502  0.51175884380E+02 -0.21294721094E+02 -0.32772080266E+02  0.64528427329E+02  0.41800000000E+01 0.  1.
        -11    1    1    2    0    0 -0.15489771624E+02  0.64524148224E+02  0.17847644459E+03  0.19041307729E+03  0.00000000000E+00 0.  1.
         11    1    1    2    0    0  0.32332603278E+02  0.24194638737E+02  0.17182502026E+02  0.43886400561E+02  0.00000000000E+00 0. -1.
</event>
<event>
 7    1  0.2380582E-009  0.2126099E+03  0.7561462E-02  0.1139516E+00
         -1   -1    0    0    0  501 -0.00000000000E+00  0.00000000000E+00  0.62985383923E+02  0.62985383923E+02  0.00000000000E+00 0.  1.
          1   -1    0    0  501    0  0.00000000000E+00 -0.00000000000E+00 -0.13725005502E+04  0.13725005502E+04  0.00000000000E+00 0. -1.
         25    2    1    2    0    0 -0.14962595946E+03 -0.13947849413E+03 -0.11110562725E+04  0.11366337769E+04  0.12509246208E+03 0.  0.
          5    1    3    3  502    0 -0.13100345079E+01 -0.63353220050E+01 -0.34427910704E+03  0.34436525441E+03  0.41800000000E+01 0. -1.
         -5    1    3    3    0  502 -0.14831592495E+03 -0.13314317213E+03 -0.76677716550E+03  0.79226852254E+03  0.41800000000E+01 0. -1.
        -11    1    1    2    0    0  0.20954030805E+02  0.67606005960E+02 -0.35679367573E+02  0.79263236871E+02  0.00000000000E+00 0. -1.
         11    1    1    2    0    0  0.12867192865E+03  0.71872488172E+02 -0.16277952612E+03  0.21958892026E+03  0.00000000000E+00 0.  1.
</event>
<event>
 7    1  0.2380582E-009  0.9857140E+02  0.7561462E-02  0.1283329E+00
          1   -1    0    0  501    0  0.00000000000E+00  0.00000000000E+00  0.94934375449E+02  0.94934375449E+02  0.00000000000E+00 0. -1.
         -1   -1    0    0    0  501 -0.00000000000E+00 -0.00000000000E+00 -0.13811112819E+03  0.13811112819E+03  0.00000000000E+00 0.  1.
         25    2    1    2    0    0  0.25686653590E+02 -0.49397933748E+01 -0.62716581603E+01  0.12795008871E+03  0.12509071018E+03 0.  0.
          5    1    3    3  502    0 -0.45984014086E+02  0.10945504975E+02 -0.22707807862E+02  0.52606563930E+02  0.41800000000E+01 0.  1.
         -5    1    3    3    0  502  0.71670667676E+02 -0.15885298350E+02  0.16436149702E+02  0.75343524777E+02  0.41800000000E+01 0.  1.
        -11    1    1    2    0    0 -0.18971588288E+02 -0.32765792228E+02  0.14884877478E+02  0.40682648391E+02  0.00000000000E+00 0. -1.
         11    1    1    2    0    0 -0.67150653012E+01  0.37705585603E+02 -0.51789972059E+02  0.64412766541E+02  0.00000000000E+00 0.  1.
</event>
<event>
 7    1  0.2394002E-009  0.9891775E+02  0.7561462E-02  0.1282588E+00
         -2   -1    0    0    0  501 -0.00000000000E+00  0.00000000000E+00  0.46284512163E+02  0.46284512163E+02  0.00000000000E+00 0.  1.
          2   -1    0    0  501    0  0.00000000000E+00 -0.00000000000E+00 -0.34130301379E+03  0.34130301379E+03  0.00000000000E+00 0. -1.
         25    2    1    2    0    0  0.76133397543E+01 -0.24070687720E+01 -0.26390667055E+03  0.29216072756E+03  0.12508958010E+03 0.  0.
          5    1    3    3  502    0  0.12186214412E+01 -0.54982030027E+02 -0.20736955168E+03  0.21457891795E+03  0.41800000000E+01 0.  1.
         -5    1    3    3    0  502  0.63947183131E+01  0.52574961255E+02 -0.56537118864E+02  0.77581809612E+02  0.41800000000E+01 0.  1.
        -11    1    1    2    0    0  0.10493362252E+01 -0.43159132245E+02 -0.20757027156E+02  0.47902671941E+02  0.00000000000E+00 0.  1.
         11    1    1    2    0    0 -0.86626759795E+01  0.45566201017E+02 -0.10354803923E+02  0.47524126447E+02  0.00000000000E+00 0. -1.
</event>
<event>
 7    1  0.2380582E-009  0.1048267E+03  0.7561462E-02  0.1270462E+00
          1   -1    0    0  501    0  0.00000000000E+00  0.00000000000E+00  0.10949923788E+03  0.10949923788E+03  0.00000000000E+00 0. -1.
         -1   -1    0    0    0  501 -0.00000000000E+00 -0.00000000000E+00 -0.17457936893E+03  0.17457936893E+03  0.00000000000E+00 0.  1.
         25    2    1    2    0    0  0.45986002151E+02  0.66029198638E+02 -0.63364819919E+02  0.16166853776E+03  0.12508816184E+03 0.  0.
          5    1    3    3  502    0  0.65502003408E+02  0.42386817532E+02  0.13061900917E+02  0.79216415007E+02  0.41800000000E+01 0. -1.
         -5    1    3    3    0  502 -0.19516001257E+02  0.23642381106E+02 -0.76426720836E+02  0.82452122757E+02  0.41800000000E+01 0. -1.
        -11    1    1    2    0    0 -0.41116940836E+02 -0.74339343306E+01 -0.35298544213E+02  0.54697837497E+02  0.00000000000E+00 0.  1.
         11    1    1    2    0    0 -0.48690613152E+01 -0.58595264308E+02  0.33583233084E+02  0.67712231552E+02  0.00000000000E+00 0. -1.
</event>
<event>
 7    1  0.2380582E-009  0.1020114E+03  0.7561462E-02  0.1276122E+00
          1   -1    0    0  501    0  0.00000000000E+00  0.00000000000E+00  0.28989341991E+03  0.28989341991E+03  0.00000000000E+00 0. -1.
         -1   -1    0    0    0  501 -0.00000000000E+00 -0.00000000000E+00 -0.41232051400E+02  0.41232051400E+02  0.00000000000E+00 0.  1.
         25    2    1    2    0    0  0.18058730338E+02  0.30517470297E+01  0.13193514731E+03  0.18272868901E+03  0.12508980689E+03 0.  0.
          5    1    3    3  502    0 -0.23766590488E+02 -0.44666748497E+02  0.98663218940E+02  0.11095887714E+03  0.41800000000E+01 0.  1.
         -5    1    3    3    0  502  0.41825320825E+02  0.47718495526E+02  0.33271928374E+02  0.71769811865E+02  0.41800000000E+01 0.  1.
        -11    1    1    2    0    0  0.12607275013E+02  0.37074839412E+02  0.36107782213E+02  0.53265927543E+02  0.00000000000E+00 0.  1.
         11    1    1    2    0    0 -0.30666005350E+02 -0.40126586442E+02  0.80618438987E+02  0.95130854765E+02  0.00000000000E+00 0. -1.
</event>
<event>
 7    1  0.2380582E-009  0.1295175E+03  0.7561462E-02  0.1228174E+00
         -1   -1    0    0    0  501 -0.00000000000E+00  0.00000000000E+00  0.51275312556E+02  0.51275312556E+02  0.00000000000E+00 0. -1.
          1   -1    0    0  501    0  0.00000000000E+00 -0.00000000000E+00 -0.33491564100E+03  0.33491564100E+03  0.00000000000E+00 0.  1.
         25    2    1    2    0    0 -0.69462324745E+02 -0.19694809156E+02 -0.13456671057E+03  0.19740373873E+03  0.12508851428E+03 0.  0.
          5    1    3    3  502    0  0.26904165171E+01 -0.60826938274E+02 -0.51350499313E+02  0.79759017926E+02  0.41800000000E+01 0. -1.
         -5    1    3    3    0  502 -0.72152741262E+02  0.41132129118E+02 -0.83216211254E+02  0.11764472080E+03  0.41800000000E+01 0. -1.
        -11    1    1    2    0    0  0.68992806840E+02  0.49578654530E+02 -0.12049491104E+03  0.14743498217E+03  0.00000000000E+00 0. -1.
         11    1    1    2    0    0  0.46951790479E+00 -0.29883845374E+02 -0.28578706840E+02  0.41352232661E+02  0.00000000000E+00 0.  1.
</event>
<event>
 7    1  0.2452341E-009  0.1213665E+03  0.7561462E-02  0.1240860E+00
          1   -1    0    0  501    0  0.00000000000E+00  0.00000000000E+00  0.47383502405E+03  0.47383502405E+03  0.00000000000E+00 0. -1.
         -1   -1    0    0    0  501 -0.00000000000E+00 -0.00000000000E+00 -0.42235618138E+02  0.42235618138E+02  0.00000000000E+00 0.  1.
         25    2    1    2    0    0  0.84552189566E+02 -0.29720019670E+02  0.26743671969E+03  0.30854858430E+03  0.12508987771E+03 0.  0.
          5    1    3    3  502    0  0.64867715087E+02 -0.58055139556E+02  0.81270575877E+02  0.11916626449E+03  0.41800000000E+01 0.  1.
         -5    1    3    3    0  502  0.19684474479E+02  0.28335119886E+02  0.18616614381E+03  0.18938231981E+03  0.41800000000E+01 0.  1.
        -11    1    1    2    0    0 -0.64500810118E+02 -0.19741751544E+02  0.59108506129E+02  0.89687829480E+02  0.00000000000E+00 0. -1.
         11    1    1    2    0    0 -0.20051379448E+02  0.49461771214E+02  0.10505418009E+03  0.11783422841E+03  0.00000000000E+00 0.  1.
</event>
<event>
 7    1  0.2380582E-009  0.1539428E+03  0.7561462E-02  0.1195710E+00
         -1   -1    0    0    0  501 -0.00000000000E+00  0.00000000000E+00  0.25494545589E+02  0.25494545589E+02  0.00000000000E+00 0.  1.
          1   -1    0    0  501    0  0.00000000000E+00 -0.00000000000E+00 -0.12563886483E+04  0.12563886483E+04  0.00000000000E+00 0. -1.
         25    2    1    2    0    0 -0.57404720267E+02 -0.12415468633E+03 -0.73748476030E+03  0.76042151941E+03  0.12508967766E+03 0.  0.
          5    1    3    3  502    0 -0.63245025497E+02 -0.79687548728E+02 -0.67904920056E+03  0.68664061040E+03  0.41800000000E+01 0.  1.
         -5    1    3    3    0  502  0.58403052298E+01 -0.44467137598E+02 -0.58435559737E+02  0.73780909002E+02  0.41800000000E+01 0.  1.
        -11    1    1    2    0    0  0.50140711836E+02  0.16012737978E+02 -0.95384989261E+02  0.10894399909E+03  0.00000000000E+00 0. -1.
         11    1    1    2    0    0  0.72640084309E+01  0.10814194835E+03 -0.39802435313E+03  0.41251767537E+03  0.00000000000E+00 0.  1.
</event>
<event>
 7    1  0.2380582E-009  0.1077091E+03  0.7561462E-02  0.1264872E+00
          2   -1    0    0  501    0  0.00000000000E+00  0.00000000000E+00  0.11686441567E+03  0.11686441567E+03  0.00000000000E+00 0. -1.
         -2   -1    0    0    0  501 -0.00000000000E+00 -0.00000000000E+00 -0.25087853625E+03  0.25087853625E+03  0.00000000000E+00 0.  1.
         25    2    1    2    0    0 -0.13710486380E+02  0.72113599726E+02 -0.17383961641E+03  0.22639490187E+03  0.12508433418E+03 0.  0.
          5    1    3    3  502    0  0.37873493442E+02  0.75241838694E+02 -0.14314248807E+03  0.16614144602E+03  0.41800000000E+01 0. -1.
         -5    1    3    3    0  502 -0.51583979822E+02 -0.31282389688E+01 -0.30697128348E+02  0.60253455852E+02  0.41800000000E+01 0. -1.
        -11    1    1    2    0    0  0.17607469682E+02 -0.18735499120E+02 -0.38613252759E+02  0.46389925679E+02  0.00000000000E+00 0.  1.
         11    1    1    2    0    0 -0.38969833020E+01 -0.53378100606E+02  0.78438748596E+02  0.94958124373E+02  0.00000000000E+00 0. -1.
</event>
<event>
 7    1  0.2380582E-009  0.8909723E+02  0.7561462E-02  0.1305053E+00
         -1   -1    0    0    0  501 -0.00000000000E+00  0.00000000000E+00  0.23118959120E+03  0.23118959120E+03  0.00000000000E+00 0.  1.
          1   -1    0    0  501    0  0.00000000000E+00 -0.00000000000E+00 -0.74424253564E+02  0.74424253564E+02  0.00000000000E+00 0. -1.
         25    2    1    2    0    0  0.48195026822E+02  0.43680535636E+02  0.46820028189E+02  0.14856019614E+03  0.12508903643E+03 0.  0.
          5    1    3    3  502    0  0.44432152044E+02  0.41432671060E+02  0.87956676237E+02  0.10698005263E+03  0.41800000000E+01 0. -1.
         -5    1    3    3    0  502  0.37628747781E+01  0.22478645767E+01 -0.41136648048E+02  0.41580143510E+02  0.41800000000E+01 0. -1.
        -11    1    1    2    0    0 -0.70292572549E+02 -0.10059591127E+02  0.60337261982E+02  0.93181684427E+02  0.00000000000E+00 0.  1.
         11    1    1    2    0    0  0.22097545727E+02 -0.33620944510E+02  0.49608047460E+02  0.63871964192E+02  0.00000000000E+00 0. -1.
</event>
<event>
 7    1  0.2380582E-009  0.2354558E+03  0.7561462E-02  0.1122858E+00
          3   -1    0    0  501    0  0.00000000000E+00  0.00000000000E+00  0.17891065616E+04  0.17891065616E+04  0.00000000000E+00 0. -1.
         -3   -1    0    0    0  501 -0.00000000000E+00 -0.00000000000E+00 -0.34226447718E+02  0.34226447718E+02  0.00000000000E+00 0.  1.
         25    2    1    2    0    0 -0.83315635721E+02  0.20367484546E+03  0.80095186369E+03  0.83999681580E+03  0.12508327132E+03 0.  0.
          5    1    3    3  502    0 -0.98066745324E+02  0.21161807757E+03  0.76993048839E+03  0.80449345966E+03  0.41800000000E+01 0. -1.
         -5    1    3    3    0  502  0.14751109603E+02 -0.79432321060E+01  0.31021375308E+02  0.35503356134E+02  0.41800000000E+01 0. -1.
        -11    1    1    2    0    0  0.16540557854E+02 -0.53976939608E+02  0.11004720191E+03  0.12368300898E+03  0.00000000000E+00 0.  1.
         11    1    1    2    0    0  0.66775077867E+02 -0.14969790585E+03  0.84388104833E+03  0.85965318459E+03  0.00000000000E+00 0. -1.
</event>
<event>
 7    1  0.2380582E-009  0.1211161E+03  0.7561462E-02  0.1241267E+00
          1   -1    0    0  501    0  0.00000000000E+00  0.00000000000E+00  0.10241269670E+03  0.10241269670E+03  0.00000000000E+00 0. -1.
         -1   -1    0    0    0  501 -0.00000000000E+00 -0.00000000000E+00 -0.20058465797E+03  0.20058465797E+03  0.00000000000E+00 0.  1.
         25    2    1    2    0    0  0.39884580956E+02  0.35420388485E+01  0.10674642747E+02  0.13177992650E+03  0.12509466492E+03 0.  0.
          5    1    3    3  502    0 -0.38428687687E+02 -0.34487202217E+01 -0.24125473219E+02  0.45696483088E+02  0.41800000000E+01 0.  1.
         -5    1    3    3    0  502  0.78313268644E+02  0.69907590701E+01  0.34800115966E+02  0.86083443410E+02  0.41800000000E+01 0.  1.
        -11    1    1    2    0    0 -0.74508330836E+02 -0.30798431643E+02 -0.95906080710E+02  0.12529170393E+03  0.00000000000E+00 0.  1.
         11    1    1    2    0    0  0.34623749880E+02  0.27256392795E+02 -0.12940523302E+02  0.45925724243E+02  0.00000000000E+00 0. -1.
</event>
<event>
 7    1  0.2380582E-009  0.8376006E+02  0.7561462E-02  0.1318707E+00
         -2   -1    0    0    0  501 -0.00000000000E+00  0.00000000000E+00  0.13239375806E+03  0.13239375806E+03  0.00000000000E+00 0. -1.
          2   -1    0    0  501    0  0.00000000000E+00 -0.00000000000E+00 -0.11868695987E+03  0.11868695987E+03  0.00000000000E+00 0.  1.
         25    2    1    2    0    0 -0.15802087869E+02 -0.59370421306E+02  0.24320466126E+02  0.14147011676E+03  0.12509099071E+03 0.  0.
          5    1    3    3  502    0  0.30313029926E+01 -0.51163198178E+02 -0.45442712047E+02  0.68624879773E+02  0.41800000000E+01 0. -1.
         -5    1    3    3    0  502 -0.18833390861E+02 -0.82072231280E+01  0.69763178174E+02  0.72845236987E+02  0.41800000000E+01 0. -1.
        -11    1    1    2    0    0 -0.22993948185E+02  0.50275560577E+02 -0.32518492960E+02  0.64138958744E+02  0.00000000000E+00 0.  1.
         11    1    1    2    0    0  0.38796036054E+02  0.90948607290E+01  0.21904825031E+02  0.45471642424E+02  0.00000000000E+00 0. -1.
</event>
<event>
 7    1  0.2422864E-009  0.9131072E+02  0.7561462E-02  0.1299708E+00
         -2   -1    0    0    0  501 -0.00000000000E+00  0.00000000000E+00  0.30376263484E+02  0.30376263484E+02  0.00000000000E+00 0.  1.
          2   -1    0    0  501    0  0.00000000000E+00 -0.00000000000E+00 -0.45802582192E+03  0.45802582192E+03  0.00000000000E+00 0. -1.
         25    2    1    2    0    0  0.13829533935E+02 -0.39046355034E+02 -0.19978999288E+03  0.23933391099E+03  0.12509518713E+03 0.  0.
          5    1    3    3  502    0 -0.27998409489E+02 -0.25788444514E+02 -0.38381268826E+01  0.38485821056E+02  0.41800000000E+01 0. -1.
         -5    1    3    3    0  502  0.41827943424E+02 -0.13257910520E+02 -0.19595186599E+03  0.20084808993E+03  0.41800000000E+01 0. -1.
        -11    1    1    2    0    0 -0.58983349844E+01  0.69006371822E+02 -0.14791288600E+03  0.16332449771E+03  0.00000000000E+00 0.  1.
         11    1    1    2    0    0 -0.79311989502E+01 -0.29960016788E+02 -0.79946679563E+02  0.85743676711E+02  0.00000000000E+00 0. -1.
</event>
<event>
 7    1  0.2380582E-009  0.1506871E+03  0.7561462E-02  0.1199631E+00
          1   -1    0    0  501    0  0.00000000000E+00  0.00000000000E+00  0.12300580126E+04  0.12300580126E+04  0.00000000000E+00 0. -1.
         -1   -1    0    0    0  501 -0.00000000000E+00 -0.00000000000E+00 -0.51030620033E+02  0.51030620033E+02  0.00000000000E+00 0.  1.
         25    2    1    2    0    0  0.11443354048E+03 -0.23320260311E+02  0.10914870141E+04  0.11048212507E+04  0.12508886576E+03 0.  0.
          5    1    3    3  502    0 -0.37338839740E+00 -0.38153358861E+02  0.10963754328E+03  0.11616230674E+03  0.41800000000E+01 0. -1.
         -5    1    3    3    0  502  0.11480692888E+03  0.14833098550E+02  0.98184947086E+03  0.98865894400E+03  0.41800000000E+01 0. -1.
        -11    1    1    2    0    0 -0.23971627400E+02  0.47769109128E+02  0.55957488776E+02  0.77380664622E+02  0.00000000000E+00 0.  1.
         11    1    1    2    0    0 -0.90461913081E+02 -0.24448848818E+02  0.31582889605E+02  0.98886717220E+02  0.00000000000E+00 0. -1.
</event>
<event>
 7    1  0.2380582E-009  0.1416060E+03  0.7561462E-02  0.1211184E+00
          2   -1    0    0  501    0  0.00000000000E+00  0.00000000000E+00  0.85549490321E+03  0.85549490321E+03  0.00000000000E+00 0. -1.
         -2   -1    0    0    0  501 -0.00000000000E+00 -0.00000000000E+00 -0.31836607470E+02  0.31836607470E+02  0.00000000000E+00 0.  1.
         25    2    1    2    0    0  0.38856170534E+02  0.11487544681E+03  0.45804137611E+03  0.49005651890E+03  0.12508924500E+03 0.  0.
          5    1    3    3  502    0  0.65394386709E+02  0.51718531390E+02  0.12702808857E+03  0.15200276309E+03  0.41800000000E+01 0.  1.
         -5    1    3    3    0  502 -0.26538216176E+02  0.63156915421E+02  0.33101328754E+03  0.33805375580E+03  0.41800000000E+01 0.  1.
        -11    1    1    2    0    0 -0.69494796365E+01 -0.90960086510E+02  0.13308791037E+03  0.16135186548E+03  0.00000000000E+00 0.  1.
         11    1    1    2    0    0 -0.31906690897E+02 -0.23915360300E+02  0.23252900926E+03  0.23592312631E+03  0.00000000000E+00 0. -1.
</event>
<event>
 7    1  0.2380582E-009  0.1793721E+03  0.7561462E-02  0.1168412E+00
          2   -1    0    0  501    0  0.00000000000E+00  0.00000000000E+00  0.32363896436E+03  0.32363896436E+03  0.00000000000E+00 0. -1.
         -2   -1    0    0    0  501 -0.00000000000E+00 -0.00000000000E+00 -0.23673327013E+03  0.23673327013E+03  0.00000000000E+00 0.  1.
         25    2    1    2    0    0  0.16032594145E+03  0.25992784810E+02 -0.15361105543E+03  0.25617009147E+03  0.12508687801E+03 0.  0.
          5    1    3    3  502    0  0.25698874570E+02  0.47023622821E+02 -0.42019684868E+01  0.53914582411E+02  0.41800000000E+01 0.  1.
         -5    1    3    3    0  502  0.13462706688E+03 -0.21030838010E+02 -0.14940908694E+03  0.20225550906E+03  0.41800000000E+01 0.  1.
        -11    1    1    2    0    0 -0.36292019742E+02 -0.25985287615E+02  0.13219282883E+03  0.13952523021E+03  0.00000000000E+00 0. -1.
         11    1    1    2    0    0 -0.12403392171E+03 -0.74971955279E-02  0.10832392082E+03  0.16467691281E+03  0.00000000000E+00 0.  1.
</event>
<event>
 7    1  0.2380582E-009  0.9717498E+02  0.7561462E-02  0.1286351E+00
          1   -1    0    0  501    0  0.00000000000E+00  0.00000000000E+00  0.92529174399E+02  0.92529174399E+02  0.00000000000E+00 0. -1.
         -1   -1    0    0    0  501 -0.00000000000E+00 -0.00000000000E+00 -0.18484614461E+03  0.18484614461E+03  0.00000000000E+00 0.  1.
         25    2    1    2    0    0  0.34632277456E+02 -0.95869346668E+01  0.15206147358E+02  0.13103351924E+03  0.12508897749E+03 0.  0.
          5    1    3    3  502    0  0.49501408112E+02 -0.44505449409E+02 -0.28905730299E+02  0.72692077121E+02  0.41800000000E+01 0. -1.
         -5    1    3    3    0  502 -0.14869130655E+02  0.34918514742E+02  0.44111877656E+02  0.58341442119E+02  0.41800000000E+01 0. -1.
        -11    1    1    2    0    0  0.19826803140E+02  0.25902421123E+02 -0.11191974352E+02  0.34486197713E+02  0.00000000000E+00 0.  1.
         11    1    1    2    0    0 -0.54459080596E+02 -0.16315486456E+02 -0.96331143214E+02  0.11185560205E+03  0.00000000000E+00 0. -1.
</event>
<event>
 7    1  0.2380582E-009  0.3935914E+03  0.7561462E-02  0.1046022E+00
         -2   -1    0    0    0  501 -0.00000000000E+00  0.00000000000E+00  0.15778718046E+03  0.15778718046E+03  0.00000000000E+00 0.  1.
          2   -1    0    0  501    0  0.00000000000E+00 -0.00000000000E+00 -0.12277098715E+04  0.12277098715E+04  0.00000000000E+00 0. -1.
         25    2    1    2    0    0  0.51160939012E+02 -0.38194403681E+03 -0.82758242466E+03  0.92143343189E+03  0.12509280902E+03 0.  0.
          5    1    3    3  502    0 -0.89207192542E+01 -0.47579518943E+01 -0.91466787215E+02  0.92118743487E+02  0.41800000000E+01 0. -1.
         -5    1    3    3    0  502  0.60081658266E+02 -0.37718608492E+03 -0.73611563744E+03  0.82931468840E+03  0.41800000000E+01 0. -1.
        -11    1    1    2    0    0  0.12819025618E+02  0.21672805788E+03 -0.15331013293E+03  0.26578069032E+03  0.00000000000E+00 0.  1.
         11    1    1    2    0    0 -0.63979964630E+02  0.16521597894E+03 -0.89030133457E+02  0.19828292976E+03  0.00000000000E+00 0. -1.
</event>
<event>
 7    1  0.2380582E-009  0.1288379E+03  0.7561462E-02  0.1229190E+00
          2   -1    0    0  501    0  0.00000000000E+00  0.00000000000E+00  0.58174146053E+03  0.58174146053E+03  0.00000000000E+00 0. -1.
         -2   -1    0    0    0  501 -0.00000000000E+00 -0.00000000000E+00 -0.36283549871E+02  0.36283549871E+02  0.00000000000E+00 0.  1.
         25    2    1    2    0    0 -0.69928796077E+02 -0.38427060569E+02  0.43290176022E+03  0.45762195289E+03  0.12508893743E+03 0.  0.
          5    1    3    3  502    0 -0.95708778107E+02  0.44612859358E+01  0.24430343397E+03  0.26245325971E+03  0.41800000000E+01 0.  1.
         -5    1    3    3    0  502  0.25779982030E+02 -0.42888346505E+02  0.18859832624E+03  0.19516869319E+03  0.41800000000E+01 0.  1.
        -11    1    1    2    0    0  0.84170078812E+02  0.45473323534E+02  0.82165775658E+02  0.12610963488E+03  0.00000000000E+00 0.  1.
         11    1    1    2    0    0 -0.14241282735E+02 -0.70462629646E+01  0.30390374781E+02  0.34293422621E+02  0.00000000000E+00 0. -1.
</event>
<event>
 7    1  0.2380582E-009  0.9722769E+02  0.7561462E-02  0.1286236E+00
         -3   -1    0    0    0  501 -0.00000000000E+00  0.00000000000E+00  0.30221003186E+03  0.30221003186E+03  0.00000000000E+00 0.  1.
          3   -1    0    0  501    0  0.00000000000E+00 -0.00000000000E+00 -0.44789115508E+02  0.44789115508E+02  0.00000000000E+00 0. -1.
         25    2    1    2    0    0 -0.11394684366E+02  0.20218270433E+02  0.20908230484E+03  0.24474440759E+03  0.12508316257E+03 0.  0.
          5    1    3    3  502    0  0.10385152985E+02  0.59104950500E+02  0.18366567113E+03  0.19326613187E+03  0.41800000000E+01 0.  1.
         -5    1    3    3    0  502 -0.21779837351E+02 -0.38886680067E+02  0.25416633706E+02  0.51478275715E+02  0.41800000000E+01 0.  1.
        -11    1    1    2    0    0 -0.13177991823E+02 -0.49548034429E+02  0.33338969489E+02  0.61156799057E+02  0.00000000000E+00 0. -1.
         11    1    1    2    0    0  0.24572676189E+02  0.29329763996E+02  0.14999642031E+02  0.41097940729E+02  0.00000000000E+00 0.  1.
</event>
<event>
 7    1  0.2380582E-009  0.1111175E+03  0.7561462E-02  0.1258514E+00
          2   -1    0    0  501    0  0.00000000000E+00  0.00000000000E+00  0.16103627974E+03  0.16103627974E+03  0.00000000000E+00 0.  1.
         -2   -1    0    0    0  501 -0.00000000000E+00 -0.00000000000E+00 -0.11279684151E+03  0.11279684151E+03  0.00000000000E+00 0. -1.
         25    2    1    2    0    0 -0.45053551918E+02 -0.58009148670E+02 -0.68501603797E+01  0.14522078167E+03  0.12508903573E+03 0.  0.
          5    1    3    3  502    0  0.27392016728E+02  0.14906766820E+02  0.21985138299E+02  0.38384280422E+02  0.41800000000E+01 0.  1.
         -5    1    3    3    0  502 -0.72445568646E+02 -0.72915915490E+02 -0.28835298678E+02  0.10683650124E+03  0.41800000000E+01 0.  1.
        -11    1    1    2    0    0 -0.10427893264E+02  0.72411993137E+01  0.51804096862E+02  0.53337045073E+02  0.00000000000E+00 0.  1.
         11    1    1    2    0    0  0.55481445182E+02  0.50767949357E+02  0.32855017467E+01  0.75275294506E+02  0.00000000000E+00 0. -1.
</event>
<event>
 7    1  0.2380582E-009  0.1081179E+03  0.7561462E-02  0.1264096E+00
          1   -1    0    0  501    0  0.00000000000E+00  0.00000000000E+00  0.68868085810E+03  0.68868085810E+03  0.00000000000E+00 0. -1.
         -1   -1    0    0    0  501 -0.00000000000E+00 -0.00000000000E+00 -0.29120588978E+02  0.29120588978E+02  0.00000000000E+00 0.  1.
         25    2    1    2    0    0  0.91193107000E+02 -0.84353390279E+00  0.35335467884E+03  0.38577683836E+03  0.12508935064E+03 0.  0.
          5    1    3    3  502    0  0.85638669485E+02  0.16546874855E+02  0.35627668219E+03  0.36682192880E+03  0.41800000000E+01 0.  1.
         -5    1    3    3    0  502  0.55544375142E+01 -0.17390408758E+02 -0.29220033458E+01  0.18954909560E+02  0.41800000000E+01 0.  1.
        -11    1    1    2    0    0 -0.91465646406E+00 -0.17947949166E+02  0.76130207727E+01  0.19517263153E+02  0.00000000000E+00 0.  1.
         11    1    1    2    0    0 -0.90278450536E+02  0.18791483068E+02  0.29859256951E+03  0.31250734557E+03  0.00000000000E+00 0. -1.
</event>
<event>
 7    1  0.2513211E-009  0.1931965E+03  0.7561462E-02  0.1155610E+00
         -1   -1    0    0    0  501 -0.00000000000E+00  0.00000000000E+00  0.61779670863E+02  0.61779670863E+02  0.00000000000E+00 0.  1.
          1   -1    0    0  501    0  0.00000000000E+00 -0.00000000000E+00 -0.77543704587E+03  0.77543704587E+03  0.00000000000E+00 0. -1.
         25    2    1    2    0    0 -0.96458719863E+02  0.14772776240E+03 -0.23690603423E+03  0.32078471393E+03  0.12510230699E+03 0.  0.
          5    1    3    3  502    0 -0.32042428090E+01  0.63933840126E+02 -0.16305245459E+03  0.17521808820E+03  0.41800000000E+01 0. -1.
         -5    1    3    3    0  502 -0.93254477054E+02  0.83793922275E+02 -0.73853579649E+02  0.14556662573E+03  0.41800000000E+01 0. -1.
        -11    1    1    2    0    0  0.33689273856E+02 -0.12592547340E+03 -0.34653894735E+03  0.37024509997E+03  0.00000000000E+00 0. -1.
         11    1    1    2    0    0  0.62769446007E+02 -0.21802289000E+02 -0.13021239343E+03  0.14618690283E+03  0.00000000000E+00 0.  1.
</event>
<event>
 7    1  0.2380582E-009  0.1100584E+03  0.7561462E-02  0.1260462E+00
          1   -1    0    0  501    0  0.00000000000E+00  0.00000000000E+00  0.26944548685E+03  0.26944548685E+03  0.00000000000E+00 0. -1.
         -1   -1    0    0    0  501 -0.00000000000E+00 -0.00000000000E+00 -0.49449522508E+02  0.49449522508E+02  0.00000000000E+00 0.  1.
         25    2    1    2    0    0 -0.18472621205E+01  0.22354227158E+02  0.17167742256E+03  0.21359764697E+03  0.12509074117E+03 0.  0.
          5    1    3    3  502    0  0.58180050425E+02 -0.93103048954E+01  0.77829727339E+02  0.97706391308E+02  0.41800000000E+01 0. -1.
         -5    1    3    3    0  502 -0.60027312546E+02  0.31664532054E+02  0.93847695217E+02  0.11589125566E+03  0.41800000000E+01 0. -1.
        -11    1    1    2    0    0  0.99087781446E+00  0.35339224805E+02  0.13121429892E+02  0.37709608472E+02  0.00000000000E+00 0.  1.
         11    1    1    2    0    0  0.85638430608E+00 -0.57693451963E+02  0.35197111889E+02  0.67587753912E+02  0.00000000000E+00 0. -1.
</event>
<event>
 7    1  0.2380582E-009  0.9326748E+02  0.7561462E-02  0.1295127E+00
         -2   -1    0    0    0  501 -0.00000000000E+00  0.00000000000E+00  0.61694725212E+02  0.61694725212E+02  0.00000000000E+00 0.  1.
          2   -1    0    0  501    0  0.00000000000E+00 -0.00000000000E+00 -0.30278305209E+03  0.30278305209E+03  0.00000000000E+00 0. -1.
         25    2    1    2    0    0 -0.40774565804E+02 -0.17359482315E+02 -0.22657144858E+03  0.26257590592E+03  0.12509024027E+03 0.  0.
          5    1    3    3  502    0 -0.31218414688E+01 -0.63993196653E+02 -0.16258056059E+03  0.17479927401E+03  0.41800000000E+01 0. -1.
         -5    1    3    3    0  502 -0.37652724336E+02  0.46633714338E+02 -0.63990887993E+02  0.87776631908E+02  0.41800000000E+01 0. -1.
        -11    1    1    2    0    0  0.21326282205E+02  0.31613636371E+02  0.31820178249E+02  0.49666448041E+02  0.00000000000E+00 0.  1.
         11    1    1    2    0    0  0.19448283600E+02 -0.14254154056E+02 -0.46337056541E+02  0.52235423342E+02  0.00000000000E+00 0. -1.
</event>
<event>
 7    1  0.2380582E-009  0.8970115E+02  0.7561462E-02  0.1303577E+00
         -2   -1    0    0    0  501 -0.00000000000E+00  0.00000000000E+00  0.23823137330E+02  0.23823137330E+02  0.00000000000E+00 0.  1.
          2   -1    0    0  501    0  0.00000000000E+00 -0.00000000000E+00 -0.67292606596E+03  0.67292606596E+03  0.00000000000E+00 0. -1.
         25    2    1    2    0    0  0.32998515097E+02 -0.10589844744E+02 -0.52683916450E+03  0.54259396850E+03  0.12509061753E+03 0.  0.
          5    1    3    3  502    0 -0.36315962259E+02 -0.14099456185E+02 -0.67700878934E+02  0.78221002218E+02  0.41800000000E+01 0.  1.
         -5    1    3    3    0  502  0.69314477356E+02  0.35096114413E+01 -0.45913828557E+03  0.46437296629E+03  0.41800000000E+01 0.  1.
        -11    1    1    2    0    0 -0.23224273598E+02 -0.24800791997E+02 -0.90859938693E+01  0.35171031438E+02  0.00000000000E+00 0.  1.
         11    1    1    2    0    0 -0.97742414996E+01  0.35390636741E+02 -0.11317777026E+03  0.11898420335E+03  0.00000000000E+00 0. -1.
</event>
<event>
 7    1  0.2380582E-009  0.1059839E+03  0.7561462E-02  0.1268193E+00
         -1   -1    0    0    0  501 -0.00000000000E+00  0.00000000000E+00  0.35655068368E+02  0.35655068368E+02  0.00000000000E+00 0.  1.
          1   -1    0    0  501    0  0.00000000000E+00 -0.00000000000E+00 -0.53133128431E+03  0.53133128431E+03  0.00000000000E+00 0. -1.
         25    2    1    2    0    0 -0.34878323897E+02 -0.53896630795E+02 -0.38164150056E+03  0.40671727089E+03  0.12508940483E+03 0.  0.
          5    1    3    3  502    0 -0.24777199085E+02  0.16928368882E+02 -0.28393524623E+03  0.28554715149E+03  0.41800000000E+01 0. -1.
         -5    1    3    3    0  502 -0.10101124812E+02 -0.70824999678E+02 -0.97706254323E+02  0.12117011940E+03  0.41800000000E+01 0. -1.
        -11    1    1    2    0    0  0.61070556867E+02  0.57115758369E+02 -0.70550405275E+02  0.10940375887E+03  0.00000000000E+00 0.  1.
         11    1    1    2    0    0 -0.26192232970E+02 -0.32191275740E+01 -0.43484310110E+02  0.50865322923E+02  0.00000000000E+00 0. -1.
</event>
<event>
 7    1  0.2380582E-009  0.9472379E+02  0.7561462E-02  0.1291799E+00
          4   -1    0    0  501    0  0.00000000000E+00  0.00000000000E+00  0.81557313440E+03  0.81557313440E+03  0.00000000000E+00 0. -1.
         -4   -1    0    0    0  501 -0.00000000000E+00 -0.00000000000E+00 -0.21031664974E+02  0.21031664974E+02  0.00000000000E+00 0.  1.
         25    2    1    2    0    0 -0.42457631176E+02  0.58211206260E+02  0.45959304416E+03  0.48172899057E+03  0.12508340869E+03 0.  0.
          5    1    3    3  502    0 -0.57447080642E+02  0.25438934497E+02  0.87116529125E+02  0.10748985305E+03  0.41800000000E+01 0.  1.
         -5    1    3    3    0  502  0.14989449466E+02  0.32772271763E+02  0.37247651504E+03  0.37423913751E+03  0.41800000000E+01 0.  1.
        -11    1    1    2    0    0  0.55670057993E+02 -0.47934025574E+02  0.32901457558E+03  0.33711632578E+03  0.00000000000E+00 0. -1.
         11    1    1    2    0    0 -0.13212426817E+02 -0.10277180686E+02  0.59338496830E+01  0.17759483025E+02  0.00000000000E+00 0.  1.
</event>
<event>
 7    1  0.2380582E-009  0.9140271E+02  0.7561462E-02  0.1299490E+00
         -1   -1    0    0    0  501 -0.00000000000E+00  0.00000000000E+00  0.89946337705E+03  0.89946337705E+03  0.00000000000E+00 0.  1.
          1   -1    0    0  501    0  0.00000000000E+00 -0.00000000000E+00 -0.18549989352E+02  0.18549989352E+02  0.00000000000E+00 0. -1.
         25    2    1    2    0    0  0.46222819276E+02 -0.51075500439E+02  0.52571513040E+03  0.54476561844E+03  0.12509166611E+03 0.  0.
          5    1    3    3  502    0  0.40491165727E+02 -0.35450766877E+02  0.52481351598E+03  0.52758221191E+03  0.41800000000E+01 0. -1.
         -5    1    3    3    0  502  0.57316535495E+01 -0.15624733562E+02  0.90161442639E+00  0.17183406527E+02  0.41800000000E+01 0. -1.
        -11    1    1    2    0    0  0.25688085980E+02  0.47443603886E+01  0.51707985884E+02  0.57931878280E+02  0.00000000000E+00 0. -1.
         11    1    1    2    0    0 -0.71910905257E+02  0.46331140051E+02  0.30349027141E+03  0.31531586968E+03  0.00000000000E+00 0.  1.
</event>
<event>
 7    1  0.2380582E-009  0.1346808E+03  0.7561462E-02  0.1220671E+00
         -2   -1    0    0    0  501 -0.00000000000E+00  0.00000000000E+00  0.31908659111E+02  0.31908659111E+02  0.00000000000E+00 0.  1.
          2   -1    0    0  501    0  0.00000000000E+00 -0.00000000000E+00 -0.59948555205E+03  0.59948555205E+03  0.00000000000E+00 0. -1.
         25    2    1    2    0    0  0.17833282729E+01  0.85498138177E+02 -0.32493729796E+03  0.35852940086E+03  0.12508385902E+03 0.  0.
          5    1    3    3  502    0 -0.59946473466E+01 -0.32412942296E+02 -0.67358328307E+02  0.75107598933E+02  0.41800000000E+01 0.  1.
         -5    1    3    3    0  502  0.77779756195E+01  0.11791108047E+03 -0.25757896965E+03  0.28342180193E+03  0.41800000000E+01 0.  1.
        -11    1    1    2    0    0 -0.16911959943E+02 -0.97267157983E+02 -0.22889554851E+03  0.24927913378E+03  0.00000000000E+00 0.  1.
         11    1    1    2    0    0  0.15128631670E+02  0.11769019805E+02 -0.13744046474E+02  0.23585676519E+02  0.00000000000E+00 0. -1.
</event>
<event>
 7    1  0.2380582E-009  0.1234129E+03  0.7561462E-02  0.1237571E+00
         -1   -1    0    0    0  501 -0.00000000000E+00  0.00000000000E+00  0.31365222611E+02  0.31365222611E+02  0.00000000000E+00 0.  1.
          1   -1    0    0  501    0  0.00000000000E+00 -0.00000000000E+00 -0.78318025134E+03  0.78318025134E+03  0.00000000000E+00 0. -1.
         25    2    1    2    0    0  0.75411205529E+02 -0.39442410842E+02 -0.20281908085E+03  0.25303053949E+03  0.12508525359E+03 0.  0.
          5    1    3    3  502    0 -0.16650818561E+02 -0.33070975109E+02 -0.13049154982E+03  0.13570724420E+03  0.41800000000E+01 0. -1.
         -5    1    3    3    0  502  0.92062024090E+02 -0.63714357330E+01 -0.72327531030E+02  0.11732329529E+03  0.41800000000E+01 0. -1.
        -11    1    1    2    0    0 -0.16305567421E+01  0.43276556619E+02 -0.23370422837E+03  0.23768295148E+03  0.00000000000E+00 0.  1.
         11    1    1    2    0    0 -0.73780648787E+02 -0.38341457772E+01 -0.31529171951E+03  0.32383198298E+03  0.00000000000E+00 0. -1.
</event>
<event>
 7    1  0.2380582E-009  0.1277193E+03  0.7561462E-02  0.1230880E+00
          1   -1    0    0  501    0  0.00000000000E+00  0.00000000000E+00  0.13399766316E+03  0.13399766316E+03  0.00000000000E+00 0. -1.
         -1   -1    0    0    0  501 -0.00000000000E+00 -0.00000000000E+00 -0.15647315371E+03  0.15647315371E+03  0.00000000000E+00 0.  1.
         25    2    1    2    0    0 -0.44684553830E+02 -0.20807443440E+02  0.51697712816E+02  0.14404807358E+03  0.12509010727E+03 0.  0.
          5    1    3    3  502    0 -0.47022774613E+01 -0.70271116254E+02  0.30663759821E+02  0.76927756754E+02  0.41800000000E+01 0. -1.
         -5    1    3    3    0  502 -0.39982276368E+02  0.49463672813E+02  0.21033952995E+02  0.67120316823E+02  0.41800000000E+01 0. -1.
        -11    1    1    2    0    0  0.71063103344E+02  0.46015368242E+02 -0.31629191653E+02  0.90375796184E+02  0.00000000000E+00 0. -1.
         11    1    1    2    0    0 -0.26378549514E+02 -0.25207924802E+02 -0.42544011713E+02  0.56046947106E+02  0.00000000000E+00 0.  1.
</event>
<event>
 7    1  0.2380582E-009  0.6779864E+02  0.7561462E-02  0.1367743E+00
          1   -1    0    0  501    0  0.00000000000E+00  0.00000000000E+00  0.32279280244E+03  0.32279280244E+03  0.00000000000E+00 0. -1.
         -1   -1    0    0    0  501 -0.00000000000E+00 -0.00000000000E+00 -0.40292218858E+02  0.40292218858E+02  0.00000000000E+00 0.  1.
         25    2    1    2    0    0 -0.41315197005E+02  0.12289324175E+02  0.19319371982E+03  0.23415421535E+03  0.12508561146E+03 0.  0.
          5    1    3    3  502    0 -0.15408041110E+02  0.58859904053E+01 -0.15920792496E+02  0.23302288463E+02  0.41800000000E+01 0.  1.
         -5    1    3    3    0  502 -0.25907155895E+02  0.64033337694E+01  0.20911451232E+03  0.21085192689E+03  0.41800000000E+01 0.  1.
        -11    1    1    2    0    0 -0.15849086534E+01 -0.40302346967E+02  0.50650868474E+02  0.64747985170E+02  0.00000000000E+00 0. -1.
         11    1    1    2    0    0  0.42900105659E+02  0.28013022792E+02  0.38655995285E+02  0.64182820778E+02  0.00000000000E+00 0.  1.
</event>
<event>
 7    1  0.3387266E-009  0.1521598E+03  0.7561462E-02  0.1197844E+00
         -1   -1    0    0    0  501 -0.00000000000E+00  0.00000000000E+00  0.21396333321E+02  0.21396333321E+02  0.00000000000E+00 0.  1.
          1   -1    0    0  501    0  0.00000000000E+00 -0.00000000000E+00 -0.14818377920E+04  0.14818377920E+04  0.00000000000E+00 0. -1.
         25    2    1    2    0    0  0.13660003393E+03 -0.30304694384E+02 -0.83976638468E+03  0.86048200732E+03  0.12507501875E+03 0.  0.
          5    1    3    3  502    0 -0.30464431495E+01  0.37833736707E+00  0.27771131661E+01  0.58829170115E+01  0.41800000000E+01 0. -1.
         -5    1    3    3    0  502  0.13964647708E+03 -0.30683031751E+02 -0.84254349784E+03  0.85459909031E+03  0.41800000000E+01 0. -1.
        -11    1    1    2    0    0 -0.94923801738E+02 -0.13213583597E+02 -0.48379485523E+03  0.49319629852E+03  0.00000000000E+00 0. -1.
         11    1    1    2    0    0 -0.41676232190E+02  0.43518277981E+02 -0.13688021872E+03  0.14955581943E+03  0.00000000000E+00 0.  1.
</event>
<event>
 7    1  0.2380582E-009  0.1099742E+03  0.7561462E-02  0.1260618E+00
          2   -1    0    0  501    0  0.00000000000E+00  0.00000000000E+00  0.11210106416E+03  0.11210106416E+03  0.00000000000E+00 0. -1.
         -2   -1    0    0    0  501 -0.00000000000E+00 -0.00000000000E+00 -0.13668600317E+03  0.13668600317E+03  0.00000000000E+00 0.  1.
         25    2    1    2    0    0  0.24090654978E+02  0.28991764103E+02  0.31679495429E+02  0.13443044400E+03  0.12508825604E+03 0.  0.
          5    1    3    3  502    0 -0.16845549767E+02 -0.38023295412E+02  0.36710184802E+02  0.55629610902E+02  0.41800000000E+01 0. -1.
         -5    1    3    3    0  502  0.40936204745E+02  0.67015059515E+02 -0.50306893734E+01  0.78800833094E+02  0.41800000000E+01 0. -1.
        -11    1    1    2    0    0  0.27502679130E+02  0.15336648588E+02 -0.19444334011E+02  0.37009353876E+02  0.00000000000E+00 0. -1.
         11    1    1    2    0    0 -0.51593334107E+02 -0.44328412691E+02 -0.36820100428E+02  0.77347269451E+02  0.00000000000E+00 0.  1.
</event>
<event>
 7    1  0.2380582E-009  0.2221310E+03  0.7561462E-02  0.1132304E+00
         -1   -1    0    0    0  501 -0.00000000000E+00  0.00000000000E+00  0.21218729867E+03  0.21218729867E+03  0.00000000000E+00 0.  1.
          1   -1    0    0  501    0  0.00000000000E+00 -0.00000000000E+00 -0.27543898502E+03  0.27543898502E+03  0.00000000000E+00 0. -1.
         25    2    1    2    0    0 -0.20903566972E+03 -0.43722784337E+02 -0.23661192274E+02  0.24862607102E+03  0.12508988004E+03 0.  0.
          5    1    3    3  502    0 -0.99401069333E+02 -0.65107649221E+02 -0.57173924027E+02  0.13193145402E+03  0.41800000000E+01 0.  1.
         -5    1    3    3    0  502 -0.10963460038E+03  0.21384864884E+02  0.33512731753E+02  0.11669461700E+03  0.41800000000E+01 0.  1.
        -11    1    1    2    0    0  0.62104557227E+02  0.14497789002E+02  0.33802562838E+02  0.72178772286E+02  0.00000000000E+00 0.  1.
         11    1    1    2    0    0  0.14693111249E+03  0.29224995336E+02 -0.73393056915E+02  0.16682144039E+03  0.00000000000E+00 0. -1.
</event>
<event>
 7    1  0.2380582E-009  0.2000682E+03  0.7561462E-02  0.1149681E+00
          1   -1    0    0  501    0  0.00000000000E+00  0.00000000000E+00  0.73191217817E+03  0.73191217817E+03  0.00000000000E+00 0. -1.
         -1   -1    0    0    0  501 -0.00000000000E+00 -0.00000000000E+00 -0.74795974765E+02  0.74795974765E+02  0.00000000000E+00 0.  1.
         25    2    1    2    0    0 -0.17551004365E+03  0.34046259247E+02  0.52063844095E+03  0.56451272527E+03  0.12508919859E+03 0.  0.
          5    1    3    3  502    0 -0.15739153782E+03  0.73336422108E+02  0.43703218084E+03  0.47028175222E+03  0.41800000000E+01 0. -1.
         -5    1    3    3    0  502 -0.18118505822E+02 -0.39290162860E+02  0.83606260115E+02  0.94230973046E+02  0.41800000000E+01 0. -1.
        -11    1    1    2    0    0  0.96745329354E+02  0.10462588654E+01  0.12044014555E+03  0.15448812922E+03  0.00000000000E+00 0. -1.
         11    1    1    2    0    0  0.78764714292E+02 -0.35092518113E+02  0.16037616902E+02  0.87707298447E+02  0.00000000000E+00 0.  1.
</event>
<event>
 7    1  0.2380582E-009  0.1203603E+03  0.7561462E-02  0.1242504E+00
          2   -1    0    0  501    0  0.00000000000E+00  0.00000000000E+00  0.49951717512E+03  0.49951717512E+03  0.00000000000E+00 0. -1.
         -2   -1    0    0    0  501 -0.00000000000E+00 -0.00000000000E+00 -0.34359028738E+02  0.34359028738E+02  0.00000000000E+00 0.  1.
         25    2    1    2    0    0 -0.73525185032E+02 -0.10238188997E+02  0.27841775935E+03  0.31412157422E+03  0.12508053936E+03 0.  0.
          5    1    3    3  502    0  0.32486113240E+02 -0.18787549158E+02  0.92181919049E+02  0.99615752551E+02  0.41800000000E+01 0. -1.
         -5    1    3    3    0  502 -0.10601129827E+03  0.85493601606E+01  0.18623584030E+03  0.21450582167E+03  0.41800000000E+01 0. -1.
        -11    1    1    2    0    0  0.44029169403E+02  0.36376473512E+02  0.45213542465E+02  0.72842844575E+02  0.00000000000E+00 0.  1.
         11    1    1    2    0    0  0.29496015630E+02 -0.26138284515E+02  0.14152684457E+03  0.14691178506E+03  0.00000000000E+00 0. -1.
</event>
<event>
 7    1  0.2380582E-009  0.1592863E+03  0.7561462E-02  0.1189505E+00
         -1   -1    0    0    0  501 -0.00000000000E+00  0.00000000000E+00  0.13123146058E+03  0.13123146058E+03  0.00000000000E+00 0.  1.
          1   -1    0    0  501    0  0.00000000000E+00 -0.00000000000E+00 -0.20213303669E+03  0.20213303669E+03  0.00000000000E+00 0. -1.
         25    2    1    2    0    0  0.29944585259E+02 -0.11657532029E+03 -0.53212909165E+02  0.18156607264E+03  0.12509253193E+03 0.  0.
          5    1    3    3  502    0  0.30804888404E+02 -0.14092758039E+03 -0.59429264221E+02  0.15607316845E+03  0.41800000000E+01 0.  1.
         -5    1    3    3    0  502 -0.86030314517E+00  0.24352260103E+02  0.62163550557E+01  0.25492904185E+02  0.41800000000E+01 0.  1.
        -11    1    1    2    0    0  0.26542389889E+02  0.74533483317E+02  0.31096559704E+00  0.79119120925E+02  0.00000000000E+00 0. -1.
         11    1    1    2    0    0 -0.56486975148E+02  0.42041836971E+02 -0.17999632542E+02  0.72679303718E+02  0.00000000000E+00 0.  1.
</event>
<event>
 7    1  0.2380582E-009  0.1269745E+03  0.7561462E-02  0.1232015E+00
          2   -1    0    0  501    0  0.00000000000E+00  0.00000000000E+00  0.12909669396E+04  0.12909669396E+04  0.00000000000E+00 0. -1.
         -2   -1    0    0    0  501 -0.00000000000E+00 -0.00000000000E+00 -0.13533939338E+02  0.13533939338E+02  0.00000000000E+00 0.  1.
         25    2    1    2    0    0  0.71051550988E+02  0.25930471143E+02  0.73213482376E+03  0.74658651445E+03  0.12509720685E+03 0.  0.
          5    1    3    3  502    0  0.17993793591E+02 -0.46488109244E+02  0.16636561706E+03  0.17372366520E+03  0.41800000000E+01 0. -1.
         -5    1    3    3    0  502  0.53057757397E+02  0.72418580387E+02  0.56576920669E+03  0.57286284925E+03  0.41800000000E+01 0. -1.
        -11    1    1    2    0    0 -0.90932047326E+02 -0.24199065297E+02  0.49378870391E+03  0.50267436388E+03  0.00000000000E+00 0. -1.
         11    1    1    2    0    0  0.19880496338E+02 -0.17314058459E+01  0.51509472598E+02  0.55240000617E+02  0.00000000000E+00 0.  1.
</event>
<event>
 7    1  0.2380582E-009  0.9143820E+02  0.7561462E-02  0.1299406E+00
         -2   -1    0    0    0  501 -0.00000000000E+00  0.00000000000E+00  0.12353092072E+03  0.12353092072E+03  0.00000000000E+00 0.  1.
          2   -1    0    0  501    0  0.00000000000E+00 -0.00000000000E+00 -0.87405455813E+02  0.87405455813E+02  0.00000000000E+00 0. -1.
         25    2    1    2    0    0  0.15213985951E+02  0.39194867140E+02  0.31682253109E+02  0.13571505277E+03  0.12508839837E+03 0.  0.
          5    1    3    3  502    0  0.58403701689E+02 -0.67296871732E+01 -0.10335136176E+02  0.59837851734E+02  0.41800000000E+01 0. -1.
         -5    1    3    3    0  502 -0.43189715738E+02  0.45924554313E+02  0.42017389284E+02  0.75877201033E+02  0.41800000000E+01 0. -1.
        -11    1    1    2    0    0 -0.30676349151E+02 -0.29152838981E+02  0.23747563768E+02  0.48527035793E+02  0.00000000000E+00 0.  1.
         11    1    1    2    0    0  0.15462363200E+02 -0.10042028158E+02 -0.19304351971E+02  0.26694287971E+02  0.00000000000E+00 0. -1.
</event>
<event>
 7    1  0.2380582E-009  0.1976732E+03  0.7561462E-02  0.1151717E+00
          2   -1    0    0  501    0  0.00000000000E+00  0.00000000000E+00  0.97251688950E+03  0.97251688950E+03  0.00000000000E+00 0. -1.
         -2   -1    0    0    0  501 -0.00000000000E+00 -0.00000000000E+00 -0.59419927210E+02  0.59419927210E+02  0.00000000000E+00 0.  1.
         25    2    1    2    0    0  0.16891004529E+03 -0.41222823212E+00  0.75542733647E+03  0.78412275353E+03  0.12508900267E+03 0.  0.
          5    1    3    3  502    0  0.87750916792E+02  0.57218802711E+02  0.29603632314E+03  0.31405284874E+03  0.41800000000E+01 0.  1.
         -5    1    3    3    0  502  0.81159128499E+02 -0.57631030943E+02  0.45939101333E+03  0.47006990479E+03  0.41800000000E+01 0.  1.
        -11    1    1    2    0    0  0.41042796653E+01 -0.16533791812E+02  0.10256947555E+02  0.19885078738E+02  0.00000000000E+00 0.  1.
         11    1    1    2    0    0 -0.17301432496E+03  0.16946020045E+02  0.14741267827E+03  0.22792898445E+03  0.00000000000E+00 0. -1.
</event>
<event>
 7    1  0.2380582E-009  0.1391661E+03  0.7561462E-02  0.1214455E+00
         -2   -1    0    0    0  501 -0.00000000000E+00  0.00000000000E+00  0.92461222862E+02  0.92461222862E+02  0.00000000000E+00 0.  1.
          2   -1    0    0  501    0  0.00000000000E+00 -0.00000000000E+00 -0.21572788548E+03  0.21572788548E+03  0.00000000000E+00 0. -1.
         25    2    1    2    0    0 -0.32059430338E+02 -0.83002279974E+02 -0.51465000257E+02  0.16190576519E+03  0.12509054718E+03 0.  0.
          5    1    3    3  502    0  0.69922626434E+01 -0.10687884302E+03 -0.30915221910E+02  0.11155806635E+03  0.41800000000E+01 0.  1.
         -5    1    3    3    0  502 -0.39051692981E+02  0.23876563049E+02 -0.20549778347E+02  0.50347698834E+02  0.41800000000E+01 0.  1.
        -11    1    1    2    0    0  0.41936753913E+02  0.98356369199E+02 -0.50562784808E+02  0.11827621020E+03  0.00000000000E+00 0.  1.
         11    1    1    2    0    0 -0.98773235749E+01 -0.15354089225E+02 -0.21238877554E+02  0.28007132960E+02  0.00000000000E+00 0. -1.
</event>
<event>
 7    1  0.2380582E-009  0.1045188E+03  0.7561462E-02  0.1271071E+00
         -2   -1    0    0    0  501 -0.00000000000E+00  0.00000000000E+00  0.71186992839E+02  0.71186992839E+02  0.00000000000E+00 0.  1.
          2   -1    0    0  501    0  0.00000000000E+00 -0.00000000000E+00 -0.17476547416E+03  0.17476547416E+03  0.00000000000E+00 0. -1.
         25    2    1    2    0    0 -0.18751603110E+02 -0.11355662702E+02 -0.81138044158E+02  0.15070368239E+03  0.12509054314E+03 0.  0.
          5    1    3    3  502    0  0.49621129562E+02 -0.83006177063E+01 -0.61118807859E+02  0.79272554061E+02  0.41800000000E+01 0. -1.
         -5    1    3    3    0  502 -0.68372732672E+02 -0.30550449954E+01 -0.20019236300E+02  0.71431128333E+02  0.41800000000E+01 0. -1.
        -11    1    1    2    0    0  0.53405259684E+02 -0.35430918776E+00 -0.22183953534E+01  0.53452488950E+02  0.00000000000E+00 0.  1.
         11    1    1    2    0    0 -0.34653656575E+02  0.11709971889E+02 -0.20222041813E+02  0.41796295658E+02  0.00000000000E+00 0. -1.
</event>
<event>
 7    1  0.2878943E-009  0.1739365E+03  0.7561462E-02  0.1173804E+00
          1   -1    0    0  501    0  0.00000000000E+00  0.00000000000E+00  0.47396740473E+03  0.47396740473E+03  0.00000000000E+00 0. -1.
         -1   -1    0    0    0  501 -0.00000000000E+00 -0.00000000000E+00 -0.77263729432E+02  0.77263729432E+02  0.00000000000E+00 0.  1.
         25    2    1    2    0    0  0.12695321891E+03  0.73312982378E+02  0.12677302777E+03  0.23067255590E+03  0.12508602760E+03 0.  0.
          5    1    3    3  502    0 -0.11384497411E+02  0.46918401547E+02  0.52322084638E+02  0.71316310377E+02  0.41800000000E+01 0. -1.
         -5    1    3    3    0  502  0.13833771632E+03  0.26394580831E+02  0.74450943128E+02  0.15935624552E+03  0.41800000000E+01 0. -1.
        -11    1    1    2    0    0 -0.74556614202E+02 -0.75456175119E+02  0.23419844133E+03  0.25710160055E+03  0.00000000000E+00 0. -1.
         11    1    1    2    0    0 -0.52396604710E+02  0.21431927411E+01  0.35732206211E+02  0.63456977716E+02  0.00000000000E+00 0.  1.
</event>
<event>
 7    1  0.2380582E-009  0.1366441E+03  0.7561462E-02  0.1217917E+00
          1   -1    0    0  501    0  0.00000000000E+00  0.00000000000E+00  0.75516533801E+03  0.75516533801E+03  0.00000000000E+00 0. -1.
         -1   -1    0    0    0  501 -0.00000000000E+00 -0.00000000000E+00 -0.35895183056E+02  0.35895183056E+02  0.00000000000E+00 0.  1.
         25    2    1    2    0    0  0.96175348679E+02 -0.75619787071E+02  0.43976769588E+03  0.47329875936E+03  0.12509212356E+03 0.  0.
          5    1    3    3  502    0  0.20233340565E+02 -0.52800814930E+01 -0.17280907933E+00  0.21325327523E+02  0.41800000000E+01 0. -1.
         -5    1    3    3    0  502  0.75942008114E+02 -0.70339705578E+02  0.43994050496E+03  0.45197343184E+03  0.41800000000E+01 0. -1.
        -11    1    1    2    0    0 -0.78389586627E+02  0.84055374588E+01  0.11782712525E+03  0.14177027825E+03  0.00000000000E+00 0. -1.
         11    1    1    2    0    0 -0.17785762053E+02  0.67214249612E+02  0.16167533382E+03  0.17599148345E+03  0.00000000000E+00 0.  1.
</event>
<event>
 7    1  0.2380582E-009  0.9855984E+02  0.7561462E-02  0.1283354E+00
         -2   -1    0    0    0  501 -0.00000000000E+00  0.00000000000E+00  0.55202930914E+02  0.55202930914E+02  0.00000000000E+00 0.  1.
          2   -1    0    0  501    0  0.00000000000E+00 -0.00000000000E+00 -0.21096224342E+03  0.21096224342E+03  0.00000000000E+00 0. -1.
         25    2    1    2    0    0 -0.26444179129E+01 -0.53390658219E+01 -0.86471760720E+02  0.15218672482E+03  0.12509170732E+03 0.  0.
          5    1    3    3  502    0  0.48943482290E+02 -0.36856918575E+02 -0.60663039312E+02  0.86321339448E+02  0.41800000000E+01 0.  1.
         -5    1    3    3    0  502 -0.51587900203E+02  0.31517852753E+02 -0.25808721408E+02  0.65865385372E+02  0.41800000000E+01 0.  1.
        -11    1    1    2    0    0 -0.33094804839E+02  0.17400277722E+02 -0.66330582960E+02  0.76143167835E+02  0.00000000000E+00 0. -1.
         11    1    1    2    0    0  0.35739222752E+02 -0.12061211900E+02 -0.29569688311E+01  0.37835281684E+02  0.00000000000E+00 0.  1.
</event>
<event>
 7    1  0.2545433E-009  0.1091868E+03  0.7561462E-02  0.1262083E+00
         -1   -1    0    0    0  501 -0.00000000000E+00  0.00000000000E+00  0.11143035761E+03  0.11143035761E+03  0.00000000000E+00 0.  1.
          1   -1    0    0  501    0  0.00000000000E+00 -0.00000000000E+00 -0.15198988523E+03  0.15198988523E+03  0.00000000000E+00 0. -1.
         25    2    1    2    0    0 -0.16565781563E+02  0.34888750665E+02  0.38853039997E+02  0.13655961012E+03  0.12508924157E+03 0.  0.
          5    1    3    3  502    0 -0.66286656919E+02 -0.49581260362E+01  0.25539011695E+02  0.71331742006E+02  0.41800000000E+01 0.  1.
         -5    1    3    3    0  502  0.49720875356E+02  0.39846876702E+02  0.13314028302E+02  0.65227868113E+02  0.41800000000E+01 0.  1.
        -11    1    1    2    0    0 -0.26091336082E+02 -0.36921766346E+02 -0.11522217104E+02  0.46655504880E+02  0.00000000000E+00 0.  1.
         11    1    1    2    0    0  0.42657117645E+02  0.20330156805E+01 -0.67890350517E+02  0.80205127840E+02  0.00000000000E+00 0. -1.
</event>
<event>
 7    1  0.2380582E-009  0.1041703E+03  0.7561462E-02  0.1271763E+00
         -1   -1    0    0    0  501 -0.00000000000E+00  0.00000000000E+00  0.10213495595E+03  0.10213495595E+03  0.00000000000E+00 0. -1.
          1   -1    0    0  501    0  0.00000000000E+00 -0.00000000000E+00 -0.32645393818E+03  0.32645393818E+03  0.00000000000E+00 0.  1.
         25    2    1    2    0    0 -0.43903253065E+02 -0.62612653010E+00 -0.28505856663E+03  0.31437922825E+03  0.12509206642E+03 0.  0.
          5    1    3    3  502    0  0.31908183359E+02  0.33769745810E+02 -0.74222026525E+02  0.87663615707E+02  0.41800000000E+01 0.  1.
         -5    1    3    3    0  502 -0.75811436423E+02 -0.34395872340E+02 -0.21083654010E+03  0.22671561254E+03  0.41800000000E+01 0.  1.
        -11    1    1    2    0    0  0.46404625096E+01 -0.28863897633E+02 -0.74601560007E+01  0.30171383900E+02  0.00000000000E+00 0.  1.
         11    1    1    2    0    0  0.39262790555E+02  0.29490024163E+02  0.68199740398E+02  0.84038281977E+02  0.00000000000E+00 0. -1.
</event>
<event>
 7    1  0.2380582E-009  0.2455780E+03  0.7561462E-02  0.1116132E+00
         -1   -1    0    0    0  501 -0.00000000000E+00  0.00000000000E+00  0.30751343217E+03  0.30751343217E+03  0.00000000000E+00 0.  1.
          1   -1    0    0  501    0  0.00000000000E+00 -0.00000000000E+00 -0.20295484431E+03  0.20295484431E+03  0.00000000000E+00 0. -1.
         25    2    1    2    0    0 -0.22240675016E+03  0.19872062918E+02  0.69461992525E+02  0.26520338114E+03  0.12509277982E+03 0.  0.
          5    1    3    3  502    0 -0.15798726282E+03 -0.44924126449E+02  0.39889969999E+02  0.16907641603E+03  0.41800000000E+01 0.  1.
         -5    1    3    3    0  502 -0.64419487341E+02  0.64796189367E+02  0.29572022527E+02  0.96126965114E+02  0.41800000000E+01 0.  1.
        -11    1    1    2    0    0  0.11824127416E+03  0.26805591556E+02 -0.11897141114E+02  0.12182397392E+03  0.00000000000E+00 0.  1.
         11    1    1    2    0    0  0.10416547600E+03 -0.46677654474E+02  0.46993736445E+02  0.12344092142E+03  0.00000000000E+00 0. -1.
</event>
<event>
 7    1  0.2380582E-009  0.1212644E+03  0.7561462E-02  0.1241026E+00
          2   -1    0    0  501    0  0.00000000000E+00  0.00000000000E+00  0.47165992548E+03  0.47165992548E+03  0.00000000000E+00 0. -1.
         -2   -1    0    0    0  501 -0.00000000000E+00 -0.00000000000E+00 -0.55501117327E+02  0.55501117327E+02  0.00000000000E+00 0.  1.
         25    2    1    2    0    0  0.33066928967E+02  0.67170014062E+02  0.37370201135E+03  0.40113041255E+03  0.12508869654E+03 0.  0.
          5    1    3    3  502    0 -0.19947544585E+02  0.69647626449E+02  0.10779050060E+03  0.12994214414E+03  0.41800000000E+01 0. -1.
         -5    1    3    3    0  502  0.53014473551E+02 -0.24776123872E+01  0.26591151075E+03  0.27118826840E+03  0.41800000000E+01 0. -1.
        -11    1    1    2    0    0 -0.46557071648E+02  0.16575757423E+01  0.59611987078E+01  0.46966417447E+02  0.00000000000E+00 0.  1.
         11    1    1    2    0    0  0.13490142681E+02 -0.68827589805E+02  0.36495598098E+02  0.79064212817E+02  0.00000000000E+00 0. -1.
</event>
<event>
 7    1  0.2380582E-009  0.3165306E+03  0.7561462E-02  0.1077257E+00
          2   -1    0    0  501    0  0.00000000000E+00  0.00000000000E+00  0.85042833096E+02  0.85042833096E+02  0.00000000000E+00 0. -1.
         -2   -1    0    0    0  501 -0.00000000000E+00 -0.00000000000E+00 -0.14899240789E+04  0.14899240789E+04  0.00000000000E+00 0.  1.
         25    2    1    2    0    0 -0.27891942670E+03 -0.13332746519E+03 -0.10198649436E+04  0.10730058618E+04  0.12507924231E+03 0.  0.
          5    1    3    3  502    0 -0.29263021025E+02 -0.25530937855E+02 -0.31634407390E+03  0.31874629202E+03  0.41800000000E+01 0. -1.
         -5    1    3    3    0  502 -0.24965640567E+03 -0.10779652734E+03 -0.70352086967E+03  0.75425956982E+03  0.41800000000E+01 0. -1.
        -11    1    1    2    0    0  0.98379643499E+02  0.96440949190E+02 -0.16821897388E+03  0.21743282666E+03  0.00000000000E+00 0.  1.
         11    1    1    2    0    0  0.18053978320E+03  0.36886516001E+02 -0.21679732832E+03  0.28452822347E+03  0.00000000000E+00 0. -1.
</event>
<event>
 7    1  0.2380582E-009  0.1092410E+03  0.7561462E-02  0.1261982E+00
          1   -1    0    0  501    0  0.00000000000E+00  0.00000000000E+00  0.13372398018E+04  0.13372398018E+04  0.00000000000E+00 0. -1.
         -1   -1    0    0    0  501 -0.00000000000E+00 -0.00000000000E+00 -0.10026816253E+02  0.10026816253E+02  0.00000000000E+00 0.  1.
         25    2    1    2    0    0  0.24793726846E+02 -0.27361318728E+02  0.84740291062E+03  0.85738128669E+03  0.12509039605E+03 0.  0.
          5    1    3    3  502    0  0.35864913710E+02 -0.68199500831E+02  0.36276778903E+03  0.37088462506E+03  0.41800000000E+01 0. -1.
         -5    1    3    3    0  502 -0.11071186865E+02  0.40838182103E+02  0.48463512159E+03  0.48649666163E+03  0.41800000000E+01 0. -1.
        -11    1    1    2    0    0 -0.52313250284E+02  0.42487152098E+02  0.33427812211E+03  0.34100395478E+03  0.00000000000E+00 0. -1.
         11    1    1    2    0    0  0.27519523439E+02 -0.15125833370E+02  0.14553195284E+03  0.14888137662E+03  0.00000000000E+00 0.  1.
</event>
<event>
 7    1  0.2380582E-009  0.7172657E+02  0.7561462E-02  0.1354318E+00
         -1   -1    0    0    0  501 -0.00000000000E+00  0.00000000000E+00  0.87136206837E+02  0.87136206837E+02  0.00000000000E+00 0.  1.
          1   -1    0    0  501    0  0.00000000000E+00 -0.00000000000E+00 -0.14722487508E+03  0.14722487508E+03  0.00000000000E+00 0. -1.
         25    2    1    2    0    0  0.17662766610E+02 -0.41581992552E+01 -0.69055894081E+01  0.12658929811E+03  0.12509156361E+03 0.  0.
          5    1    3    3  502    0 -0.12223091676E+02 -0.14981177992E+02 -0.60768790405E+02  0.63907417030E+02  0.41800000000E+01 0. -1.
         -5    1    3    3    0  502  0.29885858287E+02  0.10822978737E+02  0.53863200997E+02  0.62681881081E+02  0.41800000000E+01 0. -1.
        -11    1    1    2    0    0 -0.29999655075E+01 -0.42550699425E+02 -0.36221871628E+02  0.55960573611E+02  0.00000000000E+00 0. -1.
         11    1    1    2    0    0 -0.14662801103E+02  0.46708898681E+02 -0.16961207209E+02  0.51811210197E+02  0.00000000000E+00 0.  1.
</event>
<event>
 7    1  0.2380582E-009  0.1053896E+03  0.7561462E-02  0.1269354E+00
          1   -1    0    0  501    0  0.00000000000E+00  0.00000000000E+00  0.50446155653E+03  0.50446155653E+03  0.00000000000E+00 0. -1.
         -1   -1    0    0    0  501 -0.00000000000E+00 -0.00000000000E+00 -0.36118903744E+02  0.36118903744E+02  0.00000000000E+00 0.  1.
         25    2    1    2    0    0  0.13058361192E+02 -0.11497375521E+02  0.42083793879E+03  0.43937907746E+03  0.12508674006E+03 0.  0.
          5    1    3    3  502    0  0.33809810973E+02 -0.62218783789E+02  0.21973416368E+03  0.23090009844E+03  0.41800000000E+01 0.  1.
         -5    1    3    3    0  502 -0.20751449781E+02  0.50721408268E+02  0.20110377511E+03  0.20847897901E+03  0.41800000000E+01 0.  1.
        -11    1    1    2    0    0 -0.46644817546E+02 -0.59709004669E+01  0.41797712339E+02  0.62916129991E+02  0.00000000000E+00 0.  1.
         11    1    1    2    0    0  0.33586456354E+02  0.17468275987E+02  0.57070016583E+01  0.38285252831E+02  0.00000000000E+00 0. -1.
</event>
<event>
 7    1  0.2380582E-009  0.1183011E+03  0.7561462E-02  0.1245926E+00
         -2   -1    0    0    0  501 -0.00000000000E+00  0.00000000000E+00  0.18639109765E+02  0.18639109765E+02  0.00000000000E+00 0.  1.
          2   -1    0    0  501    0  0.00000000000E+00 -0.00000000000E+00 -0.96779129616E+03  0.96779129616E+03  0.00000000000E+00 0. -1.
         25    2    1    2    0    0  0.25428314724E+02 -0.75737469925E+02 -0.57668688236E+03  0.59548187340E+03  0.12509251668E+03 0.  0.
          5    1    3    3  502    0  0.54681158314E+02 -0.26750375871E+02 -0.47419170426E+03  0.47810130357E+03  0.41800000000E+01 0.  1.
         -5    1    3    3    0  502 -0.29252843590E+02 -0.48987094053E+02 -0.10249517810E+03  0.11738056984E+03  0.41800000000E+01 0.  1.
        -11    1    1    2    0    0 -0.56831005000E+02  0.61981589582E+02 -0.27880961410E+03  0.29121518074E+03  0.00000000000E+00 0.  1.
         11    1    1    2    0    0  0.31402690275E+02  0.13755880343E+02 -0.93655689934E+02  0.99733351781E+02  0.00000000000E+00 0. -1.
</event>
<event>
 7    1  0.2380582E-009  0.1130573E+03  0.7561462E-02  0.1255011E+00
          1   -1    0    0  501    0  0.00000000000E+00  0.00000000000E+00  0.12219459868E+03  0.12219459868E+03  0.00000000000E+00 0. -1.
         -1   -1    0    0    0  501 -0.00000000000E+00 -0.00000000000E+00 -0.31298536229E+03  0.31298536229E+03  0.00000000000E+00 0.  1.
         25    2    1    2    0    0 -0.58987522216E+01 -0.49698822653E+02 -0.27245918848E+03  0.30395118929E+03  0.12509015883E+03 0.  0.
          5    1    3    3  502    0  0.35225143563E+02  0.28505646596E+02 -0.77698627098E+02  0.90044054106E+02  0.41800000000E+01 0.  1.
         -5    1    3    3    0  502 -0.41123895785E+02 -0.78204469249E+02 -0.19476056138E+03  0.21390713519E+03  0.41800000000E+01 0.  1.
        -11    1    1    2    0    0  0.15534434743E+02 -0.17996419498E+02 -0.11853611210E+01  0.23803253108E+02  0.00000000000E+00 0.  1.
         11    1    1    2    0    0 -0.96356825209E+01  0.67695242151E+02  0.82853785992E+02  0.10742551857E+03  0.00000000000E+00 0. -1.
</event>
<event>
 7    1  0.2380582E-009  0.1040337E+03  0.7561462E-02  0.1272035E+00
         -1   -1    0    0    0  501 -0.00000000000E+00  0.00000000000E+00  0.84939269645E+02  0.84939269645E+02  0.00000000000E+00 0.  1.
          1   -1    0    0  501    0  0.00000000000E+00 -0.00000000000E+00 -0.17149340238E+03  0.17149340238E+03  0.00000000000E+00 0. -1.
         25    2    1    2    0    0  0.18554656417E+02 -0.65769418849E+01 -0.10321920716E+03  0.16336408468E+03  0.12508432354E+03 0.  0.
          5    1    3    3  502    0  0.65590047569E+02  0.23752071535E+02 -0.49173499057E+02  0.85450106213E+02  0.41800000000E+01 0.  1.
         -5    1    3    3    0  502 -0.47035391152E+02 -0.30329013420E+02 -0.54045708104E+02  0.77913978465E+02  0.41800000000E+01 0.  1.
        -11    1    1    2    0    0 -0.31101124427E+02  0.37483499567E+02  0.29934937838E+02  0.57169862548E+02  0.00000000000E+00 0.  1.
         11    1    1    2    0    0  0.12546468010E+02 -0.30906557682E+02 -0.13269863413E+02  0.35898724800E+02  0.00000000000E+00 0. -1.
</event>
<event>
 7    1  0.2380582E-009  0.1179101E+03  0.7561462E-02  0.1246585E+00
          2   -1    0    0  501    0  0.00000000000E+00  0.00000000000E+00  0.31005418379E+03  0.31005418379E+03  0.00000000000E+00 0. -1.
         -2   -1    0    0    0  501 -0.00000000000E+00 -0.00000000000E+00 -0.78951698984E+02  0.78951698984E+02  0.00000000000E+00 0.  1.
         25    2    1    2    0    0  0.31445683094E+02 -0.87267953697E+02  0.20457127970E+03  0.25710207430E+03  0.12509013312E+03 0.  0.
          5    1    3    3  502    0  0.67039086220E+02 -0.31831722167E+02  0.51569749906E+02  0.90467724205E+02  0.41800000000E+01 0. -1.
         -5    1    3    3    0  502 -0.35593403126E+02 -0.55436231531E+02  0.15300152979E+03  0.16663435009E+03  0.41800000000E+01 0. -1.
        -11    1    1    2    0    0 -0.30025897954E+02  0.50997333973E+02  0.58734881896E+02  0.83379067946E+02  0.00000000000E+00 0. -1.
         11    1    1    2    0    0 -0.14197851402E+01  0.36270619724E+02 -0.32203676787E+02  0.48524740531E+02  0.00000000000E+00 0.  1.
</event>
<event>
 7    1  0.2380582E-009  0.9694488E+02  0.7561462E-02  0.1286855E+00
         -1   -1    0    0    0  501 -0.00000000000E+00  0.00000000000E+00  0.31838438822E+02  0.31838438822E+02  0.00000000000E+00 0.  1.
          1   -1    0    0  501    0  0.00000000000E+00 -0.00000000000E+00 -0.72470304475E+03  0.72470304475E+03  0.00000000000E+00 0. -1.
         25    2    1    2    0    0  0.17944318124E+02 -0.38894593566E+01 -0.63254921601E+03  0.64506031789E+03  0.12508867489E+03 0.  0.
          5    1    3    3  502    0  0.53889640716E+01 -0.63978859714E+02 -0.35355293425E+03  0.35935982684E+03  0.41800000000E+01 0.  1.
         -5    1    3    3    0  502  0.12555354052E+02  0.60089400357E+02 -0.27899628176E+03  0.28570049105E+03  0.41800000000E+01 0.  1.
        -11    1    1    2    0    0  0.24307657104E+01 -0.29123554348E+02  0.10237345430E+02  0.30966002022E+02  0.00000000000E+00 0.  1.
         11    1    1    2    0    0 -0.20375083834E+02  0.33013013704E+02 -0.70552735342E+02  0.80515163661E+02  0.00000000000E+00 0. -1.
</event>
<event>
 7    1  0.2429848E-009  0.2690918E+03  0.7561462E-02  0.1101801E+00
         -2   -1    0    0    0  501 -0.00000000000E+00  0.00000000000E+00  0.10189642328E+03  0.10189642328E+03  0.00000000000E+00 0.  1.
          2   -1    0    0  501    0  0.00000000000E+00 -0.00000000000E+00 -0.81921500831E+03  0.81921500831E+03  0.00000000000E+00 0. -1.
         25    2    1    2    0    0  0.24257694494E+03  0.10001789850E+03 -0.28252186417E+03  0.40535554237E+03  0.12508939909E+03 0.  0.
          5    1    3    3  502    0  0.20133407846E+03  0.93398206986E+02 -0.15405001408E+03  0.27019902933E+03  0.41800000000E+01 0.  1.
         -5    1    3    3    0  502  0.41242866483E+02  0.66196915144E+01 -0.12847185009E+03  0.13515651304E+03  0.41800000000E+01 0.  1.
        -11    1    1    2    0    0 -0.17340170058E+03 -0.30337442383E+02 -0.31511853504E+03  0.36095456958E+03  0.00000000000E+00 0. -1.
         11    1    1    2    0    0 -0.69175244356E+02 -0.69680456117E+02 -0.11967818582E+03  0.15480131963E+03  0.00000000000E+00 0.  1.
</event>
<event>
 7    1  0.2380582E-009  0.3482514E+03  0.7561462E-02  0.1063335E+00
         -2   -1    0    0    0  501 -0.00000000000E+00  0.00000000000E+00  0.25117957773E+03  0.25117957773E+03  0.00000000000E+00 0.  1.
          2   -1    0    0  501    0  0.00000000000E+00 -0.00000000000E+00 -0.54703854332E+03  0.54703854332E+03  0.00000000000E+00 0. -1.
         25    2    1    2    0    0  0.37171121605E+02 -0.33716142350E+03 -0.39549143133E+02  0.36369128796E+03  0.12509076879E+03 0.  0.
          5    1    3    3  502    0  0.22484718539E+01 -0.28908324530E+03  0.52272805457E+01  0.28916945759E+03  0.41800000000E+01 0.  1.
         -5    1    3    3    0  502  0.34922649752E+02 -0.48078178198E+02 -0.44776423678E+02  0.74521830371E+02  0.41800000000E+01 0.  1.
        -11    1    1    2    0    0  0.23801667421E+02  0.11478856079E+03 -0.59968538664E+02  0.13167823924E+03  0.00000000000E+00 0.  1.
         11    1    1    2    0    0 -0.60972789026E+02  0.22237286271E+03 -0.19634128380E+03  0.30284859385E+03  0.00000000000E+00 0. -1.
</event>
<event>
 7    1  0.2380582E-009  0.1072166E+03  0.7561462E-02  0.1265813E+00
          2   -1    0    0  501    0  0.00000000000E+00  0.00000000000E+00  0.93728208733E+03  0.93728208733E+03  0.00000000000E+00 0. -1.
         -2   -1    0    0    0  501 -0.00000000000E+00 -0.00000000000E+00 -0.15758471983E+02  0.15758471983E+02  0.00000000000E+00 0.  1.
         25    2    1    2    0    0 -0.13242575103E+02  0.25216550538E+02  0.69279676677E+03  0.70457627764E+03  0.12509648575E+03 0.  0.
          5    1    3    3  502    0 -0.48358655990E+02  0.59318689101E+02  0.48714038863E+03  0.49313334619E+03  0.41800000000E+01 0. -1.
         -5    1    3    3    0  502  0.35116080887E+02 -0.34102138563E+02  0.20565637814E+03  0.21144293146E+03  0.41800000000E+01 0. -1.
        -11    1    1    2    0    0  0.22251261593E+02  0.27388136694E+02  0.45250746796E+02  0.57383436283E+02  0.00000000000E+00 0.  1.
         11    1    1    2    0    0 -0.90086864905E+01 -0.52604687232E+02  0.18347610178E+03  0.19108084539E+03  0.00000000000E+00 0. -1.
</event>
<event>
 7    1  0.2380582E-009  0.1257944E+03  0.7561462E-02  0.1233833E+00
          2   -1    0    0  501    0  0.00000000000E+00  0.00000000000E+00  0.28854100057E+03  0.28854100057E+03  0.00000000000E+00 0. -1.
         -2   -1    0    0    0  501 -0.00000000000E+00 -0.00000000000E+00 -0.64704443154E+02  0.64704443154E+02  0.00000000000E+00 0.  1.
         25    2    1    2    0    0  0.79356641095E+02  0.17176301507E+02  0.88730552616E+02  0.17353084371E+03  0.12508933181E+03 0.  0.
          5    1    3    3  502    0  0.38044050827E+02 -0.47233122606E+02  0.73524870985E+02  0.95402812997E+02  0.41800000000E+01 0.  1.
         -5    1    3    3    0  502  0.41312590268E+02  0.64409424113E+02  0.15205681631E+02  0.78128030713E+02  0.41800000000E+01 0.  1.
        -11    1    1    2    0    0 -0.57427381689E+02  0.28040811874E+02  0.98997068975E+02  0.11783297910E+03  0.00000000000E+00 0. -1.
         11    1    1    2    0    0 -0.21929259406E+02 -0.45217113381E+02  0.36108935829E+02  0.61881620917E+02  0.00000000000E+00 0.  1.
</event>
<event>
 7    1  0.2380582E-009  0.2211920E+03  0.7561462E-02  0.1132998E+00
          1   -1    0    0  501    0  0.00000000000E+00  0.00000000000E+00  0.27681360638E+03  0.27681360638E+03  0.00000000000E+00 0. -1.
         -1   -1    0    0    0  501 -0.00000000000E+00 -0.00000000000E+00 -0.21892732158E+03  0.21892732158E+03  0.00000000000E+00 0.  1.
         25    2    1    2    0    0  0.20679182952E+03  0.71094474016E+02  0.15835158961E+01  0.25192699154E+03  0.12508963406E+03 0.  0.
          5    1    3    3  502    0  0.25473779566E+02  0.77256651083E+01 -0.46626377996E+02  0.53852491788E+02  0.41800000000E+01 0. -1.
         -5    1    3    3    0  502  0.18131804996E+03  0.63368808908E+02  0.48209893893E+02  0.19807449975E+03  0.41800000000E+01 0. -1.
        -11    1    1    2    0    0 -0.70072517039E+02 -0.47308299915E+02 -0.17939470607E+02  0.86429494333E+02  0.00000000000E+00 0.  1.
         11    1    1    2    0    0 -0.13671931248E+03 -0.23786174101E+02  0.74242239504E+02  0.15738444209E+03  0.00000000000E+00 0. -1.
</event>
<event>
 7    1  0.2380582E-009  0.1372738E+03  0.7561462E-02  0.1217045E+00
          2   -1    0    0  501    0  0.00000000000E+00  0.00000000000E+00  0.35779619873E+03  0.35779619873E+03  0.00000000000E+00 0. -1.
         -2   -1    0    0    0  501 -0.00000000000E+00 -0.00000000000E+00 -0.64683588524E+02  0.64683588524E+02  0.00000000000E+00 0.  1.
         25    2    1    2    0    0  0.96226753418E+02  0.42151570301E+02  0.13796408153E+03  0.21381754495E+03  0.12509001473E+03 0.  0.
          5    1    3    3  502    0 -0.25320463839E+02  0.28635921292E+02  0.18009366913E+02  0.42461177255E+02  0.41800000000E+01 0.  1.
         -5    1    3    3    0  502  0.12154721726E+03  0.13515649009E+02  0.11995471462E+03  0.17135636770E+03  0.41800000000E+01 0.  1.
        -11    1    1    2    0    0 -0.75818191532E+02 -0.51112473137E+02  0.16140998599E+03  0.18551028719E+03  0.00000000000E+00 0. -1.
         11    1    1    2    0    0 -0.20408561886E+02  0.89609028360E+01 -0.62614573115E+01  0.23151955113E+02  0.00000000000E+00 0.  1.
</event>
<event>
 7    1  0.2380582E-009  0.1482480E+03  0.7561462E-02  0.1202642E+00
          2   -1    0    0  501    0  0.00000000000E+00  0.00000000000E+00  0.12299649944E+03  0.12299649944E+03  0.00000000000E+00 0.  1.
         -2   -1    0    0    0  501 -0.00000000000E+00 -0.00000000000E+00 -0.19469206763E+03  0.19469206763E+03  0.00000000000E+00 0. -1.
         25    2    1    2    0    0  0.10300828876E+03  0.45795590767E+02 -0.49916459536E+01  0.16846653082E+03  0.12509241300E+03 0.  0.
          5    1    3    3  502    0  0.85120404949E+02 -0.29597550947E+02 -0.96328031156E+01  0.90729056298E+02  0.41800000000E+01 0. -1.
         -5    1    3    3    0  502  0.17887883809E+02  0.75393141714E+02  0.46411571620E+01  0.77737474519E+02  0.41800000000E+01 0. -1.
        -11    1    1    2    0    0 -0.50629779236E+02 -0.55810407430E+02 -0.58218572865E+02  0.95223832886E+02  0.00000000000E+00 0.  1.
         11    1    1    2    0    0 -0.52378509522E+02  0.10014816663E+02 -0.84853493752E+01  0.53998203364E+02  0.00000000000E+00 0. -1.
</event>
<event>
 7    1  0.2380582E-009  0.1256147E+03  0.7561462E-02  0.1234112E+00
         -2   -1    0    0    0  501 -0.00000000000E+00  0.00000000000E+00  0.16858520792E+03  0.16858520792E+03  0.00000000000E+00 0.  1.
          2   -1    0    0  501    0  0.00000000000E+00 -0.00000000000E+00 -0.14217024061E+03  0.14217024061E+03  0.00000000000E+00 0. -1.
         25    2    1    2    0    0 -0.71774606311E+02 -0.52501175256E+02  0.84590002269E+02  0.17525027892E+03  0.12509685953E+03 0.  0.
          5    1    3    3  502    0 -0.98637474574E+02 -0.69569849186E+02  0.60277221650E+02  0.13498196604E+03  0.41800000000E+01 0.  1.
         -5    1    3    3    0  502  0.26862868264E+02  0.17068673930E+02  0.24312780619E+02  0.40268312884E+02  0.41800000000E+01 0.  1.
        -11    1    1    2    0    0  0.68339095701E+01 -0.73518374650E+01 -0.45128054762E+02  0.46230868051E+02  0.00000000000E+00 0. -1.
         11    1    1    2    0    0  0.64940696741E+02  0.59853012721E+02 -0.13046980197E+02  0.89274301550E+02  0.00000000000E+00 0.  1.
</event>
<event>
 7    1  0.2380582E-009  0.8969271E+02  0.7561462E-02  0.1303598E+00
          1   -1    0    0  501    0  0.00000000000E+00  0.00000000000E+00  0.63885131107E+02  0.63885131107E+02  0.00000000000E+00 0.  1.
         -1   -1    0    0    0  501 -0.00000000000E+00 -0.00000000000E+00 -0.22214206853E+03  0.22214206853E+03  0.00000000000E+00 0. -1.
         25    2    1    2    0    0 -0.13171135431E+02 -0.18977277864E+02 -0.14209762916E+03  0.19071718647E+03  0.12509073953E+03 0.  0.
          5    1    3    3  502    0 -0.62116621870E+02 -0.39217325897E+02 -0.74120234949E+02  0.10444019816E+03  0.41800000000E+01 0.  1.
         -5    1    3    3    0  502  0.48945486440E+02  0.20240048032E+02 -0.67977394211E+02  0.86276988305E+02  0.41800000000E+01 0.  1.
        -11    1    1    2    0    0 -0.15134186743E+02  0.19101568920E+02  0.31531593152E+02  0.39851661324E+02  0.00000000000E+00 0.  1.
         11    1    1    2    0    0  0.28305322173E+02 -0.12429105609E+00 -0.47690901413E+02  0.55458351844E+02  0.00000000000E+00 0. -1.
</event>
<event>
 7    1  0.2380582E-009  0.8274826E+02  0.7561462E-02  0.1321428E+00
          2   -1    0    0  501    0  0.00000000000E+00  0.00000000000E+00  0.57889708705E+02  0.57889708705E+02  0.00000000000E+00 0. -1.
         -2   -1    0    0    0  501 -0.00000000000E+00 -0.00000000000E+00 -0.22365029707E+03  0.22365029707E+03  0.00000000000E+00 0.  1.
         25    2    1    2    0    0  0.33363593916E+02 -0.87283367294E+01 -0.83703675218E+02  0.15441063358E+03  0.12508807001E+03 0.  0.
          5    1    3    3  502    0  0.25310919061E+02 -0.34902313005E+02 -0.10875350259E+03  0.11706242268E+03  0.41800000000E+01 0.  1.
         -5    1    3    3    0  502  0.80526748551E+01  0.26173976276E+02  0.25049827375E+02  0.37348210907E+02  0.41800000000E+01 0.  1.
        -11    1    1    2    0    0 -0.49533878379E+02  0.37055823134E+02 -0.67042017207E+02  0.91221550122E+02  0.00000000000E+00 0. -1.
         11    1    1    2    0    0  0.16170284463E+02 -0.28327486405E+02 -0.15014895939E+02  0.35907822068E+02  0.00000000000E+00 0.  1.
</event>
<event>
 7    1  0.2380582E-009  0.1268431E+03  0.7561462E-02  0.1232217E+00
         -2   -1    0    0    0  501 -0.00000000000E+00  0.00000000000E+00  0.52185365898E+02  0.52185365898E+02  0.00000000000E+00 0.  1.
          2   -1    0    0  501    0  0.00000000000E+00 -0.00000000000E+00 -0.53922400730E+03  0.53922400730E+03  0.00000000000E+00 0. -1.
         25    2    1    2    0    0  0.44123634210E+02 -0.10372612503E+03 -0.15491426578E+03  0.22880569029E+03  0.12509040753E+03 0.  0.
          5    1    3    3  502    0  0.26195345306E+02 -0.83554549338E+02 -0.18384291685E+02  0.89571275594E+02  0.41800000000E+01 0. -1.
         -5    1    3    3    0  502  0.17928288904E+02 -0.20171575696E+02 -0.13652997409E+03  0.13923441469E+03  0.41800000000E+01 0. -1.
        -11    1    1    2    0    0  0.12513244856E+01  0.91784194341E+02 -0.16276014366E+03  0.18686029142E+03  0.00000000000E+00 0.  1.
         11    1    1    2    0    0 -0.45374958696E+02  0.11941930693E+02 -0.16936423196E+03  0.17574339149E+03  0.00000000000E+00 0. -1.
</event>
<event>
 7    1  0.2380582E-009  0.1059588E+03  0.7561462E-02  0.1268242E+00
          2   -1    0    0  501    0  0.00000000000E+00  0.00000000000E+00  0.77769653891E+03  0.77769653891E+03  0.00000000000E+00 0.  1.
         -2   -1    0    0    0  501 -0.00000000000E+00 -0.00000000000E+00 -0.22426064304E+02  0.22426064304E+02  0.00000000000E+00 0. -1.
         25    2    1    2    0    0 -0.31034123176E+02  0.53393802797E+01  0.62066432575E+03  0.63392697904E+03  0.12509030226E+03 0.  0.
          5    1    3    3  502    0 -0.72508331671E+02 -0.17843723990E+02  0.46940401647E+03  0.47532458354E+03  0.41800000000E+01 0.  1.
         -5    1    3    3    0  502  0.41474208495E+02  0.23183104269E+02  0.15126030928E+03  0.15860239550E+03  0.41800000000E+01 0.  1.
        -11    1    1    2    0    0  0.38320921833E+01  0.38038028969E+02  0.91854697884E+02  0.99493025393E+02  0.00000000000E+00 0.  1.
         11    1    1    2    0    0  0.27202030993E+02 -0.43377409249E+02  0.42751450971E+02  0.66702598776E+02  0.00000000000E+00 0. -1.
</event>
<event>
 7    1  0.2380582E-009  0.3324626E+03  0.7561462E-02  0.1070052E+00
          1   -1    0    0  501    0  0.00000000000E+00  0.00000000000E+00  0.28578568436E+03  0.28578568436E+03  0.00000000000E+00 0. -1.
         -1   -1    0    0    0  501 -0.00000000000E+00 -0.00000000000E+00 -0.50832687740E+03  0.50832687740E+03  0.00000000000E+00 0.  1.
         25    2    1    2    0    0  0.18769258845E+03 -0.27243781175E+03  0.48428361182E+02  0.35698916958E+03  0.12508034218E+03 0.  0.
          5    1    3    3  502    0  0.12284049881E+03 -0.19104257801E+03 -0.26464741580E+02  0.22870266660E+03  0.41800000000E+01 0.  1.
         -5    1    3    3    0  502  0.64852089644E+02 -0.81395233733E+02  0.74893102763E+02  0.12828650298E+03  0.41800000000E+01 0.  1.
        -11    1    1    2    0    0 -0.53560047362E+02  0.46893026593E+02 -0.19830418872E+02  0.73897768092E+02  0.00000000000E+00 0. -1.
         11    1    1    2    0    0 -0.13413254109E+03  0.22554478515E+03 -0.25113913535E+03  0.36322562409E+03  0.00000000000E+00 0.  1.
</event>
<event>
 7    1  0.2380582E-009  0.9766463E+02  0.7561462E-02  0.1285285E+00
         -1   -1    0    0    0  501 -0.00000000000E+00  0.00000000000E+00  0.48741189518E+02  0.48741189518E+02  0.00000000000E+00 0.  1.
          1   -1    0    0  501    0  0.00000000000E+00 -0.00000000000E+00 -0.36236229708E+03  0.36236229708E+03  0.00000000000E+00 0. -1.
         25    2    1    2    0    0  0.30424051365E+02 -0.28689222699E+02 -0.74615096855E+02  0.15153684473E+03  0.12508920110E+03 0.  0.
          5    1    3    3  502    0  0.29671023378E+01 -0.59469056003E+02  0.68978134696E+01  0.60086808443E+02  0.41800000000E+01 0. -1.
         -5    1    3    3    0  502  0.27456949027E+02  0.30779833304E+02 -0.81512910324E+02  0.91450036291E+02  0.41800000000E+01 0. -1.
        -11    1    1    2    0    0 -0.31791436950E+01  0.55715418749E+02 -0.18556086147E+03  0.19377086507E+03  0.00000000000E+00 0. -1.
         11    1    1    2    0    0 -0.27244907670E+02 -0.27026196050E+02 -0.53445149237E+02  0.65795776793E+02  0.00000000000E+00 0.  1.
</event>
<event>
 7    1  0.2380582E-009  0.1374338E+03  0.7561462E-02  0.1216824E+00
          1   -1    0    0  501    0  0.00000000000E+00  0.00000000000E+00  0.83574662342E+03  0.83574662342E+03  0.00000000000E+00 0. -1.
         -1   -1    0    0    0  501 -0.00000000000E+00 -0.00000000000E+00 -0.31729531581E+02  0.31729531581E+02  0.00000000000E+00 0.  1.
         25    2    1    2    0    0  0.67152472700E+02  0.84345436133E+02  0.28235284688E+03  0.32709411079E+03  0.12507525731E+03 0.  0.
          5    1    3    3  502    0  0.82181769815E+02  0.90653536763E+02  0.28488405781E+03  0.31007790281E+03  0.41800000000E+01 0. -1.
         -5    1    3    3    0  502 -0.15029297115E+02 -0.63081006294E+01 -0.25312109331E+01  0.17016207983E+02  0.41800000000E+01 0. -1.
        -11    1    1    2    0    0 -0.39007859932E+02  0.73480051749E+01  0.92977350474E+02  0.10109596440E+03  0.00000000000E+00 0.  1.
         11    1    1    2    0    0 -0.28144612767E+02 -0.91693441308E+02  0.42868689449E+03  0.43928607981E+03  0.00000000000E+00 0. -1.
</event>
<event>
 7    1  0.2380582E-009  0.9016400E+02  0.7561462E-02  0.1302455E+00
          2   -1    0    0  501    0  0.00000000000E+00  0.00000000000E+00  0.37544208379E+02  0.37544208379E+02  0.00000000000E+00 0. -1.
         -2   -1    0    0    0  501 -0.00000000000E+00 -0.00000000000E+00 -0.38580198880E+03  0.38580198880E+03  0.00000000000E+00 0.  1.
         25    2    1    2    0    0 -0.38682863572E+02  0.37384122636E+02 -0.17793983984E+03  0.22405930363E+03  0.12508416519E+03 0.  0.
          5    1    3    3  502    0 -0.50285932853E+02  0.56767094053E+02 -0.43206034967E+02  0.87380843826E+02  0.41800000000E+01 0. -1.
         -5    1    3    3    0  502  0.11603069281E+02 -0.19382971417E+02 -0.13473380488E+03  0.13667845980E+03  0.41800000000E+01 0. -1.
        -11    1    1    2    0    0  0.12681386951E+02  0.16949061607E+02 -0.11682856293E+03  0.11873079373E+03  0.00000000000E+00 0. -1.
         11    1    1    2    0    0  0.26001476621E+02 -0.54333184244E+02 -0.53489377653E+02  0.80556099820E+02  0.00000000000E+00 0.  1.
</event>
<event>
 7    1  0.2380582E-009  0.9074916E+02  0.7561462E-02  0.1301048E+00
          2   -1    0    0  501    0  0.00000000000E+00  0.00000000000E+00  0.34811660070E+03  0.34811660070E+03  0.00000000000E+00 0. -1.
         -2   -1    0    0    0  501 -0.00000000000E+00 -0.00000000000E+00 -0.34198635768E+02  0.34198635768E+02  0.00000000000E+00 0.  1.
         25    2    1    2    0    0  0.13488338119E+02  0.22373369879E+01  0.19244006795E+03  0.22992728093E+03  0.12508570590E+03 0.  0.
          5    1    3    3  502    0  0.78245651831E+01 -0.55059509734E+02  0.14450148900E+03  0.15489004537E+03  0.41800000000E+01 0.  1.
         -5    1    3    3    0  502  0.56637729363E+01  0.57296846722E+02  0.47938578950E+02  0.75037235556E+02  0.41800000000E+01 0.  1.
        -11    1    1    2    0    0 -0.37597721113E+02 -0.15286864168E+02  0.16369802569E+02  0.43763538307E+02  0.00000000000E+00 0.  1.
         11    1    1    2    0    0  0.24109382993E+02  0.13049527180E+02  0.10510809442E+03  0.10862441724E+03  0.00000000000E+00 0. -1.
</event>
<event>
 7    1  0.2380582E-009  0.1016360E+03  0.7561462E-02  0.1276893E+00
         -4   -1    0    0    0  501 -0.00000000000E+00  0.00000000000E+00  0.39857474308E+02  0.39857474308E+02  0.00000000000E+00 0. -1.
          4   -1    0    0  501    0  0.00000000000E+00 -0.00000000000E+00 -0.30115073518E+03  0.30115073518E+03  0.00000000000E+00 0.  1.
         25    2    1    2    0    0  0.25864591424E+02 -0.29021693615E+01 -0.16336787609E+03  0.20739854392E+03  0.12509074069E+03 0.  0.
          5    1    3    3  502    0 -0.48327462678E+02 -0.10940829551E+02 -0.43140879134E+02  0.65832007812E+02  0.41800000000E+01 0. -1.
         -5    1    3    3    0  502  0.74192054102E+02  0.80386601891E+01 -0.12022699695E+03  0.14156653611E+03  0.41800000000E+01 0. -1.
        -11    1    1    2    0    0 -0.39749401657E+02  0.29025093227E+02 -0.90641623978E+02  0.10314249835E+03  0.00000000000E+00 0.  1.
         11    1    1    2    0    0  0.13884810233E+02 -0.26122923866E+02 -0.72837608035E+01  0.30467167212E+02  0.00000000000E+00 0. -1.
</event>
<event>
 7    1  0.2380582E-009  0.1146491E+03  0.7561462E-02  0.1252195E+00
         -1   -1    0    0    0  501 -0.00000000000E+00  0.00000000000E+00  0.19253446595E+02  0.19253446595E+02  0.00000000000E+00 0.  1.
          1   -1    0    0  501    0  0.00000000000E+00 -0.00000000000E+00 -0.76338601261E+03  0.76338601261E+03  0.00000000000E+00 0. -1.
         25    2    1    2    0    0  0.36002931201E+02  0.40869849300E+02 -0.40134538942E+03  0.42390122029E+03  0.12509023668E+03 0.  0.
          5    1    3    3  502    0  0.57224328214E+02  0.73721726803E+02 -0.32298082981E+03  0.33621957939E+03  0.41800000000E+01 0.  1.
         -5    1    3    3    0  502 -0.21221397012E+02 -0.32851877503E+02 -0.78364559610E+02  0.87681640891E+02  0.41800000000E+01 0.  1.
        -11    1    1    2    0    0 -0.12643855896E+02  0.24258791340E+02 -0.42204879005E+02  0.50295207138E+02  0.00000000000E+00 0.  1.
         11    1    1    2    0    0 -0.23359075305E+02 -0.65128640640E+02 -0.30058229759E+03  0.30844303178E+03  0.00000000000E+00 0. -1.
</event>
<event>
 7    1  0.2380582E-009  0.9513184E+02  0.7561462E-02  0.1290879E+00
          1   -1    0    0  501    0  0.00000000000E+00  0.00000000000E+00  0.35691718283E+03  0.35691718283E+03  0.00000000000E+00 0. -1.
         -1   -1    0    0    0  501 -0.00000000000E+00 -0.00000000000E+00 -0.33725695111E+02  0.33725695111E+02  0.00000000000E+00 0.  1.
         25    2    1    2    0    0 -0.57288971220E+01 -0.16243911323E+02  0.16776757654E+03  0.20997643377E+03  0.12508980007E+03 0.  0.
          5    1    3    3  502    0 -0.32425459880E+02  0.30861263774E+02  0.14371427651E+03  0.15058251466E+03  0.41800000000E+01 0.  1.
         -5    1    3    3    0  502  0.26696562758E+02 -0.47105175097E+02  0.24053300038E+02  0.59393919106E+02  0.41800000000E+01 0.  1.
        -11    1    1    2    0    0 -0.27051034522E+02 -0.26006077681E+02  0.78174149852E+02  0.86713737379E+02  0.00000000000E+00 0. -1.
         11    1    1    2    0    0  0.32779931644E+02  0.42249989004E+02  0.77249761319E+02  0.93952706791E+02  0.00000000000E+00 0.  1.
</event>
<event>
 7    1  0.2380582E-009  0.1048853E+03  0.7561462E-02  0.1270346E+00
          2   -1    0    0  501    0  0.00000000000E+00  0.00000000000E+00  0.85473903239E+03  0.85473903239E+03  0.00000000000E+00 0. -1.
         -2   -1    0    0    0  501 -0.00000000000E+00 -0.00000000000E+00 -0.14553403063E+02  0.14553403063E+02  0.00000000000E+00 0.  1.
         25    2    1    2    0    0  0.14143135874E+02 -0.17719619359E+02  0.55237923002E+03  0.56681921978E+03  0.12508877231E+03 0.  0.
          5    1    3    3  502    0  0.65333137025E+02 -0.31642467955E+02  0.27976245596E+03  0.28905737967E+03  0.41800000000E+01 0. -1.
         -5    1    3    3    0  502 -0.51190001151E+02  0.13922848596E+02  0.27261677405E+03  0.27776184012E+03  0.41800000000E+01 0. -1.
        -11    1    1    2    0    0 -0.32288958635E+02 -0.22745710399E+02  0.20263001596E+03  0.20644337616E+03  0.00000000000E+00 0. -1.
         11    1    1    2    0    0  0.18145822761E+02  0.40465329758E+02  0.85176383345E+02  0.96029839507E+02  0.00000000000E+00 0.  1.
</event>
<event>
 7    1  0.2380582E-009  0.1090814E+03  0.7561462E-02  0.1262281E+00
         -2   -1    0    0    0  501 -0.00000000000E+00  0.00000000000E+00  0.37923882577E+02  0.37923882577E+02  0.00000000000E+00 0. -1.
          2   -1    0    0  501    0  0.00000000000E+00 -0.00000000000E+00 -0.69037523482E+03  0.69037523482E+03  0.00000000000E+00 0.  1.
         25    2    1    2    0    0 -0.60677581353E+02 -0.13515549697E+02 -0.57563616479E+03  0.59234303285E+03  0.12509530524E+03 0.  0.
          5    1    3    3  502    0 -0.70253710204E+02 -0.37890175132E+02 -0.54888592021E+03  0.55467510759E+03  0.41800000000E+01 0. -1.
         -5    1    3    3    0  502  0.95761288509E+01  0.24374625435E+02 -0.26750244576E+02  0.37667925264E+02  0.41800000000E+01 0. -1.
        -11    1    1    2    0    0 -0.21124938494E+02 -0.14073824090E+02 -0.22804216935E+02  0.34122834890E+02  0.00000000000E+00 0. -1.
         11    1    1    2    0    0  0.81802519847E+02  0.27589373787E+02 -0.54010970522E+02  0.10183324966E+03  0.00000000000E+00 0.  1.
</event>
<event>
 7    1  0.2380582E-009  0.3817963E+03  0.7561462E-02  0.1050272E+00
          2   -1    0    0  501    0  0.00000000000E+00  0.00000000000E+00  0.95281252302E+03  0.95281252302E+03  0.00000000000E+00 0. -1.
         -2   -1    0    0    0  501 -0.00000000000E+00 -0.00000000000E+00 -0.15420374289E+03  0.15420374289E+03  0.00000000000E+00 0.  1.
         25    2    1    2    0    0  0.30542494169E+03 -0.20070716408E+03  0.44462672916E+03  0.58898790103E+03  0.12508420584E+03 0.  0.
          5    1    3    3  502    0  0.29207232181E+03 -0.14154345489E+03  0.38843224741E+03  0.50619944095E+03  0.41800000000E+01 0.  1.
         -5    1    3    3    0  502  0.13352619882E+02 -0.59163709187E+02  0.56194481756E+02  0.82788460079E+02  0.41800000000E+01 0.  1.
        -11    1    1    2    0    0 -0.10038946096E+03  0.14868259170E+02  0.93156244894E+02  0.13775774013E+03  0.00000000000E+00 0.  1.
         11    1    1    2    0    0 -0.20503548074E+03  0.18583890491E+03  0.26082580607E+03  0.38027062475E+03  0.00000000000E+00 0. -1.
</event>
<event>
 7    1  0.2380582E-009  0.1021155E+03  0.7561462E-02  0.1275909E+00
          2   -1    0    0  501    0  0.00000000000E+00  0.00000000000E+00  0.79724506722E+03  0.79724506722E+03  0.00000000000E+00 0. -1.
         -2   -1    0    0    0  501 -0.00000000000E+00 -0.00000000000E+00 -0.19238032738E+02  0.19238032738E+02  0.00000000000E+00 0.  1.
         25    2    1    2    0    0 -0.29708527195E+02 -0.41155538834E+02  0.33422089751E+03  0.36045489940E+03  0.12509097171E+03 0.  0.
          5    1    3    3  502    0  0.24149721437E+02  0.13910507592E+02  0.14759863149E+02  0.31812532548E+02  0.41800000000E+01 0.  1.
         -5    1    3    3    0  502 -0.53858248632E+02 -0.55066046426E+02  0.31946103436E+03  0.32864236685E+03  0.41800000000E+01 0.  1.
        -11    1    1    2    0    0  0.58463859257E+02  0.15770549868E+02  0.34065500026E+03  0.34599503217E+03  0.00000000000E+00 0.  1.
         11    1    1    2    0    0 -0.28755332063E+02  0.25384988965E+02  0.10313113671E+03  0.11003316839E+03  0.00000000000E+00 0. -1.
</event>
<event>
 7    1  0.2380582E-009  0.9315557E+02  0.7561462E-02  0.1295385E+00
          1   -1    0    0  501    0  0.00000000000E+00  0.00000000000E+00  0.91943461737E+03  0.91943461737E+03  0.00000000000E+00 0. -1.
         -1   -1    0    0    0  501 -0.00000000000E+00 -0.00000000000E+00 -0.14495421024E+02  0.14495421024E+02  0.00000000000E+00 0.  1.
         25    2    1    2    0    0 -0.22541447092E+02 -0.28710917376E+02  0.61672519732E+03  0.63034142354E+03  0.12509159684E+03 0.  0.
          5    1    3    3  502    0 -0.25616840273E+02  0.29816309129E+02  0.69381299666E+02  0.79852814221E+02  0.41800000000E+01 0. -1.
         -5    1    3    3    0  502  0.30753931807E+01 -0.58527226505E+02  0.54734389766E+03  0.55048860932E+03  0.41800000000E+01 0. -1.
        -11    1    1    2    0    0  0.36066392184E+02 -0.17346463580E+02  0.74701454021E+02  0.84746632245E+02  0.00000000000E+00 0.  1.
         11    1    1    2    0    0 -0.13524945092E+02  0.46057380956E+02  0.21351254500E+03  0.21884198261E+03  0.00000000000E+00 0. -1.
</event>
<event>
 7    1  0.2380582E-009  0.1109489E+03  0.7561462E-02  0.1258823E+00
          2   -1    0    0  501    0  0.00000000000E+00  0.00000000000E+00  0.19856719270E+03  0.19856719270E+03  0.00000000000E+00 0. -1.
         -2   -1    0    0    0  501 -0.00000000000E+00 -0.00000000000E+00 -0.91476589548E+02  0.91476589548E+02  0.00000000000E+00 0.  1.
         25    2    1    2    0    0  0.18509891449E+02  0.62780890640E+02  0.63702221231E+01  0.14131700949E+03  0.12508341669E+03 0.  0.
          5    1    3    3  502    0  0.89984089608E+01 -0.29502746658E+02 -0.28418480868E+02  0.42148142059E+02  0.41800000000E+01 0.  1.
         -5    1    3    3    0  502  0.95114824883E+01  0.92283637298E+02  0.34788702991E+02  0.99168867433E+02  0.41800000000E+01 0.  1.
        -11    1    1    2    0    0 -0.82480348540E+01  0.16243122495E+02  0.52534188281E+02  0.55603147804E+02  0.00000000000E+00 0.  1.
         11    1    1    2    0    0 -0.10261856595E+02 -0.79024013135E+02  0.48186192748E+02  0.93123624953E+02  0.00000000000E+00 0. -1.
</event>
<event>
 7    1  0.2382036E-009  0.1640115E+03  0.7561462E-02  0.1184241E+00
         -2   -1    0    0    0  501 -0.00000000000E+00  0.00000000000E+00  0.19363353808E+02  0.19363353808E+02  0.00000000000E+00 0.  1.
          2   -1    0    0  501    0  0.00000000000E+00 -0.00000000000E+00 -0.18230608391E+04  0.18230608391E+04  0.00000000000E+00 0. -1.
         25    2    1    2    0    0 -0.10604104489E+03  0.10288247140E+03 -0.11364655998E+04  0.11528362147E+04  0.12509105574E+03 0.  0.
          5    1    3    3  502    0  0.10505782950E+02  0.88967423670E+01 -0.44957574482E+03  0.44980589839E+03  0.41800000000E+01 0. -1.
         -5    1    3    3    0  502 -0.11654682784E+03  0.93985729035E+02 -0.68688985499E+03  0.70303031630E+03  0.41800000000E+01 0. -1.
        -11    1    1    2    0    0  0.19283205018E+02 -0.67431654108E+02 -0.17532595474E+03  0.18883341965E+03  0.00000000000E+00 0.  1.
         11    1    1    2    0    0  0.86757839873E+02 -0.35450817294E+02 -0.49190593072E+03  0.50075455855E+03  0.00000000000E+00 0. -1.
</event>
<event>
 7    1  0.2380582E-009  0.9020068E+02  0.7561462E-02  0.1302366E+00
         -1   -1    0    0    0  501 -0.00000000000E+00  0.00000000000E+00  0.34212623924E+02  0.34212623924E+02  0.00000000000E+00 0.  1.
          1   -1    0    0  501    0  0.00000000000E+00 -0.00000000000E+00 -0.47300284228E+03  0.47300284228E+03  0.00000000000E+00 0. -1.
         25    2    1    2    0    0  0.38301519395E+02  0.66309336825E+02 -0.26647994675E+03  0.30418083437E+03  0.12510189222E+03 0.  0.
          5    1    3    3  502    0 -0.69716651832E+01 -0.49973632739E+00 -0.19825044012E+03  0.19841764856E+03  0.41800000000E+01 0.  1.
         -5    1    3    3    0  502  0.45273184578E+02  0.66809073153E+02 -0.68229506630E+02  0.10576318581E+03  0.41800000000E+01 0.  1.
        -11    1    1    2    0    0 -0.21770427905E+02  0.13339343680E+01 -0.10113983807E+03  0.10346495908E+03  0.00000000000E+00 0. -1.
         11    1    1    2    0    0 -0.16531091490E+02 -0.67643271193E+02 -0.71170433535E+02  0.99569672758E+02  0.00000000000E+00 0.  1.
</event>
<event>
 7    1  0.2380582E-009  0.2056314E+03  0.7561462E-02  0.1145073E+00
          2   -1    0    0  501    0  0.00000000000E+00  0.00000000000E+00  0.52785209385E+03  0.52785209385E+03  0.00000000000E+00 0.  1.
         -2   -1    0    0    0  501 -0.00000000000E+00 -0.00000000000E+00 -0.82039467683E+02  0.82039467683E+02  0.00000000000E+00 0. -1.
         25    2    1    2    0    0  0.17375827553E+03 -0.83648612208E+01  0.27643149083E+03  0.34974958111E+03  0.12509392928E+03 0.  0.
          5    1    3    3  502    0  0.35138611397E+02 -0.56854184292E+02  0.96455336779E+02  0.11742327144E+03  0.41800000000E+01 0.  1.
         -5    1    3    3    0  502  0.13861966414E+03  0.48489323071E+02  0.17997615405E+03  0.23232630967E+03  0.41800000000E+01 0.  1.
        -11    1    1    2    0    0 -0.12921711802E+03  0.47914413826E+02  0.12126053948E+03  0.18356735298E+03  0.00000000000E+00 0.  1.
         11    1    1    2    0    0 -0.44541157510E+02 -0.39549552605E+02  0.48120595852E+02  0.76574627448E+02  0.00000000000E+00 0. -1.
</event>
<event>
 7    1  0.2380582E-009  0.1306407E+03  0.7561462E-02  0.1226508E+00
         -4   -1    0    0    0  501 -0.00000000000E+00  0.00000000000E+00  0.53364688857E+02  0.53364688857E+02  0.00000000000E+00 0.  1.
          4   -1    0    0  501    0  0.00000000000E+00 -0.00000000000E+00 -0.36422551539E+03  0.36422551539E+03  0.00000000000E+00 0. -1.
         25    2    1    2    0    0  0.35509341836E+02  0.68095627319E+02 -0.16331282731E+03  0.21958290114E+03  0.12509053958E+03 0.  0.
          5    1    3    3  502    0  0.78609710509E+02  0.39690558958E+02 -0.68866486401E+02  0.11186997991E+03  0.41800000000E+01 0.  1.
         -5    1    3    3    0  502 -0.43100368673E+02  0.28405068360E+02 -0.94446340909E+02  0.10771292123E+03  0.41800000000E+01 0.  1.
        -11    1    1    2    0    0 -0.64321507289E+02 -0.23987933141E+02 -0.43191421077E+02  0.81105955953E+02  0.00000000000E+00 0.  1.
         11    1    1    2    0    0  0.28812165453E+02 -0.44107694178E+02 -0.10435657814E+03  0.11690134715E+03  0.00000000000E+00 0. -1.
</event>
<event>
 7    1  0.2380582E-009  0.1483337E+03  0.7561462E-02  0.1202536E+00
         -1   -1    0    0    0  501 -0.00000000000E+00  0.00000000000E+00  0.71629672642E+02  0.71629672642E+02  0.00000000000E+00 0.  1.
          1   -1    0    0  501    0  0.00000000000E+00 -0.00000000000E+00 -0.41941663247E+03  0.41941663247E+03  0.00000000000E+00 0. -1.
         25    2    1    2    0    0  0.91022874195E+02  0.55599444980E+02 -0.30068463275E+03  0.34268909022E+03  0.12509237498E+03 0.  0.
          5    1    3    3  502    0  0.11591624259E+03  0.26378395127E+02 -0.26339085572E+03  0.28900624613E+03  0.41800000000E+01 0.  1.
         -5    1    3    3    0  502 -0.24893368398E+02  0.29221049853E+02 -0.37293777024E+02  0.53682844089E+02  0.41800000000E+01 0.  1.
        -11    1    1    2    0    0 -0.69390726574E+02  0.99255797919E+01 -0.34820954190E+02  0.78269335754E+02  0.00000000000E+00 0. -1.
         11    1    1    2    0    0 -0.21632147621E+02 -0.65525024772E+02 -0.12281372894E+02  0.70087879139E+02  0.00000000000E+00 0.  1.
</event>
<event>
 7    1  0.2380582E-009  0.1148977E+03  0.7561462E-02  0.1251760E+00
         -1   -1    0    0    0  501 -0.00000000000E+00  0.00000000000E+00  0.23785069640E+03  0.23785069640E+03  0.00000000000E+00 0.  1.
          1   -1    0    0  501    0  0.00000000000E+00 -0.00000000000E+00 -0.57955673497E+02  0.57955673497E+02  0.00000000000E+00 0. -1.
         25    2    1    2    0    0 -0.25886497740E+02 -0.31333035545E+02  0.13205313534E+03  0.18637823582E+03  0.12508775461E+03 0.  0.
          5    1    3    3  502    0  0.50163805939E+02 -0.41223618867E+01  0.46627595829E+02  0.68738681880E+02  0.41800000000E+01 0.  1.
         -5    1    3    3    0  502 -0.76050303680E+02 -0.27210673658E+02  0.85425539510E+02  0.11763955394E+03  0.41800000000E+01 0.  1.
        -11    1    1    2    0    0  0.48740675351E+02 -0.11303210920E+02  0.23699080364E+02  0.55363005887E+02  0.00000000000E+00 0.  1.
         11    1    1    2    0    0 -0.22854177611E+02  0.42636246465E+02  0.24142807203E+02  0.54065128193E+02  0.00000000000E+00 0. -1.
</event>
<event>
 7    1  0.2380582E-009  0.1397285E+03  0.7561462E-02  0.1213695E+00
          1   -1    0    0  501    0  0.00000000000E+00  0.00000000000E+00  0.19709308891E+03  0.19709308891E+03  0.00000000000E+00 0. -1.
         -1   -1    0    0    0  501 -0.00000000000E+00 -0.00000000000E+00 -0.13778146425E+03  0.13778146425E+03  0.00000000000E+00 0.  1.
         25    2    1    2    0    0 -0.44030169523E+02  0.10720911010E+03  0.75666984642E+02  0.18656283689E+03  0.12509096860E+03 0.  0.
          5    1    3    3  502    0  0.25234730570E+02 -0.56718219439E+01 -0.10804022886E+02  0.28340086478E+02  0.41800000000E+01 0. -1.
         -5    1    3    3    0  502 -0.69264900093E+02  0.11288093204E+03  0.86471007528E+02  0.15822275041E+03  0.41800000000E+01 0. -1.
        -11    1    1    2    0    0  0.17659091887E+02 -0.83319992844E+02 -0.50483253216E+02  0.99008199606E+02  0.00000000000E+00 0.  1.
         11    1    1    2    0    0  0.26371077636E+02 -0.23889117255E+02  0.34127893234E+02  0.49303516664E+02  0.00000000000E+00 0. -1.
</event>
<event>
 7    1  0.2380582E-009  0.1429888E+03  0.7561462E-02  0.1209363E+00
          1   -1    0    0  501    0  0.00000000000E+00  0.00000000000E+00  0.24910745800E+03  0.24910745800E+03  0.00000000000E+00 0. -1.
         -1   -1    0    0    0  501 -0.00000000000E+00 -0.00000000000E+00 -0.95933484770E+02  0.95933484770E+02  0.00000000000E+00 0.  1.
         25    2    1    2    0    0 -0.57683559953E+02  0.94373260858E+02  0.83054105105E+02  0.18649464305E+03  0.12509421272E+03 0.  0.
          5    1    3    3  502    0 -0.13653540126E+02 -0.22136843611E+02  0.51644793512E+02  0.57975133462E+02  0.41800000000E+01 0.  1.
         -5    1    3    3    0  502 -0.44030019828E+02  0.11651010447E+03  0.31409311593E+02  0.12851950959E+03  0.41800000000E+01 0.  1.
        -11    1    1    2    0    0  0.42957632194E+02 -0.10719815554E+03  0.75884389034E+02  0.13818553909E+03  0.00000000000E+00 0. -1.
         11    1    1    2    0    0  0.14725927759E+02  0.12824894684E+02 -0.57645209111E+01  0.20360760628E+02  0.00000000000E+00 0.  1.
</event>
<event>
 7    1  0.2380582E-009  0.1050529E+03  0.7561462E-02  0.1270015E+00
          3   -1    0    0  501    0  0.00000000000E+00  0.00000000000E+00  0.17775069213E+03  0.17775069213E+03  0.00000000000E+00 0. -1.
         -3   -1    0    0    0  501 -0.00000000000E+00 -0.00000000000E+00 -0.66040933675E+02  0.66040933675E+02  0.00000000000E+00 0.  1.
         25    2    1    2    0    0  0.37743722149E+01 -0.90123227129E+00  0.78475346526E+02  0.14772065994E+03  0.12509178733E+03 0.  0.
          5    1    3    3  502    0  0.56234119500E+02 -0.27068574225E+02  0.22262119006E+02  0.66393209360E+02  0.41800000000E+01 0.  1.
         -5    1    3    3    0  502 -0.52459747285E+02  0.26167341953E+02  0.56213227520E+02  0.81327450583E+02  0.41800000000E+01 0.  1.
        -11    1    1    2    0    0 -0.45801162652E+02  0.69436036043E+01  0.25611824126E+02  0.52933218930E+02  0.00000000000E+00 0. -1.
         11    1    1    2    0    0  0.42026790437E+02 -0.60423713330E+01  0.76225878049E+01  0.43137746935E+02  0.00000000000E+00 0.  1.
</event>
<event>
 7    1  0.2380582E-009  0.1310881E+03  0.7561462E-02  0.1225850E+00
          1   -1    0    0  501    0  0.00000000000E+00  0.00000000000E+00  0.41126881425E+02  0.41126881425E+02  0.00000000000E+00 0. -1.
         -1   -1    0    0    0  501 -0.00000000000E+00 -0.00000000000E+00 -0.59899553858E+03  0.59899553858E+03  0.00000000000E+00 0.  1.
         25    2    1    2    0    0  0.94710620575E+02 -0.18980792463E+02 -0.42216124005E+03  0.45077562657E+03  0.12509268875E+03 0.  0.
          5    1    3    3  502    0 -0.21250837208E+02 -0.85494083481E+01 -0.16041689674E+02  0.28275407561E+02  0.41800000000E+01 0. -1.
         -5    1    3    3    0  502  0.11596145778E+03 -0.10431384115E+02 -0.40611955038E+03  0.42250021901E+03  0.41800000000E+01 0. -1.
        -11    1    1    2    0    0 -0.27101856559E+02 -0.28839623355E+02 -0.13680062698E+02  0.41873364083E+02  0.00000000000E+00 0. -1.
         11    1    1    2    0    0 -0.67608764016E+02  0.47820415818E+02 -0.12202735441E+03  0.14747342935E+03  0.00000000000E+00 0.  1.
</event>
<event>
 7    1  0.2380582E-009  0.9528660E+02  0.7561462E-02  0.1290532E+00
         -1   -1    0    0    0  501 -0.00000000000E+00  0.00000000000E+00  0.30948995232E+02  0.30948995232E+02  0.00000000000E+00 0.  1.
          1   -1    0    0  501    0  0.00000000000E+00 -0.00000000000E+00 -0.51504369018E+03  0.51504369018E+03  0.00000000000E+00 0. -1.
         25    2    1    2    0    0  0.14382753797E+02 -0.53434012062E+02 -0.36468102018E+03  0.38949266957E+03  0.12510090295E+03 0.  0.
          5    1    3    3  502    0 -0.30728704274E+02 -0.72186218222E+02 -0.28760043630E+03  0.29813853614E+03  0.41800000000E+01 0. -1.
         -5    1    3    3    0  502  0.45111458071E+02  0.18752206160E+02 -0.77080583876E+02  0.91354133436E+02  0.41800000000E+01 0. -1.
        -11    1    1    2    0    0  0.40278608750E+01  0.39955705708E+02 -0.12640919465E+03  0.13263471104E+03  0.00000000000E+00 0. -1.
         11    1    1    2    0    0 -0.18410614672E+02  0.13478306355E+02  0.69955198774E+01  0.23865304799E+02  0.00000000000E+00 0.  1.
</event>
<event>
 7    1  0.2380582E-009  0.6611647E+02  0.7561462E-02  0.1373820E+00
         -2   -1    0    0    0  501 -0.00000000000E+00  0.00000000000E+00  0.40822117867E+02  0.40822117867E+02  0.00000000000E+00 0.  1.
          2   -1    0    0  501    0  0.00000000000E+00 -0.00000000000E+00 -0.35558695272E+03  0.35558695272E+03  0.00000000000E+00 0. -1.
         25    2    1    2    0    0 -0.37429579254E+02 -0.31771287330E+02 -0.12242393372E+03  0.18178324704E+03  0.12508853367E+03 0.  0.
          5    1    3    3  502    0  0.58385266222E+01 -0.27279626331E+02 -0.13370609987E+03  0.13664940522E+03  0.41800000000E+01 0. -1.
         -5    1    3    3    0  502 -0.43268105877E+02 -0.44916609987E+01  0.11282166147E+02  0.45133841822E+02  0.41800000000E+01 0. -1.
        -11    1    1    2    0    0  0.34591708951E+02  0.68783567025E+01 -0.18526417867E+03  0.18859139434E+03  0.00000000000E+00 0. -1.
         11    1    1    2    0    0  0.28378703033E+01  0.24892930627E+02 -0.70767224579E+01  0.26034429201E+02  0.00000000000E+00 0.  1.
</event>
<event>
 7    1  0.2380582E-009  0.1899254E+03  0.7561462E-02  0.1158529E+00
          1   -1    0    0  501    0  0.00000000000E+00  0.00000000000E+00  0.21190927416E+03  0.21190927416E+03  0.00000000000E+00 0. -1.
         -1   -1    0    0    0  501 -0.00000000000E+00 -0.00000000000E+00 -0.17706193343E+03  0.17706193343E+03  0.00000000000E+00 0.  1.
         25    2    1    2    0    0  0.14597007328E+03  0.60639559109E+02  0.55782972924E+01  0.20165194135E+03  0.12509184477E+03 0.  0.
          5    1    3    3  502    0  0.10331758652E+03  0.96063886482E+02 -0.15929025537E+02  0.14203520769E+03  0.41800000000E+01 0. -1.
         -5    1    3    3    0  502  0.42652486758E+02 -0.35424327373E+02  0.21507322829E+02  0.59616733656E+02  0.41800000000E+01 0. -1.
        -11    1    1    2    0    0 -0.85384622626E+02 -0.82471918159E+02  0.60578209530E+01  0.11886483189E+03  0.00000000000E+00 0.  1.
         11    1    1    2    0    0 -0.60585450649E+02  0.21832359050E+02  0.23211222489E+02  0.68454434345E+02  0.00000000000E+00 0. -1.
</event>
<event>
 7    1  0.2380582E-009  0.1322986E+03  0.7561462E-02  0.1224084E+00
         -3   -1    0    0    0  501 -0.00000000000E+00  0.00000000000E+00  0.12338020905E+03  0.12338020905E+03  0.00000000000E+00 0.  1.
          3   -1    0    0  501    0  0.00000000000E+00 -0.00000000000E+00 -0.18248937919E+03  0.18248937919E+03  0.00000000000E+00 0. -1.
         25    2    1    2    0    0 -0.10128485292E+03  0.18039957813E+02 -0.36971967515E+02  0.16612567645E+03  0.12508697967E+03 0.  0.
          5    1    3    3  502    0  0.24308643658E+02 -0.17722947610E+02 -0.14100592771E+02  0.33485999238E+02  0.41800000000E+01 0.  1.
         -5    1    3    3    0  502 -0.12559349658E+03  0.35762905423E+02 -0.22871374745E+02  0.13263967721E+03  0.41800000000E+01 0.  1.
        -11    1    1    2    0    0  0.33202021124E+02 -0.24892397901E+00 -0.53290061054E+02  0.62787473089E+02  0.00000000000E+00 0. -1.
         11    1    1    2    0    0  0.68082831799E+02 -0.17791033834E+02  0.31152858425E+02  0.76956438708E+02  0.00000000000E+00 0.  1.
</event>
<event>
 7    1  0.2380582E-009  0.1053770E+03  0.7561462E-02  0.1269379E+00
         -1   -1    0    0    0  501 -0.00000000000E+00  0.00000000000E+00  0.29303975868E+02  0.29303975868E+02  0.00000000000E+00 0.  1.
          1   -1    0    0  501    0  0.00000000000E+00 -0.00000000000E+00 -0.49409108001E+03  0.49409108001E+03  0.00000000000E+00 0. -1.
         25    2    1    2    0    0 -0.54454160968E+02 -0.87302705923E+01 -0.31239372225E+03  0.34099862562E+03  0.12509497072E+03 0.  0.
          5    1    3    3  502    0 -0.35054256254E+02  0.55454155714E+02 -0.11471498425E+03  0.13221559771E+03  0.41800000000E+01 0. -1.
         -5    1    3    3    0  502 -0.19399904714E+02 -0.64184426306E+02 -0.19767873800E+03  0.20878302791E+03  0.41800000000E+01 0. -1.
        -11    1    1    2    0    0 -0.91312870245E+01  0.10890119659E+02  0.29629846407E+01  0.14517382233E+02  0.00000000000E+00 0.  1.
         11    1    1    2    0    0  0.63585447993E+02 -0.21598490664E+01 -0.15535636653E+03  0.16787904802E+03  0.00000000000E+00 0. -1.
</event>
<event>
 7    1  0.2380582E-009  0.1207850E+03  0.7561462E-02  0.1241808E+00
         -2   -1    0    0    0  501 -0.00000000000E+00  0.00000000000E+00  0.34488666133E+02  0.34488666133E+02  0.00000000000E+00 0.  1.
          2   -1    0    0  501    0  0.00000000000E+00 -0.00000000000E+00 -0.60365865974E+03  0.60365865974E+03  0.00000000000E+00 0. -1.
         25    2    1    2    0    0  0.92306999216E+02 -0.24444210104E+02 -0.31435388153E+03  0.35154507929E+03  0.12508988141E+03 0.  0.
          5    1    3    3  502    0  0.91521881119E+02  0.23514779740E+02 -0.12851569981E+03  0.15957116621E+03  0.41800000000E+01 0.  1.
         -5    1    3    3    0  502  0.78511809648E+00 -0.47958989844E+02 -0.18583818172E+03  0.19197391308E+03  0.41800000000E+01 0.  1.
        -11    1    1    2    0    0 -0.37029526373E+02  0.22897034824E+02 -0.21265018630E+03  0.21706119358E+03  0.00000000000E+00 0. -1.
         11    1    1    2    0    0 -0.55277472843E+02  0.15471752800E+01 -0.42165925783E+02  0.69541053000E+02  0.00000000000E+00 0.  1.
</event>
<event>
 7    1  0.2380582E-009  0.1333084E+03  0.7561462E-02  0.1222628E+00
         -1   -1    0    0    0  501 -0.00000000000E+00  0.00000000000E+00  0.95214164030E+02  0.95214164030E+02  0.00000000000E+00 0.  1.
          1   -1    0    0  501    0  0.00000000000E+00 -0.00000000000E+00 -0.26677384585E+03  0.26677384585E+03  0.00000000000E+00 0. -1.
         25    2    1    2    0    0  0.17789765893E+02 -0.10789001820E+03 -0.48607645038E+02  0.17311079157E+03  0.12509161125E+03 0.  0.
          5    1    3    3  502    0  0.55369242264E+01 -0.11438202931E+03  0.78156221756E+01  0.11485844552E+03  0.41800000000E+01 0. -1.
         -5    1    3    3    0  502  0.12252841667E+02  0.64920111095E+01 -0.56423267214E+02  0.58252346049E+02  0.41800000000E+01 0. -1.
        -11    1    1    2    0    0 -0.12241560059E+02  0.12187928578E+03 -0.88008439446E+02  0.15083070480E+03  0.00000000000E+00 0.  1.
         11    1    1    2    0    0 -0.55482058342E+01 -0.13989267586E+02 -0.34943597339E+02  0.38046513514E+02  0.00000000000E+00 0. -1.
</event>
<event>
 7    1  0.2380582E-009  0.3162096E+03  0.7561462E-02  0.1077407E+00
         -2   -1    0    0    0  501 -0.00000000000E+00  0.00000000000E+00  0.44830778015E+02  0.44830778015E+02  0.00000000000E+00 0.  1.
          2   -1    0    0  501    0  0.00000000000E+00 -0.00000000000E+00 -0.28414471624E+04  0.28414471624E+04  0.00000000000E+00 0. -1.
         25    2    1    2    0    0  0.24999018616E+03 -0.18859335662E+03 -0.19575228178E+04  0.19863548495E+04  0.12508980220E+03 0.  0.
          5    1    3    3  502    0  0.68594319742E+02 -0.64078891512E+02 -0.30224760035E+03  0.31651598594E+03  0.41800000000E+01 0. -1.
         -5    1    3    3    0  502  0.18139586642E+03 -0.12451446511E+03 -0.16552752174E+04  0.16698388636E+04  0.41800000000E+01 0. -1.
        -11    1    1    2    0    0 -0.60698342211E+02  0.17315484885E+02 -0.10280220271E+03  0.12063336042E+03  0.00000000000E+00 0.  1.
         11    1    1    2    0    0 -0.18929184395E+03  0.17127787173E+03 -0.73629136392E+03  0.77928973053E+03  0.00000000000E+00 0. -1.
</event>
<event>
 7    1  0.2380582E-009  0.1685657E+03  0.7561462E-02  0.1179352E+00
          2   -1    0    0  501    0  0.00000000000E+00  0.00000000000E+00  0.96863549456E+02  0.96863549456E+02  0.00000000000E+00 0. -1.
         -2   -1    0    0    0  501 -0.00000000000E+00 -0.00000000000E+00 -0.39513025703E+03  0.39513025703E+03  0.00000000000E+00 0.  1.
         25    2    1    2    0    0 -0.53355586102E+02  0.13289168999E+03 -0.24756165754E+03  0.31215420673E+03  0.12508578920E+03 0.  0.
          5    1    3    3  502    0 -0.98295998725E+01 -0.10320634593E+02 -0.10284625011E+03  0.10391323348E+03  0.41800000000E+01 0.  1.
         -5    1    3    3    0  502 -0.43525986229E+02  0.14321232459E+03 -0.14471540743E+03  0.20824097325E+03  0.41800000000E+01 0.  1.
        -11    1    1    2    0    0  0.21543192369E+02  0.11682340958E+02 -0.67751757893E+01  0.25426152573E+02  0.00000000000E+00 0.  1.
         11    1    1    2    0    0  0.31812393733E+02 -0.14457403095E+03 -0.43929874248E+02  0.15441344718E+03  0.00000000000E+00 0. -1.
</event>
<event>
 7    1  0.2380582E-009  0.1600471E+03  0.7561462E-02  0.1188644E+00
          1   -1    0    0  501    0  0.00000000000E+00  0.00000000000E+00  0.79747215978E+02  0.79747215978E+02  0.00000000000E+00 0. -1.
         -1   -1    0    0    0  501 -0.00000000000E+00 -0.00000000000E+00 -0.33568776211E+03  0.33568776211E+03  0.00000000000E+00 0.  1.
         25    2    1    2    0    0 -0.11088064195E+03  0.51711925117E+02 -0.14198929872E+03  0.22533604391E+03  0.12508689690E+03 0.  0.
          5    1    3    3  502    0 -0.22193037220E+02 -0.39516094068E+02 -0.22625639513E+02  0.50827596390E+02  0.41800000000E+01 0.  1.
         -5    1    3    3    0  502 -0.88687604728E+02  0.91228019185E+02 -0.11936365921E+03  0.17450844752E+03  0.41800000000E+01 0.  1.
        -11    1    1    2    0    0  0.16504955737E+02  0.22018093309E+02 -0.42535531044E+02  0.50660452012E+02  0.00000000000E+00 0.  1.
         11    1    1    2    0    0  0.94375686210E+02 -0.73730018426E+02 -0.71415716373E+02  0.13943848217E+03  0.00000000000E+00 0. -1.
</event>
<event>
 7    1  0.2380582E-009  0.1162171E+03  0.7561462E-02  0.1249471E+00
         -1   -1    0    0    0  501 -0.00000000000E+00  0.00000000000E+00  0.95219164361E+02  0.95219164361E+02  0.00000000000E+00 0.  1.
          1   -1    0    0  501    0  0.00000000000E+00 -0.00000000000E+00 -0.17510218258E+03  0.17510218258E+03  0.00000000000E+00 0. -1.
         25    2    1    2    0    0 -0.41054074866E+02  0.97729743415E+01 -0.10205508727E+03  0.16686534876E+03  0.12509138934E+03 0.  0.
          5    1    3    3  502    0 -0.10465243316E+02 -0.56972517209E+02 -0.51530074847E+02  0.77641548468E+02  0.41800000000E+01 0. -1.
         -5    1    3    3    0  502 -0.30588831551E+02  0.66745491550E+02 -0.50525012419E+02  0.89223800288E+02  0.41800000000E+01 0. -1.
        -11    1    1    2    0    0  0.10140831007E+02 -0.49473141375E+02  0.14625281197E+02  0.52576867738E+02  0.00000000000E+00 0. -1.
         11    1    1    2    0    0  0.30913243860E+02  0.39700167034E+02  0.75467878483E+01  0.50879130449E+02  0.00000000000E+00 0.  1.
</event>
<event>
 7    1  0.2380582E-009  0.8999431E+02  0.7561462E-02  0.1302865E+00
          2   -1    0    0  501    0  0.00000000000E+00  0.00000000000E+00  0.89963801011E+02  0.89963801011E+02  0.00000000000E+00 0. -1.
         -2   -1    0    0    0  501 -0.00000000000E+00 -0.00000000000E+00 -0.17506944970E+03  0.17506944970E+03  0.00000000000E+00 0.  1.
         25    2    1    2    0    0 -0.11577690878E+02 -0.34892020069E+02  0.59245371515E+01  0.13051550628E+03  0.12509077203E+03 0.  0.
          5    1    3    3  502    0  0.30597726465E+02 -0.16541731389E+02 -0.48058558121E+02  0.59472238489E+02  0.41800000000E+01 0.  1.
         -5    1    3    3    0  502 -0.42175417343E+02 -0.18350288679E+02  0.53983095272E+02  0.71043267787E+02  0.41800000000E+01 0.  1.
        -11    1    1    2    0    0 -0.27111357900E+02  0.50288687831E+02 -0.57486800983E+02  0.81047579472E+02  0.00000000000E+00 0. -1.
         11    1    1    2    0    0  0.38689048777E+02 -0.15396667762E+02 -0.33543384854E+02  0.53470164961E+02  0.00000000000E+00 0.  1.
</event>
<event>
 7    1  0.2380582E-009  0.1117021E+03  0.7561462E-02  0.1257450E+00
          3   -1    0    0  501    0  0.00000000000E+00  0.00000000000E+00  0.24499893021E+02  0.24499893021E+02  0.00000000000E+00 0. -1.
         -3   -1    0    0    0  501 -0.00000000000E+00 -0.00000000000E+00 -0.98553241501E+03  0.98553241501E+03  0.00000000000E+00 0.  1.
         25    2    1    2    0    0  0.68561931506E+02 -0.31098250216E+02 -0.78238468537E+03  0.79589036710E+03  0.12509133033E+03 0.  0.
          5    1    3    3  502    0 -0.12999462514E+02  0.32156751068E+02 -0.10462569552E+03  0.11030435725E+03  0.41800000000E+01 0. -1.
         -5    1    3    3    0  502  0.81561394020E+02 -0.63255001284E+02 -0.67775898985E+03  0.68558600985E+03  0.41800000000E+01 0. -1.
        -11    1    1    2    0    0 -0.92486059927E+01  0.23643770093E+02 -0.14150118612E+03  0.14376073960E+03  0.00000000000E+00 0.  1.
         11    1    1    2    0    0 -0.59313325513E+02  0.74544801235E+01 -0.37146650497E+02  0.70381201329E+02  0.00000000000E+00 0. -1.
</event>
<event>
 7    1  0.2713842E-009  0.1139340E+03  0.7561462E-02  0.1253453E+00
         -1   -1    0    0    0  501 -0.00000000000E+00  0.00000000000E+00  0.71279489714E+01  0.71279489714E+01  0.00000000000E+00 0.  1.
          1   -1    0    0  501    0  0.00000000000E+00 -0.00000000000E+00 -0.24264000578E+04  0.24264000578E+04  0.00000000000E+00 0. -1.
         25    2    1    2    0    0  0.43103426210E+02 -0.21806233726E+02 -0.18681555124E+04  0.18729619714E+04  0.12509240787E+03 0.  0.
          5    1    3    3  502    0  0.83250707777E+02 -0.17760307239E+02 -0.92003704238E+03  0.92397604980E+03  0.41800000000E+01 0.  1.
         -5    1    3    3    0  502 -0.40147281567E+02 -0.40459264867E+01 -0.94811847006E+03  0.94898592161E+03  0.41800000000E+01 0.  1.
        -11    1    1    2    0    0 -0.58828520828E+02  0.44990730513E+02 -0.42144421520E+03  0.42790207667E+03  0.00000000000E+00 0.  1.
         11    1    1    2    0    0  0.15725094618E+02 -0.23184496787E+02 -0.12967238119E+03  0.13266395869E+03  0.00000000000E+00 0. -1.
</event>
<event>
 7    1  0.2380582E-009  0.1097767E+03  0.7561462E-02  0.1260984E+00
          2   -1    0    0  501    0  0.00000000000E+00  0.00000000000E+00  0.41016359347E+03  0.41016359347E+03  0.00000000000E+00 0. -1.
         -2   -1    0    0    0  501 -0.00000000000E+00 -0.00000000000E+00 -0.30065902326E+02  0.30065902326E+02  0.00000000000E+00 0.  1.
         25    2    1    2    0    0  0.33504858808E+01  0.96662521057E+01  0.23074707152E+03  0.26267337426E+03  0.12509367829E+03 0.  0.
          5    1    3    3  502    0 -0.58743742310E+02 -0.90283244796E+01  0.94339709801E+02  0.11157863213E+03  0.41800000000E+01 0.  1.
         -5    1    3    3    0  502  0.62094228191E+02  0.18694576585E+02  0.13640736172E+03  0.15109474213E+03  0.41800000000E+01 0.  1.
        -11    1    1    2    0    0  0.18044352469E+02  0.38372576729E+02  0.79751831416E+02  0.90323905557E+02  0.00000000000E+00 0.  1.
         11    1    1    2    0    0 -0.21394838350E+02 -0.48038828835E+02  0.69598788204E+02  0.87232215971E+02  0.00000000000E+00 0. -1.
</event>
<event>
 7    1  0.2380582E-009  0.3110930E+03  0.7561462E-02  0.1079823E+00
          1   -1    0    0  501    0  0.00000000000E+00  0.00000000000E+00  0.93640522828E+03  0.93640522828E+03  0.00000000000E+00 0. -1.
         -1   -1    0    0    0  501 -0.00000000000E+00 -0.00000000000E+00 -0.11631678657E+03  0.11631678657E+03  0.00000000000E+00 0.  1.
         25    2    1    2    0    0 -0.73851432508E+02 -0.28945164078E+03  0.27649788204E+03  0.42583494178E+03  0.12509209581E+03 0.  0.
          5    1    3    3  502    0 -0.96623229951E+02 -0.27989238677E+03  0.26796698020E+03  0.39937397463E+03  0.41800000000E+01 0. -1.
         -5    1    3    3    0  502  0.22771797443E+02 -0.95592540130E+01  0.85309018391E+01  0.26460967145E+02  0.41800000000E+01 0. -1.
        -11    1    1    2    0    0  0.27533950949E+02  0.49650335893E+02  0.47848960044E+02  0.74248214029E+02  0.00000000000E+00 0.  1.
         11    1    1    2    0    0  0.46317481558E+02  0.23980130489E+03  0.49574159963E+03  0.55263885905E+03  0.00000000000E+00 0. -1.
</event>
<event>
 7    1  0.2380582E-009  0.1259662E+03  0.7561462E-02  0.1233567E+00
          2   -1    0    0  501    0  0.00000000000E+00  0.00000000000E+00  0.36131853493E+03  0.36131853493E+03  0.00000000000E+00 0.  1.
         -2   -1    0    0    0  501 -0.00000000000E+00 -0.00000000000E+00 -0.55809170299E+02  0.55809170299E+02  0.00000000000E+00 0. -1.
         25    2    1    2    0    0 -0.75585830594E+02 -0.12160716444E+02  0.23765365449E+03  0.27926330617E+03  0.12509050272E+03 0.  0.
          5    1    3    3  502    0 -0.10727266137E+03 -0.19516743985E+02  0.14856486552E+03  0.18432937596E+03  0.41800000000E+01 0.  1.
         -5    1    3    3    0  502  0.31686830779E+02  0.73560275407E+01  0.89088788970E+02  0.94933930215E+02  0.41800000000E+01 0.  1.
        -11    1    1    2    0    0  0.62771801440E+02 -0.27360118003E+02  0.14078051540E+02  0.69907557877E+02  0.00000000000E+00 0. -1.
         11    1    1    2    0    0  0.12814029154E+02  0.39520834448E+02  0.53777658605E+02  0.67956841183E+02  0.00000000000E+00 0.  1.
</event>
<event>
 7    1  0.2380582E-009  0.1711517E+03  0.7561462E-02  0.1176652E+00
         -1   -1    0    0    0  501 -0.00000000000E+00  0.00000000000E+00  0.57162984590E+02  0.57162984590E+02  0.00000000000E+00 0.  1.
          1   -1    0    0  501    0  0.00000000000E+00 -0.00000000000E+00 -0.64670742184E+03  0.64670742184E+03  0.00000000000E+00 0. -1.
         25    2    1    2    0    0 -0.14017126833E+03 -0.65758575298E+02 -0.33518056631E+03  0.38982713690E+03  0.12508800878E+03 0.  0.
          5    1    3    3  502    0 -0.37628023147E+02  0.23941443093E+02 -0.16931975366E+03  0.17514483207E+03  0.41800000000E+01 0. -1.
         -5    1    3    3    0  502 -0.10254324518E+03 -0.89700018391E+02 -0.16586081265E+03  0.21468230483E+03  0.41800000000E+01 0. -1.
        -11    1    1    2    0    0  0.59811599256E+02  0.52849774512E+02 -0.50289660370E+02  0.94337564160E+02  0.00000000000E+00 0.  1.
         11    1    1    2    0    0  0.80359669076E+02  0.12908800786E+02 -0.20407421058E+03  0.21970570537E+03  0.00000000000E+00 0. -1.
</event>
<event>
 7    1  0.2380582E-009  0.1375764E+03  0.7561462E-02  0.1216628E+00
          2   -1    0    0  501    0  0.00000000000E+00  0.00000000000E+00  0.10915544570E+03  0.10915544570E+03  0.00000000000E+00 0. -1.
         -2   -1    0    0    0  501 -0.00000000000E+00 -0.00000000000E+00 -0.23566419913E+03  0.23566419913E+03  0.00000000000E+00 0.  1.
         25    2    1    2    0    0 -0.76801103498E+02  0.79383810103E+02 -0.15530105312E+02  0.16759748732E+03  0.12509010665E+03 0.  0.
          5    1    3    3  502    0 -0.72202378309E+02  0.11078422108E+03 -0.66224711502E+00  0.13230358289E+03  0.41800000000E+01 0. -1.
         -5    1    3    3    0  502 -0.45987251888E+01 -0.31400410977E+02 -0.14867858197E+02  0.35293904435E+02  0.41800000000E+01 0. -1.
        -11    1    1    2    0    0  0.61833656058E+02 -0.58291947519E+02 -0.26715110175E+02  0.89078893565E+02  0.00000000000E+00 0. -1.
         11    1    1    2    0    0  0.14967447441E+02 -0.21091862584E+02 -0.84263537951E+02  0.88143263941E+02  0.00000000000E+00 0.  1.
</event>
<event>
 7    1  0.2380582E-009  0.1216089E+03  0.7561462E-02  0.1240466E+00
          1   -1    0    0  501    0  0.00000000000E+00  0.00000000000E+00  0.38633134184E+03  0.38633134184E+03  0.00000000000E+00 0. -1.
         -1   -1    0    0    0  501 -0.00000000000E+00 -0.00000000000E+00 -0.98852991228E+02  0.98852991228E+02  0.00000000000E+00 0.  1.
         25    2    1    2    0    0  0.10155144153E+03  0.12601967116E+02 -0.55894725873E+01  0.16170689873E+03  0.12508546695E+03 0.  0.
          5    1    3    3  502    0  0.67117424528E+02 -0.18344522479E+02 -0.58698481253E+02  0.91127681204E+02  0.41800000000E+01 0.  1.
         -5    1    3    3    0  502  0.34434017001E+02  0.30946489594E+02  0.53109008665E+02  0.70579217525E+02  0.41800000000E+01 0.  1.
        -11    1    1    2    0    0 -0.89828391760E+02 -0.39163579844E+02  0.26715963513E+03  0.28456492509E+03  0.00000000000E+00 0. -1.
         11    1    1    2    0    0 -0.11723049770E+02  0.26561612729E+02  0.25908188075E+02  0.38912509248E+02  0.00000000000E+00 0.  1.
</event>
<event>
 7    1  0.2380582E-009  0.2108370E+03  0.7561462E-02  0.1140905E+00
         -1   -1    0    0    0  501 -0.00000000000E+00  0.00000000000E+00  0.11305763000E+03  0.11305763000E+03  0.00000000000E+00 0.  1.
          1   -1    0    0  501    0  0.00000000000E+00 -0.00000000000E+00 -0.49851614331E+03  0.49851614331E+03  0.00000000000E+00 0. -1.
         25    2    1    2    0    0  0.93141098526E+02 -0.18527149239E+03 -0.24761140610E+03  0.34635201777E+03  0.12509005419E+03 0.  0.
          5    1    3    3  502    0 -0.64420241476E+00 -0.14167718836E+02  0.13730974033E+02  0.20177990526E+02  0.41800000000E+01 0.  1.
         -5    1    3    3    0  502  0.93785300941E+02 -0.17110377356E+03 -0.26134238013E+03  0.32617402725E+03  0.41800000000E+01 0.  1.
        -11    1    1    2    0    0 -0.97135518951E+02  0.16860278907E+03 -0.14873366642E+03  0.24491613473E+03  0.00000000000E+00 0. -1.
         11    1    1    2    0    0  0.39944204251E+01  0.16668703326E+02  0.10886559208E+02  0.20305620810E+02  0.00000000000E+00 0.  1.
</event>
<event>
 7    1  0.2380582E-009  0.1036592E+03  0.7561462E-02  0.1272784E+00
          2   -1    0    0  501    0  0.00000000000E+00  0.00000000000E+00  0.52509165360E+03  0.52509165360E+03  0.00000000000E+00 0. -1.
         -2   -1    0    0    0  501 -0.00000000000E+00 -0.00000000000E+00 -0.38911228005E+02  0.38911228005E+02  0.00000000000E+00 0.  1.
         25    2    1    2    0    0  0.31451488556E+02  0.20108763937E+02  0.43401091036E+03  0.45321657041E+03  0.12508489462E+03 0.  0.
          5    1    3    3  502    0  0.41735391134E+02 -0.44352903205E+02  0.15378713255E+03  0.16545989675E+03  0.41800000000E+01 0.  1.
         -5    1    3    3    0  502 -0.10283902578E+02  0.64461667142E+02  0.28022377782E+03  0.28775667366E+03  0.41800000000E+01 0.  1.
        -11    1    1    2    0    0 -0.44581435912E+02  0.12004219663E+02 -0.22773907136E+01  0.46225449983E+02  0.00000000000E+00 0.  1.
         11    1    1    2    0    0  0.13129947356E+02 -0.32112983599E+02  0.54446905946E+02  0.64560861211E+02  0.00000000000E+00 0. -1.
</event>
<event>
 7    1  0.2380582E-009  0.1717873E+03  0.7561462E-02  0.1175997E+00
          2   -1    0    0  501    0  0.00000000000E+00  0.00000000000E+00  0.21431984279E+03  0.21431984279E+03  0.00000000000E+00 0. -1.
         -2   -1    0    0    0  501 -0.00000000000E+00 -0.00000000000E+00 -0.20115434277E+03  0.20115434277E+03  0.00000000000E+00 0.  1.
         25    2    1    2    0    0 -0.64176661694E+02 -0.15633809420E+03 -0.10354326726E+02  0.21051277586E+03  0.12509265812E+03 0.  0.
          5    1    3    3  502    0 -0.59184475560E+02 -0.99789292050E+02  0.51014180918E+02  0.12680940032E+03  0.41800000000E+01 0. -1.
         -5    1    3    3    0  502 -0.49921861339E+01 -0.56548802148E+02 -0.61368507644E+02  0.83703375543E+02  0.41800000000E+01 0. -1.
        -11    1    1    2    0    0  0.22604975616E+02  0.85340607400E+02  0.67998275149E+02  0.11143504663E+03  0.00000000000E+00 0. -1.
         11    1    1    2    0    0  0.41571686078E+02  0.70997486798E+02 -0.44478448403E+02  0.93526363061E+02  0.00000000000E+00 0.  1.
</event>
<event>
 7    1  0.2380582E-009  0.1027177E+03  0.7561462E-02  0.1274683E+00
          2   -1    0    0  501    0  0.00000000000E+00  0.00000000000E+00  0.75613329505E+03  0.75613329505E+03  0.00000000000E+00 0. -1.
         -2   -1    0    0    0  501 -0.00000000000E+00 -0.00000000000E+00 -0.15527237186E+02  0.15527237186E+02  0.00000000000E+00 0.  1.
         25    2    1    2    0    0 -0.11960068244E+02 -0.15496297893E+02  0.43883224071E+03  0.45672923754E+03  0.12507870506E+03 0.  0.
          5    1    3    3  502    0  0.34055325915E+02 -0.49169233376E+02  0.13723568170E+03  0.14976142182E+03  0.41800000000E+01 0. -1.
         -5    1    3    3    0  502 -0.46015394160E+02  0.33672935483E+02  0.30159655901E+03  0.30696781572E+03  0.41800000000E+01 0. -1.
        -11    1    1    2    0    0  0.22593039692E+02 -0.32257125480E+02  0.16614355869E+03  0.17074732701E+03  0.00000000000E+00 0. -1.
         11    1    1    2    0    0 -0.10632971447E+02  0.47753423373E+02  0.13563025846E+03  0.14418396768E+03  0.00000000000E+00 0.  1.
</event>
<event>
 7    1  0.2380582E-009  0.1585222E+03  0.7561462E-02  0.1190375E+00
         -1   -1    0    0    0  501 -0.00000000000E+00  0.00000000000E+00  0.10810665961E+03  0.10810665961E+03  0.00000000000E+00 0. -1.
          1   -1    0    0  501    0  0.00000000000E+00 -0.00000000000E+00 -0.24590105481E+03  0.24590105481E+03  0.00000000000E+00 0.  1.
         25    2    1    2    0    0 -0.11230806939E+03 -0.42002772778E+02 -0.87904420765E+02  0.19430189375E+03  0.12509477749E+03 0.  0.
          5    1    3    3  502    0 -0.13465826943E+03 -0.14255464741E+02 -0.57098096541E+02  0.14701609718E+03  0.41800000000E+01 0. -1.
         -5    1    3    3    0  502  0.22350200045E+02 -0.27747308037E+02 -0.30806324224E+02  0.47285796573E+02  0.41800000000E+01 0. -1.
        -11    1    1    2    0    0  0.16025912302E+02 -0.24074097913E+02  0.70809897863E+01  0.29774695159E+02  0.00000000000E+00 0. -1.
         11    1    1    2    0    0  0.96282157085E+02  0.66076870692E+02 -0.56970964215E+02  0.12993112551E+03  0.00000000000E+00 0.  1.
</event>
<event>
 7    1  0.2380582E-009  0.9717717E+02  0.7561462E-02  0.1286346E+00
          2   -1    0    0  501    0  0.00000000000E+00  0.00000000000E+00  0.62382253765E+03  0.62382253765E+03  0.00000000000E+00 0. -1.
         -2   -1    0    0    0  501 -0.00000000000E+00 -0.00000000000E+00 -0.37848871752E+02  0.37848871752E+02  0.00000000000E+00 0.  1.
         25    2    1    2    0    0  0.83712108323E+02 -0.19505642239E+01  0.46411821058E+03  0.48791869743E+03  0.12508964837E+03 0.  0.
          5    1    3    3  502    0  0.45226382351E+02  0.53305200443E+01  0.36556976727E+02  0.58546776614E+02  0.41800000000E+01 0. -1.
         -5    1    3    3    0  502  0.38485725972E+02 -0.72810842683E+01  0.42756123386E+03  0.42937192082E+03  0.41800000000E+01 0. -1.
        -11    1    1    2    0    0 -0.53353820269E+02 -0.33158799714E+02  0.27448998137E+02  0.68553509279E+02  0.00000000000E+00 0.  1.
         11    1    1    2    0    0 -0.30358288054E+02  0.35109363938E+02  0.94406457179E+02  0.10519920269E+03  0.00000000000E+00 0. -1.
</event>
<event>
 7    1  0.2380582E-009  0.1701867E+03  0.7561462E-02  0.1177653E+00
         -2   -1    0    0    0  501 -0.00000000000E+00  0.00000000000E+00  0.11444789846E+03  0.11444789846E+03  0.00000000000E+00 0.  1.
          2   -1    0    0  501    0  0.00000000000E+00 -0.00000000000E+00 -0.26983792790E+03  0.26983792790E+03  0.00000000000E+00 0. -1.
         25    2    1    2    0    0  0.12836537555E+03 -0.23063448091E+02 -0.41818334833E+02  0.18548808940E+03  0.12508983134E+03 0.  0.
          5    1    3    3  502    0  0.43032620576E+02  0.51543274050E+02 -0.16594797944E+02  0.69291956621E+02  0.41800000000E+01 0.  1.
         -5    1    3    3    0  502  0.85332754969E+02 -0.74606722142E+02 -0.25223536889E+02  0.11619613278E+03  0.41800000000E+01 0.  1.
        -11    1    1    2    0    0 -0.31272071976E+02 -0.34687002594E+02 -0.15529964978E+02  0.49216973158E+02  0.00000000000E+00 0.  1.
         11    1    1    2    0    0 -0.97093303570E+02  0.57750450685E+02 -0.98041729629E+02  0.14958076381E+03  0.00000000000E+00 0. -1.
</event>
<event>
 7    1  0.2380582E-009  0.1086234E+03  0.7561462E-02  0.1263141E+00
         -2   -1    0    0    0  501 -0.00000000000E+00  0.00000000000E+00  0.16134249554E+03  0.16134249554E+03  0.00000000000E+00 0.  1.
          2   -1    0    0  501    0  0.00000000000E+00 -0.00000000000E+00 -0.34613026869E+03  0.34613026869E+03  0.00000000000E+00 0. -1.
         25    2    1    2    0    0  0.76164776062E+02  0.56629015746E+01 -0.30500315545E+03  0.33839101921E+03  0.12509362685E+03 0.  0.
          5    1    3    3  502    0 -0.16667795572E+02  0.38504681057E+02 -0.13981202403E+03  0.14603184699E+03  0.41800000000E+01 0.  1.
         -5    1    3    3    0  502  0.92832571634E+02 -0.32841779482E+02 -0.16519113142E+03  0.19235917222E+03  0.41800000000E+01 0.  1.
        -11    1    1    2    0    0 -0.66360124649E+02 -0.33277300656E+01  0.13541877757E+03  0.15084092697E+03  0.00000000000E+00 0.  1.
         11    1    1    2    0    0 -0.98046514137E+01 -0.23351715090E+01 -0.15203395271E+02  0.18240818048E+02  0.00000000000E+00 0. -1.
</event>
<event>
 7    1  0.2380582E-009  0.1656641E+03  0.7561462E-02  0.1182446E+00
         -2   -1    0    0    0  501 -0.00000000000E+00  0.00000000000E+00  0.20930166459E+02  0.20930166459E+02  0.00000000000E+00 0. -1.
          2   -1    0    0  501    0  0.00000000000E+00 -0.00000000000E+00 -0.15557578601E+04  0.15557578601E+04  0.00000000000E+00 0.  1.
         25    2    1    2    0    0  0.13533315830E+03 -0.44811750478E+02 -0.84002082589E+03  0.86116509072E+03  0.12508864394E+03 0.  0.
          5    1    3    3  502    0  0.38076935880E+02  0.20342121218E+02 -0.70450289397E+02  0.82730711455E+02  0.41800000000E+01 0. -1.
         -5    1    3    3    0  502  0.97256222415E+02 -0.65153871696E+02 -0.76957053649E+03  0.77843437927E+03  0.41800000000E+01 0. -1.
        -11    1    1    2    0    0  0.76446142917E+01  0.25404183619E+02 -0.11751470675E+03  0.12047206720E+03  0.00000000000E+00 0.  1.
         11    1    1    2    0    0 -0.14297777259E+03  0.19407566859E+02 -0.57729216102E+03  0.59505086865E+03  0.00000000000E+00 0. -1.
</event>
<event>
 7    1  0.2380582E-009  0.9945687E+02  0.7561462E-02  0.1281442E+00
         -2   -1    0    0    0  501 -0.00000000000E+00  0.00000000000E+00  0.28965362821E+02  0.28965362821E+02  0.00000000000E+00 0. -1.
          2   -1    0    0  501    0  0.00000000000E+00 -0.00000000000E+00 -0.55483691747E+03  0.55483691747E+03  0.00000000000E+00 0.  1.
         25    2    1    2    0    0 -0.30841069063E+02 -0.39719440887E+02 -0.40358647631E+03  0.42550979443E+03  0.12509091004E+03 0.  0.
          5    1    3    3  502    0  0.26260497473E+02  0.19764843404E+02 -0.23993277677E+03  0.24220956326E+03  0.41800000000E+01 0.  1.
         -5    1    3    3    0  502 -0.57101566536E+02 -0.59484284292E+02 -0.16365369953E+03  0.18330023118E+03  0.41800000000E+01 0.  1.
        -11    1    1    2    0    0  0.91243333841E+01  0.55582567479E+02 -0.33526850860E+02  0.65549408814E+02  0.00000000000E+00 0. -1.
         11    1    1    2    0    0  0.21716735679E+02 -0.15863126592E+02 -0.88758227480E+02  0.92743077042E+02  0.00000000000E+00 0.  1.
</event>
<event>
 7    1  0.2380582E-009  0.1138046E+03  0.7561462E-02  0.1253682E+00
         -1   -1    0    0    0  501 -0.00000000000E+00  0.00000000000E+00  0.36859539791E+02  0.36859539791E+02  0.00000000000E+00 0.  1.
          1   -1    0    0  501    0  0.00000000000E+00 -0.00000000000E+00 -0.49624510415E+03  0.49624510415E+03  0.00000000000E+00 0. -1.
         25    2    1    2    0    0 -0.40519999430E+02  0.29751297082E+01 -0.38899463673E+03  0.41062741201E+03  0.12508925749E+03 0.  0.
          5    1    3    3  502    0  0.13583133810E+02  0.54038201285E+02 -0.14054203862E+03  0.15124207662E+03  0.41800000000E+01 0. -1.
         -5    1    3    3    0  502 -0.54103133239E+02 -0.51063071577E+02 -0.24845259811E+03  0.25938533538E+03  0.41800000000E+01 0. -1.
        -11    1    1    2    0    0  0.47623838317E+02 -0.38346841702E+02 -0.29317662090E+02  0.67808816204E+02  0.00000000000E+00 0.  1.
         11    1    1    2    0    0 -0.71038388870E+01  0.35371711994E+02 -0.41073265542E+02  0.54668415731E+02  0.00000000000E+00 0. -1.
</event>
<event>
 7    1  0.2380582E-009  0.2127119E+03  0.7561462E-02  0.1139436E+00
          2   -1    0    0  501    0  0.00000000000E+00  0.00000000000E+00  0.13358903208E+03  0.13358903208E+03  0.00000000000E+00 0. -1.
         -2   -1    0    0    0  501 -0.00000000000E+00 -0.00000000000E+00 -0.35892120912E+03  0.35892120912E+03  0.00000000000E+00 0.  1.
         25    2    1    2    0    0  0.75705229895E+02  0.17243068101E+03 -0.14374176879E+03  0.26790406820E+03  0.12508905659E+03 0.  0.
          5    1    3    3  502    0 -0.14698143949E+02  0.11878509527E+03 -0.63257056790E+02  0.13544320554E+03  0.41800000000E+01 0. -1.
         -5    1    3    3    0  502  0.90403373843E+02  0.53645585739E+02 -0.80484712000E+02  0.13246086266E+03  0.41800000000E+01 0. -1.
        -11    1    1    2    0    0 -0.53989169553E+01 -0.97705161055E+02 -0.76781466513E+01  0.98154983252E+02  0.00000000000E+00 0. -1.
         11    1    1    2    0    0 -0.70306312939E+02 -0.74725519953E+02 -0.73912261604E+02  0.12645118974E+03  0.00000000000E+00 0.  1.
</event>
<event>
 7    1  0.2380582E-009  0.7887558E+02  0.7561462E-02  0.1332273E+00
         -2   -1    0    0    0  501 -0.00000000000E+00  0.00000000000E+00  0.57609032529E+02  0.57609032529E+02  0.00000000000E+00 0. -1.
          2   -1    0    0  501    0  0.00000000000E+00 -0.00000000000E+00 -0.24003526357E+03  0.24003526357E+03  0.00000000000E+00 0.  1.
         25    2    1    2    0    0 -0.46852578764E+01 -0.47055122572E+02 -0.90592009501E+02  0.16152570940E+03  0.12508999324E+03 0.  0.
          5    1    3    3  502    0 -0.30734961092E+02 -0.45869153501E+02 -0.11367896503E+03  0.12644760403E+03  0.41800000000E+01 0.  1.
         -5    1    3    3    0  502  0.26049703216E+02 -0.11859690704E+01  0.23086955527E+02  0.35078105362E+02  0.41800000000E+01 0.  1.
        -11    1    1    2    0    0 -0.71600556149E+01 -0.12954623420E+02  0.96188670987E+01  0.17652514513E+02  0.00000000000E+00 0. -1.
         11    1    1    2    0    0  0.11845313491E+02  0.60009745991E+02 -0.10145308864E+03  0.11846607219E+03  0.00000000000E+00 0.  1.
</event>
<event>
 7    1  0.2380582E-009  0.1414463E+03  0.7561462E-02  0.1211396E+00
          2   -1    0    0  501    0  0.00000000000E+00  0.00000000000E+00  0.36177635570E+03  0.36177635570E+03  0.00000000000E+00 0. -1.
         -2   -1    0    0    0  501 -0.00000000000E+00 -0.00000000000E+00 -0.66108388354E+02  0.66108388354E+02  0.00000000000E+00 0.  1.
         25    2    1    2    0    0  0.98091968852E+02 -0.35473485943E+02  0.18913276072E+03  0.24959581391E+03  0.12508583687E+03 0.  0.
          5    1    3    3  502    0  0.11544628156E+03 -0.20329636069E+01  0.10025616476E+03  0.15297302977E+03  0.41800000000E+01 0.  1.
         -5    1    3    3    0  502 -0.17354312706E+02 -0.33440522336E+02  0.88876595967E+02  0.96622784136E+02  0.41800000000E+01 0.  1.
        -11    1    1    2    0    0 -0.95018108110E+02  0.11903492868E+01  0.39450888092E+02  0.10288940845E+03  0.00000000000E+00 0.  1.
         11    1    1    2    0    0 -0.30738607420E+01  0.34283136656E+02  0.67084318527E+02  0.75399521690E+02  0.00000000000E+00 0. -1.
</event>
<event>
 7    1  0.2380582E-009  0.1035077E+03  0.7561462E-02  0.1273088E+00
         -2   -1    0    0    0  501 -0.00000000000E+00  0.00000000000E+00  0.82390481680E+02  0.82390481680E+02  0.00000000000E+00 0.  1.
          2   -1    0    0  501    0  0.00000000000E+00 -0.00000000000E+00 -0.17545893718E+03  0.17545893718E+03  0.00000000000E+00 0. -1.
         25    2    1    2    0    0  0.11581855852E+02  0.51927804894E+02 -0.13107786728E+02  0.13656543603E+03  0.12509063889E+03 0.  0.
          5    1    3    3  502    0 -0.17169774802E+01 -0.36799038853E+02  0.18391860019E+02  0.41386594292E+02  0.41800000000E+01 0. -1.
         -5    1    3    3    0  502  0.13298833333E+02  0.88726843747E+02 -0.31499646747E+02  0.95178841738E+02  0.41800000000E+01 0. -1.
        -11    1    1    2    0    0  0.23587359952E+02 -0.10604553675E+02 -0.56556339744E+02  0.62188742336E+02  0.00000000000E+00 0. -1.
         11    1    1    2    0    0 -0.35169215804E+02 -0.41323251219E+02 -0.23404329026E+02  0.59095240491E+02  0.00000000000E+00 0.  1.
</event>
<event>
 7    1  0.2380582E-009  0.1401348E+03  0.7561462E-02  0.1213148E+00
          2   -1    0    0  501    0  0.00000000000E+00  0.00000000000E+00  0.76226730477E+03  0.76226730477E+03  0.00000000000E+00 0. -1.
         -2   -1    0    0    0  501 -0.00000000000E+00 -0.00000000000E+00 -0.41164804039E+02  0.41164804039E+02  0.00000000000E+00 0.  1.
         25    2    1    2    0    0 -0.93550542348E+02 -0.49663743524E+02  0.57443653680E+03  0.59736296335E+03  0.12508790422E+03 0.  0.
          5    1    3    3  502    0  0.12124537674E+01 -0.40372632593E+02  0.36509492531E+03  0.36734615337E+03  0.41800000000E+01 0. -1.
         -5    1    3    3    0  502 -0.94762996116E+02 -0.92911109303E+01  0.20934161149E+03  0.23001680998E+03  0.41800000000E+01 0. -1.
        -11    1    1    2    0    0  0.29348555791E+02 -0.30047802720E+02  0.49798078427E+02  0.65146425768E+02  0.00000000000E+00 0. -1.
         11    1    1    2    0    0  0.64201986557E+02  0.79711546243E+02  0.96867885509E+02  0.14092271969E+03  0.00000000000E+00 0.  1.
</event>
<event>
 7    1  0.2609534E-009  0.1106479E+03  0.7561462E-02  0.1259375E+00
         -2   -1    0    0    0  501 -0.00000000000E+00  0.00000000000E+00  0.40218300594E+02  0.40218300594E+02  0.00000000000E+00 0.  1.
          2   -1    0    0  501    0  0.00000000000E+00 -0.00000000000E+00 -0.42606439745E+03  0.42606439745E+03  0.00000000000E+00 0. -1.
         25    2    1    2    0    0  0.36816285174E+02  0.56106887699E+02 -0.16279996208E+03  0.21599711866E+03  0.12508999128E+03 0.  0.
          5    1    3    3  502    0  0.82556380275E+02  0.42129594373E+02 -0.93759291924E+02  0.13190426782E+03  0.41800000000E+01 0.  1.
         -5    1    3    3    0  502 -0.45740095101E+02  0.13977293326E+02 -0.69040670153E+02  0.84092850848E+02  0.41800000000E+01 0.  1.
        -11    1    1    2    0    0  0.42797841942E+00 -0.39877403905E+02 -0.19925221762E+03  0.20320392894E+03  0.00000000000E+00 0. -1.
         11    1    1    2    0    0 -0.37244263593E+02 -0.16229483795E+02 -0.23793917158E+02  0.47081650444E+02  0.00000000000E+00 0.  1.
</event>
<event>
 7    1  0.2380582E-009  0.1078754E+03  0.7561462E-02  0.1264556E+00
         -1   -1    0    0    0  501 -0.00000000000E+00  0.00000000000E+00  0.32951283102E+03  0.32951283102E+03  0.00000000000E+00 0.  1.
          1   -1    0    0  501    0  0.00000000000E+00 -0.00000000000E+00 -0.74704495519E+02  0.74704495519E+02  0.00000000000E+00 0. -1.
         25    2    1    2    0    0 -0.38130088872E+02 -0.29259564688E+02  0.56656695267E+01  0.13412375316E+03  0.12508819108E+03 0.  0.
          5    1    3    3  502    0 -0.73151795960E+02 -0.41551492358E+01  0.35522898990E+02  0.81534037493E+02  0.41800000000E+01 0. -1.
         -5    1    3    3    0  502  0.35021707087E+02 -0.25104415452E+02 -0.29857229463E+02  0.52589715665E+02  0.41800000000E+01 0. -1.
        -11    1    1    2    0    0  0.45387690623E+02 -0.19769489241E+02  0.16673522281E+03  0.17392961131E+03  0.00000000000E+00 0. -1.
         11    1    1    2    0    0 -0.72576017508E+01  0.49029053929E+02  0.82407443170E+02  0.96163962076E+02  0.00000000000E+00 0.  1.
</event>
<event>
 7    1  0.2380582E-009  0.1161913E+03  0.7561462E-02  0.1249516E+00
          2   -1    0    0  501    0  0.00000000000E+00  0.00000000000E+00  0.21488317767E+03  0.21488317767E+03  0.00000000000E+00 0.  1.
         -2   -1    0    0    0  501 -0.00000000000E+00 -0.00000000000E+00 -0.67194629287E+02  0.67194629287E+02  0.00000000000E+00 0. -1.
         25    2    1    2    0    0 -0.14409605633E+02  0.39842210469E+02  0.51710356059E+02  0.14182067166E+03  0.12507639072E+03 0.  0.
          5    1    3    3  502    0  0.49509024272E+02  0.45984424834E+02  0.27345907902E+02  0.73013573331E+02  0.41800000000E+01 0.  1.
         -5    1    3    3    0  502 -0.63918629905E+02 -0.61422143650E+01  0.24364448157E+02  0.68807098327E+02  0.41800000000E+01 0.  1.
        -11    1    1    2    0    0  0.30771346180E+02  0.21049937253E+02  0.22968204884E+02  0.43789428401E+02  0.00000000000E+00 0. -1.
         11    1    1    2    0    0 -0.16361740547E+02 -0.60892147722E+02  0.73009987436E+02  0.96467706894E+02  0.00000000000E+00 0.  1.
</event>
<event>
 7    1  0.2380582E-009  0.1039540E+03  0.7561462E-02  0.1272194E+00
         -1   -1    0    0    0  501 -0.00000000000E+00  0.00000000000E+00  0.41895665000E+02  0.41895665000E+02  0.00000000000E+00 0.  1.
          1   -1    0    0  501    0  0.00000000000E+00 -0.00000000000E+00 -0.80415369332E+03  0.80415369332E+03  0.00000000000E+00 0. -1.
         25    2    1    2    0    0  0.23565906002E+01  0.10160438572E+02 -0.74016647800E+03  0.75073484898E+03  0.12509040841E+03 0.  0.
          5    1    3    3  502    0 -0.53411422723E+02 -0.12613850129E+02 -0.20820151443E+03  0.21535373761E+03  0.41800000000E+01 0.  1.
         -5    1    3    3    0  502  0.55768013324E+02  0.22774288701E+02 -0.53196496357E+03  0.53538111136E+03  0.41800000000E+01 0.  1.
        -11    1    1    2    0    0  0.19153196913E+02  0.36435749206E+02 -0.64714835998E+01  0.41668799745E+02  0.00000000000E+00 0.  1.
         11    1    1    2    0    0 -0.21509787513E+02 -0.46596187778E+02 -0.15620066718E+02  0.53645709601E+02  0.00000000000E+00 0. -1.
</event>
<event>
 7    1  0.2380582E-009  0.1137986E+03  0.7561462E-02  0.1253693E+00
          2   -1    0    0  501    0  0.00000000000E+00  0.00000000000E+00  0.49159157890E+03  0.49159157890E+03  0.00000000000E+00 0. -1.
         -2   -1    0    0    0  501 -0.00000000000E+00 -0.00000000000E+00 -0.26682939600E+02  0.26682939600E+02  0.00000000000E+00 0.  1.
         25    2    1    2    0    0 -0.30459380115E+02 -0.16987566815E+02  0.25770436738E+03  0.28857501599E+03  0.12509055770E+03 0.  0.
          5    1    3    3  502    0  0.43861552533E+02 -0.30103117752E+02  0.12379795555E+03  0.13480890063E+03  0.41800000000E+01 0.  1.
         -5    1    3    3    0  502 -0.74320932648E+02  0.13115550937E+02  0.13390641182E+03  0.15376611536E+03  0.41800000000E+01 0.  1.
        -11    1    1    2    0    0 -0.33135462168E+02  0.10327428272E+02  0.84068669952E+02  0.90951393037E+02  0.00000000000E+00 0. -1.
         11    1    1    2    0    0  0.63594842282E+02  0.66601385429E+01  0.12313560198E+03  0.13874810948E+03  0.00000000000E+00 0.  1.
</event>
<event>
 7    1  0.2380582E-009  0.1222146E+03  0.7561462E-02  0.1239488E+00
          1   -1    0    0  501    0  0.00000000000E+00  0.00000000000E+00  0.17517997300E+03  0.17517997300E+03  0.00000000000E+00 0. -1.
         -1   -1    0    0    0  501 -0.00000000000E+00 -0.00000000000E+00 -0.12645519350E+03  0.12645519350E+03  0.00000000000E+00 0.  1.
         25    2    1    2    0    0 -0.73067072853E+02 -0.66579694944E+02  0.51498319598E+02  0.16754550708E+03  0.12509103527E+03 0.  0.
          5    1    3    3  502    0 -0.19913894371E+02  0.91745815683E+01 -0.34535444730E+02  0.41120621088E+02  0.41800000000E+01 0.  1.
         -5    1    3    3    0  502 -0.53153178482E+02 -0.75754276512E+02  0.86033764328E+02  0.12642488599E+03  0.41800000000E+01 0.  1.
        -11    1    1    2    0    0  0.28255132174E+02 -0.18178137934E+02 -0.16164856248E+02  0.37284041766E+02  0.00000000000E+00 0.  1.
         11    1    1    2    0    0  0.44811940679E+02  0.84757832878E+02  0.13391316156E+02  0.96805617658E+02  0.00000000000E+00 0. -1.
</event>
<event>
 7    1  0.2380582E-009  0.1142330E+03  0.7561462E-02  0.1252926E+00
          2   -1    0    0  501    0  0.00000000000E+00  0.00000000000E+00  0.10442603312E+03  0.10442603312E+03  0.00000000000E+00 0. -1.
         -2   -1    0    0    0  501 -0.00000000000E+00 -0.00000000000E+00 -0.17090468249E+03  0.17090468249E+03  0.00000000000E+00 0.  1.
         25    2    1    2    0    0 -0.46984826955E+01  0.55382549094E+02  0.19186812703E+02  0.13821868258E+03  0.12508784093E+03 0.  0.
          5    1    3    3  502    0  0.51935963921E+02  0.24810963884E+02 -0.21926073158E+02  0.61734539452E+02  0.41800000000E+01 0. -1.
         -5    1    3    3    0  502 -0.56634446616E+02  0.30571585210E+02  0.41112885861E+02  0.76484143126E+02  0.41800000000E+01 0. -1.
        -11    1    1    2    0    0 -0.27068027946E+02  0.13617597821E+02 -0.32241875189E+02  0.44245402280E+02  0.00000000000E+00 0. -1.
         11    1    1    2    0    0  0.31766510641E+02 -0.69000146915E+02 -0.53423586876E+02  0.92866630752E+02  0.00000000000E+00 0.  1.
</event>
<event>
 7    1  0.2380582E-009  0.7289052E+02  0.7561462E-02  0.1350531E+00
          1   -1    0    0  501    0  0.00000000000E+00  0.00000000000E+00  0.21945201871E+03  0.21945201871E+03  0.00000000000E+00 0. -1.
         -1   -1    0    0    0  501 -0.00000000000E+00 -0.00000000000E+00 -0.61101899383E+02  0.61101899383E+02  0.00000000000E+00 0.  1.
         25    2    1    2    0    0 -0.22262690855E+02  0.38546373880E+01  0.12060299147E+03  0.17523040566E+03  0.12510047115E+03 0.  0.
          5    1    3    3  502    0 -0.20770642556E+02  0.30375907209E+02 -0.12769188717E+02  0.39174480359E+02  0.41800000000E+01 0. -1.
         -5    1    3    3    0  502 -0.14920482993E+01 -0.26521269821E+02  0.13337218019E+03  0.13605592530E+03  0.41800000000E+01 0. -1.
        -11    1    1    2    0    0 -0.29564664444E+02 -0.51632632884E+01 -0.13063630243E+02  0.32732050143E+02  0.00000000000E+00 0.  1.
         11    1    1    2    0    0  0.51827355298E+02  0.13086259003E+01  0.50810758104E+02  0.72591462295E+02  0.00000000000E+00 0. -1.
</event>
<event>
 7    1  0.2380582E-009  0.1388878E+03  0.7561462E-02  0.1214833E+00
         -1   -1    0    0    0  501 -0.00000000000E+00  0.00000000000E+00  0.59639020510E+02  0.59639020510E+02  0.00000000000E+00 0.  1.
          1   -1    0    0  501    0  0.00000000000E+00 -0.00000000000E+00 -0.42027186471E+03  0.42027186471E+03  0.00000000000E+00 0. -1.
         25    2    1    2    0    0 -0.69920847669E+02 -0.86661686799E+02 -0.15218693487E+03  0.22629096339E+03  0.12509022372E+03 0.  0.
          5    1    3    3  502    0  0.17892629860E+02  0.87948705256E+01 -0.69479348130E+02  0.72404061816E+02  0.41800000000E+01 0. -1.
         -5    1    3    3    0  502 -0.87813477530E+02 -0.95456557325E+02 -0.82707586738E+02  0.15388690157E+03  0.41800000000E+01 0. -1.
        -11    1    1    2    0    0  0.37196219542E+02  0.87309149583E+02 -0.19748137556E+03  0.21910120959E+03  0.00000000000E+00 0. -1.
         11    1    1    2    0    0  0.32724628128E+02 -0.64746278338E+00 -0.10964533773E+02  0.34518712244E+02  0.00000000000E+00 0.  1.
</event>
<event>
 7    1  0.2380582E-009  0.1008859E+03  0.7561462E-02  0.1278444E+00
          2   -1    0    0  501    0  0.00000000000E+00  0.00000000000E+00  0.59164869439E+03  0.59164869439E+03  0.00000000000E+00 0. -1.
         -2   -1    0    0    0  501 -0.00000000000E+00 -0.00000000000E+00 -0.23832523264E+02  0.23832523264E+02  0.00000000000E+00 0.  1.
         25    2    1    2    0    0 -0.16669699878E+02 -0.43068205844E+01  0.44821332571E+03  0.46565946565E+03  0.12508846875E+03 0.  0.
          5    1    3    3  502    0  0.53540039520E+02 -0.13334860892E+02  0.19206434292E+03  0.19987630817E+03  0.41800000000E+01 0. -1.
         -5    1    3    3    0  502 -0.70209739398E+02  0.90280403073E+01  0.25614898279E+03  0.26578315749E+03  0.41800000000E+01 0. -1.
        -11    1    1    2    0    0  0.44181205600E+02 -0.88060940688E+01  0.27436932593E+02  0.52747620716E+02  0.00000000000E+00 0.  1.
         11    1    1    2    0    0 -0.27511505722E+02  0.13112914653E+02  0.92165912821E+02  0.97074131281E+02  0.00000000000E+00 0. -1.
</event>
<event>
 7    1  0.2380582E-009  0.1458449E+03  0.7561462E-02  0.1205674E+00
         -1   -1    0    0    0  501 -0.00000000000E+00  0.00000000000E+00  0.39718297878E+02  0.39718297878E+02  0.00000000000E+00 0.  1.
          1   -1    0    0  501    0  0.00000000000E+00 -0.00000000000E+00 -0.68187348787E+03  0.68187348787E+03  0.00000000000E+00 0. -1.
         25    2    1    2    0    0  0.10973970864E+03  0.42425935143E+02 -0.26698817204E+03  0.31744881053E+03  0.12509316397E+03 0.  0.
          5    1    3    3  502    0  0.42329213537E+02  0.59977270938E+02 -0.48491730155E+02  0.88079257724E+02  0.41800000000E+01 0.  1.
         -5    1    3    3    0  502  0.67410495105E+02 -0.17551335795E+02 -0.21849644189E+03  0.22936955281E+03  0.41800000000E+01 0.  1.
        -11    1    1    2    0    0 -0.48518443823E+02 -0.66733852777E+02 -0.17631400159E+03  0.19466400195E+03  0.00000000000E+00 0.  1.
         11    1    1    2    0    0 -0.61221264819E+02  0.24307917634E+02 -0.19885301636E+03  0.20947897327E+03  0.00000000000E+00 0. -1.
</event>
<event>
 7    1  0.2380582E-009  0.1234448E+03  0.7561462E-02  0.1237520E+00
          2   -1    0    0  501    0  0.00000000000E+00  0.00000000000E+00  0.39827895877E+02  0.39827895877E+02  0.00000000000E+00 0. -1.
         -2   -1    0    0    0  501 -0.00000000000E+00 -0.00000000000E+00 -0.48205882759E+03  0.48205882759E+03  0.00000000000E+00 0.  1.
         25    2    1    2    0    0  0.73400082197E+02 -0.40720371206E+01 -0.15864727919E+03  0.21498953481E+03  0.12508951728E+03 0.  0.
          5    1    3    3  502    0  0.16954563606E+02  0.58138758530E+02 -0.73157861011E+02  0.95063754913E+02  0.41800000000E+01 0.  1.
         -5    1    3    3    0  502  0.56445518591E+02 -0.62210795650E+02 -0.85489418175E+02  0.11992577990E+03  0.41800000000E+01 0.  1.
        -11    1    1    2    0    0 -0.47099178015E+02 -0.32360877922E+02 -0.79389583604E+02  0.97817508526E+02  0.00000000000E+00 0. -1.
         11    1    1    2    0    0 -0.26300904182E+02  0.36432915042E+02 -0.20419406892E+03  0.20907968013E+03  0.00000000000E+00 0.  1.
</event>
<event>
 7    1  0.2380582E-009  0.1218518E+03  0.7561462E-02  0.1240073E+00
         -2   -1    0    0    0  501 -0.00000000000E+00  0.00000000000E+00  0.18923059521E+03  0.18923059521E+03  0.00000000000E+00 0.  1.
          2   -1    0    0  501    0  0.00000000000E+00 -0.00000000000E+00 -0.84796322837E+02  0.84796322837E+02  0.00000000000E+00 0. -1.
         25    2    1    2    0    0  0.58268321210E+02  0.29194518012E+02  0.53997241814E+02  0.15103388052E+03  0.12509202134E+03 0.  0.
          5    1    3    3  502    0 -0.24435876545E+02  0.44365972367E+02 -0.35755521387E+00  0.50823732767E+02  0.41800000000E+01 0.  1.
         -5    1    3    3    0  502  0.82704197755E+02 -0.15171454355E+02  0.54354797028E+02  0.10021014776E+03  0.41800000000E+01 0.  1.
        -11    1    1    2    0    0 -0.34312118460E+02  0.29530349152E+02  0.36268094032E+02  0.58006358608E+02  0.00000000000E+00 0.  1.
         11    1    1    2    0    0 -0.23956202750E+02 -0.58724867164E+02  0.14168936523E+02  0.64986678910E+02  0.00000000000E+00 0. -1.
</event>
<event>
 7    1  0.2380582E-009  0.9785538E+02  0.7561462E-02  0.1284872E+00
         -1   -1    0    0    0  501 -0.00000000000E+00  0.00000000000E+00  0.56547170182E+02  0.56547170182E+02  0.00000000000E+00 0.  1.
          1   -1    0    0  501    0  0.00000000000E+00 -0.00000000000E+00 -0.35538892136E+03  0.35538892136E+03  0.00000000000E+00 0. -1.
         25    2    1    2    0    0 -0.37791945657E+02  0.80318559915E+02 -0.13177900215E+03  0.20221694503E+03  0.12508671084E+03 0.  0.
          5    1    3    3  502    0 -0.11320057910E+02 -0.77242311781E+01 -0.10555410339E+03  0.10652205688E+03  0.41800000000E+01 0. -1.
         -5    1    3    3    0  502 -0.26471887747E+02  0.88042791093E+02 -0.26224898758E+02  0.95694888156E+02  0.41800000000E+01 0. -1.
        -11    1    1    2    0    0  0.11995223763E+02 -0.37406546058E+02 -0.44041557389E+01  0.39528871333E+02  0.00000000000E+00 0.  1.
         11    1    1    2    0    0  0.25796721895E+02 -0.42912013857E+02 -0.16265859329E+03  0.17019027518E+03  0.00000000000E+00 0. -1.
</event>
<event>
 7    1  0.2594789E-009  0.1224186E+03  0.7561462E-02  0.1239160E+00
         -1   -1    0    0    0  501 -0.00000000000E+00  0.00000000000E+00  0.47099168747E+02  0.47099168747E+02  0.00000000000E+00 0.  1.
          1   -1    0    0  501    0  0.00000000000E+00 -0.00000000000E+00 -0.44432777921E+03  0.44432777921E+03  0.00000000000E+00 0. -1.
         25    2    1    2    0    0 -0.27358447951E+02  0.60279315862E+02 -0.10017169562E+03  0.17339129276E+03  0.12509233073E+03 0.  0.
          5    1    3    3  502    0  0.11908771746E+02  0.89377566700E+02 -0.49837269376E+02  0.10310865188E+03  0.41800000000E+01 0.  1.
         -5    1    3    3    0  502 -0.39267219697E+02 -0.29098250837E+02 -0.50334426240E+02  0.70282640882E+02  0.41800000000E+01 0.  1.
        -11    1    1    2    0    0  0.14359923434E+02 -0.80342131113E+02 -0.26933828978E+03  0.28143237159E+03  0.00000000000E+00 0.  1.
         11    1    1    2    0    0  0.12998524517E+02  0.20062815251E+02 -0.27718625061E+02  0.36603283605E+02  0.00000000000E+00 0. -1.
</event>
<event>
 7    1  0.2380582E-009  0.1530041E+03  0.7561462E-02  0.1196829E+00
         -4   -1    0    0    0  501 -0.00000000000E+00  0.00000000000E+00  0.68259660170E+03  0.68259660170E+03  0.00000000000E+00 0.  1.
          4   -1    0    0  501    0  0.00000000000E+00 -0.00000000000E+00 -0.44270830400E+02  0.44270830400E+02  0.00000000000E+00 0. -1.
         25    2    1    2    0    0 -0.10895922272E+02  0.12943315489E+03  0.42327270923E+03  0.46008514975E+03  0.12508755308E+03 0.  0.
          5    1    3    3  502    0 -0.20368293143E+02 -0.15534205722E+02  0.13244776312E+03  0.13496688952E+03  0.41800000000E+01 0.  1.
         -5    1    3    3    0  502  0.94723708711E+01  0.14496736061E+03  0.29082494611E+03  0.32511826023E+03  0.41800000000E+01 0.  1.
        -11    1    1    2    0    0  0.10168600749E+02 -0.71483432179E+01 -0.62707470180E+01  0.13921979748E+02  0.00000000000E+00 0. -1.
         11    1    1    2    0    0  0.72732152310E+00 -0.12228481167E+03  0.22132380909E+03  0.25286030260E+03  0.00000000000E+00 0.  1.
</event>
<event>
 7    1  0.2380582E-009  0.8428467E+02  0.7561462E-02  0.1317314E+00
         -1   -1    0    0    0  501 -0.00000000000E+00  0.00000000000E+00  0.67485185555E+02  0.67485185555E+02  0.00000000000E+00 0.  1.
          1   -1    0    0  501    0  0.00000000000E+00 -0.00000000000E+00 -0.19322073068E+03  0.19322073068E+03  0.00000000000E+00 0. -1.
         25    2    1    2    0    0  0.21846980994E+02 -0.15837987819E+02 -0.98646318474E+02  0.16157179597E+03  0.12508483787E+03 0.  0.
          5    1    3    3  502    0 -0.34648814839E+02 -0.43829124443E+02 -0.17441709987E+02  0.58678941423E+02  0.41800000000E+01 0.  1.
         -5    1    3    3    0  502  0.56495795834E+02  0.27991136624E+02 -0.81204608487E+02  0.10289285454E+03  0.41800000000E+01 0.  1.
        -11    1    1    2    0    0  0.11994883516E+01  0.24651059273E+02  0.28867092428E+02  0.37979238023E+02  0.00000000000E+00 0.  1.
         11    1    1    2    0    0 -0.23046469346E+02 -0.88130714538E+01 -0.55956319083E+02  0.61154882250E+02  0.00000000000E+00 0. -1.
</event>
<event>
 7    1  0.2380582E-009  0.7015339E+02  0.7561462E-02  0.1359572E+00
         -1   -1    0    0    0  501 -0.00000000000E+00  0.00000000000E+00  0.94593787939E+02  0.94593787939E+02  0.00000000000E+00 0.  1.
          1   -1    0    0  501    0  0.00000000000E+00 -0.00000000000E+00 -0.18531194004E+03  0.18531194004E+03  0.00000000000E+00 0. -1.
         25    2    1    2    0    0 -0.40081359559E+02  0.15956799927E+02  0.17737858605E+02  0.13350312499E+03  0.12508923977E+03 0.  0.
          5    1    3    3  502    0 -0.17711622640E+02 -0.29196065100E+02 -0.42614861252E+02  0.54768700855E+02  0.41800000000E+01 0.  1.
         -5    1    3    3    0  502 -0.22369736919E+02  0.45152865027E+02  0.60352719856E+02  0.78734424136E+02  0.41800000000E+01 0.  1.
        -11    1    1    2    0    0  0.23515663704E+02  0.91730027492E+01 -0.11315785592E+03  0.11593890967E+03  0.00000000000E+00 0. -1.
         11    1    1    2    0    0  0.16565695856E+02 -0.25129802676E+02  0.47018452201E+01  0.30463693312E+02  0.00000000000E+00 0.  1.
</event>
<event>
 7    1  0.2380582E-009  0.4914063E+03  0.7561462E-02  0.1016047E+00
         -2   -1    0    0    0  501 -0.00000000000E+00  0.00000000000E+00  0.30616654037E+04  0.30616654037E+04  0.00000000000E+00 0. -1.
          2   -1    0    0  501    0  0.00000000000E+00 -0.00000000000E+00 -0.96632578990E+02  0.96632578990E+02  0.00000000000E+00 0.  1.
         25    2    1    2    0    0  0.19966237117E+03  0.44836104200E+03  0.88991190507E+03  0.10239531186E+04  0.12507639249E+03 0.  0.
          5    1    3    3  502    0  0.95201300278E+02  0.23117936758E+03  0.57794809865E+03  0.62972110073E+03  0.41800000000E+01 0. -1.
         -5    1    3    3    0  502  0.10446107089E+03  0.21718167442E+03  0.31196380642E+03  0.39423201792E+03  0.41800000000E+01 0. -1.
        -11    1    1    2    0    0 -0.24729740494E+02 -0.83755369865E+02  0.24565222234E+03  0.26071351401E+03  0.00000000000E+00 0.  1.
         11    1    1    2    0    0 -0.17493263068E+03 -0.36460567213E+03  0.18294686973E+04  0.18736313500E+04  0.00000000000E+00 0. -1.
</event>
<event>
 7    1  0.2380582E-009  0.1270800E+03  0.7561462E-02  0.1231854E+00
         -1   -1    0    0    0  501 -0.00000000000E+00  0.00000000000E+00  0.18327834017E+03  0.18327834017E+03  0.00000000000E+00 0.  1.
          1   -1    0    0  501    0  0.00000000000E+00 -0.00000000000E+00 -0.13452969593E+03  0.13452969593E+03  0.00000000000E+00 0. -1.
         25    2    1    2    0    0 -0.66140840740E+02  0.76838068027E+02  0.80912330050E+02  0.18020008164E+03  0.12508622928E+03 0.  0.
          5    1    3    3  502    0 -0.90030815194E+02  0.29926484307E+02  0.84705195862E+02  0.12725401665E+03  0.41800000000E+01 0. -1.
         -5    1    3    3    0  502  0.23889974454E+02  0.46911583720E+02 -0.37928658115E+01  0.52946064987E+02  0.41800000000E+01 0. -1.
        -11    1    1    2    0    0  0.57223726119E+01 -0.28329113884E+02 -0.50317811143E+02  0.58027289787E+02  0.00000000000E+00 0. -1.
         11    1    1    2    0    0  0.60418468128E+02 -0.48508954143E+02  0.18154125340E+02  0.79580664674E+02  0.00000000000E+00 0.  1.
</event>
<event>
 7    1  0.2380582E-009  0.1264923E+03  0.7561462E-02  0.1232755E+00
          1   -1    0    0  501    0  0.00000000000E+00  0.00000000000E+00  0.74898498407E+02  0.74898498407E+02  0.00000000000E+00 0. -1.
         -1   -1    0    0    0  501 -0.00000000000E+00 -0.00000000000E+00 -0.30194726272E+03  0.30194726272E+03  0.00000000000E+00 0.  1.
         25    2    1    2    0    0  0.62344043340E+02  0.10258659383E+02 -0.20862126369E+03  0.25132236924E+03  0.12509229306E+03 0.  0.
          5    1    3    3  502    0 -0.19888749969E+02 -0.33997713661E+02 -0.10257630391E+03  0.10995807125E+03  0.41800000000E+01 0. -1.
         -5    1    3    3    0  502  0.82232793309E+02  0.44256373044E+02 -0.10604495978E+03  0.14136429799E+03  0.41800000000E+01 0. -1.
        -11    1    1    2    0    0  0.85790087965E+01 -0.41514395290E+02 -0.22343899021E+02  0.47919664353E+02  0.00000000000E+00 0.  1.
         11    1    1    2    0    0 -0.70923052136E+02  0.31255735907E+02  0.39163983966E+01  0.77603727538E+02  0.00000000000E+00 0. -1.
</event>
<event>
 7    1  0.2380582E-009  0.2080047E+03  0.7561462E-02  0.1143156E+00
          1   -1    0    0  501    0  0.00000000000E+00  0.00000000000E+00  0.14457929169E+03  0.14457929169E+03  0.00000000000E+00 0. -1.
         -1   -1    0    0    0  501 -0.00000000000E+00 -0.00000000000E+00 -0.33623262434E+03  0.33623262434E+03  0.00000000000E+00 0.  1.
         25    2    1    2    0    0 -0.13141786122E+03  0.13289319093E+03 -0.53512531770E+02  0.23117416109E+03  0.12508655906E+03 0.  0.
          5    1    3    3  502    0 -0.12805943143E+03  0.51058351085E+02 -0.98813383058E+01  0.13827973981E+03  0.41800000000E+01 0.  1.
         -5    1    3    3    0  502 -0.33584297891E+01  0.81834839846E+02 -0.43631193464E+02  0.92894421287E+02  0.41800000000E+01 0.  1.
        -11    1    1    2    0    0  0.82990971992E+02 -0.41837059099E+02 -0.10738013406E+03  0.14201526022E+03  0.00000000000E+00 0.  1.
         11    1    1    2    0    0  0.48426889231E+02 -0.91056131831E+02 -0.30760666826E+02  0.10762249471E+03  0.00000000000E+00 0. -1.
</event>
<event>
 7    1  0.2380582E-009  0.9854090E+02  0.7561462E-02  0.1283394E+00
         -1   -1    0    0    0  501 -0.00000000000E+00  0.00000000000E+00  0.29211750929E+02  0.29211750929E+02  0.00000000000E+00 0.  1.
          1   -1    0    0  501    0  0.00000000000E+00 -0.00000000000E+00 -0.64788509529E+03  0.64788509529E+03  0.00000000000E+00 0. -1.
         25    2    1    2    0    0  0.36653839986E+02  0.64076104126E+02 -0.41490414898E+03  0.43959372859E+03  0.12509173542E+03 0.  0.
          5    1    3    3  502    0  0.21003459603E+02  0.72797871098E+02 -0.10719527970E+03  0.13133535602E+03  0.41800000000E+01 0.  1.
         -5    1    3    3    0  502  0.15650380383E+02 -0.87217669717E+01 -0.30770886928E+03  0.30825837257E+03  0.41800000000E+01 0.  1.
        -11    1    1    2    0    0  0.15574038573E+02 -0.44295126106E+02 -0.31840640169E+02  0.56731254530E+02  0.00000000000E+00 0.  1.
         11    1    1    2    0    0 -0.52227878559E+02 -0.19780978020E+02 -0.17192855521E+03  0.18077186310E+03  0.00000000000E+00 0. -1.
</event>
<event>
 7    1  0.2380582E-009  0.7338389E+02  0.7561462E-02  0.1348950E+00
          2   -1    0    0  501    0  0.00000000000E+00  0.00000000000E+00  0.11494237357E+04  0.11494237357E+04  0.00000000000E+00 0. -1.
         -2   -1    0    0    0  501 -0.00000000000E+00 -0.00000000000E+00 -0.11958810691E+02  0.11958810691E+02  0.00000000000E+00 0.  1.
         25    2    1    2    0    0  0.34025245175E+02 -0.28456902758E+02  0.66173026319E+03  0.67490872161E+03  0.12508928273E+03 0.  0.
          5    1    3    3  502    0  0.12730292984E+02 -0.26280579314E+01  0.14095898326E+01  0.13726849291E+02  0.41800000000E+01 0. -1.
         -5    1    3    3    0  502  0.21294952191E+02 -0.25828844826E+02  0.66032067336E+03  0.66118187232E+03  0.41800000000E+01 0. -1.
        -11    1    1    2    0    0 -0.26038172624E+01  0.56921308479E+02  0.22058869877E+03  0.22782929848E+03  0.00000000000E+00 0. -1.
         11    1    1    2    0    0 -0.31421427912E+02 -0.28464405721E+02  0.25514596308E+03  0.25864452633E+03  0.00000000000E+00 0.  1.
</event>
<event>
 7    1  0.2380582E-009  0.1396894E+03  0.7561462E-02  0.1213747E+00
          2   -1    0    0  501    0  0.00000000000E+00  0.00000000000E+00  0.72837681978E+03  0.72837681978E+03  0.00000000000E+00 0. -1.
         -2   -1    0    0    0  501 -0.00000000000E+00 -0.00000000000E+00 -0.38178108527E+02  0.38178108527E+02  0.00000000000E+00 0.  1.
         25    2    1    2    0    0  0.79383461859E+02 -0.53783811431E+02  0.54686163633E+03  0.56912191124E+03  0.12509063981E+03 0.  0.
          5    1    3    3  502    0  0.41719749369E+02  0.34671442687E+02  0.12336531940E+03  0.13482997017E+03  0.41800000000E+01 0.  1.
         -5    1    3    3    0  502  0.37663712490E+02 -0.88455254118E+02  0.42349631693E+03  0.43429194107E+03  0.41800000000E+01 0.  1.
        -11    1    1    2    0    0 -0.54954037591E+02 -0.13983279333E+02  0.32838829242E+02  0.65527605285E+02  0.00000000000E+00 0.  1.
         11    1    1    2    0    0 -0.24429424268E+02  0.67767090764E+02  0.11049824568E+03  0.13190541179E+03  0.00000000000E+00 0. -1.
</event>
<event>
 7    1  0.2380582E-009  0.1182664E+03  0.7561462E-02  0.1245985E+00
         -2   -1    0    0    0  501 -0.00000000000E+00  0.00000000000E+00  0.21623946469E+02  0.21623946469E+02  0.00000000000E+00 0. -1.
          2   -1    0    0  501    0  0.00000000000E+00 -0.00000000000E+00 -0.93155095971E+03  0.93155095971E+03  0.00000000000E+00 0.  1.
         25    2    1    2    0    0  0.36792491401E+02 -0.43220036020E+02 -0.73459134416E+03  0.74732419464E+03  0.12508936821E+03 0.  0.
          5    1    3    3  502    0 -0.21996179853E+02 -0.64485596537E+02 -0.26855115084E+03  0.27709099067E+03  0.41800000000E+01 0. -1.
         -5    1    3    3    0  502  0.58788671254E+02  0.21265560517E+02 -0.46604019332E+03  0.47023320398E+03  0.41800000000E+01 0. -1.
        -11    1    1    2    0    0  0.43723527932E+01  0.60725090548E+02 -0.12114170963E+03  0.13558011618E+03  0.00000000000E+00 0.  1.
         11    1    1    2    0    0 -0.41164844194E+02 -0.17505054528E+02 -0.54193959446E+02  0.70270595357E+02  0.00000000000E+00 0. -1.
</event>
<event>
 7    1  0.2380582E-009  0.9842591E+02  0.7561462E-02  0.1283641E+00
         -2   -1    0    0    0  501 -0.00000000000E+00  0.00000000000E+00  0.16562596157E+02  0.16562596157E+02  0.00000000000E+00 0.  1.
          2   -1    0    0  501    0  0.00000000000E+00 -0.00000000000E+00 -0.74269460690E+03  0.74269460690E+03  0.00000000000E+00 0. -1.
         25    2    1    2    0    0 -0.15598258926E+02  0.13522061672E+01 -0.36517118917E+03  0.38631886279E+03  0.12508849748E+03 0.  0.
          5    1    3    3  502    0 -0.11782199781E+02  0.54411740951E+02 -0.89161269545E+02  0.10519820422E+03  0.41800000000E+01 0.  1.
         -5    1    3    3    0  502 -0.38160591450E+01 -0.53059534784E+02 -0.27600991962E+03  0.28112065856E+03  0.41800000000E+01 0.  1.
        -11    1    1    2    0    0  0.27723156988E+02 -0.39147202023E+02 -0.26125400309E+03  0.26562140537E+03  0.00000000000E+00 0. -1.
         11    1    1    2    0    0 -0.12124898061E+02  0.37794995856E+02 -0.99706818482E+02  0.10731693490E+03  0.00000000000E+00 0.  1.
</event>
<event>
 7    1  0.2380582E-009  0.1777282E+03  0.7561462E-02  0.1170020E+00
          1   -1    0    0  501    0  0.00000000000E+00  0.00000000000E+00  0.27200059801E+03  0.27200059801E+03  0.00000000000E+00 0. -1.
         -1   -1    0    0    0  501 -0.00000000000E+00 -0.00000000000E+00 -0.18316966440E+03  0.18316966440E+03  0.00000000000E+00 0.  1.
         25    2    1    2    0    0  0.55707343313E+02 -0.14152201266E+03  0.16985787219E+03  0.26006063111E+03  0.12509215380E+03 0.  0.
          5    1    3    3  502    0 -0.16448383390E+02 -0.10913936498E+03  0.13248309745E+03  0.17248534376E+03  0.41800000000E+01 0.  1.
         -5    1    3    3    0  502  0.72155726703E+02 -0.32382647685E+02  0.37374774745E+02  0.87575287350E+02  0.41800000000E+01 0.  1.
        -11    1    1    2    0    0 -0.34758844648E+02  0.15506237714E+02  0.86486875457E+01  0.39031019530E+02  0.00000000000E+00 0.  1.
         11    1    1    2    0    0 -0.20948498665E+02  0.12601577495E+03 -0.89675626127E+02  0.15607861177E+03  0.00000000000E+00 0. -1.
</event>
<event>
 7    1  0.2380582E-009  0.5698137E+02  0.7561462E-02  0.1410955E+00
         -1   -1    0    0    0  501 -0.00000000000E+00  0.00000000000E+00  0.32017895177E+03  0.32017895177E+03  0.00000000000E+00 0.  1.
          1   -1    0    0  501    0  0.00000000000E+00 -0.00000000000E+00 -0.54031124853E+02  0.54031124853E+02  0.00000000000E+00 0. -1.
         25    2    1    2    0    0  0.47051063524E+02  0.16266076582E+01  0.22882685231E+03  0.26500225686E+03  0.12509204360E+03 0.  0.
          5    1    3    3  502    0  0.32278611385E+02  0.12245401795E+02 -0.63611512349E+00  0.34781254441E+02  0.41800000000E+01 0.  1.
         -5    1    3    3    0  502  0.14772452139E+02 -0.10618794137E+02  0.22946296743E+03  0.23022100241E+03  0.41800000000E+01 0.  1.
        -11    1    1    2    0    0 -0.38749889137E+02  0.15305276573E+02  0.64103270567E+02  0.76452826609E+02  0.00000000000E+00 0.  1.
         11    1    1    2    0    0 -0.83011743870E+01 -0.16931884231E+02 -0.26782295958E+02  0.32754993156E+02  0.00000000000E+00 0. -1.
</event>
<event>
 7    1  0.2380582E-009  0.1244958E+03  0.7561462E-02  0.1235859E+00
          2   -1    0    0  501    0  0.00000000000E+00  0.00000000000E+00  0.56194726643E+03  0.56194726643E+03  0.00000000000E+00 0. -1.
         -2   -1    0    0    0  501 -0.00000000000E+00 -0.00000000000E+00 -0.63262352922E+02  0.63262352922E+02  0.00000000000E+00 0.  1.
         25    2    1    2    0    0 -0.21646775759E+02  0.65149387098E+02  0.49005146082E+03  0.51039898934E+03  0.12507465181E+03 0.  0.
          5    1    3    3  502    0 -0.59985703407E+02  0.81066750479E+02  0.35073495748E+03  0.36496929383E+03  0.41800000000E+01 0.  1.
         -5    1    3    3    0  502  0.38338927648E+02 -0.15917363381E+02  0.13931650334E+03  0.14542969550E+03  0.41800000000E+01 0.  1.
        -11    1    1    2    0    0  0.50236102289E+02 -0.58261378262E+02  0.25332711346E+02  0.80992594935E+02  0.00000000000E+00 0. -1.
         11    1    1    2    0    0 -0.28589326530E+02 -0.68880088360E+01 -0.16699258655E+02  0.33818035082E+02  0.00000000000E+00 0.  1.
</event>
<event>
 7    1  0.2380582E-009  0.8431906E+02  0.7561462E-02  0.1317223E+00
         -2   -1    0    0    0  501 -0.00000000000E+00  0.00000000000E+00  0.86793979808E+02  0.86793979808E+02  0.00000000000E+00 0.  1.
          2   -1    0    0  501    0  0.00000000000E+00 -0.00000000000E+00 -0.19328133841E+03  0.19328133841E+03  0.00000000000E+00 0. -1.
         25    2    1    2    0    0  0.59664541899E+02 -0.91549472170E+01 -0.20458274033E+02  0.14040153747E+03  0.12510147932E+03 0.  0.
          5    1    3    3  502    0 -0.20120297555E+02 -0.34794072442E+01  0.36560024087E+02  0.42083730938E+02  0.41800000000E+01 0. -1.
         -5    1    3    3    0  502  0.79784839453E+02 -0.56755399728E+01 -0.57018298120E+02  0.98317806531E+02  0.41800000000E+01 0. -1.
        -11    1    1    2    0    0 -0.18503800323E+02  0.17761969306E+02 -0.93508789539E+02  0.96962734600E+02  0.00000000000E+00 0. -1.
         11    1    1    2    0    0 -0.41160741576E+02 -0.86070220887E+01  0.74797049739E+01  0.42711046145E+02  0.00000000000E+00 0.  1.
</event>
<event>
 7    1  0.2380582E-009  0.2282658E+03  0.7561462E-02  0.1127866E+00
         -1   -1    0    0    0  501 -0.00000000000E+00  0.00000000000E+00  0.51956755958E+03  0.51956755958E+03  0.00000000000E+00 0.  1.
          1   -1    0    0  501    0  0.00000000000E+00 -0.00000000000E+00 -0.13525323516E+03  0.13525323516E+03  0.00000000000E+00 0. -1.
         25    2    1    2    0    0 -0.22439759279E+03 -0.15891820914E+02  0.89003013823E+02  0.27235243699E+03  0.12508990304E+03 0.  0.
          5    1    3    3  502    0 -0.25334182580E+02  0.27605201194E+01 -0.30046844239E+02  0.39619774445E+02  0.41800000000E+01 0.  1.
         -5    1    3    3    0  502 -0.19906341021E+03 -0.18652341034E+02  0.11904985806E+03  0.23273266254E+03  0.41800000000E+01 0.  1.
        -11    1    1    2    0    0  0.17993707809E+03 -0.82685554959E+01  0.17148585456E+03  0.24870287372E+03  0.00000000000E+00 0. -1.
         11    1    1    2    0    0  0.44460514695E+02  0.24160376410E+02  0.12382545603E+03  0.13376548403E+03  0.00000000000E+00 0.  1.
</event>
<event>
 7    1  0.2380582E-009  0.1650165E+03  0.7561462E-02  0.1183147E+00
         -1   -1    0    0    0  501 -0.00000000000E+00  0.00000000000E+00  0.12858488578E+03  0.12858488578E+03  0.00000000000E+00 0.  1.
          1   -1    0    0  501    0  0.00000000000E+00 -0.00000000000E+00 -0.29612293334E+03  0.29612293334E+03  0.00000000000E+00 0. -1.
         25    2    1    2    0    0  0.15926006188E+03  0.16454613590E+02 -0.10985753633E+03  0.23097746605E+03  0.12508952762E+03 0.  0.
          5    1    3    3  502    0  0.92145839197E+02  0.21046654031E+02  0.82718896112E+01  0.94972174267E+02  0.41800000000E+01 0.  1.
         -5    1    3    3    0  502  0.67114222679E+02 -0.45920404410E+01 -0.11812942594E+03  0.13600529179E+03  0.41800000000E+01 0.  1.
        -11    1    1    2    0    0 -0.10159824599E+03  0.14415193124E+02  0.55399278384E+01  0.10276522847E+03  0.00000000000E+00 0.  1.
         11    1    1    2    0    0 -0.57661815884E+02 -0.30869806713E+02 -0.63220439075E+02  0.90965124605E+02  0.00000000000E+00 0. -1.
</event>
<event>
 7    1  0.2380582E-009  0.9120013E+02  0.7561462E-02  0.1299971E+00
          3   -1    0    0  501    0  0.00000000000E+00  0.00000000000E+00  0.84172469893E+02  0.84172469893E+02  0.00000000000E+00 0. -1.
         -3   -1    0    0    0  501 -0.00000000000E+00 -0.00000000000E+00 -0.14909630959E+03  0.14909630959E+03  0.00000000000E+00 0.  1.
         25    2    1    2    0    0  0.84182990812E+01 -0.23735749877E+02 -0.34946206381E+02  0.13229840691E+03  0.12508947817E+03 0.  0.
          5    1    3    3  502    0  0.57681119105E+02 -0.53726771952E+01 -0.50868006890E+02  0.77207536461E+02  0.41800000000E+01 0. -1.
         -5    1    3    3    0  502 -0.49262820023E+02 -0.18363072682E+02  0.15921800510E+02  0.55090870446E+02  0.41800000000E+01 0. -1.
        -11    1    1    2    0    0  0.29464246918E+02  0.12998699453E+02  0.19568848458E+02  0.37683522445E+02  0.00000000000E+00 0. -1.
         11    1    1    2    0    0 -0.37882545999E+02  0.10737050424E+02 -0.49546481773E+02  0.63286850129E+02  0.00000000000E+00 0.  1.
</event>
<event>
 7    1  0.2380582E-009  0.1037845E+03  0.7561462E-02  0.1272533E+00
         -4   -1    0    0    0  501 -0.00000000000E+00  0.00000000000E+00  0.89118591568E+02  0.89118591568E+02  0.00000000000E+00 0.  1.
          4   -1    0    0  501    0  0.00000000000E+00 -0.00000000000E+00 -0.16989582837E+03  0.16989582837E+03  0.00000000000E+00 0. -1.
         25    2    1    2    0    0  0.51213300967E+02 -0.13640207875E+02 -0.71311192162E+02  0.15343132287E+03  0.12508807794E+03 0.  0.
          5    1    3    3  502    0 -0.87439122156E+00  0.35229190376E+02 -0.73750136142E+02  0.81843847634E+02  0.41800000000E+01 0. -1.
         -5    1    3    3    0  502  0.52087692189E+02 -0.48869398251E+02  0.24389439803E+01  0.71587475236E+02  0.41800000000E+01 0. -1.
        -11    1    1    2    0    0 -0.62865591542E+02  0.38052568469E+02  0.71571917410E+01  0.73832959853E+02  0.00000000000E+00 0.  1.
         11    1    1    2    0    0  0.11652290575E+02 -0.24412360594E+02 -0.16623236384E+02  0.31750137217E+02  0.00000000000E+00 0. -1.
</event>
<event>
 7    1  0.2380582E-009  0.1134529E+03  0.7561462E-02  0.1254306E+00
          1   -1    0    0  501    0  0.00000000000E+00  0.00000000000E+00  0.25523057856E+02  0.25523057856E+02  0.00000000000E+00 0. -1.
         -1   -1    0    0    0  501 -0.00000000000E+00 -0.00000000000E+00 -0.73034653841E+03  0.73034653841E+03  0.00000000000E+00 0.  1.
         25    2    1    2    0    0 -0.36675697302E+02 -0.60278556016E+02 -0.50327691273E+03  0.52336781846E+03  0.12509041301E+03 0.  0.
          5    1    3    3  502    0  0.11917899392E+02  0.29060473187E+02 -0.22181640278E+03  0.22406815117E+03  0.41800000000E+01 0. -1.
         -5    1    3    3    0  502 -0.48593596694E+02 -0.89339029203E+02 -0.28146050995E+03  0.29929966729E+03  0.41800000000E+01 0. -1.
        -11    1    1    2    0    0 -0.64763130750E+01  0.48186751613E+02 -0.17220375678E+03  0.17893585307E+03  0.00000000000E+00 0.  1.
         11    1    1    2    0    0  0.43152010377E+02  0.12091804403E+02 -0.29342811043E+02  0.53565924739E+02  0.00000000000E+00 0. -1.
</event>
<event>
 7    1  0.2831296E-009  0.7259075E+02  0.7561462E-02  0.1351498E+00
         -1   -1    0    0    0  501 -0.00000000000E+00  0.00000000000E+00  0.10349651416E+03  0.10349651416E+03  0.00000000000E+00 0.  1.
          1   -1    0    0  501    0  0.00000000000E+00 -0.00000000000E+00 -0.16213450451E+03  0.16213450451E+03  0.00000000000E+00 0. -1.
         25    2    1    2    0    0 -0.40183676832E+02  0.11059953420E+02 -0.90849615639E+02  0.16012282078E+03  0.12509442282E+03 0.  0.
          5    1    3    3  502    0  0.28536978541E+02  0.12122401300E+02 -0.85517783010E+02  0.91060833340E+02  0.41800000000E+01 0. -1.
         -5    1    3    3    0  502 -0.68720655373E+02 -0.10624478805E+01 -0.53318326288E+01  0.69061987443E+02  0.41800000000E+01 0. -1.
        -11    1    1    2    0    0  0.31286607165E+02 -0.15700986597E+02  0.63576883998E+02  0.72576807225E+02  0.00000000000E+00 0.  1.
         11    1    1    2    0    0  0.88970696669E+01  0.46410331771E+01 -0.31365258708E+02  0.32931390669E+02  0.00000000000E+00 0. -1.
</event>
<event>
 7    1  0.2380582E-009  0.1177619E+03  0.7561462E-02  0.1246836E+00
          2   -1    0    0  501    0  0.00000000000E+00  0.00000000000E+00  0.15799995119E+03  0.15799995119E+03  0.00000000000E+00 0. -1.
         -2   -1    0    0    0  501 -0.00000000000E+00 -0.00000000000E+00 -0.98136146101E+02  0.98136146101E+02  0.00000000000E+00 0.  1.
         25    2    1    2    0    0 -0.19147294269E+02  0.56919051141E+02  0.45168487853E+02  0.14592122972E+03  0.12508563357E+03 0.  0.
          5    1    3    3  502    0 -0.43694855350E+02 -0.26787388389E+02  0.16596003569E+02  0.54034288143E+02  0.41800000000E+01 0. -1.
         -5    1    3    3    0  502  0.24547561080E+02  0.83706439530E+02  0.28572484283E+02  0.91886941574E+02  0.41800000000E+01 0. -1.
        -11    1    1    2    0    0 -0.20296106087E+02 -0.53450147565E+02  0.33623195696E+02  0.66327742957E+02  0.00000000000E+00 0. -1.
         11    1    1    2    0    0  0.39443400356E+02 -0.34689035762E+01 -0.18927878463E+02  0.43887124613E+02  0.00000000000E+00 0.  1.
</event>
<event>
 7    1  0.2380582E-009  0.8079782E+02  0.7561462E-02  0.1326802E+00
         -2   -1    0    0    0  501 -0.00000000000E+00  0.00000000000E+00  0.13956655566E+03  0.13956655566E+03  0.00000000000E+00 0.  1.
          2   -1    0    0  501    0  0.00000000000E+00 -0.00000000000E+00 -0.11826846968E+03  0.11826846968E+03  0.00000000000E+00 0. -1.
         25    2    1    2    0    0  0.37860392413E+02 -0.39413360984E+02  0.54567940220E+02  0.14701320956E+03  0.12509357037E+03 0.  0.
          5    1    3    3  502    0  0.81152301491E+01 -0.85520776030E+00 -0.39744285663E+02  0.40788098553E+02  0.41800000000E+01 0.  1.
         -5    1    3    3    0  502  0.29745162264E+02 -0.38558153224E+02  0.94312225883E+02  0.10622511101E+03  0.41800000000E+01 0.  1.
        -11    1    1    2    0    0  0.27681643370E+02  0.22985246564E+02 -0.22400352558E+02  0.42383613980E+02  0.00000000000E+00 0. -1.
         11    1    1    2    0    0 -0.65542035783E+02  0.16428114420E+02 -0.10869501690E+02  0.68438201795E+02  0.00000000000E+00 0.  1.
</event>
<event>
 7    1  0.2380582E-009  0.8409317E+02  0.7561462E-02  0.1317821E+00
         -1   -1    0    0    0  501 -0.00000000000E+00  0.00000000000E+00  0.13876045272E+03  0.13876045272E+03  0.00000000000E+00 0.  1.
          1   -1    0    0  501    0  0.00000000000E+00 -0.00000000000E+00 -0.11691157816E+03  0.11691157816E+03  0.00000000000E+00 0. -1.
         25    2    1    2    0    0  0.12177557651E+02  0.29373212030E+02  0.72314917127E+02  0.14794556259E+03  0.12508942304E+03 0.  0.
          5    1    3    3  502    0  0.51821584526E+02  0.46082131839E+02  0.72754146024E+01  0.69853013931E+02  0.41800000000E+01 0.  1.
         -5    1    3    3    0  502 -0.39644026874E+02 -0.16708919809E+02  0.65039502525E+02  0.78092548663E+02  0.41800000000E+01 0.  1.
        -11    1    1    2    0    0  0.16164127668E+02 -0.19831497913E+02  0.19150994199E+02  0.31958221345E+02  0.00000000000E+00 0.  1.
         11    1    1    2    0    0 -0.28341685320E+02 -0.95417141169E+01 -0.69617036767E+02  0.75768246932E+02  0.00000000000E+00 0. -1.
</event>
<event>
 7    1  0.2380582E-009  0.1252337E+03  0.7561462E-02  0.1234704E+00
         -2   -1    0    0    0  501 -0.00000000000E+00  0.00000000000E+00  0.13150929890E+02  0.13150929890E+02  0.00000000000E+00 0.  1.
          2   -1    0    0  501    0  0.00000000000E+00 -0.00000000000E+00 -0.12501086603E+04  0.12501086603E+04  0.00000000000E+00 0. -1.
         25    2    1    2    0    0 -0.66211193213E+02 -0.12109493922E+02 -0.76298697891E+03  0.77609662953E+03  0.12508511671E+03 0.  0.
          5    1    3    3  502    0 -0.11618716236E+02  0.52898044084E+02 -0.37465700902E+03  0.37857435788E+03  0.41800000000E+01 0. -1.
         -5    1    3    3    0  502 -0.54592476977E+02 -0.65007538006E+02 -0.38832996989E+03  0.39752227165E+03  0.41800000000E+01 0. -1.
        -11    1    1    2    0    0  0.62611621034E+01  0.43179793255E+02 -0.22540971020E+03  0.22959362828E+03  0.00000000000E+00 0. -1.
         11    1    1    2    0    0  0.59950031110E+02 -0.31070299332E+02 -0.24856104126E+03  0.25756933234E+03  0.00000000000E+00 0.  1.
</event>
<event>
 7    1  0.2380582E-009  0.9551478E+02  0.7561462E-02  0.1290021E+00
         -2   -1    0    0    0  501 -0.00000000000E+00  0.00000000000E+00  0.14705473868E+02  0.14705473868E+02  0.00000000000E+00 0.  1.
          2   -1    0    0  501    0  0.00000000000E+00 -0.00000000000E+00 -0.95846499952E+03  0.95846499952E+03  0.00000000000E+00 0. -1.
         25    2    1    2    0    0 -0.19890070468E+02  0.33757560828E+01 -0.71889877569E+03  0.72997977992E+03  0.12509204117E+03 0.  0.
          5    1    3    3  502    0 -0.66730436174E+02  0.19984945140E+02 -0.29422359460E+03  0.30238608626E+03  0.41800000000E+01 0.  1.
         -5    1    3    3    0  502  0.46840365706E+02 -0.16609189058E+02 -0.42467518110E+03  0.42759369366E+03  0.41800000000E+01 0.  1.
        -11    1    1    2    0    0 -0.22554363654E+01 -0.33725979199E+02 -0.31466585415E+02  0.46180890678E+02  0.00000000000E+00 0.  1.
         11    1    1    2    0    0  0.22145506833E+02  0.30350223116E+02 -0.19339416454E+03  0.19700980279E+03  0.00000000000E+00 0. -1.
</event>
<event>
 7    1  0.2380582E-009  0.1471772E+03  0.7561462E-02  0.1203985E+00
         -3   -1    0    0    0  501 -0.00000000000E+00  0.00000000000E+00  0.26875150444E+02  0.26875150444E+02  0.00000000000E+00 0.  1.
          3   -1    0    0  501    0  0.00000000000E+00 -0.00000000000E+00 -0.10015743631E+04  0.10015743631E+04  0.00000000000E+00 0. -1.
         25    2    1    2    0    0 -0.61597263459E+02 -0.77489715970E+02 -0.74335284979E+03  0.76027621423E+03  0.12509030214E+03 0.  0.
          5    1    3    3  502    0  0.30050910060E+02 -0.58386479760E+02 -0.31067205191E+03  0.31756359119E+03  0.41800000000E+01 0. -1.
         -5    1    3    3    0  502 -0.91648173519E+02 -0.19103236210E+02 -0.43268079788E+03  0.44271262304E+03  0.41800000000E+01 0. -1.
        -11    1    1    2    0    0 -0.59523158362E+01  0.66068127364E+02 -0.12825229474E+03  0.14439210028E+03  0.00000000000E+00 0. -1.
         11    1    1    2    0    0  0.67549579296E+02  0.11421588606E+02 -0.10309406808E+03  0.12378119899E+03  0.00000000000E+00 0.  1.
</event>
<event>
 7    1  0.2380582E-009  0.9102257E+02  0.7561462E-02  0.1300394E+00
          2   -1    0    0  501    0  0.00000000000E+00  0.00000000000E+00  0.21653830195E+02  0.21653830195E+02  0.00000000000E+00 0. -1.
         -2   -1    0    0    0  501 -0.00000000000E+00 -0.00000000000E+00 -0.62178697893E+03  0.62178697893E+03  0.00000000000E+00 0.  1.
         25    2    1    2    0    0 -0.31203206178E+02 -0.18657896603E+02 -0.35923068205E+03  0.38212018335E+03  0.12508954558E+03 0.  0.
          5    1    3    3  502    0 -0.54387632826E+02 -0.17126286185E+02 -0.63490018726E+02  0.85438745079E+02  0.41800000000E+01 0. -1.
         -5    1    3    3    0  502  0.23184426648E+02 -0.15316104179E+01 -0.29574066333E+03  0.29668143827E+03  0.41800000000E+01 0. -1.
        -11    1    1    2    0    0 -0.20055018016E+02  0.40772989565E+02 -0.10853572100E+03  0.11766326172E+03  0.00000000000E+00 0.  1.
         11    1    1    2    0    0  0.51258224195E+02 -0.22115092962E+02 -0.13236674568E+03  0.14365736406E+03  0.00000000000E+00 0. -1.
</event>
<event>
 7    1  0.2380582E-009  0.1309873E+03  0.7561462E-02  0.1225998E+00
         -2   -1    0    0    0  501 -0.00000000000E+00  0.00000000000E+00  0.44372377489E+02  0.44372377489E+02  0.00000000000E+00 0.  1.
          2   -1    0    0  501    0  0.00000000000E+00 -0.00000000000E+00 -0.52135994236E+03  0.52135994236E+03  0.00000000000E+00 0. -1.
         25    2    1    2    0    0  0.65197984736E+02 -0.78765162489E+02 -0.31621571749E+03  0.35509720439E+03  0.12508763547E+03 0.  0.
          5    1    3    3  502    0 -0.12479759567E+02  0.62761152347E+01 -0.16157596825E+03  0.16223254895E+03  0.41800000000E+01 0. -1.
         -5    1    3    3    0  502  0.77677744304E+02 -0.85041277723E+02 -0.15463974923E+03  0.19286465545E+03  0.41800000000E+01 0. -1.
        -11    1    1    2    0    0 -0.44561667233E+02  0.95621117726E+02 -0.10508944927E+03  0.14890578460E+03  0.00000000000E+00 0.  1.
         11    1    1    2    0    0 -0.20636317503E+02 -0.16855955237E+02 -0.55682398123E+02  0.61729330855E+02  0.00000000000E+00 0. -1.
</event>
<event>
 7    1  0.2380582E-009  0.1770119E+03  0.7561462E-02  0.1170727E+00
         -1   -1    0    0    0  501 -0.00000000000E+00  0.00000000000E+00  0.11677643007E+03  0.11677643007E+03  0.00000000000E+00 0.  1.
          1   -1    0    0  501    0  0.00000000000E+00 -0.00000000000E+00 -0.78451630182E+03  0.78451630182E+03  0.00000000000E+00 0. -1.
         25    2    1    2    0    0 -0.15100915765E+03 -0.23568929288E+02 -0.69394328922E+03  0.72150105521E+03  0.12508886402E+03 0.  0.
          5    1    3    3  502    0 -0.12822215427E+03  0.31770656484E+02 -0.54790589292E+03  0.56362100329E+03  0.41800000000E+01 0. -1.
         -5    1    3    3    0  502 -0.22787003380E+02 -0.55339585772E+02 -0.14603739630E+03  0.15788005192E+03  0.41800000000E+01 0.  1.
        -11    1    1    2    0    0  0.86747341161E+02  0.40015289899E+02  0.51823398990E+02  0.10868297616E+03  0.00000000000E+00 0.  1.
         11    1    1    2    0    0  0.64261816489E+02 -0.16446360610E+02 -0.25619981518E+02  0.71108700514E+02  0.00000000000E+00 0. -1.
</event>
<event>
 7    1  0.2380582E-009  0.1558702E+03  0.7561462E-02  0.1193440E+00
          2   -1    0    0  501    0  0.00000000000E+00  0.00000000000E+00  0.76320194308E+03  0.76320194308E+03  0.00000000000E+00 0. -1.
         -2   -1    0    0    0  501 -0.00000000000E+00 -0.00000000000E+00 -0.35136628789E+02  0.35136628789E+02  0.00000000000E+00 0.  1.
         25    2    1    2    0    0 -0.10555608437E+02  0.11355902045E+03  0.28032852266E+03  0.32747105155E+03  0.12508451940E+03 0.  0.
          5    1    3    3  502    0  0.50318630079E+02  0.15810323858E+02  0.71320109151E+02  0.88802934877E+02  0.41800000000E+01 0. -1.
         -5    1    3    3    0  502 -0.60874238516E+02  0.97748696587E+02  0.20900841351E+03  0.23866811667E+03  0.41800000000E+01 0. -1.
        -11    1    1    2    0    0  0.39181876104E+02 -0.10739415149E+03  0.38536659697E+03  0.40196534334E+03  0.00000000000E+00 0. -1.
         11    1    1    2    0    0 -0.28626267667E+02 -0.61648689539E+01  0.62370194671E+02  0.68902176983E+02  0.00000000000E+00 0.  1.
</event>
<event>
 7    1  0.2380582E-009  0.1368442E+03  0.7561462E-02  0.1217639E+00
          3   -1    0    0  501    0  0.00000000000E+00  0.00000000000E+00  0.13902694724E+03  0.13902694724E+03  0.00000000000E+00 0. -1.
         -3   -1    0    0    0  501 -0.00000000000E+00 -0.00000000000E+00 -0.20840123725E+03  0.20840123725E+03  0.00000000000E+00 0.  1.
         25    2    1    2    0    0  0.11722315262E+03 -0.44315926849E+02  0.12153564590E+02  0.17748362199E+03  0.12509019970E+03 0.  0.
          5    1    3    3  502    0  0.97833773730E+02 -0.41571411564E+02  0.62443171997E+02  0.12335417168E+03  0.41800000000E+01 0.  1.
         -5    1    3    3    0  502  0.19389378889E+02 -0.27445152843E+01 -0.50289607407E+02  0.54129450311E+02  0.41800000000E+01 0.  1.
        -11    1    1    2    0    0 -0.76122562633E+02  0.66055604197E+02 -0.43065988310E+02  0.10960231173E+03  0.00000000000E+00 0. -1.
         11    1    1    2    0    0 -0.41100589985E+02 -0.21739677348E+02 -0.38461866291E+02  0.60342250762E+02  0.00000000000E+00 0.  1.
</event>
<event>
 7    1  0.2380582E-009  0.1797906E+03  0.7561462E-02  0.1168006E+00
         -1   -1    0    0    0  501 -0.00000000000E+00  0.00000000000E+00  0.35594005369E+03  0.35594005369E+03  0.00000000000E+00 0.  1.
          1   -1    0    0  501    0  0.00000000000E+00 -0.00000000000E+00 -0.11117708497E+03  0.11117708497E+03  0.00000000000E+00 0. -1.
         25    2    1    2    0    0  0.14903884949E+03 -0.35570665970E+02  0.15381507542E+03  0.25057508596E+03  0.12510373833E+03 0.  0.
          5    1    3    3  502    0 -0.62865200533E+01 -0.40328013063E+02  0.44535852482E+02  0.60553972027E+02  0.41800000000E+01 0. -1.
         -5    1    3    3    0  502  0.15532536954E+03  0.47573470928E+01  0.10927922294E+03  0.19002111393E+03  0.41800000000E+01 0. -1.
        -11    1    1    2    0    0 -0.14409922333E+03  0.46243624883E+02  0.11479685397E+03  0.18995098496E+03  0.00000000000E+00 0.  1.
         11    1    1    2    0    0 -0.49396261595E+01 -0.10672958913E+02 -0.23848960665E+02  0.26591067737E+02  0.00000000000E+00 0. -1.
</event>
<event>
 7    1  0.2380582E-009  0.1368244E+03  0.7561462E-02  0.1217667E+00
         -2   -1    0    0    0  501 -0.00000000000E+00  0.00000000000E+00  0.30655148758E+02  0.30655148758E+02  0.00000000000E+00 0.  1.
          2   -1    0    0  501    0  0.00000000000E+00 -0.00000000000E+00 -0.81639025198E+03  0.81639025198E+03  0.00000000000E+00 0. -1.
         25    2    1    2    0    0  0.41291778512E+02  0.96323522553E+02 -0.29698262116E+03  0.33886410342E+03  0.12508785450E+03 0.  0.
          5    1    3    3  502    0 -0.22588277794E+02  0.76516932167E+02 -0.85488324672E+02  0.11700768033E+03  0.41800000000E+01 0. -1.
         -5    1    3    3    0  502  0.63880056306E+02  0.19806590385E+02 -0.21149429649E+03  0.22185642308E+03  0.41800000000E+01 0. -1.
        -11    1    1    2    0    0  0.20541667657E+02 -0.24678919128E+02 -0.50624588339E+02  0.59948795684E+02  0.00000000000E+00 0.  1.
         11    1    1    2    0    0 -0.61833446169E+02 -0.71644603425E+02 -0.43812789372E+03  0.44823250163E+03  0.00000000000E+00 0. -1.
</event>
<event>
 7    1  0.2380582E-009  0.1085588E+03  0.7561462E-02  0.1263262E+00
         -2   -1    0    0    0  501 -0.00000000000E+00  0.00000000000E+00  0.39723878873E+02  0.39723878873E+02  0.00000000000E+00 0.  1.
          2   -1    0    0  501    0  0.00000000000E+00 -0.00000000000E+00 -0.45452173529E+03  0.45452173529E+03  0.00000000000E+00 0. -1.
         25    2    1    2    0    0  0.64015791672E+02 -0.27304969523E+02 -0.15441006302E+03  0.21055298796E+03  0.12508601134E+03 0.  0.
          5    1    3    3  502    0  0.14277431518E+02 -0.51394293674E+02 -0.14471453565E+03  0.15428865059E+03  0.41800000000E+01 0.  1.
         -5    1    3    3    0  502  0.49738360154E+02  0.24089324151E+02 -0.96955273719E+01  0.56264337371E+02  0.41800000000E+01 0.  1.
        -11    1    1    2    0    0  0.19276552944E+02  0.14042619417E+02 -0.96160298801E+02  0.99073627767E+02  0.00000000000E+00 0. -1.
         11    1    1    2    0    0 -0.83292344616E+02  0.13262350106E+02 -0.16422749460E+03  0.18461899844E+03  0.00000000000E+00 0.  1.
</event>
<event>
 7    1  0.2380582E-009  0.9448371E+02  0.7561462E-02  0.1292343E+00
         -1   -1    0    0    0  501 -0.00000000000E+00  0.00000000000E+00  0.23023427153E+02  0.23023427153E+02  0.00000000000E+00 0.  1.
          1   -1    0    0  501    0  0.00000000000E+00 -0.00000000000E+00 -0.60530696692E+03  0.60530696692E+03  0.00000000000E+00 0. -1.
         25    2    1    2    0    0 -0.78463954256E+01 -0.38383414576E+02 -0.40451320841E+03  0.42521650917E+03  0.12507314444E+03 0.  0.
          5    1    3    3  502    0  0.31691608523E+02  0.91222741007E+01 -0.27485446103E+02  0.43133468247E+02  0.41800000000E+01 0. -1.
         -5    1    3    3    0  502 -0.39538003949E+02 -0.47505688677E+02 -0.37702776230E+03  0.38208304092E+03  0.41800000000E+01 0. -1.
        -11    1    1    2    0    0 -0.30158330609E+02 -0.10432597429E+02 -0.91868405602E+02  0.97253112763E+02  0.00000000000E+00 0. -1.
         11    1    1    2    0    0  0.38004726035E+02  0.48816012005E+02 -0.85901925756E+02  0.10586077214E+03  0.00000000000E+00 0.  1.
</event>
<event>
 7    1  0.2380582E-009  0.1037511E+03  0.7561462E-02  0.1272600E+00
          1   -1    0    0  501    0  0.00000000000E+00  0.00000000000E+00  0.61169688266E+02  0.61169688266E+02  0.00000000000E+00 0. -1.
         -1   -1    0    0    0  501 -0.00000000000E+00 -0.00000000000E+00 -0.34842740758E+03  0.34842740758E+03  0.00000000000E+00 0.  1.
         25    2    1    2    0    0  0.33385742420E+02  0.61582511330E+02 -0.24564376747E+03  0.28442488958E+03  0.12509853644E+03 0.  0.
          5    1    3    3  502    0 -0.23930252569E+02  0.60411663929E+02 -0.20205253755E+03  0.21228501232E+03  0.41800000000E+01 0.  1.
         -5    1    3    3    0  502  0.57315994988E+02  0.11708474005E+01 -0.43591229921E+02  0.72139877261E+02  0.41800000000E+01 0.  1.
        -11    1    1    2    0    0 -0.43406823011E+02 -0.61004644434E+02 -0.65363428145E+02  0.99388614365E+02  0.00000000000E+00 0.  1.
         11    1    1    2    0    0  0.10021080591E+02 -0.57786689564E+00  0.23749476303E+02  0.25783591895E+02  0.00000000000E+00 0. -1.
</event>
<event>
 7    1  0.2380582E-009  0.1159080E+03  0.7561462E-02  0.1250004E+00
         -1   -1    0    0    0  501 -0.00000000000E+00  0.00000000000E+00  0.19656153464E+03  0.19656153464E+03  0.00000000000E+00 0.  1.
          1   -1    0    0  501    0  0.00000000000E+00 -0.00000000000E+00 -0.13419212673E+03  0.13419212673E+03  0.00000000000E+00 0. -1.
         25    2    1    2    0    0 -0.12663735716E+01 -0.10139488755E+03 -0.27105178782E+02  0.16329618909E+03  0.12509367582E+03 0.  0.
          5    1    3    3  502    0  0.27953985415E+02 -0.95832807074E+02  0.25143086235E+02  0.10302911917E+03  0.41800000000E+01 0.  1.
         -5    1    3    3    0  502 -0.29220358986E+02 -0.55620804787E+01 -0.52248265018E+02  0.60267069913E+02  0.41800000000E+01 0.  1.
        -11    1    1    2    0    0  0.55154849895E+01  0.59104919279E+02  0.10629486257E+03  0.12174731975E+03  0.00000000000E+00 0.  1.
         11    1    1    2    0    0 -0.42491114179E+01  0.42289968273E+02 -0.16820275874E+02  0.45710152536E+02  0.00000000000E+00 0. -1.
</event>
<event>
 7    1  0.2380582E-009  0.2478841E+03  0.7561462E-02  0.1114649E+00
          2   -1    0    0  501    0  0.00000000000E+00  0.00000000000E+00  0.70627610770E+03  0.70627610770E+03  0.00000000000E+00 0. -1.
         -2   -1    0    0    0  501 -0.00000000000E+00 -0.00000000000E+00 -0.10435604820E+03  0.10435604820E+03  0.00000000000E+00 0.  1.
         25    2    1    2    0    0 -0.23471744624E+03 -0.36739494781E+02  0.41243099336E+03  0.49212467351E+03  0.12508117344E+03 0.  0.
          5    1    3    3  502    0 -0.23468918372E+03 -0.32747623979E+02  0.31338909658E+03  0.39291426302E+03  0.41800000000E+01 0. -1.
         -5    1    3    3    0  502 -0.28262516268E-01 -0.39918708021E+01  0.99041896779E+02  0.99210410486E+02  0.41800000000E+01 0. -1.
        -11    1    1    2    0    0  0.24915046564E+02 -0.23975769168E+02  0.10536714992E+02  0.36147190974E+02  0.00000000000E+00 0.  1.
         11    1    1    2    0    0  0.20980239967E+03  0.60715263949E+02  0.17895235115E+03  0.28236029142E+03  0.00000000000E+00 0. -1.
</event>
<event>
 7    1  0.2380582E-009  0.2196872E+03  0.7561462E-02  0.1134116E+00
          2   -1    0    0  501    0  0.00000000000E+00  0.00000000000E+00  0.34957397738E+03  0.34957397738E+03  0.00000000000E+00 0.  1.
         -2   -1    0    0    0  501 -0.00000000000E+00 -0.00000000000E+00 -0.16844910670E+03  0.16844910670E+03  0.00000000000E+00 0. -1.
         25    2    1    2    0    0 -0.17100061599E+03 -0.10309400005E+03  0.18610953764E+03  0.30025631177E+03  0.12509000457E+03 0.  0.
          5    1    3    3  502    0 -0.10005545227E+03 -0.12148855872E+03  0.97496252204E+02  0.18518519115E+03  0.41800000000E+01 0. -1.
         -5    1    3    3    0  502 -0.70945163721E+02  0.18394558673E+02  0.88613285434E+02  0.11507112062E+03  0.41800000000E+01 0. -1.
        -11    1    1    2    0    0  0.72310731550E+02  0.10267485760E+02 -0.31789819833E+02  0.79654603170E+02  0.00000000000E+00 0. -1.
         11    1    1    2    0    0  0.98689884437E+02  0.92826514288E+02  0.26805152867E+02  0.13811216914E+03  0.00000000000E+00 0.  1.
</event>
<event>
 7    1  0.2380582E-009  0.1169266E+03  0.7561462E-02  0.1248255E+00
         -1   -1    0    0    0  501 -0.00000000000E+00  0.00000000000E+00  0.11951607139E+03  0.11951607139E+03  0.00000000000E+00 0.  1.
          1   -1    0    0  501    0  0.00000000000E+00 -0.00000000000E+00 -0.17923536424E+03  0.17923536424E+03  0.00000000000E+00 0. -1.
         25    2    1    2    0    0  0.72042783277E+02  0.24413367433E+02 -0.99791442923E+02  0.17717948684E+03  0.12509221936E+03 0.  0.
          5    1    3    3  502    0  0.62857464554E+02 -0.44205372059E+02 -0.55565194049E+02  0.94921751768E+02  0.41800000000E+01 0.  1.
         -5    1    3    3    0  502  0.91853187234E+01  0.68618739492E+02 -0.44226248874E+02  0.82257735071E+02  0.41800000000E+01 0.  1.
        -11    1    1    2    0    0 -0.25776117001E+01  0.97792155746E+01  0.42919769407E+02  0.44095166915E+02  0.00000000000E+00 0.  1.
         11    1    1    2    0    0 -0.69465171577E+02 -0.34192583008E+02 -0.28476193374E+01  0.77476781882E+02  0.00000000000E+00 0. -1.
</event>
<event>
 7    1  0.2380582E-009  0.1896748E+03  0.7561462E-02  0.1158755E+00
          2   -1    0    0  501    0  0.00000000000E+00  0.00000000000E+00  0.95532635056E+03  0.95532635056E+03  0.00000000000E+00 0. -1.
         -2   -1    0    0    0  501 -0.00000000000E+00 -0.00000000000E+00 -0.46711908418E+02  0.46711908418E+02  0.00000000000E+00 0.  1.
         25    2    1    2    0    0  0.11651610726E+03 -0.10478917828E+03  0.68923603790E+03  0.71780924710E+03  0.12508806554E+03 0.  0.
          5    1    3    3  502    0  0.14023870451E+03 -0.10663301423E+03  0.61410811821E+03  0.63889259443E+03  0.41800000000E+01 0. -1.
         -5    1    3    3    0  502 -0.23722597247E+02  0.18438359461E+01  0.75127919693E+02  0.78916652669E+02  0.41800000000E+01 0. -1.
        -11    1    1    2    0    0 -0.71288276970E+02  0.75036592578E+01  0.68936471242E+02  0.99451296637E+02  0.00000000000E+00 0. -1.
         11    1    1    2    0    0 -0.45227830294E+02  0.97285519026E+02  0.15044193299E+03  0.18477771524E+03  0.00000000000E+00 0.  1.
</event>
<event>
 7    1  0.2380582E-009  0.1462230E+03  0.7561462E-02  0.1205192E+00
         -2   -1    0    0    0  501 -0.00000000000E+00  0.00000000000E+00  0.12191433224E+03  0.12191433224E+03  0.00000000000E+00 0.  1.
          2   -1    0    0  501    0  0.00000000000E+00 -0.00000000000E+00 -0.22535524926E+03  0.22535524926E+03  0.00000000000E+00 0. -1.
         25    2    1    2    0    0  0.39310169657E+01  0.10821737605E+03 -0.12362742830E+03  0.20653976905E+03  0.12509389192E+03 0.  0.
          5    1    3    3  502    0  0.55492246615E+02  0.72425788433E+02 -0.34903154956E+02  0.97778253668E+02  0.41800000000E+01 0. -1.
         -5    1    3    3    0  502 -0.51561229650E+02  0.35791587618E+02 -0.88724273343E+02  0.10876151538E+03  0.41800000000E+01 0. -1.
        -11    1    1    2    0    0 -0.95241561344E+01 -0.12249788562E+03  0.23359125739E+02  0.12506834247E+03  0.00000000000E+00 0.  1.
         11    1    1    2    0    0  0.55931391688E+01  0.14280509573E+02 -0.31726144655E+01  0.15661469981E+02  0.00000000000E+00 0. -1.
</event>
<event>
 7    1  0.2380582E-009  0.1301990E+03  0.7561462E-02  0.1227161E+00
         -1   -1    0    0    0  501 -0.00000000000E+00  0.00000000000E+00  0.47797344707E+02  0.47797344707E+02  0.00000000000E+00 0.  1.
          1   -1    0    0  501    0  0.00000000000E+00 -0.00000000000E+00 -0.50717123030E+03  0.50717123030E+03  0.00000000000E+00 0. -1.
         25    2    1    2    0    0 -0.54463839835E+02  0.86998348431E+02 -0.16644691373E+03  0.23213525370E+03  0.12508868231E+03 0.  0.
          5    1    3    3  502    0 -0.70602255778E+02  0.10832364846E+03 -0.11111193401E+03  0.17053452910E+03  0.41800000000E+01 0.  1.
         -5    1    3    3    0  502  0.16138415942E+02 -0.21325300031E+02 -0.55334979719E+02  0.61600724598E+02  0.41800000000E+01 0.  1.
        -11    1    1    2    0    0  0.39409595857E+01 -0.18099938785E+02 -0.87917730555E+00  0.18544861800E+02  0.00000000000E+00 0.  1.
         11    1    1    2    0    0  0.50522880250E+02 -0.68898409646E+02 -0.29204779456E+03  0.30428845951E+03  0.00000000000E+00 0. -1.
</event>
<event>
 7    1  0.2380582E-009  0.1120865E+03  0.7561462E-02  0.1256754E+00
         -1   -1    0    0    0  501 -0.00000000000E+00  0.00000000000E+00  0.56147706473E+02  0.56147706473E+02  0.00000000000E+00 0.  1.
          1   -1    0    0  501    0  0.00000000000E+00 -0.00000000000E+00 -0.34652796087E+03  0.34652796087E+03  0.00000000000E+00 0. -1.
         25    2    1    2    0    0  0.28661859695E+02 -0.81044214130E+02 -0.15020682046E+03  0.21353621222E+03  0.12508380459E+03 0.  0.
          5    1    3    3  502    0 -0.36954019942E+02 -0.45884593372E+02 -0.11872056490E+03  0.13260105742E+03  0.41800000000E+01 0. -1.
         -5    1    3    3    0  502  0.65615879637E+02 -0.35159620758E+02 -0.31486255557E+02  0.80935154793E+02  0.41800000000E+01 0. -1.
        -11    1    1    2    0    0 -0.50111983242E+01  0.55548582220E+02 -0.14373937760E+03  0.15418095138E+03  0.00000000000E+00 0. -1.
         11    1    1    2    0    0 -0.23650661371E+02  0.25495631910E+02  0.35659436685E+01  0.34958503744E+02  0.00000000000E+00 0.  1.
</event>
<event>
 7    1  0.2380582E-009  0.1224401E+03  0.7561462E-02  0.1239125E+00
          1   -1    0    0  501    0  0.00000000000E+00  0.00000000000E+00  0.66087574935E+02  0.66087574935E+02  0.00000000000E+00 0. -1.
         -1   -1    0    0    0  501 -0.00000000000E+00 -0.00000000000E+00 -0.32444505799E+03  0.32444505799E+03  0.00000000000E+00 0.  1.
         25    2    1    2    0    0 -0.71684755125E+02  0.23220347874E+02 -0.58068283351E+02  0.15715045225E+03  0.12508577233E+03 0.  0.
          5    1    3    3  502    0  0.12705032910E+02 -0.33771312984E+02  0.59315418903E+01  0.36804551772E+02  0.41800000000E+01 0. -1.
         -5    1    3    3    0  502 -0.84389788035E+02  0.56991660858E+02 -0.63999825242E+02  0.12034590048E+03  0.41800000000E+01 0. -1.
        -11    1    1    2    0    0  0.46109719777E+02  0.24709404768E+02 -0.15180855183E+03  0.16056929143E+03  0.00000000000E+00 0. -1.
         11    1    1    2    0    0  0.25575035347E+02 -0.47929752642E+02 -0.48480647878E+02  0.72812889244E+02  0.00000000000E+00 0.  1.
</event>
<event>
 7    1  0.2380582E-009  0.1029189E+03  0.7561462E-02  0.1274275E+00
          1   -1    0    0  501    0  0.00000000000E+00  0.00000000000E+00  0.13877875628E+03  0.13877875628E+03  0.00000000000E+00 0. -1.
         -1   -1    0    0    0  501 -0.00000000000E+00 -0.00000000000E+00 -0.95196464764E+02  0.95196464764E+02  0.00000000000E+00 0.  1.
         25    2    1    2    0    0  0.33210130268E+02 -0.21062627264E+02  0.16285798103E+02  0.13212872857E+03  0.12508487788E+03 0.  0.
          5    1    3    3  502    0  0.44205722649E+02  0.31126667607E+02 -0.29483494874E+02  0.61723287512E+02  0.41800000000E+01 0.  1.
         -5    1    3    3    0  502 -0.10995592381E+02 -0.52189294871E+02  0.45769292977E+02  0.70405441058E+02  0.41800000000E+01 0.  1.
        -11    1    1    2    0    0 -0.59358303618E+02 -0.69842609619E+01  0.16017912151E+02  0.61876987801E+02  0.00000000000E+00 0.  1.
         11    1    1    2    0    0  0.26148173350E+02  0.28046888226E+02  0.11278581266E+02  0.39969504677E+02  0.00000000000E+00 0. -1.
</event>
<event>
 7    1  0.2380582E-009  0.1217579E+03  0.7561462E-02  0.1240225E+00
         -4   -1    0    0    0  501 -0.00000000000E+00  0.00000000000E+00  0.15487040401E+03  0.15487040401E+03  0.00000000000E+00 0. -1.
          4   -1    0    0  501    0  0.00000000000E+00 -0.00000000000E+00 -0.13576626322E+03  0.13576626322E+03  0.00000000000E+00 0.  1.
         25    2    1    2    0    0  0.39574314835E+02  0.89168370200E+02 -0.28586741818E+01  0.15866059708E+03  0.12509152013E+03 0.  0.
          5    1    3    3  502    0 -0.33279050721E+02  0.57163621578E+02 -0.32279197313E+02  0.73719697693E+02  0.41800000000E+01 0. -1.
         -5    1    3    3    0  502  0.72853365555E+02  0.32004748622E+02  0.29420523131E+02  0.84940899385E+02  0.41800000000E+01 0. -1.
        -11    1    1    2    0    0 -0.20458850859E+02 -0.46061934614E+02 -0.32473099110E+02  0.59956388856E+02  0.00000000000E+00 0.  1.
         11    1    1    2    0    0 -0.19115463976E+02 -0.43106435587E+02  0.54435914076E+02  0.72019681292E+02  0.00000000000E+00 0. -1.
</event>
<event>
 7    1  0.2380582E-009  0.6553519E+02  0.7561462E-02  0.1375970E+00
         -1   -1    0    0    0  501 -0.00000000000E+00  0.00000000000E+00  0.24093876885E+02  0.24093876885E+02  0.00000000000E+00 0.  1.
          1   -1    0    0  501    0  0.00000000000E+00 -0.00000000000E+00 -0.60165764288E+03  0.60165764288E+03  0.00000000000E+00 0. -1.
         25    2    1    2    0    0  0.61523677115E+01 -0.57772543187E+02 -0.32570060587E+03  0.35369817174E+03  0.12508394643E+03 0.  0.
          5    1    3    3  502    0 -0.25480092631E+01 -0.57339433793E+02 -0.33522627088E+03  0.34013001647E+03  0.41800000000E+01 0. -1.
         -5    1    3    3    0  502  0.87003769747E+01 -0.43310939398E+00  0.95256650143E+01  0.13568155262E+02  0.41800000000E+01 0. -1.
        -11    1    1    2    0    0 -0.10417302991E+02  0.62228376478E+01  0.25800652187E+01  0.12405669935E+02  0.00000000000E+00 0.  1.
         11    1    1    2    0    0  0.42649352795E+01  0.51549705539E+02 -0.25444322535E+03  0.25964767809E+03  0.00000000000E+00 0. -1.
</event>
<event>
 7    1  0.2380582E-009  0.7989233E+02  0.7561462E-02  0.1329357E+00
          1   -1    0    0  501    0  0.00000000000E+00  0.00000000000E+00  0.93121124528E+02  0.93121124528E+02  0.00000000000E+00 0. -1.
         -1   -1    0    0    0  501 -0.00000000000E+00 -0.00000000000E+00 -0.19054541059E+03  0.19054541059E+03  0.00000000000E+00 0.  1.
         25    2    1    2    0    0  0.37961850868E+02  0.26968280064E+02 -0.11711121596E+03  0.17757036519E+03  0.12509119649E+03 0.  0.
          5    1    3    3  502    0 -0.17564294720E+02  0.34487306720E+02  0.86063556108E+01  0.39867537304E+02  0.41800000000E+01 0.  1.
         -5    1    3    3    0  502  0.55526145588E+02 -0.75190266562E+01 -0.12571757157E+03  0.13770282789E+03  0.41800000000E+01 0.  1.
        -11    1    1    2    0    0  0.40508082421E+01 -0.21992264218E+02 -0.32165178973E+02  0.39174832115E+02  0.00000000000E+00 0.  1.
         11    1    1    2    0    0 -0.42012659110E+02 -0.49760158453E+01  0.51852108876E+02  0.66921337809E+02  0.00000000000E+00 0. -1.
</event>
<event>
 7    1  0.2380582E-009  0.1127464E+03  0.7561462E-02  0.1255567E+00
          2   -1    0    0  501    0  0.00000000000E+00  0.00000000000E+00  0.11066108212E+03  0.11066108212E+03  0.00000000000E+00 0. -1.
         -2   -1    0    0    0  501 -0.00000000000E+00 -0.00000000000E+00 -0.39165108380E+03  0.39165108380E+03  0.00000000000E+00 0.  1.
         25    2    1    2    0    0  0.27392529281E+02  0.59878304432E+02  0.52920964021E+02  0.15094502973E+03  0.12509201239E+03 0.  0.
          5    1    3    3  502    0  0.50826478053E+00 -0.27723841139E+02  0.52150822452E+02  0.59211910821E+02  0.41800000000E+01 0. -1.
         -5    1    3    3    0  502  0.26884264501E+02  0.87602145571E+02  0.77014156912E+00  0.91733118908E+02  0.41800000000E+01 0. -1.
        -11    1    1    2    0    0 -0.45214643297E+02 -0.71390428894E+02 -0.22362337482E+03  0.23905725480E+03  0.00000000000E+00 0. -1.
         11    1    1    2    0    0  0.17822114016E+02  0.11512124462E+02 -0.11028759088E+03  0.11230988140E+03  0.00000000000E+00 0.  1.
</event>
<event>
 7    1  0.2380582E-009  0.1012445E+03  0.7561462E-02  0.1277700E+00
          3   -1    0    0  501    0  0.00000000000E+00  0.00000000000E+00  0.25912431833E+03  0.25912431833E+03  0.00000000000E+00 0.  1.
         -3   -1    0    0    0  501 -0.00000000000E+00 -0.00000000000E+00 -0.10819240805E+03  0.10819240805E+03  0.00000000000E+00 0. -1.
         25    2    1    2    0    0 -0.62326674029E+02 -0.74751267460E+02 -0.12234773278E+02  0.15896643961E+03  0.12509305721E+03 0.  0.
          5    1    3    3  502    0 -0.98599597802E+01 -0.70232331986E+01  0.50883996854E+02  0.52470926686E+02  0.41800000000E+01 0.  1.
         -5    1    3    3    0  502 -0.52466714248E+02 -0.67728034262E+02 -0.63118770132E+02  0.10649551292E+03  0.41800000000E+01 0.  1.
        -11    1    1    2    0    0  0.60302825225E+02  0.47985338577E+02  0.16430855470E+03  0.18148367584E+03  0.00000000000E+00 0.  1.
         11    1    1    2    0    0  0.20238488034E+01  0.26765928884E+02 -0.11418711415E+01  0.26866610927E+02  0.00000000000E+00 0. -1.
</event>
<event>
 7    1  0.2380582E-009  0.1379312E+03  0.7561462E-02  0.1216140E+00
         -1   -1    0    0    0  501 -0.00000000000E+00  0.00000000000E+00  0.24900839538E+02  0.24900839538E+02  0.00000000000E+00 0.  1.
          1   -1    0    0  501    0  0.00000000000E+00 -0.00000000000E+00 -0.12230433258E+04  0.12230433258E+04  0.00000000000E+00 0. -1.
         25    2    1    2    0    0  0.11995427065E+03  0.33506271221E+02 -0.43772873418E+03  0.47198043173E+03  0.12508951177E+03 0.  0.
          5    1    3    3  502    0  0.91697075439E+02  0.27257059955E+02 -0.12290866778E+03  0.15580537210E+03  0.41800000000E+01 0.  1.
         -5    1    3    3    0  502  0.28257195212E+02  0.62492112658E+01 -0.31482006640E+03  0.31617505962E+03  0.41800000000E+01 0.  1.
        -11    1    1    2    0    0 -0.10602491752E+03 -0.59352762744E+02 -0.66917615978E+03  0.68011820032E+03  0.00000000000E+00 0. -1.
         11    1    1    2    0    0 -0.13929353128E+02  0.25846491523E+02 -0.91237592320E+02  0.95845533307E+02  0.00000000000E+00 0.  1.
</event>
<event>
 7    1  0.2532908E-009  0.9745752E+02  0.7561462E-02  0.1285735E+00
          2   -1    0    0  501    0  0.00000000000E+00  0.00000000000E+00  0.78591424120E+02  0.78591424120E+02  0.00000000000E+00 0.  1.
         -2   -1    0    0    0  501 -0.00000000000E+00 -0.00000000000E+00 -0.19465524955E+03  0.19465524955E+03  0.00000000000E+00 0. -1.
         25    2    1    2    0    0  0.50175327700E+02 -0.32372425757E+02 -0.62314794636E+02  0.15197471068E+03  0.12509053360E+03 0.  0.
          5    1    3    3  502    0  0.48463715093E+02  0.19939852452E+02 -0.80724429578E+02  0.96333978051E+02  0.41800000000E+01 0. -1.
         -5    1    3    3    0  502  0.17116126077E+01 -0.52312278210E+02  0.18409634941E+02  0.55640732633E+02  0.41800000000E+01 0. -1.
        -11    1    1    2    0    0 -0.19120711025E+02 -0.20803957094E+02  0.12434230267E+02  0.30870962136E+02  0.00000000000E+00 0.  1.
         11    1    1    2    0    0 -0.31054616675E+02  0.53176382851E+02 -0.66183261060E+02  0.90401000849E+02  0.00000000000E+00 0. -1.
</event>
<event>
 7    1  0.2380582E-009  0.1304039E+03  0.7561462E-02  0.1226858E+00
          1   -1    0    0  501    0  0.00000000000E+00  0.00000000000E+00  0.13952641303E+03  0.13952641303E+03  0.00000000000E+00 0. -1.
         -1   -1    0    0    0  501 -0.00000000000E+00 -0.00000000000E+00 -0.13131532482E+03  0.13131532482E+03  0.00000000000E+00 0.  1.
         25    2    1    2    0    0 -0.63271026927E+02 -0.39936440408E+02  0.31655754039E+02  0.14915671372E+03  0.12508995309E+03 0.  0.
          5    1    3    3  502    0  0.25276138953E+02  0.25055040485E+02  0.83831556746E+01  0.36802010178E+02  0.41800000000E+01 0.  1.
         -5    1    3    3    0  502 -0.88547165880E+02 -0.64991480893E+02  0.23272598364E+02  0.11235470354E+03  0.41800000000E+01 0.  1.
        -11    1    1    2    0    0  0.40723407717E+02 -0.23993195177E+02  0.62495669537E+01  0.47677315759E+02  0.00000000000E+00 0.  1.
         11    1    1    2    0    0  0.22547619210E+02  0.63929635585E+02 -0.29694232785E+02  0.74007708374E+02  0.00000000000E+00 0. -1.
</event>
<event>
 7    1  0.2380582E-009  0.2772982E+03  0.7561462E-02  0.1097174E+00
          2   -1    0    0  501    0  0.00000000000E+00  0.00000000000E+00  0.42186524923E+03  0.42186524923E+03  0.00000000000E+00 0. -1.
         -2   -1    0    0    0  501 -0.00000000000E+00 -0.00000000000E+00 -0.35552048746E+03  0.35552048746E+03  0.00000000000E+00 0.  1.
         25    2    1    2    0    0  0.26836769946E+03  0.52000974223E+00 -0.22430853720E+03  0.37146093870E+03  0.12508963422E+03 0.  0.
          5    1    3    3  502    0  0.60409573872E+02  0.21759159379E+02 -0.12369572752E+03  0.13943056709E+03  0.41800000000E+01 0.  1.
         -5    1    3    3    0  502  0.20795812559E+03 -0.21239149636E+02 -0.10061280969E+03  0.23203037161E+03  0.41800000000E+01 0.  1.
        -11    1    1    2    0    0 -0.24038655184E+03 -0.27926063183E+02  0.26615322281E+03  0.35972642010E+03  0.00000000000E+00 0.  1.
         11    1    1    2    0    0 -0.27981147627E+02  0.27406053441E+02  0.24500076170E+02  0.46198377894E+02  0.00000000000E+00 0. -1.
</event>
<event>
 7    1  0.2380582E-009  0.6766229E+02  0.7561462E-02  0.1368228E+00
          1   -1    0    0  501    0  0.00000000000E+00  0.00000000000E+00  0.84206289693E+03  0.84206289693E+03  0.00000000000E+00 0. -1.
         -1   -1    0    0    0  501 -0.00000000000E+00 -0.00000000000E+00 -0.14427735475E+02  0.14427735475E+02  0.00000000000E+00 0.  1.
         25    2    1    2    0    0  0.22900727759E+01 -0.82732640371E+01  0.56431714816E+03  0.57807868360E+03  0.12508968540E+03 0.  0.
          5    1    3    3  502    0  0.33088440125E+01  0.18091104703E+02  0.54447746728E+03  0.54480402100E+03  0.41800000000E+01 0.  1.
         -5    1    3    3    0  502 -0.10187712366E+01 -0.26364368740E+02  0.19839680881E+02  0.33274662603E+02  0.41800000000E+01 0.  1.
        -11    1    1    2    0    0 -0.24115711348E+02 -0.34288405181E+02  0.14005202535E+03  0.14619108068E+03  0.00000000000E+00 0.  1.
         11    1    1    2    0    0  0.21825638572E+02  0.42561669218E+02  0.12326598794E+03  0.13222086813E+03  0.00000000000E+00 0. -1.
</event>
<event>
 7    1  0.2380582E-009  0.1139453E+03  0.7561462E-02  0.1253433E+00
         -1   -1    0    0    0  501 -0.00000000000E+00  0.00000000000E+00  0.18046572896E+03  0.18046572896E+03  0.00000000000E+00 0.  1.
          1   -1    0    0  501    0  0.00000000000E+00 -0.00000000000E+00 -0.75015615183E+02  0.75015615183E+02  0.00000000000E+00 0. -1.
         25    2    1    2    0    0 -0.29482200111E+02  0.30853334156E+02  0.66001898700E+02  0.14773341563E+03  0.12509109924E+03 0.  0.
          5    1    3    3  502    0  0.45241692585E+02 -0.10470198517E+02  0.21292071327E+02  0.51256809366E+02  0.41800000000E+01 0. -1.
         -5    1    3    3    0  502 -0.74723892696E+02  0.41323532673E+02  0.44709827373E+02  0.96476606262E+02  0.41800000000E+01 0. -1.
        -11    1    1    2    0    0  0.23384507337E+02  0.28071010966E+02 -0.73798747244E-01  0.36535219806E+02  0.00000000000E+00 0. -1.
         11    1    1    2    0    0  0.60976927739E+01 -0.58924345121E+02  0.39522013827E+02  0.71212708712E+02  0.00000000000E+00 0.  1.
</event>
<event>
 7    1  0.2380582E-009  0.1314266E+03  0.7561462E-02  0.1225354E+00
          2   -1    0    0  501    0  0.00000000000E+00  0.00000000000E+00  0.31573603004E+03  0.31573603004E+03  0.00000000000E+00 0.  1.
         -2   -1    0    0    0  501 -0.00000000000E+00 -0.00000000000E+00 -0.57917051261E+02  0.57917051261E+02  0.00000000000E+00 0. -1.
         25    2    1    2    0    0 -0.71679439578E+02 -0.37725128809E+02  0.12852753433E+03  0.19680156338E+03  0.12510156221E+03 0.  0.
          5    1    3    3  502    0  0.18048040121E+02 -0.54428932918E+02  0.45030290045E+02  0.73030404027E+02  0.41800000000E+01 0. -1.
         -5    1    3    3    0  502 -0.89727479699E+02  0.16703804109E+02  0.83497244289E+02  0.12377115936E+03  0.41800000000E+01 0. -1.
        -11    1    1    2    0    0  0.19682418468E+02  0.55622425168E+02  0.37694545694E+02  0.70015216585E+02  0.00000000000E+00 0.  1.
         11    1    1    2    0    0  0.51997021110E+02 -0.17897296359E+02  0.91596898748E+02  0.10683630133E+03  0.00000000000E+00 0. -1.
</event>
<event>
 7    1  0.2380582E-009  0.1034900E+03  0.7561462E-02  0.1273123E+00
         -1   -1    0    0    0  501 -0.00000000000E+00  0.00000000000E+00  0.35811184996E+03  0.35811184996E+03  0.00000000000E+00 0.  1.
          1   -1    0    0  501    0  0.00000000000E+00 -0.00000000000E+00 -0.39942006097E+02  0.39942006097E+02  0.00000000000E+00 0. -1.
         25    2    1    2    0    0 -0.42917699173E+02 -0.88674805874E+01  0.19174455948E+03  0.23310414876E+03  0.12510398460E+03 0.  0.
          5    1    3    3  502    0  0.19895763864E+02  0.31596989950E+02  0.13230087496E+03  0.13753256018E+03  0.41800000000E+01 0.  1.
         -5    1    3    3    0  502 -0.62813463037E+02 -0.40464470538E+02  0.59443684520E+02  0.95571588581E+02  0.41800000000E+01 0.  1.
        -11    1    1    2    0    0  0.52151049505E+02 -0.26162500215E+02  0.11135324545E+03  0.12571298125E+03  0.00000000000E+00 0.  1.
         11    1    1    2    0    0 -0.92333503325E+01  0.35029980803E+02  0.15072038928E+02  0.39236726046E+02  0.00000000000E+00 0. -1.
</event>
<event>
 7    1  0.2380582E-009  0.1279461E+03  0.7561462E-02  0.1230536E+00
         -1   -1    0    0    0  501 -0.00000000000E+00  0.00000000000E+00  0.89418893781E+02  0.89418893781E+02  0.00000000000E+00 0.  1.
          1   -1    0    0  501    0  0.00000000000E+00 -0.00000000000E+00 -0.23050742877E+03  0.23050742877E+03  0.00000000000E+00 0. -1.
         25    2    1    2    0    0  0.91608341703E+02 -0.19311488727E+02 -0.83356890602E+02  0.17709158983E+03  0.12509211851E+03 0.  0.
          5    1    3    3  502    0 -0.20229924494E+02 -0.21924751567E+02 -0.53228784052E+02  0.61161429250E+02  0.41800000000E+01 0. -1.
         -5    1    3    3    0  502  0.11183826620E+03  0.26132628396E+01 -0.30128106550E+02  0.11593016058E+03  0.41800000000E+01 0. -1.
        -11    1    1    2    0    0 -0.99990546367E+01 -0.20657746825E+02  0.14157227353E+02  0.26965731658E+02  0.00000000000E+00 0.  1.
         11    1    1    2    0    0 -0.81609287067E+02  0.39969235552E+02 -0.71888871738E+02  0.11586900106E+03  0.00000000000E+00 0. -1.
</event>
<event>
 7    1  0.2380582E-009  0.1161307E+03  0.7561462E-02  0.1249620E+00
          2   -1    0    0  501    0  0.00000000000E+00  0.00000000000E+00  0.15471376131E+03  0.15471376131E+03  0.00000000000E+00 0. -1.
         -2   -1    0    0    0  501 -0.00000000000E+00 -0.00000000000E+00 -0.10806042265E+03  0.10806042265E+03  0.00000000000E+00 0.  1.
         25    2    1    2    0    0  0.20077588175E+02 -0.62199078530E+02  0.27634961003E+01  0.14116774026E+03  0.12509539984E+03 0.  0.
          5    1    3    3  502    0 -0.70085972258E+01 -0.96530681990E+02  0.64127745130E+01  0.97087018069E+02  0.41800000000E+01 0. -1.
         -5    1    3    3    0  502  0.27086185401E+02  0.34331603460E+02 -0.36492784127E+01  0.44080722188E+02  0.41800000000E+01 0. -1.
        -11    1    1    2    0    0  0.15790759307E+02  0.51738246124E+02  0.60117250190E+02  0.80871985025E+02  0.00000000000E+00 0.  1.
         11    1    1    2    0    0 -0.35868347482E+02  0.10460832407E+02 -0.16227407629E+02  0.40734458682E+02  0.00000000000E+00 0. -1.
</event>
<event>
 7    1  0.2380582E-009  0.1366290E+03  0.7561462E-02  0.1217938E+00
          1   -1    0    0  501    0  0.00000000000E+00  0.00000000000E+00  0.75813234094E+02  0.75813234094E+02  0.00000000000E+00 0. -1.
         -1   -1    0    0    0  501 -0.00000000000E+00 -0.00000000000E+00 -0.33368748680E+03  0.33368748680E+03  0.00000000000E+00 0.  1.
         25    2    1    2    0    0  0.29516659352E+02 -0.87149171234E+02 -0.23012178924E+03  0.27761471642E+03  0.12509069376E+03 0.  0.
          5    1    3    3  502    0  0.53683372957E+02 -0.10674119517E+03 -0.20539347790E+03  0.23765424558E+03  0.41800000000E+01 0. -1.
         -5    1    3    3    0  502 -0.24166713604E+02  0.19592023936E+02 -0.24728311343E+02  0.39960470846E+02  0.41800000000E+01 0. -1.
        -11    1    1    2    0    0 -0.52375800499E+02  0.29078813638E+02 -0.34473636031E+02  0.69117533678E+02  0.00000000000E+00 0.  1.
         11    1    1    2    0    0  0.22859141147E+02  0.58070357596E+02  0.67211725640E+01  0.62768470795E+02  0.00000000000E+00 0. -1.
</event>
<event>
 7    1  0.2380582E-009  0.8186391E+02  0.7561462E-02  0.1323844E+00
         -1   -1    0    0    0  501 -0.00000000000E+00  0.00000000000E+00  0.90807988935E+02  0.90807988935E+02  0.00000000000E+00 0.  1.
          1   -1    0    0  501    0  0.00000000000E+00 -0.00000000000E+00 -0.14989870747E+03  0.14989870747E+03  0.00000000000E+00 0. -1.
         25    2    1    2    0    0 -0.16154281345E+02 -0.12492723603E+02 -0.71200110243E+02  0.14537593159E+03  0.12509067447E+03 0.  0.
          5    1    3    3  502    0  0.47918880798E+02 -0.23058435454E+02 -0.67140659113E+01  0.53763013900E+02  0.41800000000E+01 0.  1.
         -5    1    3    3    0  502 -0.64073162144E+02  0.10565711851E+02 -0.64486044332E+02  0.91612917690E+02  0.41800000000E+01 0.  1.
        -11    1    1    2    0    0  0.18123926902E+02 -0.11352843817E+02  0.47797704674E+02  0.52363960518E+02  0.00000000000E+00 0.  1.
         11    1    1    2    0    0 -0.19696455567E+01  0.23845567420E+02 -0.35688312968E+02  0.42966804299E+02  0.00000000000E+00 0. -1.
</event>
<event>
 7    1  0.2380582E-009  0.1034148E+03  0.7561462E-02  0.1273275E+00
          2   -1    0    0  501    0  0.00000000000E+00  0.00000000000E+00  0.37294254725E+03  0.37294254725E+03  0.00000000000E+00 0. -1.
         -2   -1    0    0    0  501 -0.00000000000E+00 -0.00000000000E+00 -0.52945205133E+02  0.52945205133E+02  0.00000000000E+00 0.  1.
         25    2    1    2    0    0 -0.45791676922E+01  0.30562083883E+02  0.47769550967E+02  0.13742187384E+03  0.12509129331E+03 0.  0.
          5    1    3    3  502    0 -0.57341283533E+02  0.37384400624E+02  0.45137227250E+01  0.68727449393E+02  0.41800000000E+01 0. -1.
         -5    1    3    3    0  502  0.52762115841E+02 -0.68223167413E+01  0.43255828242E+02  0.68694424451E+02  0.41800000000E+01 0. -1.
        -11    1    1    2    0    0  0.32071267765E+02  0.11977736190E+02  0.50391477087E+02  0.60920713582E+02  0.00000000000E+00 0. -1.
         11    1    1    2    0    0 -0.27492100073E+02 -0.42539820073E+02  0.22183631407E+03  0.22754516496E+03  0.00000000000E+00 0.  1.
</event>
<event>
 7    1  0.2380582E-009  0.1495116E+03  0.7561462E-02  0.1201074E+00
         -2   -1    0    0    0  501 -0.00000000000E+00  0.00000000000E+00  0.31462766513E+03  0.31462766513E+03  0.00000000000E+00 0.  1.
          2   -1    0    0  501    0  0.00000000000E+00 -0.00000000000E+00 -0.11060396281E+03  0.11060396281E+03  0.00000000000E+00 0. -1.
         25    2    1    2    0    0 -0.12350960413E+03  0.63806055341E+02  0.17543174510E+03  0.25641647804E+03  0.12508908030E+03 0.  0.
          5    1    3    3  502    0 -0.31540926987E+02  0.20925426476E+02  0.14569919065E+03  0.15059359251E+03  0.41800000000E+01 0.  1.
         -5    1    3    3    0  502 -0.91968677143E+02  0.42880628865E+02  0.29732554443E+02  0.10582288553E+03  0.41800000000E+01 0.  1.
        -11    1    1    2    0    0  0.11007895983E+03 -0.17866682938E+02  0.41909714400E+02  0.11913446151E+03  0.00000000000E+00 0.  1.
         11    1    1    2    0    0  0.13430644296E+02 -0.45939372403E+02 -0.13317757174E+02  0.49680688393E+02  0.00000000000E+00 0. -1.
</event>
<event>
 7    1  0.2380582E-009  0.1470815E+03  0.7561462E-02  0.1204106E+00
         -1   -1    0    0    0  501 -0.00000000000E+00  0.00000000000E+00  0.51653883434E+02  0.51653883434E+02  0.00000000000E+00 0.  1.
          1   -1    0    0  501    0  0.00000000000E+00 -0.00000000000E+00 -0.44513883845E+03  0.44513883845E+03  0.00000000000E+00 0. -1.
         25    2    1    2    0    0 -0.67947320344E+02 -0.75417588221E+02 -0.26601136858E+03  0.31098985594E+03  0.12509193151E+03 0.  0.
          5    1    3    3  502    0  0.22868091238E+02 -0.64694302879E+02 -0.12971573478E+03  0.14680581280E+03  0.41800000000E+01 0. -1.
         -5    1    3    3    0  502 -0.90815411582E+02 -0.10723285342E+02 -0.13629563380E+03  0.16418404314E+03  0.41800000000E+01 0. -1.
        -11    1    1    2    0    0  0.36310431502E+01  0.69161815004E+02 -0.53049285410E+02  0.87239714646E+02  0.00000000000E+00 0.  1.
         11    1    1    2    0    0  0.64316277194E+02  0.62557732176E+01 -0.74424301025E+02  0.98563151297E+02  0.00000000000E+00 0. -1.
</event>
<event>
 7    1  0.2595142E-009  0.7559615E+02  0.7561462E-02  0.1342035E+00
          1   -1    0    0  501    0  0.00000000000E+00  0.00000000000E+00  0.52416877549E+03  0.52416877549E+03  0.00000000000E+00 0. -1.
         -1   -1    0    0    0  501 -0.00000000000E+00 -0.00000000000E+00 -0.34600855678E+02  0.34600855678E+02  0.00000000000E+00 0.  1.
         25    2    1    2    0    0 -0.19698056046E+02  0.10780655547E+02  0.11202794325E+03  0.16941756233E+03  0.12509122435E+03 0.  0.
          5    1    3    3  502    0 -0.32709572732E+02  0.22197022460E+02  0.13478330357E+03  0.14052272156E+03  0.41800000000E+01 0. -1.
         -5    1    3    3    0  502  0.13011516686E+02 -0.11416366912E+02 -0.22755360315E+02  0.28894840768E+02  0.41800000000E+01 0. -1.
        -11    1    1    2    0    0  0.10328232582E+02  0.40350748530E+02  0.13391376142E+03  0.14024175838E+03  0.00000000000E+00 0.  1.
         11    1    1    2    0    0  0.93698234640E+01 -0.51131404077E+02  0.24362621514E+03  0.24911031047E+03  0.00000000000E+00 0. -1.
</event>
<event>
 7    1  0.2380582E-009  0.1022495E+03  0.7561462E-02  0.1275635E+00
         -2   -1    0    0    0  501 -0.00000000000E+00  0.00000000000E+00  0.84477802916E+02  0.84477802916E+02  0.00000000000E+00 0.  1.
          2   -1    0    0  501    0  0.00000000000E+00 -0.00000000000E+00 -0.14647923554E+03  0.14647923554E+03  0.00000000000E+00 0. -1.
         25    2    1    2    0    0  0.26532312568E+01  0.23486848515E+02 -0.38034403830E+02  0.13286251550E+03  0.12508861044E+03 0.  0.
          5    1    3    3  502    0  0.14954880858E+02  0.64508166507E+02 -0.55422170872E+02  0.86452538608E+02  0.41800000000E+01 0.  1.
         -5    1    3    3    0  502 -0.12301649601E+02 -0.41021317992E+02  0.17387767042E+02  0.46409976895E+02  0.41800000000E+01 0.  1.
        -11    1    1    2    0    0  0.32110008935E+01 -0.59018780248E+02 -0.15265873777E+02  0.61045670205E+02  0.00000000000E+00 0.  1.
         11    1    1    2    0    0 -0.58642321503E+01  0.35531931732E+02 -0.87011550185E+01  0.37048852749E+02  0.00000000000E+00 0. -1.
</event>
<event>
 7    1  0.2380582E-009  0.7949655E+02  0.7561462E-02  0.1330486E+00
         -1   -1    0    0    0  501 -0.00000000000E+00  0.00000000000E+00  0.27252872109E+03  0.27252872109E+03  0.00000000000E+00 0.  1.
          1   -1    0    0  501    0  0.00000000000E+00 -0.00000000000E+00 -0.60352984515E+02  0.60352984515E+02  0.00000000000E+00 0. -1.
         25    2    1    2    0    0  0.49265645672E+02 -0.29146841827E+02  0.16846230498E+03  0.21749532188E+03  0.12509206453E+03 0.  0.
          5    1    3    3  502    0  0.66402408550E+02 -0.90982303880E-01  0.17092242300E+03  0.18341547160E+03  0.41800000000E+01 0. -1.
         -5    1    3    3    0  502 -0.17136762877E+02 -0.29055859523E+02 -0.24601180183E+01  0.34079850281E+02  0.41800000000E+01 0. -1.
        -11    1    1    2    0    0 -0.84262755157E+01  0.10796846573E+02 -0.27813278438E+02  0.31002459136E+02  0.00000000000E+00 0. -1.
         11    1    1    2    0    0 -0.40839370157E+02  0.18349995254E+02  0.71526710038E+02  0.84383924591E+02  0.00000000000E+00 0.  1.
</event>
<event>
 7    1  0.2380582E-009  0.1160640E+03  0.7561462E-02  0.1249735E+00
          2   -1    0    0  501    0  0.00000000000E+00  0.00000000000E+00  0.11680913180E+03  0.11680913180E+03  0.00000000000E+00 0. -1.
         -2   -1    0    0    0  501 -0.00000000000E+00 -0.00000000000E+00 -0.20282957481E+03  0.20282957481E+03  0.00000000000E+00 0.  1.
         25    2    1    2    0    0 -0.25390386666E+01 -0.97170532156E+02  0.47773903002E+01  0.15848845413E+03  0.12508879885E+03 0.  0.
          5    1    3    3  502    0  0.12428513838E+02 -0.52054440148E+02  0.63287545817E+02  0.82987460203E+02  0.41800000000E+01 0.  1.
         -5    1    3    3    0  502 -0.14967552504E+02 -0.45116092008E+02 -0.58510155517E+02  0.75500993931E+02  0.41800000000E+01 0.  1.
        -11    1    1    2    0    0  0.43291189754E+02  0.68009256831E+02 -0.40770457088E+02  0.90341664232E+02  0.00000000000E+00 0. -1.
         11    1    1    2    0    0 -0.40752151088E+02  0.29161275325E+02 -0.50027376222E+02  0.70808588240E+02  0.00000000000E+00 0.  1.
</event>
<event>
 7    1  0.2380582E-009  0.2287505E+03  0.7561462E-02  0.1127522E+00
          2   -1    0    0  501    0  0.00000000000E+00  0.00000000000E+00  0.29199511017E+03  0.29199511017E+03  0.00000000000E+00 0.  1.
         -2   -1    0    0    0  501 -0.00000000000E+00 -0.00000000000E+00 -0.19403762863E+03  0.19403762863E+03  0.00000000000E+00 0. -1.
         25    2    1    2    0    0 -0.74536617849E+02 -0.19818994134E+03  0.44790359921E+02  0.24997761304E+03  0.12509064886E+03 0.  0.
          5    1    3    3  502    0 -0.55633583629E+02 -0.14522905843E+02 -0.72434491326E+01  0.58102929159E+02  0.41800000000E+01 0. -1.
         -5    1    3    3    0  502 -0.18903034220E+02 -0.18366703550E+03  0.52033809054E+02  0.19187468388E+03  0.41800000000E+01 0. -1.
        -11    1    1    2    0    0  0.13988120336E+02  0.90906573366E+02  0.64509380399E+02  0.11234381492E+03  0.00000000000E+00 0. -1.
         11    1    1    2    0    0  0.60548497513E+02  0.10728336797E+03 -0.11342258776E+02  0.12371131084E+03  0.00000000000E+00 0.  1.
</event>
<event>
 7    1  0.2380582E-009  0.1045740E+03  0.7561462E-02  0.1270961E+00
         -2   -1    0    0    0  501 -0.00000000000E+00  0.00000000000E+00  0.28800024946E+03  0.28800024946E+03  0.00000000000E+00 0.  1.
          2   -1    0    0  501    0  0.00000000000E+00 -0.00000000000E+00 -0.63924506380E+02  0.63924506380E+02  0.00000000000E+00 0. -1.
         25    2    1    2    0    0 -0.45831299951E+02 -0.59897141370E+02  0.83196756451E+02  0.16810007908E+03  0.12509100968E+03 0.  0.
          5    1    3    3  502    0 -0.53042042905E+02 -0.22845656687E+02 -0.17491266802E+02  0.60488008393E+02  0.41800000000E+01 0. -1.
         -5    1    3    3    0  502  0.72107429544E+01 -0.37051484684E+02  0.10068802325E+03  0.10761207069E+03  0.41800000000E+01 0. -1.
        -11    1    1    2    0    0 -0.12980144389E+02  0.52394985832E+02  0.93368411593E+02  0.10784887098E+03  0.00000000000E+00 0.  1.
         11    1    1    2    0    0  0.58811444340E+02  0.75021555381E+01  0.47510575034E+02  0.75975805775E+02  0.00000000000E+00 0. -1.
</event>
<event>
 7    1  0.2380582E-009  0.1178692E+03  0.7561462E-02  0.1246654E+00
         -2   -1    0    0    0  501 -0.00000000000E+00  0.00000000000E+00  0.40323544001E+03  0.40323544001E+03  0.00000000000E+00 0.  1.
          2   -1    0    0  501    0  0.00000000000E+00 -0.00000000000E+00 -0.41853219745E+02  0.41853219745E+02  0.00000000000E+00 0. -1.
         25    2    1    2    0    0 -0.54690465726E+02  0.19884472257E+02  0.27260626855E+03  0.30552906479E+03  0.12508953795E+03 0.  0.
          5    1    3    3  502    0 -0.44234419125E+02 -0.47889916418E+02  0.96858025617E+02  0.11682926627E+03  0.41800000000E+01 0.  1.
         -5    1    3    3    0  502 -0.10456046601E+02  0.67774388675E+02  0.17574824293E+03  0.18869979853E+03  0.41800000000E+01 0.  1.
        -11    1    1    2    0    0  0.36918110462E+02 -0.52726026817E+02  0.32721343055E+02  0.72205727441E+02  0.00000000000E+00 0. -1.
         11    1    1    2    0    0  0.17772355264E+02  0.32841554560E+02  0.56054608657E+02  0.67353867515E+02  0.00000000000E+00 0.  1.
</event>
<event>
 7    1  0.2380582E-009  0.5670653E+02  0.7561462E-02  0.1412197E+00
          4   -1    0    0  501    0  0.00000000000E+00  0.00000000000E+00  0.13816829139E+03  0.13816829139E+03  0.00000000000E+00 0. -1.
         -4   -1    0    0    0  501 -0.00000000000E+00 -0.00000000000E+00 -0.15278924117E+03  0.15278924117E+03  0.00000000000E+00 0.  1.
         25    2    1    2    0    0 -0.29528988607E+02 -0.13043428229E+02  0.82890072694E+02  0.15349375724E+03  0.12508987638E+03 0.  0.
          5    1    3    3  502    0 -0.51147415995E+01  0.64237459521E+01 -0.32551625083E+02  0.33830545210E+02  0.41800000000E+01 0.  1.
         -5    1    3    3    0  502 -0.24414247007E+02 -0.19467174181E+02  0.11544169778E+03  0.11966321203E+03  0.41800000000E+01 0.  1.
        -11    1    1    2    0    0  0.13462199766E+02 -0.26658833463E+02 -0.88892431482E+02  0.93775202473E+02  0.00000000000E+00 0.  1.
         11    1    1    2    0    0  0.16066788841E+02  0.39702261692E+02 -0.86185909933E+01  0.43688572851E+02  0.00000000000E+00 0. -1.
</event>
<event>
 7    1  0.2380582E-009  0.1270459E+03  0.7561462E-02  0.1231906E+00
         -2   -1    0    0    0  501 -0.00000000000E+00  0.00000000000E+00  0.10570321534E+03  0.10570321534E+03  0.00000000000E+00 0.  1.
          2   -1    0    0  501    0  0.00000000000E+00 -0.00000000000E+00 -0.20445090033E+03  0.20445090033E+03  0.00000000000E+00 0. -1.
         25    2    1    2    0    0 -0.39303697799E+02 -0.65919230407E+02 -0.11813834457E+03  0.18839901472E+03  0.12508954669E+03 0.  0.
          5    1    3    3  502    0 -0.67404640155E+02 -0.77879589579E+02 -0.11915604806E+03  0.15755713940E+03  0.41800000000E+01 0. -1.
         -5    1    3    3    0  502  0.28100942355E+02  0.11960359172E+02  0.10177034835E+01  0.30841875319E+02  0.41800000000E+01 0. -1.
        -11    1    1    2    0    0  0.33562622739E+02  0.89671922696E+02  0.14613216399E+02  0.96855817887E+02  0.00000000000E+00 0. -1.
         11    1    1    2    0    0  0.57410750602E+01 -0.23752692288E+02  0.47774431766E+01  0.24899283064E+02  0.00000000000E+00 0.  1.
</event>
<event>
 7    1  0.2380582E-009  0.1124680E+03  0.7561462E-02  0.1256067E+00
         -2   -1    0    0    0  501 -0.00000000000E+00  0.00000000000E+00  0.59525339320E+02  0.59525339320E+02  0.00000000000E+00 0.  1.
          2   -1    0    0  501    0  0.00000000000E+00 -0.00000000000E+00 -0.24298929513E+03  0.24298929513E+03  0.00000000000E+00 0. -1.
         25    2    1    2    0    0 -0.12905139601E+02 -0.42219542761E+02 -0.68602647178E+02  0.14934012670E+03  0.12508844001E+03 0.  0.
          5    1    3    3  502    0  0.55268652233E+02 -0.30747798685E+02 -0.33604116170E+02  0.71740923239E+02  0.41800000000E+01 0. -1.
         -5    1    3    3    0  502 -0.68173791834E+02 -0.11471744077E+02 -0.34998531008E+02  0.77599203461E+02  0.41800000000E+01 0. -1.
        -11    1    1    2    0    0 -0.25831762247E+02 -0.96328567324E+01 -0.88290027604E+01  0.28948629663E+02  0.00000000000E+00 0.  1.
         11    1    1    2    0    0  0.38736901848E+02  0.51852399494E+02 -0.10603230587E+03  0.12422587809E+03  0.00000000000E+00 0. -1.
</event>
<event>
 7    1  0.2380582E-009  0.7055638E+02  0.7561462E-02  0.1358211E+00
         -1   -1    0    0    0  501 -0.00000000000E+00  0.00000000000E+00  0.19914817994E+03  0.19914817994E+03  0.00000000000E+00 0. -1.
          1   -1    0    0  501    0  0.00000000000E+00 -0.00000000000E+00 -0.59692462367E+02  0.59692462367E+02  0.00000000000E+00 0.  1.
         25    2    1    2    0    0 -0.16116476503E+02 -0.16683776938E+02  0.58634910973E+02  0.14008262225E+03  0.12508796522E+03 0.  0.
          5    1    3    3  502    0 -0.43239393592E+02 -0.10932177349E+02  0.88454665303E+02  0.99150682669E+02  0.41800000000E+01 0.  1.
         -5    1    3    3    0  502  0.27122917089E+02 -0.57515995887E+01 -0.29819754330E+02  0.40931939577E+02  0.41800000000E+01 0.  1.
        -11    1    1    2    0    0  0.12830224133E+00  0.40003526337E+02  0.82113754703E+01  0.40837792153E+02  0.00000000000E+00 0.  1.
         11    1    1    2    0    0  0.15988174262E+02 -0.23319749399E+02  0.72609431130E+02  0.77920227909E+02  0.00000000000E+00 0. -1.
</event>
<event>
 7    1  0.2380582E-009  0.1189687E+03  0.7561462E-02  0.1244808E+00
         -1   -1    0    0    0  501 -0.00000000000E+00  0.00000000000E+00  0.11223242433E+02  0.11223242433E+02  0.00000000000E+00 0. -1.
          1   -1    0    0  501    0  0.00000000000E+00 -0.00000000000E+00 -0.13546926459E+04  0.13546926459E+04  0.00000000000E+00 0.  1.
         25    2    1    2    0    0 -0.51490232554E+02 -0.91267584619E+01 -0.90783473353E+03  0.91790216027E+03  0.12508369456E+03 0.  0.
          5    1    3    3  502    0 -0.90068310033E+02  0.10237785159E+02 -0.54783502188E+03  0.55529973556E+03  0.41800000000E+01 0. -1.
         -5    1    3    3    0  502  0.38578077478E+02 -0.19364543621E+02 -0.35999971165E+03  0.36260242471E+03  0.41800000000E+01 0. -1.
        -11    1    1    2    0    0  0.11640241613E+01  0.43093415739E+02 -0.20803994100E+03  0.21245944197E+03  0.00000000000E+00 0.  1.
         11    1    1    2    0    0  0.50326208393E+02 -0.33966657278E+02 -0.22759472893E+03  0.23555428609E+03  0.00000000000E+00 0. -1.
</event>
<event>
 7    1  0.2380582E-009  0.1054434E+03  0.7561462E-02  0.1269248E+00
          2   -1    0    0  501    0  0.00000000000E+00  0.00000000000E+00  0.67656845344E+02  0.67656845344E+02  0.00000000000E+00 0.  1.
         -2   -1    0    0    0  501 -0.00000000000E+00 -0.00000000000E+00 -0.26975194229E+03  0.26975194229E+03  0.00000000000E+00 0. -1.
         25    2    1    2    0    0  0.63807124383E+02  0.25993958775E+02 -0.58329019600E+02  0.15425860394E+03  0.12508560007E+03 0.  0.
          5    1    3    3  502    0  0.36676090137E+02 -0.49293112614E+02 -0.34824086986E+02  0.70746985613E+02  0.41800000000E+01 0.  1.
         -5    1    3    3    0  502  0.27131034246E+02  0.75287071390E+02 -0.23504932614E+02  0.83511618323E+02  0.41800000000E+01 0.  1.
        -11    1    1    2    0    0 -0.12937742702E+02 -0.79957286107E+01  0.11310691439E+02  0.18953854571E+02  0.00000000000E+00 0.  1.
         11    1    1    2    0    0 -0.50869381681E+02 -0.17998230165E+02 -0.15507676878E+03  0.16419632912E+03  0.00000000000E+00 0. -1.
</event>
<event>
 7    1  0.2380582E-009  0.8355268E+02  0.7561462E-02  0.1319261E+00
          2   -1    0    0  501    0  0.00000000000E+00  0.00000000000E+00  0.20429633350E+03  0.20429633350E+03  0.00000000000E+00 0. -1.
         -2   -1    0    0    0  501 -0.00000000000E+00 -0.00000000000E+00 -0.65856865847E+02  0.65856865847E+02  0.00000000000E+00 0.  1.
         25    2    1    2    0    0  0.28928846788E+02  0.12674710696E+02  0.10633658005E+03  0.16719044048E+03  0.12509056185E+03 0.  0.
          5    1    3    3  502    0  0.30510285935E+02 -0.41462338956E+02  0.45900667332E+01  0.51851173681E+02  0.41800000000E+01 0.  1.
         -5    1    3    3    0  502 -0.15814391469E+01  0.54137049651E+02  0.10174651331E+03  0.11533926680E+03  0.41800000000E+01 0.  1.
        -11    1    1    2    0    0 -0.26387257980E+02 -0.32095541321E+02 -0.20861254923E+02  0.46493043710E+02  0.00000000000E+00 0.  1.
         11    1    1    2    0    0 -0.25415888083E+01  0.19420830625E+02  0.52964142530E+02  0.56469715156E+02  0.00000000000E+00 0. -1.
</event>
<event>
 7    1  0.2380582E-009  0.5220814E+02  0.7561462E-02  0.1433783E+00
         -1   -1    0    0    0  501 -0.00000000000E+00  0.00000000000E+00  0.25027096896E+02  0.25027096896E+02  0.00000000000E+00 0.  1.
          1   -1    0    0  501    0  0.00000000000E+00 -0.00000000000E+00 -0.50543933261E+03  0.50543933261E+03  0.00000000000E+00 0. -1.
         25    2    1    2    0    0 -0.12936759482E+02 -0.21259631824E-01 -0.20636534141E+03  0.24166600533E+03  0.12509374005E+03 0.  0.
          5    1    3    3  502    0  0.51772148727E+00  0.82693832556E+01 -0.22011175577E+03  0.22030730393E+03  0.41800000000E+01 0.  1.
         -5    1    3    3    0  502 -0.13454480969E+02 -0.82906428874E+01  0.13746414366E+02  0.21358701401E+02  0.41800000000E+01 0.  1.
        -11    1    1    2    0    0 -0.86703309706E+01 -0.35865924149E+02 -0.20297845017E+03  0.20630509056E+03  0.00000000000E+00 0. -1.
         11    1    1    2    0    0  0.21607090453E+02  0.35887183781E+02 -0.71068444125E+02  0.82495333613E+02  0.00000000000E+00 0.  1.
</event>
<event>
 7    1  0.2380582E-009  0.1092227E+03  0.7561462E-02  0.1262016E+00
          2   -1    0    0  501    0  0.00000000000E+00  0.00000000000E+00  0.56354395194E+02  0.56354395194E+02  0.00000000000E+00 0. -1.
         -2   -1    0    0    0  501 -0.00000000000E+00 -0.00000000000E+00 -0.23332966577E+03  0.23332966577E+03  0.00000000000E+00 0.  1.
         25    2    1    2    0    0  0.14086493574E+00 -0.16493133691E+02 -0.60821520493E+02  0.14006727329E+03  0.12509012906E+03 0.  0.
          5    1    3    3  502    0 -0.48123599645E+02  0.30938620067E+02 -0.36731204593E+02  0.68115584452E+02  0.41800000000E+01 0.  1.
         -5    1    3    3    0  502  0.48264464581E+02 -0.47431753757E+02 -0.24090315900E+02  0.71951688833E+02  0.41800000000E+01 0.  1.
        -11    1    1    2    0    0 -0.19123455343E+02  0.50686489071E+02 -0.78097043326E+02  0.95047224551E+02  0.00000000000E+00 0.  1.
         11    1    1    2    0    0  0.18982590407E+02 -0.34193355381E+02 -0.38056706758E+02  0.54569563128E+02  0.00000000000E+00 0. -1.
</event>
<event>
 7    1  0.2380582E-009  0.1274205E+03  0.7561462E-02  0.1231334E+00
         -2   -1    0    0    0  501 -0.00000000000E+00  0.00000000000E+00  0.28364615726E+02  0.28364615726E+02  0.00000000000E+00 0. -1.
          2   -1    0    0  501    0  0.00000000000E+00 -0.00000000000E+00 -0.84794170810E+03  0.84794170810E+03  0.00000000000E+00 0.  1.
         25    2    1    2    0    0  0.69483443170E+02 -0.75690849928E+02 -0.35007289116E+03  0.38568827156E+03  0.12508940825E+03 0.  0.
          5    1    3    3  502    0  0.69276144718E+02 -0.38478321782E+02 -0.78766180929E+02  0.11180943222E+03  0.41800000000E+01 0. -1.
         -5    1    3    3    0  502  0.20729845237E+00 -0.37212528145E+02 -0.27130671023E+03  0.27387883935E+03  0.41800000000E+01 0. -1.
        -11    1    1    2    0    0 -0.12390081208E+02  0.79839243610E+02 -0.33168013629E+03  0.34137886833E+03  0.00000000000E+00 0.  1.
         11    1    1    2    0    0 -0.57093361962E+02 -0.41483936823E+01 -0.13782406492E+03  0.14923918394E+03  0.00000000000E+00 0. -1.
</event>
<event>
 7    1  0.2380582E-009  0.1208756E+03  0.7561462E-02  0.1241660E+00
         -2   -1    0    0    0  501 -0.00000000000E+00  0.00000000000E+00  0.26681829039E+02  0.26681829039E+02  0.00000000000E+00 0. -1.
          2   -1    0    0  501    0  0.00000000000E+00 -0.00000000000E+00 -0.83206726567E+03  0.83206726567E+03  0.00000000000E+00 0.  1.
         25    2    1    2    0    0  0.35298185592E+01 -0.93103688935E+02 -0.55635793105E+03  0.57780855082E+03  0.12509123649E+03 0.  0.
          5    1    3    3  502    0  0.46447428769E+02 -0.25726953259E+02 -0.38537880538E+03  0.38904181754E+03  0.41800000000E+01 0.  1.
         -5    1    3    3    0  502 -0.42917610209E+02 -0.67376735676E+02 -0.17097912567E+03  0.18876673328E+03  0.41800000000E+01 0.  1.
        -11    1    1    2    0    0 -0.28080085563E+02  0.31597573341E+02 -0.18150518638E+03  0.18636263180E+03  0.00000000000E+00 0.  1.
         11    1    1    2    0    0  0.24550267004E+02  0.61506115594E+02 -0.67522319194E+02  0.94577912087E+02  0.00000000000E+00 0. -1.
</event>
<event>
 7    1  0.2380582E-009  0.1085579E+03  0.7561462E-02  0.1263264E+00
          4   -1    0    0  501    0  0.00000000000E+00  0.00000000000E+00  0.15235822222E+03  0.15235822222E+03  0.00000000000E+00 0. -1.
         -4   -1    0    0    0  501 -0.00000000000E+00 -0.00000000000E+00 -0.13688591805E+03  0.13688591805E+03  0.00000000000E+00 0.  1.
         25    2    1    2    0    0 -0.47313176386E+02 -0.17810927710E+02  0.89309011362E+02  0.16180129414E+03  0.12509114065E+03 0.  0.
          5    1    3    3  502    0 -0.19043093614E+02  0.43939620182E+02 -0.17806515552E+01  0.48103770706E+02  0.41800000000E+01 0.  1.
         -5    1    3    3    0  502 -0.28270082772E+02 -0.61750547892E+02  0.91089662917E+02  0.11369752344E+03  0.41800000000E+01 0.  1.
        -11    1    1    2    0    0  0.47190240609E+02 -0.28211363949E+02 -0.54838003458E+02  0.77653116408E+02  0.00000000000E+00 0.  1.
         11    1    1    2    0    0  0.12293577760E+00  0.46022291659E+02 -0.18998703732E+02  0.49789729726E+02  0.00000000000E+00 0. -1.
</event>
<event>
 7    1  0.2380582E-009  0.1763320E+03  0.7561462E-02  0.1171401E+00
          2   -1    0    0  501    0  0.00000000000E+00  0.00000000000E+00  0.21100360336E+03  0.21100360336E+03  0.00000000000E+00 0. -1.
         -2   -1    0    0    0  501 -0.00000000000E+00 -0.00000000000E+00 -0.14825782623E+03  0.14825782623E+03  0.00000000000E+00 0.  1.
         25    2    1    2    0    0 -0.13127480147E+03 -0.42815223376E+02  0.46997299457E+02  0.19215147653E+03  0.12508887610E+03 0.  0.
          5    1    3    3  502    0 -0.10693668027E+03  0.28580485071E+02  0.28195008150E+02  0.11430104374E+03  0.41800000000E+01 0. -1.
         -5    1    3    3    0  502 -0.24338121197E+02 -0.71395708447E+02  0.18802291307E+02  0.77850432796E+02  0.41800000000E+01 0. -1.
        -11    1    1    2    0    0  0.13704121016E+03  0.58974318954E+02  0.13395345163E+02  0.14979218554E+03  0.00000000000E+00 0.  1.
         11    1    1    2    0    0 -0.57664086888E+01 -0.16159095578E+02  0.23531325024E+01  0.17317767513E+02  0.00000000000E+00 0. -1.
</event>
<event>
 7    1  0.2380582E-009  0.1240276E+03  0.7561462E-02  0.1236597E+00
          1   -1    0    0  501    0  0.00000000000E+00  0.00000000000E+00  0.98311142639E+02  0.98311142639E+02  0.00000000000E+00 0. -1.
         -1   -1    0    0    0  501 -0.00000000000E+00 -0.00000000000E+00 -0.33737610380E+03  0.33737610380E+03  0.00000000000E+00 0.  1.
         25    2    1    2    0    0 -0.10763549613E+03 -0.30212875696E+02 -0.23765347876E+03  0.29090276402E+03  0.12508806602E+03 0.  0.
          5    1    3    3  502    0 -0.65829060634E+02 -0.29949698616E+02 -0.23810841785E+03  0.24888459318E+03  0.41800000000E+01 0.  1.
         -5    1    3    3    0  502 -0.41806435499E+02 -0.26317708076E+00  0.45493908790E+00  0.42018170842E+02  0.41800000000E+01 0.  1.
        -11    1    1    2    0    0 -0.10405707100E+02  0.88031814555E+01 -0.19158125537E+02  0.23511880360E+02  0.00000000000E+00 0.  1.
         11    1    1    2    0    0  0.11804120323E+03  0.21409694241E+02  0.17746643134E+02  0.12127260206E+03  0.00000000000E+00 0. -1.
</event>
<event>
 7    1  0.2380582E-009  0.3407991E+03  0.7561462E-02  0.1066456E+00
          1   -1    0    0  501    0  0.00000000000E+00  0.00000000000E+00  0.16811956422E+04  0.16811956422E+04  0.00000000000E+00 0. -1.
         -1   -1    0    0    0  501 -0.00000000000E+00 -0.00000000000E+00 -0.75190839578E+02  0.75190839578E+02  0.00000000000E+00 0.  1.
         25    2    1    2    0    0  0.30270977635E+03 -0.11772003118E+03  0.58038012700E+03  0.67674206334E+03  0.12509002376E+03 0.  0.
          5    1    3    3  502    0  0.11416753167E+03 -0.11056671781E+03  0.25053880058E+03  0.29672611508E+03  0.41800000000E+01 0.  1.
         -5    1    3    3    0  502  0.18854224468E+03 -0.71533133734E+01  0.32984132642E+03  0.38001594826E+03  0.41800000000E+01 0.  1.
        -11    1    1    2    0    0 -0.98515319460E+02  0.65751147532E+00  0.23744915996E+03  0.25707548318E+03  0.00000000000E+00 0.  1.
         11    1    1    2    0    0 -0.20419445689E+03  0.11706251971E+03  0.78817551567E+03  0.82256893525E+03  0.00000000000E+00 0. -1.
</event>
<event>
 7    1  0.2380582E-009  0.1831476E+03  0.7561462E-02  0.1164791E+00
          1   -1    0    0  501    0  0.00000000000E+00  0.00000000000E+00  0.49013720656E+03  0.49013720656E+03  0.00000000000E+00 0. -1.
         -1   -1    0    0    0  501 -0.00000000000E+00 -0.00000000000E+00 -0.83933438699E+02  0.83933438699E+02  0.00000000000E+00 0.  1.
         25    2    1    2    0    0 -0.83558454978E+02 -0.12592800301E+03  0.98996004843E+02  0.21974380757E+03  0.12508898692E+03 0.  0.
          5    1    3    3  502    0  0.14133352755E+02  0.14637090154E+02 -0.21314126704E+01  0.20880885715E+02  0.41800000000E+01 0.  1.
         -5    1    3    3    0  502 -0.97691807732E+02 -0.14056509316E+03  0.10112741751E+03  0.19886292185E+03  0.41800000000E+01 0.  1.
        -11    1    1    2    0    0  0.12549040118E+02  0.96688769149E+02  0.14333050835E+03  0.17334887110E+03  0.00000000000E+00 0.  1.
         11    1    1    2    0    0  0.71009414860E+02  0.29239233860E+02  0.16387725467E+03  0.18097796659E+03  0.00000000000E+00 0. -1.
</event>
<event>
 7    1  0.2380582E-009  0.2002864E+03  0.7561462E-02  0.1149498E+00
         -1   -1    0    0    0  501 -0.00000000000E+00  0.00000000000E+00  0.30387568312E+03  0.30387568312E+03  0.00000000000E+00 0.  1.
          1   -1    0    0  501    0  0.00000000000E+00 -0.00000000000E+00 -0.17541035083E+03  0.17541035083E+03  0.00000000000E+00 0. -1.
         25    2    1    2    0    0  0.24144712448E+02 -0.18314409956E+03  0.15483977178E+03  0.27156504590E+03  0.12508993119E+03 0.  0.
          5    1    3    3  502    0  0.37080193177E+02 -0.19454861977E+03  0.15819058600E+03  0.25350708093E+03  0.41800000000E+01 0.  1.
         -5    1    3    3    0  502 -0.12935480729E+02  0.11404520211E+02 -0.33508142198E+01  0.18057964970E+02  0.41800000000E+01 0.  1.
        -11    1    1    2    0    0 -0.14036147011E+02  0.11141856541E+03 -0.60601208289E+02  0.12760727482E+03  0.00000000000E+00 0. -1.
         11    1    1    2    0    0 -0.10108565437E+02  0.71725534150E+02  0.34226768798E+02  0.80113713225E+02  0.00000000000E+00 0.  1.
</event>
<event>
 7    1  0.2380582E-009  0.8393052E+02  0.7561462E-02  0.1318253E+00
         -1   -1    0    0    0  501 -0.00000000000E+00  0.00000000000E+00  0.19062276695E+03  0.19062276695E+03  0.00000000000E+00 0.  1.
          1   -1    0    0  501    0  0.00000000000E+00 -0.00000000000E+00 -0.85256390194E+02  0.85256390194E+02  0.00000000000E+00 0. -1.
         25    2    1    2    0    0 -0.29009973671E+02  0.58614614438E+02  0.42773021707E+02  0.14748842035E+03  0.12508417627E+03 0.  0.
          5    1    3    3  502    0  0.22120882146E-01  0.55788674789E+02 -0.33854066720E+02  0.65390725317E+02  0.41800000000E+01 0. -1.
         -5    1    3    3    0  502 -0.29032094553E+02  0.28259396489E+01  0.76627088427E+02  0.82097695034E+02  0.41800000000E+01 0. -1.
        -11    1    1    2    0    0  0.23568938877E+02 -0.67796109050E+02  0.80308450032E+02  0.10770911952E+03  0.00000000000E+00 0.  1.
         11    1    1    2    0    0  0.54410347937E+01  0.91814946121E+01 -0.17715094979E+02  0.20681617273E+02  0.00000000000E+00 0. -1.
</event>
<event>
 7    1  0.2380582E-009  0.1775618E+03  0.7561462E-02  0.1170184E+00
         -2   -1    0    0    0  501 -0.00000000000E+00  0.00000000000E+00  0.18359316958E+03  0.18359316958E+03  0.00000000000E+00 0.  1.
          2   -1    0    0  501    0  0.00000000000E+00 -0.00000000000E+00 -0.19630875946E+03  0.19630875946E+03  0.00000000000E+00 0. -1.
         25    2    1    2    0    0 -0.29029180027E+02  0.15130296732E+03  0.70357685448E+01  0.19857023230E+03  0.12508138913E+03 0.  0.
          5    1    3    3  502    0 -0.98418961657E+01  0.17058277780E+03  0.66852380309E+01  0.17104827333E+03  0.41800000000E+01 0. -1.
         -5    1    3    3    0  502 -0.19187283862E+02 -0.19279810480E+02  0.35053051389E+00  0.27521958974E+02  0.41800000000E+01 0. -1.
        -11    1    1    2    0    0  0.40598786214E+01 -0.95097219388E+02  0.32552167140E+02  0.10059625905E+03  0.00000000000E+00 0.  1.
         11    1    1    2    0    0  0.24969301406E+02 -0.56205747928E+02 -0.52303525565E+02  0.80735437692E+02  0.00000000000E+00 0. -1.
</event>
<event>
 7    1  0.2380582E-009  0.1346362E+03  0.7561462E-02  0.1220734E+00
         -2   -1    0    0    0  501 -0.00000000000E+00  0.00000000000E+00  0.97447599035E+02  0.97447599035E+02  0.00000000000E+00 0. -1.
          2   -1    0    0  501    0  0.00000000000E+00 -0.00000000000E+00 -0.27180598625E+03  0.27180598625E+03  0.00000000000E+00 0.  1.
         25    2    1    2    0    0 -0.11156975318E+03  0.34145577776E+02 -0.58822544668E+02  0.18089033632E+03  0.12508993448E+03 0.  0.
          5    1    3    3  502    0 -0.51718511685E+02  0.69528219346E+00 -0.91216173568E+02  0.10494355906E+03  0.41800000000E+01 0.  1.
         -5    1    3    3    0  502 -0.59851241497E+02  0.33450295583E+02  0.32393628900E+02  0.75946777263E+02  0.41800000000E+01 0.  1.
        -11    1    1    2    0    0  0.80160802557E+02 -0.66087934879E+02 -0.77867405193E+02  0.12983336318E+03  0.00000000000E+00 0. -1.
         11    1    1    2    0    0  0.31408950625E+02  0.31942357103E+02 -0.37668437350E+02  0.58529885776E+02  0.00000000000E+00 0.  1.
</event>
<event>
 7    1  0.2380582E-009  0.1239076E+03  0.7561462E-02  0.1236786E+00
         -2   -1    0    0    0  501 -0.00000000000E+00  0.00000000000E+00  0.34205378413E+02  0.34205378413E+02  0.00000000000E+00 0.  1.
          2   -1    0    0  501    0  0.00000000000E+00 -0.00000000000E+00 -0.47383460131E+03  0.47383460131E+03  0.00000000000E+00 0. -1.
         25    2    1    2    0    0 -0.17670335898E+00 -0.68298031838E+02 -0.19635726273E+03  0.24262769848E+03  0.12508946025E+03 0.  0.
          5    1    3    3  502    0  0.41798834109E+02  0.18006518298E+02 -0.75333417529E+02  0.88113412320E+02  0.41800000000E+01 0.  1.
         -5    1    3    3    0  502 -0.41975537468E+02 -0.86304550136E+02 -0.12102384520E+03  0.15451428616E+03  0.41800000000E+01 0.  1.
        -11    1    1    2    0    0 -0.40052491876E+02  0.26433663511E+02 -0.10512776443E+03  0.11556291588E+03  0.00000000000E+00 0. -1.
         11    1    1    2    0    0  0.40229195235E+02  0.41864368327E+02 -0.13814419574E+03  0.14984936537E+03  0.00000000000E+00 0.  1.
</event>
<event>
 7    1  0.2380582E-009  0.1596121E+03  0.7561462E-02  0.1189135E+00
          1   -1    0    0  501    0  0.00000000000E+00  0.00000000000E+00  0.45505668690E+03  0.45505668690E+03  0.00000000000E+00 0. -1.
         -1   -1    0    0    0  501 -0.00000000000E+00 -0.00000000000E+00 -0.71576075956E+02  0.71576075956E+02  0.00000000000E+00 0.  1.
         25    2    1    2    0    0 -0.25781926856E+02 -0.12341475605E+03  0.31071187755E+03  0.35788877944E+03  0.12508636150E+03 0.  0.
          5    1    3    3  502    0  0.93125309038E+01 -0.13054093877E+03  0.28489528757E+03  0.31354498434E+03  0.41800000000E+01 0.  1.
         -5    1    3    3    0  502 -0.35094457760E+02  0.71261827133E+01  0.25816589977E+02  0.44343795097E+02  0.41800000000E+01 0.  1.
        -11    1    1    2    0    0 -0.16819518671E+02  0.10410954558E+03  0.49267049741E+02  0.11639989639E+03  0.00000000000E+00 0.  1.
         11    1    1    2    0    0  0.42601445527E+02  0.19305210476E+02  0.23501683653E+02  0.52344087031E+02  0.00000000000E+00 0. -1.
</event>
<event>
 7    1  0.2380582E-009  0.9848641E+02  0.7561462E-02  0.1283511E+00
          2   -1    0    0  501    0  0.00000000000E+00  0.00000000000E+00  0.23825590829E+03  0.23825590829E+03  0.00000000000E+00 0. -1.
         -2   -1    0    0    0  501 -0.00000000000E+00 -0.00000000000E+00 -0.71994559336E+02  0.71994559336E+02  0.00000000000E+00 0.  1.
         25    2    1    2    0    0 -0.49616978710E+01 -0.30710714145E+02  0.13939990419E+02  0.12964725118E+03  0.12508525091E+03 0.  0.
          5    1    3    3  502    0  0.10436373355E+02  0.47249268954E+02  0.12086821415E+02  0.50049724849E+02  0.41800000000E+01 0. -1.
         -5    1    3    3    0  502 -0.15398071226E+02 -0.77959983099E+02  0.18531690040E+01  0.79597526328E+02  0.41800000000E+01 0. -1.
        -11    1    1    2    0    0  0.29429136049E+02 -0.16998423153E+00  0.72948147514E+01  0.30320245143E+02  0.00000000000E+00 0.  1.
         11    1    1    2    0    0 -0.24467438178E+02  0.30880698376E+02  0.14502654378E+03  0.15028297130E+03  0.00000000000E+00 0. -1.
</event>
<event>
 7    1  0.2380582E-009  0.1079214E+03  0.7561462E-02  0.1264468E+00
         -2   -1    0    0    0  501 -0.00000000000E+00  0.00000000000E+00  0.31077362059E+03  0.31077362059E+03  0.00000000000E+00 0.  1.
          2   -1    0    0  501    0  0.00000000000E+00 -0.00000000000E+00 -0.43344111854E+02  0.43344111854E+02  0.00000000000E+00 0. -1.
         25    2    1    2    0    0 -0.29051618252E+02 -0.11964606250E+02  0.11228948504E+03  0.17101460800E+03  0.12509963778E+03 0.  0.
          5    1    3    3  502    0 -0.49358295868E+02  0.44047438943E+02  0.77162064102E+02  0.10172450435E+03  0.41800000000E+01 0. -1.
         -5    1    3    3    0  502  0.20306677616E+02 -0.56012045193E+02  0.35127420941E+02  0.69290103655E+02  0.41800000000E+01 0. -1.
        -11    1    1    2    0    0  0.58446004421E+02  0.14826288580E+02  0.66954364494E+02  0.90103502655E+02  0.00000000000E+00 0.  1.
         11    1    1    2    0    0 -0.29394386169E+02 -0.28616823297E+01  0.88185659203E+02  0.92999621790E+02  0.00000000000E+00 0. -1.
</event>
<event>
 7    1  0.2380582E-009  0.1375806E+03  0.7561462E-02  0.1216622E+00
          2   -1    0    0  501    0  0.00000000000E+00  0.00000000000E+00  0.55731834024E+02  0.55731834024E+02  0.00000000000E+00 0. -1.
         -2   -1    0    0    0  501 -0.00000000000E+00 -0.00000000000E+00 -0.46806982209E+03  0.46806982209E+03  0.00000000000E+00 0.  1.
         25    2    1    2    0    0  0.75450729978E+02 -0.67282633946E+02 -0.11710876082E+03  0.19895180886E+03  0.12509034696E+03 0.  0.
          5    1    3    3  502    0  0.77979856873E+02 -0.58200697045E+01 -0.11257014187E+03  0.13712855476E+03  0.41800000000E+01 0.  1.
         -5    1    3    3    0  502 -0.25291268950E+01 -0.61462564241E+02 -0.45386189507E+01  0.61823254104E+02  0.41800000000E+01 0.  1.
        -11    1    1    2    0    0 -0.44929481239E+02 -0.15054342585E+02 -0.11448365389E+03  0.12390237497E+03  0.00000000000E+00 0.  1.
         11    1    1    2    0    0 -0.30521248739E+02  0.82336976531E+02 -0.18074557335E+03  0.20094747228E+03  0.00000000000E+00 0. -1.
</event>
<event>
 7    1  0.2380582E-009  0.1021265E+03  0.7561462E-02  0.1275887E+00
         -2   -1    0    0    0  501 -0.00000000000E+00  0.00000000000E+00  0.49494835508E+02  0.49494835508E+02  0.00000000000E+00 0.  1.
          2   -1    0    0  501    0  0.00000000000E+00 -0.00000000000E+00 -0.44879387895E+03  0.44879387895E+03  0.00000000000E+00 0. -1.
         25    2    1    2    0    0  0.12812618924E+02 -0.53457196079E+02 -0.36061721665E+03  0.38563447802E+03  0.12508932279E+03 0.  0.
          5    1    3    3  502    0 -0.28524390957E+02  0.59707918223E+01 -0.25972430854E+03  0.26138760506E+03  0.41800000000E+01 0. -1.
         -5    1    3    3    0  502  0.41337009882E+02 -0.59427987902E+02 -0.10089290811E+03  0.12424687295E+03  0.41800000000E+01 0. -1.
        -11    1    1    2    0    0 -0.11913888232E+02  0.77414796551E+02 -0.16612502776E+02  0.80068512578E+02  0.00000000000E+00 0.  1.
         11    1    1    2    0    0 -0.89873069281E+00 -0.23957600472E+02 -0.22069324023E+02  0.32585723869E+02  0.00000000000E+00 0. -1.
</event>
<event>
 7    1  0.2380582E-009  0.1098831E+03  0.7561462E-02  0.1260787E+00
         -2   -1    0    0    0  501 -0.00000000000E+00  0.00000000000E+00  0.30753770519E+02  0.30753770519E+02  0.00000000000E+00 0. -1.
          2   -1    0    0  501    0  0.00000000000E+00 -0.00000000000E+00 -0.66810448025E+03  0.66810448025E+03  0.00000000000E+00 0.  1.
         25    2    1    2    0    0  0.61139268530E+02 -0.13775349907E+02 -0.17837723124E+03  0.22670176307E+03  0.12508989700E+03 0.  0.
          5    1    3    3  502    0  0.65188356294E+02  0.35377030072E+02 -0.15516974627E+03  0.17203539929E+03  0.41800000000E+01 0.  1.
         -5    1    3    3    0  502 -0.40490877637E+01 -0.49152379980E+02 -0.23207484975E+02  0.54666363774E+02  0.41800000000E+01 0.  1.
        -11    1    1    2    0    0 -0.55853873496E+02  0.40340025023E+02 -0.41371147026E+03  0.41940929106E+03  0.00000000000E+00 0.  1.
         11    1    1    2    0    0 -0.52853950345E+01 -0.26564675115E+02 -0.45262008227E+02  0.52747196640E+02  0.00000000000E+00 0. -1.
</event>
<event>
 7    1  0.2380582E-009  0.1158720E+03  0.7561462E-02  0.1250067E+00
          1   -1    0    0  501    0  0.00000000000E+00  0.00000000000E+00  0.26828203154E+02  0.26828203154E+02  0.00000000000E+00 0. -1.
         -1   -1    0    0    0  501 -0.00000000000E+00 -0.00000000000E+00 -0.74356820866E+03  0.74356820866E+03  0.00000000000E+00 0.  1.
         25    2    1    2    0    0 -0.33125593676E+02  0.53032862168E+02 -0.56939372487E+03  0.58631272153E+03  0.12507439417E+03 0.  0.
          5    1    3    3  502    0 -0.73945152229E+02  0.10872949936E+02 -0.40127192403E+03  0.40819448305E+03  0.41800000000E+01 0. -1.
         -5    1    3    3    0  502  0.40819558553E+02  0.42159912232E+02 -0.16812180084E+03  0.17811823848E+03  0.41800000000E+01 0. -1.
        -11    1    1    2    0    0  0.31924578547E+02 -0.72151557780E+02 -0.73628183216E+02  0.10791726168E+03  0.00000000000E+00 0. -1.
         11    1    1    2    0    0  0.12010151289E+01  0.19118695612E+02 -0.73718097420E+02  0.76166428605E+02  0.00000000000E+00 0.  1.
</event>
<event>
 7    1  0.2380582E-009  0.9661832E+02  0.7561462E-02  0.1287572E+00
         -4   -1    0    0    0  501 -0.00000000000E+00  0.00000000000E+00  0.14346888279E+03  0.14346888279E+03  0.00000000000E+00 0.  1.
          4   -1    0    0  501    0  0.00000000000E+00 -0.00000000000E+00 -0.88982160270E+02  0.88982160270E+02  0.00000000000E+00 0. -1.
         25    2    1    2    0    0 -0.21697651048E+02  0.26128482717E+02  0.25788138457E+02  0.13215810597E+03  0.12508897320E+03 0.  0.
          5    1    3    3  502    0 -0.10922487983E+02 -0.34031368243E+02  0.53857996201E+02  0.64773381284E+02  0.41800000000E+01 0. -1.
         -5    1    3    3    0  502 -0.10775163065E+02  0.60159850960E+02 -0.28069857744E+02  0.67384724681E+02  0.41800000000E+01 0. -1.
        -11    1    1    2    0    0  0.45860625876E+02  0.15033473250E+02  0.16798729204E+02  0.51101855412E+02  0.00000000000E+00 0.  1.
         11    1    1    2    0    0 -0.24162974828E+02 -0.41161955967E+02  0.11899854859E+02  0.49191081684E+02  0.00000000000E+00 0. -1.
</event>
<event>
 7    1  0.2380582E-009  0.3438927E+03  0.7561462E-02  0.1065150E+00
          2   -1    0    0  501    0  0.00000000000E+00  0.00000000000E+00  0.42866165339E+03  0.42866165339E+03  0.00000000000E+00 0. -1.
         -2   -1    0    0    0  501 -0.00000000000E+00 -0.00000000000E+00 -0.28492745989E+03  0.28492745989E+03  0.00000000000E+00 0.  1.
         25    2    1    2    0    0 -0.17808421794E+03  0.27978563020E+03  0.64310428308E+02  0.36024647191E+03  0.12509077422E+03 0.  0.
          5    1    3    3  502    0 -0.36833551156E+02  0.17204058820E+03  0.43851136140E+02  0.18136997827E+03  0.41800000000E+01 0.  1.
         -5    1    3    3    0  502 -0.14125066678E+03  0.10774504200E+03  0.20459292168E+02  0.17887649364E+03  0.41800000000E+01 0.  1.
        -11    1    1    2    0    0  0.73070050550E+02 -0.79715646056E+02  0.66646722318E+02  0.12702598990E+03  0.00000000000E+00 0. -1.
         11    1    1    2    0    0  0.10501416739E+03 -0.20006998414E+03  0.12777042875E+02  0.22631665147E+03  0.00000000000E+00 0.  1.
</event>
<event>
 7    1  0.2380582E-009  0.9042947E+02  0.7561462E-02  0.1301815E+00
         -2   -1    0    0    0  501 -0.00000000000E+00  0.00000000000E+00  0.75714824240E+02  0.75714824240E+02  0.00000000000E+00 0. -1.
          2   -1    0    0  501    0  0.00000000000E+00 -0.00000000000E+00 -0.24497857406E+03  0.24497857406E+03  0.00000000000E+00 0.  1.
         25    2    1    2    0    0  0.37482478032E+02  0.71489929565E+00 -0.17828945639E+03  0.22099875198E+03  0.12509145006E+03 0.  0.
          5    1    3    3  502    0 -0.22369684344E+02 -0.29584200880E+02 -0.13727539426E+03  0.14225903834E+03  0.41800000000E+01 0.  1.
         -5    1    3    3    0  502  0.59852162376E+02  0.30299100176E+02 -0.41014062124E+02  0.78739713642E+02  0.41800000000E+01 0.  1.
        -11    1    1    2    0    0 -0.28919794207E+02  0.31631776449E+02 -0.26898648200E+02  0.50600998540E+02  0.00000000000E+00 0.  1.
         11    1    1    2    0    0 -0.85626838247E+01 -0.32346675744E+02  0.35924354771E+02  0.49093647773E+02  0.00000000000E+00 0. -1.
</event>
<event>
 7    1  0.2380582E-009  0.1220392E+03  0.7561462E-02  0.1239770E+00
         -2   -1    0    0    0  501 -0.00000000000E+00  0.00000000000E+00  0.12325578325E+04  0.12325578325E+04  0.00000000000E+00 0.  1.
          2   -1    0    0  501    0  0.00000000000E+00 -0.00000000000E+00 -0.15867617451E+02  0.15867617451E+02  0.00000000000E+00 0. -1.
         25    2    1    2    0    0 -0.16475793099E+02 -0.70885797745E+02  0.88579791837E+03  0.89754191820E+03  0.12508914682E+03 0.  0.
          5    1    3    3  502    0  0.17303092263E+02 -0.95454296128E+02  0.71974750271E+03  0.72626776034E+03  0.41800000000E+01 0.  1.
         -5    1    3    3    0  502 -0.33778885362E+02  0.24568498383E+02  0.16605041566E+03  0.17127415786E+03  0.41800000000E+01 0.  1.
        -11    1    1    2    0    0  0.46384587632E+02  0.33988178592E+02  0.10179361514E+03  0.11691307171E+03  0.00000000000E+00 0. -1.
         11    1    1    2    0    0 -0.29908794534E+02  0.36897619153E+02  0.22909868156E+03  0.23397046006E+03  0.00000000000E+00 0.  1.
</event>
<event>
 7    1  0.2380582E-009  0.1842227E+03  0.7561462E-02  0.1163778E+00
          2   -1    0    0  501    0  0.00000000000E+00  0.00000000000E+00  0.43898699303E+02  0.43898699303E+02  0.00000000000E+00 0. -1.
         -2   -1    0    0    0  501 -0.00000000000E+00 -0.00000000000E+00 -0.94736758718E+03  0.94736758718E+03  0.00000000000E+00 0.  1.
         25    2    1    2    0    0 -0.34221623007E+02  0.16118577656E+03 -0.34929391001E+03  0.40596817561E+03  0.12510775353E+03 0.  0.
          5    1    3    3  502    0 -0.15987778500E+02 -0.61166349622E+01 -0.12121857364E+03  0.12249260092E+03  0.41800000000E+01 0.  1.
         -5    1    3    3    0  502 -0.18233844507E+02  0.16730241152E+03 -0.22807533637E+03  0.28347557469E+03  0.41800000000E+01 0.  1.
        -11    1    1    2    0    0 -0.13205373094E+02 -0.11673013260E+03 -0.28244922126E+03  0.30590499886E+03  0.00000000000E+00 0. -1.
         11    1    1    2    0    0  0.47426996101E+02 -0.44455643962E+02 -0.27172575661E+03  0.27939311202E+03  0.00000000000E+00 0.  1.
</event>
<event>
 7    1  0.2380582E-009  0.1988648E+03  0.7561462E-02  0.1150700E+00
          2   -1    0    0  501    0  0.00000000000E+00  0.00000000000E+00  0.84374396035E+02  0.84374396035E+02  0.00000000000E+00 0. -1.
         -2   -1    0    0    0  501 -0.00000000000E+00 -0.00000000000E+00 -0.60835506948E+03  0.60835506948E+03  0.00000000000E+00 0.  1.
         25    2    1    2    0    0 -0.21520126830E+02 -0.19703417929E+03 -0.28594394729E+03  0.36972591000E+03  0.12509086243E+03 0.  0.
          5    1    3    3  502    0 -0.11304378526E+02 -0.52130309897E+02 -0.18551481099E+03  0.19307660573E+03  0.41800000000E+01 0. -1.
         -5    1    3    3    0  502 -0.10215748304E+02 -0.14490386940E+03 -0.10042913630E+03  0.17664930426E+03  0.41800000000E+01 0. -1.
        -11    1    1    2    0    0  0.10172732589E+02  0.34442121311E+02 -0.11007670983E+03  0.11578698656E+03  0.00000000000E+00 0.  1.
         11    1    1    2    0    0  0.11347394241E+02  0.16259205798E+03 -0.12796001633E+03  0.20721656897E+03  0.00000000000E+00 0. -1.
</event>
<event>
 7    1  0.2380582E-009  0.9607888E+02  0.7561462E-02  0.1288765E+00
          2   -1    0    0  501    0  0.00000000000E+00  0.00000000000E+00  0.58522977478E+03  0.58522977478E+03  0.00000000000E+00 0. -1.
         -2   -1    0    0    0  501 -0.00000000000E+00 -0.00000000000E+00 -0.27011975508E+02  0.27011975508E+02  0.00000000000E+00 0.  1.
         25    2    1    2    0    0  0.23787817956E+02 -0.52293972010E+02  0.37322004088E+03  0.39779551517E+03  0.12509018022E+03 0.  0.
          5    1    3    3  502    0  0.20958502568E+02 -0.91219753298E+02  0.21050279568E+03  0.23041094073E+03  0.41800000000E+01 0. -1.
         -5    1    3    3    0  502  0.28293153878E+01  0.38925781287E+02  0.16271724520E+03  0.16738457444E+03  0.41800000000E+01 0. -1.
        -11    1    1    2    0    0 -0.12756988657E+01  0.18898947673E+02 -0.55106528345E+01  0.19727263505E+02  0.00000000000E+00 0.  1.
         11    1    1    2    0    0 -0.22512119090E+02  0.33395024337E+02  0.19050841123E+03  0.19471897161E+03  0.00000000000E+00 0. -1.
</event>
<event>
 7    1  0.2380582E-009  0.8883464E+02  0.7561462E-02  0.1305699E+00
         -2   -1    0    0    0  501 -0.00000000000E+00  0.00000000000E+00  0.10449040758E+03  0.10449040758E+03  0.00000000000E+00 0.  1.
          2   -1    0    0  501    0  0.00000000000E+00 -0.00000000000E+00 -0.15527453386E+03  0.15527453386E+03  0.00000000000E+00 0. -1.
         25    2    1    2    0    0  0.91427863152E+01  0.17322008648E+02 -0.91511064039E+02  0.15621622446E+03  0.12508233855E+03 0.  0.
          5    1    3    3  502    0 -0.43840537103E+02 -0.23745706066E+02 -0.10749694379E+02  0.51174989783E+02  0.41800000000E+01 0. -1.
         -5    1    3    3    0  502  0.52983323418E+02  0.41067714714E+02 -0.80761369660E+02  0.10504123467E+03  0.41800000000E+01 0. -1.
        -11    1    1    2    0    0 -0.22656931147E+02 -0.32836878389E+02 -0.16168884070E+02  0.43046834070E+02  0.00000000000E+00 0.  1.
         11    1    1    2    0    0  0.13514144832E+02  0.15514869741E+02  0.56895821838E+02  0.60501882915E+02  0.00000000000E+00 0. -1.
</event>
<event>
 7    1  0.2380582E-009  0.1435584E+03  0.7561462E-02  0.1208620E+00
         -2   -1    0    0    0  501 -0.00000000000E+00  0.00000000000E+00  0.18600670333E+03  0.18600670333E+03  0.00000000000E+00 0.  1.
          2   -1    0    0  501    0  0.00000000000E+00 -0.00000000000E+00 -0.13351605281E+03  0.13351605281E+03  0.00000000000E+00 0. -1.
         25    2    1    2    0    0  0.30905853576E+02 -0.10512454387E+03  0.53043743727E+02  0.17454728411E+03  0.12508706621E+03 0.  0.
          5    1    3    3  502    0 -0.43840228162E+02 -0.29056245831E+02  0.41637813031E+02  0.67211687236E+02  0.41800000000E+01 0. -1.
         -5    1    3    3    0  502  0.74746081738E+02 -0.76068298034E+02  0.11405930697E+02  0.10733559687E+03  0.41800000000E+01 0. -1.
        -11    1    1    2    0    0 -0.31118301413E+02  0.10263974689E+02 -0.31241728548E+02  0.45274092613E+02  0.00000000000E+00 0. -1.
         11    1    1    2    0    0  0.21244783730E+00  0.94860569176E+02  0.30688635347E+02  0.99701379419E+02  0.00000000000E+00 0.  1.
</event>
<event>
 7    1  0.2380582E-009  0.1013017E+03  0.7561462E-02  0.1277582E+00
         -1   -1    0    0    0  501 -0.00000000000E+00  0.00000000000E+00  0.11759747693E+03  0.11759747693E+03  0.00000000000E+00 0.  1.
          1   -1    0    0  501    0  0.00000000000E+00 -0.00000000000E+00 -0.13998055714E+03  0.13998055714E+03  0.00000000000E+00 0. -1.
         25    2    1    2    0    0  0.61611275485E+02  0.11828207413E+02  0.18662272378E+02  0.14118096686E+03  0.12509168332E+03 0.  0.
          5    1    3    3  502    0 -0.26732630459E+01  0.59284428187E+02  0.24501740933E+01  0.59542132259E+02  0.41800000000E+01 0.  1.
         -5    1    3    3    0  502  0.64284538531E+02 -0.47456220775E+02  0.16212098285E+02  0.81638834602E+02  0.41800000000E+01 0.  1.
        -11    1    1    2    0    0 -0.46853235161E+02 -0.11898770072E+02 -0.69315187118E+02  0.84506813568E+02  0.00000000000E+00 0. -1.
         11    1    1    2    0    0 -0.14758040325E+02  0.70562659683E-01  0.28269834529E+02  0.31890253646E+02  0.00000000000E+00 0.  1.
</event>
<event>
 7    1  0.2380582E-009  0.1162056E+03  0.7561462E-02  0.1249491E+00
          2   -1    0    0  501    0  0.00000000000E+00  0.00000000000E+00  0.75705037411E+02  0.75705037411E+02  0.00000000000E+00 0. -1.
         -2   -1    0    0    0  501 -0.00000000000E+00 -0.00000000000E+00 -0.21949105605E+03  0.21949105605E+03  0.00000000000E+00 0.  1.
         25    2    1    2    0    0 -0.66038428433E+02 -0.72411630185E+01 -0.53966340453E+02  0.15156790447E+03  0.12508779033E+03 0.  0.
          5    1    3    3  502    0 -0.62906156446E+02 -0.60109823248E+02 -0.23072186822E+02  0.90112005718E+02  0.41800000000E+01 0.  1.
         -5    1    3    3    0  502 -0.31322719865E+01  0.52868660230E+02 -0.30894153631E+02  0.61455898748E+02  0.41800000000E+01 0.  1.
        -11    1    1    2    0    0 -0.90167989510E+01  0.14177449125E+02 -0.60436276300E+02  0.62728352601E+02  0.00000000000E+00 0.  1.
         11    1    1    2    0    0  0.75055227384E+02 -0.69362861063E+01 -0.29383401890E+02  0.80899836398E+02  0.00000000000E+00 0. -1.
</event>
<event>
 7    1  0.2747080E-009  0.8804497E+02  0.7561462E-02  0.1307656E+00
          2   -1    0    0  501    0  0.00000000000E+00  0.00000000000E+00  0.36231963541E+03  0.36231963541E+03  0.00000000000E+00 0. -1.
         -2   -1    0    0    0  501 -0.00000000000E+00 -0.00000000000E+00 -0.41890684452E+02  0.41890684452E+02  0.00000000000E+00 0.  1.
         25    2    1    2    0    0 -0.86899884083E+01  0.45713939832E+02  0.12013391953E+03  0.17956824177E+03  0.12508922671E+03 0.  0.
          5    1    3    3  502    0  0.41735731011E+02 -0.14626442420E+02  0.79224390104E+02  0.90828302022E+02  0.41800000000E+01 0. -1.
         -5    1    3    3    0  502 -0.50425719420E+02  0.60340382252E+02  0.40909529424E+02  0.88739939751E+02  0.41800000000E+01 0. -1.
        -11    1    1    2    0    0  0.13025858543E+02 -0.87236806886E+01 -0.46406894471E+01  0.16349666482E+02  0.00000000000E+00 0.  1.
         11    1    1    2    0    0 -0.43358701346E+01 -0.36990259143E+02  0.20493572087E+03  0.20829241160E+03  0.00000000000E+00 0. -1.
</event>
<event>
 7    1  0.2380582E-009  0.1357309E+03  0.7561462E-02  0.1219192E+00
         -2   -1    0    0    0  501 -0.00000000000E+00  0.00000000000E+00  0.36378671499E+02  0.36378671499E+02  0.00000000000E+00 0.  1.
          2   -1    0    0  501    0  0.00000000000E+00 -0.00000000000E+00 -0.74309467467E+03  0.74309467467E+03  0.00000000000E+00 0. -1.
         25    2    1    2    0    0 -0.86271676266E+01  0.11872477516E+03 -0.46049737036E+03  0.49180791939E+03  0.12508877332E+03 0.  0.
          5    1    3    3  502    0  0.30935010024E+02  0.99143617283E+02 -0.41675965271E+03  0.42952591565E+03  0.41800000000E+01 0.  1.
         -5    1    3    3    0  502 -0.39562177651E+02  0.19581157873E+02 -0.43737717650E+02  0.62282003736E+02  0.41800000000E+01 0.  1.
        -11    1    1    2    0    0 -0.11976128787E+02 -0.36581572847E+02 -0.14802604647E+02  0.41240225957E+02  0.00000000000E+00 0. -1.
         11    1    1    2    0    0  0.20603296414E+02 -0.82143202308E+02 -0.23141602817E+03  0.24642520083E+03  0.00000000000E+00 0.  1.
</event>
<event>
 7    1  0.2380582E-009  0.1731277E+03  0.7561462E-02  0.1174625E+00
         -2   -1    0    0    0  501 -0.00000000000E+00  0.00000000000E+00  0.88080861986E+03  0.88080861986E+03  0.00000000000E+00 0.  1.
          2   -1    0    0  501    0  0.00000000000E+00 -0.00000000000E+00 -0.42667068413E+02  0.42667068413E+02  0.00000000000E+00 0. -1.
         25    2    1    2    0    0  0.13838060764E+03  0.67694496912E+02  0.35504561347E+03  0.40673781142E+03  0.12508605884E+03 0.  0.
          5    1    3    3  502    0  0.90507520874E+01 -0.18347862238E+02  0.13929776581E+03  0.14085418035E+03  0.41800000000E+01 0.  1.
         -5    1    3    3    0  502  0.12932985555E+03  0.86042359150E+02  0.21574784766E+03  0.26588363107E+03  0.41800000000E+01 0.  1.
        -11    1    1    2    0    0 -0.26517200480E+02 -0.50178968306E+02  0.80310631564E+02  0.98340674818E+02  0.00000000000E+00 0.  1.
         11    1    1    2    0    0 -0.11186340716E+03 -0.17515528606E+02  0.40278530641E+03  0.41839720203E+03  0.00000000000E+00 0. -1.
</event>
<event>
 7    1  0.2380582E-009  0.1101849E+03  0.7561462E-02  0.1260228E+00
         -1   -1    0    0    0  501 -0.00000000000E+00  0.00000000000E+00  0.11150560360E+03  0.11150560360E+03  0.00000000000E+00 0.  1.
          1   -1    0    0  501    0  0.00000000000E+00 -0.00000000000E+00 -0.12402578956E+03  0.12402578956E+03  0.00000000000E+00 0. -1.
         25    2    1    2    0    0 -0.11464799004E+02 -0.23546669682E+01 -0.42231860528E+02  0.13254038294E+03  0.12508571859E+03 0.  0.
          5    1    3    3  502    0  0.36905454314E+02 -0.44966687747E+02 -0.33760872959E+02  0.67389053325E+02  0.41800000000E+01 0.  1.
         -5    1    3    3    0  502 -0.48370253318E+02  0.42612020779E+02 -0.84709875687E+01  0.65151329620E+02  0.41800000000E+01 0.  1.
        -11    1    1    2    0    0  0.34575116516E+01  0.49504148476E+02  0.23007503075E+02  0.54698814438E+02  0.00000000000E+00 0.  1.
         11    1    1    2    0    0  0.80072873525E+01 -0.47149481508E+02  0.67041714980E+01  0.48292195774E+02  0.00000000000E+00 0. -1.
</event>
<event>
 7    1  0.2380582E-009  0.3819394E+03  0.7561462E-02  0.1050219E+00
         -1   -1    0    0    0  501 -0.00000000000E+00  0.00000000000E+00  0.16250421123E+03  0.16250421123E+03  0.00000000000E+00 0.  1.
          1   -1    0    0  501    0  0.00000000000E+00 -0.00000000000E+00 -0.15526539381E+04  0.15526539381E+04  0.00000000000E+00 0. -1.
         25    2    1    2    0    0  0.36381155003E+03  0.43937870776E+02 -0.12561163546E+04  0.13144441258E+04  0.12508270510E+03 0.  0.
          5    1    3    3  502    0  0.11117678628E+03  0.72343987308E+02 -0.45323913379E+03  0.47226805429E+03  0.41800000000E+01 0. -1.
         -5    1    3    3    0  502  0.25263476375E+03 -0.28406116532E+02 -0.80287722086E+03  0.84217607155E+03  0.41800000000E+01 0. -1.
        -11    1    1    2    0    0 -0.16230005049E+03  0.24404124270E+02 -0.70690323155E+02  0.17870083787E+03  0.00000000000E+00 0. -1.
         11    1    1    2    0    0 -0.20151149955E+03 -0.68341995046E+02 -0.63343049121E+02  0.22201318566E+03  0.00000000000E+00 0.  1.
</event>
<event>
 7    1  0.2380582E-009  0.1035245E+03  0.7561462E-02  0.1273054E+00
          3   -1    0    0  501    0  0.00000000000E+00  0.00000000000E+00  0.54924853440E+02  0.54924853440E+02  0.00000000000E+00 0. -1.
         -3   -1    0    0    0  501 -0.00000000000E+00 -0.00000000000E+00 -0.28532869301E+03  0.28532869301E+03  0.00000000000E+00 0.  1.
         25    2    1    2    0    0  0.46322318494E+02  0.26856190757E+02 -0.17341346643E+03  0.22042329858E+03  0.12508872070E+03 0.  0.
          5    1    3    3  502    0 -0.25353685031E+02  0.42292614755E+02 -0.26401441105E+02  0.56089063995E+02  0.41800000000E+01 0. -1.
         -5    1    3    3    0  502  0.71676003524E+02 -0.15436423997E+02 -0.14701202533E+03  0.16433423459E+03  0.41800000000E+01 0. -1.
        -11    1    1    2    0    0 -0.18268701949E+02 -0.46444362744E+02 -0.67582062590E+02  0.84012853097E+02  0.00000000000E+00 0.  1.
         11    1    1    2    0    0 -0.28053616545E+02  0.19588171986E+02  0.10591689449E+02  0.35817394774E+02  0.00000000000E+00 0. -1.
</event>
<event>
 7    1  0.2380582E-009  0.1682093E+03  0.7561462E-02  0.1179728E+00
         -1   -1    0    0    0  501 -0.00000000000E+00  0.00000000000E+00  0.13109913478E+03  0.13109913478E+03  0.00000000000E+00 0.  1.
          1   -1    0    0  501    0  0.00000000000E+00 -0.00000000000E+00 -0.24700966270E+03  0.24700966270E+03  0.00000000000E+00 0. -1.
         25    2    1    2    0    0 -0.76293462512E+02  0.10439794430E+03  0.43108972992E+01  0.17996175148E+03  0.12509206595E+03 0.  0.
          5    1    3    3  502    0  0.12412887421E+02 -0.21821761205E+02  0.29941526901E+01  0.25626283120E+02  0.41800000000E+01 0.  1.
         -5    1    3    3    0  502 -0.88706349934E+02  0.12621970551E+03  0.13167446092E+01  0.15433546836E+03  0.41800000000E+01 0.  1.
        -11    1    1    2    0    0 -0.10230999389E+02 -0.57140412666E+02 -0.34670945217E+02  0.67614898879E+02  0.00000000000E+00 0. -1.
         11    1    1    2    0    0  0.86524461901E+02 -0.47257531637E+02 -0.85550480008E+02  0.13053214713E+03  0.00000000000E+00 0.  1.
</event>
<event>
 7    1  0.2380582E-009  0.1418832E+03  0.7561462E-02  0.1210817E+00
         -1   -1    0    0    0  501 -0.00000000000E+00  0.00000000000E+00  0.62405874104E+02  0.62405874104E+02  0.00000000000E+00 0.  1.
          1   -1    0    0  501    0  0.00000000000E+00 -0.00000000000E+00 -0.42755132973E+03  0.42755132973E+03  0.00000000000E+00 0. -1.
         25    2    1    2    0    0  0.11836229541E+03  0.24199019564E+02 -0.21485075373E+03  0.27641123753E+03  0.12508837010E+03 0.  0.
          5    1    3    3  502    0  0.51360688507E+02 -0.18208884581E+02 -0.85001008516E+01  0.55310106817E+02  0.41800000000E+01 0. -1.
         -5    1    3    3    0  502  0.67001606906E+02  0.42407904145E+02 -0.20635065288E+03  0.22110113072E+03  0.41800000000E+01 0. -1.
        -11    1    1    2    0    0 -0.56087017805E+01 -0.35912868950E+02 -0.52361918074E+02  0.63741369269E+02  0.00000000000E+00 0. -1.
         11    1    1    2    0    0 -0.11275359363E+03  0.11713849385E+02 -0.97932783826E+02  0.14980459703E+03  0.00000000000E+00 0.  1.
</event>
<event>
 7    1  0.2380582E-009  0.1446267E+03  0.7561462E-02  0.1207236E+00
          1   -1    0    0  501    0  0.00000000000E+00  0.00000000000E+00  0.44020982670E+03  0.44020982670E+03  0.00000000000E+00 0. -1.
         -1   -1    0    0    0  501 -0.00000000000E+00 -0.00000000000E+00 -0.62458194122E+02  0.62458194122E+02  0.00000000000E+00 0.  1.
         25    2    1    2    0    0 -0.94445683438E+02  0.46500400919E+02  0.10094074247E+03  0.19214292347E+03  0.12509034792E+03 0.  0.
          5    1    3    3  502    0 -0.11267384884E+03  0.59598430735E+02  0.10916546786E+03  0.16787477754E+03  0.41800000000E+01 0. -1.
         -5    1    3    3    0  502  0.18228165406E+02 -0.13098029815E+02 -0.82247253938E+01  0.24268145931E+02  0.41800000000E+01 0. -1.
        -11    1    1    2    0    0 -0.12148287311E+02  0.12185562732E+02  0.53705070718E+02  0.56394179172E+02  0.00000000000E+00 0. -1.
         11    1    1    2    0    0  0.10659397075E+03 -0.58685963651E+02  0.22310581939E+03  0.25413091818E+03  0.00000000000E+00 0.  1.
</event>
<event>
 7    1  0.2380582E-009  0.1141861E+03  0.7561462E-02  0.1253008E+00
         -2   -1    0    0    0  501 -0.00000000000E+00  0.00000000000E+00  0.11702869417E+03  0.11702869417E+03  0.00000000000E+00 0.  1.
          2   -1    0    0  501    0  0.00000000000E+00 -0.00000000000E+00 -0.12866236124E+03  0.12866236124E+03  0.00000000000E+00 0. -1.
         25    2    1    2    0    0  0.52418181782E+02 -0.21943501653E+02 -0.34222554617E+01  0.13743722973E+03  0.12509235483E+03 0.  0.
          5    1    3    3  502    0 -0.40014673685E+02  0.60594656794E+01  0.43190204462E+00  0.40688452585E+02  0.41800000000E+01 0. -1.
         -5    1    3    3    0  502  0.92432855467E+02 -0.28002967332E+02 -0.38541575064E+01  0.96748777146E+02  0.41800000000E+01 0. -1.
        -11    1    1    2    0    0 -0.39412069690E+02  0.47870813043E+02  0.22543184770E+02  0.65978186988E+02  0.00000000000E+00 0. -1.
         11    1    1    2    0    0 -0.13006112092E+02 -0.25927311390E+02 -0.30754596378E+02  0.42275638683E+02  0.00000000000E+00 0.  1.
</event>
<event>
 7    1  0.2380582E-009  0.8944157E+02  0.7561462E-02  0.1304210E+00
         -3   -1    0    0    0  501 -0.00000000000E+00  0.00000000000E+00  0.72915131245E+02  0.72915131245E+02  0.00000000000E+00 0.  1.
          3   -1    0    0  501    0  0.00000000000E+00 -0.00000000000E+00 -0.25030258603E+03  0.25030258603E+03  0.00000000000E+00 0. -1.
         25    2    1    2    0    0  0.21402318419E+02  0.29152924852E+02 -0.11240816755E+03  0.17201458118E+03  0.12508184419E+03 0.  0.
          5    1    3    3  502    0 -0.38332057907E+02 -0.26392039595E+02 -0.27586018569E+02  0.54261839610E+02  0.41800000000E+01 0. -1.
         -5    1    3    3    0  502  0.59734376326E+02  0.55544964447E+02 -0.84822148980E+02  0.11775274157E+03  0.41800000000E+01 0. -1.
        -11    1    1    2    0    0  0.27789103535E+01 -0.25938720754E+02 -0.10287710002E+03  0.10613311117E+03  0.00000000000E+00 0. -1.
         11    1    1    2    0    0 -0.24181228772E+02 -0.32142040981E+01  0.37897812785E+02  0.45070024926E+02  0.00000000000E+00 0.  1.
</event>
<event>
 7    1  0.2380582E-009  0.1059885E+03  0.7561462E-02  0.1268184E+00
          2   -1    0    0  501    0  0.00000000000E+00  0.00000000000E+00  0.19242318587E+03  0.19242318587E+03  0.00000000000E+00 0. -1.
         -2   -1    0    0    0  501 -0.00000000000E+00 -0.00000000000E+00 -0.68570393453E+02  0.68570393453E+02  0.00000000000E+00 0.  1.
         25    2    1    2    0    0 -0.24022994619E+02  0.32967727759E+02  0.68970041646E+02  0.14855436804E+03  0.12509020055E+03 0.  0.
          5    1    3    3  502    0 -0.66783568243E+02  0.50745783472E+02  0.35056806975E+02  0.91003470499E+02  0.41800000000E+01 0.  1.
         -5    1    3    3    0  502  0.42760573624E+02 -0.17778055713E+02  0.33913234671E+02  0.57550897538E+02  0.41800000000E+01 0.  1.
        -11    1    1    2    0    0 -0.13840010642E+02 -0.40583272531E+02 -0.28571674347E+01  0.42973379081E+02  0.00000000000E+00 0.  1.
         11    1    1    2    0    0  0.37863005262E+02  0.76155447719E+01  0.57739918205E+02  0.69465832205E+02  0.00000000000E+00 0. -1.
</event>
<event>
 7    1  0.2380582E-009  0.1089745E+03  0.7561462E-02  0.1262481E+00
         -2   -1    0    0    0  501 -0.00000000000E+00  0.00000000000E+00  0.21228652331E+03  0.21228652331E+03  0.00000000000E+00 0.  1.
          2   -1    0    0  501    0  0.00000000000E+00 -0.00000000000E+00 -0.74040960709E+02  0.74040960709E+02  0.00000000000E+00 0. -1.
         25    2    1    2    0    0  0.45386717209E+02  0.44156231589E+02  0.70546751503E+02  0.15694937601E+03  0.12508611271E+03 0.  0.
          5    1    3    3  502    0  0.75296403501E+01  0.74518395515E+02  0.77370750033E+02  0.10776544954E+03  0.41800000000E+01 0. -1.
         -5    1    3    3    0  502  0.37857076859E+02 -0.30362163926E+02 -0.68239985295E+01  0.49183926465E+02  0.41800000000E+01 0. -1.
        -11    1    1    2    0    0 -0.35785546480E+02  0.11623847416E+02  0.61957132543E+02  0.72487277771E+02  0.00000000000E+00 0.  1.
         11    1    1    2    0    0 -0.96011707295E+01 -0.55780079005E+02  0.57416785554E+01  0.56890830243E+02  0.00000000000E+00 0. -1.
</event>
<event>
 7    1  0.2380582E-009  0.1272774E+03  0.7561462E-02  0.1231552E+00
         -1   -1    0    0    0  501 -0.00000000000E+00  0.00000000000E+00  0.11929175434E+03  0.11929175434E+03  0.00000000000E+00 0.  1.
          1   -1    0    0  501    0  0.00000000000E+00 -0.00000000000E+00 -0.21993064395E+03  0.21993064395E+03  0.00000000000E+00 0. -1.
         25    2    1    2    0    0  0.22065435645E+01  0.10399159072E+03 -0.10832562250E+03  0.19545325482E+03  0.12509362316E+03 0.  0.
          5    1    3    3  502    0 -0.30251669437E+02  0.11260007594E+03 -0.11160771159E+03  0.16145492960E+03  0.41800000000E+01 0. -1.
         -5    1    3    3    0  502  0.32458213001E+02 -0.86084852202E+01  0.32820890940E+01  0.33998325221E+02  0.41800000000E+01 0. -1.
        -11    1    1    2    0    0  0.23602674233E+00 -0.49999816152E+02 -0.45744943974E+02  0.67768998982E+02  0.00000000000E+00 0. -1.
         11    1    1    2    0    0 -0.24425703068E+01 -0.53991774563E+02  0.53431676864E+02  0.76000144491E+02  0.00000000000E+00 0.  1.
</event>
<event>
 7    1  0.2380582E-009  0.1604989E+03  0.7561462E-02  0.1188135E+00
         -1   -1    0    0    0  501 -0.00000000000E+00  0.00000000000E+00  0.59801835855E+03  0.59801835855E+03  0.00000000000E+00 0.  1.
          1   -1    0    0  501    0  0.00000000000E+00 -0.00000000000E+00 -0.67045120428E+02  0.67045120428E+02  0.00000000000E+00 0. -1.
         25    2    1    2    0    0 -0.77489830548E+02 -0.10054441236E+03  0.46083229020E+03  0.49409221285E+03  0.12508741906E+03 0.  0.
          5    1    3    3  502    0  0.22347855004E+02 -0.49460244993E+02  0.24331934116E+03  0.24933414656E+03  0.41800000000E+01 0. -1.
         -5    1    3    3    0  502 -0.99837685552E+02 -0.51084167370E+02  0.21751294905E+03  0.24475806629E+03  0.41800000000E+01 0. -1.
        -11    1    1    2    0    0  0.96221506371E+02  0.93941479575E+02  0.52345921709E+02  0.14430410733E+03  0.00000000000E+00 0. -1.
         11    1    1    2    0    0 -0.18731675824E+02  0.66029327875E+01  0.17795026207E+02  0.26667158796E+02  0.00000000000E+00 0.  1.
</event>
<event>
 7    1  0.2380582E-009  0.9847312E+02  0.7561462E-02  0.1283540E+00
          1   -1    0    0  501    0  0.00000000000E+00  0.00000000000E+00  0.57183111224E+03  0.57183111224E+03  0.00000000000E+00 0. -1.
         -1   -1    0    0    0  501 -0.00000000000E+00 -0.00000000000E+00 -0.21762209741E+02  0.21762209741E+02  0.00000000000E+00 0.  1.
         25    2    1    2    0    0 -0.75354482604E+01  0.20756574999E+02  0.28828458371E+03  0.31502684736E+03  0.12508515087E+03 0.  0.
          5    1    3    3  502    0 -0.53198515278E+02  0.23072314628E+02  0.24543066174E+03  0.25222231435E+03  0.41800000000E+01 0. -1.
         -5    1    3    3    0  502  0.45663067018E+02 -0.23157396289E+01  0.42853921968E+02  0.62804533018E+02  0.41800000000E+01 0. -1.
        -11    1    1    2    0    0 -0.35020691858E+02 -0.33510688454E+02  0.10571848576E+03  0.11630053022E+03  0.00000000000E+00 0.  1.
         11    1    1    2    0    0  0.42556140118E+02  0.12754113455E+02  0.15606583303E+03  0.16226594440E+03  0.00000000000E+00 0. -1.
</event>
<event>
 7    1  0.2380582E-009  0.1139556E+03  0.7561462E-02  0.1253415E+00
          2   -1    0    0  501    0  0.00000000000E+00  0.00000000000E+00  0.22660849214E+03  0.22660849214E+03  0.00000000000E+00 0. -1.
         -2   -1    0    0    0  501 -0.00000000000E+00 -0.00000000000E+00 -0.10160583871E+03  0.10160583871E+03  0.00000000000E+00 0.  1.
         25    2    1    2    0    0  0.47736630622E+02  0.46185586651E+02  0.15550986281E+03  0.21033618298E+03  0.12508436402E+03 0.  0.
          5    1    3    3  502    0  0.64008456290E+02 -0.67180774698E+01  0.26195989093E+02  0.69612623036E+02  0.41800000000E+01 0.  1.
         -5    1    3    3    0  502 -0.16271825667E+02  0.52903664120E+02  0.12931387372E+03  0.14072355995E+03  0.41800000000E+01 0.  1.
        -11    1    1    2    0    0 -0.14941363048E+02 -0.67277157911E+02 -0.90494470208E+00  0.68922269487E+02  0.00000000000E+00 0. -1.
         11    1    1    2    0    0 -0.32795267575E+02  0.21091571260E+02 -0.29602264679E+02  0.48955878377E+02  0.00000000000E+00 0.  1.
</event>
<event>
 7    1  0.2380582E-009  0.8610196E+02  0.7561462E-02  0.1312576E+00
         -1   -1    0    0    0  501 -0.00000000000E+00  0.00000000000E+00  0.41644215377E+03  0.41644215377E+03  0.00000000000E+00 0.  1.
          1   -1    0    0  501    0  0.00000000000E+00 -0.00000000000E+00 -0.47557501575E+02  0.47557501575E+02  0.00000000000E+00 0. -1.
         25    2    1    2    0    0 -0.48406449791E+02  0.34613237346E+02  0.84659010165E+02  0.16234412180E+03  0.12508878967E+03 0.  0.
          5    1    3    3  502    0 -0.17856396350E+02  0.43754868428E+02  0.11103784672E+03  0.12074856192E+03  0.41800000000E+01 0.  1.
         -5    1    3    3    0  502 -0.30550053440E+02 -0.91416310813E+01 -0.26378836553E+02  0.41595559883E+02  0.41800000000E+01 0.  1.
        -11    1    1    2    0    0 -0.11020106586E+02 -0.31184647441E+02  0.16631136623E+03  0.16956826213E+03  0.00000000000E+00 0.  1.
         11    1    1    2    0    0  0.59426556377E+02 -0.34285899059E+01  0.11791427580E+03  0.13208727141E+03  0.00000000000E+00 0. -1.
</event>
<event>
 7    1  0.2380582E-009  0.1952594E+03  0.7561462E-02  0.1153801E+00
         -1   -1    0    0    0  501 -0.00000000000E+00  0.00000000000E+00  0.47800028031E+03  0.47800028031E+03  0.00000000000E+00 0.  1.
          1   -1    0    0  501    0  0.00000000000E+00 -0.00000000000E+00 -0.11114839181E+03  0.11114839181E+03  0.00000000000E+00 0. -1.
         25    2    1    2    0    0  0.16881556374E+03 -0.84850364016E+02  0.21661372737E+03  0.31347698050E+03  0.12509209241E+03 0.  0.
          5    1    3    3  502    0  0.17137133295E+03 -0.73651424043E+02  0.13337324449E+03  0.22934376112E+03  0.41800000000E+01 0. -1.
         -5    1    3    3    0  502 -0.25557692039E+01 -0.11198939972E+02  0.83240482883E+02  0.84133219380E+02  0.41800000000E+01 0. -1.
        -11    1    1    2    0    0 -0.12345272455E+03  0.77507690942E+02  0.32587776810E+02  0.14936525885E+03  0.00000000000E+00 0. -1.
         11    1    1    2    0    0 -0.45362839196E+02  0.73426730740E+01  0.11765038432E+03  0.12630643277E+03  0.00000000000E+00 0.  1.
</event>
<event>
 7    1  0.2380582E-009  0.1042395E+03  0.7561462E-02  0.1271625E+00
         -1   -1    0    0    0  501 -0.00000000000E+00  0.00000000000E+00  0.81972924802E+02  0.81972924802E+02  0.00000000000E+00 0.  1.
          1   -1    0    0  501    0  0.00000000000E+00 -0.00000000000E+00 -0.20512359138E+03  0.20512359138E+03  0.00000000000E+00 0. -1.
         25    2    1    2    0    0  0.17349228184E+01  0.36743343446E+02 -0.40281899004E+01  0.13045786790E+03  0.12509974316E+03 0.  0.
          5    1    3    3  502    0 -0.60417568112E+02  0.16825572756E+02  0.97917086749E+01  0.63613932388E+02  0.41800000000E+01 0.  1.
         -5    1    3    3    0  502  0.62152490930E+02  0.19917770690E+02 -0.13819898575E+02  0.66843935512E+02  0.41800000000E+01 0.  1.
        -11    1    1    2    0    0 -0.15627269974E+02 -0.55059755629E+02 -0.30042436481E+02  0.64640051412E+02  0.00000000000E+00 0.  1.
         11    1    1    2    0    0  0.13892347155E+02  0.18316412183E+02 -0.89080040192E+02  0.91998596866E+02  0.00000000000E+00 0. -1.
</event>
<event>
 7    1  0.2380582E-009  0.1154819E+03  0.7561462E-02  0.1250742E+00
         -1   -1    0    0    0  501 -0.00000000000E+00  0.00000000000E+00  0.35062493356E+03  0.35062493356E+03  0.00000000000E+00 0.  1.
          1   -1    0    0  501    0  0.00000000000E+00 -0.00000000000E+00 -0.47143547750E+02  0.47143547750E+02  0.00000000000E+00 0. -1.
         25    2    1    2    0    0  0.25590541681E+01  0.68880201411E+02  0.16809804479E+03  0.22058225163E+03  0.12509414920E+03 0.  0.
          5    1    3    3  502    0 -0.80801415544E+01 -0.34624787436E+02  0.25257473302E+02  0.43812976960E+02  0.41800000000E+01 0.  1.
         -5    1    3    3    0  502  0.10639195723E+02  0.10350498885E+03  0.14284057149E+03  0.17676927467E+03  0.41800000000E+01 0.  1.
        -11    1    1    2    0    0 -0.18485491989E+02  0.18040113493E+01 -0.49761268398E+01  0.19228356907E+02  0.00000000000E+00 0. -1.
         11    1    1    2    0    0  0.15926437820E+02 -0.70684212760E+02  0.14035946785E+03  0.15795787277E+03  0.00000000000E+00 0.  1.
</event>
<event>
 7    1  0.2380582E-009  0.2079577E+03  0.7561462E-02  0.1143194E+00
         -1   -1    0    0    0  501 -0.00000000000E+00  0.00000000000E+00  0.38283553948E+02  0.38283553948E+02  0.00000000000E+00 0.  1.
          1   -1    0    0  501    0  0.00000000000E+00 -0.00000000000E+00 -0.12892619374E+04  0.12892619374E+04  0.00000000000E+00 0. -1.
         25    2    1    2    0    0 -0.17535740642E+03  0.79366277758E+02 -0.71175896937E+03  0.74786067558E+03  0.12508210733E+03 0.  0.
          5    1    3    3  502    0 -0.42676204282E+02 -0.18020777757E+02 -0.31320579265E+03  0.31664072352E+03  0.41800000000E+01 0.  1.
         -5    1    3    3    0  502 -0.13268120214E+03  0.97387055514E+02 -0.39855317672E+03  0.43121995206E+03  0.41800000000E+01 0.  1.
        -11    1    1    2    0    0  0.42125303791E+02 -0.55069124379E+02 -0.11409051951E+03  0.13350579134E+03  0.00000000000E+00 0.  1.
         11    1    1    2    0    0  0.13323210263E+03 -0.24297153379E+02 -0.42512889458E+03  0.44617902443E+03  0.00000000000E+00 0. -1.
</event>
<event>
 7    1  0.2380582E-009  0.8975525E+02  0.7561462E-02  0.1303445E+00
         -1   -1    0    0    0  501 -0.00000000000E+00  0.00000000000E+00  0.11101180929E+03  0.11101180929E+03  0.00000000000E+00 0.  1.
          1   -1    0    0  501    0  0.00000000000E+00 -0.00000000000E+00 -0.11543669508E+03  0.11543669508E+03  0.00000000000E+00 0. -1.
         25    2    1    2    0    0 -0.20934276756E+02 -0.21469112506E+02 -0.21709650147E+01  0.12865214643E+03  0.12508994747E+03 0.  0.
          5    1    3    3  502    0  0.41919264116E+02 -0.44392219142E+02 -0.61051180270E+01  0.61503160005E+02  0.41800000000E+01 0.  1.
         -5    1    3    3    0  502 -0.62853540872E+02  0.22923106636E+02  0.39341530123E+01  0.67148986425E+02  0.41800000000E+01 0.  1.
        -11    1    1    2    0    0 -0.80704471807E+01  0.20749584134E+02  0.40447886791E+02  0.46170433237E+02  0.00000000000E+00 0.  1.
         11    1    1    2    0    0  0.29004723937E+02  0.71952837192E+00 -0.42701807568E+02  0.51625924702E+02  0.00000000000E+00 0. -1.
</event>
<event>
 7    1  0.2380582E-009  0.1946249E+03  0.7561462E-02  0.1154355E+00
         -1   -1    0    0    0  501 -0.00000000000E+00  0.00000000000E+00  0.14597907260E+03  0.14597907260E+03  0.00000000000E+00 0.  1.
          1   -1    0    0  501    0  0.00000000000E+00 -0.00000000000E+00 -0.30670889008E+03  0.30670889008E+03  0.00000000000E+00 0. -1.
         25    2    1    2    0    0  0.72227787034E+01  0.17968064955E+03 -0.54441900138E+02  0.22571859941E+03  0.12509061224E+03 0.  0.
          5    1    3    3  502    0 -0.32142052618E+02  0.16101596271E+03 -0.11888234006E+02  0.16467560324E+03  0.41800000000E+01 0. -1.
         -5    1    3    3    0  502  0.39364831322E+02  0.18664686840E+02 -0.42553666132E+02  0.61042996167E+02  0.41800000000E+01 0. -1.
        -11    1    1    2    0    0 -0.10912576375E+02 -0.38698254882E+02  0.12998479304E+02  0.42256357134E+02  0.00000000000E+00 0.  1.
         11    1    1    2    0    0  0.36897976716E+01 -0.14098239467E+03 -0.11928639664E+03  0.18471300614E+03  0.00000000000E+00 0. -1.
</event>
<event>
 7    1  0.2380582E-009  0.8055669E+02  0.7561462E-02  0.1327479E+00
         -2   -1    0    0    0  501 -0.00000000000E+00  0.00000000000E+00  0.46646571747E+02  0.46646571747E+02  0.00000000000E+00 0.  1.
          2   -1    0    0  501    0  0.00000000000E+00 -0.00000000000E+00 -0.37224636591E+03  0.37224636591E+03  0.00000000000E+00 0. -1.
         25    2    1    2    0    0 -0.47721462493E+02  0.33534133961E+02 -0.27714978288E+03  0.30961286505E+03  0.12508496283E+03 0.  0.
          5    1    3    3  502    0  0.19574634150E+02  0.73149153812E+01 -0.20945326570E+03  0.21053459858E+03  0.41800000000E+01 0. -1.
         -5    1    3    3    0  502 -0.67296096643E+02  0.26219218580E+02 -0.67696517186E+02  0.99078266464E+02  0.41800000000E+01 0. -1.
        -11    1    1    2    0    0  0.19024833715E+02 -0.33770686409E+02  0.13468779624E+02  0.41034273272E+02  0.00000000000E+00 0.  1.
         11    1    1    2    0    0  0.28696628778E+02  0.23655244845E+00 -0.61918790898E+02  0.68245799333E+02  0.00000000000E+00 0. -1.
</event>
<event>
 7    1  0.2380582E-009  0.1405975E+03  0.7561462E-02  0.1212527E+00
          1   -1    0    0  501    0  0.00000000000E+00  0.00000000000E+00  0.30505276463E+03  0.30505276463E+03  0.00000000000E+00 0. -1.
         -1   -1    0    0    0  501 -0.00000000000E+00 -0.00000000000E+00 -0.10597848300E+03  0.10597848300E+03  0.00000000000E+00 0.  1.
         25    2    1    2    0    0  0.10960432169E+03  0.63722762928E+02  0.29693792773E+02  0.18056399854E+03  0.12509171991E+03 0.  0.
          5    1    3    3  502    0  0.53002536979E+02  0.78254194154E+02  0.62528966447E+02  0.11340340327E+03  0.41800000000E+01 0.  1.
         -5    1    3    3    0  502  0.56601784712E+02 -0.14531431225E+02 -0.32835173673E+02  0.67160595264E+02  0.41800000000E+01 0.  1.
        -11    1    1    2    0    0 -0.70099818800E+02 -0.50299263412E+02  0.41091655152E+02  0.95564243411E+02  0.00000000000E+00 0.  1.
         11    1    1    2    0    0 -0.39504502892E+02 -0.13423499516E+02  0.12828883370E+03  0.13490300568E+03  0.00000000000E+00 0. -1.
</event>
<event>
 7    1  0.2380582E-009  0.1736939E+03  0.7561462E-02  0.1174050E+00
          1   -1    0    0  501    0  0.00000000000E+00  0.00000000000E+00  0.74293514982E+03  0.74293514982E+03  0.00000000000E+00 0. -1.
         -1   -1    0    0    0  501 -0.00000000000E+00 -0.00000000000E+00 -0.61980828389E+02  0.61980828389E+02  0.00000000000E+00 0.  1.
         25    2    1    2    0    0 -0.27040375352E+02  0.16732855860E+03  0.21302799355E+03  0.29959722246E+03  0.12509013250E+03 0.  0.
          5    1    3    3  502    0 -0.33476016815E+02  0.99047293624E+02  0.37587785618E+02  0.11118149173E+03  0.41800000000E+01 0.  1.
         -5    1    3    3    0  502  0.64356414633E+01  0.68281264977E+02  0.17544020793E+03  0.18841573073E+03  0.41800000000E+01 0.  1.
        -11    1    1    2    0    0  0.34183906517E+02 -0.88222671277E+02  0.35408160613E+03  0.36650451974E+03  0.00000000000E+00 0. -1.
         11    1    1    2    0    0 -0.71435311646E+01 -0.79105887324E+02  0.11384472176E+03  0.13881423601E+03  0.00000000000E+00 0.  1.
</event>
<event>
 7    1  0.2738222E-009  0.1889421E+03  0.7561462E-02  0.1159419E+00
          2   -1    0    0  501    0  0.00000000000E+00  0.00000000000E+00  0.78078281006E+03  0.78078281006E+03  0.00000000000E+00 0. -1.
         -2   -1    0    0    0  501 -0.00000000000E+00 -0.00000000000E+00 -0.50432152695E+02  0.50432152695E+02  0.00000000000E+00 0.  1.
         25    2    1    2    0    0 -0.10189877701E+03 -0.12354796554E+03  0.29334741389E+03  0.35685789779E+03  0.12508954167E+03 0.  0.
          5    1    3    3  502    0  0.21634697858E+02 -0.44907899653E+02  0.11928953026E+03  0.12935317558E+03  0.41800000000E+01 0.  1.
         -5    1    3    3    0  502 -0.12353347486E+03 -0.78640065886E+02  0.17405788363E+03  0.22750472221E+03  0.41800000000E+01 0.  1.
        -11    1    1    2    0    0  0.86120684174E+01  0.76314351926E+02  0.14307312138E+03  0.16238216064E+03  0.00000000000E+00 0.  1.
         11    1    1    2    0    0  0.93286708589E+02  0.47233613614E+02  0.29393012210E+03  0.31197490433E+03  0.00000000000E+00 0. -1.
</event>
<event>
 7    1  0.2380582E-009  0.1181877E+03  0.7561462E-02  0.1246117E+00
          3   -1    0    0  501    0  0.00000000000E+00  0.00000000000E+00  0.12492780345E+03  0.12492780345E+03  0.00000000000E+00 0. -1.
         -3   -1    0    0    0  501 -0.00000000000E+00 -0.00000000000E+00 -0.12117264472E+03  0.12117264472E+03  0.00000000000E+00 0.  1.
         25    2    1    2    0    0  0.38398452385E+02  0.34605100880E+02  0.29368922312E+02  0.13849834295E+03  0.12508918119E+03 0.  0.
          5    1    3    3  502    0  0.72410177738E+02 -0.15954937506E+02  0.16723696001E+02  0.76124557659E+02  0.41800000000E+01 0. -1.
         -5    1    3    3    0  502 -0.34011725353E+02  0.50560038386E+02  0.12645226310E+02  0.62373785291E+02  0.41800000000E+01 0. -1.
        -11    1    1    2    0    0  0.17233442678E+01  0.27249829829E+02  0.50226464957E+01  0.27762386766E+02  0.00000000000E+00 0.  1.
         11    1    1    2    0    0 -0.40121796653E+02 -0.61854930708E+02 -0.30636410082E+02  0.79839718451E+02  0.00000000000E+00 0. -1.
</event>
<event>
 7    1  0.2380582E-009  0.8882778E+02  0.7561462E-02  0.1305715E+00
          3   -1    0    0  501    0  0.00000000000E+00  0.00000000000E+00  0.26821764900E+03  0.26821764900E+03  0.00000000000E+00 0. -1.
         -3   -1    0    0    0  501 -0.00000000000E+00 -0.00000000000E+00 -0.46117906711E+02  0.46117906711E+02  0.00000000000E+00 0.  1.
         25    2    1    2    0    0  0.84444556634E+01  0.20895743584E+02  0.14333325705E+03  0.19157031564E+03  0.12508725885E+03 0.  0.
          5    1    3    3  502    0 -0.39038428775E+02 -0.30438257012E+02  0.92574169049E+02  0.10506157997E+03  0.41800000000E+01 0.  1.
         -5    1    3    3    0  502  0.47482884438E+02  0.51334000596E+02  0.50759087997E+02  0.86508735664E+02  0.41800000000E+01 0.  1.
        -11    1    1    2    0    0  0.32069774908E+01 -0.37502068001E+02  0.91413954346E+02  0.98859500597E+02  0.00000000000E+00 0. -1.
         11    1    1    2    0    0 -0.11651433154E+02  0.16606324417E+02 -0.12647469105E+02  0.23905739477E+02  0.00000000000E+00 0.  1.
</event>
<event>
 7    1  0.2380582E-009  0.5985078E+02  0.7561462E-02  0.1398459E+00
          3   -1    0    0  501    0  0.00000000000E+00  0.00000000000E+00  0.41396113712E+02  0.41396113712E+02  0.00000000000E+00 0. -1.
         -3   -1    0    0    0  501 -0.00000000000E+00 -0.00000000000E+00 -0.37768740508E+03  0.37768740508E+03  0.00000000000E+00 0.  1.
         25    2    1    2    0    0 -0.34453209787E+02  0.41866787431E+02 -0.25635611676E+03  0.29035653571E+03  0.12509439507E+03 0.  0.
          5    1    3    3  502    0 -0.12229519822E+01  0.23266132436E+02 -0.25048227908E+03  0.25159819765E+03  0.41800000000E+01 0. -1.
         -5    1    3    3    0  502 -0.33230257804E+02  0.18600654995E+02 -0.58738376805E+01  0.38758338059E+02  0.41800000000E+01 0. -1.
        -11    1    1    2    0    0  0.90013650756E+01 -0.26505982043E+02  0.13209828095E+02  0.30953048567E+02  0.00000000000E+00 0. -1.
         11    1    1    2    0    0  0.25451844711E+02 -0.15360805388E+02 -0.93145002708E+02  0.97773934516E+02  0.00000000000E+00 0.  1.
</event>
<event>
 7    1  0.2404825E-009  0.1500437E+03  0.7561462E-02  0.1200419E+00
          1   -1    0    0  501    0  0.00000000000E+00  0.00000000000E+00  0.18835014758E+03  0.18835014758E+03  0.00000000000E+00 0. -1.
         -1   -1    0    0    0  501 -0.00000000000E+00 -0.00000000000E+00 -0.15688912285E+03  0.15688912285E+03  0.00000000000E+00 0.  1.
         25    2    1    2    0    0 -0.68205418455E+02  0.10513353057E+03 -0.27277850444E+02  0.17915674881E+03  0.12509205076E+03 0.  0.
          5    1    3    3  502    0 -0.84168742822E+02  0.74647351010E+02 -0.63307357094E+02  0.12915842266E+03  0.41800000000E+01 0.  1.
         -5    1    3    3    0  502  0.15963324367E+02  0.30486179556E+02  0.36029506651E+02  0.49998326155E+02  0.41800000000E+01 0.  1.
        -11    1    1    2    0    0  0.87498546058E+02 -0.67347455088E+02  0.28658614467E+02  0.11407449957E+03  0.00000000000E+00 0.  1.
         11    1    1    2    0    0 -0.19293127603E+02 -0.37786075479E+02  0.30080260704E+02  0.52008022043E+02  0.00000000000E+00 0. -1.
</event>
<event>
 7    1  0.2380582E-009  0.1662987E+03  0.7561462E-02  0.1181764E+00
          1   -1    0    0  501    0  0.00000000000E+00  0.00000000000E+00  0.64149932656E+03  0.64149932656E+03  0.00000000000E+00 0. -1.
         -1   -1    0    0    0  501 -0.00000000000E+00 -0.00000000000E+00 -0.62093530481E+02  0.62093530481E+02  0.00000000000E+00 0.  1.
         25    2    1    2    0    0  0.75977098613E+01 -0.14589486093E+03  0.15998068505E+03  0.25017036564E+03  0.12509339156E+03 0.  0.
          5    1    3    3  502    0 -0.41674479736E+02 -0.99781956624E+02  0.45878149500E+02  0.11753926208E+03  0.41800000000E+01 0.  1.
         -5    1    3    3    0  502  0.49272189597E+02 -0.46112904310E+02  0.11410253555E+03  0.13263110355E+03  0.41800000000E+01 0.  1.
        -11    1    1    2    0    0 -0.30287777780E+02  0.11167112250E+03  0.37710097749E+03  0.39445270478E+03  0.00000000000E+00 0. -1.
         11    1    1    2    0    0  0.22690067919E+02  0.34223738437E+02  0.42324133534E+02  0.58969786622E+02  0.00000000000E+00 0.  1.
</event>
<event>
 7    1  0.3049732E-009  0.6353033E+02  0.7561462E-02  0.1383587E+00
         -2   -1    0    0    0  501 -0.00000000000E+00  0.00000000000E+00  0.37996399631E+02  0.37996399631E+02  0.00000000000E+00 0. -1.
          2   -1    0    0  501    0  0.00000000000E+00 -0.00000000000E+00 -0.36793558097E+03  0.36793558097E+03  0.00000000000E+00 0.  1.
         25    2    1    2    0    0 -0.17685689479E+02 -0.43451053541E+02 -0.18950690137E+03  0.23186517526E+03  0.12509123137E+03 0.  0.
          5    1    3    3  502    0 -0.33988898941E+02 -0.33224426437E+02 -0.69123322613E+01  0.48211622048E+02  0.41800000000E+01 0.  1.
         -5    1    3    3    0  502  0.16303209461E+02 -0.10226627104E+02 -0.18259456910E+03  0.18365355321E+03  0.41800000000E+01 0.  1.
        -11    1    1    2    0    0  0.22906915870E+02  0.86862880969E+01  0.45203955144E+01  0.24912092871E+02  0.00000000000E+00 0. -1.
         11    1    1    2    0    0 -0.52212263909E+01  0.34764765444E+02 -0.14495267549E+03  0.14915471247E+03  0.00000000000E+00 0.  1.
</event>
<event>
 7    1  0.2380582E-009  0.9527499E+02  0.7561462E-02  0.1290558E+00
         -2   -1    0    0    0  501 -0.00000000000E+00  0.00000000000E+00  0.19817006516E+02  0.19817006516E+02  0.00000000000E+00 0.  1.
          2   -1    0    0  501    0  0.00000000000E+00 -0.00000000000E+00 -0.74381888811E+03  0.74381888811E+03  0.00000000000E+00 0. -1.
         25    2    1    2    0    0 -0.47379389932E+02 -0.18396648326E+02 -0.46354695412E+03  0.48281093999E+03  0.12508949534E+03 0.  0.
          5    1    3    3  502    0 -0.44242955736E+02 -0.43321849646E+02 -0.95566081785E+02  0.11394985817E+03  0.41800000000E+01 0. -1.
         -5    1    3    3    0  502 -0.31364341968E+01  0.24925201320E+02 -0.36798087233E+03  0.36886108182E+03  0.41800000000E+01 0. -1.
        -11    1    1    2    0    0 -0.19283527761E+02  0.29695347327E+02 -0.65186283685E+02  0.74181666714E+02  0.00000000000E+00 0.  1.
         11    1    1    2    0    0  0.66662917693E+02 -0.11298699002E+02 -0.19526864379E+03  0.20664328792E+03  0.00000000000E+00 0. -1.
</event>
<event>
 7    1  0.2380582E-009  0.1363196E+03  0.7561462E-02  0.1218369E+00
         -2   -1    0    0    0  501 -0.00000000000E+00  0.00000000000E+00  0.21782872838E+02  0.21782872838E+02  0.00000000000E+00 0.  1.
          2   -1    0    0  501    0  0.00000000000E+00 -0.00000000000E+00 -0.95544573144E+03  0.95544573144E+03  0.00000000000E+00 0. -1.
         25    2    1    2    0    0 -0.39459781548E+02 -0.80449916823E+02 -0.43604519827E+03  0.46239790222E+03  0.12508853490E+03 0.  0.
          5    1    3    3  502    0 -0.70223025605E+02 -0.20081790910E+02 -0.13250053160E+03  0.15135526065E+03  0.41800000000E+01 0.  1.
         -5    1    3    3    0  502  0.30763244057E+02 -0.60368125914E+02 -0.30354466667E+03  0.31104264157E+03  0.41800000000E+01 0.  1.
        -11    1    1    2    0    0 -0.95132959961E+01  0.82049431281E+02 -0.29223117303E+03  0.30368021085E+03  0.00000000000E+00 0.  1.
         11    1    1    2    0    0  0.48973077544E+02 -0.15995144584E+01 -0.20538648731E+03  0.21115049121E+03  0.00000000000E+00 0. -1.
</event>
<event>
 7    1  0.2380582E-009  0.1040952E+03  0.7561462E-02  0.1271913E+00
          2   -1    0    0  501    0  0.00000000000E+00  0.00000000000E+00  0.29167868810E+03  0.29167868810E+03  0.00000000000E+00 0. -1.
         -2   -1    0    0    0  501 -0.00000000000E+00 -0.00000000000E+00 -0.44703537637E+02  0.44703537637E+02  0.00000000000E+00 0.  1.
         25    2    1    2    0    0  0.36695612662E+02 -0.27307421950E+01  0.13670040880E+03  0.18891226790E+03  0.12508724257E+03 0.  0.
          5    1    3    3  502    0 -0.39680850477E+02 -0.14441076936E+02  0.87409904643E+02  0.97165212023E+02  0.41800000000E+01 0. -1.
         -5    1    3    3    0  502  0.76376463139E+02  0.11710334741E+02  0.49290504158E+02  0.91747055874E+02  0.41800000000E+01 0. -1.
        -11    1    1    2    0    0  0.24101447767E+02  0.11918994423E+02  0.78563280502E+01  0.28011856471E+02  0.00000000000E+00 0.  1.
         11    1    1    2    0    0 -0.60797060429E+02 -0.91882522284E+01  0.10241841361E+03  0.11945810137E+03  0.00000000000E+00 0. -1.
</event>
<event>
 7    1  0.2380582E-009  0.1303076E+03  0.7561462E-02  0.1227000E+00
         -2   -1    0    0    0  501 -0.00000000000E+00  0.00000000000E+00  0.13836644024E+03  0.13836644024E+03  0.00000000000E+00 0.  1.
          2   -1    0    0  501    0  0.00000000000E+00 -0.00000000000E+00 -0.18073857064E+03  0.18073857064E+03  0.00000000000E+00 0. -1.
         25    2    1    2    0    0  0.88965189759E+02  0.23849049704E+02 -0.88043861839E+02  0.17855844832E+03  0.12509122950E+03 0.  0.
          5    1    3    3  502    0  0.88820028100E+01  0.44749596839E+02 -0.83888386276E+02  0.95583210571E+02  0.41800000000E+01 0.  1.
         -5    1    3    3    0  502  0.80083186949E+02 -0.20900547135E+02 -0.41554755637E+01  0.82975237750E+02  0.41800000000E+01 0.  1.
        -11    1    1    2    0    0  0.17014552704E+02 -0.19474760869E+02  0.15979376649E+02  0.30399042628E+02  0.00000000000E+00 0.  1.
         11    1    1    2    0    0 -0.10597974246E+03 -0.43742888347E+01  0.29692354792E+02  0.11014751994E+03  0.00000000000E+00 0. -1.
</event>
<event>
 7    1  0.2380582E-009  0.1543159E+03  0.7561462E-02  0.1195268E+00
         -2   -1    0    0    0  501 -0.00000000000E+00  0.00000000000E+00  0.16548353306E+03  0.16548353306E+03  0.00000000000E+00 0.  1.
          2   -1    0    0  501    0  0.00000000000E+00 -0.00000000000E+00 -0.19551594022E+03  0.19551594022E+03  0.00000000000E+00 0. -1.
         25    2    1    2    0    0 -0.11289028525E+03 -0.72226827280E+02  0.30254251219E+02  0.18581138354E+03  0.12509843906E+03 0.  0.
          5    1    3    3  502    0 -0.13137980629E+03 -0.58480644205E+02 -0.44607044717E+01  0.14393751954E+03  0.41800000000E+01 0.  1.
         -5    1    3    3    0  502  0.18489521046E+02 -0.13746183075E+02  0.34714955691E+02  0.41873863999E+02  0.41800000000E+01 0.  1.
        -11    1    1    2    0    0  0.87051511272E+02  0.30444978297E+02 -0.80164052115E+02  0.12219303405E+03  0.00000000000E+00 0. -1.
         11    1    1    2    0    0  0.25838773974E+02  0.41781848982E+02  0.19877393737E+02  0.52995055681E+02  0.00000000000E+00 0.  1.
</event>
<event>
 7    1  0.2380582E-009  0.1288279E+03  0.7561462E-02  0.1229205E+00
         -3   -1    0    0    0  501 -0.00000000000E+00  0.00000000000E+00  0.19503017353E+02  0.19503017353E+02  0.00000000000E+00 0.  1.
          3   -1    0    0  501    0  0.00000000000E+00 -0.00000000000E+00 -0.11843697919E+04  0.11843697919E+04  0.00000000000E+00 0. -1.
         25    2    1    2    0    0  0.51505607316E+02 -0.35341684276E+02 -0.78781741960E+03  0.80012813898E+03  0.12508752910E+03 0.  0.
          5    1    3    3  502    0  0.80459304469E+02 -0.22389918238E+02 -0.72326223832E+03  0.72808017820E+03  0.41800000000E+01 0.  1.
         -5    1    3    3    0  502 -0.28953697153E+02 -0.12951766038E+02 -0.64555181280E+02  0.72047960779E+02  0.41800000000E+01 0.  1.
        -11    1    1    2    0    0  0.25147311615E+02  0.57073550592E+02 -0.20215895454E+03  0.21156091407E+03  0.00000000000E+00 0. -1.
         11    1    1    2    0    0 -0.76652918930E+02 -0.21731866317E+02 -0.17489040037E+03  0.19218375617E+03  0.00000000000E+00 0.  1.
</event>
<event>
 7    1  0.2380582E-009  0.1160947E+03  0.7561462E-02  0.1249682E+00
          2   -1    0    0  501    0  0.00000000000E+00  0.00000000000E+00  0.46005437406E+03  0.46005437406E+03  0.00000000000E+00 0. -1.
         -2   -1    0    0    0  501 -0.00000000000E+00 -0.00000000000E+00 -0.41217462736E+02  0.41217462736E+02  0.00000000000E+00 0.  1.
         25    2    1    2    0    0 -0.30100385759E+02  0.66425743391E+02  0.29419922698E+03  0.32790104352E+03  0.12508995394E+03 0.  0.
          5    1    3    3  502    0  0.17886638448E+02 -0.19349981144E+02  0.12393834597E+02  0.29418245040E+02  0.41800000000E+01 0. -1.
         -5    1    3    3    0  502 -0.47987024207E+02  0.85775724535E+02  0.28180539238E+03  0.29848279848E+03  0.41800000000E+01 0. -1.
        -11    1    1    2    0    0 -0.25917351083E+02 -0.32781955852E+02  0.12561592195E+02  0.43636673970E+02  0.00000000000E+00 0.  1.
         11    1    1    2    0    0  0.56017736843E+02 -0.33643787538E+02  0.11207609215E+03  0.12973411931E+03  0.00000000000E+00 0. -1.
</event>
<event>
 7    1  0.2380582E-009  0.8630139E+02  0.7561462E-02  0.1312064E+00
         -2   -1    0    0    0  501 -0.00000000000E+00  0.00000000000E+00  0.56226021944E+02  0.56226021944E+02  0.00000000000E+00 0.  1.
          2   -1    0    0  501    0  0.00000000000E+00 -0.00000000000E+00 -0.27020491730E+03  0.27020491730E+03  0.00000000000E+00 0. -1.
         25    2    1    2    0    0  0.15083310142E+02  0.92908732043E+01 -0.19897384319E+03  0.23569305453E+03  0.12508716604E+03 0.  0.
          5    1    3    3  502    0 -0.52815542736E+02 -0.95593875263E+01 -0.10671796767E+03  0.11952849229E+03  0.41800000000E+01 0.  1.
         -5    1    3    3    0  502  0.67898852879E+02  0.18850260731E+02 -0.92255875520E+02  0.11616456224E+03  0.41800000000E+01 0.  1.
        -11    1    1    2    0    0  0.79692620425E+01  0.13552625961E+02  0.30811913841E+02  0.34591282753E+02  0.00000000000E+00 0.  1.
         11    1    1    2    0    0 -0.23052572185E+02 -0.22843499165E+02 -0.45816966000E+02  0.56146601962E+02  0.00000000000E+00 0. -1.
</event>
<event>
 7    1  0.2380582E-009  0.9599522E+02  0.7561462E-02  0.1288950E+00
         -2   -1    0    0    0  501 -0.00000000000E+00  0.00000000000E+00  0.25224867040E+02  0.25224867040E+02  0.00000000000E+00 0.  1.
          2   -1    0    0  501    0  0.00000000000E+00 -0.00000000000E+00 -0.65281450821E+03  0.65281450821E+03  0.00000000000E+00 0. -1.
         25    2    1    2    0    0 -0.17442940118E+02 -0.65460526951E+02 -0.31358576926E+03  0.34434370907E+03  0.12508884260E+03 0.  0.
          5    1    3    3  502    0 -0.23379745830E+02 -0.67541613484E+02 -0.32381085395E+03  0.33163145750E+03  0.41800000000E+01 0.  1.
         -5    1    3    3    0  502  0.59368057118E+01  0.20810865330E+01  0.10225084686E+02  0.12712251573E+02  0.41800000000E+01 0.  1.
        -11    1    1    2    0    0 -0.36522578802E+02  0.36334167450E+02 -0.13661306715E+03  0.14600411159E+03  0.00000000000E+00 0.  1.
         11    1    1    2    0    0  0.53965518920E+02  0.29126359501E+02 -0.17739080476E+03  0.18769155458E+03  0.00000000000E+00 0. -1.
</event>
<event>
 7    1  0.2380582E-009  0.1537063E+03  0.7561462E-02  0.1195991E+00
          2   -1    0    0  501    0  0.00000000000E+00  0.00000000000E+00  0.23465056133E+03  0.23465056133E+03  0.00000000000E+00 0. -1.
         -2   -1    0    0    0  501 -0.00000000000E+00 -0.00000000000E+00 -0.12107390060E+03  0.12107390060E+03  0.00000000000E+00 0.  1.
         25    2    1    2    0    0  0.21610205731E+02  0.12656318169E+03  0.80151362938E+02  0.19636281813E+03  0.12509546518E+03 0.  0.
          5    1    3    3  502    0  0.53230898390E+02  0.54661449075E+02 -0.96087030305E+01  0.77014298233E+02  0.41800000000E+01 0. -1.
         -5    1    3    3    0  502 -0.31620692659E+02  0.71901732619E+02  0.89760065969E+02  0.11934851989E+03  0.41800000000E+01 0. -1.
        -11    1    1    2    0    0  0.15047285166E+02  0.49298572747E+01 -0.65290403792E+01  0.17127540742E+02  0.00000000000E+00 0.  1.
         11    1    1    2    0    0 -0.36657490896E+02 -0.13149303897E+03  0.39954338165E+02  0.14223410306E+03  0.00000000000E+00 0. -1.
</event>
<event>
 7    1  0.2380582E-009  0.1555515E+03  0.7561462E-02  0.1193813E+00
         -2   -1    0    0    0  501 -0.00000000000E+00  0.00000000000E+00  0.35785435185E+03  0.35785435185E+03  0.00000000000E+00 0.  1.
          2   -1    0    0  501    0  0.00000000000E+00 -0.00000000000E+00 -0.13477990183E+03  0.13477990183E+03  0.00000000000E+00 0. -1.
         25    2    1    2    0    0  0.61973872145E+02  0.10175372340E+03  0.28240791147E+03  0.33105345314E+03  0.12509028468E+03 0.  0.
          5    1    3    3  502    0  0.26847293260E+02  0.12122701326E+03  0.25040301354E+03  0.27952800842E+03  0.41800000000E+01 0.  1.
         -5    1    3    3    0  502  0.35126578885E+02 -0.19473289865E+02  0.32004897938E+02  0.51525444728E+02  0.41800000000E+01 0.  1.
        -11    1    1    2    0    0  0.12069504150E+02 -0.60572530053E+02 -0.73981380888E+01  0.62204797039E+02  0.00000000000E+00 0.  1.
         11    1    1    2    0    0 -0.74043376295E+02 -0.41181193347E+02 -0.51935323361E+02  0.99376003498E+02  0.00000000000E+00 0. -1.
</event>
<event>
 7    1  0.2380582E-009  0.1167164E+03  0.7561462E-02  0.1248614E+00
         -2   -1    0    0    0  501 -0.00000000000E+00  0.00000000000E+00  0.88181559660E+02  0.88181559660E+02  0.00000000000E+00 0.  1.
          2   -1    0    0  501    0  0.00000000000E+00 -0.00000000000E+00 -0.21782380059E+03  0.21782380059E+03  0.00000000000E+00 0. -1.
         25    2    1    2    0    0 -0.77312959457E+02 -0.22848710954E+02 -0.11136738225E+03  0.18587261385E+03  0.12508628005E+03 0.  0.
          5    1    3    3  502    0 -0.10884669647E+03 -0.26804719762E+01 -0.68022218282E+02  0.12844953423E+03  0.41800000000E+01 0. -1.
         -5    1    3    3    0  502  0.31533737016E+02 -0.20168238978E+02 -0.43345163968E+02  0.57423079621E+02  0.41800000000E+01 0. -1.
        -11    1    1    2    0    0  0.50661204440E+02  0.30432110816E+02 -0.50426182447E+02  0.77688293070E+02  0.00000000000E+00 0. -1.
         11    1    1    2    0    0  0.26651755017E+02 -0.75833998617E+01  0.32151323765E+02  0.42444453334E+02  0.00000000000E+00 0.  1.
</event>
<event>
 7    1  0.2380582E-009  0.1561847E+03  0.7561462E-02  0.1193073E+00
          1   -1    0    0  501    0  0.00000000000E+00  0.00000000000E+00  0.11756153699E+03  0.11756153699E+03  0.00000000000E+00 0. -1.
         -1   -1    0    0    0  501 -0.00000000000E+00 -0.00000000000E+00 -0.42264233993E+03  0.42264233993E+03  0.00000000000E+00 0.  1.
         25    2    1    2    0    0  0.15009692188E+02 -0.13534481032E+03 -0.32652930603E+03  0.37525094268E+03  0.12509346004E+03 0.  0.
          5    1    3    3  502    0  0.28121889633E+02 -0.13200121475E+03 -0.33325580180E+03  0.35957205565E+03  0.41800000000E+01 0. -1.
         -5    1    3    3    0  502 -0.13112197446E+02 -0.33435955679E+01  0.67264957680E+01  0.15678887030E+02  0.41800000000E+01 0. -1.
        -11    1    1    2    0    0 -0.52683983139E+02  0.68111098770E+02  0.57486098631E+01  0.86300465644E+02  0.00000000000E+00 0.  1.
         11    1    1    2    0    0  0.37674290951E+02  0.67233711547E+02  0.15699893230E+02  0.78652468585E+02  0.00000000000E+00 0. -1.
</event>
<event>
 7    1  0.2380582E-009  0.1189210E+03  0.7561462E-02  0.1244888E+00
         -2   -1    0    0    0  501 -0.00000000000E+00  0.00000000000E+00  0.12624533537E+03  0.12624533537E+03  0.00000000000E+00 0.  1.
          2   -1    0    0  501    0  0.00000000000E+00 -0.00000000000E+00 -0.19703377612E+03  0.19703377612E+03  0.00000000000E+00 0. -1.
         25    2    1    2    0    0 -0.34849570595E+02 -0.69106108164E+02  0.41946228616E+02  0.15294978614E+03  0.12507599381E+03 0.  0.
          5    1    3    3  502    0  0.36410431070E+02  0.91109372382E+01  0.26030851242E+02  0.45867268116E+02  0.41800000000E+01 0. -1.
         -5    1    3    3    0  502 -0.71260001665E+02 -0.78217045402E+02  0.15915377375E+02  0.10708251802E+03  0.41800000000E+01 0. -1.
        -11    1    1    2    0    0  0.15189109650E+02 -0.61611075738E+01  0.14044949798E+02  0.21585386569E+02  0.00000000000E+00 0.  1.
         11    1    1    2    0    0  0.19660460945E+02  0.75267215737E+02 -0.12677961916E+03  0.14874393878E+03  0.00000000000E+00 0. -1.
</event>
<event>
 7    1  0.2380582E-009  0.1638728E+03  0.7561462E-02  0.1184392E+00
          1   -1    0    0  501    0  0.00000000000E+00  0.00000000000E+00  0.77157873190E+03  0.77157873190E+03  0.00000000000E+00 0. -1.
         -1   -1    0    0    0  501 -0.00000000000E+00 -0.00000000000E+00 -0.38724108414E+02  0.38724108414E+02  0.00000000000E+00 0.  1.
         25    2    1    2    0    0 -0.11203494930E+03  0.69170309660E+02  0.45429791803E+03  0.48925557436E+03  0.12509219442E+03 0.  0.
          5    1    3    3  502    0 -0.76063962319E+02  0.10465380368E+03  0.29681816907E+03  0.32381575452E+03  0.41800000000E+01 0.  1.
         -5    1    3    3    0  502 -0.35970986981E+02 -0.35483494019E+02  0.15747974897E+03  0.16543981983E+03  0.41800000000E+01 0.  1.
        -11    1    1    2    0    0  0.76228343210E+02 -0.79002005617E+01  0.20491473491E+03  0.21877664880E+03  0.00000000000E+00 0. -1.
         11    1    1    2    0    0  0.35806606090E+02 -0.61270109098E+02  0.73641970542E+02  0.10227061716E+03  0.00000000000E+00 0.  1.
</event>
<event>
 7    1  0.2380582E-009  0.2509290E+03  0.7561462E-02  0.1112719E+00
         -1   -1    0    0    0  501 -0.00000000000E+00  0.00000000000E+00  0.19171309666E+03  0.19171309666E+03  0.00000000000E+00 0.  1.
          1   -1    0    0  501    0  0.00000000000E+00 -0.00000000000E+00 -0.47549992192E+03  0.47549992192E+03  0.00000000000E+00 0. -1.
         25    2    1    2    0    0 -0.56330339503E+01  0.24302618678E+03 -0.30127280080E+03  0.40682321752E+03  0.12508545590E+03 0.  0.
          5    1    3    3  502    0 -0.44130360325E+02  0.16991879270E+03 -0.26159582549E+03  0.31507099697E+03  0.41800000000E+01 0. -1.
         -5    1    3    3    0  502  0.38497326375E+02  0.73107394078E+02 -0.39676975314E+02  0.91752220556E+02  0.41800000000E+01 0. -1.
        -11    1    1    2    0    0  0.78984847256E+01 -0.64481118397E+02  0.45956132997E+02  0.79574913451E+02  0.00000000000E+00 0.  1.
         11    1    1    2    0    0 -0.22654507753E+01 -0.17854506839E+03 -0.28470157452E+02  0.18081488760E+03  0.00000000000E+00 0. -1.
</event>
<event>
 7    1  0.2380582E-009  0.1667134E+03  0.7561462E-02  0.1181319E+00
          2   -1    0    0  501    0  0.00000000000E+00  0.00000000000E+00  0.50563421959E+03  0.50563421959E+03  0.00000000000E+00 0. -1.
         -2   -1    0    0    0  501 -0.00000000000E+00 -0.00000000000E+00 -0.66322228080E+02  0.66322228080E+02  0.00000000000E+00 0.  1.
         25    2    1    2    0    0 -0.57740079858E+02 -0.14465790685E+03  0.20811113961E+03  0.28847453415E+03  0.12508990201E+03 0.  0.
          5    1    3    3  502    0  0.16303585036E+02 -0.60681024044E+02  0.14908904084E+03  0.16184254095E+03  0.41800000000E+01 0. -1.
         -5    1    3    3    0  502 -0.74043664894E+02 -0.83976882811E+02  0.59022098772E+02  0.12663199320E+03  0.41800000000E+01 0. -1.
        -11    1    1    2    0    0  0.16605185707E+02  0.14946237030E+02  0.11691145779E+02  0.25215175656E+02  0.00000000000E+00 0. -1.
         11    1    1    2    0    0  0.41134894151E+02  0.12971166983E+03  0.21950970612E+03  0.25826673786E+03  0.00000000000E+00 0.  1.
</event>
<event>
 7    1  0.2380582E-009  0.1087329E+03  0.7561462E-02  0.1262935E+00
          2   -1    0    0  501    0  0.00000000000E+00  0.00000000000E+00  0.21906742143E+03  0.21906742143E+03  0.00000000000E+00 0. -1.
         -2   -1    0    0    0  501 -0.00000000000E+00 -0.00000000000E+00 -0.73633322126E+02  0.73633322126E+02  0.00000000000E+00 0.  1.
         25    2    1    2    0    0 -0.36875969099E+02 -0.12586169574E+02  0.15143682540E+03  0.20024700345E+03  0.12508997380E+03 0.  0.
          5    1    3    3  502    0 -0.97769097998E+01 -0.67787032965E+02  0.90527686630E+02  0.11359315230E+03  0.41800000000E+01 0. -1.
         -5    1    3    3    0  502 -0.27099059300E+02  0.55200863391E+02  0.60909138767E+02  0.86653851151E+02  0.41800000000E+01 0. -1.
        -11    1    1    2    0    0  0.48992789300E+02 -0.19641879467E+02 -0.18340934409E+02  0.55879215344E+02  0.00000000000E+00 0.  1.
         11    1    1    2    0    0 -0.12116820201E+02  0.32228049041E+02  0.12338208313E+02  0.36574524756E+02  0.00000000000E+00 0. -1.
</event>
<event>
 7    1  0.2380582E-009  0.1159832E+03  0.7561462E-02  0.1249875E+00
          1   -1    0    0  501    0  0.00000000000E+00  0.00000000000E+00  0.11520289186E+04  0.11520289186E+04  0.00000000000E+00 0. -1.
         -1   -1    0    0    0  501 -0.00000000000E+00 -0.00000000000E+00 -0.17296531432E+02  0.17296531432E+02  0.00000000000E+00 0.  1.
         25    2    1    2    0    0 -0.66110439181E+02  0.59421458690E+02  0.53708920259E+03  0.55858250102E+03  0.12509236180E+03 0.  0.
          5    1    3    3  502    0 -0.77418635540E+02  0.52314039889E+02  0.53648226684E+03  0.54457423639E+03  0.41800000000E+01 0. -1.
         -5    1    3    3    0  502  0.11308196358E+02  0.71074188008E+01  0.60693574611E+00  0.14008264628E+02  0.41800000000E+01 0. -1.
        -11    1    1    2    0    0  0.71022642965E+02 -0.65301724877E+01  0.38612524073E+03  0.39265705201E+03  0.00000000000E+00 0. -1.
         11    1    1    2    0    0 -0.49122037841E+01 -0.52891286202E+02  0.21151794382E+03  0.21808589698E+03  0.00000000000E+00 0.  1.
</event>
<event>
 7    1  0.2380582E-009  0.1116765E+03  0.7561462E-02  0.1257496E+00
          2   -1    0    0  501    0  0.00000000000E+00  0.00000000000E+00  0.45014573466E+03  0.45014573466E+03  0.00000000000E+00 0. -1.
         -2   -1    0    0    0  501 -0.00000000000E+00 -0.00000000000E+00 -0.49041742686E+02  0.49041742686E+02  0.00000000000E+00 0.  1.
         25    2    1    2    0    0 -0.70885034276E+00 -0.75519834104E+02  0.32639632760E+03  0.35761106142E+03  0.12508941107E+03 0.  0.
          5    1    3    3  502    0  0.21047146500E+02  0.30640631919E+02  0.93414539614E+02  0.10062593757E+03  0.41800000000E+01 0.  1.
         -5    1    3    3    0  502 -0.21755996843E+02 -0.10616046602E+03  0.23298178799E+03  0.25698512385E+03  0.41800000000E+01 0.  1.
        -11    1    1    2    0    0  0.69368740047E+01  0.13608404599E+02 -0.21878021184E+02  0.26682516891E+02  0.00000000000E+00 0.  1.
         11    1    1    2    0    0 -0.62280236619E+01  0.61911429505E+02  0.96585685550E+02  0.11489389903E+03  0.00000000000E+00 0. -1.
</event>
<event>
 7    1  0.2380582E-009  0.1342805E+03  0.7561462E-02  0.1221239E+00
         -2   -1    0    0    0  501 -0.00000000000E+00  0.00000000000E+00  0.98998123328E+02  0.98998123328E+02  0.00000000000E+00 0.  1.
          2   -1    0    0  501    0  0.00000000000E+00 -0.00000000000E+00 -0.18342271781E+03  0.18342271781E+03  0.00000000000E+00 0. -1.
         25    2    1    2    0    0 -0.79800575306E+02  0.83362037050E+01 -0.39343769544E+02  0.15373264207E+03  0.12509264137E+03 0.  0.
          5    1    3    3  502    0 -0.96916371327E+02 -0.33588237767E+02 -0.21519320382E+02  0.10488806556E+03  0.41800000000E+01 0. -1.
         -5    1    3    3    0  502  0.17115796021E+02  0.41924441472E+02 -0.17824449161E+02  0.48844576507E+02  0.41800000000E+01 0. -1.
        -11    1    1    2    0    0  0.49770671245E+02 -0.49022619266E+02 -0.28804404239E+02  0.75564744554E+02  0.00000000000E+00 0.  1.
         11    1    1    2    0    0  0.30029904060E+02  0.40686415561E+02 -0.16276420703E+02  0.53123454519E+02  0.00000000000E+00 0. -1.
</event>
<event>
 7    1  0.2380582E-009  0.1116886E+03  0.7561462E-02  0.1257474E+00
          1   -1    0    0  501    0  0.00000000000E+00  0.00000000000E+00  0.83498810447E+03  0.83498810447E+03  0.00000000000E+00 0. -1.
         -1   -1    0    0    0  501 -0.00000000000E+00 -0.00000000000E+00 -0.32915450823E+02  0.32915450823E+02  0.00000000000E+00 0.  1.
         25    2    1    2    0    0 -0.45351157749E+02 -0.85592823067E+02  0.63874259574E+03  0.65804456195E+03  0.12509069917E+03 0.  0.
          5    1    3    3  502    0 -0.61765999444E+02 -0.71515718247E+02  0.22975032488E+03  0.24845969658E+03  0.41800000000E+01 0. -1.
         -5    1    3    3    0  502  0.16414841694E+02 -0.14077104820E+02  0.40899227086E+03  0.40958486536E+03  0.41800000000E+01 0. -1.
        -11    1    1    2    0    0 -0.88459630611E+01  0.18576109056E+02  0.10205500769E+03  0.10410834494E+03  0.00000000000E+00 0. -1.
         11    1    1    2    0    0  0.54197120811E+02  0.67016714011E+02  0.61275050211E+02  0.10575064841E+03  0.00000000000E+00 0.  1.
</event>
<event>
 7    1  0.2380582E-009  0.9449810E+02  0.7561462E-02  0.1292310E+00
         -1   -1    0    0    0  501 -0.00000000000E+00  0.00000000000E+00  0.68575388131E+02  0.68575388131E+02  0.00000000000E+00 0. -1.
          1   -1    0    0  501    0  0.00000000000E+00 -0.00000000000E+00 -0.18069468433E+03  0.18069468433E+03  0.00000000000E+00 0.  1.
         25    2    1    2    0    0 -0.13813755228E+02  0.34217443953E+01 -0.41314094896E+02  0.13250243799E+03  0.12509002146E+03 0.  0.
          5    1    3    3  502    0  0.34206968028E+02 -0.26823521801E+02  0.20707015638E+02  0.48330848121E+02  0.41800000000E+01 0.  1.
         -5    1    3    3    0  502 -0.48020723256E+02  0.30245266196E+02 -0.62021110534E+02  0.84171589870E+02  0.41800000000E+01 0.  1.
        -11    1    1    2    0    0  0.29905712162E+02  0.35432258044E+02 -0.19167598443E+02  0.50171639002E+02  0.00000000000E+00 0.  1.
         11    1    1    2    0    0 -0.16091956934E+02 -0.38854002440E+02 -0.51637602860E+02  0.66595995471E+02  0.00000000000E+00 0. -1.
</event>
<event>
 7    1  0.2380582E-009  0.1819207E+03  0.7561462E-02  0.1165957E+00
          1   -1    0    0  501    0  0.00000000000E+00  0.00000000000E+00  0.30583743498E+03  0.30583743498E+03  0.00000000000E+00 0. -1.
         -1   -1    0    0    0  501 -0.00000000000E+00 -0.00000000000E+00 -0.14212889358E+03  0.14212889358E+03  0.00000000000E+00 0.  1.
         25    2    1    2    0    0  0.17075657570E+03 -0.44399928956E+02  0.11656052072E+03  0.24568823671E+03  0.12508873982E+03 0.  0.
          5    1    3    3  502    0  0.50676939273E+02 -0.30779700942E+02  0.10946100025E+03  0.12455811953E+03  0.41800000000E+01 0.  1.
         -5    1    3    3    0  502  0.12007963643E+03 -0.13620228014E+02  0.70995204641E+01  0.12113011718E+03  0.41800000000E+01 0.  1.
        -11    1    1    2    0    0 -0.46146512628E+02 -0.10478494183E+02 -0.18886650092E+02  0.50951006072E+02  0.00000000000E+00 0.  1.
         11    1    1    2    0    0 -0.12461006308E+03  0.54878423139E+02  0.66034670775E+02  0.15132708578E+03  0.00000000000E+00 0. -1.
</event>
<event>
 7    1  0.2380582E-009  0.1047887E+03  0.7561462E-02  0.1270537E+00
          2   -1    0    0  501    0  0.00000000000E+00  0.00000000000E+00  0.36918086438E+03  0.36918086438E+03  0.00000000000E+00 0.  1.
         -2   -1    0    0    0  501 -0.00000000000E+00 -0.00000000000E+00 -0.52932002994E+02  0.52932002994E+02  0.00000000000E+00 0. -1.
         25    2    1    2    0    0  0.31583815948E+02 -0.77057845186E+02  0.22228232338E+03  0.26831282937E+03  0.12508754607E+03 0.  0.
          5    1    3    3  502    0  0.28618462871E+01  0.87290974903E+01 -0.12851708173E+02  0.16340933576E+02  0.41800000000E+01 0. -1.
         -5    1    3    3    0  502  0.28721969661E+02 -0.85786942676E+02  0.23513403156E+03  0.25197189580E+03  0.41800000000E+01 0. -1.
        -11    1    1    2    0    0 -0.26474762306E+02 -0.47977599023E+01 -0.26861103751E+01  0.27039725003E+02  0.00000000000E+00 0. -1.
         11    1    1    2    0    0 -0.51090536415E+01  0.81855605088E+02  0.96652648378E+02  0.12676031300E+03  0.00000000000E+00 0.  1.
</event>
<event>
 7    1  0.2380582E-009  0.1871295E+03  0.7561462E-02  0.1161076E+00
          1   -1    0    0  501    0  0.00000000000E+00  0.00000000000E+00  0.77948558794E+02  0.77948558794E+02  0.00000000000E+00 0. -1.
         -1   -1    0    0    0  501 -0.00000000000E+00 -0.00000000000E+00 -0.56671992269E+03  0.56671992269E+03  0.00000000000E+00 0.  1.
         25    2    1    2    0    0  0.30809510648E+02  0.17223231929E+03 -0.31235181291E+03  0.37924025962E+03  0.12508525786E+03 0.  0.
          5    1    3    3  502    0  0.43509592807E+02  0.17330510239E+03 -0.31792029926E+03  0.36471705782E+03  0.41800000000E+01 0. -1.
         -5    1    3    3    0  502 -0.12700082159E+02 -0.10727831013E+01  0.55684863494E+01  0.14523201804E+02  0.41800000000E+01 0. -1.
        -11    1    1    2    0    0 -0.29956584621E+02 -0.40483073632E+02 -0.70568187787E+01  0.50853465015E+02  0.00000000000E+00 0. -1.
         11    1    1    2    0    0 -0.85292602729E+00 -0.13174924566E+03 -0.16936273220E+03  0.21457475684E+03  0.00000000000E+00 0.  1.
</event>
<event>
 7    1  0.2380582E-009  0.2515367E+03  0.7561462E-02  0.1112338E+00
         -2   -1    0    0    0  501 -0.00000000000E+00  0.00000000000E+00  0.22004591657E+04  0.22004591657E+04  0.00000000000E+00 0.  1.
          2   -1    0    0  501    0  0.00000000000E+00 -0.00000000000E+00 -0.37202632042E+02  0.37202632042E+02  0.00000000000E+00 0. -1.
         25    2    1    2    0    0  0.24433633581E+03  0.87492854211E+01  0.14974131591E+04  0.15223894112E+04  0.12508619149E+03 0.  0.
          5    1    3    3  502    0  0.18158143194E+03  0.49110838893E+01  0.72540395287E+03  0.74781301299E+03  0.41800000000E+01 0.  1.
         -5    1    3    3    0  502  0.62754903878E+02  0.38382015318E+01  0.77200920624E+03  0.77457639821E+03  0.41800000000E+01 0.  1.
        -11    1    1    2    0    0 -0.44316178479E+02  0.31456417308E+02  0.18798654526E+03  0.19568436592E+03  0.00000000000E+00 0.  1.
         11    1    1    2    0    0 -0.20002015734E+03 -0.40205702729E+02  0.47785682934E+03  0.51958802066E+03  0.00000000000E+00 0. -1.
</event>
<event>
 7    1  0.2380582E-009  0.7512508E+02  0.7561462E-02  0.1343484E+00
         -2   -1    0    0    0  501 -0.00000000000E+00  0.00000000000E+00  0.45150191695E+03  0.45150191695E+03  0.00000000000E+00 0.  1.
          2   -1    0    0  501    0  0.00000000000E+00 -0.00000000000E+00 -0.31927594628E+02  0.31927594628E+02  0.00000000000E+00 0. -1.
         25    2    1    2    0    0  0.14732207640E+02 -0.85178572760E+01  0.33301044015E+03  0.35613676713E+03  0.12509137387E+03 0.  0.
          5    1    3    3  502    0 -0.84542197055E+00  0.24767530145E+02  0.44767945757E+01  0.25527619894E+02  0.41800000000E+01 0.  1.
         -5    1    3    3    0  502  0.15577629611E+02 -0.33285387421E+02  0.32853364558E+03  0.33060914724E+03  0.41800000000E+01 0.  1.
        -11    1    1    2    0    0  0.10418491193E+02 -0.35739135963E+02  0.58008696775E+02  0.68926335313E+02  0.00000000000E+00 0.  1.
         11    1    1    2    0    0 -0.25150698833E+02  0.44256993239E+02  0.28555185394E+02  0.58366409134E+02  0.00000000000E+00 0. -1.
</event>
<event>
 7    1  0.2380582E-009  0.9715970E+02  0.7561462E-02  0.1286385E+00
          1   -1    0    0  501    0  0.00000000000E+00  0.00000000000E+00  0.13573291870E+03  0.13573291870E+03  0.00000000000E+00 0. -1.
         -1   -1    0    0    0  501 -0.00000000000E+00 -0.00000000000E+00 -0.16082359778E+03  0.16082359778E+03  0.00000000000E+00 0.  1.
         25    2    1    2    0    0 -0.58137926409E+01 -0.31750894724E+02  0.78417014292E+02  0.15112436673E+03  0.12508967419E+03 0.  0.
          5    1    3    3  502    0  0.24008212874E+02  0.40556915338E+02  0.12990302489E+02  0.49066057778E+02  0.41800000000E+01 0. -1.
         -5    1    3    3    0  502 -0.29822005515E+02 -0.72307810062E+02  0.65426711803E+02  0.10205830895E+03  0.41800000000E+01 0. -1.
        -11    1    1    2    0    0  0.14943027259E+01 -0.18339406196E+02  0.10247987811E+02  0.21061529252E+02  0.00000000000E+00 0. -1.
         11    1    1    2    0    0  0.43194899150E+01  0.50090300921E+02 -0.11375568118E+03  0.12437062049E+03  0.00000000000E+00 0.  1.
</event>
<event>
 7    1  0.2380582E-009  0.1083078E+03  0.7561462E-02  0.1263736E+00
         -2   -1    0    0    0  501 -0.00000000000E+00  0.00000000000E+00  0.18433487722E+02  0.18433487722E+02  0.00000000000E+00 0.  1.
          2   -1    0    0  501    0  0.00000000000E+00 -0.00000000000E+00 -0.93706384119E+03  0.93706384119E+03  0.00000000000E+00 0. -1.
         25    2    1    2    0    0 -0.39106084757E+02 -0.43359156931E+02 -0.67379821788E+03  0.68779488885E+03  0.12509383821E+03 0.  0.
          5    1    3    3  502    0  0.34236297395E+02 -0.21645422576E+02 -0.43748304873E+03  0.43937403053E+03  0.41800000000E+01 0.  1.
         -5    1    3    3    0  502 -0.73342382152E+02 -0.21713734355E+02 -0.23631516915E+03  0.24842085832E+03  0.41800000000E+01 0.  1.
        -11    1    1    2    0    0  0.56213677792E+02  0.54964436464E+02 -0.13743085233E+03  0.15832973826E+03  0.00000000000E+00 0.  1.
         11    1    1    2    0    0 -0.17107593035E+02 -0.11605279533E+02 -0.10740128327E+03  0.10937270180E+03  0.00000000000E+00 0. -1.
</event>
<event>
 7    1  0.2380582E-009  0.8712633E+02  0.7561462E-02  0.1309964E+00
          1   -1    0    0  501    0  0.00000000000E+00  0.00000000000E+00  0.59406792633E+03  0.59406792633E+03  0.00000000000E+00 0. -1.
         -1   -1    0    0    0  501 -0.00000000000E+00 -0.00000000000E+00 -0.23520103743E+02  0.23520103743E+02  0.00000000000E+00 0.  1.
         25    2    1    2    0    0 -0.31009828978E+02  0.38797447719E+02  0.31918174392E+03  0.34639998966E+03  0.12509642578E+03 0.  0.
          5    1    3    3  502    0  0.82183902882E+01  0.34177932859E+02  0.30037320140E+03  0.30245198884E+03  0.41800000000E+01 0.  1.
         -5    1    3    3    0  502 -0.39228219266E+02  0.46195148599E+01  0.18808542518E+02  0.43948000819E+02  0.41800000000E+01 0.  1.
        -11    1    1    2    0    0  0.50410244293E+02  0.55625787704E+01  0.97765004357E+02  0.11013687434E+03  0.00000000000E+00 0.  1.
         11    1    1    2    0    0 -0.19400415314E+02 -0.44360026489E+02  0.15360107432E+03  0.16105116608E+03  0.00000000000E+00 0. -1.
</event>
<event>
 7    1  0.2380582E-009  0.1253037E+03  0.7561462E-02  0.1234595E+00
         -2   -1    0    0    0  501 -0.00000000000E+00  0.00000000000E+00  0.12239206198E+03  0.12239206198E+03  0.00000000000E+00 0. -1.
          2   -1    0    0  501    0  0.00000000000E+00 -0.00000000000E+00 -0.25753797078E+03  0.25753797078E+03  0.00000000000E+00 0.  1.
         25    2    1    2    0    0 -0.72669098415E+01 -0.11791349728E+03 -0.15113566437E+03  0.22901182537E+03  0.12509207126E+03 0.  0.
          5    1    3    3  502    0  0.85812063671E+01 -0.11247665351E+03 -0.45063959418E+02  0.12154368567E+03  0.41800000000E+01 0. -1.
         -5    1    3    3    0  502 -0.15848116209E+02 -0.54368437691E+01 -0.10607170496E+03  0.10746813970E+03  0.41800000000E+01 0. -1.
        -11    1    1    2    0    0  0.15593847880E+02  0.89548776415E+02 -0.30455763151E+02  0.95862948829E+02  0.00000000000E+00 0. -1.
         11    1    1    2    0    0 -0.83269380384E+01  0.28364720865E+02  0.46445518716E+02  0.55055258565E+02  0.00000000000E+00 0.  1.
</event>
<event>
 7    1  0.2380582E-009  0.1236168E+03  0.7561462E-02  0.1237247E+00
         -2   -1    0    0    0  501 -0.00000000000E+00  0.00000000000E+00  0.58011873518E+02  0.58011873518E+02  0.00000000000E+00 0. -1.
          2   -1    0    0  501    0  0.00000000000E+00 -0.00000000000E+00 -0.32505334531E+03  0.32505334531E+03  0.00000000000E+00 0.  1.
         25    2    1    2    0    0  0.42890818136E+02  0.72655474878E+02 -0.15574178039E+03  0.21684351359E+03  0.12508863624E+03 0.  0.
          5    1    3    3  502    0 -0.15650289362E+02  0.64625080877E+02 -0.21327005260E+02  0.69954600913E+02  0.41800000000E+01 0.  1.
         -5    1    3    3    0  502  0.58541107498E+02  0.80303940004E+01 -0.13441477513E+03  0.14688891268E+03  0.41800000000E+01 0.  1.
        -11    1    1    2    0    0 -0.32154867321E+02  0.13265047747E+02 -0.18882417091E+02  0.39578310466E+02  0.00000000000E+00 0. -1.
         11    1    1    2    0    0 -0.10735950815E+02 -0.85920522625E+02 -0.92417274314E+02  0.12664339477E+03  0.00000000000E+00 0.  1.
</event>
<event>
 7    1  0.2380582E-009  0.2650100E+03  0.7561462E-02  0.1104170E+00
         -1   -1    0    0    0  501 -0.00000000000E+00  0.00000000000E+00  0.19580077478E+03  0.19580077478E+03  0.00000000000E+00 0.  1.
          1   -1    0    0  501    0  0.00000000000E+00 -0.00000000000E+00 -0.40493289269E+03  0.40493289269E+03  0.00000000000E+00 0. -1.
         25    2    1    2    0    0 -0.62134262337E+02  0.23968974375E+03 -0.27190397381E+02  0.27874839523E+03  0.12509800285E+03 0.  0.
          5    1    3    3  502    0  0.29527468439E+02  0.12722778322E+03  0.20277061481E+01  0.13069186741E+03  0.41800000000E+01 0.  1.
         -5    1    3    3    0  502 -0.91661730776E+02  0.11246196053E+03 -0.29218103529E+02  0.14805652782E+03  0.41800000000E+01 0.  1.
        -11    1    1    2    0    0 -0.10832581885E+02 -0.44983768896E+02 -0.75107802365E+02  0.88216020487E+02  0.00000000000E+00 0. -1.
         11    1    1    2    0    0  0.72966844223E+02 -0.19470597485E+03 -0.10683391817E+03  0.23376925176E+03  0.00000000000E+00 0.  1.
</event>
<event>
 7    1  0.2380582E-009  0.2822073E+03  0.7561462E-02  0.1094489E+00
          3   -1    0    0  501    0  0.00000000000E+00  0.00000000000E+00  0.52473395353E+03  0.52473395353E+03  0.00000000000E+00 0. -1.
         -3   -1    0    0    0  501 -0.00000000000E+00 -0.00000000000E+00 -0.16511063725E+03  0.16511063725E+03  0.00000000000E+00 0.  1.
         25    2    1    2    0    0  0.16829134997E+03  0.20974719711E+03  0.24117038382E+03  0.38226456156E+03  0.12508867185E+03 0.  0.
          5    1    3    3  502    0  0.15464096464E+03  0.98623704932E+02  0.16539245397E+03  0.24700728602E+03  0.41800000000E+01 0.  1.
         -5    1    3    3    0  502  0.13650385329E+02  0.11112349218E+03  0.75777929849E+02  0.13525727554E+03  0.41800000000E+01 0.  1.
        -11    1    1    2    0    0 -0.13895530356E+02 -0.17605561368E+02 -0.15290717200E+02  0.27144936682E+02  0.00000000000E+00 0.  1.
         11    1    1    2    0    0 -0.15439581961E+03 -0.19214163574E+03  0.13374364966E+03  0.28043509253E+03  0.00000000000E+00 0. -1.
</event>
<event>
 7    1  0.2380582E-009  0.1092273E+03  0.7561462E-02  0.1262008E+00
          4   -1    0    0  501    0  0.00000000000E+00  0.00000000000E+00  0.18628704457E+03  0.18628704457E+03  0.00000000000E+00 0. -1.
         -4   -1    0    0    0  501 -0.00000000000E+00 -0.00000000000E+00 -0.73627437024E+02  0.73627437024E+02  0.00000000000E+00 0.  1.
         25    2    1    2    0    0  0.16912521783E+02  0.99841566461E+01  0.49007561947E+02  0.13577591167E+03  0.12509052836E+03 0.  0.
          5    1    3    3  502    0 -0.38464942047E+02  0.38713732736E+02  0.48678719850E+02  0.73248856887E+02  0.41800000000E+01 0.  1.
         -5    1    3    3    0  502  0.55377463830E+02 -0.28729576090E+02  0.32884209713E+00  0.62527054782E+02  0.41800000000E+01 0.  1.
        -11    1    1    2    0    0  0.40350628383E+02  0.80762876696E+01  0.45637584241E+02  0.61450701613E+02  0.00000000000E+00 0. -1.
         11    1    1    2    0    0 -0.57263150167E+02 -0.18060444316E+02  0.18014461363E+02  0.62687868317E+02  0.00000000000E+00 0.  1.
</event>
<event>
 7    1  0.2380582E-009  0.1304988E+03  0.7561462E-02  0.1226717E+00
          4   -1    0    0  501    0  0.00000000000E+00  0.00000000000E+00  0.28359481390E+03  0.28359481390E+03  0.00000000000E+00 0. -1.
         -4   -1    0    0    0  501 -0.00000000000E+00 -0.00000000000E+00 -0.69623373003E+02  0.69623373003E+02  0.00000000000E+00 0.  1.
         25    2    1    2    0    0 -0.12772216542E+02 -0.79900600485E+02  0.16925782378E+03  0.22548392009E+03  0.12509017481E+03 0.  0.
          5    1    3    3  502    0  0.48501215695E+02 -0.38734464829E+01  0.76377342836E+02  0.90655073826E+02  0.41800000000E+01 0. -1.
         -5    1    3    3    0  502 -0.61273432237E+02 -0.76027154002E+02  0.92880480946E+02  0.13482884626E+03  0.41800000000E+01 0. -1.
        -11    1    1    2    0    0 -0.28866940813E+02  0.63356509676E+02  0.85314113893E+01  0.70143656666E+02  0.00000000000E+00 0.  1.
         11    1    1    2    0    0  0.41639157355E+02  0.16544090809E+02  0.36182205722E+02  0.57590610145E+02  0.00000000000E+00 0. -1.
</event>
<event>
 7    1  0.2380582E-009  0.1021467E+03  0.7561462E-02  0.1275845E+00
         -1   -1    0    0    0  501 -0.00000000000E+00  0.00000000000E+00  0.11606905345E+03  0.11606905345E+03  0.00000000000E+00 0.  1.
          1   -1    0    0  501    0  0.00000000000E+00 -0.00000000000E+00 -0.18069961363E+03  0.18069961363E+03  0.00000000000E+00 0. -1.
         25    2    1    2    0    0  0.56828656813E+02 -0.76824171438E+02 -0.20869026875E+02  0.15878572703E+03  0.12508373705E+03 0.  0.
          5    1    3    3  502    0  0.10578608353E+02 -0.14835879247E+02 -0.66372145693E+02  0.68954654605E+02  0.41800000000E+01 0.  1.
         -5    1    3    3    0  502  0.46250048460E+02 -0.61988292191E+02  0.45503118819E+02  0.89831072428E+02  0.41800000000E+01 0.  1.
        -11    1    1    2    0    0 -0.30230043182E+02  0.75711313965E+02  0.57942847091E+01  0.81729017542E+02  0.00000000000E+00 0.  1.
         11    1    1    2    0    0 -0.26598613631E+02  0.11128574724E+01 -0.49555818010E+02  0.56253922507E+02  0.00000000000E+00 0. -1.
</event>
<event>
 7    1  0.2380582E-009  0.7389743E+02  0.7561462E-02  0.1347320E+00
          1   -1    0    0  501    0  0.00000000000E+00  0.00000000000E+00  0.10695544376E+03  0.10695544376E+03  0.00000000000E+00 0. -1.
         -1   -1    0    0    0  501 -0.00000000000E+00 -0.00000000000E+00 -0.12834502941E+03  0.12834502941E+03  0.00000000000E+00 0.  1.
         25    2    1    2    0    0 -0.10876760507E+02  0.62994704638E+01 -0.55026222290E+02  0.13723385199E+03  0.12508899930E+03 0.  0.
          5    1    3    3  502    0  0.28826984720E+01 -0.28360841565E+02 -0.84653790585E+02  0.89422502454E+02  0.41800000000E+01 0.  1.
         -5    1    3    3    0  502 -0.13759458979E+02  0.34660312029E+02  0.29627568295E+02  0.47811349535E+02  0.41800000000E+01 0.  1.
        -11    1    1    2    0    0 -0.25639824168E+02 -0.28804930113E+02 -0.67518246608E+01  0.39149862304E+02  0.00000000000E+00 0.  1.
         11    1    1    2    0    0  0.36516584675E+02  0.22505459649E+02  0.40388461300E+02  0.58916758877E+02  0.00000000000E+00 0. -1.
</event>
<event>
 7    1  0.2380582E-009  0.2275656E+03  0.7561462E-02  0.1128365E+00
         -1   -1    0    0    0  501 -0.00000000000E+00  0.00000000000E+00  0.10165886801E+03  0.10165886801E+03  0.00000000000E+00 0.  1.
          1   -1    0    0  501    0  0.00000000000E+00 -0.00000000000E+00 -0.61068264348E+03  0.61068264348E+03  0.00000000000E+00 0. -1.
         25    2    1    2    0    0 -0.76553281619E+01 -0.22008481458E+03 -0.20096549301E+03  0.32331004970E+03  0.12508528769E+03 0.  0.
          5    1    3    3  502    0 -0.21518354926E+02 -0.70855996595E+02 -0.20220619327E+01  0.74196852943E+02  0.41800000000E+01 0. -1.
         -5    1    3    3    0  502  0.13863026764E+02 -0.14922881799E+03 -0.19894343108E+03  0.24911319676E+03  0.41800000000E+01 0. -1.
        -11    1    1    2    0    0 -0.31186540691E+02  0.88482518922E+02 -0.82071859833E+02  0.12464969575E+03  0.00000000000E+00 0. -1.
         11    1    1    2    0    0  0.38841868853E+02  0.13160229566E+03 -0.22598642263E+03  0.26438176603E+03  0.00000000000E+00 0.  1.
</event>
<event>
 7    1  0.2380582E-009  0.2956976E+03  0.7561462E-02  0.1087411E+00
          2   -1    0    0  501    0  0.00000000000E+00  0.00000000000E+00  0.66261501628E+03  0.66261501628E+03  0.00000000000E+00 0. -1.
         -2   -1    0    0    0  501 -0.00000000000E+00 -0.00000000000E+00 -0.14684890523E+03  0.14684890523E+03  0.00000000000E+00 0.  1.
         25    2    1    2    0    0  0.51779063459E+02 -0.27280265989E+03  0.38064534523E+03  0.48748280572E+03  0.12508494863E+03 0.  0.
          5    1    3    3  502    0  0.88175293605E+02 -0.23653120605E+03  0.30489874240E+03  0.39585680410E+03  0.41800000000E+01 0. -1.
         -5    1    3    3    0  502 -0.36396230146E+02 -0.36271453840E+02  0.75746602831E+02  0.91626001620E+02  0.41800000000E+01 0. -1.
        -11    1    1    2    0    0 -0.55776007750E+02  0.99817462762E+02  0.25514288660E+02  0.11715574181E+03  0.00000000000E+00 0. -1.
         11    1    1    2    0    0  0.39969442912E+01  0.17298519713E+03  0.10960647716E+03  0.20482537398E+03  0.00000000000E+00 0.  1.
</event>
<event>
 7    1  0.2380582E-009  0.1052709E+03  0.7561462E-02  0.1269587E+00
          2   -1    0    0  501    0  0.00000000000E+00  0.00000000000E+00  0.52822123647E+03  0.52822123647E+03  0.00000000000E+00 0.  1.
         -2   -1    0    0    0  501 -0.00000000000E+00 -0.00000000000E+00 -0.32672805341E+02  0.32672805341E+02  0.00000000000E+00 0. -1.
         25    2    1    2    0    0 -0.26358829988E+02 -0.25949444673E+02  0.14086256947E+03  0.19199155109E+03  0.12510128143E+03 0.  0.
          5    1    3    3  502    0  0.22310083556E+02 -0.52375346450E+02  0.22704368491E+02  0.61431893122E+02  0.41800000000E+01 0.  1.
         -5    1    3    3    0  502 -0.48668913543E+02  0.26425901777E+02  0.11815820098E+03  0.13055965797E+03  0.41800000000E+01 0.  1.
        -11    1    1    2    0    0  0.36111505733E+02 -0.26361181595E+02  0.21087930530E+03  0.21556677422E+03  0.00000000000E+00 0. -1.
         11    1    1    2    0    0 -0.97526757448E+01  0.52310626268E+02  0.14380655635E+03  0.15333571650E+03  0.00000000000E+00 0.  1.
</event>
<event>
 7    1  0.2380582E-009  0.6799314E+02  0.7561462E-02  0.1367054E+00
         -2   -1    0    0    0  501 -0.00000000000E+00  0.00000000000E+00  0.40960973021E+02  0.40960973021E+02  0.00000000000E+00 0.  1.
          2   -1    0    0  501    0  0.00000000000E+00 -0.00000000000E+00 -0.33895571022E+03  0.33895571022E+03  0.00000000000E+00 0. -1.
         25    2    1    2    0    0  0.12624926954E+02 -0.38362350568E+02 -0.13802372934E+03  0.19060116581E+03  0.12508875180E+03 0.  0.
          5    1    3    3  502    0  0.10290705011E+02 -0.41625456284E+02 -0.16112457615E+03  0.16678482742E+03  0.41800000000E+01 0.  1.
         -5    1    3    3    0  502  0.23342219425E+01  0.32631057162E+01  0.23100846806E+02  0.23816338387E+02  0.41800000000E+01 0.  1.
        -11    1    1    2    0    0  0.18788512202E+02  0.50153334234E+02 -0.46300311342E+02  0.70796073026E+02  0.00000000000E+00 0.  1.
         11    1    1    2    0    0 -0.31413439156E+02 -0.11790983666E+02 -0.11367069651E+03  0.11851944440E+03  0.00000000000E+00 0. -1.
</event>
<event>
 7    1  0.2380582E-009  0.1744050E+03  0.7561462E-02  0.1173330E+00
         -2   -1    0    0    0  501 -0.00000000000E+00  0.00000000000E+00  0.32956320552E+02  0.32956320552E+02  0.00000000000E+00 0.  1.
          2   -1    0    0  501    0  0.00000000000E+00 -0.00000000000E+00 -0.94649988415E+03  0.94649988415E+03  0.00000000000E+00 0. -1.
         25    2    1    2    0    0  0.11823158076E+03 -0.73574632385E+02 -0.45325959226E+03  0.49039050981E+03  0.12508661368E+03 0.  0.
          5    1    3    3  502    0  0.13036570701E+03 -0.21619978755E+02 -0.29346030115E+03  0.32186808135E+03  0.41800000000E+01 0. -1.
         -5    1    3    3    0  502 -0.12134126252E+02 -0.51954653630E+02 -0.15979929111E+03  0.16852242846E+03  0.41800000000E+01 0. -1.
        -11    1    1    2    0    0 -0.32877959863E+02  0.70365181909E+02 -0.25938326347E+03  0.27076169678E+03  0.00000000000E+00 0. -1.
         11    1    1    2    0    0 -0.85353620895E+02  0.32094504753E+01 -0.20090070787E+03  0.21830399812E+03  0.00000000000E+00 0.  1.
</event>
<event>
 7    1  0.2380582E-009  0.8949133E+02  0.7561462E-02  0.1304088E+00
         -2   -1    0    0    0  501 -0.00000000000E+00  0.00000000000E+00  0.21256326802E+03  0.21256326802E+03  0.00000000000E+00 0.  1.
          2   -1    0    0  501    0  0.00000000000E+00 -0.00000000000E+00 -0.54754260928E+02  0.54754260928E+02  0.00000000000E+00 0. -1.
         25    2    1    2    0    0  0.21394327667E+02 -0.22936441036E+00  0.96125544779E+02  0.15919360419E+03  0.12507882871E+03 0.  0.
          5    1    3    3  502    0  0.32866527395E+02 -0.47580291331E+02  0.81605341109E+01  0.58550486447E+02  0.41800000000E+01 0. -1.
         -5    1    3    3    0  502 -0.11472199727E+02  0.47350926921E+02  0.87965010668E+02  0.10064311774E+03  0.41800000000E+01 0. -1.
        -11    1    1    2    0    0  0.25302924243E+02 -0.17612635452E+01  0.55443150530E+02  0.60969524889E+02  0.00000000000E+00 0.  1.
         11    1    1    2    0    0 -0.46697251911E+02  0.19906279556E+01  0.62403117797E+01  0.47154399866E+02  0.00000000000E+00 0. -1.
</event>
<event>
 7    1  0.2380582E-009  0.1327219E+03  0.7561462E-02  0.1223472E+00
          2   -1    0    0  501    0  0.00000000000E+00  0.00000000000E+00  0.26401736331E+03  0.26401736331E+03  0.00000000000E+00 0. -1.
         -2   -1    0    0    0  501 -0.00000000000E+00 -0.00000000000E+00 -0.71692272042E+02  0.71692272042E+02  0.00000000000E+00 0.  1.
         25    2    1    2    0    0 -0.58748442262E+02  0.59851797239E+02  0.84434109099E+02  0.17265553739E+03  0.12508876333E+03 0.  0.
          5    1    3    3  502    0 -0.85738765816E+02  0.35116278307E+01  0.34539967470E+02  0.92595622178E+02  0.41800000000E+01 0. -1.
         -5    1    3    3    0  502  0.26990323554E+02  0.56340169408E+02  0.49894141629E+02  0.80059915210E+02  0.41800000000E+01 0. -1.
        -11    1    1    2    0    0 -0.18788279275E+02 -0.26571371848E+02  0.10498491504E+02  0.34194379127E+02  0.00000000000E+00 0.  1.
         11    1    1    2    0    0  0.77536721537E+02 -0.33280425391E+02  0.97392490666E+02  0.12885971884E+03  0.00000000000E+00 0. -1.
</event>
<event>
 7    1  0.2380582E-009  0.8387502E+02  0.7561462E-02  0.1318401E+00
          2   -1    0    0  501    0  0.00000000000E+00  0.00000000000E+00  0.26106841192E+03  0.26106841192E+03  0.00000000000E+00 0. -1.
         -2   -1    0    0    0  501 -0.00000000000E+00 -0.00000000000E+00 -0.57334565193E+02  0.57334565193E+02  0.00000000000E+00 0.  1.
         25    2    1    2    0    0 -0.39162860909E+02 -0.43066649047E+02  0.10915420170E+03  0.17592750257E+03  0.12508948988E+03 0.  0.
          5    1    3    3  502    0 -0.56855124470E+02 -0.27946181477E+02  0.12982651424E+03  0.14451951576E+03  0.41800000000E+01 0. -1.
         -5    1    3    3    0  502  0.17692263561E+02 -0.15120467570E+02 -0.20672312541E+02  0.31407986807E+02  0.41800000000E+01 0. -1.
        -11    1    1    2    0    0 -0.14346797916E+02  0.12251813209E+02 -0.97541031324E+01  0.21238645561E+02  0.00000000000E+00 0.  1.
         11    1    1    2    0    0  0.53509658825E+02  0.30814835839E+02  0.10433374816E+03  0.12123682898E+03  0.00000000000E+00 0. -1.
</event>
<event>
 7    1  0.2380582E-009  0.9697314E+02  0.7561462E-02  0.1286793E+00
          2   -1    0    0  501    0  0.00000000000E+00  0.00000000000E+00  0.12797344727E+03  0.12797344727E+03  0.00000000000E+00 0. -1.
         -2   -1    0    0    0  501 -0.00000000000E+00 -0.00000000000E+00 -0.95226877037E+02  0.95226877037E+02  0.00000000000E+00 0.  1.
         25    2    1    2    0    0 -0.10784988252E+02 -0.47705876259E+01 -0.12586697203E+02  0.12627154544E+03  0.12508798409E+03 0.  0.
          5    1    3    3  502    0 -0.21548805544E+02  0.50263330852E+02  0.23270482074E+02  0.59579704470E+02  0.41800000000E+01 0.  1.
         -5    1    3    3    0  502  0.10763817293E+02 -0.55033918478E+02 -0.35857179278E+02  0.66691840967E+02  0.41800000000E+01 0.  1.
        -11    1    1    2    0    0  0.33227104607E+02 -0.27793251694E+02  0.35924759142E+02  0.56276937014E+02  0.00000000000E+00 0. -1.
         11    1    1    2    0    0 -0.22442116355E+02  0.32563839320E+02  0.94085082904E+01  0.40651841852E+02  0.00000000000E+00 0.  1.
</event>
<event>
 7    1  0.2380582E-009  0.1356852E+03  0.7561462E-02  0.1219256E+00
         -1   -1    0    0    0  501 -0.00000000000E+00  0.00000000000E+00  0.43491726403E+02  0.43491726403E+02  0.00000000000E+00 0.  1.
          1   -1    0    0  501    0  0.00000000000E+00 -0.00000000000E+00 -0.45802118491E+03  0.45802118491E+03  0.00000000000E+00 0. -1.
         25    2    1    2    0    0  0.97322809678E+01  0.98487240022E+02 -0.20067172681E+03  0.25634291331E+03  0.12509233998E+03 0.  0.
          5    1    3    3  502    0 -0.94984018988E+01  0.12318373061E+03 -0.13250369649E+03  0.18121576397E+03  0.41800000000E+01 0. -1.
         -5    1    3    3    0  502  0.19230682867E+02 -0.24696490588E+02 -0.68168030320E+02  0.75127149344E+02  0.41800000000E+01 0. -1.
        -11    1    1    2    0    0 -0.35260958494E+02 -0.47574471989E+02 -0.78603482962E+02  0.98413277116E+02  0.00000000000E+00 0.  1.
         11    1    1    2    0    0  0.25528677526E+02 -0.50912768034E+02 -0.13525424873E+03  0.14675672089E+03  0.00000000000E+00 0. -1.
</event>
<event>
 7    1  0.2380582E-009  0.1224719E+03  0.7561462E-02  0.1239074E+00
          3   -1    0    0  501    0  0.00000000000E+00  0.00000000000E+00  0.20097300618E+02  0.20097300618E+02  0.00000000000E+00 0. -1.
         -3   -1    0    0    0  501 -0.00000000000E+00 -0.00000000000E+00 -0.85907829800E+03  0.85907829800E+03  0.00000000000E+00 0.  1.
         25    2    1    2    0    0  0.39223133429E+02 -0.58748100846E+02 -0.53348879745E+03  0.55249247344E+03  0.12509133726E+03 0.  0.
          5    1    3    3  502    0 -0.35842388258E+02 -0.39916800620E+02 -0.33702497654E+03  0.34129361989E+03  0.41800000000E+01 0.  1.
         -5    1    3    3    0  502  0.75065521686E+02 -0.18831300227E+02 -0.19646382091E+03  0.21119885355E+03  0.41800000000E+01 0.  1.
        -11    1    1    2    0    0 -0.20250012890E+02 -0.22456247416E+02 -0.11148020798E+03  0.11550836698E+03  0.00000000000E+00 0.  1.
         11    1    1    2    0    0 -0.18973120538E+02  0.81204348262E+02 -0.19401199194E+03  0.21117475819E+03  0.00000000000E+00 0. -1.
</event>
<event>
 7    1  0.2380582E-009  0.2100050E+03  0.7561462E-02  0.1141562E+00
          1   -1    0    0  501    0  0.00000000000E+00  0.00000000000E+00  0.92771814078E+03  0.92771814078E+03  0.00000000000E+00 0.  1.
         -1   -1    0    0    0  501 -0.00000000000E+00 -0.00000000000E+00 -0.53361919891E+02  0.53361919891E+02  0.00000000000E+00 0. -1.
         25    2    1    2    0    0 -0.17513252357E+03  0.76790465414E+02  0.51836825300E+03  0.56649905384E+03  0.12508939161E+03 0.  0.
          5    1    3    3  502    0 -0.82263874504E+02 -0.29068343368E+02  0.18502771627E+03  0.20460948615E+03  0.41800000000E+01 0.  1.
         -5    1    3    3    0  502 -0.92868649065E+02  0.10585880878E+03  0.33334053672E+03  0.36188956768E+03  0.41800000000E+01 0.  1.
        -11    1    1    2    0    0  0.71620157233E+02 -0.39238119755E+02  0.68031416364E+02  0.10628899556E+03  0.00000000000E+00 0. -1.
         11    1    1    2    0    0  0.10351236634E+03 -0.37552345659E+02  0.28795655152E+03  0.30829201127E+03  0.00000000000E+00 0.  1.
</event>
<event>
 7    1  0.2380582E-009  0.9373947E+02  0.7561462E-02  0.1294041E+00
          3   -1    0    0  501    0  0.00000000000E+00  0.00000000000E+00  0.51002518603E+02  0.51002518603E+02  0.00000000000E+00 0. -1.
         -3   -1    0    0    0  501 -0.00000000000E+00 -0.00000000000E+00 -0.22544944960E+03  0.22544944960E+03  0.00000000000E+00 0.  1.
         25    2    1    2    0    0 -0.15494317028E+02  0.21371356467E+02 -0.14290556393E+03  0.19174587730E+03  0.12509065721E+03 0.  0.
          5    1    3    3  502    0 -0.34052368002E+02 -0.37102763958E+02 -0.20059245485E+02  0.54369335009E+02  0.41800000000E+01 0.  1.
         -5    1    3    3    0  502  0.18558050975E+02  0.58474120425E+02 -0.12284631844E+03  0.13737654229E+03  0.41800000000E+01 0.  1.
        -11    1    1    2    0    0 -0.88670255815E+00  0.25648103397E+02 -0.22438585738E+02  0.34089611016E+02  0.00000000000E+00 0.  1.
         11    1    1    2    0    0  0.16381019586E+02 -0.47019459864E+02 -0.91027813304E+01  0.50616479891E+02  0.00000000000E+00 0. -1.
</event>
<event>
 7    1  0.2380582E-009  0.2646966E+03  0.7561462E-02  0.1104354E+00
          1   -1    0    0  501    0  0.00000000000E+00  0.00000000000E+00  0.46563266082E+03  0.46563266082E+03  0.00000000000E+00 0. -1.
         -1   -1    0    0    0  501 -0.00000000000E+00 -0.00000000000E+00 -0.17490114568E+03  0.17490114568E+03  0.00000000000E+00 0.  1.
         25    2    1    2    0    0 -0.80102986515E+02  0.25038859963E+03  0.11957195048E+03  0.31473142267E+03  0.12508987890E+03 0.  0.
          5    1    3    3  502    0 -0.88986773644E+01  0.78389481769E+02  0.10008980485E+03  0.12751289639E+03  0.41800000000E+01 0. -1.
         -5    1    3    3    0  502 -0.71204309151E+02  0.17199911786E+03  0.19482145637E+02  0.18721852629E+03  0.41800000000E+01 0. -1.
        -11    1    1    2    0    0  0.40187047684E+02 -0.16657889626E+03  0.15602235767E+03  0.23174663659E+03  0.00000000000E+00 0. -1.
         11    1    1    2    0    0  0.39915938831E+02 -0.83809703374E+02  0.15137206990E+02  0.94055747235E+02  0.00000000000E+00 0.  1.
</event>
<event>
 7    1  0.2380582E-009  0.1803808E+03  0.7561462E-02  0.1167435E+00
          3   -1    0    0  501    0  0.00000000000E+00  0.00000000000E+00  0.16256501806E+03  0.16256501806E+03  0.00000000000E+00 0. -1.
         -3   -1    0    0    0  501 -0.00000000000E+00 -0.00000000000E+00 -0.20388353532E+03  0.20388353532E+03  0.00000000000E+00 0.  1.
         25    2    1    2    0    0 -0.90309214651E+02 -0.11411086366E+03 -0.33056333873E+02  0.19472254938E+03  0.12508839503E+03 0.  0.
          5    1    3    3  502    0 -0.24816434388E+02 -0.12201313181E+03 -0.11116319129E+02  0.12507639546E+03  0.41800000000E+01 0. -1.
         -5    1    3    3    0  502 -0.65492780264E+02  0.79022681497E+01 -0.21940014744E+02  0.69646153918E+02  0.41800000000E+01 0. -1.
        -11    1    1    2    0    0  0.82689981034E+02  0.12907341605E+03 -0.14130875411E+02  0.15393914815E+03  0.00000000000E+00 0. -1.
         11    1    1    2    0    0  0.76192336177E+01 -0.14962552388E+02  0.58686920244E+01  0.17786855848E+02  0.00000000000E+00 0.  1.
</event>
<event>
 7    1  0.2380582E-009  0.1154101E+03  0.7561462E-02  0.1250867E+00
         -1   -1    0    0    0  501 -0.00000000000E+00  0.00000000000E+00  0.28101502584E+02  0.28101502584E+02  0.00000000000E+00 0.  1.
          1   -1    0    0  501    0  0.00000000000E+00 -0.00000000000E+00 -0.54889231261E+03  0.54889231261E+03  0.00000000000E+00 0. -1.
         25    2    1    2    0    0 -0.44055174508E+02  0.28626894164E+02 -0.22815663626E+03  0.26544952603E+03  0.12509053815E+03 0.  0.
          5    1    3    3  502    0 -0.70963816506E+02 -0.24742234204E+02 -0.11572791223E+03  0.13805239395E+03  0.41800000000E+01 0. -1.
         -5    1    3    3    0  502  0.26908641997E+02  0.53369128368E+02 -0.11242872403E+03  0.12739713209E+03  0.41800000000E+01 0. -1.
        -11    1    1    2    0    0 -0.77271685572E+01  0.21938617604E+02 -0.24370441873E+02  0.33688729768E+02  0.00000000000E+00 0.  1.
         11    1    1    2    0    0  0.51782343065E+02 -0.50565511768E+02 -0.26826373190E+03  0.27785555939E+03  0.00000000000E+00 0. -1.
</event>
<event>
 7    1  0.2415938E-009  0.1087961E+03  0.7561462E-02  0.1262816E+00
          1   -1    0    0  501    0  0.00000000000E+00  0.00000000000E+00  0.15469861029E+04  0.15469861029E+04  0.00000000000E+00 0. -1.
         -1   -1    0    0    0  501 -0.00000000000E+00 -0.00000000000E+00 -0.16915062658E+02  0.16915062658E+02  0.00000000000E+00 0.  1.
         25    2    1    2    0    0 -0.21247418031E+02  0.53546158006E+02  0.13242586183E+04  0.13314007228E+04  0.12509337526E+03 0.  0.
          5    1    3    3  502    0 -0.54518098004E+02 -0.18431902638E+02  0.49624464997E+03  0.49958801334E+03  0.41800000000E+01 0. -1.
         -5    1    3    3    0  502  0.33270679974E+02  0.71978060644E+02  0.82801396835E+03  0.83181270942E+03  0.41800000000E+01 0. -1.
        -11    1    1    2    0    0  0.23580376768E+02  0.31070047296E+01  0.56282979900E+01  0.24441059412E+02  0.00000000000E+00 0.  1.
         11    1    1    2    0    0 -0.23329587372E+01 -0.56653162736E+02  0.20018412388E+03  0.20805938335E+03  0.00000000000E+00 0. -1.
</event>
<event>
 7    1  0.2380582E-009  0.1387821E+03  0.7561462E-02  0.1214977E+00
         -1   -1    0    0    0  501 -0.00000000000E+00  0.00000000000E+00  0.27551690845E+02  0.27551690845E+02  0.00000000000E+00 0.  1.
          1   -1    0    0  501    0  0.00000000000E+00 -0.00000000000E+00 -0.11669025113E+04  0.11669025113E+04  0.00000000000E+00 0. -1.
         25    2    1    2    0    0  0.54280098039E+02 -0.10130497270E+03 -0.88088355261E+03  0.89711372328E+03  0.12509265649E+03 0.  0.
          5    1    3    3  502    0  0.13312075470E+02 -0.93954290136E+02 -0.80396053536E+03  0.80955211989E+03  0.41800000000E+01 0.  1.
         -5    1    3    3    0  502  0.40968022569E+02 -0.73506825661E+01 -0.76923017247E+02  0.87561603399E+02  0.41800000000E+01 0.  1.
        -11    1    1    2    0    0 -0.75365679041E+02  0.87791704220E+02 -0.17181670985E+03  0.20714330955E+03  0.00000000000E+00 0.  1.
         11    1    1    2    0    0  0.21085581002E+02  0.13513268482E+02 -0.86650557981E+02  0.90197169300E+02  0.00000000000E+00 0. -1.
</event>
<event>
 7    1  0.2396523E-009  0.1012889E+03  0.7561462E-02  0.1277609E+00
         -3   -1    0    0    0  501 -0.00000000000E+00  0.00000000000E+00  0.65278791066E+02  0.65278791066E+02  0.00000000000E+00 0.  1.
          3   -1    0    0  501    0  0.00000000000E+00 -0.00000000000E+00 -0.33193060791E+03  0.33193060791E+03  0.00000000000E+00 0. -1.
         25    2    1    2    0    0 -0.32523736184E+02  0.75903052223E+02 -0.71667733869E+02  0.16614295947E+03  0.12509257432E+03 0.  0.
          5    1    3    3  502    0 -0.59518627951E+02  0.70135928768E+02 -0.93101040658E+02  0.13094575880E+03  0.41800000000E+01 0. -1.
         -5    1    3    3    0  502  0.26994891767E+02  0.57671234551E+01  0.21433306789E+02  0.35197200661E+02  0.41800000000E+01 0. -1.
        -11    1    1    2    0    0  0.16813346515E+02 -0.39361542197E+02 -0.12922134683E+02  0.44710191119E+02  0.00000000000E+00 0.  1.
         11    1    1    2    0    0  0.15710389669E+02 -0.36541510026E+02 -0.18206194830E+03  0.18635624840E+03  0.00000000000E+00 0. -1.
</event>
<event>
 7    1  0.2701369E-009  0.1019025E+03  0.7561462E-02  0.1276345E+00
         -1   -1    0    0    0  501 -0.00000000000E+00  0.00000000000E+00  0.28057305614E+02  0.28057305614E+02  0.00000000000E+00 0.  1.
          1   -1    0    0  501    0  0.00000000000E+00 -0.00000000000E+00 -0.64621516950E+03  0.64621516950E+03  0.00000000000E+00 0. -1.
         25    2    1    2    0    0 -0.67158223271E+02 -0.28861999074E+02 -0.25910444022E+03  0.29686536246E+03  0.12510271995E+03 0.  0.
          5    1    3    3  502    0 -0.33472863295E+02  0.11496625766E+02 -0.34229894214E+01  0.35802154094E+02  0.41800000000E+01 0.  1.
         -5    1    3    3    0  502 -0.33685359975E+02 -0.40358624840E+02 -0.25568145080E+03  0.26106320836E+03  0.41800000000E+01 0.  1.
        -11    1    1    2    0    0 -0.20011947377E+02  0.19190842018E+02 -0.10685304780E+03  0.11039175821E+03  0.00000000000E+00 0.  1.
         11    1    1    2    0    0  0.87170170648E+02  0.96711570561E+01 -0.25220037586E+03  0.26701535445E+03  0.00000000000E+00 0. -1.
</event>
<event>
 7    1  0.2380582E-009  0.1779594E+03  0.7561462E-02  0.1169793E+00
          2   -1    0    0  501    0  0.00000000000E+00  0.00000000000E+00  0.93599126509E+03  0.93599126509E+03  0.00000000000E+00 0.  1.
         -2   -1    0    0    0  501 -0.00000000000E+00 -0.00000000000E+00 -0.11450666471E+03  0.11450666471E+03  0.00000000000E+00 0. -1.
         25    2    1    2    0    0 -0.13161937080E+03 -0.90021063373E+02  0.83625455984E+03  0.86046338114E+03  0.12509232919E+03 0.  0.
          5    1    3    3  502    0 -0.64037232939E+02 -0.10854753793E+03  0.42693801871E+03  0.44517061832E+03  0.41800000000E+01 0. -1.
         -5    1    3    3    0  502 -0.67582137862E+02  0.18526474554E+02  0.40931654112E+03  0.41529276283E+03  0.41800000000E+01 0. -1.
        -11    1    1    2    0    0  0.81988772994E+02  0.51843833036E+02  0.41820457613E+02  0.10563565968E+03  0.00000000000E+00 0.  1.
         11    1    1    2    0    0  0.49630597806E+02  0.38177230337E+02 -0.56590417072E+02  0.84398888969E+02  0.00000000000E+00 0. -1.
</event>
<event>
 7    1  0.2380582E-009  0.1270760E+03  0.7561462E-02  0.1231860E+00
         -1   -1    0    0    0  501 -0.00000000000E+00  0.00000000000E+00  0.60396300580E+02  0.60396300580E+02  0.00000000000E+00 0.  1.
          1   -1    0    0  501    0  0.00000000000E+00 -0.00000000000E+00 -0.41256435375E+03  0.41256435375E+03  0.00000000000E+00 0. -1.
         25    2    1    2    0    0 -0.92832947320E+02  0.15989160291E+02 -0.29113292917E+03  0.33057449708E+03  0.12508999288E+03 0.  0.
          5    1    3    3  502    0 -0.90103870132E+02 -0.23547639124E+02 -0.10582709276E+03  0.14103206970E+03  0.41800000000E+01 0.  1.
         -5    1    3    3    0  502 -0.27290771873E+01  0.39536799415E+02 -0.18530583641E+03  0.18954242738E+03  0.41800000000E+01 0.  1.
        -11    1    1    2    0    0  0.10642087356E+03 -0.14630438782E+02 -0.67920250915E+02  0.12709292881E+03  0.00000000000E+00 0.  1.
         11    1    1    2    0    0 -0.13587926242E+02 -0.13587215091E+01  0.68851269104E+01  0.15293228445E+02  0.00000000000E+00 0. -1.
</event>
<event>
 7    1  0.2380582E-009  0.6536685E+02  0.7561462E-02  0.1376597E+00
         -1   -1    0    0    0  501 -0.00000000000E+00  0.00000000000E+00  0.66659003795E+02  0.66659003795E+02  0.00000000000E+00 0. -1.
          1   -1    0    0  501    0  0.00000000000E+00 -0.00000000000E+00 -0.27228434937E+03  0.27228434937E+03  0.00000000000E+00 0.  1.
         25    2    1    2    0    0 -0.40636955755E+02 -0.13816540370E+02 -0.27522227142E+02  0.13508343234E+03  0.12509117373E+03 0.  0.
          5    1    3    3  502    0 -0.34752705621E+01 -0.16536860403E+01 -0.73990861296E+02  0.74208706620E+02  0.41800000000E+01 0. -1.
         -5    1    3    3    0  502 -0.37161685193E+02 -0.12162854329E+02  0.46468634153E+02  0.60874725723E+02  0.41800000000E+01 0. -1.
        -11    1    1    2    0    0  0.61412395413E+02  0.12058731992E+01 -0.70313613096E+02  0.93364557661E+02  0.00000000000E+00 0. -1.
         11    1    1    2    0    0 -0.20775439658E+02  0.12610667170E+02 -0.10778950534E+03  0.11049536316E+03  0.00000000000E+00 0.  1.
</event>
<event>
 7    1  0.2380582E-009  0.1076303E+03  0.7561462E-02  0.1265022E+00
         -1   -1    0    0    0  501 -0.00000000000E+00  0.00000000000E+00  0.38649131343E+02  0.38649131343E+02  0.00000000000E+00 0.  1.
          1   -1    0    0  501    0  0.00000000000E+00 -0.00000000000E+00 -0.37215731390E+03  0.37215731390E+03  0.00000000000E+00 0. -1.
         25    2    1    2    0    0  0.42983793452E+02  0.11097723660E+02 -0.13734540547E+03  0.19100827387E+03  0.12509849845E+03 0.  0.
          5    1    3    3  502    0  0.36411363218E+02 -0.51769905883E+02 -0.97017089056E+02  0.11591246048E+03  0.41800000000E+01 0.  1.
         -5    1    3    3    0  502  0.65724302334E+01  0.62867629543E+02 -0.40328316417E+02  0.75095813390E+02  0.41800000000E+01 0.  1.
        -11    1    1    2    0    0  0.90379587516E+01 -0.31373091991E+02 -0.12583752665E+03  0.13000399499E+03  0.00000000000E+00 0. -1.
         11    1    1    2    0    0 -0.52021752203E+02  0.20275368331E+02 -0.70325250432E+02  0.89794176379E+02  0.00000000000E+00 0.  1.
</event>
<event>
 7    1  0.2380582E-009  0.1253011E+03  0.7561462E-02  0.1234600E+00
         -2   -1    0    0    0  501 -0.00000000000E+00  0.00000000000E+00  0.33267031656E+02  0.33267031656E+02  0.00000000000E+00 0.  1.
          2   -1    0    0  501    0  0.00000000000E+00 -0.00000000000E+00 -0.50900787151E+03  0.50900787151E+03  0.00000000000E+00 0. -1.
         25    2    1    2    0    0  0.95596018359E+01  0.75387852486E+02 -0.26559881824E+03  0.30325824568E+03  0.12509243395E+03 0.  0.
          5    1    3    3  502    0 -0.54370973792E+02  0.58779270931E+02 -0.14481179426E+03  0.16552683661E+03  0.41800000000E+01 0.  1.
         -5    1    3    3    0  502  0.63930575628E+02  0.16608581555E+02 -0.12078702397E+03  0.13773140906E+03  0.41800000000E+01 0.  1.
        -11    1    1    2    0    0  0.10671418237E+02  0.11110620068E+02 -0.79853245096E+02  0.81325677359E+02  0.00000000000E+00 0. -1.
         11    1    1    2    0    0 -0.20231020073E+02 -0.86498472554E+02 -0.13028877652E+03  0.15769098013E+03  0.00000000000E+00 0.  1.
</event>
<event>
 7    1  0.2380582E-009  0.1460448E+03  0.7561462E-02  0.1205419E+00
          2   -1    0    0  501    0  0.00000000000E+00  0.00000000000E+00  0.50469467302E+03  0.50469467302E+03  0.00000000000E+00 0. -1.
         -2   -1    0    0    0  501 -0.00000000000E+00 -0.00000000000E+00 -0.49340668057E+02  0.49340668057E+02  0.00000000000E+00 0.  1.
         25    2    1    2    0    0 -0.80390934390E+02  0.89689934968E+02  0.25350248471E+03  0.30727472524E+03  0.12508900931E+03 0.  0.
          5    1    3    3  502    0 -0.10478043954E+03  0.86180722599E+02  0.24636732753E+03  0.28128346900E+03  0.41800000000E+01 0. -1.
         -5    1    3    3    0  502  0.24389505149E+02  0.35092123682E+01  0.71351571757E+01  0.25991256237E+02  0.41800000000E+01 0. -1.
        -11    1    1    2    0    0  0.61040704370E+02 -0.93481228232E+02  0.19702756284E+03  0.22646096383E+03  0.00000000000E+00 0. -1.
         11    1    1    2    0    0  0.19350230020E+02  0.37912932641E+01  0.48239574166E+01  0.20299652007E+02  0.00000000000E+00 0.  1.
</event>
<event>
 7    1  0.2380582E-009  0.1503664E+03  0.7561462E-02  0.1200023E+00
         -1   -1    0    0    0  501 -0.00000000000E+00  0.00000000000E+00  0.25036826320E+02  0.25036826320E+02  0.00000000000E+00 0.  1.
          1   -1    0    0  501    0  0.00000000000E+00 -0.00000000000E+00 -0.10880936932E+04  0.10880936932E+04  0.00000000000E+00 0. -1.
         25    2    1    2    0    0 -0.63084143827E+02 -0.10060195581E+03 -0.70054674672E+03  0.72146619793E+03  0.12508943882E+03 0.  0.
          5    1    3    3  502    0 -0.29569836394E+02 -0.12356005514E+03 -0.59193887221E+03  0.60543419402E+03  0.41800000000E+01 0.  1.
         -5    1    3    3    0  502 -0.33514307432E+02  0.22958099326E+02 -0.10860787451E+03  0.11603200392E+03  0.41800000000E+01 0.  1.
        -11    1    1    2    0    0  0.47308305592E+02  0.21232100280E+02 -0.63948444565E+02  0.82330318975E+02  0.00000000000E+00 0.  1.
         11    1    1    2    0    0  0.15775838234E+02  0.79369855531E+02 -0.29856167564E+03  0.30933400265E+03  0.00000000000E+00 0. -1.
</event>
<event>
 7    1  0.2380582E-009  0.7741883E+02  0.7561462E-02  0.1336540E+00
         -1   -1    0    0    0  501 -0.00000000000E+00  0.00000000000E+00  0.37697201864E+02  0.37697201864E+02  0.00000000000E+00 0.  1.
          1   -1    0    0  501    0  0.00000000000E+00 -0.00000000000E+00 -0.56041604095E+03  0.56041604095E+03  0.00000000000E+00 0. -1.
         25    2    1    2    0    0  0.15872290413E+02 -0.51805165112E+02 -0.42390780326E+03  0.44528714220E+03  0.12508840320E+03 0.  0.
          5    1    3    3  502    0 -0.45463384415E+01 -0.27914147544E+02 -0.40944118292E+03  0.41043808728E+03  0.41800000000E+01 0. -1.
         -5    1    3    3    0  502  0.20418628855E+02 -0.23891017568E+02 -0.14466620342E+02  0.34849054921E+02  0.41800000000E+01 0. -1.
        -11    1    1    2    0    0 -0.44268037880E+02  0.12396959496E+02 -0.38111220243E+01  0.46128824324E+02  0.00000000000E+00 0.  1.
         11    1    1    2    0    0  0.28395747466E+02  0.39408205616E+02 -0.94999913802E+02  0.10669727628E+03  0.00000000000E+00 0. -1.
</event>
<event>
 7    1  0.3722315E-009  0.2086999E+03  0.7561462E-02  0.1142600E+00
          2   -1    0    0  501    0  0.00000000000E+00  0.00000000000E+00  0.14367421194E+04  0.14367421194E+04  0.00000000000E+00 0. -1.
         -2   -1    0    0    0  501 -0.00000000000E+00 -0.00000000000E+00 -0.34521907076E+02  0.34521907076E+02  0.00000000000E+00 0.  1.
         25    2    1    2    0    0  0.17050196606E+03  0.69423292589E+02  0.52369197137E+03  0.56902655185E+03  0.12508965522E+03 0.  0.
          5    1    3    3  502    0  0.77076143666E+02 -0.26965749409E+02  0.26820536836E+03  0.28039164678E+03  0.41800000000E+01 0.  1.
         -5    1    3    3    0  502  0.93425822390E+02  0.96389041999E+02  0.25548660301E+03  0.28863490507E+03  0.41800000000E+01 0.  1.
        -11    1    1    2    0    0 -0.79906610620E+02 -0.76293194321E+02  0.57007552980E+03  0.58068220878E+03  0.00000000000E+00 0. -1.
         11    1    1    2    0    0 -0.90595355436E+02  0.68699017319E+01  0.30845271113E+03  0.32155526582E+03  0.00000000000E+00 0.  1.
</event>
<event>
 7    1  0.2380582E-009  0.1611542E+03  0.7561462E-02  0.1187400E+00
         -1   -1    0    0    0  501 -0.00000000000E+00  0.00000000000E+00  0.57318904956E+02  0.57318904956E+02  0.00000000000E+00 0.  1.
          1   -1    0    0  501    0  0.00000000000E+00 -0.00000000000E+00 -0.51465296743E+03  0.51465296743E+03  0.00000000000E+00 0. -1.
         25    2    1    2    0    0 -0.10417802297E+03  0.79432789618E+02 -0.27679130884E+03  0.33079199679E+03  0.12508912004E+03 0.  0.
          5    1    3    3  502    0  0.36875475419E+01  0.65937738591E+02 -0.65329563212E+02  0.92988212194E+02  0.41800000000E+01 0.  1.
         -5    1    3    3    0  502 -0.10786557051E+03  0.13495051026E+02 -0.21146174563E+03  0.23780378460E+03  0.41800000000E+01 0.  1.
        -11    1    1    2    0    0  0.30241386856E+01 -0.37867109208E+02 -0.11218184926E+02  0.39609481788E+02  0.00000000000E+00 0.  1.
         11    1    1    2    0    0  0.10115388428E+03 -0.41565680410E+02 -0.16932456870E+03  0.20157039381E+03  0.00000000000E+00 0. -1.
</event>
<event>
 7    1  0.2380582E-009  0.1896765E+03  0.7561462E-02  0.1158753E+00
         -1   -1    0    0    0  501 -0.00000000000E+00  0.00000000000E+00  0.13035041188E+04  0.13035041188E+04  0.00000000000E+00 0.  1.
          1   -1    0    0  501    0  0.00000000000E+00 -0.00000000000E+00 -0.31150387173E+02  0.31150387173E+02  0.00000000000E+00 0. -1.
         25    2    1    2    0    0 -0.15683558189E+03  0.14253124373E+01  0.45037106027E+03  0.49303217337E+03  0.12508877163E+03 0.  0.
          5    1    3    3  502    0 -0.13489717796E+03  0.51087402493E+02  0.29520436161E+03  0.32858828164E+03  0.41800000000E+01 0. -1.
         -5    1    3    3    0  502 -0.21938403933E+02 -0.49662090056E+02  0.15516669865E+03  0.16444389173E+03  0.41800000000E+01 0. -1.
        -11    1    1    2    0    0  0.80495096309E+02 -0.45477841785E+02  0.40293466025E+03  0.41340541246E+03  0.00000000000E+00 0. -1.
         11    1    1    2    0    0  0.76340485584E+02  0.44052529348E+02  0.41904801116E+03  0.42821692019E+03  0.00000000000E+00 0.  1.
</event>
<event>
 7    1  0.2380582E-009  0.9776734E+02  0.7561462E-02  0.1285062E+00
          1   -1    0    0  501    0  0.00000000000E+00  0.00000000000E+00  0.63913306813E+03  0.63913306813E+03  0.00000000000E+00 0. -1.
         -1   -1    0    0    0  501 -0.00000000000E+00 -0.00000000000E+00 -0.19108781523E+02  0.19108781523E+02  0.00000000000E+00 0.  1.
         25    2    1    2    0    0  0.15993768021E+02 -0.17231923190E+02  0.34011025851E+03  0.36314696640E+03  0.12509193206E+03 0.  0.
          5    1    3    3  502    0 -0.40694640599E+02 -0.32078562186E+02  0.72795229016E+02  0.89452253705E+02  0.41800000000E+01 0.  1.
         -5    1    3    3    0  502  0.56688408620E+02  0.14846638996E+02  0.26731502950E+03  0.27369471269E+03  0.41800000000E+01 0.  1.
        -11    1    1    2    0    0  0.78028800731E+01 -0.30490377381E+02  0.17046414036E+03  0.17334523703E+03  0.00000000000E+00 0.  1.
         11    1    1    2    0    0 -0.23796648094E+02  0.47722300571E+02  0.10944988773E+03  0.12174964623E+03  0.00000000000E+00 0. -1.
</event>
