<event>
 8    1  0.8619230E-006  0.1328776E+03  0.7561462E-02  0.1223247E+00
         -1   -1    0    0    0  501 -0.00000000000E+00  0.00000000000E+00  0.75686197164E+03  0.75686197164E+03  0.00000000000E+00 0.  1.
          1   -1    0    0  501    0  0.00000000000E+00 -0.00000000000E+00 -0.34401603036E+02  0.34401603036E+02  0.00000000000E+00 0. -1.
         23    2    1    2    0    0 -0.95017251257E+01  0.10010547460E+03  0.56570118901E+03  0.58789607870E+03  0.12446917400E+03 0.  0.
         23    2    1    2    0    0  0.95017251257E+01 -0.10010547460E+03  0.15675917960E+03  0.20336749598E+03  0.81691549191E+02 0.  0.
          5    1    3    3  502    0  0.54966919285E+02  0.26114812111E+02  0.18902953270E+03  0.19862774796E+03  0.41800000000E+01 0. -1.
         -5    1    3    3    0  502 -0.64468644411E+02  0.73990662485E+02  0.37667165631E+03  0.38926833073E+03  0.41800000000E+01 0.  1.
        -11    1    4    4    0    0 -0.99389003640E+01 -0.91109727984E+01 -0.68700379422E+01  0.15132382070E+02  0.00000000000E+00 0.  1.
         11    1    4    4    0    0  0.19440625490E+02 -0.90994501798E+02  0.16362921754E+03  0.18823511391E+03  0.00000000000E+00 0. -1.
</event>
<event>
 8    1  0.8619230E-006  0.7793499E+02  0.7561462E-02  0.1335016E+00
          2   -1    0    0  501    0  0.00000000000E+00  0.00000000000E+00  0.63931424066E+03  0.63931424066E+03  0.00000000000E+00 0. -1.
         -2   -1    0    0    0  501 -0.00000000000E+00 -0.00000000000E+00 -0.24019559062E+02  0.24019559062E+02  0.00000000000E+00 0.  1.
         23    2    1    2    0    0  0.41859383262E+02  0.14043706719E+02  0.26554983860E+03  0.29684519368E+03  0.12510363130E+03 0.  0.
         23    2    1    2    0    0 -0.41859383262E+02 -0.14043706719E+02  0.34974484300E+03  0.36648860604E+03  0.10021481672E+03 0.  0.
          5    1    3    3  502    0  0.15533771881E+02 -0.26512494110E+01  0.26488485714E+03  0.26538610953E+03  0.41800000000E+01 0.  1.
         -5    1    3    3    0  502  0.26325611381E+02  0.16694956130E+02  0.66498145778E+00  0.31459084142E+02  0.41800000000E+01 0.  1.
        -11    1    4    4    0    0 -0.10436517088E+02  0.42317598876E+02  0.17047657814E+03  0.17596011979E+03  0.00000000000E+00 0. -1.
         11    1    4    4    0    0 -0.31422866174E+02 -0.56361305595E+02  0.17926826486E+03  0.19052848625E+03  0.00000000000E+00 0.  1.
</event>
<event>
 8    1  0.8619230E-006  0.1035011E+03  0.7561462E-02  0.1273101E+00
         -1   -1    0    0    0  501 -0.00000000000E+00  0.00000000000E+00  0.62173461038E+03  0.62173461038E+03  0.00000000000E+00 0.  1.
          1   -1    0    0  501    0  0.00000000000E+00 -0.00000000000E+00 -0.19402473907E+02  0.19402473907E+02  0.00000000000E+00 0. -1.
         23    2    1    2    0    0 -0.19060625396E+01  0.13342938353E+02  0.37757046868E+03  0.39798061250E+03  0.12508973592E+03 0.  0.
         23    2    1    2    0    0  0.19060625396E+01 -0.13342938353E+02  0.22476166780E+03  0.24315647178E+03  0.91791041948E+02 0.  0.
          5    1    3    3  502    0  0.59514687721E+02 -0.40340094367E+01  0.14689052821E+03  0.15859562089E+03  0.41800000000E+01 0.  1.
         -5    1    3    3    0  502 -0.61420750260E+02  0.17376947790E+02  0.23067994047E+03  0.23938499162E+03  0.41800000000E+01 0.  1.
        -11    1    4    4    0    0 -0.38496374453E+02  0.50832910662E+01  0.52722526934E+02  0.65478817494E+02  0.00000000000E+00 0. -1.
         11    1    4    4    0    0  0.40402436993E+02 -0.18426229419E+02  0.17203914086E+03  0.17767765429E+03  0.00000000000E+00 0.  1.
</event>
<event>
 8    1  0.8619230E-006  0.1413124E+03  0.7561462E-02  0.1211574E+00
          2   -1    0    0  501    0  0.00000000000E+00  0.00000000000E+00  0.35851731871E+03  0.35851731871E+03  0.00000000000E+00 0.  1.
         -2   -1    0    0    0  501 -0.00000000000E+00 -0.00000000000E+00 -0.64966543068E+02  0.64966543068E+02  0.00000000000E+00 0. -1.
         23    2    1    2    0    0 -0.10168888328E+03  0.33713277399E+02  0.16397573234E+03  0.23240786805E+03  0.12509261482E+03 0.  0.
         23    2    1    2    0    0  0.10168888328E+03 -0.33713277399E+02  0.12957504330E+03  0.19107599372E+03  0.90791681754E+02 0.  0.
          5    1    3    3  502    0 -0.91714728465E+02  0.77158050860E+02  0.11914796985E+03  0.16905226218E+03  0.41800000000E+01 0. -1.
         -5    1    3    3    0  502 -0.99741548108E+01 -0.43444773461E+02  0.44827762492E+02  0.63355605871E+02  0.41800000000E+01 0. -1.
        -11    1    4    4    0    0  0.30975249022E+02  0.12553901606E+02  0.93315610666E+02  0.99120480686E+02  0.00000000000E+00 0.  1.
         11    1    4    4    0    0  0.70713634254E+02 -0.46267179005E+02  0.36259432630E+02  0.91955513033E+02  0.00000000000E+00 0. -1.
</event>
<event>
 8    1  0.8619230E-006  0.1245187E+03  0.7561462E-02  0.1235823E+00
          2   -1    0    0  501    0  0.00000000000E+00  0.00000000000E+00  0.14184635637E+03  0.14184635637E+03  0.00000000000E+00 0. -1.
         -2   -1    0    0    0  501 -0.00000000000E+00 -0.00000000000E+00 -0.18007572315E+03  0.18007572315E+03  0.00000000000E+00 0.  1.
         23    2    1    2    0    0 -0.10300892157E+03 -0.50569489297E+02 -0.55675451902E+02  0.17865139477E+03  0.12509377977E+03 0.  0.
         23    2    1    2    0    0  0.10300892157E+03  0.50569489297E+02  0.17446085118E+02  0.14327068475E+03  0.83988166147E+02 0.  0.
          5    1    3    3  502    0 -0.66798610768E+02 -0.49043087191E+02 -0.94241420697E+02  0.12556351611E+03  0.41800000000E+01 0. -1.
         -5    1    3    3    0  502 -0.36210310805E+02 -0.15264021058E+01  0.38565968795E+02  0.53087878664E+02  0.41800000000E+01 0. -1.
        -11    1    4    4    0    0  0.54818964211E+01 -0.12354368149E+02 -0.17451499494E+02  0.22073432795E+02  0.00000000000E+00 0.  1.
         11    1    4    4    0    0  0.97527025152E+02  0.62923857446E+02  0.34897584612E+02  0.12119725196E+03  0.00000000000E+00 0. -1.
</event>
<event>
 8    1  0.8619230E-006  0.9776756E+02  0.7561462E-02  0.1285062E+00
         -2   -1    0    0    0  501 -0.00000000000E+00  0.00000000000E+00  0.24084394431E+03  0.24084394431E+03  0.00000000000E+00 0. -1.
          2   -1    0    0  501    0  0.00000000000E+00 -0.00000000000E+00 -0.11753683213E+03  0.11753683213E+03  0.00000000000E+00 0.  1.
         23    2    1    2    0    0 -0.23535782947E+02 -0.58739659568E+02  0.18325452622E+03  0.23073019706E+03  0.12509964737E+03 0.  0.
         23    2    1    2    0    0  0.23535782947E+02  0.58739659568E+02 -0.59947414035E+02  0.12765057937E+03  0.93256084413E+02 0.  0.
          5    1    3    3  502    0 -0.20439940331E+02 -0.86370107737E+02  0.67432923623E+02  0.11154487106E+03  0.41800000000E+01 0.  1.
         -5    1    3    3    0  502 -0.30958426156E+01  0.27630448169E+02  0.11582160259E+03  0.11918532601E+03  0.41800000000E+01 0.  1.
        -11    1    4    4    0    0  0.22635013094E+02  0.30169542600E+01 -0.67641475230E+02  0.71391981357E+02  0.00000000000E+00 0.  1.
         11    1    4    4    0    0  0.90076985290E+00  0.55722705308E+02  0.76940611955E+01  0.56258598017E+02  0.00000000000E+00 0. -1.
</event>
<event>
 7    1  0.8619230E-006  0.7571111E+02  0.7561462E-02  0.1341683E+00
         -2   -1    0    0    0  501 -0.00000000000E+00  0.00000000000E+00  0.23590273562E+02  0.23590273562E+02  0.00000000000E+00 0.  1.
          2   -1    0    0  501    0  0.00000000000E+00 -0.00000000000E+00 -0.30091942260E+03  0.30091942260E+03  0.00000000000E+00 0. -1.
         23    2    1    2    0    0  0.26700136208E+02  0.12863677751E+02 -0.20518240892E+03  0.23481229591E+03  0.11026614123E+03 0.  0.
          5    1    3    3  502    0  0.36011421562E+02  0.52435325055E+02 -0.16751365133E+03  0.17923331604E+03  0.41800000000E+01 0. -1.
         -5    1    3    3    0  502 -0.93112853546E+01 -0.39571647304E+02 -0.37668757589E+02  0.55578979872E+02  0.41800000000E+01 0.  1.
        -11    1    1    2    0    0  0.50372735315E+01 -0.14174983946E+02 -0.57705767996E+01  0.16112226758E+02  0.00000000000E+00 0. -1.
         11    1    1    2    0    0 -0.31737409739E+02  0.13113061958E+01 -0.66376163320E+02  0.73585173493E+02  0.00000000000E+00 0.  1.
</event>
<event>
 8    1  0.8619230E-006  0.1207109E+03  0.7561462E-02  0.1241929E+00
          1   -1    0    0  501    0  0.00000000000E+00  0.00000000000E+00  0.38859315370E+03  0.38859315370E+03  0.00000000000E+00 0. -1.
         -1   -1    0    0    0  501 -0.00000000000E+00 -0.00000000000E+00 -0.44937189792E+02  0.44937189792E+02  0.00000000000E+00 0.  1.
         23    2    1    2    0    0 -0.57298397955E+02  0.48867867221E+02  0.13951316592E+03  0.20195043167E+03  0.12509547766E+03 0.  0.
         23    2    1    2    0    0  0.57298397955E+02 -0.48867867221E+02  0.20414279799E+03  0.23157991182E+03  0.79270415256E+02 0.  0.
          5    1    3    3  502    0 -0.13067876775E+02 -0.42336824533E+02  0.39911078777E+02  0.59779116120E+02  0.41800000000E+01 0.  1.
         -5    1    3    3    0  502 -0.44230521180E+02  0.91204691754E+02  0.99602087147E+02  0.14217131555E+03  0.41800000000E+01 0.  1.
        -11    1    4    4    0    0  0.63293899077E+02 -0.20586797077E+02  0.79764520985E+02  0.10388605625E+03  0.00000000000E+00 0.  1.
         11    1    4    4    0    0 -0.59955011217E+01 -0.28281070144E+02  0.12437827700E+03  0.12769385558E+03  0.00000000000E+00 0. -1.
</event>
<event>
 8    1  0.8619230E-006  0.1157932E+03  0.7561462E-02  0.1250203E+00
          1   -1    0    0  501    0  0.00000000000E+00  0.00000000000E+00  0.39046526655E+02  0.39046526655E+02  0.00000000000E+00 0. -1.
         -1   -1    0    0    0  501 -0.00000000000E+00 -0.00000000000E+00 -0.49452587364E+03  0.49452587364E+03  0.00000000000E+00 0.  1.
         23    2    1    2    0    0 -0.34248529059E+02  0.67126628230E+02 -0.32798051309E+03  0.35902269385E+03  0.12508849578E+03 0.  0.
         23    2    1    2    0    0  0.34248529059E+02 -0.67126628230E+02 -0.12749883389E+03  0.17454970644E+03  0.92372622639E+02 0.  0.
          5    1    3    3  502    0 -0.62237848884E+02  0.51143007839E+02 -0.98787539275E+02  0.12753669041E+03  0.41800000000E+01 0. -1.
         -5    1    3    3    0  502  0.27989319825E+02  0.15983620391E+02 -0.22919297381E+03  0.23148600344E+03  0.41800000000E+01 0. -1.
        -11    1    4    4    0    0  0.64379818685E+02 -0.31229557946E+02 -0.86685313668E+02  0.11240280223E+03  0.00000000000E+00 0.  1.
         11    1    4    4    0    0 -0.30131289625E+02 -0.35897070284E+02 -0.40813520226E+02  0.62146904209E+02  0.00000000000E+00 0. -1.
</event>
<event>
 8    1  0.9335116E-006  0.8528994E+02  0.7561462E-02  0.1314676E+00
          2   -1    0    0  501    0  0.00000000000E+00  0.00000000000E+00  0.62445714074E+03  0.62445714074E+03  0.00000000000E+00 0. -1.
         -2   -1    0    0    0  501 -0.00000000000E+00 -0.00000000000E+00 -0.16039742975E+02  0.16039742975E+02  0.00000000000E+00 0.  1.
         23    2    1    2    0    0 -0.16524930144E+02 -0.89063567774E+00  0.33391440186E+03  0.35695967570E+03  0.12509003060E+03 0.  0.
         23    2    1    2    0    0  0.16524930144E+02  0.89063567774E+00  0.27450299590E+03  0.28353720802E+03  0.69047715549E+02 0.  0.
          5    1    3    3  502    0 -0.55793918297E+02 -0.17356104112E+02  0.78295582207E+02  0.97784795659E+02  0.41800000000E+01 0. -1.
         -5    1    3    3    0  502  0.39268988152E+02  0.16465468435E+02  0.25561881965E+03  0.25917488004E+03  0.41800000000E+01 0. -1.
        -11    1    4    4    0    0 -0.25625574470E+02  0.71413258149E+01  0.13789978679E+03  0.14044222940E+03  0.00000000000E+00 0. -1.
         11    1    4    4    0    0  0.42150504614E+02 -0.62506901372E+01  0.13660320911E+03  0.14309497862E+03  0.00000000000E+00 0.  1.
</event>
<event>
 8    1  0.8619230E-006  0.1265814E+03  0.7561462E-02  0.1232618E+00
          1   -1    0    0  501    0  0.00000000000E+00  0.00000000000E+00  0.19436813435E+02  0.19436813435E+02  0.00000000000E+00 0. -1.
         -1   -1    0    0    0  501 -0.00000000000E+00 -0.00000000000E+00 -0.98638195016E+03  0.98638195016E+03  0.00000000000E+00 0.  1.
         23    2    1    2    0    0  0.18572976475E+02  0.81293048572E+02 -0.60233388460E+03  0.62081155359E+03  0.12508941334E+03 0.  0.
         23    2    1    2    0    0 -0.18572976475E+02 -0.81293048572E+02 -0.36461125212E+03  0.38500721000E+03  0.91299898027E+02 0.  0.
          5    1    3    3  502    0 -0.25854577343E+02 -0.15247831804E+02 -0.27425583539E+03  0.27592515505E+03  0.41800000000E+01 0.  1.
         -5    1    3    3    0  502  0.44427553818E+02  0.96540880377E+02 -0.32807804921E+03  0.34488639854E+03  0.41800000000E+01 0.  1.
        -11    1    4    4    0    0  0.51205048210E+01 -0.90820556764E+02 -0.21846340893E+03  0.23664499602E+03  0.00000000000E+00 0. -1.
         11    1    4    4    0    0 -0.23693481296E+02  0.95275081914E+01 -0.14614784319E+03  0.14836221398E+03  0.00000000000E+00 0.  1.
</event>
<event>
 8    1  0.8619230E-006  0.1176586E+03  0.7561462E-02  0.1247010E+00
          2   -1    0    0  501    0  0.00000000000E+00  0.00000000000E+00  0.31763113106E+03  0.31763113106E+03  0.00000000000E+00 0. -1.
         -2   -1    0    0    0  501 -0.00000000000E+00 -0.00000000000E+00 -0.55598329062E+02  0.55598329062E+02  0.00000000000E+00 0.  1.
         23    2    1    2    0    0 -0.67497287467E+02  0.36005156461E+02  0.13826603948E+03  0.20152973119E+03  0.12507789483E+03 0.  0.
         23    2    1    2    0    0  0.67497287467E+02 -0.36005156461E+02  0.12376676252E+03  0.17169972893E+03  0.91161013067E+02 0.  0.
          5    1    3    3  502    0 -0.39073349809E+02 -0.26813766258E+02  0.12145078134E+03  0.13043569073E+03  0.41800000000E+01 0. -1.
         -5    1    3    3    0  502 -0.28423937658E+02  0.62818922720E+02  0.16815258136E+02  0.71094040466E+02  0.41800000000E+01 0. -1.
        -11    1    4    4    0    0  0.14848214199E+02  0.30454046781E+02  0.29633132443E+02  0.45011564832E+02  0.00000000000E+00 0. -1.
         11    1    4    4    0    0  0.52649073268E+02 -0.66459203242E+02  0.94133630079E+02  0.12668816410E+03  0.00000000000E+00 0.  1.
</event>
<event>
 8    1  0.8619230E-006  0.1624353E+03  0.7561462E-02  0.1185974E+00
          2   -1    0    0  501    0  0.00000000000E+00  0.00000000000E+00  0.13044048855E+03  0.13044048855E+03  0.00000000000E+00 0. -1.
         -2   -1    0    0    0  501 -0.00000000000E+00 -0.00000000000E+00 -0.26128956530E+03  0.26128956530E+03  0.00000000000E+00 0.  1.
         23    2    1    2    0    0 -0.14553853774E+03  0.31603635045E+02 -0.73111766628E+02  0.20778166846E+03  0.12509050969E+03 0.  0.
         23    2    1    2    0    0  0.14553853774E+03 -0.31603635045E+02 -0.57737310121E+02  0.18394838539E+03  0.91231331210E+02 0.  0.
          5    1    3    3  502    0 -0.66056768374E+02  0.17843959454E+01 -0.98849193144E+02  0.11897611568E+03  0.41800000000E+01 0. -1.
         -5    1    3    3    0  502 -0.79481769361E+02  0.29819239099E+02  0.25737426516E+02  0.88805552782E+02  0.41800000000E+01 0. -1.
        -11    1    4    4    0    0  0.13886236678E+03 -0.54981454301E+02 -0.56243041932E+02  0.15959009052E+03  0.00000000000E+00 0. -1.
         11    1    4    4    0    0  0.66761709517E+01  0.23377819256E+02 -0.14942681883E+01  0.24358294874E+02  0.00000000000E+00 0.  1.
</event>
<event>
 8    1  0.8619230E-006  0.1012961E+03  0.7561462E-02  0.1277594E+00
          1   -1    0    0  501    0  0.00000000000E+00  0.00000000000E+00  0.45053251713E+03  0.45053251713E+03  0.00000000000E+00 0. -1.
         -1   -1    0    0    0  501 -0.00000000000E+00 -0.00000000000E+00 -0.40215531863E+02  0.40215531863E+02  0.00000000000E+00 0.  1.
         23    2    1    2    0    0 -0.84521524098E+00  0.71845661392E+02  0.17743245288E+03  0.22867459916E+03  0.12508910231E+03 0.  0.
         23    2    1    2    0    0  0.84521524098E+00 -0.71845661392E+02  0.23288453239E+03  0.26207344984E+03  0.96357533350E+02 0.  0.
          5    1    3    3  502    0 -0.26851355530E+02  0.86701425210E+02  0.17638982912E+03  0.19841617032E+03  0.41800000000E+01 0.  1.
         -5    1    3    3    0  502  0.26006140289E+02 -0.14855763818E+02  0.10426237563E+01  0.30258428837E+02  0.41800000000E+01 0.  1.
        -11    1    4    4    0    0 -0.18620914876E+02 -0.40787818129E+02  0.25718332279E+02  0.51689623657E+02  0.00000000000E+00 0.  1.
         11    1    4    4    0    0  0.19466130117E+02 -0.31057843262E+02  0.20716620011E+03  0.21038382618E+03  0.00000000000E+00 0. -1.
</event>
<event>
 8    1  0.8619230E-006  0.1557608E+03  0.7561462E-02  0.1193568E+00
         -1   -1    0    0    0  501 -0.00000000000E+00  0.00000000000E+00  0.25626198882E+03  0.25626198882E+03  0.00000000000E+00 0.  1.
          1   -1    0    0  501    0  0.00000000000E+00 -0.00000000000E+00 -0.12478482546E+03  0.12478482546E+03  0.00000000000E+00 0. -1.
         23    2    1    2    0    0  0.53023315714E+01 -0.12194554369E+03  0.14650254124E+03  0.22805560015E+03  0.12509009483E+03 0.  0.
         23    2    1    2    0    0 -0.53023315714E+01  0.12194554369E+03 -0.15025377887E+02  0.15299121413E+03  0.91003951976E+02 0.  0.
          5    1    3    3  502    0  0.51218459793E+02 -0.23344323928E+02  0.17131596036E+02  0.58985185139E+02  0.41800000000E+01 0. -1.
         -5    1    3    3    0  502 -0.45916128221E+02 -0.98601219759E+02  0.12937094521E+03  0.16907041501E+03  0.41800000000E+01 0. -1.
        -11    1    4    4    0    0  0.37450580099E+02  0.48900776584E+02 -0.27474630496E+02  0.67443956150E+02  0.00000000000E+00 0. -1.
         11    1    4    4    0    0 -0.42752911671E+02  0.73044767102E+02  0.12449252609E+02  0.85547257980E+02  0.00000000000E+00 0.  1.
</event>
<event>
 8    1  0.1046881E-005  0.1657978E+03  0.7561462E-02  0.1182302E+00
         -1   -1    0    0    0  501 -0.00000000000E+00  0.00000000000E+00  0.17471354635E+03  0.17471354635E+03  0.00000000000E+00 0.  1.
          1   -1    0    0  501    0  0.00000000000E+00 -0.00000000000E+00 -0.23145035976E+03  0.23145035976E+03  0.00000000000E+00 0. -1.
         23    2    1    2    0    0 -0.77048495656E+02  0.13713782153E+03  0.27361399975E+02  0.20282894821E+03  0.12509070008E+03 0.  0.
         23    2    1    2    0    0  0.77048495656E+02 -0.13713782153E+03 -0.84098213385E+02  0.20333495790E+03  0.97618352949E+02 0.  0.
          5    1    3    3  502    0 -0.64522647525E+01  0.50492213362E+02  0.66931609544E+02  0.84192684283E+02  0.41800000000E+01 0. -1.
         -5    1    3    3    0  502 -0.70596230904E+02  0.86645608170E+02 -0.39570209569E+02  0.11863626393E+03  0.41800000000E+01 0. -1.
        -11    1    4    4    0    0  0.47903478472E+02 -0.27505354266E+02  0.97675452725E+01  0.56095389326E+02  0.00000000000E+00 0.  1.
         11    1    4    4    0    0  0.29145017184E+02 -0.10963246727E+03 -0.93865758657E+02  0.14723956857E+03  0.00000000000E+00 0. -1.
</event>
<event>
 8    1  0.8619230E-006  0.1216585E+03  0.7561462E-02  0.1240386E+00
         -1   -1    0    0    0  501 -0.00000000000E+00  0.00000000000E+00  0.57830343436E+02  0.57830343436E+02  0.00000000000E+00 0.  1.
          1   -1    0    0  501    0  0.00000000000E+00 -0.00000000000E+00 -0.34969827372E+03  0.34969827372E+03  0.00000000000E+00 0. -1.
         23    2    1    2    0    0  0.83539232364E+02  0.83747438268E+01 -0.10825038625E+03  0.18551566886E+03  0.12509587360E+03 0.  0.
         23    2    1    2    0    0 -0.83539232364E+02 -0.83747438268E+01 -0.18361754404E+03  0.22201294830E+03  0.92333130864E+02 0.  0.
          5    1    3    3  502    0  0.39999076227E+02 -0.57288727779E+02 -0.65094466714E+02  0.95586015851E+02  0.41800000000E+01 0.  1.
         -5    1    3    3    0  502  0.43540156136E+02  0.65663471606E+02 -0.43155919535E+02  0.89929653011E+02  0.41800000000E+01 0.  1.
        -11    1    4    4    0    0 -0.68834937995E+02  0.11408379227E+02 -0.49253695613E+02  0.85406828397E+02  0.00000000000E+00 0.  1.
         11    1    4    4    0    0 -0.14704294369E+02 -0.19783123054E+02 -0.13436384843E+03  0.13660611990E+03  0.00000000000E+00 0. -1.
</event>
<event>
 8    1  0.8619230E-006  0.1104980E+03  0.7561462E-02  0.1259651E+00
          1   -1    0    0  501    0  0.00000000000E+00  0.00000000000E+00  0.52397216760E+02  0.52397216760E+02  0.00000000000E+00 0. -1.
         -1   -1    0    0    0  501 -0.00000000000E+00 -0.00000000000E+00 -0.36495974489E+03  0.36495974489E+03  0.00000000000E+00 0.  1.
         23    2    1    2    0    0 -0.33934013271E+02  0.58431455658E+02 -0.25131847415E+03  0.28874611911E+03  0.12509034171E+03 0.  0.
         23    2    1    2    0    0  0.33934013271E+02 -0.58431455658E+02 -0.61244053979E+02  0.12861084253E+03  0.90687167792E+02 0.  0.
          5    1    3    3  502    0 -0.46735460257E+02 -0.18401901703E+02 -0.16442448322E+03  0.17197591783E+03  0.41800000000E+01 0. -1.
         -5    1    3    3    0  502  0.12801446986E+02  0.76833357361E+02 -0.86893990922E+02  0.11677020128E+03  0.41800000000E+01 0. -1.
        -11    1    4    4    0    0  0.25008448462E+02  0.74594391197E+01 -0.56155929423E+02  0.61923776821E+02  0.00000000000E+00 0.  1.
         11    1    4    4    0    0  0.89255648090E+01 -0.65890894777E+02 -0.50881245569E+01  0.66687065712E+02  0.00000000000E+00 0. -1.
</event>
<event>
 8    1  0.8619230E-006  0.9559012E+02  0.7561462E-02  0.1289852E+00
          2   -1    0    0  501    0  0.00000000000E+00  0.00000000000E+00  0.17514146616E+02  0.17514146616E+02  0.00000000000E+00 0.  1.
         -2   -1    0    0    0  501 -0.00000000000E+00 -0.00000000000E+00 -0.78253064768E+03  0.78253064768E+03  0.00000000000E+00 0. -1.
         23    2    1    2    0    0 -0.38225319482E+02 -0.11063831438E+01 -0.50088284475E+03  0.51768017347E+03  0.12508692461E+03 0.  0.
         23    2    1    2    0    0  0.38225319482E+02  0.11063831438E+01 -0.26413365631E+03  0.28236462082E+03  0.92199737319E+02 0.  0.
          5    1    3    3  502    0  0.44207647752E+02 -0.79549969940E+01 -0.23143454983E+03  0.23579020623E+03  0.41800000000E+01 0. -1.
         -5    1    3    3    0  502 -0.82432967234E+02  0.68486138502E+01 -0.26944829491E+03  0.28188996724E+03  0.41800000000E+01 0. -1.
        -11    1    4    4    0    0 -0.38507673845E+01 -0.17006393759E+02 -0.35620936642E+01  0.17797032040E+02  0.00000000000E+00 0.  1.
         11    1    4    4    0    0  0.42076086866E+02  0.18112776903E+02 -0.26057156265E+03  0.26456758878E+03  0.00000000000E+00 0. -1.
</event>
<event>
 8    1  0.8619230E-006  0.1068335E+03  0.7561462E-02  0.1266549E+00
          1   -1    0    0  501    0  0.00000000000E+00  0.00000000000E+00  0.50972641800E+03  0.50972641800E+03  0.00000000000E+00 0. -1.
         -1   -1    0    0    0  501 -0.00000000000E+00 -0.00000000000E+00 -0.49948634980E+02  0.49948634980E+02  0.00000000000E+00 0.  1.
         23    2    1    2    0    0  0.60024713450E+01  0.33867443025E+02  0.41005775333E+02  0.12964308979E+03  0.11807973476E+03 0.  0.
         23    2    1    2    0    0 -0.60024713450E+01 -0.33867443025E+02  0.41877200769E+03  0.43003196319E+03  0.91512084347E+02 0.  0.
          5    1    3    3  502    0 -0.28961920314E+02 -0.30734637540E+02  0.36423695440E+02  0.55924670428E+02  0.41800000000E+01 0. -1.
         -5    1    3    3    0  502  0.34964391659E+02  0.64602080565E+02  0.45820798930E+01  0.73718419364E+02  0.41800000000E+01 0.  1.
        -11    1    4    4    0    0  0.33486499036E+02 -0.45493892640E+02  0.23218275175E+03  0.23895579109E+03  0.00000000000E+00 0. -1.
         11    1    4    4    0    0 -0.39488970381E+02  0.11626449615E+02  0.18658925594E+03  0.19107617210E+03  0.00000000000E+00 0.  1.
</event>
<event>
 8    1  0.8619230E-006  0.9057462E+02  0.7561462E-02  0.1301466E+00
          1   -1    0    0  501    0  0.00000000000E+00  0.00000000000E+00  0.33843231075E+02  0.33843231075E+02  0.00000000000E+00 0. -1.
         -1   -1    0    0    0  501 -0.00000000000E+00 -0.00000000000E+00 -0.44047416738E+03  0.44047416738E+03  0.00000000000E+00 0.  1.
         23    2    1    2    0    0  0.16648800115E+02  0.29913320833E+02 -0.31458484563E+03  0.34026778455E+03  0.12508617348E+03 0.  0.
         23    2    1    2    0    0 -0.16648800115E+02 -0.29913320833E+02 -0.92046090680E+02  0.13404961391E+03  0.91240489208E+02 0.  0.
          5    1    3    3  502    0 -0.47638967058E+02  0.23218663074E+02 -0.21498232454E+03  0.22145755748E+03  0.41800000000E+01 0. -1.
         -5    1    3    3    0  502  0.64287767174E+02  0.66946577593E+01 -0.99602521080E+02  0.11881022707E+03  0.41800000000E+01 0. -1.
        -11    1    4    4    0    0  0.11203037662E+02 -0.33325463924E+02 -0.99070213383E+02  0.10512374507E+03  0.00000000000E+00 0.  1.
         11    1    4    4    0    0 -0.27851837777E+02  0.34121430911E+01  0.70241227034E+01  0.28925868834E+02  0.00000000000E+00 0. -1.
</event>
<event>
 8    1  0.8619230E-006  0.1215242E+03  0.7561462E-02  0.1240604E+00
         -2   -1    0    0    0  501 -0.00000000000E+00  0.00000000000E+00  0.21759586599E+02  0.21759586599E+02  0.00000000000E+00 0.  1.
          2   -1    0    0  501    0  0.00000000000E+00 -0.00000000000E+00 -0.81611483435E+03  0.81611483435E+03  0.00000000000E+00 0. -1.
         23    2    1    2    0    0 -0.64990798953E+02  0.17524140185E+02 -0.31584044169E+03  0.34631454810E+03  0.12509069582E+03 0.  0.
         23    2    1    2    0    0  0.64990798953E+02 -0.17524140185E+02 -0.47851480606E+03  0.49155987285E+03  0.90132067197E+02 0.  0.
          5    1    3    3  502    0  0.26701245466E+02  0.29239905254E+02 -0.16172426132E+03  0.16655370805E+03  0.41800000000E+01 0.  1.
         -5    1    3    3    0  502 -0.91692044419E+02 -0.11715765069E+02 -0.15411618038E+03  0.17976084005E+03  0.41800000000E+01 0.  1.
        -11    1    4    4    0    0  0.47861278650E+02 -0.52934367659E+02 -0.26438271502E+03  0.27384479049E+03  0.00000000000E+00 0.  1.
         11    1    4    4    0    0  0.17129520303E+02  0.35410227474E+02 -0.21413209104E+03  0.21771508236E+03  0.00000000000E+00 0. -1.
</event>
<event>
 8    1  0.8619230E-006  0.1468595E+03  0.7561462E-02  0.1204386E+00
         -1   -1    0    0    0  501 -0.00000000000E+00  0.00000000000E+00  0.20565241045E+02  0.20565241045E+02  0.00000000000E+00 0.  1.
          1   -1    0    0  501    0  0.00000000000E+00 -0.00000000000E+00 -0.12253079532E+04  0.12253079532E+04  0.00000000000E+00 0. -1.
         23    2    1    2    0    0  0.95736966273E+02 -0.56291956229E+02 -0.51446796242E+03  0.54097946578E+03  0.12508855660E+03 0.  0.
         23    2    1    2    0    0 -0.95736966273E+02  0.56291956229E+02 -0.69027474973E+03  0.70489372846E+03  0.89786342276E+02 0.  0.
          5    1    3    3  502    0  0.72596839267E+02  0.16605790978E+02 -0.37019026568E+03  0.37762992277E+03  0.41800000000E+01 0.  1.
         -5    1    3    3    0  502  0.23140127006E+02 -0.72897747207E+02 -0.14427769674E+03  0.16334954301E+03  0.41800000000E+01 0.  1.
        -11    1    4    4    0    0 -0.28682894033E+02 -0.24371744642E+02 -0.16343405944E+03  0.16771220030E+03  0.00000000000E+00 0.  1.
         11    1    4    4    0    0 -0.67054072240E+02  0.80663700871E+02 -0.52684069029E+03  0.53718152815E+03  0.00000000000E+00 0. -1.
</event>
<event>
 8    1  0.8619230E-006  0.1400397E+03  0.7561462E-02  0.1213276E+00
         -1   -1    0    0    0  501 -0.00000000000E+00  0.00000000000E+00  0.16271168664E+03  0.16271168664E+03  0.00000000000E+00 0.  1.
          1   -1    0    0  501    0  0.00000000000E+00 -0.00000000000E+00 -0.15348752214E+03  0.15348752214E+03  0.00000000000E+00 0. -1.
         23    2    1    2    0    0  0.10681183613E+03 -0.50517735435E+01  0.47367801470E+02  0.17124810977E+03  0.12509163734E+03 0.  0.
         23    2    1    2    0    0 -0.10681183613E+03  0.50517735435E+01 -0.38143636974E+02  0.14495109900E+03  0.90119894069E+02 0.  0.
          5    1    3    3  502    0 -0.19963724492E+02 -0.11085662197E+01  0.39050253195E+02  0.44070101988E+02  0.41800000000E+01 0. -1.
         -5    1    3    3    0  502  0.12677556062E+03 -0.39432073238E+01  0.83175482750E+01  0.12717800778E+03  0.41800000000E+01 0. -1.
        -11    1    4    4    0    0 -0.60202049198E+02  0.41885818682E+02 -0.43554886004E+02  0.85297928633E+02  0.00000000000E+00 0. -1.
         11    1    4    4    0    0 -0.46609786931E+02 -0.36834045138E+02  0.54112490292E+01  0.59653170369E+02  0.00000000000E+00 0.  1.
</event>
<event>
 8    1  0.8619230E-006  0.1319240E+03  0.7561462E-02  0.1224629E+00
          1   -1    0    0  501    0  0.00000000000E+00  0.00000000000E+00  0.45086776337E+03  0.45086776337E+03  0.00000000000E+00 0. -1.
         -1   -1    0    0    0  501 -0.00000000000E+00 -0.00000000000E+00 -0.85698411726E+02  0.85698411726E+02  0.00000000000E+00 0.  1.
         23    2    1    2    0    0  0.11178767064E+03 -0.43782951414E+02  0.39847700932E+02  0.17786970942E+03  0.12504544821E+03 0.  0.
         23    2    1    2    0    0 -0.11178767064E+03  0.43782951414E+02  0.32532165071E+03  0.35869646567E+03  0.91736295554E+02 0.  0.
          5    1    3    3  502    0 -0.41200578667E+01  0.12270250266E+02  0.46926042853E+02  0.48857546155E+02  0.41800000000E+01 0.  1.
         -5    1    3    3    0  502  0.11590772851E+03 -0.56053201680E+02 -0.70783419217E+01  0.12901216327E+03  0.41800000000E+01 0.  1.
        -11    1    4    4    0    0 -0.88815037085E+02  0.42392807763E+02  0.32038356364E+03  0.33515800574E+03  0.00000000000E+00 0. -1.
         11    1    4    4    0    0 -0.22972633557E+02  0.13901436509E+01  0.49380870704E+01  0.23538459929E+02  0.00000000000E+00 0.  1.
</event>
<event>
 8    1  0.8619230E-006  0.1516296E+03  0.7561462E-02  0.1198485E+00
          2   -1    0    0  501    0  0.00000000000E+00  0.00000000000E+00  0.38452833273E+03  0.38452833273E+03  0.00000000000E+00 0. -1.
         -2   -1    0    0    0  501 -0.00000000000E+00 -0.00000000000E+00 -0.76548373495E+02  0.76548373495E+02  0.00000000000E+00 0.  1.
         23    2    1    2    0    0  0.48580907895E+02 -0.12307829373E+03  0.18305254686E+03  0.25813746448E+03  0.12497337579E+03 0.  0.
         23    2    1    2    0    0 -0.48580907895E+02  0.12307829373E+03  0.12492741238E+03  0.20293924175E+03  0.89828205353E+02 0.  0.
          5    1    3    3  502    0  0.16864691884E+02  0.31075446394E+01  0.10474537138E+03  0.10622212524E+03  0.41800000000E+01 0. -1.
         -5    1    3    3    0  502  0.31716216012E+02 -0.12618583837E+03  0.78307175483E+02  0.15191533924E+03  0.41800000000E+01 0.  1.
        -11    1    4    4    0    0  0.18840780804E+02  0.60780262801E+02  0.75297972937E+02  0.98584989201E+02  0.00000000000E+00 0. -1.
         11    1    4    4    0    0 -0.67421688699E+02  0.62298030933E+02  0.49629439442E+02  0.10435425255E+03  0.00000000000E+00 0.  1.
</event>
<event>
 8    1  0.8619230E-006  0.1094524E+03  0.7561462E-02  0.1261587E+00
          1   -1    0    0  501    0  0.00000000000E+00  0.00000000000E+00  0.12538648201E+03  0.12538648201E+03  0.00000000000E+00 0. -1.
         -1   -1    0    0    0  501 -0.00000000000E+00 -0.00000000000E+00 -0.14535086122E+03  0.14535086122E+03  0.00000000000E+00 0.  1.
         23    2    1    2    0    0  0.35877502000E+02 -0.56492801752E+02 -0.54426735328E+02  0.15194607547E+03  0.12508680399E+03 0.  0.
         23    2    1    2    0    0 -0.35877502000E+02  0.56492801752E+02  0.34462356110E+02  0.11879126776E+03  0.91897113708E+02 0.  0.
          5    1    3    3  502    0 -0.44031868691E+02 -0.19309935076E+02  0.24980122250E-01  0.48261289633E+02  0.41800000000E+01 0. -1.
         -5    1    3    3    0  502  0.79909370691E+02 -0.37182866677E+02 -0.54451715450E+02  0.10368478584E+03  0.41800000000E+01 0. -1.
        -11    1    4    4    0    0 -0.58541792640E+01  0.51668881876E+02  0.59774024220E+02  0.79226755207E+02  0.00000000000E+00 0. -1.
         11    1    4    4    0    0 -0.30023322737E+02  0.48239198765E+01 -0.25311668110E+02  0.39564512554E+02  0.00000000000E+00 0.  1.
</event>
<event>
 8    1  0.8619230E-006  0.1255021E+03  0.7561462E-02  0.1234287E+00
         -2   -1    0    0    0  501 -0.00000000000E+00  0.00000000000E+00  0.34656986887E+02  0.34656986887E+02  0.00000000000E+00 0.  1.
          2   -1    0    0  501    0  0.00000000000E+00 -0.00000000000E+00 -0.54564372342E+03  0.54564372342E+03  0.00000000000E+00 0. -1.
         23    2    1    2    0    0 -0.61709851576E+02 -0.19290425358E+02 -0.16420392737E+03  0.21631250297E+03  0.12509173787E+03 0.  0.
         23    2    1    2    0    0  0.61709851576E+02  0.19290425358E+02 -0.34678280916E+03  0.36398820734E+03  0.89715506239E+02 0.  0.
          5    1    3    3  502    0 -0.63047036146E+02 -0.67412351580E+02 -0.10399029645E+03  0.13910718195E+03  0.41800000000E+01 0.  1.
         -5    1    3    3    0  502  0.13371845706E+01  0.48121926222E+02 -0.60213630921E+02  0.77205321025E+02  0.41800000000E+01 0.  1.
        -11    1    4    4    0    0  0.99915315605E+00  0.44528666382E+02 -0.12713099299E+03  0.13470742301E+03  0.00000000000E+00 0.  1.
         11    1    4    4    0    0  0.60710698420E+02 -0.25238241024E+02 -0.21965181617E+03  0.22928078432E+03  0.00000000000E+00 0. -1.
</event>
<event>
 8    1  0.8916317E-006  0.1473659E+03  0.7561462E-02  0.1203748E+00
         -2   -1    0    0    0  501 -0.00000000000E+00  0.00000000000E+00  0.61424338292E+02  0.61424338292E+02  0.00000000000E+00 0.  1.
          2   -1    0    0  501    0  0.00000000000E+00 -0.00000000000E+00 -0.47640279425E+03  0.47640279425E+03  0.00000000000E+00 0. -1.
         23    2    1    2    0    0  0.11253632938E+03  0.58571561914E+02 -0.16077065940E+03  0.23997902267E+03  0.12509065953E+03 0.  0.
         23    2    1    2    0    0 -0.11253632938E+03 -0.58571561914E+02 -0.25420779655E+03  0.29784810987E+03  0.89425049218E+02 0.  0.
          5    1    3    3  502    0  0.46957317381E+02 -0.15517877754E+02  0.17506595359E+01  0.49662172671E+02  0.41800000000E+01 0.  1.
         -5    1    3    3    0  502  0.65579012000E+02  0.74089439668E+02 -0.16252131894E+03  0.19031685000E+03  0.41800000000E+01 0.  1.
        -11    1    4    4    0    0 -0.71748570183E+02  0.34562620522E+01 -0.74887999652E+02  0.10376904916E+03  0.00000000000E+00 0. -1.
         11    1    4    4    0    0 -0.40787759198E+02 -0.62027823966E+02 -0.17931979690E+03  0.19407906071E+03  0.00000000000E+00 0.  1.
</event>
<event>
 8    1  0.1051408E-005  0.2152550E+03  0.7561462E-02  0.1137471E+00
         -2   -1    0    0    0  501 -0.00000000000E+00  0.00000000000E+00  0.18844558055E+03  0.18844558055E+03  0.00000000000E+00 0.  1.
          2   -1    0    0  501    0  0.00000000000E+00 -0.00000000000E+00 -0.26933007921E+03  0.26933007921E+03  0.00000000000E+00 0. -1.
         23    2    1    2    0    0 -0.17243617957E+03  0.86455301148E+02 -0.51636479875E-01  0.22990462579E+03  0.12508948466E+03 0.  0.
         23    2    1    2    0    0  0.17243617957E+03 -0.86455301148E+02 -0.80832862177E+02  0.22787103397E+03  0.90457179894E+02 0.  0.
          5    1    3    3  502    0 -0.74465748016E+02  0.93792679112E+02  0.36075602814E+02  0.12514445973E+03  0.41800000000E+01 0.  1.
         -5    1    3    3    0  502 -0.97970431553E+02 -0.73373779642E+01 -0.36127239294E+02  0.10476016606E+03  0.41800000000E+01 0.  1.
        -11    1    4    4    0    0  0.17624529580E+03 -0.60845146682E+02 -0.76873657304E+02  0.20167819752E+03  0.00000000000E+00 0. -1.
         11    1    4    4    0    0 -0.38091162322E+01 -0.25610154466E+02 -0.39592048732E+01  0.26192836453E+02  0.00000000000E+00 0.  1.
</event>
<event>
 8    1  0.8619230E-006  0.1167459E+03  0.7561462E-02  0.1248564E+00
         -1   -1    0    0    0  501 -0.00000000000E+00  0.00000000000E+00  0.15774661852E+02  0.15774661852E+02  0.00000000000E+00 0.  1.
          1   -1    0    0  501    0  0.00000000000E+00 -0.00000000000E+00 -0.92819978225E+03  0.92819978225E+03  0.00000000000E+00 0. -1.
         23    2    1    2    0    0 -0.53677447084E+02 -0.31923502113E-01 -0.52779946484E+03  0.54506969785E+03  0.12508969218E+03 0.  0.
         23    2    1    2    0    0  0.53677447084E+02  0.31923502113E-01 -0.38462565556E+03  0.39890474625E+03  0.91141825309E+02 0.  0.
          5    1    3    3  502    0 -0.73166563689E+01 -0.56176986231E+02 -0.15220540898E+03  0.16246029105E+03  0.41800000000E+01 0.  1.
         -5    1    3    3    0  502 -0.46360790715E+02  0.56145062729E+02 -0.37559405585E+03  0.38260940681E+03  0.41800000000E+01 0.  1.
        -11    1    4    4    0    0 -0.55935952935E+01 -0.34638899388E+02 -0.95644888769E+02  0.10187780134E+03  0.00000000000E+00 0.  1.
         11    1    4    4    0    0  0.59271042378E+02  0.34670822890E+02 -0.28898076679E+03  0.29702694490E+03  0.00000000000E+00 0. -1.
</event>
<event>
 8    1  0.8619230E-006  0.1502593E+03  0.7561462E-02  0.1200155E+00
          2   -1    0    0  501    0  0.00000000000E+00  0.00000000000E+00  0.53204189223E+03  0.53204189223E+03  0.00000000000E+00 0. -1.
         -2   -1    0    0    0  501 -0.00000000000E+00 -0.00000000000E+00 -0.54867096649E+02  0.54867096649E+02  0.00000000000E+00 0.  1.
         23    2    1    2    0    0 -0.29053138884E+02  0.12548941893E+03  0.22744532917E+03  0.28977791564E+03  0.12509269959E+03 0.  0.
         23    2    1    2    0    0  0.29053138884E+02 -0.12548941893E+03  0.24972946641E+03  0.29713107323E+03  0.96593939487E+02 0.  0.
          5    1    3    3  502    0  0.23921681936E+02  0.25117480144E+00  0.10156747135E+03  0.10443052040E+03  0.41800000000E+01 0. -1.
         -5    1    3    3    0  502 -0.52974820820E+02  0.12523824413E+03  0.12587785782E+03  0.18534739524E+03  0.41800000000E+01 0. -1.
        -11    1    4    4    0    0  0.25168368064E+00 -0.10461886973E+03  0.23749582493E+03  0.25951770288E+03  0.00000000000E+00 0. -1.
         11    1    4    4    0    0  0.28801455203E+02 -0.20870549195E+02  0.12233641481E+02  0.37613370354E+02  0.00000000000E+00 0.  1.
</event>
<event>
 8    1  0.8619230E-006  0.9607538E+02  0.7561462E-02  0.1288772E+00
         -2   -1    0    0    0  501 -0.00000000000E+00  0.00000000000E+00  0.40454028652E+03  0.40454028652E+03  0.00000000000E+00 0.  1.
          2   -1    0    0  501    0  0.00000000000E+00 -0.00000000000E+00 -0.32973769289E+02  0.32973769289E+02  0.00000000000E+00 0. -1.
         23    2    1    2    0    0  0.21870697921E+02  0.36696796808E+02  0.33037173095E+03  0.35583360310E+03  0.12508832944E+03 0.  0.
         23    2    1    2    0    0 -0.21870697921E+02 -0.36696796808E+02  0.41194786278E+02  0.81680452706E+02  0.56122220325E+02 0.  0.
          5    1    3    3  502    0 -0.42923632042E+02 -0.15765520108E+02  0.84384914231E+02  0.96069120751E+02  0.41800000000E+01 0.  1.
         -5    1    3    3    0  502  0.64794329963E+02  0.52462316916E+02  0.24598681672E+03  0.25976448235E+03  0.41800000000E+01 0.  1.
        -11    1    4    4    0    0  0.14059690031E+02 -0.15972551510E+02  0.33206569813E+02  0.39439492444E+02  0.00000000000E+00 0.  1.
         11    1    4    4    0    0 -0.35930387952E+02 -0.20724245298E+02  0.79882164651E+01  0.42240960262E+02  0.00000000000E+00 0. -1.
</event>
<event>
 8    1  0.8619230E-006  0.2120123E+03  0.7561462E-02  0.1139982E+00
         -1   -1    0    0    0  501 -0.00000000000E+00  0.00000000000E+00  0.75583958677E+02  0.75583958677E+02  0.00000000000E+00 0.  1.
          1   -1    0    0  501    0  0.00000000000E+00 -0.00000000000E+00 -0.69029568280E+03  0.69029568280E+03  0.00000000000E+00 0. -1.
         23    2    1    2    0    0  0.18020824210E+03 -0.83939614607E+02 -0.37273042819E+03  0.44056425046E+03  0.12509203517E+03 0.  0.
         23    2    1    2    0    0 -0.18020824210E+03  0.83939614607E+02 -0.24198129593E+03  0.32531539102E+03  0.88058427373E+02 0.  0.
          5    1    3    3  502    0  0.82963497741E+02 -0.96223269827E+02 -0.14641066420E+03  0.19389537025E+03  0.41800000000E+01 0.  1.
         -5    1    3    3    0  502  0.97244744356E+02  0.12283655220E+02 -0.22631976399E+03  0.24666888021E+03  0.41800000000E+01 0.  1.
        -11    1    4    4    0    0 -0.12688135019E+03  0.59068600325E+02 -0.10114053426E+03  0.17267710978E+03  0.00000000000E+00 0. -1.
         11    1    4    4    0    0 -0.53326891905E+02  0.24871014282E+02 -0.14084076167E+03  0.15263828124E+03  0.00000000000E+00 0.  1.
</event>
<event>
 8    1  0.8619230E-006  0.1040920E+03  0.7561462E-02  0.1271919E+00
         -4   -1    0    0    0  501 -0.00000000000E+00  0.00000000000E+00  0.72675775845E+02  0.72675775845E+02  0.00000000000E+00 0. -1.
          4   -1    0    0  501    0  0.00000000000E+00 -0.00000000000E+00 -0.19175012011E+03  0.19175012011E+03  0.00000000000E+00 0.  1.
         23    2    1    2    0    0 -0.99576749339E+01  0.28350005314E+02 -0.51941052803E+02  0.13874438230E+03  0.12509697264E+03 0.  0.
         23    2    1    2    0    0  0.99576749339E+01 -0.28350005314E+02 -0.67133291459E+02  0.12568151365E+03  0.10191214824E+03 0.  0.
          5    1    3    3  502    0 -0.31897905669E+02 -0.27241936312E+02  0.18701826500E+02  0.46117569261E+02  0.41800000000E+01 0. -1.
         -5    1    3    3    0  502  0.21940230735E+02  0.55591941626E+02 -0.70642879303E+02  0.92626813044E+02  0.41800000000E+01 0. -1.
        -11    1    4    4    0    0  0.23004948715E+01  0.38631514797E+02 -0.27518013504E+02  0.47486074584E+02  0.00000000000E+00 0.  1.
         11    1    4    4    0    0  0.76571800624E+01 -0.66981520112E+02 -0.39615277955E+02  0.78195439064E+02  0.00000000000E+00 0. -1.
</event>
<event>
 8    1  0.8619230E-006  0.9027217E+02  0.7561462E-02  0.1302194E+00
          1   -1    0    0  501    0  0.00000000000E+00  0.00000000000E+00  0.74285887078E+03  0.74285887078E+03  0.00000000000E+00 0. -1.
         -1   -1    0    0    0  501 -0.00000000000E+00 -0.00000000000E+00 -0.17814174807E+02  0.17814174807E+02  0.00000000000E+00 0.  1.
         23    2    1    2    0    0 -0.24209149716E+02  0.78381949236E+01  0.31864984330E+03  0.34326809766E+03  0.12509094295E+03 0.  0.
         23    2    1    2    0    0  0.24209149716E+02 -0.78381949236E+01  0.40639485267E+03  0.41740494793E+03  0.91774691737E+02 0.  0.
          5    1    3    3  502    0 -0.22515401043E+02  0.43609482138E+02  0.43345086921E+02  0.65612492535E+02  0.41800000000E+01 0.  1.
         -5    1    3    3    0  502 -0.16937486731E+01 -0.35771287214E+02  0.27530475637E+03  0.27765560512E+03  0.41800000000E+01 0.  1.
        -11    1    4    4    0    0  0.57894684149E+02 -0.16972664491E+02  0.25924469361E+03  0.26617226932E+03  0.00000000000E+00 0.  1.
         11    1    4    4    0    0 -0.33685534432E+02  0.91344695674E+01  0.14715015907E+03  0.15123267861E+03  0.00000000000E+00 0. -1.
</event>
<event>
 8    1  0.8619230E-006  0.1313169E+03  0.7561462E-02  0.1225515E+00
          2   -1    0    0  501    0  0.00000000000E+00  0.00000000000E+00  0.11654198385E+03  0.11654198385E+03  0.00000000000E+00 0. -1.
         -2   -1    0    0    0  501 -0.00000000000E+00 -0.00000000000E+00 -0.18999222582E+03  0.18999222582E+03  0.00000000000E+00 0.  1.
         23    2    1    2    0    0  0.97380433551E+02  0.23150164418E+02 -0.32982171430E+02  0.16356628332E+03  0.12508887423E+03 0.  0.
         23    2    1    2    0    0 -0.97380433551E+02 -0.23150164418E+02 -0.40468070532E+02  0.14296792635E+03  0.93719177766E+02 0.  0.
          5    1    3    3  502    0 -0.12379893910E+02 -0.21054325986E+02  0.21894242134E+02  0.33066246454E+02  0.41800000000E+01 0.  1.
         -5    1    3    3    0  502  0.10976032746E+03  0.44204490403E+02 -0.54876413564E+02  0.13050003687E+03  0.41800000000E+01 0.  1.
        -11    1    4    4    0    0 -0.10637147821E+03 -0.15200991424E+02 -0.57703522251E+02  0.12196580667E+03  0.00000000000E+00 0.  1.
         11    1    4    4    0    0  0.89910446542E+01 -0.79491729938E+01  0.17235451718E+02  0.21002119683E+02  0.00000000000E+00 0. -1.
</event>
<event>
 8    1  0.8619230E-006  0.2264259E+03  0.7561462E-02  0.1129181E+00
         -1   -1    0    0    0  501 -0.00000000000E+00  0.00000000000E+00  0.91252305736E+02  0.91252305736E+02  0.00000000000E+00 0.  1.
          1   -1    0    0  501    0  0.00000000000E+00 -0.00000000000E+00 -0.70665919497E+03  0.70665919497E+03  0.00000000000E+00 0. -1.
         23    2    1    2    0    0  0.17580686507E+03  0.13212325636E+03 -0.21623257147E+03  0.33282321416E+03  0.12510059250E+03 0.  0.
         23    2    1    2    0    0 -0.17580686507E+03 -0.13212325636E+03 -0.39917431777E+03  0.46508828654E+03  0.92748960321E+02 0.  0.
          5    1    3    3  502    0  0.44816239706E+02  0.70799117133E+02 -0.15404318959E+02  0.85298158074E+02  0.41800000000E+01 0. -1.
         -5    1    3    3    0  502  0.13099062536E+03  0.61324139226E+02 -0.20082825251E+03  0.24752505609E+03  0.41800000000E+01 0. -1.
        -11    1    4    4    0    0 -0.10399350810E+03 -0.50702131094E+02 -0.12562909165E+03  0.17078648803E+03  0.00000000000E+00 0.  1.
         11    1    4    4    0    0 -0.71813356970E+02 -0.81421125265E+02 -0.27354522612E+03  0.29430179852E+03  0.00000000000E+00 0. -1.
</event>
<event>
 8    1  0.8619230E-006  0.1106828E+03  0.7561462E-02  0.1259311E+00
         -1   -1    0    0    0  501 -0.00000000000E+00  0.00000000000E+00  0.79533644098E+03  0.79533644098E+03  0.00000000000E+00 0.  1.
          1   -1    0    0  501    0  0.00000000000E+00 -0.00000000000E+00 -0.16719271948E+02  0.16719271948E+02  0.00000000000E+00 0. -1.
         23    2    1    2    0    0 -0.37162603942E+02 -0.35317982120E+01  0.49734275777E+03  0.51418943262E+03  0.12508965259E+03 0.  0.
         23    2    1    2    0    0  0.37162603942E+02  0.35317982120E+01  0.28127441126E+03  0.29786628030E+03  0.90639361103E+02 0.  0.
          5    1    3    3  502    0 -0.79501007951E+02 -0.23630353771E+02  0.33737264418E+03  0.34744291232E+03  0.41800000000E+01 0.  1.
         -5    1    3    3    0  502  0.42338404008E+02  0.20098555559E+02  0.15997011359E+03  0.16674652030E+03  0.41800000000E+01 0.  1.
        -11    1    4    4    0    0 -0.15813609693E+02  0.28584912995E+02  0.15839392818E+03  0.16172756100E+03  0.00000000000E+00 0.  1.
         11    1    4    4    0    0  0.52976213636E+02 -0.25053114784E+02  0.12288048308E+03  0.13613871931E+03  0.00000000000E+00 0. -1.
</event>
<event>
 8    1  0.8619230E-006  0.1504359E+03  0.7561462E-02  0.1199938E+00
          1   -1    0    0  501    0  0.00000000000E+00  0.00000000000E+00  0.46718942415E+03  0.46718942415E+03  0.00000000000E+00 0. -1.
         -1   -1    0    0    0  501 -0.00000000000E+00 -0.00000000000E+00 -0.53935983390E+02  0.53935983390E+02  0.00000000000E+00 0.  1.
         23    2    1    2    0    0 -0.98232237405E+02 -0.45468967697E+02  0.15344104017E+03  0.22562635404E+03  0.12508436888E+03 0.  0.
         23    2    1    2    0    0  0.98232237405E+02  0.45468967697E+02  0.25981240058E+03  0.29549905350E+03  0.90001153518E+02 0.  0.
          5    1    3    3  502    0 -0.11926198834E+03 -0.68001703540E+01  0.12554969047E+03  0.17334895834E+03  0.41800000000E+01 0.  1.
         -5    1    3    3    0  502  0.21029750938E+02 -0.38668797343E+02  0.27891349700E+02  0.52277395694E+02  0.41800000000E+01 0.  1.
        -11    1    4    4    0    0  0.86980057481E+02 -0.33343501743E+01  0.13089339676E+03  0.15719328741E+03  0.00000000000E+00 0.  1.
         11    1    4    4    0    0  0.11252179924E+02  0.48803317871E+02  0.12891900382E+03  0.13830576610E+03  0.00000000000E+00 0. -1.
</event>
<event>
 8    1  0.8619230E-006  0.1414325E+03  0.7561462E-02  0.1211414E+00
         -1   -1    0    0    0  501 -0.00000000000E+00  0.00000000000E+00  0.34026772782E+03  0.34026772782E+03  0.00000000000E+00 0.  1.
          1   -1    0    0  501    0  0.00000000000E+00 -0.00000000000E+00 -0.83642218840E+02  0.83642218840E+02  0.00000000000E+00 0. -1.
         23    2    1    2    0    0  0.41252459961E+02 -0.10605247804E+03  0.19938521604E+03  0.26143988002E+03  0.12508977952E+03 0.  0.
         23    2    1    2    0    0 -0.41252459961E+02  0.10605247804E+03  0.57240292946E+02  0.16247006664E+03  0.10085225762E+03 0.  0.
          5    1    3    3  502    0 -0.37946337422E+02 -0.37824201819E+01  0.32678324183E+02  0.50394210953E+02  0.41800000000E+01 0.  1.
         -5    1    3    3    0  502  0.79198797383E+02 -0.10227005786E+03  0.16670689186E+03  0.21104566907E+03  0.41800000000E+01 0.  1.
        -11    1    4    4    0    0 -0.38019743852E+02  0.77235585848E+02 -0.12455421542E+02  0.86982608432E+02  0.00000000000E+00 0. -1.
         11    1    4    4    0    0 -0.32327161097E+01  0.28816892191E+02  0.69695714488E+02  0.75487458210E+02  0.00000000000E+00 0.  1.
</event>
<event>
 7    1  0.8619230E-006  0.1005389E+03  0.7561462E-02  0.1279167E+00
          2   -1    0    0  501    0  0.00000000000E+00  0.00000000000E+00  0.34648057123E+03  0.34648057123E+03  0.00000000000E+00 0. -1.
         -2   -1    0    0    0  501 -0.00000000000E+00 -0.00000000000E+00 -0.77967669707E+02  0.77967669707E+02  0.00000000000E+00 0.  1.
         23    2    1    2    0    0 -0.34180182235E+02  0.67970752267E+02  0.15002331211E+03  0.19140473911E+03  0.91326184377E+02 0.  0.
          5    1    1    2  502    0  0.47453278756E+01 -0.45932050311E+02  0.16626630784E+03  0.17261004868E+03  0.41800000000E+01 0. -1.
         -5    1    1    2    0  502  0.29434854359E+02 -0.22038701955E+02 -0.47776718435E+02  0.60433453148E+02  0.41800000000E+01 0.  1.
        -11    1    3    3    0    0  0.30778144963E+02  0.26691923200E+02  0.65078035821E+02  0.76778276341E+02  0.00000000000E+00 0.  1.
         11    1    3    3    0    0 -0.64958327198E+02  0.41278829067E+02  0.84945276293E+02  0.11462646276E+03  0.00000000000E+00 0. -1.
</event>
<event>
 8    1  0.8619230E-006  0.1199876E+03  0.7561462E-02  0.1243118E+00
         -1   -1    0    0    0  501 -0.00000000000E+00  0.00000000000E+00  0.39979216719E+02  0.39979216719E+02  0.00000000000E+00 0.  1.
          1   -1    0    0  501    0  0.00000000000E+00 -0.00000000000E+00 -0.45393249072E+03  0.45393249072E+03  0.00000000000E+00 0. -1.
         23    2    1    2    0    0  0.44534532888E+02 -0.59696655907E+02 -0.18321148382E+03  0.23401113603E+03  0.12509096145E+03 0.  0.
         23    2    1    2    0    0 -0.44534532888E+02  0.59696655907E+02 -0.23074179018E+03  0.25990057141E+03  0.93592296350E+02 0.  0.
          5    1    3    3  502    0  0.61894355328E+02 -0.80138652126E+02 -0.85477663911E+02  0.13257834745E+03  0.41800000000E+01 0. -1.
         -5    1    3    3    0  502 -0.17359822440E+02  0.20441996219E+02 -0.97733819911E+02  0.10143278858E+03  0.41800000000E+01 0. -1.
        -11    1    4    4    0    0 -0.68834599172E+02  0.36584263388E+02 -0.11160282794E+03  0.13613155981E+03  0.00000000000E+00 0.  1.
         11    1    4    4    0    0  0.24300066283E+02  0.23112392519E+02 -0.11913896224E+03  0.12376901160E+03  0.00000000000E+00 0. -1.
</event>
<event>
 8    1  0.8619230E-006  0.1818963E+03  0.7561462E-02  0.1165980E+00
          1   -1    0    0  501    0  0.00000000000E+00  0.00000000000E+00  0.64917849337E+03  0.64917849337E+03  0.00000000000E+00 0. -1.
         -1   -1    0    0    0  501 -0.00000000000E+00 -0.00000000000E+00 -0.59342792507E+02  0.59342792507E+02  0.00000000000E+00 0.  1.
         23    2    1    2    0    0 -0.15583900648E+03  0.47119132334E+02  0.33044198365E+03  0.38903148838E+03  0.12509031065E+03 0.  0.
         23    2    1    2    0    0  0.15583900648E+03 -0.47119132334E+02  0.25939371721E+03  0.31948979750E+03  0.91008909466E+02 0.  0.
          5    1    3    3  502    0 -0.10436119551E+03 -0.63254803056E+01  0.28078232141E+03  0.29964554935E+03  0.41800000000E+01 0. -1.
         -5    1    3    3    0  502 -0.51477810968E+02  0.53444612639E+02  0.49659662243E+02  0.89385939031E+02  0.41800000000E+01 0. -1.
        -11    1    4    4    0    0  0.71622801104E+02  0.23024601491E+02  0.12705707559E+03  0.14765994165E+03  0.00000000000E+00 0.  1.
         11    1    4    4    0    0  0.84216205378E+02 -0.70143733824E+02  0.13233664162E+03  0.17182985584E+03  0.00000000000E+00 0. -1.
</event>
<event>
 8    1  0.8619230E-006  0.8976290E+02  0.7561462E-02  0.1303427E+00
         -2   -1    0    0    0  501 -0.00000000000E+00  0.00000000000E+00  0.26373443346E+02  0.26373443346E+02  0.00000000000E+00 0.  1.
          2   -1    0    0  501    0  0.00000000000E+00 -0.00000000000E+00 -0.54048943287E+03  0.54048943287E+03  0.00000000000E+00 0. -1.
         23    2    1    2    0    0  0.36490017631E+02  0.28159975070E+02 -0.25230396439E+03  0.28535825538E+03  0.12509011905E+03 0.  0.
         23    2    1    2    0    0 -0.36490017631E+02 -0.28159975070E+02 -0.26181202513E+03  0.28150462084E+03  0.92600267097E+02 0.  0.
          5    1    3    3  502    0  0.56099434820E+02  0.43726517972E+02 -0.24990271754E+03  0.25986149310E+03  0.41800000000E+01 0.  1.
         -5    1    3    3    0  502 -0.19609417189E+02 -0.15566542902E+02 -0.24012468519E+01  0.25496762282E+02  0.41800000000E+01 0.  1.
        -11    1    4    4    0    0 -0.36432971559E+02  0.15239921588E+02 -0.21107580793E+03  0.21473847657E+03  0.00000000000E+00 0.  1.
         11    1    4    4    0    0 -0.57046072473E-01 -0.43399896658E+02 -0.50736217198E+02  0.66766144263E+02  0.00000000000E+00 0. -1.
</event>
<event>
 8    1  0.8619230E-006  0.8210096E+02  0.7561462E-02  0.1323193E+00
         -1   -1    0    0    0  501 -0.00000000000E+00  0.00000000000E+00  0.37146326775E+02  0.37146326775E+02  0.00000000000E+00 0.  1.
          1   -1    0    0  501    0  0.00000000000E+00 -0.00000000000E+00 -0.61069682940E+03  0.61069682940E+03  0.00000000000E+00 0. -1.
         23    2    1    2    0    0 -0.12158189923E+02 -0.23913047720E+01 -0.87662934046E+02  0.15325131908E+03  0.12509051472E+03 0.  0.
         23    2    1    2    0    0  0.12158189923E+02  0.23913047720E+01 -0.48588756858E+03  0.49459183710E+03  0.91546797338E+02 0.  0.
          5    1    3    3  502    0  0.12380607643E+02  0.29368654058E+02  0.20283563109E+02  0.38009112318E+02  0.41800000000E+01 0. -1.
         -5    1    3    3    0  502 -0.24538797567E+02 -0.31759958830E+02 -0.10794649716E+03  0.11524220676E+03  0.41800000000E+01 0. -1.
        -11    1    4    4    0    0 -0.28027081444E+02  0.31440810566E+02 -0.19367528575E+03  0.19820231627E+03  0.00000000000E+00 0.  1.
         11    1    4    4    0    0  0.40185271367E+02 -0.29049505794E+02 -0.29221228283E+03  0.29638952083E+03  0.00000000000E+00 0. -1.
</event>
<event>
 8    1  0.8619230E-006  0.1735120E+03  0.7561462E-02  0.1174234E+00
          2   -1    0    0  501    0  0.00000000000E+00  0.00000000000E+00  0.90188054514E+03  0.90188054514E+03  0.00000000000E+00 0. -1.
         -2   -1    0    0    0  501 -0.00000000000E+00 -0.00000000000E+00 -0.36789574321E+02  0.36789574321E+02  0.00000000000E+00 0.  1.
         23    2    1    2    0    0  0.14632805989E+03  0.21872319718E+02  0.53662361941E+03  0.57052755296E+03  0.12508589165E+03 0.  0.
         23    2    1    2    0    0 -0.14632805989E+03 -0.21872319718E+02  0.32846735141E+03  0.36814256651E+03  0.75814568862E+02 0.  0.
          5    1    3    3  502    0 -0.74239571225E+01  0.37046608879E+02  0.13295297523E+03  0.13828062913E+03  0.41800000000E+01 0.  1.
         -5    1    3    3    0  502  0.15375201701E+03 -0.15174289161E+02  0.40367064418E+03  0.43224692383E+03  0.41800000000E+01 0.  1.
        -11    1    4    4    0    0 -0.85168950708E+02 -0.34697354228E+02  0.25829853641E+03  0.27418203892E+03  0.00000000000E+00 0. -1.
         11    1    4    4    0    0 -0.61159109180E+02  0.12825034510E+02  0.70168815000E+02  0.93960527587E+02  0.00000000000E+00 0.  1.
</event>
<event>
 8    1  0.8619230E-006  0.2774915E+03  0.7561462E-02  0.1097067E+00
          2   -1    0    0  501    0  0.00000000000E+00  0.00000000000E+00  0.98641022180E+03  0.98641022180E+03  0.00000000000E+00 0.  1.
         -2   -1    0    0    0  501 -0.00000000000E+00 -0.00000000000E+00 -0.94713611233E+02  0.94713611233E+02  0.00000000000E+00 0. -1.
         23    2    1    2    0    0  0.99862653036E+02 -0.23656945637E+03  0.23379829317E+03  0.36911586118E+03  0.12508884813E+03 0.  0.
         23    2    1    2    0    0 -0.99862653036E+02  0.23656945637E+03  0.65789831740E+03  0.71200797185E+03  0.90484798651E+02 0.  0.
          5    1    3    3  502    0  0.76984467377E+01 -0.17365188647E+03  0.13789504480E+03  0.22191610924E+03  0.41800000000E+01 0.  1.
         -5    1    3    3    0  502  0.92164206298E+02 -0.62917569900E+02  0.95903248368E+02  0.14719975194E+03  0.41800000000E+01 0.  1.
        -11    1    4    4    0    0 -0.40381730058E+02  0.18903016754E+03  0.51515779984E+03  0.55022781382E+03  0.00000000000E+00 0.  1.
         11    1    4    4    0    0 -0.59480922978E+02  0.47539288829E+02  0.14274051756E+03  0.16178015803E+03  0.00000000000E+00 0. -1.
</event>
<event>
 8    1  0.8619230E-006  0.1120110E+03  0.7561462E-02  0.1256890E+00
         -1   -1    0    0    0  501 -0.00000000000E+00  0.00000000000E+00  0.64296463854E+02  0.64296463854E+02  0.00000000000E+00 0.  1.
          1   -1    0    0  501    0  0.00000000000E+00 -0.00000000000E+00 -0.29952673027E+03  0.29952673027E+03  0.00000000000E+00 0. -1.
         23    2    1    2    0    0  0.56846572211E+02  0.38575956060E+02 -0.60683851117E+02  0.15508103448E+03  0.12509180753E+03 0.  0.
         23    2    1    2    0    0 -0.56846572211E+02 -0.38575956060E+02 -0.17454641530E+03  0.20874215965E+03  0.91581662809E+02 0.  0.
          5    1    3    3  502    0  0.77115408497E+02  0.54018479289E+02 -0.79363933112E+02  0.12321074877E+03  0.41800000000E+01 0. -1.
         -5    1    3    3    0  502 -0.20268836285E+02 -0.15442523229E+02  0.18680081995E+02  0.31870285712E+02  0.41800000000E+01 0. -1.
        -11    1    4    4    0    0  0.15383720791E+02 -0.26614113743E+02 -0.17269250736E+02  0.35258997953E+02  0.00000000000E+00 0.  1.
         11    1    4    4    0    0 -0.72230293002E+02 -0.11961842317E+02 -0.15727716456E+03  0.17348316170E+03  0.00000000000E+00 0. -1.
</event>
<event>
 8    1  0.8619230E-006  0.2395101E+03  0.7561462E-02  0.1120120E+00
         -1   -1    0    0    0  501 -0.00000000000E+00  0.00000000000E+00  0.88137158095E+02  0.88137158095E+02  0.00000000000E+00 0.  1.
          1   -1    0    0  501    0  0.00000000000E+00 -0.00000000000E+00 -0.75428378231E+03  0.75428378231E+03  0.00000000000E+00 0. -1.
         23    2    1    2    0    0  0.12259473289E+03  0.20055155844E+03 -0.32524373819E+03  0.42033255196E+03  0.12508224849E+03 0.  0.
         23    2    1    2    0    0 -0.12259473289E+03 -0.20055155844E+03 -0.34090288603E+03  0.42208838845E+03  0.81813408633E+02 0.  0.
          5    1    3    3  502    0  0.70140843983E+02  0.92505592811E+02 -0.25722758642E+03  0.28224196412E+03  0.41800000000E+01 0.  1.
         -5    1    3    3    0  502  0.52453888902E+02  0.10804596563E+03 -0.68016151770E+02  0.13809058784E+03  0.41800000000E+01 0.  1.
        -11    1    4    4    0    0 -0.14331994088E+02 -0.77346226271E+02 -0.69451190415E+02  0.10493480177E+03  0.00000000000E+00 0.  1.
         11    1    4    4    0    0 -0.10826273880E+03 -0.12320533217E+03 -0.27145169562E+03  0.31715358667E+03  0.00000000000E+00 0. -1.
</event>
<event>
 8    1  0.8619230E-006  0.1053971E+03  0.7561462E-02  0.1269339E+00
          1   -1    0    0  501    0  0.00000000000E+00  0.00000000000E+00  0.29009159965E+02  0.29009159965E+02  0.00000000000E+00 0. -1.
         -1   -1    0    0    0  501 -0.00000000000E+00 -0.00000000000E+00 -0.44016784486E+03  0.44016784486E+03  0.00000000000E+00 0.  1.
         23    2    1    2    0    0  0.84469916069E+01  0.33622812227E+02 -0.24535779410E+03  0.27757899100E+03  0.12509118252E+03 0.  0.
         23    2    1    2    0    0 -0.84469916069E+01 -0.33622812227E+02 -0.16580089079E+03  0.19159801383E+03  0.89543388068E+02 0.  0.
          5    1    3    3  502    0  0.59908454955E+02  0.35117884206E+02 -0.89330118690E+02  0.11322381053E+03  0.41800000000E+01 0. -1.
         -5    1    3    3    0  502 -0.51461463348E+02 -0.14950719792E+01 -0.15602767542E+03  0.16435518046E+03  0.41800000000E+01 0. -1.
        -11    1    4    4    0    0 -0.31335765661E+02 -0.51667220645E+02 -0.14072227006E+03  0.15314760589E+03  0.00000000000E+00 0.  1.
         11    1    4    4    0    0  0.22888774054E+02  0.18044408418E+02 -0.25078620726E+02  0.38450407935E+02  0.00000000000E+00 0. -1.
</event>
<event>
 7    1  0.8619230E-006  0.1713065E+03  0.7561462E-02  0.1176492E+00
         -2   -1    0    0    0  501 -0.00000000000E+00  0.00000000000E+00  0.20644664077E+03  0.20644664077E+03  0.00000000000E+00 0.  1.
          2   -1    0    0  501    0  0.00000000000E+00 -0.00000000000E+00 -0.36441459550E+03  0.36441459550E+03  0.00000000000E+00 0. -1.
         23    2    1    2    0    0 -0.15264881461E+03  0.56409651965E+02  0.12682071737E+03  0.24127673844E+03  0.12508901119E+03 0.  0.
          5    1    3    3  502    0 -0.14779782493E+03  0.28916488208E+02  0.48892062252E+02  0.15839276023E+03  0.41800000000E+01 0. -1.
         -5    1    3    3    0  502 -0.48509896807E+01  0.27493163756E+02  0.77928655118E+02  0.82883978203E+02  0.41800000000E+01 0. -1.
        -11    1    1    2    0    0  0.34656049349E+02 -0.49801356280E+01 -0.41097204363E+02  0.53989107363E+02  0.00000000000E+00 0. -1.
         11    1    1    2    0    0  0.11799276526E+03 -0.51429516337E+02 -0.24369146774E+03  0.27559539048E+03  0.00000000000E+00 0.  1.
</event>
<event>
 8    1  0.8619230E-006  0.1082700E+03  0.7561462E-02  0.1263807E+00
          2   -1    0    0  501    0  0.00000000000E+00  0.00000000000E+00  0.63427137323E+03  0.63427137323E+03  0.00000000000E+00 0.  1.
         -2   -1    0    0    0  501 -0.00000000000E+00 -0.00000000000E+00 -0.24323150293E+02  0.24323150293E+02  0.00000000000E+00 0. -1.
         23    2    1    2    0    0  0.43880229045E+02 -0.35717474439E+02  0.27218324482E+03  0.30484922262E+03  0.12509243497E+03 0.  0.
         23    2    1    2    0    0 -0.43880229045E+02  0.35717474439E+02  0.33776497811E+03  0.35374530091E+03  0.88596529233E+02 0.  0.
          5    1    3    3  502    0 -0.43317166929E+02 -0.51410326437E+01  0.71233206896E+02  0.83632824490E+02  0.41800000000E+01 0. -1.
         -5    1    3    3    0  502  0.87197395974E+02 -0.30576441796E+02  0.20095003793E+03  0.22121639813E+03  0.41800000000E+01 0. -1.
        -11    1    4    4    0    0 -0.54739221693E+02  0.14881956819E+02  0.31806483471E+03  0.32308372616E+03  0.00000000000E+00 0.  1.
         11    1    4    4    0    0  0.10858992648E+02  0.20835517620E+02  0.19700143404E+02  0.30661574747E+02  0.00000000000E+00 0. -1.
</event>
<event>
 8    1  0.8619230E-006  0.1039990E+03  0.7561462E-02  0.1272104E+00
         -2   -1    0    0    0  501 -0.00000000000E+00  0.00000000000E+00  0.38757799585E+02  0.38757799585E+02  0.00000000000E+00 0.  1.
          2   -1    0    0  501    0  0.00000000000E+00 -0.00000000000E+00 -0.32517781183E+03  0.32517781183E+03  0.00000000000E+00 0. -1.
         23    2    1    2    0    0  0.11633355387E+01  0.64643933573E+01 -0.11869717409E+03  0.17256726403E+03  0.12508916719E+03 0.  0.
         23    2    1    2    0    0 -0.11633355387E+01 -0.64643933573E+01 -0.16772283816E+03  0.19136834738E+03  0.91911654370E+02 0.  0.
          5    1    3    3  502    0 -0.60032896987E+02  0.91687107409E+01 -0.40364739475E+02  0.73039705436E+02  0.41800000000E+01 0. -1.
         -5    1    3    3    0  502  0.61196232526E+02 -0.27043173835E+01 -0.78332434614E+02  0.99527558598E+02  0.41800000000E+01 0. -1.
        -11    1    4    4    0    0 -0.15869384892E+02 -0.43272015590E+02 -0.54323791238E+02  0.71241694285E+02  0.00000000000E+00 0.  1.
         11    1    4    4    0    0  0.14706049354E+02  0.36807622233E+02 -0.11339904692E+03  0.12012665310E+03  0.00000000000E+00 0. -1.
</event>
<event>
 8    1  0.8619230E-006  0.1080494E+03  0.7561462E-02  0.1264225E+00
          2   -1    0    0  501    0  0.00000000000E+00  0.00000000000E+00  0.99219454193E+03  0.99219454193E+03  0.00000000000E+00 0. -1.
         -2   -1    0    0    0  501 -0.00000000000E+00 -0.00000000000E+00 -0.20791983448E+02  0.20791983448E+02  0.00000000000E+00 0.  1.
         23    2    1    2    0    0 -0.88935663544E+02  0.26962197951E+02  0.57279266973E+03  0.59361258666E+03  0.12509175903E+03 0.  0.
         23    2    1    2    0    0  0.88935663544E+02 -0.26962197951E+02  0.39860988876E+03  0.41937393872E+03  0.91368182080E+02 0.  0.
          5    1    3    3  502    0 -0.41836911505E+02  0.22903995065E+02  0.52088836084E+02  0.70750543453E+02  0.41800000000E+01 0. -1.
         -5    1    3    3    0  502 -0.47098752038E+02  0.40582028853E+01  0.52070383364E+03  0.52286204321E+03  0.41800000000E+01 0. -1.
        -11    1    4    4    0    0  0.64043674548E+02 -0.54173564864E+02  0.19237821636E+03  0.20987078289E+03  0.00000000000E+00 0. -1.
         11    1    4    4    0    0  0.24891988995E+02  0.27211366914E+02  0.20623167240E+03  0.20950315584E+03  0.00000000000E+00 0.  1.
</event>
<event>
 8    1  0.8619230E-006  0.9037377E+02  0.7561462E-02  0.1301949E+00
          2   -1    0    0  501    0  0.00000000000E+00  0.00000000000E+00  0.37605117583E+02  0.37605117583E+02  0.00000000000E+00 0.  1.
         -2   -1    0    0    0  501 -0.00000000000E+00 -0.00000000000E+00 -0.47855366871E+03  0.47855366871E+03  0.00000000000E+00 0. -1.
         23    2    1    2    0    0 -0.67375465734E+02 -0.86869607560E+01 -0.29733294701E+03  0.32965066518E+03  0.12509101888E+03 0.  0.
         23    2    1    2    0    0  0.67375465734E+02  0.86869607560E+01 -0.14361560411E+03  0.18650812111E+03  0.97698110660E+02 0.  0.
          5    1    3    3  502    0 -0.52434319562E+02  0.29588275966E+02 -0.48530171074E+02  0.77443358960E+02  0.41800000000E+01 0.  1.
         -5    1    3    3    0  502 -0.14941146172E+02 -0.38275236722E+02 -0.24880277594E+03  0.25220730622E+03  0.41800000000E+01 0.  1.
        -11    1    4    4    0    0  0.17859648545E+02 -0.15809695624E+02  0.79870397521E+01  0.25153654325E+02  0.00000000000E+00 0.  1.
         11    1    4    4    0    0  0.49515817188E+02  0.24496656380E+02 -0.15160264386E+03  0.16135446679E+03  0.00000000000E+00 0. -1.
</event>
<event>
 8    1  0.8619230E-006  0.9839759E+02  0.7561462E-02  0.1283702E+00
         -1   -1    0    0    0  501 -0.00000000000E+00  0.00000000000E+00  0.20098426287E+02  0.20098426287E+02  0.00000000000E+00 0.  1.
          1   -1    0    0  501    0  0.00000000000E+00 -0.00000000000E+00 -0.77653075974E+03  0.77653075974E+03  0.00000000000E+00 0. -1.
         23    2    1    2    0    0  0.44616960566E+02 -0.20136341690E+02 -0.30102611147E+03  0.32963648890E+03  0.12508936644E+03 0.  0.
         23    2    1    2    0    0 -0.44616960566E+02  0.20136341690E+02 -0.45540622198E+03  0.46699269713E+03  0.91056063650E+02 0.  0.
          5    1    3    3  502    0  0.24976260768E+02  0.30630991625E+02 -0.22215431074E+02  0.45530967788E+02  0.41800000000E+01 0.  1.
         -5    1    3    3    0  502  0.19640699798E+02 -0.50767333315E+02 -0.27881068040E+03  0.28410552111E+03  0.41800000000E+01 0.  1.
        -11    1    4    4    0    0 -0.39520346579E+02 -0.31519671844E+02 -0.19362341231E+03  0.20011340110E+03  0.00000000000E+00 0.  1.
         11    1    4    4    0    0 -0.50966139867E+01  0.51656013534E+02 -0.26178280967E+03  0.26687929603E+03  0.00000000000E+00 0. -1.
</event>
<event>
 8    1  0.8619230E-006  0.1392000E+03  0.7561462E-02  0.1214409E+00
         -2   -1    0    0    0  501 -0.00000000000E+00  0.00000000000E+00  0.98170765597E+02  0.98170765597E+02  0.00000000000E+00 0.  1.
          2   -1    0    0  501    0  0.00000000000E+00 -0.00000000000E+00 -0.20105588733E+03  0.20105588733E+03  0.00000000000E+00 0. -1.
         23    2    1    2    0    0 -0.27813041101E+02 -0.84306129038E+02 -0.57704176391E+02  0.16388663977E+03  0.12509184656E+03 0.  0.
         23    2    1    2    0    0  0.27813041101E+02  0.84306129038E+02 -0.45180945337E+02  0.13534001315E+03  0.91621573272E+02 0.  0.
          5    1    3    3  502    0  0.33128555078E+02  0.14238398340E+02 -0.54234836360E+01  0.36703129616E+02  0.41800000000E+01 0.  1.
         -5    1    3    3    0  502 -0.60941596179E+02 -0.98544527378E+02 -0.52280692755E+02  0.12718351016E+03  0.41800000000E+01 0.  1.
        -11    1    4    4    0    0 -0.26894379221E+02  0.61053517761E+02 -0.13821188369E+02  0.68131233019E+02  0.00000000000E+00 0. -1.
         11    1    4    4    0    0  0.54707420322E+02  0.23252611277E+02 -0.31359756968E+02  0.67208780130E+02  0.00000000000E+00 0.  1.
</event>
<event>
 8    1  0.8619230E-006  0.1395248E+03  0.7561462E-02  0.1213970E+00
          2   -1    0    0  501    0  0.00000000000E+00  0.00000000000E+00  0.54217369833E+03  0.54217369833E+03  0.00000000000E+00 0. -1.
         -2   -1    0    0    0  501 -0.00000000000E+00 -0.00000000000E+00 -0.51280049090E+02  0.51280049090E+02  0.00000000000E+00 0.  1.
         23    2    1    2    0    0 -0.18897447600E+02  0.11995608641E+03  0.20290680555E+03  0.26751758838E+03  0.12509161506E+03 0.  0.
         23    2    1    2    0    0  0.18897447600E+02 -0.11995608641E+03  0.28798684369E+03  0.32593615905E+03  0.92473679727E+02 0.  0.
          5    1    3    3  502    0 -0.33768362911E+02  0.52990157404E+02  0.18652343511E+03  0.19686727347E+03  0.41800000000E+01 0.  1.
         -5    1    3    3    0  502  0.14870915311E+02  0.66965929007E+02  0.16383370440E+02  0.70650314911E+02  0.41800000000E+01 0.  1.
        -11    1    4    4    0    0  0.50199492555E+02 -0.50689549667E+02  0.18223449598E+03  0.19570087129E+03  0.00000000000E+00 0.  1.
         11    1    4    4    0    0 -0.31302044955E+02 -0.69266536745E+02  0.10575234771E+03  0.13023528776E+03  0.00000000000E+00 0. -1.
</event>
<event>
 8    1  0.8619230E-006  0.1188281E+03  0.7561462E-02  0.1245043E+00
         -2   -1    0    0    0  501 -0.00000000000E+00  0.00000000000E+00  0.51702541271E+02  0.51702541271E+02  0.00000000000E+00 0.  1.
          2   -1    0    0  501    0  0.00000000000E+00 -0.00000000000E+00 -0.38739624369E+03  0.38739624369E+03  0.00000000000E+00 0. -1.
         23    2    1    2    0    0 -0.84345556001E+02  0.82253352810E+01 -0.13692914008E+03  0.20391728728E+03  0.12510332406E+03 0.  0.
         23    2    1    2    0    0  0.84345556001E+02 -0.82253352810E+01 -0.19876456234E+03  0.23518149768E+03  0.92850183910E+02 0.  0.
          5    1    3    3  502    0 -0.98374802885E+02  0.45601358628E+00 -0.41154127524E+02  0.10671899739E+03  0.41800000000E+01 0.  1.
         -5    1    3    3    0  502  0.14029246884E+02  0.77693216947E+01 -0.95775012558E+02  0.97198289893E+02  0.41800000000E+01 0.  1.
        -11    1    4    4    0    0  0.11684499982E+02 -0.41200518481E+02 -0.95645706798E+02  0.10479557000E+03  0.00000000000E+00 0. -1.
         11    1    4    4    0    0  0.72661056020E+02  0.32975183200E+02 -0.10311885554E+03  0.13038592768E+03  0.00000000000E+00 0.  1.
</event>
<event>
 8    1  0.8619230E-006  0.1441644E+03  0.7561462E-02  0.1207833E+00
         -2   -1    0    0    0  501 -0.00000000000E+00  0.00000000000E+00  0.12075945428E+03  0.12075945428E+03  0.00000000000E+00 0. -1.
          2   -1    0    0  501    0  0.00000000000E+00 -0.00000000000E+00 -0.23847036963E+03  0.23847036963E+03  0.00000000000E+00 0.  1.
         23    2    1    2    0    0 -0.93379147109E+02  0.44052810213E+02  0.20577498828E+02  0.16350229864E+03  0.12509697438E+03 0.  0.
         23    2    1    2    0    0  0.93379147109E+02 -0.44052810213E+02 -0.13828841418E+03  0.19572752527E+03  0.92332353210E+02 0.  0.
          5    1    3    3  502    0  0.17145758039E+02 -0.25893552977E+02  0.37193381791E+01  0.31555648955E+02  0.41800000000E+01 0. -1.
         -5    1    3    3    0  502 -0.11052490515E+03  0.69946363190E+02  0.16858160649E+02  0.13194664968E+03  0.41800000000E+01 0. -1.
        -11    1    4    4    0    0  0.10571069122E+03 -0.37512037607E+02 -0.14230932292E+03  0.18120112195E+03  0.00000000000E+00 0.  1.
         11    1    4    4    0    0 -0.12331544113E+02 -0.65407726067E+01  0.40209087387E+01  0.14526403326E+02  0.00000000000E+00 0. -1.
</event>
<event>
 8    1  0.8619230E-006  0.8839808E+02  0.7561462E-02  0.1306778E+00
          1   -1    0    0  501    0  0.00000000000E+00  0.00000000000E+00  0.91305101245E+02  0.91305101245E+02  0.00000000000E+00 0. -1.
         -1   -1    0    0    0  501 -0.00000000000E+00 -0.00000000000E+00 -0.19009087062E+03  0.19009087062E+03  0.00000000000E+00 0.  1.
         23    2    1    2    0    0 -0.71505321509E+02  0.27640919495E+02 -0.75999882195E+02  0.16610789427E+03  0.12624903568E+03 0.  0.
         23    2    1    2    0    0  0.71505321509E+02 -0.27640919495E+02 -0.22785887180E+02  0.11528807760E+03  0.83036815608E+02 0.  0.
          5    1    3    3  502    0 -0.27484501728E+02 -0.19910326575E+02  0.27529878943E+02  0.43899721800E+02  0.41800000000E+01 0. -1.
         -5    1    3    3    0  502 -0.44020819781E+02  0.47551246070E+02 -0.10352976114E+03  0.12220817247E+03  0.41800000000E+01 0. -1.
        -11    1    4    4    0    0  0.14565566470E+02 -0.46064079625E+00 -0.45850068777E+02  0.48110255906E+02  0.00000000000E+00 0.  1.
         11    1    4    4    0    0  0.56939755040E+02 -0.27180278699E+02  0.23064181597E+02  0.67177821689E+02  0.00000000000E+00 0. -1.
</event>
<event>
 8    1  0.1496743E-005  0.1846027E+03  0.7561462E-02  0.1163421E+00
         -4   -1    0    0    0  501 -0.00000000000E+00  0.00000000000E+00  0.93120779912E+02  0.93120779912E+02  0.00000000000E+00 0.  1.
          4   -1    0    0  501    0  0.00000000000E+00 -0.00000000000E+00 -0.40443675762E+03  0.40443675762E+03  0.00000000000E+00 0. -1.
         23    2    1    2    0    0 -0.14887709175E+03  0.55736479938E+02 -0.14876752734E+03  0.25109768680E+03  0.12508927805E+03 0.  0.
         23    2    1    2    0    0  0.14887709175E+03 -0.55736479938E+02 -0.16254845037E+03  0.24645985073E+03  0.95128942294E+02 0.  0.
          5    1    3    3  502    0 -0.10985279211E+03 -0.11981635230E+02 -0.12988322069E+03  0.17058229373E+03  0.41800000000E+01 0.  1.
         -5    1    3    3    0  502 -0.39024299636E+02  0.67718115168E+02 -0.18884306649E+02  0.80515393072E+02  0.41800000000E+01 0.  1.
        -11    1    4    4    0    0  0.62179522901E+02 -0.68734454656E+02 -0.55259068909E+02  0.10790867908E+03  0.00000000000E+00 0.  1.
         11    1    4    4    0    0  0.86697568845E+02  0.12997974718E+02 -0.10728938146E+03  0.13855117164E+03  0.00000000000E+00 0. -1.
</event>
<event>
 8    1  0.8619230E-006  0.1101539E+03  0.7561462E-02  0.1260285E+00
          2   -1    0    0  501    0  0.00000000000E+00  0.00000000000E+00  0.37112197424E+02  0.37112197424E+02  0.00000000000E+00 0. -1.
         -2   -1    0    0    0  501 -0.00000000000E+00 -0.00000000000E+00 -0.48811800579E+03  0.48811800579E+03  0.00000000000E+00 0.  1.
         23    2    1    2    0    0  0.59259585236E+02 -0.70185312638E+01 -0.36051757026E+03  0.38623911340E+03  0.12508707380E+03 0.  0.
         23    2    1    2    0    0 -0.59259585236E+02  0.70185312638E+01 -0.90488238113E+02  0.13899108982E+03  0.87002549325E+02 0.  0.
          5    1    3    3  502    0  0.44120601368E+02  0.43470409446E+02 -0.29782457719E+03  0.30422566483E+03  0.41800000000E+01 0. -1.
         -5    1    3    3    0  502  0.15138983868E+02 -0.50488940709E+02 -0.62692993070E+02  0.82013448571E+02  0.41800000000E+01 0. -1.
        -11    1    4    4    0    0 -0.51091922916E+02  0.44033254091E+02 -0.61416599213E+02  0.91221218541E+02  0.00000000000E+00 0.  1.
         11    1    4    4    0    0 -0.81676623197E+01 -0.37014722827E+02 -0.29071638900E+02  0.47769871280E+02  0.00000000000E+00 0. -1.
</event>
<event>
 8    1  0.8619230E-006  0.8565843E+02  0.7561462E-02  0.1313720E+00
          4   -1    0    0  501    0  0.00000000000E+00  0.00000000000E+00  0.13226770972E+03  0.13226770972E+03  0.00000000000E+00 0. -1.
         -4   -1    0    0    0  501 -0.00000000000E+00 -0.00000000000E+00 -0.12227090374E+03  0.12227090374E+03  0.00000000000E+00 0.  1.
         23    2    1    2    0    0  0.65818923794E+02 -0.80137876350E+01 -0.43096227955E+01  0.14163983033E+03  0.12508763794E+03 0.  0.
         23    2    1    2    0    0 -0.65818923794E+02  0.80137876350E+01  0.14306428772E+02  0.11289878313E+03  0.90250262085E+02 0.  0.
          5    1    3    3  502    0 -0.61503179513E+01  0.95873904978E+01  0.48863800423E+02  0.50347669849E+02  0.41800000000E+01 0. -1.
         -5    1    3    3    0  502  0.71969241746E+02 -0.17601178133E+02 -0.53173423219E+02  0.91292160484E+02  0.41800000000E+01 0. -1.
        -11    1    4    4    0    0 -0.71721570889E+02 -0.37439621920E+01  0.41316043210E+02  0.82855394576E+02  0.00000000000E+00 0. -1.
         11    1    4    4    0    0  0.59026470949E+01  0.11757749827E+02 -0.27009614439E+02  0.30043388555E+02  0.00000000000E+00 0.  1.
</event>
<event>
 8    1  0.8619230E-006  0.2042761E+03  0.7561462E-02  0.1146181E+00
         -2   -1    0    0    0  501 -0.00000000000E+00  0.00000000000E+00  0.12051598125E+03  0.12051598125E+03  0.00000000000E+00 0.  1.
          2   -1    0    0  501    0  0.00000000000E+00 -0.00000000000E+00 -0.36543518720E+03  0.36543518720E+03  0.00000000000E+00 0. -1.
         23    2    1    2    0    0  0.89344335070E+02  0.14655259603E+03 -0.89401884607E+02  0.23043421893E+03  0.12508860328E+03 0.  0.
         23    2    1    2    0    0 -0.89344335070E+02 -0.14655259603E+03 -0.15551732135E+03  0.25551694952E+03  0.10790366369E+03 0.  0.
          5    1    3    3  502    0  0.89175756478E+02  0.34794760460E+02 -0.17282670173E+02  0.97360946931E+02  0.41800000000E+01 0. -1.
         -5    1    3    3    0  502  0.16857859128E+00  0.11175783557E+03 -0.72119214434E+02  0.13307327200E+03  0.41800000000E+01 0. -1.
        -11    1    4    4    0    0  0.23931466886E+02 -0.21483318965E+02 -0.38533942683E+02  0.50190764487E+02  0.00000000000E+00 0. -1.
         11    1    4    4    0    0 -0.11327580196E+03 -0.12506927707E+03 -0.11698337867E+03  0.20532618503E+03  0.00000000000E+00 0.  1.
</event>
<event>
 8    1  0.8619230E-006  0.9621193E+02  0.7561462E-02  0.1288470E+00
         -2   -1    0    0    0  501 -0.00000000000E+00  0.00000000000E+00  0.94844901547E+02  0.94844901547E+02  0.00000000000E+00 0.  1.
          2   -1    0    0  501    0  0.00000000000E+00 -0.00000000000E+00 -0.13614879759E+03  0.13614879759E+03  0.00000000000E+00 0. -1.
         23    2    1    2    0    0 -0.11997235303E+02 -0.24639513236E+02 -0.60765021735E+01  0.12820280696E+03  0.12509195245E+03 0.  0.
         23    2    1    2    0    0  0.11997235303E+02  0.24639513236E+02 -0.35227393866E+02  0.10279089217E+03  0.92595674669E+02 0.  0.
          5    1    3    3  502    0 -0.68264533757E+02 -0.85930510398E+01  0.21814157031E+01  0.68964614620E+02  0.41800000000E+01 0. -1.
         -5    1    3    3    0  502  0.56267298453E+02 -0.16046462196E+02 -0.82579178766E+01  0.59238192342E+02  0.41800000000E+01 0. -1.
        -11    1    4    4    0    0 -0.39481194148E+01 -0.18461005922E+02  0.22263367925E+02  0.29189962965E+02  0.00000000000E+00 0.  1.
         11    1    4    4    0    0  0.15945354718E+02  0.43100519158E+02 -0.57490761791E+02  0.73600929207E+02  0.00000000000E+00 0. -1.
</event>
<event>
 8    1  0.8619230E-006  0.1438847E+03  0.7561462E-02  0.1208195E+00
         -2   -1    0    0    0  501 -0.00000000000E+00  0.00000000000E+00  0.54601309639E+02  0.54601309639E+02  0.00000000000E+00 0. -1.
          2   -1    0    0  501    0  0.00000000000E+00 -0.00000000000E+00 -0.50952920940E+03  0.50952920940E+03  0.00000000000E+00 0.  1.
         23    2    1    2    0    0  0.20750995524E+02  0.11812897350E+03 -0.18128865206E+03  0.25080119092E+03  0.12510237330E+03 0.  0.
         23    2    1    2    0    0 -0.20750995524E+02 -0.11812897350E+03 -0.27363924770E+03  0.31332932812E+03  0.94402181026E+02 0.  0.
          5    1    3    3  502    0  0.10924571875E+01 -0.12475082153E+02  0.11205226154E+02  0.17316195615E+02  0.41800000000E+01 0. -1.
         -5    1    3    3    0  502  0.19658538337E+02  0.13060405565E+03 -0.19249387821E+03  0.23348499530E+03  0.41800000000E+01 0. -1.
        -11    1    4    4    0    0 -0.49984745034E+02 -0.67985546759E+02 -0.21433509943E+03  0.23034765931E+03  0.00000000000E+00 0.  1.
         11    1    4    4    0    0  0.29233749509E+02 -0.50143426739E+02 -0.59304148273E+02  0.82981668807E+02  0.00000000000E+00 0. -1.
</event>
<event>
 8    1  0.8619230E-006  0.1008500E+03  0.7561462E-02  0.1278519E+00
         -2   -1    0    0    0  501 -0.00000000000E+00  0.00000000000E+00  0.27676939823E+03  0.27676939823E+03  0.00000000000E+00 0. -1.
          2   -1    0    0  501    0  0.00000000000E+00 -0.00000000000E+00 -0.57593463502E+02  0.57593463502E+02  0.00000000000E+00 0.  1.
         23    2    1    2    0    0 -0.38700931507E+01  0.25804950563E+02  0.19902630045E+03  0.23651522908E+03  0.12508841761E+03 0.  0.
         23    2    1    2    0    0  0.38700931507E+01 -0.25804950563E+02  0.20149634273E+02  0.97847632649E+02  0.92126425954E+02 0.  0.
          5    1    3    3  502    0  0.31746823210E+01 -0.50571563135E+02  0.84390903593E+02  0.98523391207E+02  0.41800000000E+01 0. -1.
         -5    1    3    3    0  502 -0.70447754717E+01  0.76376513698E+02  0.11463539686E+03  0.13799183787E+03  0.41800000000E+01 0. -1.
        -11    1    4    4    0    0 -0.15864537553E+02 -0.44263402359E+02 -0.18634490786E+02  0.50578420171E+02  0.00000000000E+00 0.  1.
         11    1    4    4    0    0  0.19734630704E+02  0.18458451796E+02  0.38784125058E+02  0.47269212478E+02  0.00000000000E+00 0. -1.
</event>
<event>
 8    1  0.8619230E-006  0.1142223E+03  0.7561462E-02  0.1252945E+00
          2   -1    0    0  501    0  0.00000000000E+00  0.00000000000E+00  0.20198614378E+02  0.20198614378E+02  0.00000000000E+00 0. -1.
         -2   -1    0    0    0  501 -0.00000000000E+00 -0.00000000000E+00 -0.67647631845E+03  0.67647631845E+03  0.00000000000E+00 0.  1.
         23    2    1    2    0    0 -0.36171869840E+02  0.29795457926E+02 -0.37241969963E+03  0.39564975551E+03  0.12508446300E+03 0.  0.
         23    2    1    2    0    0  0.36171869840E+02 -0.29795457926E+02 -0.28385800444E+03  0.30102517731E+03  0.88569843692E+02 0.  0.
          5    1    3    3  502    0  0.12436858488E+02  0.66755396984E+02 -0.24534152726E+03  0.25459948129E+03  0.41800000000E+01 0.  1.
         -5    1    3    3    0  502 -0.48608728329E+02 -0.36959939058E+02 -0.12707817238E+03  0.14105027423E+03  0.41800000000E+01 0.  1.
        -11    1    4    4    0    0  0.60136608350E+02  0.10478079679E+01 -0.15077404350E+03  0.16232782189E+03  0.00000000000E+00 0. -1.
         11    1    4    4    0    0 -0.23964738510E+02 -0.30843265894E+02 -0.13308396093E+03  0.13869735542E+03  0.00000000000E+00 0.  1.
</event>
<event>
 8    1  0.8619230E-006  0.1843530E+03  0.7561462E-02  0.1163655E+00
         -2   -1    0    0    0  501 -0.00000000000E+00  0.00000000000E+00  0.47588819639E+02  0.47588819639E+02  0.00000000000E+00 0.  1.
          2   -1    0    0  501    0  0.00000000000E+00 -0.00000000000E+00 -0.94794292185E+03  0.94794292185E+03  0.00000000000E+00 0. -1.
         23    2    1    2    0    0  0.10184451183E+03 -0.13270437161E+03 -0.29945203954E+03  0.36510573242E+03  0.12509163454E+03 0.  0.
         23    2    1    2    0    0 -0.10184451183E+03  0.13270437161E+03 -0.60090206267E+03  0.63042600906E+03  0.91492672640E+02 0.  0.
          5    1    3    3  502    0  0.18866326259E+02 -0.75583793342E+02 -0.22948268224E+03  0.24238115012E+03  0.41800000000E+01 0. -1.
         -5    1    3    3    0  502  0.82978185569E+02 -0.57120578269E+02 -0.69969357295E+02  0.12272458231E+03  0.41800000000E+01 0. -1.
        -11    1    4    4    0    0 -0.10170774768E+02  0.86704590532E+02 -0.30524418862E+03  0.31748251190E+03  0.00000000000E+00 0.  1.
         11    1    4    4    0    0 -0.91673737059E+02  0.45999781079E+02 -0.29565787405E+03  0.31294349716E+03  0.00000000000E+00 0. -1.
</event>
<event>
 8    1  0.8619230E-006  0.8896868E+02  0.7561462E-02  0.1305369E+00
         -1   -1    0    0    0  501 -0.00000000000E+00  0.00000000000E+00  0.28778327937E+03  0.28778327937E+03  0.00000000000E+00 0.  1.
          1   -1    0    0  501    0  0.00000000000E+00 -0.00000000000E+00 -0.41416547524E+02  0.41416547524E+02  0.00000000000E+00 0. -1.
         23    2    1    2    0    0  0.22167566217E+02  0.12222751087E+02  0.15079295167E+03  0.19755252606E+03  0.12509072564E+03 0.  0.
         23    2    1    2    0    0 -0.22167566217E+02 -0.12222751087E+02  0.95573780176E+02  0.13164730084E+03  0.86924494390E+02 0.  0.
          5    1    3    3  502    0  0.29418804846E+02 -0.52940523082E+02  0.86082438373E+02  0.10533671563E+03  0.41800000000E+01 0. -1.
         -5    1    3    3    0  502 -0.72512386291E+01  0.65163274168E+02  0.64710513299E+02  0.92215810431E+02  0.41800000000E+01 0. -1.
        -11    1    4    4    0    0 -0.35530555495E+02 -0.37995930793E+01  0.98300817388E+00  0.35746658395E+02  0.00000000000E+00 0. -1.
         11    1    4    4    0    0  0.13362989278E+02 -0.84231580073E+01  0.94590772002E+02  0.95900642444E+02  0.00000000000E+00 0.  1.
</event>
<event>
 8    1  0.8619230E-006  0.1225629E+03  0.7561462E-02  0.1238928E+00
         -1   -1    0    0    0  501 -0.00000000000E+00  0.00000000000E+00  0.95179032668E+02  0.95179032668E+02  0.00000000000E+00 0.  1.
          1   -1    0    0  501    0  0.00000000000E+00 -0.00000000000E+00 -0.18767705433E+03  0.18767705433E+03  0.00000000000E+00 0. -1.
         23    2    1    2    0    0 -0.16412621538E+02 -0.57181484254E+02  0.19667270013E+01  0.13853585915E+03  0.12509684236E+03 0.  0.
         23    2    1    2    0    0  0.16412621538E+02  0.57181484254E+02 -0.94464748659E+02  0.14432022785E+03  0.91463889808E+02 0.  0.
          5    1    3    3  502    0  0.13243137887E+02  0.37044470084E+02 -0.16811290292E+01  0.39597626945E+02  0.41800000000E+01 0.  1.
         -5    1    3    3    0  502 -0.29655759425E+02 -0.94225954338E+02  0.36478560305E+01  0.98938232204E+02  0.41800000000E+01 0.  1.
        -11    1    4    4    0    0  0.72105278432E+01 -0.23965067152E+02 -0.36162896058E+02  0.43978076432E+02  0.00000000000E+00 0. -1.
         11    1    4    4    0    0  0.92020936950E+01  0.81146551406E+02 -0.58301852601E+02  0.10034215141E+03  0.00000000000E+00 0.  1.
</event>
<event>
 8    1  0.8619230E-006  0.9872906E+02  0.7561462E-02  0.1282991E+00
         -2   -1    0    0    0  501 -0.00000000000E+00  0.00000000000E+00  0.53264632828E+02  0.53264632828E+02  0.00000000000E+00 0.  1.
          2   -1    0    0  501    0  0.00000000000E+00 -0.00000000000E+00 -0.28523324241E+03  0.28523324241E+03  0.00000000000E+00 0. -1.
         23    2    1    2    0    0 -0.43995484664E+02  0.32363227002E+02 -0.99510401314E+02  0.16891245041E+03  0.12508443068E+03 0.  0.
         23    2    1    2    0    0  0.43995484664E+02 -0.32363227002E+02 -0.13245820827E+03  0.16958542483E+03  0.90725179777E+02 0.  0.
          5    1    3    3  502    0 -0.71235568590E+02 -0.13795944475E+02 -0.87643228106E+02  0.11385799115E+03  0.41800000000E+01 0.  1.
         -5    1    3    3    0  502  0.27240083926E+02  0.46159171477E+02 -0.11867173208E+02  0.55054459253E+02  0.41800000000E+01 0.  1.
        -11    1    4    4    0    0  0.47196048488E+02 -0.97663013864E+01 -0.15805908596E+02  0.50721537656E+02  0.00000000000E+00 0.  1.
         11    1    4    4    0    0 -0.32005638243E+01 -0.22596925616E+02 -0.11665229967E+03  0.11886388718E+03  0.00000000000E+00 0. -1.
</event>
<event>
 8    1  0.8619230E-006  0.1246896E+03  0.7561462E-02  0.1235555E+00
         -1   -1    0    0    0  501 -0.00000000000E+00  0.00000000000E+00  0.46340037270E+03  0.46340037270E+03  0.00000000000E+00 0.  1.
          1   -1    0    0  501    0  0.00000000000E+00 -0.00000000000E+00 -0.50875787894E+02  0.50875787894E+02  0.00000000000E+00 0. -1.
         23    2    1    2    0    0  0.91089900104E+02 -0.51608080766E+02  0.28868829694E+03  0.33158740592E+03  0.12509400896E+03 0.  0.
         23    2    1    2    0    0 -0.91089900104E+02  0.51608080766E+02  0.12383628787E+03  0.18268875467E+03  0.84136739829E+02 0.  0.
          5    1    3    3  502    0  0.62340326450E+02 -0.74627083427E+02  0.27559546721E+03  0.29227701214E+03  0.41800000000E+01 0. -1.
         -5    1    3    3    0  502  0.28749573654E+02  0.23019002662E+02  0.13092829732E+02  0.39310393781E+02  0.41800000000E+01 0. -1.
        -11    1    4    4    0    0 -0.39519779921E+02  0.49540378578E+02  0.11358682997E+03  0.13006932789E+03  0.00000000000E+00 0.  1.
         11    1    4    4    0    0 -0.51570120183E+02  0.20677021876E+01  0.10249457903E+02  0.52619426787E+02  0.00000000000E+00 0. -1.
</event>
<event>
 8    1  0.8619230E-006  0.1282240E+03  0.7561462E-02  0.1230115E+00
         -2   -1    0    0    0  501 -0.00000000000E+00  0.00000000000E+00  0.70083502990E+02  0.70083502990E+02  0.00000000000E+00 0.  1.
          2   -1    0    0  501    0  0.00000000000E+00 -0.00000000000E+00 -0.33862498432E+03  0.33862498432E+03  0.00000000000E+00 0. -1.
         23    2    1    2    0    0 -0.42877234778E+02  0.97109880849E+02 -0.11657945434E+03  0.20126320407E+03  0.12508925581E+03 0.  0.
         23    2    1    2    0    0  0.42877234778E+02 -0.97109880849E+02 -0.15196202699E+03  0.20744528324E+03  0.93125193527E+02 0.  0.
          5    1    3    3  502    0 -0.14752343730E+01  0.67817858551E+02 -0.13167792998E+03  0.14818227930E+03  0.41800000000E+01 0. -1.
         -5    1    3    3    0  502 -0.41402000405E+02  0.29292022298E+02  0.15098475643E+02  0.53080924771E+02  0.41800000000E+01 0. -1.
        -11    1    4    4    0    0 -0.48935281572E+01  0.14976311135E+02 -0.35754693829E+02  0.39072172244E+02  0.00000000000E+00 0.  1.
         11    1    4    4    0    0  0.47770762935E+02 -0.11208619198E+03 -0.11620733316E+03  0.16837311100E+03  0.00000000000E+00 0. -1.
</event>
<event>
 8    1  0.8619230E-006  0.1130429E+03  0.7561462E-02  0.1255036E+00
          2   -1    0    0  501    0  0.00000000000E+00  0.00000000000E+00  0.87301319973E+03  0.87301319973E+03  0.00000000000E+00 0. -1.
         -2   -1    0    0    0  501 -0.00000000000E+00 -0.00000000000E+00 -0.17267739274E+02  0.17267739274E+02  0.00000000000E+00 0.  1.
         23    2    1    2    0    0  0.14454198998E+02 -0.55306865263E+02  0.46920318495E+03  0.48894313536E+03  0.12508392235E+03 0.  0.
         23    2    1    2    0    0 -0.14454198998E+02  0.55306865263E+02  0.38654227551E+03  0.40133780365E+03  0.91593278518E+02 0.  0.
          5    1    3    3  502    0 -0.36714707629E+02  0.73037904343E+01  0.28825692942E+03  0.29070749022E+03  0.41800000000E+01 0. -1.
         -5    1    3    3    0  502  0.51168906628E+02 -0.62610655697E+02  0.18094625553E+03  0.19823564513E+03  0.41800000000E+01 0. -1.
        -11    1    4    4    0    0 -0.95901405446E+00  0.79629534955E+02  0.26837944115E+03  0.27994518566E+03  0.00000000000E+00 0. -1.
         11    1    4    4    0    0 -0.13495184944E+02 -0.24322669692E+02  0.11816283436E+03  0.12139261799E+03  0.00000000000E+00 0.  1.
</event>
<event>
 8    1  0.8619230E-006  0.1203332E+03  0.7561462E-02  0.1242548E+00
         -1   -1    0    0    0  501 -0.00000000000E+00  0.00000000000E+00  0.11241073866E+03  0.11241073866E+03  0.00000000000E+00 0.  1.
          1   -1    0    0  501    0  0.00000000000E+00 -0.00000000000E+00 -0.13312997578E+03  0.13312997578E+03  0.00000000000E+00 0. -1.
         23    2    1    2    0    0 -0.14335166930E+02  0.51785250079E+02 -0.25660405968E+02  0.13853909387E+03  0.12508962771E+03 0.  0.
         23    2    1    2    0    0  0.14335166930E+02 -0.51785250079E+02  0.49411688447E+01  0.10700162057E+03  0.92399797174E+02 0.  0.
          5    1    3    3  502    0 -0.21710081508E+02 -0.38626430083E+02 -0.15664400878E+02  0.47182354698E+02  0.41800000000E+01 0. -1.
         -5    1    3    3    0  502  0.73749145786E+01  0.90411680161E+02 -0.99960050894E+01  0.91356739173E+02  0.41800000000E+01 0. -1.
        -11    1    4    4    0    0  0.35701470815E+02 -0.69147960699E+02 -0.43569652085E+01  0.77942405871E+02  0.00000000000E+00 0. -1.
         11    1    4    4    0    0 -0.21366303886E+02  0.17362710620E+02  0.92981340531E+01  0.29059214695E+02  0.00000000000E+00 0.  1.
</event>
<event>
 8    1  0.8619230E-006  0.1076937E+03  0.7561462E-02  0.1264901E+00
         -2   -1    0    0    0  501 -0.00000000000E+00  0.00000000000E+00  0.22351471703E+02  0.22351471703E+02  0.00000000000E+00 0. -1.
          2   -1    0    0  501    0  0.00000000000E+00 -0.00000000000E+00 -0.63786493385E+03  0.63786493385E+03  0.00000000000E+00 0.  1.
         23    2    1    2    0    0  0.21091617296E+02 -0.26892322470E+02 -0.24553706933E+03  0.27767646500E+03  0.12509082091E+03 0.  0.
         23    2    1    2    0    0 -0.21091617296E+02  0.26892322470E+02 -0.36997639282E+03  0.38253994055E+03  0.91028685283E+02 0.  0.
          5    1    3    3  502    0 -0.29968290977E+02 -0.60972731215E+02 -0.12418510290E+03  0.14161632885E+03  0.41800000000E+01 0. -1.
         -5    1    3    3    0  502  0.51059908273E+02  0.34080408745E+02 -0.12135196643E+03  0.13606013615E+03  0.41800000000E+01 0. -1.
        -11    1    4    4    0    0 -0.27300949976E+02 -0.22885855952E+02 -0.71565075157E+02  0.79941630296E+02  0.00000000000E+00 0.  1.
         11    1    4    4    0    0  0.62093326792E+01  0.49778178422E+02 -0.29841131766E+03  0.30259831025E+03  0.00000000000E+00 0. -1.
</event>
<event>
 8    1  0.8619230E-006  0.1361651E+03  0.7561462E-02  0.1218584E+00
          1   -1    0    0  501    0  0.00000000000E+00  0.00000000000E+00  0.30187672269E+03  0.30187672269E+03  0.00000000000E+00 0. -1.
         -1   -1    0    0    0  501 -0.00000000000E+00 -0.00000000000E+00 -0.10232160494E+03  0.10232160494E+03  0.00000000000E+00 0.  1.
         23    2    1    2    0    0 -0.12207332571E+03  0.31710987984E+02  0.41559695307E+02  0.18243438101E+03  0.12509041327E+03 0.  0.
         23    2    1    2    0    0  0.12207332571E+03 -0.31710987984E+02  0.15799542244E+03  0.22176394662E+03  0.91154873152E+02 0.  0.
          5    1    3    3  502    0 -0.88294628450E+02  0.44419279358E+02  0.81694025804E+02  0.12829809057E+03  0.41800000000E+01 0. -1.
         -5    1    3    3    0  502 -0.33778697259E+02 -0.12708291374E+02 -0.40134330497E+02  0.54136290440E+02  0.41800000000E+01 0. -1.
        -11    1    4    4    0    0  0.36286458839E+02 -0.36083937807E+02  0.12299028248E+02  0.52631015177E+02  0.00000000000E+00 0.  1.
         11    1    4    4    0    0  0.85786866870E+02  0.43729498235E+01  0.14569639419E+03  0.16913293144E+03  0.00000000000E+00 0. -1.
</event>
<event>
 8    1  0.8619230E-006  0.1634717E+03  0.7561462E-02  0.1184832E+00
         -3   -1    0    0    0  501 -0.00000000000E+00  0.00000000000E+00  0.10902200831E+04  0.10902200831E+04  0.00000000000E+00 0. -1.
          3   -1    0    0  501    0  0.00000000000E+00 -0.00000000000E+00 -0.31597045649E+02  0.31597045649E+02  0.00000000000E+00 0.  1.
         23    2    1    2    0    0  0.66145094795E+02 -0.12814433802E+03  0.68418094738E+03  0.71031568617E+03  0.12509460553E+03 0.  0.
         23    2    1    2    0    0 -0.66145094795E+02  0.12814433802E+03  0.37444209010E+03  0.41150144261E+03  0.91271098901E+02 0.  0.
          5    1    3    3  502    0  0.25605840558E+02 -0.11525196494E+03  0.28028466395E+03  0.30416383700E+03  0.41800000000E+01 0. -1.
         -5    1    3    3    0  502  0.40539254237E+02 -0.12892373082E+02  0.40389628343E+03  0.40615184917E+03  0.41800000000E+01 0. -1.
        -11    1    4    4    0    0 -0.16295800420E+02 -0.10054466430E+02  0.82305661087E+02  0.84503652309E+02  0.00000000000E+00 0.  1.
         11    1    4    4    0    0 -0.49849294375E+02  0.13819880445E+03  0.29213642902E+03  0.32699779030E+03  0.00000000000E+00 0. -1.
</event>
<event>
 8    1  0.8619230E-006  0.1085393E+03  0.7561462E-02  0.1263299E+00
          3   -1    0    0  501    0  0.00000000000E+00  0.00000000000E+00  0.15233712883E+03  0.15233712883E+03  0.00000000000E+00 0. -1.
         -3   -1    0    0    0  501 -0.00000000000E+00 -0.00000000000E+00 -0.10376462998E+03  0.10376462998E+03  0.00000000000E+00 0.  1.
         23    2    1    2    0    0  0.24887882948E+01  0.46801108585E+02 -0.12219813908E+02  0.13413951223E+03  0.12509015571E+03 0.  0.
         23    2    1    2    0    0 -0.24887882948E+01 -0.46801108585E+02  0.60792312754E+02  0.12196224659E+03  0.94776296985E+02 0.  0.
          5    1    3    3  502    0  0.39106264891E+02 -0.26182370182E+02 -0.21394086975E+02  0.51865169618E+02  0.41800000000E+01 0.  1.
         -5    1    3    3    0  502 -0.36617476596E+02  0.72983478767E+02  0.91742730665E+01  0.82274342608E+02  0.41800000000E+01 0.  1.
        -11    1    4    4    0    0  0.30362867395E+02 -0.46112759892E+02  0.68728709082E+02  0.88158526492E+02  0.00000000000E+00 0. -1.
         11    1    4    4    0    0 -0.32851655689E+02 -0.68834869362E+00 -0.79363963282E+01  0.33803720093E+02  0.00000000000E+00 0.  1.
</event>
<event>
 8    1  0.8619230E-006  0.1097980E+03  0.7561462E-02  0.1260944E+00
          1   -1    0    0  501    0  0.00000000000E+00  0.00000000000E+00  0.17893208918E+03  0.17893208918E+03  0.00000000000E+00 0. -1.
         -1   -1    0    0    0  501 -0.00000000000E+00 -0.00000000000E+00 -0.74072927745E+02  0.74072927745E+02  0.00000000000E+00 0.  1.
         23    2    1    2    0    0  0.40297654583E+02 -0.10020027935E+02  0.60160282584E+02  0.14488286536E+03  0.12508990027E+03 0.  0.
         23    2    1    2    0    0 -0.40297654583E+02  0.10020027935E+02  0.44698878855E+02  0.10812215157E+03  0.89264259168E+02 0.  0.
          5    1    3    3  502    0 -0.44372287557E+02 -0.50553439973E+01  0.33141050352E+02  0.55769687326E+02  0.41800000000E+01 0.  1.
         -5    1    3    3    0  502  0.84669942140E+02 -0.49646839381E+01  0.27019232231E+02  0.89113178032E+02  0.41800000000E+01 0.  1.
        -11    1    4    4    0    0 -0.21063337322E+02  0.45122418415E+02  0.46394054776E+02  0.68059570535E+02  0.00000000000E+00 0.  1.
         11    1    4    4    0    0 -0.19234317261E+02 -0.35102390480E+02 -0.16951759215E+01  0.40062581036E+02  0.00000000000E+00 0. -1.
</event>
<event>
 8    1  0.8619230E-006  0.3166076E+03  0.7561462E-02  0.1077221E+00
         -1   -1    0    0    0  501 -0.00000000000E+00  0.00000000000E+00  0.54301858855E+03  0.54301858855E+03  0.00000000000E+00 0.  1.
          1   -1    0    0  501    0  0.00000000000E+00 -0.00000000000E+00 -0.19899319561E+03  0.19899319561E+03  0.00000000000E+00 0. -1.
         23    2    1    2    0    0 -0.20713143701E+03 -0.22774655112E+03  0.21747133755E+03  0.39712367011E+03  0.12506599445E+03 0.  0.
         23    2    1    2    0    0  0.20713143701E+03  0.22774655112E+03  0.12655405539E+03  0.34488811404E+03  0.90332488765E+02 0.  0.
          5    1    3    3  502    0 -0.16081099549E+02 -0.48666513963E+02  0.94966502067E+02  0.10799601964E+03  0.41800000000E+01 0. -1.
         -5    1    3    3    0  502 -0.19105033746E+03 -0.17908003715E+03  0.12250483548E+03  0.28912765047E+03  0.41800000000E+01 0. -1.
        -11    1    4    4    0    0  0.13335345868E+03  0.20142040857E+03  0.10668127748E+03  0.26407237813E+03  0.00000000000E+00 0.  1.
         11    1    4    4    0    0  0.73777978329E+02  0.26326142550E+02  0.19872777915E+02  0.80815735906E+02  0.00000000000E+00 0. -1.
</event>
<event>
 8    1  0.8619230E-006  0.8845060E+02  0.7561462E-02  0.1306648E+00
         -1   -1    0    0    0  501 -0.00000000000E+00  0.00000000000E+00  0.60503568282E+03  0.60503568282E+03  0.00000000000E+00 0.  1.
          1   -1    0    0  501    0  0.00000000000E+00 -0.00000000000E+00 -0.27666812736E+02  0.27666812736E+02  0.00000000000E+00 0. -1.
         23    2    1    2    0    0  0.11797509039E+02  0.25709990124E+00  0.48114679175E+03  0.49728202536E+03  0.12509168721E+03 0.  0.
         23    2    1    2    0    0 -0.11797509039E+02 -0.25709990124E+00  0.96222078330E+02  0.13542047020E+03  0.94555634790E+02 0.  0.
          5    1    3    3  502    0 -0.53653374371E+02  0.19518115783E+02  0.21254710463E+03  0.22012129727E+03  0.41800000000E+01 0.  1.
         -5    1    3    3    0  502  0.65450883410E+02 -0.19261015882E+02  0.26859968712E+03  0.27716072808E+03  0.41800000000E+01 0.  1.
        -11    1    4    4    0    0  0.18287699303E+02 -0.84128572062E+01  0.10178537550E+03  0.10375682521E+03  0.00000000000E+00 0.  1.
         11    1    4    4    0    0 -0.30085208342E+02  0.81557573050E+01 -0.55632971730E+01  0.31663644984E+02  0.00000000000E+00 0. -1.
</event>
<event>
 6    1  0.8619230E-006  0.2119421E+03  0.7561462E-02  0.1140037E+00
         -2   -1    0    0    0  501 -0.00000000000E+00  0.00000000000E+00  0.59431279590E+02  0.59431279590E+02  0.00000000000E+00 0.  1.
          2   -1    0    0  501    0  0.00000000000E+00 -0.00000000000E+00 -0.10100124318E+04  0.10100124318E+04  0.00000000000E+00 0. -1.
          5    1    1    2  502    0 -0.20641324996E+03  0.30037658358E+02 -0.69293326931E+03  0.72365922836E+03  0.41800000000E+01 0. -1.
         -5    1    1    2    0  502  0.18776207287E+03 -0.21976297011E+02 -0.17016441106E+03  0.25438347593E+03  0.41800000000E+01 0.  1.
        -11    1    1    2    0    0  0.95402361963E+01  0.45798775741E+01 -0.28756953765E+02  0.30642352636E+02  0.00000000000E+00 0. -1.
         11    1    1    2    0    0  0.91109408999E+01 -0.12641238921E+02 -0.58726518065E+02  0.60758654442E+02  0.00000000000E+00 0.  1.
</event>
<event>
 8    1  0.8619230E-006  0.9150929E+02  0.7561462E-02  0.1299237E+00
          2   -1    0    0  501    0  0.00000000000E+00  0.00000000000E+00  0.43817914228E+03  0.43817914228E+03  0.00000000000E+00 0. -1.
         -2   -1    0    0    0  501 -0.00000000000E+00 -0.00000000000E+00 -0.28871780299E+02  0.28871780299E+02  0.00000000000E+00 0.  1.
         23    2    1    2    0    0 -0.17210616495E+02 -0.14903825356E+02  0.15549430662E+03  0.19599889679E+03  0.11712710542E+03 0.  0.
         23    2    1    2    0    0  0.17210616495E+02  0.14903825356E+02  0.25381305536E+03  0.27105202579E+03  0.92356939532E+02 0.  0.
          5    1    3    3  502    0 -0.63836143858E+01  0.43626607635E+02  0.11671302657E+03  0.12483362687E+03  0.41800000000E+01 0. -1.
         -5    1    3    3    0  502 -0.10827002109E+02 -0.58530432992E+02  0.38781280044E+02  0.71165269919E+02  0.41800000000E+01 0.  1.
        -11    1    4    4    0    0 -0.79536027016E+01  0.41611332152E+02  0.20841976467E+03  0.21268183059E+03  0.00000000000E+00 0.  1.
         11    1    4    4    0    0  0.25164219196E+02 -0.26707506796E+02  0.45393290697E+02  0.58370195197E+02  0.00000000000E+00 0. -1.
</event>
<event>
 8    1  0.8619230E-006  0.1004121E+03  0.7561462E-02  0.1279432E+00
          3   -1    0    0  501    0  0.00000000000E+00  0.00000000000E+00  0.42180260132E+03  0.42180260132E+03  0.00000000000E+00 0. -1.
         -3   -1    0    0    0  501 -0.00000000000E+00 -0.00000000000E+00 -0.44760954158E+02  0.44760954158E+02  0.00000000000E+00 0.  1.
         23    2    1    2    0    0 -0.75670334138E+02 -0.21434491565E+02  0.15890961633E+03  0.21699067593E+03  0.12508896986E+03 0.  0.
         23    2    1    2    0    0  0.75670334138E+02  0.21434491565E+02  0.21813203083E+03  0.24957287955E+03  0.92301692480E+02 0.  0.
          5    1    3    3  502    0 -0.74039871071E+02 -0.31125497007E+02  0.27275724783E+02  0.84924299435E+02  0.41800000000E+01 0.  1.
         -5    1    3    3    0  502 -0.16304630677E+01  0.96910054417E+01  0.13163389155E+03  0.13206637649E+03  0.41800000000E+01 0.  1.
        -11    1    4    4    0    0  0.36745542998E+02  0.49560733930E+02  0.67393786960E+02  0.91369709415E+02  0.00000000000E+00 0.  1.
         11    1    4    4    0    0  0.38924791140E+02 -0.28126242365E+02  0.15073824387E+03  0.15820317013E+03  0.00000000000E+00 0. -1.
</event>
<event>
 8    1  0.8619230E-006  0.1958822E+03  0.7561462E-02  0.1153260E+00
          2   -1    0    0  501    0  0.00000000000E+00  0.00000000000E+00  0.70509157952E+03  0.70509157952E+03  0.00000000000E+00 0. -1.
         -2   -1    0    0    0  501 -0.00000000000E+00 -0.00000000000E+00 -0.10766429229E+03  0.10766429229E+03  0.00000000000E+00 0.  1.
         23    2    1    2    0    0 -0.17209862472E+03  0.75310921249E+02  0.55869347541E+02  0.23250816642E+03  0.12509593106E+03 0.  0.
         23    2    1    2    0    0  0.17209862472E+03 -0.75310921249E+02  0.54155793970E+03  0.58024770539E+03  0.90070672685E+02 0.  0.
          5    1    3    3  502    0 -0.19522034319E+02  0.86306378908E+01  0.62130103187E+02  0.65827196936E+02  0.41800000000E+01 0.  1.
         -5    1    3    3    0  502 -0.15257659040E+03  0.66680283358E+02 -0.62607556464E+01  0.16668096948E+03  0.41800000000E+01 0.  1.
        -11    1    4    4    0    0  0.12417459267E+03 -0.13016306806E+02  0.39037262998E+03  0.40985307605E+03  0.00000000000E+00 0. -1.
         11    1    4    4    0    0  0.47924032052E+02 -0.62294614444E+02  0.15118530972E+03  0.17039462935E+03  0.00000000000E+00 0.  1.
</event>
<event>
 8    1  0.8619230E-006  0.8851397E+02  0.7561462E-02  0.1306491E+00
         -4   -1    0    0    0  501 -0.00000000000E+00  0.00000000000E+00  0.15162945188E+03  0.15162945188E+03  0.00000000000E+00 0.  1.
          4   -1    0    0  501    0  0.00000000000E+00 -0.00000000000E+00 -0.17137315075E+03  0.17137315075E+03  0.00000000000E+00 0. -1.
         23    2    1    2    0    0 -0.49568909150E+02  0.49329793948E+01  0.97546322867E+02  0.16626554382E+03  0.12509010719E+03 0.  0.
         23    2    1    2    0    0  0.49568909150E+02 -0.49329793948E+01 -0.11729002173E+03  0.15673705881E+03  0.91258672833E+02 0.  0.
          5    1    3    3  502    0 -0.74405969671E+02  0.32166812685E+02  0.25246334968E+02  0.85004717459E+02  0.41800000000E+01 0.  1.
         -5    1    3    3    0  502  0.24837060521E+02 -0.27233833290E+02  0.72299987899E+02  0.81260826363E+02  0.41800000000E+01 0.  1.
        -11    1    4    4    0    0  0.49359735294E+01  0.10447823078E+02  0.13451670006E+02  0.17733253162E+02  0.00000000000E+00 0.  1.
         11    1    4    4    0    0  0.44632935621E+02 -0.15380802473E+02 -0.13074169174E+03  0.13900380565E+03  0.00000000000E+00 0. -1.
</event>
<event>
 8    1  0.8619230E-006  0.2007651E+03  0.7561462E-02  0.1149095E+00
         -2   -1    0    0    0  501 -0.00000000000E+00  0.00000000000E+00  0.14268308469E+03  0.14268308469E+03  0.00000000000E+00 0.  1.
          2   -1    0    0  501    0  0.00000000000E+00 -0.00000000000E+00 -0.31156055062E+03  0.31156055062E+03  0.00000000000E+00 0. -1.
         23    2    1    2    0    0  0.14606815664E+03  0.83582309094E+02 -0.21359287387E+02  0.21077425742E+03  0.12509060578E+03 0.  0.
         23    2    1    2    0    0 -0.14606815664E+03 -0.83582309094E+02 -0.14751817854E+03  0.24346937790E+03  0.95884389736E+02 0.  0.
          5    1    3    3  502    0  0.26859141773E+02 -0.33071971047E+02 -0.27637276371E+01  0.42898477318E+02  0.41800000000E+01 0.  1.
         -5    1    3    3    0  502  0.11920901487E+03  0.11665428014E+03 -0.18595559750E+02  0.16787578010E+03  0.41800000000E+01 0.  1.
        -11    1    4    4    0    0 -0.11675470281E+03 -0.10383581752E+03 -0.13225911121E+03  0.20470957507E+03  0.00000000000E+00 0.  1.
         11    1    4    4    0    0 -0.29313453830E+02  0.20253508427E+02 -0.15259067334E+02  0.38759802825E+02  0.00000000000E+00 0. -1.
</event>
<event>
 8    1  0.8619230E-006  0.1153849E+03  0.7561462E-02  0.1250911E+00
          3   -1    0    0  501    0  0.00000000000E+00  0.00000000000E+00  0.19567989141E+03  0.19567989141E+03  0.00000000000E+00 0. -1.
         -3   -1    0    0    0  501 -0.00000000000E+00 -0.00000000000E+00 -0.10184869880E+03  0.10184869880E+03  0.00000000000E+00 0.  1.
         23    2    1    2    0    0 -0.28256280967E+02  0.84969747100E+02  0.52448387125E+02  0.16253317234E+03  0.12509166024E+03 0.  0.
         23    2    1    2    0    0  0.28256280967E+02 -0.84969747100E+02  0.41382805480E+02  0.13499541787E+03  0.92157207644E+02 0.  0.
          5    1    3    3  502    0 -0.37973524140E+02  0.92761793906E+02 -0.80326173159E+01  0.10064161309E+03  0.41800000000E+01 0.  1.
         -5    1    3    3    0  502  0.97172431736E+01 -0.77920468061E+01  0.60481004441E+02  0.61891559250E+02  0.41800000000E+01 0.  1.
        -11    1    4    4    0    0  0.73348086673E+01 -0.94170588848E+02  0.83466089240E+01  0.94823863572E+02  0.00000000000E+00 0.  1.
         11    1    4    4    0    0  0.20921472300E+02  0.92008417479E+01  0.33036196556E+02  0.40171554300E+02  0.00000000000E+00 0. -1.
</event>
<event>
 8    1  0.8619230E-006  0.1012975E+03  0.7561462E-02  0.1277591E+00
         -4   -1    0    0    0  501 -0.00000000000E+00  0.00000000000E+00  0.65317299351E+02  0.65317299351E+02  0.00000000000E+00 0.  1.
          4   -1    0    0  501    0  0.00000000000E+00 -0.00000000000E+00 -0.19785223342E+03  0.19785223342E+03  0.00000000000E+00 0. -1.
         23    2    1    2    0    0 -0.36827392819E+01  0.28780844489E+02 -0.55703044441E+02  0.13997182001E+03  0.12508949460E+03 0.  0.
         23    2    1    2    0    0  0.36827392819E+01 -0.28780844489E+02 -0.76831889629E+02  0.12319771276E+03  0.91829393920E+02 0.  0.
          5    1    3    3  502    0  0.56826369012E+02  0.30992990872E+02 -0.14071753954E+02  0.66372346332E+02  0.41800000000E+01 0. -1.
         -5    1    3    3    0  502 -0.60509108294E+02 -0.22121463828E+01 -0.41631290487E+02  0.73599473678E+02  0.41800000000E+01 0. -1.
        -11    1    4    4    0    0 -0.28205806705E+02 -0.34581891887E+02 -0.56477565834E+01  0.44981906727E+02  0.00000000000E+00 0.  1.
         11    1    4    4    0    0  0.31888545987E+02  0.58010473985E+01 -0.71184133046E+02  0.78215806034E+02  0.00000000000E+00 0. -1.
</event>
<event>
 8    1  0.8619230E-006  0.1064819E+03  0.7561462E-02  0.1267227E+00
          1   -1    0    0  501    0  0.00000000000E+00  0.00000000000E+00  0.66597191936E+03  0.66597191936E+03  0.00000000000E+00 0.  1.
         -1   -1    0    0    0  501 -0.00000000000E+00 -0.00000000000E+00 -0.50833866728E+02  0.50833866728E+02  0.00000000000E+00 0. -1.
         23    2    1    2    0    0  0.79297891312E+02 -0.25693412312E+02  0.85501910399E+02  0.17293498218E+03  0.12509046478E+03 0.  0.
         23    2    1    2    0    0 -0.79297891312E+02  0.25693412312E+02  0.52963614223E+03  0.54387080390E+03  0.91283630392E+02 0.  0.
          5    1    3    3  502    0  0.58089990759E+02 -0.38362111893E+02  0.11483836118E+03  0.13435557396E+03  0.41800000000E+01 0.  1.
         -5    1    3    3    0  502  0.21207900553E+02  0.12668699580E+02 -0.29336450778E+02  0.38579408227E+02  0.41800000000E+01 0.  1.
        -11    1    4    4    0    0 -0.82104465636E+02  0.48387872906E+02  0.47784532008E+03  0.48725627696E+03  0.00000000000E+00 0.  1.
         11    1    4    4    0    0  0.28065743235E+01 -0.22694460593E+02  0.51790822153E+02  0.56614526938E+02  0.00000000000E+00 0. -1.
</event>
<event>
 8    1  0.8619230E-006  0.1854441E+03  0.7561462E-02  0.1162636E+00
         -2   -1    0    0    0  501 -0.00000000000E+00  0.00000000000E+00  0.56103761300E+03  0.56103761300E+03  0.00000000000E+00 0.  1.
          2   -1    0    0  501    0  0.00000000000E+00 -0.00000000000E+00 -0.78611739712E+02  0.78611739712E+02  0.00000000000E+00 0. -1.
         23    2    1    2    0    0  0.16033339743E+03  0.37333383194E+02  0.35873042365E+03  0.41404888925E+03  0.12509350904E+03 0.  0.
         23    2    1    2    0    0 -0.16033339743E+03 -0.37333383194E+02  0.12369544964E+03  0.22560046346E+03  0.92165205050E+02 0.  0.
          5    1    3    3  502    0  0.17134608634E+03  0.34775263176E+02  0.25259035926E+03  0.30722656497E+03  0.41800000000E+01 0.  1.
         -5    1    3    3    0  502 -0.11012688911E+02  0.25581200174E+01  0.10614006439E+03  0.10682232428E+03  0.41800000000E+01 0.  1.
        -11    1    4    4    0    0 -0.66907709850E+02 -0.57670015271E+02  0.34462105762E+02  0.94816185498E+02  0.00000000000E+00 0.  1.
         11    1    4    4    0    0 -0.93425687579E+02  0.20336632078E+02  0.89233343873E+02  0.13078427796E+03  0.00000000000E+00 0. -1.
</event>
<event>
 8    1  0.8619230E-006  0.1125394E+03  0.7561462E-02  0.1255938E+00
          1   -1    0    0  501    0  0.00000000000E+00  0.00000000000E+00  0.63606439485E+02  0.63606439485E+02  0.00000000000E+00 0. -1.
         -1   -1    0    0    0  501 -0.00000000000E+00 -0.00000000000E+00 -0.41529296975E+03  0.41529296975E+03  0.00000000000E+00 0.  1.
         23    2    1    2    0    0 -0.10328498106E+03 -0.39399984171E+02 -0.25978273026E+03  0.30879620991E+03  0.12509151151E+03 0.  0.
         23    2    1    2    0    0  0.10328498106E+03  0.39399984171E+02 -0.91903800006E+02  0.17010319932E+03  0.90932083981E+02 0.  0.
          5    1    3    3  502    0 -0.68512432608E+02 -0.38244806059E+02 -0.26215172557E+03  0.27367429224E+03  0.41800000000E+01 0.  1.
         -5    1    3    3    0  502 -0.34772548455E+02 -0.11551781122E+01  0.23689953119E+01  0.35121917677E+02  0.41800000000E+01 0.  1.
        -11    1    4    4    0    0  0.61381444080E+02  0.30836403177E+02 -0.10491145694E+03  0.12539927924E+03  0.00000000000E+00 0.  1.
         11    1    4    4    0    0  0.41903536984E+02  0.85635809941E+01  0.13007656932E+02  0.44703920075E+02  0.00000000000E+00 0. -1.
</event>
<event>
 8    1  0.8619230E-006  0.6434350E+02  0.7561462E-02  0.1380458E+00
         -4   -1    0    0    0  501 -0.00000000000E+00  0.00000000000E+00  0.94131331175E+02  0.94131331175E+02  0.00000000000E+00 0.  1.
          4   -1    0    0  501    0  0.00000000000E+00 -0.00000000000E+00 -0.13875924651E+03  0.13875924651E+03  0.00000000000E+00 0. -1.
         23    2    1    2    0    0 -0.13347355653E+02 -0.32402919308E+02 -0.76611124630E+01  0.13014253442E+03  0.12510110127E+03 0.  0.
         23    2    1    2    0    0  0.13347355653E+02  0.32402919308E+02 -0.36966802874E+02  0.10274804327E+03  0.89232924406E+02 0.  0.
          5    1    3    3  502    0 -0.19812104238E+02 -0.48229417538E+02 -0.57235439621E+02  0.77536856649E+02  0.41800000000E+01 0. -1.
         -5    1    3    3    0  502  0.64647485859E+01  0.15826498229E+02  0.49574327158E+02  0.52605677770E+02  0.41800000000E+01 0. -1.
        -11    1    4    4    0    0 -0.72463530447E+01 -0.95837235387E+01 -0.52199630341E+02  0.53564529281E+02  0.00000000000E+00 0. -1.
         11    1    4    4    0    0  0.20593708697E+02  0.41986642847E+02  0.15232827467E+02  0.49183513987E+02  0.00000000000E+00 0.  1.
</event>
<event>
 8    1  0.8619230E-006  0.2047389E+03  0.7561462E-02  0.1145801E+00
         -1   -1    0    0    0  501 -0.00000000000E+00  0.00000000000E+00  0.59111325770E+02  0.59111325770E+02  0.00000000000E+00 0.  1.
          1   -1    0    0  501    0  0.00000000000E+00 -0.00000000000E+00 -0.99298863416E+03  0.99298863416E+03  0.00000000000E+00 0. -1.
         23    2    1    2    0    0  0.18739098777E+02  0.19327313079E+03 -0.69046292402E+03  0.72807457043E+03  0.12509146153E+03 0.  0.
         23    2    1    2    0    0 -0.18739098777E+02 -0.19327313079E+03 -0.24341438437E+03  0.32402538950E+03  0.89645042325E+02 0.  0.
          5    1    3    3  502    0 -0.94887656546E+01  0.48268304464E+02 -0.39127127204E+03  0.39437361298E+03  0.41800000000E+01 0.  1.
         -5    1    3    3    0  502  0.28227864432E+02  0.14500482633E+03 -0.29919165198E+03  0.33370095745E+03  0.41800000000E+01 0.  1.
        -11    1    4    4    0    0 -0.52331525455E+02 -0.94909903699E+02 -0.10474257869E+03  0.15072321044E+03  0.00000000000E+00 0.  1.
         11    1    4    4    0    0  0.33592426678E+02 -0.98363227094E+02 -0.13867180568E+03  0.17330217906E+03  0.00000000000E+00 0. -1.
</event>
<event>
 8    1  0.8619230E-006  0.9028322E+02  0.7561462E-02  0.1302167E+00
          1   -1    0    0  501    0  0.00000000000E+00  0.00000000000E+00  0.42553991768E+03  0.42553991768E+03  0.00000000000E+00 0. -1.
         -1   -1    0    0    0  501 -0.00000000000E+00 -0.00000000000E+00 -0.35241162748E+02  0.35241162748E+02  0.00000000000E+00 0.  1.
         23    2    1    2    0    0  0.31882489171E+02 -0.41529705769E+02  0.17882997682E+03  0.22442923374E+03  0.12508841181E+03 0.  0.
         23    2    1    2    0    0 -0.31882489171E+02  0.41529705769E+02  0.21146877811E+03  0.23635184669E+03  0.91662106357E+02 0.  0.
          5    1    3    3  502    0  0.58248867532E+02 -0.35280389983E+02  0.18425385948E+03  0.19648051715E+03  0.41800000000E+01 0. -1.
         -5    1    3    3    0  502 -0.26366378362E+02 -0.62493157862E+01 -0.54238826599E+01  0.27948716586E+02  0.41800000000E+01 0. -1.
        -11    1    4    4    0    0 -0.18628511608E+02 -0.16811587281E+02  0.14403195668E+03  0.14620142084E+03  0.00000000000E+00 0. -1.
         11    1    4    4    0    0 -0.13253977563E+02  0.58341293050E+02  0.67436821434E+02  0.90150425851E+02  0.00000000000E+00 0.  1.
</event>
<event>
 8    1  0.8619230E-006  0.1034690E+03  0.7561462E-02  0.1273166E+00
          1   -1    0    0  501    0  0.00000000000E+00  0.00000000000E+00  0.10611066175E+03  0.10611066175E+03  0.00000000000E+00 0. -1.
         -1   -1    0    0    0  501 -0.00000000000E+00 -0.00000000000E+00 -0.19697523042E+03  0.19697523042E+03  0.00000000000E+00 0.  1.
         23    2    1    2    0    0  0.10078047446E+02 -0.94349107664E+02 -0.59415958502E+02  0.16784710129E+03  0.12505627585E+03 0.  0.
         23    2    1    2    0    0 -0.10078047446E+02  0.94349107664E+02 -0.31448610166E+02  0.13523879088E+03  0.91088936317E+02 0.  0.
          5    1    3    3  502    0 -0.12714092388E+02 -0.15303622771E+02 -0.80329057431E+02  0.82861805936E+02  0.41800000000E+01 0. -1.
         -5    1    3    3    0  502  0.22792139833E+02 -0.79045484892E+02  0.20913098929E+02  0.84985295357E+02  0.41800000000E+01 0. -1.
        -11    1    4    4    0    0 -0.23381048662E+02  0.84522999470E+02 -0.57150459178E+02  0.10467562209E+03  0.00000000000E+00 0.  1.
         11    1    4    4    0    0  0.13303001217E+02  0.98261081931E+01  0.25701849012E+02  0.30563168786E+02  0.00000000000E+00 0. -1.
</event>
<event>
 8    1  0.8619230E-006  0.1596412E+03  0.7561462E-02  0.1189102E+00
          2   -1    0    0  501    0  0.00000000000E+00  0.00000000000E+00  0.13184115791E+04  0.13184115791E+04  0.00000000000E+00 0. -1.
         -2   -1    0    0    0  501 -0.00000000000E+00 -0.00000000000E+00 -0.24613428525E+02  0.24613428525E+02  0.00000000000E+00 0.  1.
         23    2    1    2    0    0 -0.12216632009E+03  0.47098671108E+02  0.46842918775E+03  0.50221186176E+03  0.12509178858E+03 0.  0.
         23    2    1    2    0    0  0.12216632009E+03 -0.47098671108E+02  0.82536896279E+03  0.84081314583E+03  0.92681858419E+02 0.  0.
          5    1    3    3  502    0  0.16817801864E+02  0.69430609974E+01  0.16478987345E+03  0.16584396084E+03  0.41800000000E+01 0. -1.
         -5    1    3    3    0  502 -0.13898412196E+03  0.40155610111E+02  0.30363931431E+03  0.33636790092E+03  0.41800000000E+01 0. -1.
        -11    1    4    4    0    0  0.12684741114E+03 -0.20035914723E+02  0.74216195977E+03  0.75319059880E+03  0.00000000000E+00 0. -1.
         11    1    4    4    0    0 -0.46810910471E+01 -0.27062756385E+02  0.83207003022E+02  0.87622547032E+02  0.00000000000E+00 0.  1.
</event>
<event>
 8    1  0.8619230E-006  0.1001165E+03  0.7561462E-02  0.1280051E+00
         -1   -1    0    0    0  501 -0.00000000000E+00  0.00000000000E+00  0.10317954428E+03  0.10317954428E+03  0.00000000000E+00 0.  1.
          1   -1    0    0  501    0  0.00000000000E+00 -0.00000000000E+00 -0.11849939430E+03  0.11849939430E+03  0.00000000000E+00 0. -1.
         23    2    1    2    0    0  0.21068070237E+02 -0.14365396568E+02  0.15700952934E+01  0.12767843295E+03  0.12509631824E+03 0.  0.
         23    2    1    2    0    0 -0.21068070237E+02  0.14365396568E+02 -0.16889945308E+02  0.94000505636E+02  0.88885300277E+02 0.  0.
          5    1    3    3  502    0  0.73204307155E+01 -0.68853844636E+02  0.11919892481E+02  0.70384635139E+02  0.41800000000E+01 0.  1.
         -5    1    3    3    0  502  0.13747639522E+02  0.54488448067E+02 -0.10349797188E+02  0.57293797806E+02  0.41800000000E+01 0.  1.
        -11    1    4    4    0    0  0.24156091837E+02  0.16476616538E+02  0.20145756326E+02  0.35508409755E+02  0.00000000000E+00 0.  1.
         11    1    4    4    0    0 -0.45224162074E+02 -0.21112199698E+01 -0.37035701634E+02  0.58492095881E+02  0.00000000000E+00 0. -1.
</event>
<event>
 8    1  0.8619230E-006  0.8707054E+02  0.7561462E-02  0.1310105E+00
          2   -1    0    0  501    0  0.00000000000E+00  0.00000000000E+00  0.59129885154E+02  0.59129885154E+02  0.00000000000E+00 0.  1.
         -2   -1    0    0    0  501 -0.00000000000E+00 -0.00000000000E+00 -0.23228511202E+03  0.23228511202E+03  0.00000000000E+00 0. -1.
         23    2    1    2    0    0  0.59938571359E+01  0.18967908215E+02 -0.14717872647E+03  0.19417671149E+03  0.12508920775E+03 0.  0.
         23    2    1    2    0    0 -0.59938571359E+01 -0.18967908215E+02 -0.25976500389E+02  0.97238285677E+02  0.91568541343E+02 0.  0.
          5    1    3    3  502    0 -0.50852689242E+02 -0.14087236567E+02 -0.99970731853E+02  0.11311969707E+03  0.41800000000E+01 0. -1.
         -5    1    3    3    0  502  0.56846546378E+02  0.33055144782E+02 -0.47207994620E+02  0.81057014426E+02  0.41800000000E+01 0. -1.
        -11    1    4    4    0    0 -0.19005673944E+02 -0.31796959224E+02  0.23923710714E+02  0.44097689194E+02  0.00000000000E+00 0.  1.
         11    1    4    4    0    0  0.13011816808E+02  0.12829051009E+02 -0.49900211103E+02  0.53140596483E+02  0.00000000000E+00 0. -1.
</event>
<event>
 8    1  0.8619230E-006  0.4050881E+03  0.7561462E-02  0.1042032E+00
          2   -1    0    0  501    0  0.00000000000E+00  0.00000000000E+00  0.18681997754E+04  0.18681997754E+04  0.00000000000E+00 0.  1.
         -2   -1    0    0    0  501 -0.00000000000E+00 -0.00000000000E+00 -0.98235067161E+02  0.98235067161E+02  0.00000000000E+00 0. -1.
         23    2    1    2    0    0  0.32105640097E+03  0.23330898723E+03  0.62002146173E+03  0.74671655137E+03  0.12509475994E+03 0.  0.
         23    2    1    2    0    0 -0.32105640097E+03 -0.23330898723E+03  0.11499432465E+04  0.12197182912E+04  0.88503918281E+02 0.  0.
          5    1    3    3  502    0  0.18897061778E+03  0.18335585143E+03  0.48179296833E+03  0.54906393013E+03  0.41800000000E+01 0. -1.
         -5    1    3    3    0  502  0.13208578319E+03  0.49953135794E+02  0.13822849340E+03  0.19765262125E+03  0.41800000000E+01 0. -1.
        -11    1    4    4    0    0 -0.87584803744E+02 -0.21173337085E+02  0.22047211531E+03  0.23817506519E+03  0.00000000000E+00 0. -1.
         11    1    4    4    0    0 -0.23347159722E+03 -0.21213565014E+03  0.92947113122E+03  0.98154322602E+03  0.00000000000E+00 0.  1.
</event>
<event>
 8    1  0.8619230E-006  0.1607223E+03  0.7561462E-02  0.1187884E+00
         -1   -1    0    0    0  501 -0.00000000000E+00  0.00000000000E+00  0.30782366857E+02  0.30782366857E+02  0.00000000000E+00 0.  1.
          1   -1    0    0  501    0  0.00000000000E+00 -0.00000000000E+00 -0.86827293594E+03  0.86827293594E+03  0.00000000000E+00 0. -1.
         23    2    1    2    0    0 -0.11735167377E+03  0.35333215440E+02 -0.43798826665E+03  0.47170021360E+03  0.12509004093E+03 0.  0.
         23    2    1    2    0    0  0.11735167377E+03 -0.35333215440E+02 -0.39950230243E+03  0.42735508919E+03  0.89501012087E+02 0.  0.
          5    1    3    3  502    0 -0.33481113546E+02  0.70883131644E+02 -0.14551272269E+03  0.16533852600E+03  0.41800000000E+01 0.  1.
         -5    1    3    3    0  502 -0.83870560220E+02 -0.35549916203E+02 -0.29247554396E+03  0.30636168760E+03  0.41800000000E+01 0.  1.
        -11    1    4    4    0    0  0.10899089617E+03  0.64096325647E+01 -0.28915440854E+03  0.30907987773E+03  0.00000000000E+00 0.  1.
         11    1    4    4    0    0  0.83607775932E+01 -0.41742848005E+02 -0.11034789389E+03  0.11827521147E+03  0.00000000000E+00 0. -1.
</event>
<event>
 8    1  0.8619230E-006  0.1231612E+03  0.7561462E-02  0.1237971E+00
          1   -1    0    0  501    0  0.00000000000E+00  0.00000000000E+00  0.19791582146E+03  0.19791582146E+03  0.00000000000E+00 0. -1.
         -1   -1    0    0    0  501 -0.00000000000E+00 -0.00000000000E+00 -0.87262706633E+02  0.87262706633E+02  0.00000000000E+00 0.  1.
         23    2    1    2    0    0 -0.45728241912E+02  0.59144020610E+02  0.66186448702E+02  0.16005574740E+03  0.12509240186E+03 0.  0.
         23    2    1    2    0    0  0.45728241912E+02 -0.59144020610E+02  0.44466666128E+02  0.12512278069E+03  0.89940750326E+02 0.  0.
          5    1    3    3  502    0  0.32758054723E+02 -0.39268298171E+01 -0.88497379243E+01  0.34413665933E+02  0.41800000000E+01 0. -1.
         -5    1    3    3    0  502 -0.78486296635E+02  0.63070850427E+02  0.75036186626E+02  0.12564208147E+03  0.41800000000E+01 0. -1.
        -11    1    4    4    0    0  0.21124668033E+02  0.20195275092E+02 -0.31200821944E+01  0.29391081104E+02  0.00000000000E+00 0.  1.
         11    1    4    4    0    0  0.24603573879E+02 -0.79339295702E+02  0.47586748323E+02  0.95731699588E+02  0.00000000000E+00 0. -1.
</event>
<event>
 8    1  0.8619230E-006  0.1370212E+03  0.7561462E-02  0.1217394E+00
         -2   -1    0    0    0  501 -0.00000000000E+00  0.00000000000E+00  0.70293639631E+02  0.70293639631E+02  0.00000000000E+00 0. -1.
          2   -1    0    0  501    0  0.00000000000E+00 -0.00000000000E+00 -0.34363866331E+03  0.34363866331E+03  0.00000000000E+00 0.  1.
         23    2    1    2    0    0 -0.14354045450E+02  0.10397765017E+03 -0.99138169535E+02  0.19103199819E+03  0.12508979701E+03 0.  0.
         23    2    1    2    0    0  0.14354045450E+02 -0.10397765017E+03 -0.17420685414E+03  0.22290030475E+03  0.91209251021E+02 0.  0.
          5    1    3    3  502    0 -0.38358324677E+02  0.83998929358E+01  0.13106727730E+02  0.41607427043E+02  0.41800000000E+01 0.  1.
         -5    1    3    3    0  502  0.24004279226E+02  0.95577757237E+02 -0.11224489727E+03  0.14942457114E+03  0.41800000000E+01 0.  1.
        -11    1    4    4    0    0 -0.29072575946E+02 -0.73592765215E+01 -0.20888994514E+02  0.36547554157E+02  0.00000000000E+00 0.  1.
         11    1    4    4    0    0  0.43426621397E+02 -0.96618373651E+02 -0.15331785963E+03  0.18635275059E+03  0.00000000000E+00 0. -1.
</event>
<event>
 8    1  0.8619230E-006  0.8867603E+02  0.7561462E-02  0.1306090E+00
          2   -1    0    0  501    0  0.00000000000E+00  0.00000000000E+00  0.13737017273E+03  0.13737017273E+03  0.00000000000E+00 0. -1.
         -2   -1    0    0    0  501 -0.00000000000E+00 -0.00000000000E+00 -0.91589404650E+02  0.91589404650E+02  0.00000000000E+00 0.  1.
         23    2    1    2    0    0  0.55123075906E+01 -0.25116333113E+02  0.79614951092E+01  0.12795306285E+03  0.12508950861E+03 0.  0.
         23    2    1    2    0    0 -0.55123075906E+01  0.25116333113E+02  0.37819272972E+02  0.10100651454E+03  0.90059995816E+02 0.  0.
          5    1    3    3  502    0 -0.33990845182E+02 -0.53480064071E+02  0.34628132434E+02  0.72333082093E+02  0.41800000000E+01 0.  1.
         -5    1    3    3    0  502  0.39503152773E+02  0.28363730958E+02 -0.26666637324E+02  0.55619980754E+02  0.41800000000E+01 0.  1.
        -11    1    4    4    0    0 -0.25397760222E+02 -0.78092482764E+01 -0.18805689721E+02  0.32552796329E+02  0.00000000000E+00 0.  1.
         11    1    4    4    0    0  0.19885452632E+02  0.32925581389E+02  0.56624962694E+02  0.68453718206E+02  0.00000000000E+00 0. -1.
</event>
<event>
 7    1  0.8619230E-006  0.1083473E+03  0.7561462E-02  0.1263661E+00
          2   -1    0    0  501    0  0.00000000000E+00  0.00000000000E+00  0.44335286146E+02  0.44335286146E+02  0.00000000000E+00 0. -1.
         -2   -1    0    0    0  501 -0.00000000000E+00 -0.00000000000E+00 -0.60775173617E+03  0.60775173617E+03  0.00000000000E+00 0.  1.
         23    2    1    2    0    0  0.33958000702E+02 -0.32592364624E+02 -0.82951947704E+02  0.13111121188E+03  0.89965083285E+02 0.  0.
          5    1    1    2  502    0 -0.60313244229E+01  0.69346497978E+02 -0.44869759849E+02  0.82922140620E+02  0.41800000000E+01 0. -1.
         -5    1    1    2    0  502 -0.27926676279E+02 -0.36754133354E+02 -0.43559474247E+03  0.43805366981E+03  0.41800000000E+01 0.  1.
        -11    1    3    3    0    0 -0.28357640517E+02 -0.25057645679E+02 -0.39930673418E+02  0.55013635240E+02  0.00000000000E+00 0.  1.
         11    1    3    3    0    0  0.62315641219E+02 -0.75347189454E+01 -0.43021274285E+02  0.76097576645E+02  0.00000000000E+00 0. -1.
</event>
<event>
 8    1  0.8619230E-006  0.1399834E+03  0.7561462E-02  0.1213351E+00
         -3   -1    0    0    0  501 -0.00000000000E+00  0.00000000000E+00  0.91782080769E+03  0.91782080769E+03  0.00000000000E+00 0.  1.
          3   -1    0    0  501    0  0.00000000000E+00 -0.00000000000E+00 -0.26203517739E+02  0.26203517739E+02  0.00000000000E+00 0. -1.
         23    2    1    2    0    0 -0.88656694337E+02  0.51184923561E+02  0.60272823015E+03  0.62402630712E+03  0.12509039413E+03 0.  0.
         23    2    1    2    0    0  0.88656694337E+02 -0.51184923561E+02  0.28888905980E+03  0.31999801831E+03  0.91988787358E+02 0.  0.
          5    1    3    3  502    0 -0.69103414536E+02  0.92169913864E+02  0.45798682958E+03  0.47227109099E+03  0.41800000000E+01 0. -1.
         -5    1    3    3    0  502 -0.19553279801E+02 -0.40984990303E+02  0.14474140057E+03  0.15175521612E+03  0.41800000000E+01 0. -1.
        -11    1    4    4    0    0  0.88251943549E+02 -0.23398357528E+02  0.13097209572E+03  0.15965456002E+03  0.00000000000E+00 0. -1.
         11    1    4    4    0    0  0.40475078793E+00 -0.27786566033E+02  0.15791696408E+03  0.16034345830E+03  0.00000000000E+00 0.  1.
</event>
<event>
 8    1  0.8619230E-006  0.1308128E+03  0.7561462E-02  0.1226255E+00
          2   -1    0    0  501    0  0.00000000000E+00  0.00000000000E+00  0.19975530192E+03  0.19975530192E+03  0.00000000000E+00 0. -1.
         -2   -1    0    0    0  501 -0.00000000000E+00 -0.00000000000E+00 -0.95901743224E+02  0.95901743224E+02  0.00000000000E+00 0.  1.
         23    2    1    2    0    0 -0.68194930719E+02  0.52577007300E+02  0.50577699693E+02  0.16006249500E+03  0.12508800233E+03 0.  0.
         23    2    1    2    0    0  0.68194930719E+02 -0.52577007300E+02  0.53275858999E+02  0.13559455014E+03  0.90181342872E+02 0.  0.
          5    1    3    3  502    0  0.92435611446E+01  0.71348403912E+02  0.24632555017E+02  0.76159525537E+02  0.41800000000E+01 0. -1.
         -5    1    3    3    0  502 -0.77438491864E+02 -0.18771396611E+02  0.25945144677E+02  0.83902969466E+02  0.41800000000E+01 0. -1.
        -11    1    4    4    0    0  0.97016387685E+01  0.16569112518E+02 -0.13155155142E+02  0.23274780154E+02  0.00000000000E+00 0.  1.
         11    1    4    4    0    0  0.58493291951E+02 -0.69146119818E+02  0.66431014140E+02  0.11231976998E+03  0.00000000000E+00 0. -1.
</event>
<event>
 8    1  0.8619230E-006  0.7021927E+02  0.7561462E-02  0.1359349E+00
          1   -1    0    0  501    0  0.00000000000E+00  0.00000000000E+00  0.41979067347E+02  0.41979067347E+02  0.00000000000E+00 0. -1.
         -1   -1    0    0    0  501 -0.00000000000E+00 -0.00000000000E+00 -0.37965629946E+03  0.37965629946E+03  0.00000000000E+00 0.  1.
         23    2    1    2    0    0  0.51902016113E+02 -0.14559349737E+02 -0.24771508778E+03  0.28267565711E+03  0.12504786472E+03 0.  0.
         23    2    1    2    0    0 -0.51902016113E+02  0.14559349737E+02 -0.89962144333E+02  0.13895970969E+03  0.91163696519E+02 0.  0.
          5    1    3    3  502    0  0.48223344162E+01  0.89700590088E+01 -0.22488345946E+03  0.22515274727E+03  0.41800000000E+01 0. -1.
         -5    1    3    3    0  502  0.47079681697E+02 -0.23529408746E+02 -0.22831628321E+02  0.57522909839E+02  0.41800000000E+01 0. -1.
        -11    1    4    4    0    0 -0.24691179707E+02  0.34834871619E+02 -0.95468404085E+02  0.10458173270E+03  0.00000000000E+00 0.  1.
         11    1    4    4    0    0 -0.27210836406E+02 -0.20275521882E+02  0.55062597521E+01  0.34377976991E+02  0.00000000000E+00 0. -1.
</event>
<event>
 8    1  0.8619230E-006  0.1074091E+03  0.7561462E-02  0.1265444E+00
         -2   -1    0    0    0  501 -0.00000000000E+00  0.00000000000E+00  0.46967908726E+02  0.46967908726E+02  0.00000000000E+00 0. -1.
          2   -1    0    0  501    0  0.00000000000E+00 -0.00000000000E+00 -0.31853937333E+03  0.31853937333E+03  0.00000000000E+00 0.  1.
         23    2    1    2    0    0  0.40018636386E+02  0.39258207652E+02 -0.14345823974E+03  0.19846131398E+03  0.12515561702E+03 0.  0.
         23    2    1    2    0    0 -0.40018636386E+02 -0.39258207652E+02 -0.12811322487E+03  0.16704596807E+03  0.91370996153E+02 0.  0.
          5    1    3    3  502    0 -0.23452769399E+02  0.51270993387E+02 -0.21684627758E+02  0.60551157184E+02  0.41800000000E+01 0.  1.
         -5    1    3    3    0  502  0.63471405784E+02 -0.12012785735E+02 -0.12177361198E+03  0.13791015680E+03  0.41800000000E+01 0.  1.
        -11    1    4    4    0    0  0.45171424611E+01 -0.47959635895E+02 -0.24744431791E+02  0.54155499775E+02  0.00000000000E+00 0. -1.
         11    1    4    4    0    0 -0.44535778847E+02  0.87014282432E+01 -0.10336879307E+03  0.11289046830E+03  0.00000000000E+00 0.  1.
</event>
<event>
 8    1  0.8619230E-006  0.1148187E+03  0.7561462E-02  0.1251898E+00
          2   -1    0    0  501    0  0.00000000000E+00  0.00000000000E+00  0.22458819743E+03  0.22458819743E+03  0.00000000000E+00 0. -1.
         -2   -1    0    0    0  501 -0.00000000000E+00 -0.00000000000E+00 -0.10068575614E+03  0.10068575614E+03  0.00000000000E+00 0.  1.
         23    2    1    2    0    0 -0.78544830233E+02 -0.61305422948E+02  0.54410848223E+02  0.16893099047E+03  0.12509793722E+03 0.  0.
         23    2    1    2    0    0  0.78544830233E+02  0.61305422948E+02  0.69491593063E+02  0.15634296310E+03  0.98419486722E+02 0.  0.
          5    1    3    3  502    0  0.87863366893E+01 -0.16160748293E+02 -0.32544667905E+02  0.37616449950E+02  0.41800000000E+01 0. -1.
         -5    1    3    3    0  502 -0.87331166922E+02 -0.45144674655E+02  0.86955516128E+02  0.13131454052E+03  0.41800000000E+01 0. -1.
        -11    1    4    4    0    0  0.70169473769E+02  0.24029301405E+02 -0.31827246223E+01  0.74238077231E+02  0.00000000000E+00 0.  1.
         11    1    4    4    0    0  0.83753564640E+01  0.37276121543E+02  0.72674317685E+02  0.82104885873E+02  0.00000000000E+00 0. -1.
</event>
<event>
 8    1  0.8619230E-006  0.8901599E+02  0.7561462E-02  0.1305252E+00
         -2   -1    0    0    0  501 -0.00000000000E+00  0.00000000000E+00  0.19476990299E+03  0.19476990299E+03  0.00000000000E+00 0.  1.
          2   -1    0    0  501    0  0.00000000000E+00 -0.00000000000E+00 -0.94630624260E+02  0.94630624260E+02  0.00000000000E+00 0. -1.
         23    2    1    2    0    0  0.56324423969E+02 -0.28572003405E+02  0.10742657444E+03  0.17656852861E+03  0.12508867369E+03 0.  0.
         23    2    1    2    0    0 -0.56324423969E+02  0.28572003405E+02 -0.72872957139E+01  0.11283199864E+03  0.93215637762E+02 0.  0.
          5    1    3    3  502    0 -0.75710402993E+01 -0.17485094138E+02  0.10982064452E+03  0.11153965900E+03  0.41800000000E+01 0.  1.
         -5    1    3    3    0  502  0.63895464268E+02 -0.11086909267E+02 -0.23940700754E+01  0.65028869610E+02  0.41800000000E+01 0.  1.
        -11    1    4    4    0    0 -0.72089657272E+02  0.17233140316E+02  0.22334021834E+02  0.77412585166E+02  0.00000000000E+00 0.  1.
         11    1    4    4    0    0  0.15765233303E+02  0.11338863089E+02 -0.29621317548E+02  0.35419413470E+02  0.00000000000E+00 0. -1.
</event>
<event>
 7    1  0.8619230E-006  0.2756442E+03  0.7561462E-02  0.1098092E+00
          2   -1    0    0  501    0  0.00000000000E+00  0.00000000000E+00  0.85194502819E+03  0.85194502819E+03  0.00000000000E+00 0. -1.
         -2   -1    0    0    0  501 -0.00000000000E+00 -0.00000000000E+00 -0.11986321625E+03  0.11986321625E+03  0.00000000000E+00 0.  1.
         23    2    1    2    0    0  0.24832362466E+03  0.26541595984E+02  0.13993691082E+03  0.31240530120E+03  0.12508259001E+03 0.  0.
          5    1    3    3  502    0  0.19850037157E+03 -0.33136656953E+02  0.10570251843E+03  0.22735639501E+03  0.41800000000E+01 0. -1.
         -5    1    3    3    0  502  0.49823253090E+02  0.59678252937E+02  0.34234392391E+02  0.85048906192E+02  0.41800000000E+01 0. -1.
        -11    1    1    2    0    0 -0.25942461973E+03 -0.22782078861E+02  0.59298691927E+03  0.64765240898E+03  0.00000000000E+00 0. -1.
         11    1    1    2    0    0  0.11100995072E+02 -0.37595171234E+01 -0.84201815203E+00  0.11750534250E+02  0.00000000000E+00 0.  1.
</event>
<event>
 8    1  0.8619230E-006  0.2145269E+03  0.7561462E-02  0.1138031E+00
          2   -1    0    0  501    0  0.00000000000E+00  0.00000000000E+00  0.34888093640E+03  0.34888093640E+03  0.00000000000E+00 0. -1.
         -2   -1    0    0    0  501 -0.00000000000E+00 -0.00000000000E+00 -0.13670129394E+03  0.13670129394E+03  0.00000000000E+00 0.  1.
         23    2    1    2    0    0  0.17652210009E+03  0.65467083037E+02  0.12081951916E+03  0.25629788815E+03  0.12508101566E+03 0.  0.
         23    2    1    2    0    0 -0.17652210009E+03 -0.65467083037E+02  0.91360123294E+02  0.22928434218E+03  0.93694432385E+02 0.  0.
          5    1    3    3  502    0  0.19069983523E+03  0.78224005107E+02  0.11421566327E+03  0.23568647027E+03  0.41800000000E+01 0. -1.
         -5    1    3    3    0  502 -0.14177735140E+02 -0.12756922070E+02  0.66038558882E+01  0.20611417880E+02  0.41800000000E+01 0. -1.
        -11    1    4    4    0    0 -0.55239606755E+02 -0.60582655938E+02  0.66075777961E+02  0.10529805691E+03  0.00000000000E+00 0.  1.
         11    1    4    4    0    0 -0.12128249334E+03 -0.48844270992E+01  0.25284345333E+02  0.12398628528E+03  0.00000000000E+00 0. -1.
</event>
<event>
 7    1  0.8619230E-006  0.4673792E+03  0.7561462E-02  0.1022663E+00
          1   -1    0    0  501    0  0.00000000000E+00  0.00000000000E+00  0.70082270836E+03  0.70082270836E+03  0.00000000000E+00 0. -1.
         -1   -1    0    0    0  501 -0.00000000000E+00 -0.00000000000E+00 -0.41880593617E+03  0.41880593617E+03  0.00000000000E+00 0.  1.
         23    2    1    2    0    0  0.12602257029E+03 -0.10713442203E+03  0.18498575030E+03  0.26472003607E+03  0.92181869578E+02 0.  0.
          5    1    1    2  502    0 -0.30822803405E+03 -0.21626586180E+03 -0.15394736872E+03  0.40680795062E+03  0.41800000000E+01 0. -1.
         -5    1    1    2    0  502  0.18220546376E+03  0.32340028383E+03  0.25097839061E+03  0.44810065784E+03  0.41800000000E+01 0.  1.
        -11    1    3    3    0    0  0.12013971991E+03 -0.12186211841E+03  0.15542023409E+03  0.23116958573E+03  0.00000000000E+00 0.  1.
         11    1    3    3    0    0  0.58828503792E+01  0.14727696380E+02  0.29565516216E+02  0.33550450345E+02  0.00000000000E+00 0. -1.
</event>
<event>
 8    1  0.8619230E-006  0.1224532E+03  0.7561462E-02  0.1239104E+00
         -1   -1    0    0    0  501 -0.00000000000E+00  0.00000000000E+00  0.98834791183E+02  0.98834791183E+02  0.00000000000E+00 0.  1.
          1   -1    0    0  501    0  0.00000000000E+00 -0.00000000000E+00 -0.17422384553E+03  0.17422384553E+03  0.00000000000E+00 0. -1.
         23    2    1    2    0    0 -0.56715642677E+02 -0.34468922123E+02 -0.94286338040E+01  0.14191809479E+03  0.12508827193E+03 0.  0.
         23    2    1    2    0    0  0.56715642677E+02  0.34468922123E+02 -0.65960420540E+02  0.13114054192E+03  0.91881956563E+02 0.  0.
          5    1    3    3  502    0 -0.32223044388E+02 -0.76757394489E+02 -0.30199200080E+02  0.88653743767E+02  0.41800000000E+01 0. -1.
         -5    1    3    3    0  502 -0.24492598289E+02  0.42288472366E+02  0.20770566276E+02  0.53264351019E+02  0.41800000000E+01 0. -1.
        -11    1    4    4    0    0 -0.24850292106E+02  0.13536857422E+02 -0.23754067708E+02  0.36946437708E+02  0.00000000000E+00 0.  1.
         11    1    4    4    0    0  0.81565934783E+02  0.20932064701E+02 -0.42206352832E+02  0.94194104216E+02  0.00000000000E+00 0. -1.
</event>
<event>
 8    1  0.8619230E-006  0.1094030E+03  0.7561462E-02  0.1261679E+00
         -1   -1    0    0    0  501 -0.00000000000E+00  0.00000000000E+00  0.97136911447E+02  0.97136911447E+02  0.00000000000E+00 0.  1.
          1   -1    0    0  501    0  0.00000000000E+00 -0.00000000000E+00 -0.17484896606E+03  0.17484896606E+03  0.00000000000E+00 0. -1.
         23    2    1    2    0    0 -0.27392424398E+02 -0.68311326226E+02 -0.27913818871E+02  0.14767690519E+03  0.12495000935E+03 0.  0.
         23    2    1    2    0    0  0.27392424398E+02  0.68311326226E+02 -0.49798235743E+02  0.12430897232E+03  0.86925681539E+02 0.  0.
          5    1    3    3  502    0  0.47432768745E+02 -0.15761677243E+02  0.50064738633E+01  0.50406697976E+02  0.41800000000E+01 0. -1.
         -5    1    3    3    0  502 -0.74825193143E+02 -0.52549648984E+02 -0.32920292735E+02  0.97270207211E+02  0.41800000000E+01 0. -1.
        -11    1    4    4    0    0  0.22437231718E+02  0.25272787799E+02  0.22090783332E+02  0.40375065059E+02  0.00000000000E+00 0.  1.
         11    1    4    4    0    0  0.49551926798E+01  0.43038538427E+02 -0.71889019076E+02  0.83933907261E+02  0.00000000000E+00 0. -1.
</event>
<event>
 8    1  0.1982575E-005  0.3380013E+03  0.7561462E-02  0.1067650E+00
         -2   -1    0    0    0  501 -0.00000000000E+00  0.00000000000E+00  0.47992417548E+02  0.47992417548E+02  0.00000000000E+00 0. -1.
          2   -1    0    0  501    0  0.00000000000E+00 -0.00000000000E+00 -0.26237126676E+04  0.26237126676E+04  0.00000000000E+00 0.  1.
         23    2    1    2    0    0  0.33211790897E+03 -0.60377959408E+02 -0.13331444107E+04  0.13808942238E+04  0.12508810593E+03 0.  0.
         23    2    1    2    0    0 -0.33211790897E+03  0.60377959408E+02 -0.12425758394E+04  0.12908108613E+04  0.90830389479E+02 0.  0.
          5    1    3    3  502    0  0.25163848136E+03 -0.44115658351E+02 -0.11771561888E+04  0.12045672592E+04  0.41800000000E+01 0.  1.
         -5    1    3    3    0  502  0.80479427609E+02 -0.16262301058E+02 -0.15598822185E+03  0.17632696465E+03  0.41800000000E+01 0.  1.
        -11    1    4    4    0    0 -0.70068078786E+02  0.36688265202E+01 -0.41492234772E+03  0.42081296390E+03  0.00000000000E+00 0.  1.
         11    1    4    4    0    0 -0.26204983019E+03  0.56709132888E+02 -0.82765349168E+03  0.86999789744E+03  0.00000000000E+00 0. -1.
</event>
<event>
 8    1  0.8619230E-006  0.1333682E+03  0.7561462E-02  0.1222542E+00
          2   -1    0    0  501    0  0.00000000000E+00  0.00000000000E+00  0.57006826920E+03  0.57006826920E+03  0.00000000000E+00 0. -1.
         -2   -1    0    0    0  501 -0.00000000000E+00 -0.00000000000E+00 -0.61593759699E+02  0.61593759699E+02  0.00000000000E+00 0.  1.
         23    2    1    2    0    0 -0.39006835152E+02  0.72645435324E+02  0.51211845644E+02  0.15832571442E+03  0.12508191816E+03 0.  0.
         23    2    1    2    0    0  0.39006835152E+02 -0.72645435324E+02  0.45726266386E+03  0.47333631448E+03  0.90328458328E+02 0.  0.
          5    1    3    3  502    0  0.41233317899E+02  0.60429944708E+01  0.30789364348E+02  0.51982320496E+02  0.41800000000E+01 0.  1.
         -5    1    3    3    0  502 -0.80240153051E+02  0.66602440853E+02  0.20422481296E+02  0.10634339393E+03  0.41800000000E+01 0.  1.
        -11    1    4    4    0    0  0.67308121458E+02 -0.56688553687E+02  0.29467733661E+03  0.30753651498E+03  0.00000000000E+00 0. -1.
         11    1    4    4    0    0 -0.28301286306E+02 -0.15956881637E+02  0.16258532724E+03  0.16579979950E+03  0.00000000000E+00 0.  1.
</event>
<event>
 8    1  0.8619230E-006  0.1182278E+03  0.7561462E-02  0.1246050E+00
         -2   -1    0    0    0  501 -0.00000000000E+00  0.00000000000E+00  0.13405834669E+02  0.13405834669E+02  0.00000000000E+00 0.  1.
          2   -1    0    0  501    0  0.00000000000E+00 -0.00000000000E+00 -0.12171141511E+04  0.12171141511E+04  0.00000000000E+00 0. -1.
         23    2    1    2    0    0 -0.67278337254E+02 -0.39277801806E+01 -0.70179186087E+03  0.71603144490E+03  0.12508961580E+03 0.  0.
         23    2    1    2    0    0  0.67278337254E+02  0.39277801806E+01 -0.50191645554E+03  0.51448854085E+03  0.90755320515E+02 0.  0.
          5    1    3    3  502    0 -0.95146726325E+02 -0.84791136165E+01 -0.34216136657E+03  0.35526985247E+03  0.41800000000E+01 0.  1.
         -5    1    3    3    0  502  0.27868389071E+02  0.45513334359E+01 -0.35963049430E+03  0.36076159243E+03  0.41800000000E+01 0.  1.
        -11    1    4    4    0    0  0.42464617367E+01  0.39628332290E+02 -0.15084084984E+03  0.15601730397E+03  0.00000000000E+00 0. -1.
         11    1    4    4    0    0  0.63031875518E+02 -0.35700552109E+02 -0.35107560570E+03  0.35847123688E+03  0.00000000000E+00 0.  1.
</event>
<event>
 7    1  0.8619230E-006  0.1505041E+03  0.7561462E-02  0.1199855E+00
         -2   -1    0    0    0  501 -0.00000000000E+00  0.00000000000E+00  0.87280685564E+02  0.87280685564E+02  0.00000000000E+00 0.  1.
          2   -1    0    0  501    0  0.00000000000E+00 -0.00000000000E+00 -0.57451520767E+03  0.57451520767E+03  0.00000000000E+00 0. -1.
         23    2    1    2    0    0 -0.97299847021E+01 -0.13264928100E+03 -0.40212358795E+03  0.43343306343E+03  0.92034429081E+02 0.  0.
          5    1    1    2  502    0  0.16181023177E+02  0.18759247257E+02 -0.10890053611E+03  0.11176105777E+03  0.41800000000E+01 0. -1.
         -5    1    1    2    0  502 -0.64510384753E+01  0.11389003374E+03  0.23789601948E+02  0.11660177204E+03  0.41800000000E+01 0.  1.
        -11    1    3    3    0    0 -0.47559540729E+02 -0.41774591081E+02 -0.15530072754E+03  0.16770611900E+03  0.00000000000E+00 0. -1.
         11    1    3    3    0    0  0.37829556027E+02 -0.90874689914E+02 -0.24682286041E+03  0.26572694443E+03  0.00000000000E+00 0.  1.
</event>
<event>
 8    1  0.8619230E-006  0.2288118E+03  0.7561462E-02  0.1127479E+00
          1   -1    0    0  501    0  0.00000000000E+00  0.00000000000E+00  0.45080637877E+03  0.45080637877E+03  0.00000000000E+00 0. -1.
         -1   -1    0    0    0  501 -0.00000000000E+00 -0.00000000000E+00 -0.13936108932E+03  0.13936108932E+03  0.00000000000E+00 0.  1.
         23    2    1    2    0    0 -0.39809094420E+02 -0.20848020923E+03  0.25125725726E+03  0.35188996181E+03  0.12509026444E+03 0.  0.
         23    2    1    2    0    0  0.39809094420E+02  0.20848020923E+03  0.60188032190E+02  0.23827750628E+03  0.90026713498E+02 0.  0.
          5    1    3    3  502    0  0.12842348395E+00 -0.18105045907E+03  0.24220681549E+03  0.30242503053E+03  0.41800000000E+01 0.  1.
         -5    1    3    3    0  502 -0.39937517904E+02 -0.27429750151E+02  0.90504417686E+01  0.49464931274E+02  0.41800000000E+01 0.  1.
        -11    1    4    4    0    0 -0.24694364887E+02  0.85902507887E+02  0.61381955255E+01  0.89592019526E+02  0.00000000000E+00 0.  1.
         11    1    4    4    0    0  0.64503459307E+02  0.12257770134E+03  0.54049836664E+02  0.14868548675E+03  0.00000000000E+00 0. -1.
</event>
<event>
 8    1  0.8619230E-006  0.1084494E+03  0.7561462E-02  0.1263469E+00
         -1   -1    0    0    0  501 -0.00000000000E+00  0.00000000000E+00  0.63108070391E+02  0.63108070391E+02  0.00000000000E+00 0.  1.
          1   -1    0    0  501    0  0.00000000000E+00 -0.00000000000E+00 -0.24525154119E+03  0.24525154119E+03  0.00000000000E+00 0. -1.
         23    2    1    2    0    0  0.26273896226E+02  0.54073041006E+02 -0.12240715020E+03  0.18506509407E+03  0.12510542450E+03 0.  0.
         23    2    1    2    0    0 -0.26273896226E+02 -0.54073041006E+02 -0.59736320605E+02  0.12329451751E+03  0.89548303510E+02 0.  0.
          5    1    3    3  502    0  0.65381271417E+02  0.34197667843E+02 -0.24769247425E+02  0.77943435618E+02  0.41800000000E+01 0.  1.
         -5    1    3    3    0  502 -0.39107375191E+02  0.19875373163E+02 -0.97637902771E+02  0.10712165845E+03  0.41800000000E+01 0.  1.
        -11    1    4    4    0    0  0.26659911517E+02 -0.31807970692E+02 -0.50113398691E+02  0.65068045998E+02  0.00000000000E+00 0. -1.
         11    1    4    4    0    0 -0.52933807743E+02 -0.22265070314E+02 -0.96229219133E+01  0.58226471509E+02  0.00000000000E+00 0.  1.
</event>
<event>
 8    1  0.8619230E-006  0.1107927E+03  0.7561462E-02  0.1259109E+00
         -2   -1    0    0    0  501 -0.00000000000E+00  0.00000000000E+00  0.29683609217E+02  0.29683609217E+02  0.00000000000E+00 0.  1.
          2   -1    0    0  501    0  0.00000000000E+00 -0.00000000000E+00 -0.49349012520E+03  0.49349012520E+03  0.00000000000E+00 0. -1.
         23    2    1    2    0    0  0.15819165260E+02  0.21388148088E+02 -0.17111217670E+03  0.21362167015E+03  0.12508853695E+03 0.  0.
         23    2    1    2    0    0 -0.15819165260E+02 -0.21388148088E+02 -0.29269433928E+03  0.30955206426E+03  0.97184388531E+02 0.  0.
          5    1    3    3  502    0 -0.19305009305E+02 -0.46347360169E+02 -0.81911724324E+02  0.96165296030E+02  0.41800000000E+01 0. -1.
         -5    1    3    3    0  502  0.35124174565E+02  0.67735508257E+02 -0.89200452374E+02  0.11745637412E+03  0.41800000000E+01 0. -1.
        -11    1    4    4    0    0  0.15541192147E+02 -0.49986758790E+02 -0.10764875552E+03  0.11970154248E+03  0.00000000000E+00 0.  1.
         11    1    4    4    0    0 -0.31360357407E+02  0.28598610702E+02 -0.18504558376E+03  0.18985052178E+03  0.00000000000E+00 0. -1.
</event>
<event>
 8    1  0.8619230E-006  0.1382166E+03  0.7561462E-02  0.1215749E+00
          1   -1    0    0  501    0  0.00000000000E+00  0.00000000000E+00  0.52832928850E+02  0.52832928850E+02  0.00000000000E+00 0. -1.
         -1   -1    0    0    0  501 -0.00000000000E+00 -0.00000000000E+00 -0.58667563109E+03  0.58667563109E+03  0.00000000000E+00 0.  1.
         23    2    1    2    0    0 -0.10469287019E+03 -0.36690210784E+02 -0.42985429473E+03  0.46122412402E+03  0.12508480824E+03 0.  0.
         23    2    1    2    0    0  0.10469287019E+03  0.36690210784E+02 -0.10398840751E+03  0.17828443591E+03  0.93085888064E+02 0.  0.
          5    1    3    3  502    0 -0.15535635128E+02  0.37215987863E+02 -0.19699454783E+03  0.20112361867E+03  0.41800000000E+01 0. -1.
         -5    1    3    3    0  502 -0.89157235059E+02 -0.73906198647E+02 -0.23285974690E+03  0.26010050536E+03  0.41800000000E+01 0. -1.
        -11    1    4    4    0    0  0.92426849760E+02  0.47265797615E+02 -0.38335481678E+02  0.11066339655E+03  0.00000000000E+00 0. -1.
         11    1    4    4    0    0  0.12266020427E+02 -0.10575586831E+02 -0.65652925832E+02  0.67621039361E+02  0.00000000000E+00 0.  1.
</event>
<event>
 8    1  0.8619230E-006  0.8361721E+02  0.7561462E-02  0.1319089E+00
         -2   -1    0    0    0  501 -0.00000000000E+00  0.00000000000E+00  0.47166368636E+02  0.47166368636E+02  0.00000000000E+00 0. -1.
          2   -1    0    0  501    0  0.00000000000E+00 -0.00000000000E+00 -0.30408842473E+03  0.30408842473E+03  0.00000000000E+00 0.  1.
         23    2    1    2    0    0  0.20126021899E+02 -0.10256528188E+02 -0.97900759202E+02  0.16048624195E+03  0.12514400535E+03 0.  0.
         23    2    1    2    0    0 -0.20126021899E+02  0.10256528188E+02 -0.15902129689E+03  0.19076855142E+03  0.10293014241E+03 0.  0.
          5    1    3    3  502    0  0.48522356207E+02  0.11180918671E+02  0.62388626193E+01  0.50357003495E+02  0.41800000000E+01 0.  1.
         -5    1    3    3    0  502 -0.28396334308E+02 -0.21437446859E+02 -0.10413962182E+03  0.11012923846E+03  0.41800000000E+01 0.  1.
        -11    1    4    4    0    0 -0.49834400767E+02  0.13295735691E+02 -0.15140512459E+03  0.15994922894E+03  0.00000000000E+00 0.  1.
         11    1    4    4    0    0  0.29708378868E+02 -0.30392075036E+01 -0.76161723058E+01  0.30819322475E+02  0.00000000000E+00 0. -1.
</event>
<event>
 8    1  0.8619230E-006  0.8606813E+02  0.7561462E-02  0.1312663E+00
         -1   -1    0    0    0  501 -0.00000000000E+00  0.00000000000E+00  0.66958419459E+03  0.66958419459E+03  0.00000000000E+00 0.  1.
          1   -1    0    0  501    0  0.00000000000E+00 -0.00000000000E+00 -0.19394326276E+02  0.19394326276E+02  0.00000000000E+00 0. -1.
         23    2    1    2    0    0  0.18008456830E+02 -0.65869087734E+01  0.45710583422E+03  0.47430090935E+03  0.12509163461E+03 0.  0.
         23    2    1    2    0    0 -0.18008456830E+02  0.65869087734E+01  0.19308403409E+03  0.21467761152E+03  0.91854998663E+02 0.  0.
          5    1    3    3  502    0 -0.30004636851E+02  0.24687613130E+02  0.51513503478E+02  0.64659646730E+02  0.41800000000E+01 0. -1.
         -5    1    3    3    0  502  0.48013093681E+02 -0.31274521904E+02  0.40559233074E+03  0.40964126262E+03  0.41800000000E+01 0. -1.
        -11    1    4    4    0    0 -0.23917121346E+02 -0.30099281389E+02  0.16118009617E+03  0.16570159575E+03  0.00000000000E+00 0.  1.
         11    1    4    4    0    0  0.59086645163E+01  0.36686190162E+02  0.31903937926E+02  0.48976015765E+02  0.00000000000E+00 0. -1.
</event>
<event>
 8    1  0.8619230E-006  0.1097831E+03  0.7561462E-02  0.1260972E+00
         -3   -1    0    0    0  501 -0.00000000000E+00  0.00000000000E+00  0.42411534877E+03  0.42411534877E+03  0.00000000000E+00 0.  1.
          3   -1    0    0  501    0  0.00000000000E+00 -0.00000000000E+00 -0.47971217474E+02  0.47971217474E+02  0.00000000000E+00 0. -1.
         23    2    1    2    0    0 -0.11302727549E+02 -0.62423881061E+02  0.31773840631E+03  0.34731897308E+03  0.12509309189E+03 0.  0.
         23    2    1    2    0    0  0.11302727549E+02  0.62423881061E+02  0.58405724983E+02  0.12476759316E+03  0.90173338721E+02 0.  0.
          5    1    3    3  502    0  0.43812185683E+01 -0.94241403389E+02  0.16180689686E+03  0.18734882295E+03  0.41800000000E+01 0.  1.
         -5    1    3    3    0  502 -0.15683946118E+02  0.31817522328E+02  0.15593150945E+03  0.15997015013E+03  0.41800000000E+01 0.  1.
        -11    1    4    4    0    0 -0.26259617953E+02  0.22314076099E+02 -0.11062844057E+02  0.36192154479E+02  0.00000000000E+00 0. -1.
         11    1    4    4    0    0  0.37562345502E+02  0.40109804961E+02  0.69468569040E+02  0.88575438684E+02  0.00000000000E+00 0.  1.
</event>
<event>
 8    1  0.8619230E-006  0.2219211E+03  0.7561462E-02  0.1132459E+00
         -1   -1    0    0    0  501 -0.00000000000E+00  0.00000000000E+00  0.72098600519E+03  0.72098600519E+03  0.00000000000E+00 0.  1.
          1   -1    0    0  501    0  0.00000000000E+00 -0.00000000000E+00 -0.84693747977E+02  0.84693747977E+02  0.00000000000E+00 0. -1.
         23    2    1    2    0    0 -0.14623634408E+03  0.14013348179E+03  0.47147620377E+03  0.52816551240E+03  0.12508611719E+03 0.  0.
         23    2    1    2    0    0  0.14623634408E+03 -0.14013348179E+03  0.16481605344E+03  0.27751424077E+03  0.93954038286E+02 0.  0.
          5    1    3    3  502    0  0.44733469073E+01  0.72342426976E+02  0.13552513209E+03  0.15374645167E+03  0.41800000000E+01 0.  1.
         -5    1    3    3    0  502 -0.15070969099E+03  0.67791054811E+02  0.33595107168E+03  0.37441906072E+03  0.41800000000E+01 0.  1.
        -11    1    4    4    0    0  0.76075751083E+02 -0.98114125147E+02  0.14946815417E+03  0.19430550833E+03  0.00000000000E+00 0.  1.
         11    1    4    4    0    0  0.70160592997E+02 -0.42019356640E+02  0.15347899269E+02  0.83208732439E+02  0.00000000000E+00 0. -1.
</event>
<event>
 8    1  0.8619230E-006  0.1393164E+03  0.7561462E-02  0.1214252E+00
          3   -1    0    0  501    0  0.00000000000E+00  0.00000000000E+00  0.80289086788E+03  0.80289086788E+03  0.00000000000E+00 0. -1.
         -3   -1    0    0    0  501 -0.00000000000E+00 -0.00000000000E+00 -0.38297104187E+02  0.38297104187E+02  0.00000000000E+00 0.  1.
         23    2    1    2    0    0  0.11457466618E+03  0.29089615510E+01  0.22588807788E+03  0.28250425770E+03  0.12508963069E+03 0.  0.
         23    2    1    2    0    0 -0.11457466618E+03 -0.29089615510E+01  0.53870568581E+03  0.55868371436E+03  0.93743589528E+02 0.  0.
          5    1    3    3  502    0  0.10692521876E+03  0.26039547076E+02  0.23219959774E+03  0.25699257968E+03  0.41800000000E+01 0.  1.
         -5    1    3    3    0  502  0.76494474153E+01 -0.23130585525E+02 -0.63115198667E+01  0.25511678023E+02  0.41800000000E+01 0.  1.
        -11    1    4    4    0    0 -0.61123308576E+02  0.41841961626E+02  0.21039327489E+03  0.22305187451E+03  0.00000000000E+00 0. -1.
         11    1    4    4    0    0 -0.53451357600E+02 -0.44750923177E+02  0.32831241092E+03  0.33563183985E+03  0.00000000000E+00 0.  1.
</event>
<event>
 8    1  0.8619230E-006  0.6591730E+02  0.7561462E-02  0.1374554E+00
         -2   -1    0    0    0  501 -0.00000000000E+00  0.00000000000E+00  0.46338060127E+02  0.46338060127E+02  0.00000000000E+00 0.  1.
          2   -1    0    0  501    0  0.00000000000E+00 -0.00000000000E+00 -0.30655312658E+03  0.30655312658E+03  0.00000000000E+00 0. -1.
         23    2    1    2    0    0 -0.39005897654E+02 -0.16967975312E+02 -0.10317089162E+03  0.16763675524E+03  0.12509387111E+03 0.  0.
         23    2    1    2    0    0  0.39005897654E+02  0.16967975312E+02 -0.15704417483E+03  0.18525443147E+03  0.88583064372E+02 0.  0.
          5    1    3    3  502    0 -0.40867600332E+02 -0.34606295383E+02 -0.12685227626E+03  0.13775604825E+03  0.41800000000E+01 0. -1.
         -5    1    3    3    0  502  0.18617026786E+01  0.17638320071E+02  0.23681384636E+02  0.29880706987E+02  0.41800000000E+01 0. -1.
        -11    1    4    4    0    0  0.34414966452E+02  0.30265706249E+02 -0.16348124368E+03  0.16978374459E+03  0.00000000000E+00 0. -1.
         11    1    4    4    0    0  0.45909312013E+01 -0.13297730937E+02  0.64370688482E+01  0.15470686886E+02  0.00000000000E+00 0.  1.
</event>
<event>
 8    1  0.8619230E-006  0.1071504E+03  0.7561462E-02  0.1265940E+00
         -1   -1    0    0    0  501 -0.00000000000E+00  0.00000000000E+00  0.70399325350E+02  0.70399325350E+02  0.00000000000E+00 0.  1.
          1   -1    0    0  501    0  0.00000000000E+00 -0.00000000000E+00 -0.23338842794E+03  0.23338842794E+03  0.00000000000E+00 0. -1.
         23    2    1    2    0    0 -0.14644726793E+02  0.37844709866E+02 -0.24404987147E+02  0.13375809360E+03  0.12509569984E+03 0.  0.
         23    2    1    2    0    0  0.14644726793E+02 -0.37844709866E+02 -0.13858411544E+03  0.17002965969E+03  0.89765461248E+02 0.  0.
          5    1    3    3  502    0  0.21532642478E+02  0.71679000805E+02  0.64730198295E+01  0.75238994107E+02  0.41800000000E+01 0.  1.
         -5    1    3    3    0  502 -0.36177369271E+02 -0.33834290939E+02 -0.30878006976E+02  0.58519099494E+02  0.41800000000E+01 0.  1.
        -11    1    4    4    0    0  0.47799223952E+02 -0.26080495686E+02 -0.47032218178E+02  0.71951286385E+02  0.00000000000E+00 0.  1.
         11    1    4    4    0    0 -0.33154497159E+02 -0.11764214180E+02 -0.91551897262E+02  0.98078373302E+02  0.00000000000E+00 0. -1.
</event>
<event>
 8    1  0.8619230E-006  0.1216126E+03  0.7561462E-02  0.1240460E+00
          2   -1    0    0  501    0  0.00000000000E+00  0.00000000000E+00  0.10748754319E+03  0.10748754319E+03  0.00000000000E+00 0. -1.
         -2   -1    0    0    0  501 -0.00000000000E+00 -0.00000000000E+00 -0.14895728533E+03  0.14895728533E+03  0.00000000000E+00 0.  1.
         23    2    1    2    0    0  0.61798150094E+02 -0.15158647409E+02 -0.33556657539E+02  0.14429931764E+03  0.12508975921E+03 0.  0.
         23    2    1    2    0    0 -0.61798150094E+02  0.15158647409E+02 -0.79130846007E+01  0.11214551088E+03  0.92006536484E+02 0.  0.
          5    1    3    3  502    0  0.56379907272E+02 -0.64574530854E+02 -0.38700098365E+02  0.94147405659E+02  0.41800000000E+01 0.  1.
         -5    1    3    3    0  502  0.54182428222E+01  0.49415883445E+02  0.51434408255E+01  0.50151911982E+02  0.41800000000E+01 0.  1.
        -11    1    4    4    0    0 -0.83942153295E+01  0.45380111712E+02  0.11907945683E+02  0.47661478789E+02  0.00000000000E+00 0. -1.
         11    1    4    4    0    0 -0.53403934764E+02 -0.30221464303E+02 -0.19821030283E+02  0.64484032089E+02  0.00000000000E+00 0.  1.
</event>
<event>
 8    1  0.8619230E-006  0.1522953E+03  0.7561462E-02  0.1197681E+00
          2   -1    0    0  501    0  0.00000000000E+00  0.00000000000E+00  0.57463045703E+03  0.57463045703E+03  0.00000000000E+00 0.  1.
         -2   -1    0    0    0  501 -0.00000000000E+00 -0.00000000000E+00 -0.50351563023E+02  0.50351563023E+02  0.00000000000E+00 0. -1.
         23    2    1    2    0    0  0.63468221310E+02  0.11199515833E+03  0.24803164068E+03  0.30616851873E+03  0.12509331108E+03 0.  0.
         23    2    1    2    0    0 -0.63468221310E+02 -0.11199515833E+03  0.27624725332E+03  0.31881350132E+03  0.93586179791E+02 0.  0.
          5    1    3    3  502    0  0.46653087764E+02  0.11857465186E+03  0.25600368095E+03  0.28599268474E+03  0.41800000000E+01 0.  1.
         -5    1    3    3    0  502  0.16815133546E+02 -0.65794935272E+01 -0.79720402729E+01  0.20175833994E+02  0.41800000000E+01 0.  1.
        -11    1    4    4    0    0 -0.57737164957E+02 -0.12715510763E+02  0.90027142118E+02  0.10770399598E+03  0.00000000000E+00 0.  1.
         11    1    4    4    0    0 -0.57310563529E+01 -0.99279647570E+02  0.18622011120E+03  0.21110950534E+03  0.00000000000E+00 0. -1.
</event>
<event>
 6    1  0.8619230E-006  0.8139153E+02  0.7561462E-02  0.1325148E+00
         -4   -1    0    0    0  501 -0.00000000000E+00  0.00000000000E+00  0.58847837191E+03  0.58847837191E+03  0.00000000000E+00 0.  1.
          4   -1    0    0  501    0  0.00000000000E+00 -0.00000000000E+00 -0.23224648403E+02  0.23224648403E+02  0.00000000000E+00 0. -1.
          5    1    1    2  502    0 -0.66552235962E+01  0.89739917286E+01 -0.83679734181E+01  0.14571201316E+02  0.41800000000E+01 0. -1.
         -5    1    1    2    0  502 -0.66614875389E+02 -0.30019089711E+02  0.39853556078E+03  0.40519964582E+03  0.41800000000E+01 0.  1.
        -11    1    1    2    0    0  0.15241862659E+02  0.10952907057E+02  0.56283382465E+02  0.59330428045E+02  0.00000000000E+00 0.  1.
         11    1    1    2    0    0  0.58028236326E+02  0.10092190925E+02  0.11880275368E+03  0.13260174513E+03  0.00000000000E+00 0. -1.
</event>
<event>
 8    1  0.8619230E-006  0.8734345E+02  0.7561462E-02  0.1309415E+00
         -1   -1    0    0    0  501 -0.00000000000E+00  0.00000000000E+00  0.10030683344E+03  0.10030683344E+03  0.00000000000E+00 0.  1.
          1   -1    0    0  501    0  0.00000000000E+00 -0.00000000000E+00 -0.13397578808E+03  0.13397578808E+03  0.00000000000E+00 0. -1.
         23    2    1    2    0    0  0.40487578767E+02 -0.12556615411E+02 -0.24754850630E+02  0.13437546213E+03  0.12508816718E+03 0.  0.
         23    2    1    2    0    0 -0.40487578767E+02  0.12556615411E+02 -0.89141040112E+01  0.99907159382E+02  0.90028143491E+02 0.  0.
          5    1    3    3  502    0  0.72733152278E+02 -0.58042125087E+01 -0.53403809434E+02  0.90516515538E+02  0.41800000000E+01 0. -1.
         -5    1    3    3    0  502 -0.32245573511E+02 -0.67524029026E+01  0.28648958804E+02  0.43858946596E+02  0.41800000000E+01 0. -1.
        -11    1    4    4    0    0 -0.18198036514E+02 -0.21201757260E+02  0.31924428694E+02  0.42424664893E+02  0.00000000000E+00 0.  1.
         11    1    4    4    0    0 -0.22289542253E+02  0.33758372671E+02 -0.40838532705E+02  0.57482494489E+02  0.00000000000E+00 0. -1.
</event>
<event>
 8    1  0.8619230E-006  0.1757218E+03  0.7561462E-02  0.1172009E+00
          2   -1    0    0  501    0  0.00000000000E+00  0.00000000000E+00  0.30256859503E+03  0.30256859503E+03  0.00000000000E+00 0. -1.
         -2   -1    0    0    0  501 -0.00000000000E+00 -0.00000000000E+00 -0.13273392561E+03  0.13273392561E+03  0.00000000000E+00 0.  1.
         23    2    1    2    0    0  0.62574130488E+02  0.15266621513E+03  0.56385728243E+02  0.21459129511E+03  0.12509028155E+03 0.  0.
         23    2    1    2    0    0 -0.62574130488E+02 -0.15266621513E+03  0.11344894118E+03  0.22071122553E+03  0.92845504843E+02 0.  0.
          5    1    3    3  502    0  0.23619583424E+02 -0.10174994187E+01  0.50461686935E+02  0.55881788398E+02  0.41800000000E+01 0. -1.
         -5    1    3    3    0  502  0.38954547065E+02  0.15368371455E+03  0.59240413074E+01  0.15870950671E+03  0.41800000000E+01 0. -1.
        -11    1    4    4    0    0 -0.62312314142E+02 -0.11198112104E+03  0.12437622790E+03  0.17858343156E+03  0.00000000000E+00 0. -1.
         11    1    4    4    0    0 -0.26181634650E+00 -0.40685094096E+02 -0.10927286717E+02  0.42127793965E+02  0.00000000000E+00 0.  1.
</event>
<event>
 8    1  0.8619230E-006  0.8523539E+02  0.7561462E-02  0.1314818E+00
         -1   -1    0    0    0  501 -0.00000000000E+00  0.00000000000E+00  0.86606942763E+02  0.86606942763E+02  0.00000000000E+00 0.  1.
          1   -1    0    0  501    0  0.00000000000E+00 -0.00000000000E+00 -0.14830208080E+03  0.14830208080E+03  0.00000000000E+00 0. -1.
         23    2    1    2    0    0 -0.24975521164E+02  0.16590182486E+02 -0.19882005350E+02  0.13015926067E+03  0.12508848144E+03 0.  0.
         23    2    1    2    0    0  0.24975521164E+02 -0.16590182486E+02 -0.41813132683E+02  0.10474976289E+03  0.91242336383E+02 0.  0.
          5    1    3    3  502    0 -0.42366840920E+02  0.37113747130E+02  0.36709151174E+02  0.67360326717E+02  0.41800000000E+01 0. -1.
         -5    1    3    3    0  502  0.17391319756E+02 -0.20523564644E+02 -0.56591156524E+02  0.62798933950E+02  0.41800000000E+01 0. -1.
        -11    1    4    4    0    0  0.12887844915E+01  0.32361244989E+02  0.52767547505E+01  0.32813949525E+02  0.00000000000E+00 0.  1.
         11    1    4    4    0    0  0.23686736673E+02 -0.48951427476E+02 -0.47089887433E+02  0.71935813366E+02  0.00000000000E+00 0. -1.
</event>
<event>
 8    1  0.8619230E-006  0.2237760E+03  0.7561462E-02  0.1131099E+00
          1   -1    0    0  501    0  0.00000000000E+00  0.00000000000E+00  0.12066938857E+03  0.12066938857E+03  0.00000000000E+00 0. -1.
         -1   -1    0    0    0  501 -0.00000000000E+00 -0.00000000000E+00 -0.56047564413E+03  0.56047564413E+03  0.00000000000E+00 0.  1.
         23    2    1    2    0    0  0.95311537828E+02 -0.19220707669E+03 -0.35118486757E+03  0.43012427019E+03  0.12509287356E+03 0.  0.
         23    2    1    2    0    0 -0.95311537828E+02  0.19220707669E+03 -0.88621387989E+02  0.25102076251E+03  0.95550108470E+02 0.  0.
          5    1    3    3  502    0  0.78322949278E+02 -0.15200042687E+03 -0.16081988324E+03  0.23477461830E+03  0.41800000000E+01 0. -1.
         -5    1    3    3    0  502  0.16988588549E+02 -0.40206649820E+02 -0.19036498433E+03  0.19534965188E+03  0.41800000000E+01 0. -1.
        -11    1    4    4    0    0 -0.59504558067E+02  0.30174533625E+02 -0.10241894299E+02  0.67499565251E+02  0.00000000000E+00 0.  1.
         11    1    4    4    0    0 -0.35806979760E+02  0.16203254307E+03 -0.78379493690E+02  0.18352119726E+03  0.00000000000E+00 0. -1.
</event>
<event>
 8    1  0.8619230E-006  0.6882646E+02  0.7561462E-02  0.1364130E+00
          2   -1    0    0  501    0  0.00000000000E+00  0.00000000000E+00  0.37839300003E+03  0.37839300003E+03  0.00000000000E+00 0. -1.
         -2   -1    0    0    0  501 -0.00000000000E+00 -0.00000000000E+00 -0.36527083797E+02  0.36527083797E+02  0.00000000000E+00 0.  1.
         23    2    1    2    0    0 -0.14325784782E+02  0.34633944909E+02  0.14734725706E+03  0.19688522454E+03  0.12509132356E+03 0.  0.
         23    2    1    2    0    0  0.14325784782E+02 -0.34633944909E+02  0.19451865918E+03  0.21803485929E+03  0.91087610839E+02 0.  0.
          5    1    3    3  502    0 -0.12218627531E+02  0.43845489090E+01  0.16226292339E+03  0.16283503258E+03  0.41800000000E+01 0. -1.
         -5    1    3    3    0  502 -0.21071572506E+01  0.30249396000E+02 -0.14915666336E+02  0.34050191956E+02  0.41800000000E+01 0. -1.
        -11    1    4    4    0    0  0.41238661364E+02 -0.48061667721E+02  0.95830511054E+02  0.11486530348E+03  0.00000000000E+00 0.  1.
         11    1    4    4    0    0 -0.26912876582E+02  0.13427722812E+02  0.98688148121E+02  0.10316955581E+03  0.00000000000E+00 0. -1.
</event>
<event>
 8    1  0.8619230E-006  0.8345477E+02  0.7561462E-02  0.1319524E+00
          4   -1    0    0  501    0  0.00000000000E+00  0.00000000000E+00  0.19161332119E+03  0.19161332119E+03  0.00000000000E+00 0.  1.
         -4   -1    0    0    0  501 -0.00000000000E+00 -0.00000000000E+00 -0.19429034263E+03  0.19429034263E+03  0.00000000000E+00 0. -1.
         23    2    1    2    0    0  0.45631235120E+02  0.10096372952E+02 -0.15368276365E+03  0.20357902291E+03  0.12506750321E+03 0.  0.
         23    2    1    2    0    0 -0.45631235120E+02 -0.10096372952E+02  0.15100574221E+03  0.18232464092E+03  0.90859199536E+02 0.  0.
          5    1    3    3  502    0 -0.28633181755E+02  0.36033330502E+01 -0.11664103648E+03  0.12023080677E+03  0.41800000000E+01 0.  1.
         -5    1    3    3    0  502  0.74264416875E+02  0.64930399016E+01 -0.37041727172E+02  0.83348216135E+02  0.41800000000E+01 0.  1.
        -11    1    4    4    0    0 -0.27772773732E+02  0.15552501288E+02  0.14747630333E+03  0.15087235433E+03  0.00000000000E+00 0.  1.
         11    1    4    4    0    0 -0.17858461388E+02 -0.25648874240E+02  0.35294388811E+01  0.31452286590E+02  0.00000000000E+00 0. -1.
</event>
<event>
 8    1  0.8619230E-006  0.9065026E+02  0.7561462E-02  0.1301285E+00
          1   -1    0    0  501    0  0.00000000000E+00  0.00000000000E+00  0.40827947555E+02  0.40827947555E+02  0.00000000000E+00 0. -1.
         -1   -1    0    0    0  501 -0.00000000000E+00 -0.00000000000E+00 -0.34410232512E+03  0.34410232512E+03  0.00000000000E+00 0.  1.
         23    2    1    2    0    0 -0.19744864525E+02 -0.36282447553E+02 -0.20340496564E+03  0.24233645929E+03  0.12508838387E+03 0.  0.
         23    2    1    2    0    0  0.19744864525E+02  0.36282447553E+02 -0.99869411933E+02  0.14259381339E+03  0.93020538064E+02 0.  0.
          5    1    3    3  502    0  0.34346689595E+02 -0.42545265830E+02 -0.16927401945E+03  0.17793527135E+03  0.41800000000E+01 0. -1.
         -5    1    3    3    0  502 -0.54091554120E+02  0.62628182769E+01 -0.34130946185E+02  0.64401187934E+02  0.41800000000E+01 0. -1.
        -11    1    4    4    0    0  0.19883170344E+01  0.49608280025E+02 -0.10806849128E+03  0.11892743023E+03  0.00000000000E+00 0.  1.
         11    1    4    4    0    0  0.17756547490E+02 -0.13325832472E+02  0.81990793515E+01  0.23666383164E+02  0.00000000000E+00 0. -1.
</event>
<event>
 8    1  0.8619230E-006  0.9474262E+02  0.7561462E-02  0.1291757E+00
         -1   -1    0    0    0  501 -0.00000000000E+00  0.00000000000E+00  0.71482611777E+02  0.71482611777E+02  0.00000000000E+00 0.  1.
          1   -1    0    0  501    0  0.00000000000E+00 -0.00000000000E+00 -0.17026424398E+03  0.17026424398E+03  0.00000000000E+00 0. -1.
         23    2    1    2    0    0  0.13013939905E+02 -0.14277326517E+02 -0.29620679219E+02  0.12998949593E+03  0.12508668886E+03 0.  0.
         23    2    1    2    0    0 -0.13013939905E+02  0.14277326517E+02 -0.69160952988E+02  0.11175735983E+03  0.85634487062E+02 0.  0.
          5    1    3    3  502    0 -0.48624789638E+02  0.19201319310E+02  0.29735834918E+01  0.52529757561E+02  0.41800000000E+01 0.  1.
         -5    1    3    3    0  502  0.61638729543E+02 -0.33478645827E+02 -0.32594262711E+02  0.77459738366E+02  0.41800000000E+01 0.  1.
        -11    1    4    4    0    0 -0.51865079140E+01 -0.25606674219E+02  0.55466891041E+01  0.26708938371E+02  0.00000000000E+00 0.  1.
         11    1    4    4    0    0 -0.78274319908E+01  0.39884000736E+02 -0.74707642093E+02  0.85048421463E+02  0.00000000000E+00 0. -1.
</event>
<event>
 8    1  0.8619230E-006  0.1872254E+03  0.7561462E-02  0.1160988E+00
          2   -1    0    0  501    0  0.00000000000E+00  0.00000000000E+00  0.10577880214E+04  0.10577880214E+04  0.00000000000E+00 0. -1.
         -2   -1    0    0    0  501 -0.00000000000E+00 -0.00000000000E+00 -0.37476204574E+02  0.37476204574E+02  0.00000000000E+00 0.  1.
         23    2    1    2    0    0  0.14361311560E+03 -0.64777633580E+02  0.36658227001E+03  0.41815339625E+03  0.12509529696E+03 0.  0.
         23    2    1    2    0    0 -0.14361311560E+03  0.64777633580E+02  0.65372954679E+03  0.67711082970E+03  0.79346622918E+02 0.  0.
          5    1    3    3  502    0  0.99147009952E+02 -0.10022053082E+03  0.29196498795E+03  0.32424575706E+03  0.41800000000E+01 0. -1.
         -5    1    3    3    0  502  0.44466105651E+02  0.35442897236E+02  0.74617282060E+02  0.93907639190E+02  0.41800000000E+01 0. -1.
        -11    1    4    4    0    0 -0.68146766560E+02 -0.11482718628E+02  0.25821675910E+03  0.26730456281E+03  0.00000000000E+00 0.  1.
         11    1    4    4    0    0 -0.75466349043E+02  0.76260352208E+02  0.39551278769E+03  0.40980626689E+03  0.00000000000E+00 0. -1.
</event>
<event>
 8    1  0.8619230E-006  0.9932787E+02  0.7561462E-02  0.1281716E+00
         -1   -1    0    0    0  501 -0.00000000000E+00  0.00000000000E+00  0.56460320480E+03  0.56460320480E+03  0.00000000000E+00 0.  1.
          1   -1    0    0  501    0  0.00000000000E+00 -0.00000000000E+00 -0.35908786983E+02  0.35908786983E+02  0.00000000000E+00 0. -1.
         23    2    1    2    0    0 -0.28475329542E+02  0.75602077155E+02  0.37929619942E+03  0.40747946518E+03  0.12508952468E+03 0.  0.
         23    2    1    2    0    0  0.28475329542E+02 -0.75602077155E+02  0.14939821840E+03  0.19303252660E+03  0.91734454836E+02 0.  0.
          5    1    3    3  502    0 -0.18337690750E+02  0.74775095220E+02  0.38664186902E+03  0.39425498481E+03  0.41800000000E+01 0. -1.
         -5    1    3    3    0  502 -0.10137638792E+02  0.82698193592E+00 -0.73456695946E+01  0.13224480375E+02  0.41800000000E+01 0. -1.
        -11    1    4    4    0    0  0.14014543229E+02 -0.89445016583E+02  0.80042068893E+02  0.12084515384E+03  0.00000000000E+00 0.  1.
         11    1    4    4    0    0  0.14460786314E+02  0.13842939428E+02  0.69356149504E+02  0.72187372765E+02  0.00000000000E+00 0. -1.
</event>
<event>
 8    1  0.8619230E-006  0.9410713E+02  0.7561462E-02  0.1293200E+00
          1   -1    0    0  501    0  0.00000000000E+00  0.00000000000E+00  0.14718275516E+03  0.14718275516E+03  0.00000000000E+00 0. -1.
         -1   -1    0    0    0  501 -0.00000000000E+00 -0.00000000000E+00 -0.82819080860E+02  0.82819080860E+02  0.00000000000E+00 0.  1.
         23    2    1    2    0    0  0.29849668364E+01  0.51168872661E+01  0.12064178976E+02  0.12581063147E+03  0.12509067917E+03 0.  0.
         23    2    1    2    0    0 -0.29849668364E+01 -0.51168872661E+01  0.52299495324E+02  0.10419120454E+03  0.89919282309E+02 0.  0.
          5    1    3    3  502    0 -0.47268558512E+02  0.30208644109E+02 -0.21525655443E+02  0.60230432880E+02  0.41800000000E+01 0. -1.
         -5    1    3    3    0  502  0.50253525348E+02 -0.25091756843E+02  0.33589834418E+02  0.65580198594E+02  0.41800000000E+01 0. -1.
        -11    1    4    4    0    0 -0.39184910621E+02 -0.43853417633E+01 -0.13664804875E+01  0.39453209143E+02  0.00000000000E+00 0.  1.
         11    1    4    4    0    0  0.36199943784E+02 -0.73154550279E+00  0.53665975811E+02  0.64737995401E+02  0.00000000000E+00 0. -1.
</event>
<event>
 8    1  0.8619230E-006  0.1445065E+03  0.7561462E-02  0.1207391E+00
          1   -1    0    0  501    0  0.00000000000E+00  0.00000000000E+00  0.38188103775E+03  0.38188103775E+03  0.00000000000E+00 0. -1.
         -1   -1    0    0    0  501 -0.00000000000E+00 -0.00000000000E+00 -0.97629381740E+02  0.97629381740E+02  0.00000000000E+00 0.  1.
         23    2    1    2    0    0  0.48326523529E+02 -0.12398126286E+03  0.40105153862E+02  0.18698742627E+03  0.12509623415E+03 0.  0.
         23    2    1    2    0    0 -0.48326523529E+02  0.12398126286E+03  0.24414650215E+03  0.29252299322E+03  0.90859125208E+02 0.  0.
          5    1    3    3  502    0  0.48207593087E+02 -0.70751453571E+02  0.82379213943E+02  0.11888459742E+03  0.41800000000E+01 0.  1.
         -5    1    3    3    0  502  0.11893044122E+00 -0.53229809293E+02 -0.42274060081E+02  0.68102828851E+02  0.41800000000E+01 0.  1.
        -11    1    4    4    0    0 -0.16277085978E+01  0.94848306653E+02  0.20211194703E+03  0.22326685792E+03  0.00000000000E+00 0. -1.
         11    1    4    4    0    0 -0.46698814931E+02  0.29132956211E+02  0.42034555115E+02  0.69256135304E+02  0.00000000000E+00 0.  1.
</event>
<event>
 8    1  0.8619230E-006  0.1140309E+03  0.7561462E-02  0.1253282E+00
         -3   -1    0    0    0  501 -0.00000000000E+00  0.00000000000E+00  0.51297858099E+02  0.51297858099E+02  0.00000000000E+00 0.  1.
          3   -1    0    0  501    0  0.00000000000E+00 -0.00000000000E+00 -0.30584989275E+03  0.30584989275E+03  0.00000000000E+00 0. -1.
         23    2    1    2    0    0  0.82876969054E+01 -0.62195264996E+02 -0.14067602284E+03  0.19842966767E+03  0.12509057799E+03 0.  0.
         23    2    1    2    0    0 -0.82876969054E+01  0.62195264996E+02 -0.11387601181E+03  0.15871808318E+03  0.91031571194E+02 0.  0.
          5    1    3    3  502    0  0.33839950908E+02  0.24238141898E+02 -0.16582065536E+02  0.45000745522E+02  0.41800000000E+01 0. -1.
         -5    1    3    3    0  502 -0.25552254002E+02 -0.86433406894E+02 -0.12409395731E+03  0.15342892215E+03  0.41800000000E+01 0. -1.
        -11    1    4    4    0    0 -0.36527575765E+02  0.56361580656E+02 -0.37151607310E+02  0.76753719721E+02  0.00000000000E+00 0.  1.
         11    1    4    4    0    0  0.28239878859E+02  0.58336843394E+01 -0.76724404502E+02  0.81964363458E+02  0.00000000000E+00 0. -1.
</event>
<event>
 8    1  0.8619230E-006  0.1163869E+03  0.7561462E-02  0.1249179E+00
         -2   -1    0    0    0  501 -0.00000000000E+00  0.00000000000E+00  0.71760625536E+02  0.71760625536E+02  0.00000000000E+00 0.  1.
          2   -1    0    0  501    0  0.00000000000E+00 -0.00000000000E+00 -0.27555200024E+03  0.27555200024E+03  0.00000000000E+00 0. -1.
         23    2    1    2    0    0 -0.22889633289E+02 -0.85850566551E+02 -0.11939196280E+03  0.19441314937E+03  0.12509107393E+03 0.  0.
         23    2    1    2    0    0  0.22889633289E+02  0.85850566551E+02 -0.84399411901E+02  0.15289947640E+03  0.91437049742E+02 0.  0.
          5    1    3    3  502    0  0.40181105945E+02 -0.55348980824E+02 -0.10066483833E+03  0.12177402444E+03  0.41800000000E+01 0.  1.
         -5    1    3    3    0  502 -0.63070739234E+02 -0.30501585726E+02 -0.18727124472E+02  0.72639124928E+02  0.41800000000E+01 0.  1.
        -11    1    4    4    0    0  0.28189216818E+02  0.46622918336E+02 -0.97089148903E+02  0.11133117844E+03  0.00000000000E+00 0. -1.
         11    1    4    4    0    0 -0.52995835289E+01  0.39227648214E+02  0.12689737001E+02  0.41568297959E+02  0.00000000000E+00 0.  1.
</event>
<event>
 8    1  0.8619230E-006  0.1078211E+03  0.7561462E-02  0.1264659E+00
         -2   -1    0    0    0  501 -0.00000000000E+00  0.00000000000E+00  0.94138710645E+03  0.94138710645E+03  0.00000000000E+00 0. -1.
          2   -1    0    0  501    0  0.00000000000E+00 -0.00000000000E+00 -0.24334427215E+02  0.24334427215E+02  0.00000000000E+00 0.  1.
         23    2    1    2    0    0  0.65324651383E+02  0.46219826774E+02  0.71115927055E+03  0.72649647489E+03  0.12508412161E+03 0.  0.
         23    2    1    2    0    0 -0.65324651383E+02 -0.46219826774E+02  0.20589340869E+03  0.23922505877E+03  0.91831097886E+02 0.  0.
          5    1    3    3  502    0  0.71452097574E+00  0.63811671554E+02  0.51973836247E+03  0.52365816884E+03  0.41800000000E+01 0. -1.
         -5    1    3    3    0  502  0.64610130408E+02 -0.17591844780E+02  0.19142090807E+03  0.20283830605E+03  0.41800000000E+01 0. -1.
        -11    1    4    4    0    0 -0.53206693697E+02 -0.22118754734E+02  0.20422428629E+03  0.21219743325E+03  0.00000000000E+00 0. -1.
         11    1    4    4    0    0 -0.12117957686E+02 -0.24101072039E+02  0.16691223934E+01  0.27027625524E+02  0.00000000000E+00 0.  1.
</event>
<event>
 8    1  0.8619230E-006  0.1961703E+03  0.7561462E-02  0.1153011E+00
         -2   -1    0    0    0  501 -0.00000000000E+00  0.00000000000E+00  0.73715742351E+02  0.73715742351E+02  0.00000000000E+00 0.  1.
          2   -1    0    0  501    0  0.00000000000E+00 -0.00000000000E+00 -0.56093155144E+03  0.56093155144E+03  0.00000000000E+00 0. -1.
         23    2    1    2    0    0 -0.16780699580E+03  0.27848324624E+01 -0.31522184454E+03  0.37838797472E+03  0.12508279261E+03 0.  0.
         23    2    1    2    0    0  0.16780699580E+03 -0.27848324624E+01 -0.17199396455E+03  0.25625931907E+03  0.88994222510E+02 0.  0.
          5    1    3    3  502    0 -0.64496941338E+02  0.60497280565E+02 -0.10723370189E+03  0.13905508124E+03  0.41800000000E+01 0.  1.
         -5    1    3    3    0  502 -0.10331005446E+03 -0.57712448103E+02 -0.20798814265E+03  0.23933289348E+03  0.41800000000E+01 0.  1.
        -11    1    4    4    0    0  0.57998102350E+02  0.36785704460E+02 -0.37760779049E+02  0.78376299755E+02  0.00000000000E+00 0.  1.
         11    1    4    4    0    0  0.10980889345E+03 -0.39570536922E+02 -0.13423318550E+03  0.17788301932E+03  0.00000000000E+00 0. -1.
</event>
<event>
 8    1  0.8619230E-006  0.8655366E+02  0.7561462E-02  0.1311419E+00
          1   -1    0    0  501    0  0.00000000000E+00  0.00000000000E+00  0.11367114668E+03  0.11367114668E+03  0.00000000000E+00 0. -1.
         -1   -1    0    0    0  501 -0.00000000000E+00 -0.00000000000E+00 -0.12890348374E+03  0.12890348374E+03  0.00000000000E+00 0.  1.
         23    2    1    2    0    0  0.48797041591E+02 -0.73989294575E+01 -0.31913572693E+02  0.13820949443E+03  0.12508993886E+03 0.  0.
         23    2    1    2    0    0 -0.48797041591E+02  0.73989294575E+01  0.16681235634E+02  0.10436513600E+03  0.90431866973E+02 0.  0.
          5    1    3    3  502    0  0.58725303006E+02 -0.35487047980E+01  0.36159008969E+02  0.69182373828E+02  0.41800000000E+01 0.  1.
         -5    1    3    3    0  502 -0.99282614155E+01 -0.38502246595E+01 -0.68072581662E+02  0.69027120603E+02  0.41800000000E+01 0.  1.
        -11    1    4    4    0    0  0.98394753007E+01 -0.31047972712E+02  0.13864556209E+01  0.32599296663E+02  0.00000000000E+00 0. -1.
         11    1    4    4    0    0 -0.58636516892E+02  0.38446902170E+02  0.15294780013E+02  0.71765839334E+02  0.00000000000E+00 0.  1.
</event>
<event>
 7    1  0.8619230E-006  0.1216610E+03  0.7561462E-02  0.1240382E+00
          2   -1    0    0  501    0  0.00000000000E+00  0.00000000000E+00  0.30669266621E+03  0.30669266621E+03  0.00000000000E+00 0. -1.
         -2   -1    0    0    0  501 -0.00000000000E+00 -0.00000000000E+00 -0.66779188611E+02  0.66779188611E+02  0.00000000000E+00 0.  1.
         23    2    1    2    0    0  0.52119632066E+02  0.49548561380E+02  0.15592256327E+03  0.19450040034E+03  0.91362158537E+02 0.  0.
          5    1    1    2  502    0 -0.29300319089E+01  0.31690203999E+02  0.77270102708E+02  0.83671950431E+02  0.41800000000E+01 0. -1.
         -5    1    1    2    0  502 -0.49189600157E+02 -0.81238765379E+02  0.67208116200E+01  0.95299504053E+02  0.41800000000E+01 0.  1.
        -11    1    3    3    0    0 -0.26221565242E+02  0.17460790529E+02  0.38621978850E+02  0.49840816004E+02  0.00000000000E+00 0. -1.
         11    1    3    3    0    0  0.78341197308E+02  0.32087770851E+02  0.11730058442E+03  0.14465958434E+03  0.00000000000E+00 0.  1.
</event>
<event>
 8    1  0.8619230E-006  0.1307018E+03  0.7561462E-02  0.1226418E+00
          2   -1    0    0  501    0  0.00000000000E+00  0.00000000000E+00  0.10203071021E+03  0.10203071021E+03  0.00000000000E+00 0. -1.
         -2   -1    0    0    0  501 -0.00000000000E+00 -0.00000000000E+00 -0.29105434366E+03  0.29105434366E+03  0.00000000000E+00 0.  1.
         23    2    1    2    0    0 -0.19618982602E+02 -0.10078216621E+03 -0.19643988703E+03  0.25451461522E+03  0.12508841128E+03 0.  0.
         23    2    1    2    0    0  0.19618982602E+02  0.10078216621E+03  0.74162535834E+01  0.13857043866E+03  0.92762148260E+02 0.  0.
          5    1    3    3  502    0 -0.50701724978E+02 -0.66082123281E+02 -0.42451496506E+02  0.93579452278E+02  0.41800000000E+01 0. -1.
         -5    1    3    3    0  502  0.31082742375E+02 -0.34700042925E+02 -0.15398839053E+03  0.16093516294E+03  0.41800000000E+01 0. -1.
        -11    1    4    4    0    0 -0.24231610680E+02  0.34445526181E+01  0.19276347168E+02  0.31154669939E+02  0.00000000000E+00 0. -1.
         11    1    4    4    0    0  0.43850593283E+02  0.97337613588E+02 -0.11860093584E+02  0.10741576872E+03  0.00000000000E+00 0.  1.
</event>
<event>
 8    1  0.8619230E-006  0.1560099E+03  0.7561462E-02  0.1193277E+00
          2   -1    0    0  501    0  0.00000000000E+00  0.00000000000E+00  0.65932357655E+03  0.65932357655E+03  0.00000000000E+00 0.  1.
         -2   -1    0    0    0  501 -0.00000000000E+00 -0.00000000000E+00 -0.55177372395E+02  0.55177372395E+02  0.00000000000E+00 0. -1.
         23    2    1    2    0    0 -0.61902451506E+02 -0.12667360528E+03  0.18721566308E+03  0.26566146879E+03  0.12509274847E+03 0.  0.
         23    2    1    2    0    0  0.61902451506E+02  0.12667360528E+03  0.41693054108E+03  0.44883948016E+03  0.88020946882E+02 0.  0.
          5    1    3    3  502    0 -0.17984879334E+02 -0.78992053681E+02  0.18345838570E+03  0.20059325042E+03  0.41800000000E+01 0.  1.
         -5    1    3    3    0  502 -0.43917572171E+02 -0.47681551598E+02  0.37572773778E+01  0.65068218367E+02  0.41800000000E+01 0.  1.
        -11    1    4    4    0    0  0.11300824327E+02  0.11294345823E+03  0.29686618512E+03  0.31782615571E+03  0.00000000000E+00 0. -1.
         11    1    4    4    0    0  0.50601627178E+02  0.13730147048E+02  0.12006435596E+03  0.13101332445E+03  0.00000000000E+00 0.  1.
</event>
<event>
 8    1  0.8619230E-006  0.1557086E+03  0.7561462E-02  0.1193629E+00
          1   -1    0    0  501    0  0.00000000000E+00  0.00000000000E+00  0.94942880664E+02  0.94942880664E+02  0.00000000000E+00 0. -1.
         -1   -1    0    0    0  501 -0.00000000000E+00 -0.00000000000E+00 -0.31190500829E+03  0.31190500829E+03  0.00000000000E+00 0.  1.
         23    2    1    2    0    0  0.77318023288E+01  0.12243828610E+03 -0.16569299696E+03  0.24114662821E+03  0.12508641968E+03 0.  0.
         23    2    1    2    0    0 -0.77318023288E+01 -0.12243828610E+03 -0.51269130671E+02  0.16570126074E+03  0.98881087086E+02 0.  0.
          5    1    3    3  502    0  0.55270349576E+02  0.16827479733E+02 -0.41357774811E+02  0.71175231322E+02  0.41800000000E+01 0. -1.
         -5    1    3    3    0  502 -0.47538547247E+02  0.10561080636E+03 -0.12433522215E+03  0.16997139689E+03  0.41800000000E+01 0. -1.
        -11    1    4    4    0    0  0.27436178698E+02 -0.48492331657E+02 -0.61727044438E+02  0.83153341160E+02  0.00000000000E+00 0. -1.
         11    1    4    4    0    0 -0.35167981027E+02 -0.73945954439E+02  0.10457913767E+02  0.82547919585E+02  0.00000000000E+00 0.  1.
</event>
<event>
 7    1  0.8619230E-006  0.1378045E+03  0.7561462E-02  0.1216314E+00
          2   -1    0    0  501    0  0.00000000000E+00  0.00000000000E+00  0.28164132651E+03  0.28164132651E+03  0.00000000000E+00 0. -1.
         -2   -1    0    0    0  501 -0.00000000000E+00 -0.00000000000E+00 -0.92197902226E+02  0.92197902226E+02  0.00000000000E+00 0.  1.
         23    2    1    2    0    0  0.49628539796E+02  0.21975947378E+02  0.57842154189E+02  0.14811931915E+03  0.12509070181E+03 0.  0.
          5    1    3    3  502    0  0.47668402828E+02  0.47693299644E+02  0.86225274652E+02  0.10954085013E+03  0.41800000000E+01 0.  1.
         -5    1    3    3    0  502  0.19601369676E+01 -0.25717352266E+02 -0.28383120462E+02  0.38578469017E+02  0.41800000000E+01 0.  1.
        -11    1    1    2    0    0 -0.68115918772E+02 -0.89181050838E+02  0.94788772312E+02  0.14689434834E+03  0.00000000000E+00 0. -1.
         11    1    1    2    0    0  0.18487378976E+02  0.67205103459E+02  0.36812497784E+02  0.78825561244E+02  0.00000000000E+00 0.  1.
</event>
<event>
 7    1  0.8619230E-006  0.1082981E+03  0.7561462E-02  0.1263754E+00
         -1   -1    0    0    0  501 -0.00000000000E+00  0.00000000000E+00  0.50732398911E+02  0.50732398911E+02  0.00000000000E+00 0.  1.
          1   -1    0    0  501    0  0.00000000000E+00 -0.00000000000E+00 -0.45223619217E+03  0.45223619217E+03  0.00000000000E+00 0. -1.
         23    2    1    2    0    0 -0.54829814097E+01  0.77856444714E+02 -0.16994115585E+03  0.20711595245E+03  0.89024335092E+02 0.  0.
          5    1    1    2  502    0 -0.10901120972E+02  0.62013759119E+01 -0.20594071808E+03  0.20636458820E+03  0.41800000000E+01 0. -1.
         -5    1    1    2    0  502  0.16384102382E+02 -0.84057820626E+02 -0.25621919330E+02  0.89488050428E+02  0.41800000000E+01 0.  1.
        -11    1    3    3    0    0  0.40163337295E+02  0.23044499923E+02 -0.55683754862E+02  0.72421151571E+02  0.00000000000E+00 0.  1.
         11    1    3    3    0    0 -0.45646318704E+02  0.54811944791E+02 -0.11425740099E+03  0.13469480088E+03  0.00000000000E+00 0. -1.
</event>
<event>
 8    1  0.8619230E-006  0.1278513E+03  0.7561462E-02  0.1230679E+00
         -2   -1    0    0    0  501 -0.00000000000E+00  0.00000000000E+00  0.41940286734E+02  0.41940286734E+02  0.00000000000E+00 0.  1.
          2   -1    0    0  501    0  0.00000000000E+00 -0.00000000000E+00 -0.49242984542E+03  0.49242984542E+03  0.00000000000E+00 0. -1.
         23    2    1    2    0    0 -0.83191741859E+02 -0.10666303446E+02 -0.17011902977E+03  0.22720619844E+03  0.12509011301E+03 0.  0.
         23    2    1    2    0    0  0.83191741859E+02  0.10666303446E+02 -0.28037052891E+03  0.30716393372E+03  0.93313518591E+02 0.  0.
          5    1    3    3  502    0 -0.11157373158E+03 -0.23217295185E+02 -0.15500379002E+03  0.19243541175E+03  0.41800000000E+01 0. -1.
         -5    1    3    3    0  502  0.28381989721E+02  0.12550991739E+02 -0.15115239759E+02  0.34770786691E+02  0.41800000000E+01 0. -1.
        -11    1    4    4    0    0  0.11540892407E+02 -0.27027013114E+02 -0.15613550200E+03  0.15887714317E+03  0.00000000000E+00 0. -1.
         11    1    4    4    0    0  0.71650849452E+02  0.37693316560E+02 -0.12423502691E+03  0.14828679055E+03  0.00000000000E+00 0.  1.
</event>
<event>
 8    1  0.8619230E-006  0.2288741E+03  0.7561462E-02  0.1127435E+00
          3   -1    0    0  501    0  0.00000000000E+00  0.00000000000E+00  0.11168283032E+04  0.11168283032E+04  0.00000000000E+00 0. -1.
         -3   -1    0    0    0  501 -0.00000000000E+00 -0.00000000000E+00 -0.58661596278E+02  0.58661596278E+02  0.00000000000E+00 0.  1.
         23    2    1    2    0    0  0.13524143608E+03 -0.16574259659E+03  0.33860055487E+03  0.41930510349E+03  0.12411921569E+03 0.  0.
         23    2    1    2    0    0 -0.13524143608E+03  0.16574259659E+03  0.71956615208E+03  0.75618479601E+03  0.90989802415E+02 0.  0.
          5    1    3    3  502    0  0.13870628117E+02 -0.98271597516E+02  0.19868421623E+03  0.22213192337E+03  0.41800000000E+01 0. -1.
         -5    1    3    3    0  502  0.12137080796E+03 -0.67470999071E+02  0.13991633864E+03  0.19717318012E+03  0.41800000000E+01 0. -1.
        -11    1    4    4    0    0 -0.64412035929E+02  0.41961843088E+02  0.14424410698E+03  0.16345050947E+03  0.00000000000E+00 0.  1.
         11    1    4    4    0    0 -0.70829400149E+02  0.12378075350E+03  0.57532204510E+03  0.59273428654E+03  0.00000000000E+00 0. -1.
</event>
<event>
 8    1  0.8619230E-006  0.1637990E+03  0.7561462E-02  0.1184473E+00
         -1   -1    0    0    0  501 -0.00000000000E+00  0.00000000000E+00  0.24752605196E+03  0.24752605196E+03  0.00000000000E+00 0.  1.
          1   -1    0    0  501    0  0.00000000000E+00 -0.00000000000E+00 -0.11043586774E+03  0.11043586774E+03  0.00000000000E+00 0. -1.
         23    2    1    2    0    0 -0.11344169764E+03 -0.50301613018E+02  0.86788977265E+02  0.19641640595E+03  0.12509119439E+03 0.  0.
         23    2    1    2    0    0  0.11344169764E+03  0.50301613018E+02  0.50301206953E+02  0.16154551376E+03  0.90374059098E+02 0.  0.
          5    1    3    3  502    0 -0.76377872952E+02 -0.91334512825E+02  0.46563055817E+02  0.12791076294E+03  0.41800000000E+01 0. -1.
         -5    1    3    3    0  502 -0.37063824690E+02  0.41032899807E+02  0.40225921447E+02  0.68505643005E+02  0.41800000000E+01 0. -1.
        -11    1    4    4    0    0  0.61356071311E+01 -0.22512215940E+02  0.12496836564E+02  0.26469160650E+02  0.00000000000E+00 0.  1.
         11    1    4    4    0    0  0.10730609051E+03  0.72813828957E+02  0.37804370389E+02  0.13507635311E+03  0.00000000000E+00 0. -1.
</event>
<event>
 8    1  0.8619230E-006  0.9814555E+02  0.7561462E-02  0.1284245E+00
          1   -1    0    0  501    0  0.00000000000E+00  0.00000000000E+00  0.25224231639E+03  0.25224231639E+03  0.00000000000E+00 0. -1.
         -1   -1    0    0    0  501 -0.00000000000E+00 -0.00000000000E+00 -0.59611325772E+02  0.59611325772E+02  0.00000000000E+00 0.  1.
         23    2    1    2    0    0  0.18342266408E+02  0.32969912405E+02  0.52822397187E+02  0.14093825366E+03  0.12509968761E+03 0.  0.
         23    2    1    2    0    0 -0.18342266408E+02 -0.32969912405E+02  0.13980859344E+03  0.17091538850E+03  0.90786416211E+02 0.  0.
          5    1    3    3  502    0  0.59419354283E+02  0.42705077135E+02  0.13180151580E+00  0.73293062756E+02  0.41800000000E+01 0.  1.
         -5    1    3    3    0  502 -0.41077087874E+02 -0.97351647306E+01  0.52690595671E+02  0.67645190906E+02  0.41800000000E+01 0.  1.
        -11    1    4    4    0    0 -0.25410134500E+01 -0.54117946707E+02  0.13306050665E+03  0.14366734958E+03  0.00000000000E+00 0. -1.
         11    1    4    4    0    0 -0.15801252958E+02  0.21148034302E+02  0.67480867815E+01  0.27248038922E+02  0.00000000000E+00 0.  1.
</event>
<event>
 8    1  0.8619230E-006  0.8571108E+02  0.7561462E-02  0.1313583E+00
         -1   -1    0    0    0  501 -0.00000000000E+00  0.00000000000E+00  0.43214213312E+03  0.43214213312E+03  0.00000000000E+00 0.  1.
          1   -1    0    0  501    0  0.00000000000E+00 -0.00000000000E+00 -0.44816993822E+02  0.44816993822E+02  0.00000000000E+00 0. -1.
         23    2    1    2    0    0 -0.86116340379E+01  0.43980769085E+02  0.34019957045E+03  0.36522827272E+03  0.12508986839E+03 0.  0.
         23    2    1    2    0    0  0.86116340379E+01 -0.43980769085E+02  0.47125568850E+02  0.11173085422E+03  0.90854258320E+02 0.  0.
          5    1    3    3  502    0 -0.48214411420E+02  0.20018056500E+02  0.53798439432E+02  0.75080600290E+02  0.41800000000E+01 0.  1.
         -5    1    3    3    0  502  0.39602777382E+02  0.23962712585E+02  0.28640113101E+03  0.29014767243E+03  0.41800000000E+01 0.  1.
        -11    1    4    4    0    0 -0.52271588443E+01 -0.54774457828E+02  0.66019952460E+02  0.85942995891E+02  0.00000000000E+00 0.  1.
         11    1    4    4    0    0  0.13838792882E+02  0.10793688743E+02 -0.18894383610E+02  0.25787858327E+02  0.00000000000E+00 0. -1.
</event>
<event>
 8    1  0.8619230E-006  0.1806286E+03  0.7561462E-02  0.1167196E+00
         -2   -1    0    0    0  501 -0.00000000000E+00  0.00000000000E+00  0.41326545124E+03  0.41326545124E+03  0.00000000000E+00 0.  1.
          2   -1    0    0  501    0  0.00000000000E+00 -0.00000000000E+00 -0.10984075804E+03  0.10984075804E+03  0.00000000000E+00 0. -1.
         23    2    1    2    0    0  0.16281594734E+03 -0.14485747300E+02  0.25846299655E+03  0.33040876712E+03  0.12509181914E+03 0.  0.
         23    2    1    2    0    0 -0.16281594734E+03  0.14485747300E+02  0.44961696644E+02  0.19269744216E+03  0.91607207512E+02 0.  0.
          5    1    3    3  502    0  0.89651158038E+01 -0.34377975138E+02  0.94556500572E+01  0.37001353948E+02  0.41800000000E+01 0.  1.
         -5    1    3    3    0  502  0.15385083153E+03  0.19892227839E+02  0.24900734650E+03  0.29340741317E+03  0.41800000000E+01 0.  1.
        -11    1    4    4    0    0 -0.40549500744E+01  0.10752524727E+02  0.31256718727E+02  0.33302280308E+02  0.00000000000E+00 0.  1.
         11    1    4    4    0    0 -0.15876099726E+03  0.37332225729E+01  0.13704977917E+02  0.15939516185E+03  0.00000000000E+00 0. -1.
</event>
<event>
 8    1  0.8619230E-006  0.9201901E+02  0.7561462E-02  0.1298035E+00
         -2   -1    0    0    0  501 -0.00000000000E+00  0.00000000000E+00  0.67669684118E+02  0.67669684118E+02  0.00000000000E+00 0.  1.
          2   -1    0    0  501    0  0.00000000000E+00 -0.00000000000E+00 -0.21415990017E+03  0.21415990017E+03  0.00000000000E+00 0. -1.
         23    2    1    2    0    0 -0.21117281637E+02  0.23960359639E+02 -0.34834931648E+02  0.13371941188E+03  0.12508944893E+03 0.  0.
         23    2    1    2    0    0  0.21117281637E+02 -0.23960359639E+02 -0.11165528441E+03  0.14811017241E+03  0.91922153025E+02 0.  0.
          5    1    3    3  502    0 -0.52224189563E+02  0.41928588329E+02  0.18199409117E+02  0.69527429026E+02  0.41800000000E+01 0.  1.
         -5    1    3    3    0  502  0.31106907925E+02 -0.17968228690E+02 -0.53034340764E+02  0.64191982858E+02  0.41800000000E+01 0.  1.
        -11    1    4    4    0    0  0.25477551428E+02  0.22568683731E+02 -0.90734466731E+02  0.96908175945E+02  0.00000000000E+00 0. -1.
         11    1    4    4    0    0 -0.43602697912E+01 -0.46529043369E+02 -0.20920817678E+02  0.51201996463E+02  0.00000000000E+00 0.  1.
</event>
<event>
 8    1  0.8619230E-006  0.1152850E+03  0.7561462E-02  0.1251084E+00
         -2   -1    0    0    0  501 -0.00000000000E+00  0.00000000000E+00  0.11733332524E+03  0.11733332524E+03  0.00000000000E+00 0. -1.
          2   -1    0    0  501    0  0.00000000000E+00 -0.00000000000E+00 -0.17002672286E+03  0.17002672286E+03  0.00000000000E+00 0.  1.
         23    2    1    2    0    0 -0.86820642346E+02 -0.14802709456E+02 -0.68145405351E+01  0.15313321347E+03  0.12508556656E+03 0.  0.
         23    2    1    2    0    0  0.86820642346E+02  0.14802709456E+02 -0.45878857088E+02  0.13422683463E+03  0.90305201741E+02 0.  0.
          5    1    3    3  502    0 -0.99092364996E+02  0.23538066442E+02 -0.30295185296E+02  0.10634193916E+03  0.41800000000E+01 0. -1.
         -5    1    3    3    0  502  0.12271722651E+02 -0.38340775897E+02  0.23480644761E+02  0.46791274311E+02  0.41800000000E+01 0. -1.
        -11    1    4    4    0    0  0.52763015081E+02  0.10942564226E+02  0.21985242296E+02  0.58198164499E+02  0.00000000000E+00 0. -1.
         11    1    4    4    0    0  0.34057627265E+02  0.38601452301E+01 -0.67864099384E+02  0.76028670127E+02  0.00000000000E+00 0.  1.
</event>
<event>
 8    1  0.8619230E-006  0.1268692E+03  0.7561462E-02  0.1232177E+00
          1   -1    0    0  501    0  0.00000000000E+00  0.00000000000E+00  0.53167526704E+03  0.53167526704E+03  0.00000000000E+00 0. -1.
         -1   -1    0    0    0  501 -0.00000000000E+00 -0.00000000000E+00 -0.39406480839E+02  0.39406480839E+02  0.00000000000E+00 0.  1.
         23    2    1    2    0    0 -0.35072167845E+01  0.96208940505E+02  0.25316239269E+03  0.29834584879E+03  0.12510230860E+03 0.  0.
         23    2    1    2    0    0  0.35072167845E+01 -0.96208940505E+02  0.23910639351E+03  0.27273589908E+03  0.89132162712E+02 0.  0.
          5    1    3    3  502    0  0.31645939478E+02  0.16321996460E+02  0.62036622101E+01  0.36384486786E+02  0.41800000000E+01 0. -1.
         -5    1    3    3    0  502 -0.35153156262E+02  0.79886944045E+02  0.24695873048E+03  0.26196136201E+03  0.41800000000E+01 0. -1.
        -11    1    4    4    0    0 -0.31419100943E+02 -0.89616170635E+02  0.18587613655E+03  0.20872986390E+03  0.00000000000E+00 0. -1.
         11    1    4    4    0    0  0.34926317727E+02 -0.65927698698E+01  0.53230256958E+02  0.64006035187E+02  0.00000000000E+00 0.  1.
</event>
<event>
 8    1  0.8619230E-006  0.1108465E+03  0.7561462E-02  0.1259010E+00
          2   -1    0    0  501    0  0.00000000000E+00  0.00000000000E+00  0.20088979851E+03  0.20088979851E+03  0.00000000000E+00 0. -1.
         -2   -1    0    0    0  501 -0.00000000000E+00 -0.00000000000E+00 -0.99968896972E+02  0.99968896972E+02  0.00000000000E+00 0.  1.
         23    2    1    2    0    0 -0.53695327929E+02 -0.31738108564E+02 -0.15995868205E+02  0.14068996580E+03  0.12508917979E+03 0.  0.
         23    2    1    2    0    0  0.53695327929E+02  0.31738108564E+02  0.11691676975E+03  0.16016872969E+03  0.89966633509E+02 0.  0.
          5    1    3    3  502    0 -0.82600573288E+02 -0.42856301780E+02 -0.39909155317E+02  0.10133967825E+03  0.41800000000E+01 0.  1.
         -5    1    3    3    0  502  0.28905245359E+02  0.11118193217E+02  0.23913287112E+02  0.39350287549E+02  0.41800000000E+01 0.  1.
        -11    1    4    4    0    0  0.73941955331E+01 -0.23836574557E+02  0.28764443579E+01  0.25122307743E+02  0.00000000000E+00 0.  1.
         11    1    4    4    0    0  0.46301132396E+02  0.55574683121E+02  0.11404032539E+03  0.13504642194E+03  0.00000000000E+00 0. -1.
</event>
<event>
 8    1  0.8619230E-006  0.1051935E+03  0.7561462E-02  0.1269739E+00
         -2   -1    0    0    0  501 -0.00000000000E+00  0.00000000000E+00  0.39774372712E+02  0.39774372712E+02  0.00000000000E+00 0.  1.
          2   -1    0    0  501    0  0.00000000000E+00 -0.00000000000E+00 -0.40363892618E+03  0.40363892618E+03  0.00000000000E+00 0. -1.
         23    2    1    2    0    0  0.10706722953E+02  0.66165097746E+02 -0.19707811169E+03  0.24286545935E+03  0.12510553610E+03 0.  0.
         23    2    1    2    0    0 -0.10706722953E+02 -0.66165097746E+02 -0.16678644179E+03  0.20054783955E+03  0.88934046956E+02 0.  0.
          5    1    3    3  502    0  0.76277609788E+01 -0.36176497093E+02 -0.34826196807E+02  0.50963301144E+02  0.41800000000E+01 0.  1.
         -5    1    3    3    0  502  0.30789619742E+01  0.10234159484E+03 -0.16225191488E+03  0.19190215820E+03  0.41800000000E+01 0.  1.
        -11    1    4    4    0    0 -0.15501661621E+02 -0.26108510145E+02 -0.14907552708E+01  0.30400298786E+02  0.00000000000E+00 0.  1.
         11    1    4    4    0    0  0.47949386680E+01 -0.40056587600E+02 -0.16529568652E+03  0.17014754076E+03  0.00000000000E+00 0. -1.
</event>
<event>
 8    1  0.8619230E-006  0.1339422E+03  0.7561462E-02  0.1221721E+00
         -2   -1    0    0    0  501 -0.00000000000E+00  0.00000000000E+00  0.35615996444E+02  0.35615996444E+02  0.00000000000E+00 0.  1.
          2   -1    0    0  501    0  0.00000000000E+00 -0.00000000000E+00 -0.77372673186E+03  0.77372673186E+03  0.00000000000E+00 0. -1.
         23    2    1    2    0    0 -0.74425525716E+02  0.30599662518E+02 -0.15975384727E+03  0.21827470089E+03  0.12508818932E+03 0.  0.
         23    2    1    2    0    0  0.74425525716E+02 -0.30599662518E+02 -0.57835688815E+03  0.59106802741E+03  0.91592711157E+02 0.  0.
          5    1    3    3  502    0 -0.63517327437E+02  0.77346054438E+02 -0.11503995941E+03  0.15254024939E+03  0.41800000000E+01 0. -1.
         -5    1    3    3    0  502 -0.10908198280E+02 -0.46746391920E+02 -0.44713887855E+02  0.65734451503E+02  0.41800000000E+01 0. -1.
        -11    1    4    4    0    0  0.19054800092E+00  0.26110591975E+02 -0.84097905309E+02  0.88058259120E+02  0.00000000000E+00 0. -1.
         11    1    4    4    0    0  0.74234977716E+02 -0.56710254494E+02 -0.49425898284E+03  0.50300976829E+03  0.00000000000E+00 0.  1.
</event>
<event>
 8    1  0.8619230E-006  0.1371819E+03  0.7561462E-02  0.1217172E+00
         -1   -1    0    0    0  501 -0.00000000000E+00  0.00000000000E+00  0.61267945706E+02  0.61267945706E+02  0.00000000000E+00 0.  1.
          1   -1    0    0  501    0  0.00000000000E+00 -0.00000000000E+00 -0.40690827230E+03  0.40690827230E+03  0.00000000000E+00 0. -1.
         23    2    1    2    0    0  0.51750710585E+02 -0.99402713203E+02 -0.15339410942E+03  0.22745773256E+03  0.12509289290E+03 0.  0.
         23    2    1    2    0    0 -0.51750710585E+02  0.99402713203E+02 -0.19224621717E+03  0.24071848545E+03  0.91802754774E+02 0.  0.
          5    1    3    3  502    0 -0.16095529353E+02 -0.81211889757E+02 -0.12829899521E+03  0.15274993183E+03  0.41800000000E+01 0.  1.
         -5    1    3    3    0  502  0.67846239938E+02 -0.18190823446E+02 -0.25095114216E+02  0.74707800723E+02  0.41800000000E+01 0.  1.
        -11    1    4    4    0    0 -0.15311149884E+02  0.76597175874E+02 -0.51519579842E+02  0.93572569537E+02  0.00000000000E+00 0.  1.
         11    1    4    4    0    0 -0.36439560701E+02  0.22805537329E+02 -0.14072663733E+03  0.14714591591E+03  0.00000000000E+00 0. -1.
</event>
<event>
 8    1  0.8619230E-006  0.1960801E+03  0.7561462E-02  0.1153089E+00
         -1   -1    0    0    0  501 -0.00000000000E+00  0.00000000000E+00  0.56822557699E+02  0.56822557699E+02  0.00000000000E+00 0.  1.
          1   -1    0    0  501    0  0.00000000000E+00 -0.00000000000E+00 -0.81696776133E+03  0.81696776133E+03  0.00000000000E+00 0. -1.
         23    2    1    2    0    0  0.11023486323E+03 -0.14674232400E+03 -0.46108636338E+03  0.51179405471E+03  0.12508990854E+03 0.  0.
         23    2    1    2    0    0 -0.11023486323E+03  0.14674232400E+03 -0.29905884025E+03  0.36199626432E+03  0.88994779196E+02 0.  0.
          5    1    3    3  502    0  0.12438128435E+03 -0.10904375478E+03 -0.27161429689E+03  0.31804566186E+03  0.41800000000E+01 0. -1.
         -5    1    3    3    0  502 -0.14146421125E+02 -0.37698569222E+02 -0.18947206649E+03  0.19374839285E+03  0.41800000000E+01 0. -1.
        -11    1    4    4    0    0 -0.74853779430E+02  0.12165974974E+03 -0.28059117799E+03  0.31485805082E+03  0.00000000000E+00 0. -1.
         11    1    4    4    0    0 -0.35381083796E+02  0.25082574265E+02 -0.18467662261E+02  0.47138213497E+02  0.00000000000E+00 0.  1.
</event>
<event>
 6    1  0.8619230E-006  0.1387756E+04  0.7561462E-02  0.8962729E-01
         -2   -1    0    0    0  501 -0.00000000000E+00  0.00000000000E+00  0.11424801776E+04  0.11424801776E+04  0.00000000000E+00 0.  1.
          2   -1    0    0  501    0  0.00000000000E+00 -0.00000000000E+00 -0.19583608317E+04  0.19583608317E+04  0.00000000000E+00 0. -1.
          5    1    1    2  502    0  0.21826114212E+03 -0.43483005064E+03  0.24557311725E+03  0.54501259381E+03  0.41800000000E+01 0. -1.
         -5    1    1    2    0  502 -0.11518317566E+03 -0.40884615477E+03 -0.36802662963E+02  0.42637336998E+03  0.41800000000E+01 0.  1.
        -11    1    1    2    0    0  0.71228564918E+03  0.76462889162E+03 -0.51900541933E+03  0.11667796764E+04  0.00000000000E+00 0.  1.
         11    1    1    2    0    0 -0.81536361563E+03  0.79047313790E+02 -0.50564568904E+03  0.96267536915E+03  0.00000000000E+00 0. -1.
</event>
<event>
 8    1  0.8619230E-006  0.8855594E+02  0.7561462E-02  0.1306387E+00
         -1   -1    0    0    0  501 -0.00000000000E+00  0.00000000000E+00  0.15927558382E+02  0.15927558382E+02  0.00000000000E+00 0.  1.
          1   -1    0    0  501    0  0.00000000000E+00 -0.00000000000E+00 -0.75923984409E+03  0.75923984409E+03  0.00000000000E+00 0. -1.
         23    2    1    2    0    0  0.15066547207E+02 -0.10961000064E+02 -0.42011510728E+03  0.43873811096E+03  0.12508909734E+03 0.  0.
         23    2    1    2    0    0 -0.15066547207E+02  0.10961000064E+02 -0.32319717843E+03  0.33642929151E+03  0.91548389817E+02 0.  0.
          5    1    3    3  502    0  0.44181863748E+02  0.20144114442E+02 -0.65998935087E+02  0.82043611960E+02  0.41800000000E+01 0. -1.
         -5    1    3    3    0  502 -0.29115316541E+02 -0.31105114506E+02 -0.35411617220E+03  0.35669449900E+03  0.41800000000E+01 0. -1.
        -11    1    4    4    0    0 -0.43405811040E+02 -0.16181735508E+02 -0.10547825777E+03  0.11520232575E+03  0.00000000000E+00 0.  1.
         11    1    4    4    0    0  0.28339263833E+02  0.27142735572E+02 -0.21771892065E+03  0.22122696576E+03  0.00000000000E+00 0. -1.
</event>
<event>
 8    1  0.8619230E-006  0.1087934E+03  0.7561462E-02  0.1262821E+00
          2   -1    0    0  501    0  0.00000000000E+00  0.00000000000E+00  0.22721471261E+03  0.22721471261E+03  0.00000000000E+00 0. -1.
         -2   -1    0    0    0  501 -0.00000000000E+00 -0.00000000000E+00 -0.15015228555E+03  0.15015228555E+03  0.00000000000E+00 0.  1.
         23    2    1    2    0    0 -0.41442386425E+01  0.28457622551E+02 -0.10591293837E+03  0.16640799930E+03  0.12508821176E+03 0.  0.
         23    2    1    2    0    0  0.41442386425E+01 -0.28457622551E+02  0.18297536544E+03  0.21095899885E+03  0.10097872967E+03 0.  0.
          5    1    3    3  502    0  0.32268074778E+02 -0.38134971914E+02 -0.27405980782E+02  0.57131995549E+02  0.41800000000E+01 0.  1.
         -5    1    3    3    0  502 -0.36412313420E+02  0.66592594465E+02 -0.78506957590E+02  0.10927600375E+03  0.41800000000E+01 0.  1.
        -11    1    4    4    0    0 -0.14326099377E+01  0.31347442552E+02  0.11957612416E+03  0.12362509452E+03  0.00000000000E+00 0.  1.
         11    1    4    4    0    0  0.55768485802E+01 -0.59805065102E+02  0.63399241275E+02  0.87333904334E+02  0.00000000000E+00 0. -1.
</event>
<event>
 8    1  0.8619230E-006  0.1051229E+03  0.7561462E-02  0.1269878E+00
         -2   -1    0    0    0  501 -0.00000000000E+00  0.00000000000E+00  0.35626303138E+02  0.35626303138E+02  0.00000000000E+00 0.  1.
          2   -1    0    0  501    0  0.00000000000E+00 -0.00000000000E+00 -0.33339607000E+03  0.33339607000E+03  0.00000000000E+00 0. -1.
         23    2    1    2    0    0 -0.66066688332E+01 -0.46456961178E+01 -0.15201398861E+03  0.19702928199E+03  0.12508818755E+03 0.  0.
         23    2    1    2    0    0  0.66066688332E+01  0.46456961178E+01 -0.14575577825E+03  0.17199309115E+03  0.90948589558E+02 0.  0.
          5    1    3    3  502    0  0.23665832784E+02  0.52699924004E+02 -0.52467623091E+02  0.78151631488E+02  0.41800000000E+01 0.  1.
         -5    1    3    3    0  502 -0.30272501617E+02 -0.57345620122E+02 -0.99546365515E+02  0.11887765050E+03  0.41800000000E+01 0.  1.
        -11    1    4    4    0    0  0.37403012874E+02  0.29607043069E+02 -0.54073862649E+02  0.72107870535E+02  0.00000000000E+00 0.  1.
         11    1    4    4    0    0 -0.30796344040E+02 -0.24961346951E+02 -0.91681915605E+02  0.99885220613E+02  0.00000000000E+00 0. -1.
</event>
<event>
 8    1  0.8619230E-006  0.2528581E+03  0.7561462E-02  0.1111512E+00
          1   -1    0    0  501    0  0.00000000000E+00  0.00000000000E+00  0.23542853610E+03  0.23542853610E+03  0.00000000000E+00 0. -1.
         -1   -1    0    0    0  501 -0.00000000000E+00 -0.00000000000E+00 -0.28162343634E+03  0.28162343634E+03  0.00000000000E+00 0.  1.
         23    2    1    2    0    0  0.86558668814E+02 -0.21321578118E+03 -0.59479078296E+02  0.26858434637E+03  0.12508564214E+03 0.  0.
         23    2    1    2    0    0 -0.86558668814E+02  0.21321578118E+03  0.13284178052E+02  0.24846762606E+03  0.92770250200E+02 0.  0.
          5    1    3    3  502    0  0.94385791005E+02 -0.22631736856E+03 -0.60907642190E+02  0.25269634372E+03  0.41800000000E+01 0.  1.
         -5    1    3    3    0  502 -0.78271221915E+01  0.13101587371E+02  0.14285638940E+01  0.15888002651E+02  0.41800000000E+01 0.  1.
        -11    1    4    4    0    0 -0.78266609657E+02  0.82686364564E+02 -0.14449380997E+02  0.11476707578E+03  0.00000000000E+00 0. -1.
         11    1    4    4    0    0 -0.82920591563E+01  0.13052941662E+03  0.27733559049E+02  0.13370055028E+03  0.00000000000E+00 0.  1.
</event>
<event>
 8    1  0.8619230E-006  0.1622726E+03  0.7561462E-02  0.1186155E+00
         -3   -1    0    0    0  501 -0.00000000000E+00  0.00000000000E+00  0.50481607325E+02  0.50481607325E+02  0.00000000000E+00 0.  1.
          3   -1    0    0  501    0  0.00000000000E+00 -0.00000000000E+00 -0.52615370709E+03  0.52615370709E+03  0.00000000000E+00 0. -1.
         23    2    1    2    0    0  0.11639453243E+03 -0.31840361936E+02 -0.22989706412E+03  0.28820497494E+03  0.12509177294E+03 0.  0.
         23    2    1    2    0    0 -0.11639453243E+03  0.31840361936E+02 -0.24577503564E+03  0.28843033948E+03  0.90692870497E+02 0.  0.
          5    1    3    3  502    0 -0.23700910104E+02 -0.22787574244E+02 -0.49712442539E+02  0.59747853709E+02  0.41800000000E+01 0. -1.
         -5    1    3    3    0  502  0.14009544254E+03 -0.90527876922E+01 -0.18018462159E+03  0.22845712123E+03  0.41800000000E+01 0. -1.
        -11    1    4    4    0    0 -0.43085752578E+02 -0.32058200622E+02 -0.87066560343E+02  0.10229709787E+03  0.00000000000E+00 0. -1.
         11    1    4    4    0    0 -0.73308779853E+02  0.63898562559E+02 -0.15870847530E+03  0.18613324161E+03  0.00000000000E+00 0.  1.
</event>
<event>
 8    1  0.8619230E-006  0.1224394E+03  0.7561462E-02  0.1239126E+00
         -2   -1    0    0    0  501 -0.00000000000E+00  0.00000000000E+00  0.22329044663E+03  0.22329044663E+03  0.00000000000E+00 0.  1.
          2   -1    0    0  501    0  0.00000000000E+00 -0.00000000000E+00 -0.74280114389E+02  0.74280114389E+02  0.00000000000E+00 0. -1.
         23    2    1    2    0    0  0.30855324162E+02 -0.57159484882E+02  0.10608259582E+03  0.17641018987E+03  0.12509108767E+03 0.  0.
         23    2    1    2    0    0 -0.30855324162E+02  0.57159484882E+02  0.42927736424E+02  0.12116037115E+03  0.92832037797E+02 0.  0.
          5    1    3    3  502    0  0.75274907217E+02 -0.15133096821E+02  0.41524735925E+02  0.87390493588E+02  0.41800000000E+01 0. -1.
         -5    1    3    3    0  502 -0.44419583055E+02 -0.42026388061E+02  0.64557859896E+02  0.89019696285E+02  0.41800000000E+01 0. -1.
        -11    1    4    4    0    0  0.26146534656E+02  0.38834966366E+02  0.39386596523E+02  0.61180878327E+02  0.00000000000E+00 0.  1.
         11    1    4    4    0    0 -0.57001858818E+02  0.18324518516E+02  0.35411399013E+01  0.59979492823E+02  0.00000000000E+00 0. -1.
</event>
<event>
 8    1  0.8619230E-006  0.8722263E+02  0.7561462E-02  0.1309720E+00
          2   -1    0    0  501    0  0.00000000000E+00  0.00000000000E+00  0.19310645472E+03  0.19310645472E+03  0.00000000000E+00 0. -1.
         -2   -1    0    0    0  501 -0.00000000000E+00 -0.00000000000E+00 -0.69177809170E+02  0.69177809170E+02  0.00000000000E+00 0.  1.
         23    2    1    2    0    0 -0.40036364052E+02  0.48727996807E+01  0.68144122315E+02  0.14804452617E+03  0.12508759211E+03 0.  0.
         23    2    1    2    0    0  0.40036364052E+02 -0.48727996807E+01  0.55784523234E+02  0.11423973772E+03  0.91170993298E+02 0.  0.
          5    1    3    3  502    0 -0.73138169981E+02  0.28433925507E+02  0.13359828402E+02  0.79709707331E+02  0.41800000000E+01 0.  1.
         -5    1    3    3    0  502  0.33101805928E+02 -0.23561125826E+02  0.54784293913E+02  0.68334818837E+02  0.41800000000E+01 0.  1.
        -11    1    4    4    0    0  0.10665319233E+02  0.15827257131E+02  0.72239883300E+02  0.74718483937E+02  0.00000000000E+00 0. -1.
         11    1    4    4    0    0  0.29371044820E+02 -0.20700056811E+02 -0.16455360066E+02  0.39521253785E+02  0.00000000000E+00 0.  1.
</event>
<event>
 8    1  0.8619230E-006  0.9618418E+02  0.7561462E-02  0.1288531E+00
         -2   -1    0    0    0  501 -0.00000000000E+00  0.00000000000E+00  0.12071821507E+02  0.12071821507E+02  0.00000000000E+00 0. -1.
          2   -1    0    0  501    0  0.00000000000E+00 -0.00000000000E+00 -0.98482177286E+03  0.98482177286E+03  0.00000000000E+00 0.  1.
         23    2    1    2    0    0  0.57875291442E+01 -0.62600866721E+01 -0.51608418825E+03  0.53109581590E+03  0.12508873701E+03 0.  0.
         23    2    1    2    0    0 -0.57875291442E+01  0.62600866721E+01 -0.45666576310E+03  0.46579777846E+03  0.91385267166E+02 0.  0.
          5    1    3    3  502    0  0.53162569797E+02 -0.28445019211E+01 -0.42447046294E+03  0.42781654517E+03  0.41800000000E+01 0.  1.
         -5    1    3    3    0  502 -0.47375040653E+02 -0.34155847510E+01 -0.91613725319E+02  0.10327927073E+03  0.41800000000E+01 0.  1.
        -11    1    4    4    0    0 -0.22306602826E+02 -0.37988110724E+02 -0.19626136082E+03  0.20114473107E+03  0.00000000000E+00 0. -1.
         11    1    4    4    0    0  0.16519073682E+02  0.44248197397E+02 -0.26040440228E+03  0.26465304740E+03  0.00000000000E+00 0.  1.
</event>
<event>
 8    1  0.8619230E-006  0.1266704E+03  0.7561462E-02  0.1232482E+00
          2   -1    0    0  501    0  0.00000000000E+00  0.00000000000E+00  0.52656091817E+02  0.52656091817E+02  0.00000000000E+00 0. -1.
         -2   -1    0    0    0  501 -0.00000000000E+00 -0.00000000000E+00 -0.31879463261E+03  0.31879463261E+03  0.00000000000E+00 0.  1.
         23    2    1    2    0    0 -0.10914526975E+02 -0.65233567051E+02 -0.15204009269E+03  0.20769346899E+03  0.12508334064E+03 0.  0.
         23    2    1    2    0    0  0.10914526975E+02  0.65233567051E+02 -0.11409844810E+03  0.16375725544E+03  0.97074392503E+02 0.  0.
          5    1    3    3  502    0  0.56128986776E+02 -0.30518513781E+02 -0.86574365220E+02  0.10767746261E+03  0.41800000000E+01 0. -1.
         -5    1    3    3    0  502 -0.67043513750E+02 -0.34715053270E+02 -0.65465727468E+02  0.10001600638E+03  0.41800000000E+01 0. -1.
        -11    1    4    4    0    0  0.29550596916E+02  0.82907932634E+02 -0.10377900522E+03  0.13607734931E+03  0.00000000000E+00 0.  1.
         11    1    4    4    0    0 -0.18636069941E+02 -0.17674365584E+02 -0.10319442883E+02  0.27679906124E+02  0.00000000000E+00 0. -1.
</event>
<event>
 8    1  0.8619230E-006  0.9553758E+02  0.7561462E-02  0.1289970E+00
         -1   -1    0    0    0  501 -0.00000000000E+00  0.00000000000E+00  0.13718410345E+03  0.13718410345E+03  0.00000000000E+00 0.  1.
          1   -1    0    0  501    0  0.00000000000E+00 -0.00000000000E+00 -0.89555270387E+02  0.89555270387E+02  0.00000000000E+00 0. -1.
         23    2    1    2    0    0  0.24124421130E+01  0.98616175401E+01  0.50506656769E+02  0.13535099489E+03  0.12516348534E+03 0.  0.
         23    2    1    2    0    0 -0.24124421130E+01 -0.98616175401E+01 -0.28778237048E+01  0.91388378946E+02  0.90777103720E+02 0.  0.
          5    1    3    3  502    0 -0.58677239232E+02  0.18152006431E+01  0.58617441006E+01  0.59145124915E+02  0.41800000000E+01 0. -1.
         -5    1    3    3    0  502  0.61089681345E+02  0.80464168969E+01  0.44644912668E+02  0.76205869977E+02  0.41800000000E+01 0. -1.
        -11    1    4    4    0    0 -0.39120362923E+00  0.30273639141E+02 -0.30224225109E+02  0.42780253045E+02  0.00000000000E+00 0. -1.
         11    1    4    4    0    0 -0.20212384837E+01 -0.40135256681E+02  0.27346401404E+02  0.48608125902E+02  0.00000000000E+00 0.  1.
</event>
<event>
 8    1  0.8619230E-006  0.1167249E+03  0.7561462E-02  0.1248600E+00
         -1   -1    0    0    0  501 -0.00000000000E+00  0.00000000000E+00  0.11278190992E+04  0.11278190992E+04  0.00000000000E+00 0.  1.
          1   -1    0    0  501    0  0.00000000000E+00 -0.00000000000E+00 -0.14627575563E+02  0.14627575563E+02  0.00000000000E+00 0. -1.
         23    2    1    2    0    0 -0.23721357603E+02  0.46510108423E+02  0.82537897688E+03  0.83643577706E+03  0.12509380751E+03 0.  0.
         23    2    1    2    0    0  0.23721357603E+02 -0.46510108423E+02  0.28781254674E+03  0.30601089769E+03  0.89892794206E+02 0.  0.
          5    1    3    3  502    0  0.23377172020E+01 -0.40075876905E+02  0.16411912502E+03  0.16900917262E+03  0.41800000000E+01 0. -1.
         -5    1    3    3    0  502 -0.26059074805E+02  0.86585985328E+02  0.66125985186E+03  0.66742660444E+03  0.41800000000E+01 0. -1.
        -11    1    4    4    0    0  0.39746278935E+02  0.12307512183E+02  0.14193046840E+03  0.14790368287E+03  0.00000000000E+00 0.  1.
         11    1    4    4    0    0 -0.16024921332E+02 -0.58817620606E+02  0.14588207834E+03  0.15810721482E+03  0.00000000000E+00 0. -1.
</event>
<event>
 8    1  0.8619230E-006  0.1529967E+03  0.7561462E-02  0.1196838E+00
          1   -1    0    0  501    0  0.00000000000E+00  0.00000000000E+00  0.65375430131E+03  0.65375430131E+03  0.00000000000E+00 0. -1.
         -1   -1    0    0    0  501 -0.00000000000E+00 -0.00000000000E+00 -0.41365452434E+02  0.41365452434E+02  0.00000000000E+00 0.  1.
         23    2    1    2    0    0  0.10668880848E+03 -0.36142645283E+02  0.25452408940E+03  0.30515595744E+03  0.12509537808E+03 0.  0.
         23    2    1    2    0    0 -0.10668880848E+03  0.36142645283E+02  0.35786475948E+03  0.38996379630E+03  0.10637567245E+03 0.  0.
          5    1    3    3  502    0  0.63062043088E+02  0.35122437169E+02  0.62026739655E+02  0.95263821587E+02  0.41800000000E+01 0.  1.
         -5    1    3    3    0  502  0.43626765387E+02 -0.71265082452E+02  0.19249734975E+03  0.20989213586E+03  0.41800000000E+01 0.  1.
        -11    1    4    4    0    0 -0.79007039339E+02 -0.25034017466E+02  0.24495860656E+03  0.25859917483E+03  0.00000000000E+00 0.  1.
         11    1    4    4    0    0 -0.27681769137E+02  0.61176662750E+02  0.11290615292E+03  0.13136462147E+03  0.00000000000E+00 0. -1.
</event>
<event>
 8    1  0.8619230E-006  0.2048766E+03  0.7561462E-02  0.1145689E+00
          1   -1    0    0  501    0  0.00000000000E+00  0.00000000000E+00  0.11062721052E+04  0.11062721052E+04  0.00000000000E+00 0. -1.
         -1   -1    0    0    0  501 -0.00000000000E+00 -0.00000000000E+00 -0.43595179608E+02  0.43595179608E+02  0.00000000000E+00 0.  1.
         23    2    1    2    0    0  0.18173301370E+03  0.37647204211E+02  0.43815222021E+03  0.49200517087E+03  0.12509004692E+03 0.  0.
         23    2    1    2    0    0 -0.18173301370E+03 -0.37647204211E+02  0.62452470540E+03  0.65786211395E+03  0.91144133461E+02 0.  0.
          5    1    3    3  502    0  0.78833009587E+02  0.79462584475E+02  0.20117218096E+03  0.23025347885E+03  0.41800000000E+01 0.  1.
         -5    1    3    3    0  502  0.10290000411E+03 -0.41815380264E+02  0.23698003925E+03  0.26175169202E+03  0.41800000000E+01 0.  1.
        -11    1    4    4    0    0 -0.53619262871E+02 -0.21981286865E+01  0.73351366383E+02  0.90886082932E+02  0.00000000000E+00 0.  1.
         11    1    4    4    0    0 -0.12811375083E+03 -0.35449075525E+02  0.55117333901E+03  0.56697603102E+03  0.00000000000E+00 0. -1.
</event>
<event>
 8    1  0.8619230E-006  0.9417535E+02  0.7561462E-02  0.1293044E+00
         -1   -1    0    0    0  501 -0.00000000000E+00  0.00000000000E+00  0.57093846657E+02  0.57093846657E+02  0.00000000000E+00 0.  1.
          1   -1    0    0  501    0  0.00000000000E+00 -0.00000000000E+00 -0.37621428727E+03  0.37621428727E+03  0.00000000000E+00 0. -1.
         23    2    1    2    0    0 -0.27150336041E+02 -0.69485733814E+02 -0.78203774659E+02  0.16530534516E+03  0.12507845065E+03 0.  0.
         23    2    1    2    0    0  0.27150336041E+02  0.69485733814E+02 -0.24091666595E+03  0.26800278877E+03  0.90660062331E+02 0.  0.
          5    1    3    3  502    0  0.18702944560E+02 -0.43266943048E+02 -0.97932763463E+02  0.10876638753E+03  0.41800000000E+01 0. -1.
         -5    1    3    3    0  502 -0.45853280601E+02 -0.26218790766E+02  0.19728988803E+02  0.56538957634E+02  0.41800000000E+01 0. -1.
        -11    1    4    4    0    0 -0.12080066980E+02  0.61813376628E+01  0.21892110844E+01  0.13745166376E+02  0.00000000000E+00 0.  1.
         11    1    4    4    0    0  0.39230403021E+02  0.63304396152E+02 -0.24310587704E+03  0.25425762239E+03  0.00000000000E+00 0. -1.
</event>
<event>
 8    1  0.8619230E-006  0.9507801E+02  0.7561462E-02  0.1291000E+00
         -2   -1    0    0    0  501 -0.00000000000E+00  0.00000000000E+00  0.16373917771E+03  0.16373917771E+03  0.00000000000E+00 0. -1.
          2   -1    0    0  501    0  0.00000000000E+00 -0.00000000000E+00 -0.14594721227E+03  0.14594721227E+03  0.00000000000E+00 0.  1.
         23    2    1    2    0    0  0.27128194478E+02  0.61819230119E+01  0.11632082428E+03  0.17306769880E+03  0.12509092333E+03 0.  0.
         23    2    1    2    0    0 -0.27128194478E+02 -0.61819230119E+01 -0.98528858840E+02  0.13661869117E+03  0.90457590319E+02 0.  0.
          5    1    3    3  502    0 -0.13303394258E+02  0.55810112760E+02  0.28188390710E+02  0.64060961247E+02  0.41800000000E+01 0.  1.
         -5    1    3    3    0  502  0.40431588736E+02 -0.49628189748E+02  0.88132433574E+02  0.10900673756E+03  0.41800000000E+01 0.  1.
        -11    1    4    4    0    0  0.19018419197E+02 -0.11185212648E+02 -0.85652668682E+02  0.88448792547E+02  0.00000000000E+00 0.  1.
         11    1    4    4    0    0 -0.46146613674E+02  0.50032896360E+01 -0.12876190157E+02  0.48169898627E+02  0.00000000000E+00 0. -1.
</event>
<event>
 8    1  0.8619230E-006  0.1100637E+03  0.7561462E-02  0.1260452E+00
          2   -1    0    0  501    0  0.00000000000E+00  0.00000000000E+00  0.71261173142E+03  0.71261173142E+03  0.00000000000E+00 0. -1.
         -2   -1    0    0    0  501 -0.00000000000E+00 -0.00000000000E+00 -0.19819202297E+02  0.19819202297E+02  0.00000000000E+00 0.  1.
         23    2    1    2    0    0  0.15612265427E+02  0.11089432018E+02  0.25684552327E+03  0.28633065723E+03  0.12509557990E+03 0.  0.
         23    2    1    2    0    0 -0.15612265427E+02 -0.11089432018E+02  0.43594700585E+03  0.44610027649E+03  0.92676568974E+02 0.  0.
          5    1    3    3  502    0  0.58675115905E+01  0.67792014180E+02  0.12409042239E+03  0.14158421596E+03  0.41800000000E+01 0.  1.
         -5    1    3    3    0  502  0.97447538364E+01 -0.56702582162E+02  0.13275510088E+03  0.14474644127E+03  0.41800000000E+01 0.  1.
        -11    1    4    4    0    0 -0.30216563470E+02  0.34813571250E+02  0.23281616383E+03  0.23733603096E+03  0.00000000000E+00 0.  1.
         11    1    4    4    0    0  0.14604298043E+02 -0.45903003268E+02  0.20313084202E+03  0.20876424553E+03  0.00000000000E+00 0. -1.
</event>
<event>
 8    1  0.8619230E-006  0.1325029E+03  0.7561462E-02  0.1223788E+00
          1   -1    0    0  501    0  0.00000000000E+00  0.00000000000E+00  0.78220094935E+02  0.78220094935E+02  0.00000000000E+00 0. -1.
         -1   -1    0    0    0  501 -0.00000000000E+00 -0.00000000000E+00 -0.32154663680E+03  0.32154663680E+03  0.00000000000E+00 0.  1.
         23    2    1    2    0    0 -0.66749218761E+02  0.30394850121E+02 -0.23397358870E+03  0.27526376982E+03  0.12508875908E+03 0.  0.
         23    2    1    2    0    0  0.66749218761E+02 -0.30394850121E+02 -0.93529531618E+01  0.12450296191E+03  0.10017087737E+03 0.  0.
          5    1    3    3  502    0  0.35606238635E+02  0.17792257923E+01 -0.84518905181E+02  0.91825310275E+02  0.41800000000E+01 0. -1.
         -5    1    3    3    0  502 -0.10235545740E+03  0.28615624329E+02 -0.14945468352E+03  0.18343845955E+03  0.41800000000E+01 0. -1.
        -11    1    4    4    0    0  0.92284105259E+02 -0.30561854326E+02  0.27296968649E+00  0.97213463758E+02  0.00000000000E+00 0. -1.
         11    1    4    4    0    0 -0.25534886499E+02  0.16700420516E+00 -0.96259228482E+01  0.27289498156E+02  0.00000000000E+00 0.  1.
</event>
<event>
 8    1  0.8619230E-006  0.8736109E+02  0.7561462E-02  0.1309371E+00
          3   -1    0    0  501    0  0.00000000000E+00  0.00000000000E+00  0.24226227111E+02  0.24226227111E+02  0.00000000000E+00 0. -1.
         -3   -1    0    0    0  501 -0.00000000000E+00 -0.00000000000E+00 -0.72183381668E+03  0.72183381668E+03  0.00000000000E+00 0.  1.
         23    2    1    2    0    0  0.58643998490E+02 -0.10838183675E+02 -0.51822804833E+03  0.53643700191E+03  0.12509101549E+03 0.  0.
         23    2    1    2    0    0 -0.58643998490E+02  0.10838183675E+02 -0.17937954123E+03  0.20962304188E+03  0.90599200261E+02 0.  0.
          5    1    3    3  502    0 -0.58254791474E+01 -0.25713724395E+02 -0.40000335455E+03  0.40089311279E+03  0.41800000000E+01 0. -1.
         -5    1    3    3    0  502  0.64469477638E+02  0.14875540720E+02 -0.11822469378E+03  0.13554388912E+03  0.41800000000E+01 0. -1.
        -11    1    4    4    0    0 -0.44956901723E+02 -0.19075123015E+02 -0.16777831643E+03  0.17474137116E+03  0.00000000000E+00 0.  1.
         11    1    4    4    0    0 -0.13687096767E+02  0.29913306689E+02 -0.11601224803E+02  0.34881670716E+02  0.00000000000E+00 0. -1.
</event>
<event>
 7    1  0.8619230E-006  0.1913423E+03  0.7561462E-02  0.1157256E+00
          1   -1    0    0  501    0  0.00000000000E+00  0.00000000000E+00  0.90494405611E+03  0.90494405611E+03  0.00000000000E+00 0. -1.
         -1   -1    0    0    0  501 -0.00000000000E+00 -0.00000000000E+00 -0.72808451883E+02  0.72808451883E+02  0.00000000000E+00 0.  1.
         23    2    1    2    0    0 -0.13257782163E+02 -0.14391334686E+03  0.68941420314E+03  0.71021024390E+03  0.90663260815E+02 0.  0.
          5    1    1    2  502    0  0.82044400762E+02  0.30564425939E+02  0.87506348076E+02  0.12385596951E+03  0.41800000000E+01 0. -1.
         -5    1    1    2    0  502 -0.68786618599E+02  0.11334892092E+03  0.55215053008E+02  0.14368629458E+03  0.41800000000E+01 0.  1.
        -11    1    3    3    0    0 -0.23046460132E+02 -0.55973368297E+01  0.43153002335E+02  0.49240746488E+02  0.00000000000E+00 0.  1.
         11    1    3    3    0    0  0.97886779690E+01 -0.13831601003E+03  0.64626120081E+03  0.66096949741E+03  0.00000000000E+00 0. -1.
</event>
<event>
 8    1  0.8619230E-006  0.2092834E+03  0.7561462E-02  0.1142135E+00
         -1   -1    0    0    0  501 -0.00000000000E+00  0.00000000000E+00  0.42615906815E+03  0.42615906815E+03  0.00000000000E+00 0.  1.
          1   -1    0    0  501    0  0.00000000000E+00 -0.00000000000E+00 -0.12946692508E+03  0.12946692508E+03  0.00000000000E+00 0. -1.
         23    2    1    2    0    0  0.16276755596E+03 -0.12221951625E+03  0.21321973773E+03  0.32022099775E+03  0.12509174001E+03 0.  0.
         23    2    1    2    0    0 -0.16276755596E+03  0.12221951625E+03  0.83472405348E+02  0.23540499547E+03  0.83767428123E+02 0.  0.
          5    1    3    3  502    0  0.13962551874E+03 -0.11865321101E+03  0.22775824568E+03  0.29234425057E+03  0.41800000000E+01 0. -1.
         -5    1    3    3    0  502  0.23142037219E+02 -0.35663052390E+01 -0.14538507956E+02  0.27876747179E+02  0.41800000000E+01 0. -1.
        -11    1    4    4    0    0 -0.13681715154E+03  0.71136635618E+02  0.30129911680E+02  0.15712149904E+03  0.00000000000E+00 0. -1.
         11    1    4    4    0    0 -0.25950404417E+02  0.51082880633E+02  0.53342493668E+02  0.78283496434E+02  0.00000000000E+00 0.  1.
</event>
<event>
 8    1  0.8619230E-006  0.1058002E+03  0.7561462E-02  0.1268551E+00
         -1   -1    0    0    0  501 -0.00000000000E+00  0.00000000000E+00  0.64264928963E+03  0.64264928963E+03  0.00000000000E+00 0.  1.
          1   -1    0    0  501    0  0.00000000000E+00 -0.00000000000E+00 -0.29298599659E+02  0.29298599659E+02  0.00000000000E+00 0. -1.
         23    2    1    2    0    0  0.24736436280E+02  0.41135533984E+02  0.50440640704E+03  0.52189751041E+03  0.12508862648E+03 0.  0.
         23    2    1    2    0    0 -0.24736436280E+02 -0.41135533984E+02  0.10894428293E+03  0.15005037888E+03  0.91335841716E+02 0.  0.
          5    1    3    3  502    0  0.20678189713E+02  0.77887692977E+02  0.20700169438E+03  0.22217392764E+03  0.41800000000E+01 0. -1.
         -5    1    3    3    0  502  0.40582465668E+01 -0.36752158994E+02  0.29740471266E+03  0.29972358277E+03  0.41800000000E+01 0. -1.
        -11    1    4    4    0    0 -0.19842366112E+02  0.22426821978E+02  0.67953565169E+02  0.74258796490E+02  0.00000000000E+00 0.  1.
         11    1    4    4    0    0 -0.48940701675E+01 -0.63562355961E+02  0.40990717760E+02  0.75791582386E+02  0.00000000000E+00 0. -1.
</event>
<event>
 8    1  0.1133610E-005  0.1256993E+03  0.7561462E-02  0.1233980E+00
         -2   -1    0    0    0  501 -0.00000000000E+00  0.00000000000E+00  0.35676187231E+02  0.35676187231E+02  0.00000000000E+00 0.  1.
          2   -1    0    0  501    0  0.00000000000E+00 -0.00000000000E+00 -0.66395956880E+03  0.66395956880E+03  0.00000000000E+00 0. -1.
         23    2    1    2    0    0  0.64913611703E+02 -0.79719785260E+02 -0.25536420409E+03  0.30236965550E+03  0.12509001035E+03 0.  0.
         23    2    1    2    0    0 -0.64913611703E+02  0.79719785260E+02 -0.37291917748E+03  0.39726610054E+03  0.90457838551E+02 0.  0.
          5    1    3    3  502    0  0.10900592194E+02  0.19064758029E+02  0.96210215677E+00  0.22376012814E+02  0.41800000000E+01 0. -1.
         -5    1    3    3    0  502  0.54013019509E+02 -0.98784543289E+02 -0.25632630625E+03  0.27999364269E+03  0.41800000000E+01 0. -1.
        -11    1    4    4    0    0 -0.42583593119E+02  0.10799741708E+02 -0.51078652074E+02  0.67372290458E+02  0.00000000000E+00 0.  1.
         11    1    4    4    0    0 -0.22330018585E+02  0.68920043552E+02 -0.32184052541E+03  0.32989381008E+03  0.00000000000E+00 0. -1.
</event>
<event>
 8    1  0.8619230E-006  0.1862881E+03  0.7561462E-02  0.1161852E+00
          2   -1    0    0  501    0  0.00000000000E+00  0.00000000000E+00  0.13250850787E+04  0.13250850787E+04  0.00000000000E+00 0.  1.
         -2   -1    0    0    0  501 -0.00000000000E+00 -0.00000000000E+00 -0.29672569691E+02  0.29672569691E+02  0.00000000000E+00 0. -1.
         23    2    1    2    0    0  0.19276600608E+02 -0.16163392659E+03  0.57217943336E+03  0.60789289884E+03  0.12508940379E+03 0.  0.
         23    2    1    2    0    0 -0.19276600608E+02  0.16163392659E+03  0.72323307563E+03  0.74686474953E+03  0.90795147757E+02 0.  0.
          5    1    3    3  502    0 -0.40173231132E+02 -0.66176760368E+02  0.35412564289E+03  0.36251302800E+03  0.41800000000E+01 0.  1.
         -5    1    3    3    0  502  0.59449831740E+02 -0.95457166222E+02  0.21805379047E+03  0.24537987084E+03  0.41800000000E+01 0.  1.
        -11    1    4    4    0    0  0.28577712914E+02  0.10267719560E+03  0.34511531411E+03  0.36119782973E+03  0.00000000000E+00 0.  1.
         11    1    4    4    0    0 -0.47854313522E+02  0.58956730995E+02  0.37811776152E+03  0.38566691980E+03  0.00000000000E+00 0. -1.
</event>
<event>
 8    1  0.8619230E-006  0.1006482E+03  0.7561462E-02  0.1278939E+00
          2   -1    0    0  501    0  0.00000000000E+00  0.00000000000E+00  0.39103329149E+02  0.39103329149E+02  0.00000000000E+00 0.  1.
         -2   -1    0    0    0  501 -0.00000000000E+00 -0.00000000000E+00 -0.32502088471E+03  0.32502088471E+03  0.00000000000E+00 0. -1.
         23    2    1    2    0    0  0.21813770889E+02  0.13601513293E+02 -0.19477359287E+03  0.23290340098E+03  0.12508557050E+03 0.  0.
         23    2    1    2    0    0 -0.21813770889E+02 -0.13601513293E+02 -0.91143962694E+02  0.13122081288E+03  0.90834123722E+02 0.  0.
          5    1    3    3  502    0 -0.65265723379E+01  0.66538004699E+02 -0.92053210667E+02  0.11384712649E+03  0.41800000000E+01 0.  1.
         -5    1    3    3    0  502  0.28340343227E+02 -0.52936491406E+02 -0.10272038220E+03  0.11905627449E+03  0.41800000000E+01 0.  1.
        -11    1    4    4    0    0  0.25313318092E+02 -0.85612742302E+01 -0.77384197662E+02  0.81868025120E+02  0.00000000000E+00 0. -1.
         11    1    4    4    0    0 -0.47127088981E+02 -0.50402390624E+01 -0.13759765032E+02  0.49352787757E+02  0.00000000000E+00 0.  1.
</event>
<event>
 8    1  0.8619230E-006  0.1751164E+03  0.7561462E-02  0.1172615E+00
          2   -1    0    0  501    0  0.00000000000E+00  0.00000000000E+00  0.11680498548E+04  0.11680498548E+04  0.00000000000E+00 0. -1.
         -2   -1    0    0    0  501 -0.00000000000E+00 -0.00000000000E+00 -0.30639193869E+02  0.30639193869E+02  0.00000000000E+00 0.  1.
         23    2    1    2    0    0  0.14656413944E+03 -0.37193056791E+02  0.50490110505E+03  0.54169864746E+03  0.12509167973E+03 0.  0.
         23    2    1    2    0    0 -0.14656413944E+03  0.37193056791E+02  0.63250955587E+03  0.65699040119E+03  0.93293507574E+02 0.  0.
          5    1    3    3  502    0  0.60460538401E+02  0.34555954104E+02  0.10271656079E+03  0.12416825250E+03  0.41800000000E+01 0.  1.
         -5    1    3    3    0  502  0.86103601039E+02 -0.71749010895E+02  0.40218454426E+03  0.41753039496E+03  0.41800000000E+01 0.  1.
        -11    1    4    4    0    0 -0.21149105453E+02 -0.21220607737E+02  0.50109130671E+02  0.58382564442E+02  0.00000000000E+00 0.  1.
         11    1    4    4    0    0 -0.12541503399E+03  0.58413664528E+02  0.58240042520E+03  0.59860783675E+03  0.00000000000E+00 0. -1.
</event>
<event>
 8    1  0.8619230E-006  0.1150883E+03  0.7561462E-02  0.1251427E+00
          2   -1    0    0  501    0  0.00000000000E+00  0.00000000000E+00  0.20998477207E+03  0.20998477207E+03  0.00000000000E+00 0. -1.
         -2   -1    0    0    0  501 -0.00000000000E+00 -0.00000000000E+00 -0.73632471414E+02  0.73632471414E+02  0.00000000000E+00 0.  1.
         23    2    1    2    0    0  0.59598292718E+02  0.57908772560E-01  0.76117366433E+02  0.15808419449E+03  0.12507917183E+03 0.  0.
         23    2    1    2    0    0 -0.59598292718E+02 -0.57908772560E-01  0.60234934224E+02  0.12553304900E+03  0.92619324341E+02 0.  0.
          5    1    3    3  502    0 -0.48328842291E+01  0.52987719819E+02  0.17867036344E+02  0.56282844715E+02  0.41800000000E+01 0.  1.
         -5    1    3    3    0  502  0.64431176947E+02 -0.52929811046E+02  0.58250330089E+02  0.10180134977E+03  0.41800000000E+01 0.  1.
        -11    1    4    4    0    0 -0.75073221371E+02 -0.87262261223E+01  0.71890356145E+02  0.10430895885E+03  0.00000000000E+00 0. -1.
         11    1    4    4    0    0  0.15474928653E+02  0.86683173497E+01 -0.11655421921E+02  0.21224090149E+02  0.00000000000E+00 0.  1.
</event>
<event>
 8    1  0.8619230E-006  0.1708255E+03  0.7561462E-02  0.1176990E+00
         -2   -1    0    0    0  501 -0.00000000000E+00  0.00000000000E+00  0.27497679495E+02  0.27497679495E+02  0.00000000000E+00 0.  1.
          2   -1    0    0  501    0  0.00000000000E+00 -0.00000000000E+00 -0.13456887842E+04  0.13456887842E+04  0.00000000000E+00 0. -1.
         23    2    1    2    0    0  0.34585144706E+01 -0.15289661413E+03 -0.54534386248E+03  0.58003191146E+03  0.12509098302E+03 0.  0.
         23    2    1    2    0    0 -0.34585144706E+01  0.15289661413E+03 -0.77284724224E+03  0.79315455225E+03  0.91716672316E+02 0.  0.
          5    1    3    3  502    0 -0.49609243262E+02 -0.78969965204E+02 -0.17163633894E+03  0.19538126232E+03  0.41800000000E+01 0. -1.
         -5    1    3    3    0  502  0.53067757733E+02 -0.73926648928E+02 -0.37370752354E+03  0.38465064914E+03  0.41800000000E+01 0. -1.
        -11    1    4    4    0    0  0.11607929284E+02  0.12462574071E+03 -0.72400059808E+03  0.73474021619E+03  0.00000000000E+00 0. -1.
         11    1    4    4    0    0 -0.15066443754E+02  0.28270873422E+02 -0.48846644166E+02  0.58414336063E+02  0.00000000000E+00 0.  1.
</event>
<event>
 8    1  0.8619230E-006  0.1356657E+03  0.7561462E-02  0.1219283E+00
         -2   -1    0    0    0  501 -0.00000000000E+00  0.00000000000E+00  0.34819898658E+03  0.34819898658E+03  0.00000000000E+00 0.  1.
          2   -1    0    0  501    0  0.00000000000E+00 -0.00000000000E+00 -0.76535638631E+02  0.76535638631E+02  0.00000000000E+00 0. -1.
         23    2    1    2    0    0  0.10688991296E+03  0.58608435291E+02  0.14733816832E+03  0.22851486658E+03  0.12510038459E+03 0.  0.
         23    2    1    2    0    0 -0.10688991296E+03 -0.58608435291E+02  0.12432517963E+03  0.19621975863E+03  0.90471217557E+02 0.  0.
          5    1    3    3  502    0  0.42613441435E+02  0.64904614606E+02  0.14406944800E+03  0.16371314130E+03  0.41800000000E+01 0.  1.
         -5    1    3    3    0  502  0.64276471530E+02 -0.62961793149E+01  0.32687203190E+01  0.64801725277E+02  0.41800000000E+01 0.  1.
        -11    1    4    4    0    0 -0.97637748145E+02 -0.65279142575E+02  0.13613725389E+03  0.17979946667E+03  0.00000000000E+00 0.  1.
         11    1    4    4    0    0 -0.92521648198E+01  0.66707072835E+01 -0.11812074265E+02  0.16420291957E+02  0.00000000000E+00 0. -1.
</event>
<event>
 8    1  0.8619230E-006  0.7382601E+02  0.7561462E-02  0.1347546E+00
         -2   -1    0    0    0  501 -0.00000000000E+00  0.00000000000E+00  0.79533116709E+02  0.79533116709E+02  0.00000000000E+00 0.  1.
          2   -1    0    0  501    0  0.00000000000E+00 -0.00000000000E+00 -0.20100907614E+03  0.20100907614E+03  0.00000000000E+00 0. -1.
         23    2    1    2    0    0 -0.30148616192E+02 -0.89351026347E+01 -0.10048186351E+02  0.13278060851E+03  0.12861162012E+03 0.  0.
         23    2    1    2    0    0  0.30148616192E+02  0.89351026347E+01 -0.11142777308E+03  0.14776158434E+03  0.91807200565E+02 0.  0.
          5    1    3    3  502    0  0.79005854037E+01 -0.85465333603E+01 -0.64802484008E+02  0.65971939609E+02  0.41800000000E+01 0. -1.
         -5    1    3    3    0  502 -0.38049201596E+02 -0.38856927443E+00  0.54754297657E+02  0.66808668899E+02  0.41800000000E+01 0.  1.
        -11    1    4    4    0    0  0.60886793527E+02  0.20377718592E+02 -0.71789602571E+02  0.96313031716E+02  0.00000000000E+00 0. -1.
         11    1    4    4    0    0 -0.30738177335E+02 -0.11442615958E+02 -0.39638170504E+02  0.51448552620E+02  0.00000000000E+00 0.  1.
</event>
<event>
 8    1  0.8619230E-006  0.2218396E+03  0.7561462E-02  0.1132519E+00
          2   -1    0    0  501    0  0.00000000000E+00  0.00000000000E+00  0.34310114598E+03  0.34310114598E+03  0.00000000000E+00 0. -1.
         -2   -1    0    0    0  501 -0.00000000000E+00 -0.00000000000E+00 -0.17887154606E+03  0.17887154606E+03  0.00000000000E+00 0.  1.
         23    2    1    2    0    0 -0.12231198548E+03  0.17354594941E+03  0.15334507174E+02  0.24690353026E+03  0.12509111798E+03 0.  0.
         23    2    1    2    0    0  0.12231198548E+03 -0.17354594941E+03  0.14889509275E+03  0.27506916178E+03  0.91732637441E+02 0.  0.
          5    1    3    3  502    0 -0.28490981386E+02  0.24804847352E+02 -0.46849808662E+02  0.60327385524E+02  0.41800000000E+01 0.  1.
         -5    1    3    3    0  502 -0.93821004090E+02  0.14874110206E+03  0.62184315835E+02  0.18657614474E+03  0.41800000000E+01 0.  1.
        -11    1    4    4    0    0  0.75566572556E+01 -0.83648992823E+02  0.39511392236E+02  0.92819217760E+02  0.00000000000E+00 0. -1.
         11    1    4    4    0    0  0.11475532822E+03 -0.89896956587E+02  0.10938370051E+03  0.18224994402E+03  0.00000000000E+00 0.  1.
</event>
<event>
 8    1  0.8619230E-006  0.7686756E+02  0.7561462E-02  0.1338183E+00
         -2   -1    0    0    0  501 -0.00000000000E+00  0.00000000000E+00  0.19240374172E+03  0.19240374172E+03  0.00000000000E+00 0. -1.
          2   -1    0    0  501    0  0.00000000000E+00 -0.00000000000E+00 -0.92515515576E+02  0.92515515576E+02  0.00000000000E+00 0.  1.
         23    2    1    2    0    0  0.60013913667E+02 -0.60539472452E+01  0.10353081454E+03  0.17321490519E+03  0.12508578540E+03 0.  0.
         23    2    1    2    0    0 -0.60013913667E+02  0.60539472452E+01 -0.36425884039E+01  0.11170435210E+03  0.93948250210E+02 0.  0.
          5    1    3    3  502    0  0.35342407357E+02  0.10877756981E+02 -0.22584546728E+02  0.43530971797E+02  0.41800000000E+01 0. -1.
         -5    1    3    3    0  502  0.24671506310E+02 -0.16931704226E+02  0.12611536127E+03  0.12968393339E+03  0.41800000000E+01 0. -1.
        -11    1    4    4    0    0 -0.57738485803E+02 -0.19279649163E+02 -0.35865238084E+02  0.70652338372E+02  0.00000000000E+00 0.  1.
         11    1    4    4    0    0 -0.22754278641E+01  0.25333596408E+02  0.32222649680E+02  0.41052013730E+02  0.00000000000E+00 0. -1.
</event>
<event>
 8    1  0.8619230E-006  0.1112929E+03  0.7561462E-02  0.1258194E+00
          1   -1    0    0  501    0  0.00000000000E+00  0.00000000000E+00  0.72165913197E+03  0.72165913197E+03  0.00000000000E+00 0. -1.
         -1   -1    0    0    0  501 -0.00000000000E+00 -0.00000000000E+00 -0.18774923487E+02  0.18774923487E+02  0.00000000000E+00 0.  1.
         23    2    1    2    0    0  0.35398594247E+02 -0.21657041548E+02  0.37284330252E+03  0.39545358214E+03  0.12509724005E+03 0.  0.
         23    2    1    2    0    0 -0.35398594247E+02  0.21657041548E+02  0.33004090596E+03  0.34498047331E+03  0.91446374667E+02 0.  0.
          5    1    3    3  502    0 -0.24259999137E+02  0.33105613295E+02  0.20422274994E+03  0.20834810579E+03  0.41800000000E+01 0. -1.
         -5    1    3    3    0  502  0.59658593384E+02 -0.54762654843E+02  0.16862055258E+03  0.18710547636E+03  0.41800000000E+01 0. -1.
        -11    1    4    4    0    0 -0.66371425916E+02  0.19574549317E+02  0.23718787178E+03  0.24707572863E+03  0.00000000000E+00 0.  1.
         11    1    4    4    0    0  0.30972831669E+02  0.20824922304E+01  0.92853034175E+02  0.97904744681E+02  0.00000000000E+00 0. -1.
</event>
<event>
 8    1  0.8619230E-006  0.7245943E+02  0.7561462E-02  0.1351924E+00
          1   -1    0    0  501    0  0.00000000000E+00  0.00000000000E+00  0.11440268009E+03  0.11440268009E+03  0.00000000000E+00 0. -1.
         -1   -1    0    0    0  501 -0.00000000000E+00 -0.00000000000E+00 -0.10599611038E+03  0.10599611038E+03  0.00000000000E+00 0.  1.
         23    2    1    2    0    0  0.73632744739E+01 -0.22289968830E+02 -0.73788837495E+01  0.12748454483E+03  0.12508717250E+03 0.  0.
         23    2    1    2    0    0 -0.73632744739E+01  0.22289968830E+02  0.15785453466E+02  0.92914245636E+02  0.88503197567E+02 0.  0.
          5    1    3    3  502    0  0.34329568241E+02 -0.55203317050E+02 -0.37519571556E+02  0.75173905836E+02  0.41800000000E+01 0. -1.
         -5    1    3    3    0  502 -0.26966293767E+02  0.32913348220E+02  0.30140687806E+02  0.52310638994E+02  0.41800000000E+01 0. -1.
        -11    1    4    4    0    0  0.11086071791E+02  0.76227974292E+01  0.49770127611E+02  0.51556509102E+02  0.00000000000E+00 0. -1.
         11    1    4    4    0    0 -0.18449346265E+02  0.14667171401E+02 -0.33984674145E+02  0.41357736534E+02  0.00000000000E+00 0.  1.
</event>
<event>
 8    1  0.8619230E-006  0.1078021E+03  0.7561462E-02  0.1264695E+00
         -1   -1    0    0    0  501 -0.00000000000E+00  0.00000000000E+00  0.25450355284E+02  0.25450355284E+02  0.00000000000E+00 0.  1.
          1   -1    0    0  501    0  0.00000000000E+00 -0.00000000000E+00 -0.66772512834E+03  0.66772512834E+03  0.00000000000E+00 0. -1.
         23    2    1    2    0    0  0.19158070905E+02  0.35976347185E+02 -0.19598873488E+03  0.23605101014E+03  0.12508863238E+03 0.  0.
         23    2    1    2    0    0 -0.19158070905E+02 -0.35976347185E+02 -0.44628603817E+03  0.45712447348E+03  0.90167772218E+02 0.  0.
          5    1    3    3  502    0 -0.22993942949E+01 -0.39393016749E+02 -0.22445295194E+02  0.45589040997E+02  0.41800000000E+01 0.  1.
         -5    1    3    3    0  502  0.21457465200E+02  0.75369363934E+02 -0.17354343969E+03  0.19046196915E+03  0.41800000000E+01 0.  1.
        -11    1    4    4    0    0 -0.51835033352E+02 -0.38654845983E+02 -0.25633973004E+03  0.26436929662E+03  0.00000000000E+00 0. -1.
         11    1    4    4    0    0  0.32676962447E+02  0.26784987980E+01 -0.18994630814E+03  0.19275517686E+03  0.00000000000E+00 0.  1.
</event>
<event>
 8    1  0.8619230E-006  0.2509746E+03  0.7561462E-02  0.1112690E+00
          2   -1    0    0  501    0  0.00000000000E+00  0.00000000000E+00  0.58326619641E+03  0.58326619641E+03  0.00000000000E+00 0.  1.
         -2   -1    0    0    0  501 -0.00000000000E+00 -0.00000000000E+00 -0.11572800127E+03  0.11572800127E+03  0.00000000000E+00 0. -1.
         23    2    1    2    0    0  0.57428519775E+02  0.22295726046E+03  0.30988960193E+03  0.40581636424E+03  0.12508949287E+03 0.  0.
         23    2    1    2    0    0 -0.57428519775E+02 -0.22295726046E+03  0.15764859322E+03  0.29317783343E+03  0.89956590623E+02 0.  0.
          5    1    3    3  502    0 -0.28770279076E+02  0.12683165998E+03  0.18465145803E+03  0.22589296644E+03  0.41800000000E+01 0.  1.
         -5    1    3    3    0  502  0.86198798851E+02  0.96125600486E+02  0.12523814389E+03  0.17992339780E+03  0.41800000000E+01 0.  1.
        -11    1    4    4    0    0  0.11024025117E+02 -0.11011377724E+03  0.10000555748E+03  0.14915657744E+03  0.00000000000E+00 0. -1.
         11    1    4    4    0    0 -0.68452544892E+02 -0.11284348322E+03  0.57643035741E+02  0.14402125599E+03  0.00000000000E+00 0.  1.
</event>
<event>
 8    1  0.8619230E-006  0.7905579E+02  0.7561462E-02  0.1331753E+00
         -2   -1    0    0    0  501 -0.00000000000E+00  0.00000000000E+00  0.46428419123E+02  0.46428419123E+02  0.00000000000E+00 0.  1.
          2   -1    0    0  501    0  0.00000000000E+00 -0.00000000000E+00 -0.27553997110E+03  0.27553997110E+03  0.00000000000E+00 0. -1.
         23    2    1    2    0    0  0.33043893139E+02  0.12506379548E+02 -0.12441288914E+03  0.17993019826E+03  0.12509196960E+03 0.  0.
         23    2    1    2    0    0 -0.33043893139E+02 -0.12506379548E+02 -0.10469866283E+03  0.14203819196E+03  0.89245333620E+02 0.  0.
          5    1    3    3  502    0  0.29435477100E+02 -0.16995503888E+02 -0.14136884993E+03  0.14545761787E+03  0.41800000000E+01 0. -1.
         -5    1    3    3    0  502  0.36084160397E+01  0.29501883437E+02  0.16955960791E+02  0.34472580393E+02  0.41800000000E+01 0. -1.
        -11    1    4    4    0    0  0.23287381621E+02  0.18326883334E+02 -0.20018364952E+02  0.35761875382E+02  0.00000000000E+00 0.  1.
         11    1    4    4    0    0 -0.56331274760E+02 -0.30833262882E+02 -0.84680297881E+02  0.10627631658E+03  0.00000000000E+00 0. -1.
</event>
<event>
 8    1  0.8619230E-006  0.1329424E+03  0.7561462E-02  0.1223154E+00
         -1   -1    0    0    0  501 -0.00000000000E+00  0.00000000000E+00  0.26178189959E+02  0.26178189959E+02  0.00000000000E+00 0.  1.
          1   -1    0    0  501    0  0.00000000000E+00 -0.00000000000E+00 -0.69729936976E+03  0.69729936976E+03  0.00000000000E+00 0. -1.
         23    2    1    2    0    0 -0.74274230928E+01  0.80250005704E+02 -0.38264811427E+03  0.41056345064E+03  0.12509011799E+03 0.  0.
         23    2    1    2    0    0  0.74274230928E+01 -0.80250005704E+02 -0.28847306553E+03  0.31291410907E+03  0.90572071265E+02 0.  0.
          5    1    3    3  502    0 -0.15533128424E+01 -0.31978912569E+02 -0.50951409816E+02  0.60320661403E+02  0.41800000000E+01 0. -1.
         -5    1    3    3    0  502 -0.58741102504E+01  0.11222891827E+03 -0.33169670445E+03  0.35024278924E+03  0.41800000000E+01 0. -1.
        -11    1    4    4    0    0  0.47046819795E+02 -0.61148050244E+02 -0.18981336875E+03  0.20489412450E+03  0.00000000000E+00 0. -1.
         11    1    4    4    0    0 -0.39619396702E+02 -0.19101955460E+02 -0.98659696780E+02  0.10801998457E+03  0.00000000000E+00 0.  1.
</event>
<event>
 8    1  0.8619230E-006  0.1395823E+03  0.7561462E-02  0.1213892E+00
         -2   -1    0    0    0  501 -0.00000000000E+00  0.00000000000E+00  0.68946275230E+02  0.68946275230E+02  0.00000000000E+00 0.  1.
          2   -1    0    0  501    0  0.00000000000E+00 -0.00000000000E+00 -0.30680123248E+03  0.30680123248E+03  0.00000000000E+00 0. -1.
         23    2    1    2    0    0 -0.95010671337E+02 -0.25423988523E+00 -0.10590637112E+03  0.18944804250E+03  0.12508920439E+03 0.  0.
         23    2    1    2    0    0  0.95010671337E+02  0.25423988523E+00 -0.13194858613E+03  0.18629946522E+03  0.90939370199E+02 0.  0.
          5    1    3    3  502    0  0.18303845404E+02  0.33622067263E+02 -0.30473318429E+02  0.49107735640E+02  0.41800000000E+01 0.  1.
         -5    1    3    3    0  502 -0.11331451674E+03 -0.33876307148E+02 -0.75433052692E+02  0.14034030686E+03  0.41800000000E+01 0.  1.
        -11    1    4    4    0    0  0.65785995403E+02  0.36909106035E+02 -0.45873298607E+02  0.88286119093E+02  0.00000000000E+00 0.  1.
         11    1    4    4    0    0  0.29224675933E+02 -0.36654866150E+02 -0.86075287523E+02  0.98013346122E+02  0.00000000000E+00 0. -1.
</event>
<event>
 8    1  0.8619230E-006  0.1275988E+03  0.7561462E-02  0.1231063E+00
          1   -1    0    0  501    0  0.00000000000E+00  0.00000000000E+00  0.64252414634E+02  0.64252414634E+02  0.00000000000E+00 0. -1.
         -1   -1    0    0    0  501 -0.00000000000E+00 -0.00000000000E+00 -0.29544428122E+03  0.29544428122E+03  0.00000000000E+00 0.  1.
         23    2    1    2    0    0 -0.51974834048E+02  0.48224006852E+02 -0.18682389415E+03  0.23574948915E+03  0.12509083099E+03 0.  0.
         23    2    1    2    0    0  0.51974834048E+02 -0.48224006852E+02 -0.44367972440E+02  0.12394720671E+03  0.91473793303E+02 0.  0.
          5    1    3    3  502    0 -0.26787059749E+02 -0.41280943172E+02 -0.50087282523E+02  0.70341105406E+02  0.41800000000E+01 0. -1.
         -5    1    3    3    0  502 -0.25187774300E+02  0.89504950024E+02 -0.13673661162E+03  0.16540838374E+03  0.41800000000E+01 0. -1.
        -11    1    4    4    0    0  0.62414450106E+02 -0.66803164160E+02 -0.24121883233E+02  0.94552057484E+02  0.00000000000E+00 0.  1.
         11    1    4    4    0    0 -0.10439616057E+02  0.18579157309E+02 -0.20246089207E+02  0.29395149224E+02  0.00000000000E+00 0. -1.
</event>
<event>
 8    1  0.8619230E-006  0.2687892E+03  0.7561462E-02  0.1101975E+00
          3   -1    0    0  501    0  0.00000000000E+00  0.00000000000E+00  0.47588071888E+03  0.47588071888E+03  0.00000000000E+00 0. -1.
         -3   -1    0    0    0  501 -0.00000000000E+00 -0.00000000000E+00 -0.40493163086E+03  0.40493163086E+03  0.00000000000E+00 0.  1.
         23    2    1    2    0    0 -0.93339771947E+02 -0.23811731510E+03 -0.30515179585E+03  0.41734690249E+03  0.12509456316E+03 0.  0.
         23    2    1    2    0    0  0.93339771947E+02  0.23811731510E+03  0.37610088387E+03  0.46346544725E+03  0.89085224182E+02 0.  0.
          5    1    3    3  502    0 -0.55792812317E+02 -0.25195080092E+02 -0.32775280042E+02  0.69565230891E+02  0.41800000000E+01 0.  1.
         -5    1    3    3    0  502 -0.37546959630E+02 -0.21292223501E+03 -0.27237651581E+03  0.34778167160E+03  0.41800000000E+01 0.  1.
        -11    1    4    4    0    0  0.40799525012E+02  0.16477278300E+03  0.30315285675E+03  0.34744255038E+03  0.00000000000E+00 0.  1.
         11    1    4    4    0    0  0.52540246935E+02  0.73344532102E+02  0.72948027120E+02  0.11602289687E+03  0.00000000000E+00 0. -1.
</event>
<event>
 8    1  0.8619230E-006  0.9343454E+02  0.7561462E-02  0.1294741E+00
         -1   -1    0    0    0  501 -0.00000000000E+00  0.00000000000E+00  0.40288771091E+03  0.40288771091E+03  0.00000000000E+00 0.  1.
          1   -1    0    0  501    0  0.00000000000E+00 -0.00000000000E+00 -0.51687298607E+02  0.51687298607E+02  0.00000000000E+00 0. -1.
         23    2    1    2    0    0  0.48900800079E+02 -0.60069507586E+02  0.28163289636E+03  0.31774820853E+03  0.12508877535E+03 0.  0.
         23    2    1    2    0    0 -0.48900800079E+02  0.60069507586E+02  0.69567515936E+02  0.13682680099E+03  0.88782319213E+02 0.  0.
          5    1    3    3  502    0  0.30101785144E+02 -0.82521356347E+01  0.77387503778E+00  0.31500579264E+02  0.41800000000E+01 0. -1.
         -5    1    3    3    0  502  0.18799014935E+02 -0.51817371951E+02  0.28085902132E+03  0.28624762926E+03  0.41800000000E+01 0. -1.
        -11    1    4    4    0    0 -0.56349684993E+02  0.20702797875E+02  0.75356273721E+02  0.96345528322E+02  0.00000000000E+00 0.  1.
         11    1    4    4    0    0  0.74488849136E+01  0.39366709710E+02 -0.57887577843E+01  0.40481272665E+02  0.00000000000E+00 0. -1.
</event>
<event>
 8    1  0.8619230E-006  0.8501875E+02  0.7561462E-02  0.1315384E+00
         -3   -1    0    0    0  501 -0.00000000000E+00  0.00000000000E+00  0.26508321494E+03  0.26508321494E+03  0.00000000000E+00 0.  1.
          3   -1    0    0  501    0  0.00000000000E+00 -0.00000000000E+00 -0.72016690939E+02  0.72016690939E+02  0.00000000000E+00 0. -1.
         23    2    1    2    0    0  0.49317748269E+02  0.44932332846E+02  0.16910775960E+03  0.22067063967E+03  0.12508773732E+03 0.  0.
         23    2    1    2    0    0 -0.49317748269E+02 -0.44932332846E+02  0.23958764409E+02  0.11642926621E+03  0.92361230013E+02 0.  0.
          5    1    3    3  502    0  0.30459654210E+02  0.49267928708E+02  0.83178749469E+01  0.58666675186E+02  0.41800000000E+01 0.  1.
         -5    1    3    3    0  502  0.18858094059E+02 -0.43355958611E+01  0.16078988465E+03  0.16200396448E+03  0.41800000000E+01 0.  1.
        -11    1    4    4    0    0 -0.24277324588E+02 -0.58749122141E+02  0.47526670768E+02  0.79370222854E+02  0.00000000000E+00 0.  1.
         11    1    4    4    0    0 -0.25040423681E+02  0.13816789295E+02 -0.23567906359E+02  0.37059043359E+02  0.00000000000E+00 0. -1.
</event>
<event>
 8    1  0.8619230E-006  0.1058168E+03  0.7561462E-02  0.1268519E+00
          1   -1    0    0  501    0  0.00000000000E+00  0.00000000000E+00  0.55039652102E+03  0.55039652102E+03  0.00000000000E+00 0. -1.
         -1   -1    0    0    0  501 -0.00000000000E+00 -0.00000000000E+00 -0.29183316853E+02  0.29183316853E+02  0.00000000000E+00 0.  1.
         23    2    1    2    0    0 -0.45258955203E+02 -0.18800979007E+02  0.19020164907E+03  0.23286324291E+03  0.12508706071E+03 0.  0.
         23    2    1    2    0    0  0.45258955203E+02  0.18800979007E+02  0.33101155510E+03  0.34671659496E+03  0.90784898366E+02 0.  0.
          5    1    3    3  502    0  0.24236677357E+02  0.19937477915E+02  0.12779544458E+03  0.13165890631E+03  0.41800000000E+01 0.  1.
         -5    1    3    3    0  502 -0.69495632560E+02 -0.38738456922E+02  0.62406204486E+02  0.10120433661E+03  0.41800000000E+01 0.  1.
        -11    1    4    4    0    0  0.41091302413E+02  0.52317519279E+02  0.17808870710E+03  0.19010840474E+03  0.00000000000E+00 0.  1.
         11    1    4    4    0    0  0.41676527899E+01 -0.33516540272E+02  0.15292284800E+03  0.15660819022E+03  0.00000000000E+00 0. -1.
</event>
<event>
 8    1  0.8619230E-006  0.1265687E+03  0.7561462E-02  0.1232638E+00
          2   -1    0    0  501    0  0.00000000000E+00  0.00000000000E+00  0.15481509829E+04  0.15481509829E+04  0.00000000000E+00 0. -1.
         -2   -1    0    0    0  501 -0.00000000000E+00 -0.00000000000E+00 -0.12562180417E+02  0.12562180417E+02  0.00000000000E+00 0.  1.
         23    2    1    2    0    0 -0.55363177300E+02  0.53403941281E+02  0.10576795548E+04  0.10678247232E+04  0.12508611586E+03 0.  0.
         23    2    1    2    0    0  0.55363177300E+02 -0.53403941281E+02  0.47790924768E+03  0.49288844017E+03  0.92869279554E+02 0.  0.
          5    1    3    3  502    0 -0.47949257845E+02  0.86174897125E+02  0.94573509577E+03  0.95087201451E+03  0.41800000000E+01 0.  1.
         -5    1    3    3    0  502 -0.74139194547E+01 -0.32770955844E+02  0.11194445904E+03  0.11695270864E+03  0.41800000000E+01 0.  1.
        -11    1    4    4    0    0  0.56392224092E+02  0.99060957313E+01  0.22304029451E+03  0.23027198407E+03  0.00000000000E+00 0.  1.
         11    1    4    4    0    0 -0.10290467921E+01 -0.63310037013E+02  0.25486895317E+03  0.26261645610E+03  0.00000000000E+00 0. -1.
</event>
<event>
 8    1  0.8619230E-006  0.7339230E+02  0.7561462E-02  0.1348923E+00
          4   -1    0    0  501    0  0.00000000000E+00  0.00000000000E+00  0.18255261989E+03  0.18255261989E+03  0.00000000000E+00 0. -1.
         -4   -1    0    0    0  501 -0.00000000000E+00 -0.00000000000E+00 -0.80195016264E+02  0.80195016264E+02  0.00000000000E+00 0.  1.
         23    2    1    2    0    0 -0.50729556194E+02  0.40381819033E+01  0.39943310545E+02  0.14081836689E+03  0.12507817400E+03 0.  0.
         23    2    1    2    0    0  0.50729556194E+02 -0.40381819033E+01  0.62414293079E+02  0.12192926926E+03  0.91550029693E+02 0.  0.
          5    1    3    3  502    0  0.22044288527E+01  0.33422550571E+02 -0.32127311003E+02  0.46600031176E+02  0.41800000000E+01 0. -1.
         -5    1    3    3    0  502 -0.52933985047E+02 -0.29384368668E+02  0.72070621548E+02  0.94218335717E+02  0.41800000000E+01 0. -1.
        -11    1    4    4    0    0  0.38318973459E+02 -0.83242132176E+01 -0.16052754826E+02  0.42371301493E+02  0.00000000000E+00 0.  1.
         11    1    4    4    0    0  0.12410582734E+02  0.42860313143E+01  0.78467047904E+02  0.79557967766E+02  0.00000000000E+00 0. -1.
</event>
<event>
 8    1  0.8619230E-006  0.1173242E+03  0.7561462E-02  0.1247578E+00
          1   -1    0    0  501    0  0.00000000000E+00  0.00000000000E+00  0.22298779177E+02  0.22298779177E+02  0.00000000000E+00 0. -1.
         -1   -1    0    0    0  501 -0.00000000000E+00 -0.00000000000E+00 -0.99151666674E+03  0.99151666674E+03  0.00000000000E+00 0.  1.
         23    2    1    2    0    0  0.45163863586E+02  0.31615322354E+02 -0.81533730802E+03  0.82676449049E+03  0.12540053313E+03 0.  0.
         23    2    1    2    0    0 -0.45163863586E+02 -0.31615322354E+02 -0.15388057955E+03  0.18705095543E+03  0.90936923103E+02 0.  0.
          5    1    3    3  502    0 -0.13949567258E+00 -0.44319771604E+02 -0.37376717706E+03  0.37640886900E+03  0.41800000000E+01 0.  1.
         -5    1    3    3    0  502  0.45303359259E+02  0.75935093958E+02 -0.44157013096E+03  0.45035562149E+03  0.41800000000E+01 0.  1.
        -11    1    4    4    0    0  0.14044811800E+02 -0.39459516265E+02 -0.91804854230E+02  0.10090808403E+03  0.00000000000E+00 0.  1.
         11    1    4    4    0    0 -0.59208675386E+02  0.78441939118E+01 -0.62075725316E+02  0.86142871398E+02  0.00000000000E+00 0. -1.
</event>
<event>
 8    1  0.8619230E-006  0.1867908E+03  0.7561462E-02  0.1161388E+00
          2   -1    0    0  501    0  0.00000000000E+00  0.00000000000E+00  0.21002505002E+03  0.21002505002E+03  0.00000000000E+00 0.  1.
         -2   -1    0    0    0  501 -0.00000000000E+00 -0.00000000000E+00 -0.21882617407E+03  0.21882617407E+03  0.00000000000E+00 0. -1.
         23    2    1    2    0    0  0.16098363971E+03 -0.59796267791E+02 -0.74858701935E+02  0.22526048344E+03  0.12508850566E+03 0.  0.
         23    2    1    2    0    0 -0.16098363971E+03  0.59796267791E+02  0.66057577889E+02  0.20359074066E+03  0.87145052579E+02 0.  0.
          5    1    3    3  502    0 -0.43254335568E+01 -0.33900947487E+02 -0.42648866139E+02  0.54812241323E+02  0.41800000000E+01 0. -1.
         -5    1    3    3    0  502  0.16530907326E+03 -0.25895320304E+02 -0.32209835796E+02  0.17044824211E+03  0.41800000000E+01 0. -1.
        -11    1    4    4    0    0 -0.35981308653E+02  0.15094593966E+02 -0.21511047867E+02  0.44555880865E+02  0.00000000000E+00 0. -1.
         11    1    4    4    0    0 -0.12500233105E+03  0.44701673825E+02  0.87568625755E+02  0.15903485979E+03  0.00000000000E+00 0.  1.
</event>
<event>
 8    1  0.8619230E-006  0.1151694E+03  0.7561462E-02  0.1251286E+00
          1   -1    0    0  501    0  0.00000000000E+00  0.00000000000E+00  0.26415676640E+03  0.26415676640E+03  0.00000000000E+00 0. -1.
         -1   -1    0    0    0  501 -0.00000000000E+00 -0.00000000000E+00 -0.10541470063E+03  0.10541470063E+03  0.00000000000E+00 0.  1.
         23    2    1    2    0    0 -0.57142613613E+02  0.87563595028E+01 -0.38714004999E+02  0.14313880794E+03  0.12509193432E+03 0.  0.
         23    2    1    2    0    0  0.57142613613E+02 -0.87563595028E+01  0.19745607078E+03  0.22643265909E+03  0.94556317049E+02 0.  0.
          5    1    3    3  502    0 -0.88765993604E+02 -0.21322564238E+02 -0.38832988254E+02  0.99295149645E+02  0.41800000000E+01 0.  1.
         -5    1    3    3    0  502  0.31623379991E+02  0.30078923741E+02  0.11898325551E+00  0.43843658293E+02  0.41800000000E+01 0.  1.
        -11    1    4    4    0    0  0.44025798634E+02 -0.41086241722E+02  0.61507778262E+02  0.86078783629E+02  0.00000000000E+00 0.  1.
         11    1    4    4    0    0  0.13116814978E+02  0.32329882219E+02  0.13594829251E+03  0.14035387546E+03  0.00000000000E+00 0. -1.
</event>
<event>
 8    1  0.8619230E-006  0.8925440E+02  0.7561462E-02  0.1304667E+00
          2   -1    0    0  501    0  0.00000000000E+00  0.00000000000E+00  0.18587893136E+03  0.18587893136E+03  0.00000000000E+00 0. -1.
         -2   -1    0    0    0  501 -0.00000000000E+00 -0.00000000000E+00 -0.73721059403E+02  0.73721059403E+02  0.00000000000E+00 0.  1.
         23    2    1    2    0    0 -0.67632637381E+01 -0.27868212556E+02  0.20375391362E+02  0.12994076956E+03  0.12508824091E+03 0.  0.
         23    2    1    2    0    0  0.67632637381E+01  0.27868212556E+02  0.91782480599E+02  0.12965922120E+03  0.86977645924E+02 0.  0.
          5    1    3    3  502    0  0.25839359232E+02  0.20071975679E+02  0.53639021449E+02  0.62969625337E+02  0.41800000000E+01 0. -1.
         -5    1    3    3    0  502 -0.32602622970E+02 -0.47940188235E+02 -0.33263630087E+02  0.66971144227E+02  0.41800000000E+01 0. -1.
        -11    1    4    4    0    0 -0.30434182056E+02 -0.12142073217E+02  0.54252109864E+02  0.63379498295E+02  0.00000000000E+00 0. -1.
         11    1    4    4    0    0  0.37197445794E+02  0.40010285773E+02  0.37530370735E+02  0.66279722908E+02  0.00000000000E+00 0.  1.
</event>
<event>
 8    1  0.8619230E-006  0.1320960E+03  0.7561462E-02  0.1224378E+00
         -2   -1    0    0    0  501 -0.00000000000E+00  0.00000000000E+00  0.26939353092E+02  0.26939353092E+02  0.00000000000E+00 0.  1.
          2   -1    0    0  501    0  0.00000000000E+00 -0.00000000000E+00 -0.80707936006E+03  0.80707936006E+03  0.00000000000E+00 0. -1.
         23    2    1    2    0    0  0.87059658399E+02  0.50972940992E+02 -0.41454450894E+03  0.44460344352E+03  0.12508975681E+03 0.  0.
         23    2    1    2    0    0 -0.87059658399E+02 -0.50972940992E+02 -0.36559549803E+03  0.38941526964E+03  0.88354735105E+02 0.  0.
          5    1    3    3  502    0  0.59882838967E+02  0.74566870480E+02 -0.38814250861E+03  0.39977275041E+03  0.41800000000E+01 0.  1.
         -5    1    3    3    0  502  0.27176819432E+02 -0.23593929488E+02 -0.26402000329E+02  0.44830693108E+02  0.41800000000E+01 0.  1.
        -11    1    4    4    0    0 -0.94295987573E+02 -0.66308849420E+02 -0.33698979145E+03  0.35616108199E+03  0.00000000000E+00 0. -1.
         11    1    4    4    0    0  0.72363291740E+01  0.15335908429E+02 -0.28605706577E+02  0.33254187646E+02  0.00000000000E+00 0.  1.
</event>
<event>
 8    1  0.8619230E-006  0.1443161E+03  0.7561462E-02  0.1207637E+00
         -1   -1    0    0    0  501 -0.00000000000E+00  0.00000000000E+00  0.67499801380E+03  0.67499801380E+03  0.00000000000E+00 0. -1.
          1   -1    0    0  501    0  0.00000000000E+00 -0.00000000000E+00 -0.40452056101E+02  0.40452056101E+02  0.00000000000E+00 0.  1.
         23    2    1    2    0    0 -0.35715695955E+02  0.12013926133E+03  0.34730625240E+03  0.38984422637E+03  0.12509130595E+03 0.  0.
         23    2    1    2    0    0  0.35715695955E+02 -0.12013926133E+03  0.28723970529E+03  0.32560584353E+03  0.88337217482E+02 0.  0.
          5    1    3    3  502    0 -0.27812335539E+02 -0.31957170948E+01  0.17772570444E+03  0.17996565515E+03  0.41800000000E+01 0. -1.
         -5    1    3    3    0  502 -0.79033604162E+01  0.12333497842E+03  0.16958054796E+03  0.20987857122E+03  0.41800000000E+01 0. -1.
        -11    1    4    4    0    0  0.36827236164E+02 -0.32784001455E+02  0.18336208647E+03  0.18987546136E+03  0.00000000000E+00 0. -1.
         11    1    4    4    0    0 -0.11115402094E+01 -0.87355259874E+02  0.10387761883E+03  0.13573038216E+03  0.00000000000E+00 0.  1.
</event>
<event>
 8    1  0.8619230E-006  0.1161205E+03  0.7561462E-02  0.1249638E+00
         -3   -1    0    0    0  501 -0.00000000000E+00  0.00000000000E+00  0.17616539647E+03  0.17616539647E+03  0.00000000000E+00 0.  1.
          3   -1    0    0  501    0  0.00000000000E+00 -0.00000000000E+00 -0.10455991384E+03  0.10455991384E+03  0.00000000000E+00 0. -1.
         23    2    1    2    0    0  0.69922640092E+02 -0.19124923539E+02  0.78943585915E+02  0.16472753658E+03  0.12509249878E+03 0.  0.
         23    2    1    2    0    0 -0.69922640092E+02  0.19124923539E+02 -0.73381032820E+01  0.11599777373E+03  0.90259057457E+02 0.  0.
          5    1    3    3  502    0 -0.22703872612E+02  0.16275850611E+01 -0.17748598407E+02  0.29165047747E+02  0.41800000000E+01 0. -1.
         -5    1    3    3    0  502  0.92626512703E+02 -0.20752508600E+02  0.96692184322E+02  0.13556248883E+03  0.41800000000E+01 0. -1.
        -11    1    4    4    0    0 -0.57763455526E+02  0.52813307682E+02 -0.14159613796E+02  0.79538399063E+02  0.00000000000E+00 0.  1.
         11    1    4    4    0    0 -0.12159184565E+02 -0.33688384144E+02  0.68215105138E+01  0.36459374668E+02  0.00000000000E+00 0. -1.
</event>
<event>
 7    1  0.8619230E-006  0.2023103E+03  0.7561462E-02  0.1147804E+00
         -1   -1    0    0    0  501 -0.00000000000E+00  0.00000000000E+00  0.43659974621E+03  0.43659974621E+03  0.00000000000E+00 0.  1.
          1   -1    0    0  501    0  0.00000000000E+00 -0.00000000000E+00 -0.11401398588E+03  0.11401398588E+03  0.00000000000E+00 0. -1.
         23    2    1    2    0    0 -0.15277372609E+03 -0.40405875076E+02  0.65451355826E+02  0.19356903325E+03  0.90623642227E+02 0.  0.
          5    1    1    2  502    0  0.67881143996E+02 -0.75528863838E+02  0.82864693645E+02  0.13113538361E+03  0.41800000000E+01 0. -1.
         -5    1    1    2    0  502  0.84892582095E+02  0.11593473891E+03  0.17426971086E+03  0.22590931522E+03  0.41800000000E+01 0.  1.
        -11    1    3    3    0    0 -0.52076334253E+02 -0.23463046555E+02 -0.19897704604E+02  0.60484525223E+02  0.00000000000E+00 0.  1.
         11    1    3    3    0    0 -0.10069739184E+03 -0.16942828522E+02  0.85349060430E+02  0.13308450803E+03  0.00000000000E+00 0. -1.
</event>
<event>
 8    1  0.8619230E-006  0.9468043E+02  0.7561462E-02  0.1291897E+00
          2   -1    0    0  501    0  0.00000000000E+00  0.00000000000E+00  0.47459031681E+03  0.47459031681E+03  0.00000000000E+00 0. -1.
         -2   -1    0    0    0  501 -0.00000000000E+00 -0.00000000000E+00 -0.42175857730E+02  0.42175857730E+02  0.00000000000E+00 0.  1.
         23    2    1    2    0    0 -0.21190533800E+02 -0.85980103332E+02  0.20724570066E+03  0.25775478215E+03  0.12508049563E+03 0.  0.
         23    2    1    2    0    0  0.21190533800E+02  0.85980103332E+02  0.22516875842E+03  0.25901139239E+03  0.92435462502E+02 0.  0.
          5    1    3    3  502    0 -0.80941191592E+01 -0.23671627105E+02 -0.12965479815E+02  0.28485729087E+02  0.41800000000E+01 0.  1.
         -5    1    3    3    0  502 -0.13096414641E+02 -0.62308476227E+02  0.22021118048E+03  0.22926905306E+03  0.41800000000E+01 0.  1.
        -11    1    4    4    0    0 -0.20813573904E+01  0.73974292912E+02  0.70729784099E+02  0.10236811232E+03  0.00000000000E+00 0.  1.
         11    1    4    4    0    0  0.23271891191E+02  0.12005810421E+02  0.15443897432E+03  0.15664328007E+03  0.00000000000E+00 0. -1.
</event>
<event>
 7    1  0.8619230E-006  0.1046088E+03  0.7561462E-02  0.1270892E+00
          2   -1    0    0  501    0  0.00000000000E+00  0.00000000000E+00  0.90708566513E+02  0.90708566513E+02  0.00000000000E+00 0. -1.
         -2   -1    0    0    0  501 -0.00000000000E+00 -0.00000000000E+00 -0.24048302026E+03  0.24048302026E+03  0.00000000000E+00 0.  1.
         23    2    1    2    0    0  0.41987948121E+02  0.42287680643E+02 -0.12126555224E+02  0.11095910636E+03  0.92809666631E+02 0.  0.
          5    1    1    2  502    0  0.20810916186E+02 -0.27655651168E+02  0.26521769993E+02  0.43804177399E+02  0.41800000000E+01 0. -1.
         -5    1    1    2    0  502 -0.62798864307E+02 -0.14632029476E+02 -0.16416966852E+03  0.17642830302E+03  0.41800000000E+01 0.  1.
        -11    1    3    3    0    0 -0.26923449061E+02 -0.32820261861E+01 -0.78355674768E+01  0.28231895489E+02  0.00000000000E+00 0.  1.
         11    1    3    3    0    0  0.68911397182E+02  0.45569706829E+02 -0.42909877473E+01  0.82727210867E+02  0.00000000000E+00 0. -1.
</event>
<event>
 8    1  0.8619230E-006  0.1073122E+03  0.7561462E-02  0.1265630E+00
         -2   -1    0    0    0  501 -0.00000000000E+00  0.00000000000E+00  0.27966993753E+03  0.27966993753E+03  0.00000000000E+00 0. -1.
          2   -1    0    0  501    0  0.00000000000E+00 -0.00000000000E+00 -0.49361827073E+02  0.49361827073E+02  0.00000000000E+00 0.  1.
         23    2    1    2    0    0  0.22054971427E+02  0.24777859638E+02  0.18565942627E+03  0.22631382213E+03  0.12509260342E+03 0.  0.
         23    2    1    2    0    0 -0.22054971427E+02 -0.24777859638E+02  0.44648684192E+02  0.10271794248E+03  0.86354540202E+02 0.  0.
          5    1    3    3  502    0  0.66394166735E+02 -0.92079048086E+01  0.13500276321E+03  0.15078524252E+03  0.41800000000E+01 0. -1.
         -5    1    3    3    0  502 -0.44339195308E+02  0.33985764447E+02  0.50656663057E+02  0.75528579608E+02  0.41800000000E+01 0. -1.
        -11    1    4    4    0    0  0.29129248173E+02 -0.27670371984E+02  0.11967564706E+02  0.41921178297E+02  0.00000000000E+00 0.  1.
         11    1    4    4    0    0 -0.51184219600E+02  0.28925123457E+01  0.32681119485E+02  0.60796764179E+02  0.00000000000E+00 0. -1.
</event>
<event>
 8    1  0.8619230E-006  0.1366756E+03  0.7561462E-02  0.1217873E+00
          2   -1    0    0  501    0  0.00000000000E+00  0.00000000000E+00  0.55730845334E+02  0.55730845334E+02  0.00000000000E+00 0. -1.
         -2   -1    0    0    0  501 -0.00000000000E+00 -0.00000000000E+00 -0.48570081806E+03  0.48570081806E+03  0.00000000000E+00 0.  1.
         23    2    1    2    0    0  0.11271011408E+03 -0.44315233957E+02 -0.26610103405E+03  0.31799859039E+03  0.12508370553E+03 0.  0.
         23    2    1    2    0    0 -0.11271011408E+03  0.44315233957E+02 -0.16386893867E+03  0.22343307300E+03  0.91661874699E+02 0.  0.
          5    1    3    3  502    0  0.10159306801E+03 -0.41702443325E+02 -0.91580590125E+02  0.14305496193E+03  0.41800000000E+01 0. -1.
         -5    1    3    3    0  502  0.11117046074E+02 -0.26127906324E+01 -0.17452044392E+03  0.17494362845E+03  0.41800000000E+01 0. -1.
        -11    1    4    4    0    0 -0.12457106782E+03  0.54200425973E+02 -0.14061908306E+03  0.19552330714E+03  0.00000000000E+00 0.  1.
         11    1    4    4    0    0  0.11860953737E+02 -0.98851920154E+01 -0.23249855613E+02  0.27909765867E+02  0.00000000000E+00 0. -1.
</event>
<event>
 7    1  0.8619230E-006  0.1250155E+03  0.7561462E-02  0.1235045E+00
         -1   -1    0    0    0  501 -0.00000000000E+00  0.00000000000E+00  0.23220220590E+03  0.23220220590E+03  0.00000000000E+00 0.  1.
          1   -1    0    0  501    0  0.00000000000E+00 -0.00000000000E+00 -0.12037084832E+03  0.12037084832E+03  0.00000000000E+00 0. -1.
         23    2    1    2    0    0 -0.15806206922E+02 -0.11253963395E+03  0.98573179897E+01  0.14580627825E+03  0.90814639091E+02 0.  0.
          5    1    1    2  502    0  0.34148229130E+02  0.19377846743E+02 -0.26061978199E+02  0.47310692288E+02  0.41800000000E+01 0. -1.
         -5    1    1    2    0  502 -0.18342022208E+02  0.93161787203E+02  0.12803601778E+03  0.15945608368E+03  0.41800000000E+01 0.  1.
        -11    1    3    3    0    0 -0.20898020287E+02 -0.89274468527E+02 -0.32446249517E+02  0.97259534702E+02  0.00000000000E+00 0. -1.
         11    1    3    3    0    0  0.50918133651E+01 -0.23265165419E+02  0.42303567507E+02  0.48546743548E+02  0.00000000000E+00 0.  1.
</event>
<event>
 8    1  0.8619230E-006  0.1090033E+03  0.7561462E-02  0.1262427E+00
         -2   -1    0    0    0  501 -0.00000000000E+00  0.00000000000E+00  0.13329750842E+03  0.13329750842E+03  0.00000000000E+00 0.  1.
          2   -1    0    0  501    0  0.00000000000E+00 -0.00000000000E+00 -0.15880352873E+03  0.15880352873E+03  0.00000000000E+00 0. -1.
         23    2    1    2    0    0 -0.83302524758E+02 -0.30812862244E+02  0.28214548613E+02  0.15598885321E+03  0.12509084084E+03 0.  0.
         23    2    1    2    0    0  0.83302524758E+02  0.30812862244E+02 -0.53720568917E+02  0.13611218393E+03  0.88044783945E+02 0.  0.
          5    1    3    3  502    0  0.62427659743E+01 -0.24817472257E+02 -0.36851148877E+02  0.45059500994E+02  0.41800000000E+01 0. -1.
         -5    1    3    3    0  502 -0.89545290732E+02 -0.59953899872E+01  0.65065697490E+02  0.11092935222E+03  0.41800000000E+01 0. -1.
        -11    1    4    4    0    0  0.30810495239E+02  0.38360580942E+02 -0.65368659915E+02  0.81816150521E+02  0.00000000000E+00 0.  1.
         11    1    4    4    0    0  0.52492029519E+02 -0.75477186972E+01  0.11648090998E+02  0.54296033414E+02  0.00000000000E+00 0. -1.
</event>
<event>
 7    1  0.8619230E-006  0.1328488E+03  0.7561462E-02  0.1223289E+00
          1   -1    0    0  501    0  0.00000000000E+00  0.00000000000E+00  0.58187539057E+02  0.58187539057E+02  0.00000000000E+00 0. -1.
         -1   -1    0    0    0  501 -0.00000000000E+00 -0.00000000000E+00 -0.45626652539E+03  0.45626652539E+03  0.00000000000E+00 0.  1.
         23    2    1    2    0    0 -0.34769857795E+02 -0.25825717136E+02 -0.85274870066E+02  0.13524780861E+03  0.95625601139E+02 0.  0.
          5    1    1    2  502    0  0.50996674742E+02 -0.65032282130E+02 -0.41439480048E+02  0.92544915908E+02  0.41800000000E+01 0. -1.
         -5    1    1    2    0  502 -0.16226816947E+02  0.90857999265E+02 -0.27136463622E+03  0.28666133993E+03  0.41800000000E+01 0.  1.
        -11    1    3    3    0    0  0.21875282563E+02  0.94483034896E+01  0.36113839245E+01  0.24100633184E+02  0.00000000000E+00 0.  1.
         11    1    3    3    0    0 -0.56645140358E+02 -0.35274020625E+02 -0.88886253991E+02  0.11114717543E+03  0.00000000000E+00 0. -1.
</event>
<event>
 7    1  0.8619230E-006  0.1348222E+03  0.7561462E-02  0.1220471E+00
          2   -1    0    0  501    0  0.00000000000E+00  0.00000000000E+00  0.40242695413E+03  0.40242695413E+03  0.00000000000E+00 0. -1.
         -2   -1    0    0    0  501 -0.00000000000E+00 -0.00000000000E+00 -0.13920491639E+03  0.13920491639E+03  0.00000000000E+00 0.  1.
         23    2    1    2    0    0 -0.10408934711E+03  0.15896479448E+02  0.25839782648E+03  0.29346403441E+03  0.90908814326E+02 0.  0.
          5    1    1    2  502    0 -0.11491651266E+02 -0.15712835352E+02  0.97779495131E+02  0.99786037660E+02  0.41800000000E+01 0. -1.
         -5    1    1    2    0  502  0.11558099837E+03 -0.18364409534E+00 -0.92955283876E+02  0.14838179845E+03  0.41800000000E+01 0.  1.
        -11    1    3    3    0    0  0.97049238293E+01  0.17792591122E+02  0.74413342373E+02  0.77123974019E+02  0.00000000000E+00 0.  1.
         11    1    3    3    0    0 -0.11379427094E+03 -0.18961116740E+01  0.18398448411E+03  0.21634006039E+03  0.00000000000E+00 0. -1.
</event>
<event>
 8    1  0.8619230E-006  0.1729822E+03  0.7561462E-02  0.1174773E+00
          2   -1    0    0  501    0  0.00000000000E+00  0.00000000000E+00  0.27601018320E+03  0.27601018320E+03  0.00000000000E+00 0. -1.
         -2   -1    0    0    0  501 -0.00000000000E+00 -0.00000000000E+00 -0.14742578471E+03  0.14742578471E+03  0.00000000000E+00 0.  1.
         23    2    1    2    0    0 -0.16449011403E+03 -0.79246705999E+01  0.22281128210E+02  0.20800458834E+03  0.12509860942E+03 0.  0.
         23    2    1    2    0    0  0.16449011403E+03  0.79246705999E+01  0.10630327028E+03  0.21543137956E+03  0.89389574390E+02 0.  0.
          5    1    3    3  502    0  0.70643345602E+01  0.18965464946E+01 -0.27737450601E+02  0.28988623238E+02  0.41800000000E+01 0.  1.
         -5    1    3    3    0  502 -0.17155444859E+03 -0.98212170946E+01  0.50018578811E+02  0.17901596510E+03  0.41800000000E+01 0.  1.
        -11    1    4    4    0    0  0.14189795776E+03  0.58533723775E+00  0.43704558808E+02  0.14847714133E+03  0.00000000000E+00 0.  1.
         11    1    4    4    0    0  0.22592156266E+02  0.73393333622E+01  0.62598711472E+02  0.66954238230E+02  0.00000000000E+00 0. -1.
</event>
<event>
 8    1  0.8619230E-006  0.1972870E+03  0.7561462E-02  0.1152048E+00
          2   -1    0    0  501    0  0.00000000000E+00  0.00000000000E+00  0.76612539922E+03  0.76612539922E+03  0.00000000000E+00 0. -1.
         -2   -1    0    0    0  501 -0.00000000000E+00 -0.00000000000E+00 -0.12182419816E+03  0.12182419816E+03  0.00000000000E+00 0.  1.
         23    2    1    2    0    0 -0.10882152307E+03 -0.15809247572E+03  0.21771648745E+02  0.23012250849E+03  0.12508800686E+03 0.  0.
         23    2    1    2    0    0  0.10882152307E+03  0.15809247572E+03  0.62252955232E+03  0.65782708889E+03  0.91422538829E+02 0.  0.
          5    1    3    3  502    0 -0.53958274568E+02 -0.12530910942E+03 -0.38867032156E+02  0.14192246787E+03  0.41800000000E+01 0. -1.
         -5    1    3    3    0  502 -0.54863248506E+02 -0.32783366296E+02  0.60638680901E+02  0.88200040611E+02  0.41800000000E+01 0. -1.
        -11    1    4    4    0    0  0.74773356325E+02  0.83823719885E+02  0.21919128461E+03  0.24629715809E+03  0.00000000000E+00 0.  1.
         11    1    4    4    0    0  0.34048166749E+02  0.74268755836E+02  0.40333826770E+03  0.41152993080E+03  0.00000000000E+00 0. -1.
</event>
<event>
 8    1  0.8619230E-006  0.9411624E+02  0.7561462E-02  0.1293179E+00
          2   -1    0    0  501    0  0.00000000000E+00  0.00000000000E+00  0.35195592628E+03  0.35195592628E+03  0.00000000000E+00 0. -1.
         -2   -1    0    0    0  501 -0.00000000000E+00 -0.00000000000E+00 -0.34464337846E+02  0.34464337846E+02  0.00000000000E+00 0.  1.
         23    2    1    2    0    0 -0.75097294238E+01  0.36482879808E+01  0.16246006470E+03  0.20520762936E+03  0.12508873844E+03 0.  0.
         23    2    1    2    0    0  0.75097294238E+01 -0.36482879808E+01  0.15503152374E+03  0.18121263477E+03  0.93453408744E+02 0.  0.
          5    1    3    3  502    0  0.57885184831E+02  0.11822441581E+02  0.72670444080E+02  0.93749296481E+02  0.41800000000E+01 0. -1.
         -5    1    3    3    0  502 -0.65394914255E+02 -0.81741536001E+01  0.89789620617E+02  0.11145833288E+03  0.41800000000E+01 0. -1.
        -11    1    4    4    0    0  0.31502642338E+02 -0.16699883529E+02  0.15236498973E+02  0.38774392131E+02  0.00000000000E+00 0.  1.
         11    1    4    4    0    0 -0.23992912914E+02  0.13051595548E+02  0.13979502477E+03  0.14243824264E+03  0.00000000000E+00 0. -1.
</event>
<event>
 8    1  0.8619230E-006  0.1461199E+03  0.7561462E-02  0.1205324E+00
         -2   -1    0    0    0  501 -0.00000000000E+00  0.00000000000E+00  0.22434136991E+02  0.22434136991E+02  0.00000000000E+00 0.  1.
          2   -1    0    0  501    0  0.00000000000E+00 -0.00000000000E+00 -0.11135519816E+04  0.11135519816E+04  0.00000000000E+00 0. -1.
         23    2    1    2    0    0 -0.14210277950E+02  0.84896274548E+02 -0.37578000775E+03  0.40529924076E+03  0.12509017109E+03 0.  0.
         23    2    1    2    0    0  0.14210277950E+02 -0.84896274548E+02 -0.71533783684E+03  0.73068687782E+03  0.12159680573E+03 0.  0.
          5    1    3    3  502    0  0.51225224639E+02  0.37866885713E+02 -0.22979840642E+03  0.23850095318E+03  0.41800000000E+01 0.  1.
         -5    1    3    3    0  502 -0.65435502589E+02  0.47029388834E+02 -0.14598160133E+03  0.16679828758E+03  0.41800000000E+01 0.  1.
        -11    1    4    4    0    0 -0.52113428616E+02 -0.22901794243E+02 -0.23070468313E+03  0.23762355195E+03  0.00000000000E+00 0. -1.
         11    1    4    4    0    0  0.66323706566E+02 -0.61994480304E+02 -0.48463315371E+03  0.49306332587E+03  0.00000000000E+00 0.  1.
</event>
<event>
 7    1  0.8619230E-006  0.9904611E+02  0.7561462E-02  0.1282315E+00
         -2   -1    0    0    0  501 -0.00000000000E+00  0.00000000000E+00  0.52701467096E+02  0.52701467096E+02  0.00000000000E+00 0.  1.
          2   -1    0    0  501    0  0.00000000000E+00 -0.00000000000E+00 -0.38129070895E+03  0.38129070895E+03  0.00000000000E+00 0. -1.
         23    2    1    2    0    0 -0.30678434848E+02  0.49731527127E+02 -0.24165145857E+03  0.26525732362E+03  0.92475019042E+02 0.  0.
          5    1    1    2  502    0  0.45110981089E+02 -0.57287801011E+02 -0.11487408907E+03  0.13612649081E+03  0.41800000000E+01 0. -1.
         -5    1    1    2    0  502 -0.14432546241E+02  0.75562738845E+01  0.27936305795E+02  0.32608361619E+02  0.41800000000E+01 0.  1.
        -11    1    3    3    0    0 -0.20123032006E+02 -0.25378702141E+02 -0.90949373308E+02  0.96544308194E+02  0.00000000000E+00 0.  1.
         11    1    3    3    0    0 -0.10555402842E+02  0.75110229268E+02 -0.15070208526E+03  0.16871301542E+03  0.00000000000E+00 0. -1.
</event>
<event>
 8    1  0.8619230E-006  0.1055986E+03  0.7561462E-02  0.1268945E+00
          1   -1    0    0  501    0  0.00000000000E+00  0.00000000000E+00  0.25230051896E+03  0.25230051896E+03  0.00000000000E+00 0. -1.
         -1   -1    0    0    0  501 -0.00000000000E+00 -0.00000000000E+00 -0.69328247808E+02  0.69328247808E+02  0.00000000000E+00 0.  1.
         23    2    1    2    0    0 -0.15523783272E+02 -0.13557698670E+02  0.12322374046E+02  0.12737539207E+03  0.12509136886E+03 0.  0.
         23    2    1    2    0    0  0.15523783272E+02  0.13557698670E+02  0.17064989711E+03  0.19425337470E+03  0.90488602369E+02 0.  0.
          5    1    3    3  502    0 -0.55201479795E+02 -0.48498673821E+02  0.41597178721E+01  0.73716350878E+02  0.41800000000E+01 0. -1.
         -5    1    3    3    0  502  0.39677696523E+02  0.34940975151E+02  0.81626561742E+01  0.53659041192E+02  0.41800000000E+01 0. -1.
        -11    1    4    4    0    0 -0.27469263760E+02  0.27985768728E+02  0.40257336737E+02  0.56199794163E+02  0.00000000000E+00 0.  1.
         11    1    4    4    0    0  0.42993047033E+02 -0.14428070058E+02  0.13039256037E+03  0.13805358053E+03  0.00000000000E+00 0. -1.
</event>
<event>
 7    1  0.8619230E-006  0.1394129E+03  0.7561462E-02  0.1214121E+00
         -2   -1    0    0    0  501 -0.00000000000E+00  0.00000000000E+00  0.80954028054E+02  0.80954028054E+02  0.00000000000E+00 0.  1.
          2   -1    0    0  501    0  0.00000000000E+00 -0.00000000000E+00 -0.46036462920E+03  0.46036462920E+03  0.00000000000E+00 0. -1.
         23    2    1    2    0    0 -0.43672217802E+02  0.63662793348E+02 -0.24899096924E+03  0.27604673190E+03  0.90802431507E+02 0.  0.
          5    1    1    2  502    0 -0.79676233061E+01 -0.10134503929E+03 -0.16395763972E+03  0.19296082512E+03  0.41800000000E+01 0. -1.
         -5    1    1    2    0  502  0.51639841108E+02  0.37682245946E+02  0.33538007805E+02  0.72311100232E+02  0.41800000000E+01 0.  1.
        -11    1    3    3    0    0 -0.62543343239E+02  0.20345397305E+02 -0.18613032195E+03  0.19740846416E+03  0.00000000000E+00 0.  1.
         11    1    3    3    0    0  0.18871125437E+02  0.43317396043E+02 -0.62860647288E+02  0.78638267738E+02  0.00000000000E+00 0. -1.
</event>
<event>
 8    1  0.8619230E-006  0.1576875E+03  0.7561462E-02  0.1191333E+00
         -1   -1    0    0    0  501 -0.00000000000E+00  0.00000000000E+00  0.50000442571E+03  0.50000442571E+03  0.00000000000E+00 0.  1.
          1   -1    0    0  501    0  0.00000000000E+00 -0.00000000000E+00 -0.70909366748E+02  0.70909366748E+02  0.00000000000E+00 0. -1.
         23    2    1    2    0    0  0.14182953296E+03  0.69491972375E+01  0.31670995735E+03  0.36893923553E+03  0.12508818755E+03 0.  0.
         23    2    1    2    0    0 -0.14182953296E+03 -0.69491972375E+01  0.11238510161E+03  0.20197455693E+03  0.89439380708E+02 0.  0.
          5    1    3    3  502    0  0.29531098090E+02  0.27109662143E+02  0.20600052998E+03  0.20990643222E+03  0.41800000000E+01 0.  1.
         -5    1    3    3    0  502  0.11229843487E+03 -0.20160464906E+02  0.11070942737E+03  0.15903280331E+03  0.41800000000E+01 0.  1.
        -11    1    4    4    0    0 -0.34798329864E+02  0.31731355729E+02  0.61109880910E+02  0.77150633455E+02  0.00000000000E+00 0.  1.
         11    1    4    4    0    0 -0.10703120309E+03 -0.38680552967E+02  0.51275220700E+02  0.12482392347E+03  0.00000000000E+00 0. -1.
</event>
<event>
 8    1  0.8619230E-006  0.1070199E+03  0.7561462E-02  0.1266190E+00
         -1   -1    0    0    0  501 -0.00000000000E+00  0.00000000000E+00  0.22550860909E+03  0.22550860909E+03  0.00000000000E+00 0.  1.
          1   -1    0    0  501    0  0.00000000000E+00 -0.00000000000E+00 -0.55416976048E+02  0.55416976048E+02  0.00000000000E+00 0. -1.
         23    2    1    2    0    0  0.65566017964E+01  0.25741405366E+01  0.13033043478E+03  0.18078454414E+03  0.12508962365E+03 0.  0.
         23    2    1    2    0    0 -0.65566017964E+01 -0.25741405366E+01  0.39761198263E+02  0.10014104099E+03  0.91638747139E+02 0.  0.
          5    1    3    3  502    0 -0.33263942352E+02 -0.48828080008E+02  0.72919518128E+02  0.93943598941E+02  0.41800000000E+01 0. -1.
         -5    1    3    3    0  502  0.39820544148E+02  0.51402220545E+02  0.57410916651E+02  0.86840945203E+02  0.41800000000E+01 0. -1.
        -11    1    4    4    0    0  0.11321536746E+02 -0.43523506032E+02  0.89181179202E+01  0.45847634605E+02  0.00000000000E+00 0.  1.
         11    1    4    4    0    0 -0.17878138542E+02  0.40949365495E+02  0.30843080343E+02  0.54293406389E+02  0.00000000000E+00 0. -1.
</event>
<event>
 7    1  0.8619230E-006  0.1567342E+03  0.7561462E-02  0.1192434E+00
          2   -1    0    0  501    0  0.00000000000E+00  0.00000000000E+00  0.23954777245E+02  0.23954777245E+02  0.00000000000E+00 0. -1.
         -2   -1    0    0    0  501 -0.00000000000E+00 -0.00000000000E+00 -0.14690398816E+04  0.14690398816E+04  0.00000000000E+00 0.  1.
         23    2    1    2    0    0  0.52432803228E+01  0.46014793265E+01 -0.20288723623E+03  0.22545970976E+03  0.98082539217E+02 0.  0.
          5    1    1    2  502    0 -0.83723152471E+02 -0.73057133363E+02 -0.30643728186E+03  0.32598802295E+03  0.41800000000E+01 0. -1.
         -5    1    1    2    0  502  0.78479872148E+02  0.68455654036E+02 -0.93576058629E+03  0.94154692615E+03  0.41800000000E+01 0.  1.
        -11    1    3    3    0    0  0.35012900196E+02 -0.34332885042E+02 -0.92943255771E+02  0.10508615022E+03  0.00000000000E+00 0.  1.
         11    1    3    3    0    0 -0.29769619873E+02  0.38934364369E+02 -0.10994398045E+03  0.12037355953E+03  0.00000000000E+00 0. -1.
</event>
<event>
 8    1  0.8619230E-006  0.2077721E+03  0.7561462E-02  0.1143342E+00
          2   -1    0    0  501    0  0.00000000000E+00  0.00000000000E+00  0.10163376169E+04  0.10163376169E+04  0.00000000000E+00 0. -1.
         -2   -1    0    0    0  501 -0.00000000000E+00 -0.00000000000E+00 -0.51697406111E+02  0.51697406111E+02  0.00000000000E+00 0.  1.
         23    2    1    2    0    0  0.19335155843E+03  0.37353567520E+02  0.39616505380E+03  0.45975402722E+03  0.12508757548E+03 0.  0.
         23    2    1    2    0    0 -0.19335155843E+03 -0.37353567520E+02  0.56847515699E+03  0.60828099579E+03  0.89786700402E+02 0.  0.
          5    1    3    3  502    0  0.10341832185E+03 -0.19967667940E+02  0.29271442433E+03  0.31111615784E+03  0.41800000000E+01 0.  1.
         -5    1    3    3    0  502  0.89933236581E+02  0.57321235460E+02  0.10345062946E+03  0.14863786938E+03  0.41800000000E+01 0.  1.
        -11    1    4    4    0    0 -0.80829805552E+02  0.97592399017E+01  0.13208517538E+03  0.15516183096E+03  0.00000000000E+00 0. -1.
         11    1    4    4    0    0 -0.11252175288E+03 -0.47112807421E+02  0.43638998161E+03  0.45311916484E+03  0.00000000000E+00 0.  1.
</event>
<event>
 8    1  0.8619230E-006  0.1480600E+03  0.7561462E-02  0.1202877E+00
         -2   -1    0    0    0  501 -0.00000000000E+00  0.00000000000E+00  0.27810876080E+02  0.27810876080E+02  0.00000000000E+00 0.  1.
          2   -1    0    0  501    0  0.00000000000E+00 -0.00000000000E+00 -0.87870107237E+03  0.87870107237E+03  0.00000000000E+00 0. -1.
         23    2    1    2    0    0  0.98347872312E+02 -0.54749356465E+02 -0.42863096183E+03  0.46047963260E+03  0.12508874681E+03 0.  0.
         23    2    1    2    0    0 -0.98347872312E+02  0.54749356465E+02 -0.42225923445E+03  0.44603231584E+03  0.89287007303E+02 0.  0.
          5    1    3    3  502    0  0.83534330540E+02  0.16985840568E+02 -0.15238990054E+03  0.17466155085E+03  0.41800000000E+01 0. -1.
         -5    1    3    3    0  502  0.14813541772E+02 -0.71735197033E+02 -0.27624106129E+03  0.28581808176E+03  0.41800000000E+01 0. -1.
        -11    1    4    4    0    0 -0.85571787170E+02  0.46443438979E+01 -0.19559882039E+03  0.21354858751E+03  0.00000000000E+00 0.  1.
         11    1    4    4    0    0 -0.12776085142E+02  0.50105012567E+02 -0.22666041406E+03  0.23248372833E+03  0.00000000000E+00 0. -1.
</event>
<event>
 8    1  0.8619230E-006  0.9105713E+02  0.7561462E-02  0.1300312E+00
          2   -1    0    0  501    0  0.00000000000E+00  0.00000000000E+00  0.28127448351E+03  0.28127448351E+03  0.00000000000E+00 0. -1.
         -2   -1    0    0    0  501 -0.00000000000E+00 -0.00000000000E+00 -0.54856240399E+02  0.54856240399E+02  0.00000000000E+00 0.  1.
         23    2    1    2    0    0  0.37200430105E+02  0.42774887471E+02  0.10602479838E+03  0.17350020180E+03  0.12508996425E+03 0.  0.
         23    2    1    2    0    0 -0.37200430105E+02 -0.42774887471E+02  0.12039344473E+03  0.16263052210E+03  0.93490866872E+02 0.  0.
          5    1    3    3  502    0  0.23374310336E+02  0.75037928812E+02  0.21058117360E+02  0.81473712637E+02  0.41800000000E+01 0. -1.
         -5    1    3    3    0  502  0.13826119769E+02 -0.32263041341E+02  0.84966681019E+02  0.92026489164E+02  0.41800000000E+01 0. -1.
        -11    1    4    4    0    0 -0.62306015203E+01 -0.35769281472E+02  0.12534215466E+03  0.13049489502E+03  0.00000000000E+00 0. -1.
         11    1    4    4    0    0 -0.30969828585E+02 -0.70056059986E+01 -0.49487099313E+01  0.32135627082E+02  0.00000000000E+00 0.  1.
</event>
<event>
 8    1  0.8619230E-006  0.8770265E+02  0.7561462E-02  0.1308512E+00
         -2   -1    0    0    0  501 -0.00000000000E+00  0.00000000000E+00  0.36348439664E+03  0.36348439664E+03  0.00000000000E+00 0.  1.
          2   -1    0    0  501    0  0.00000000000E+00 -0.00000000000E+00 -0.40388131094E+02  0.40388131094E+02  0.00000000000E+00 0. -1.
         23    2    1    2    0    0 -0.29232267010E+02  0.34711143998E+02  0.15573234592E+03  0.20484034702E+03  0.12509042828E+03 0.  0.
         23    2    1    2    0    0  0.29232267010E+02 -0.34711143998E+02  0.16736391962E+03  0.19903218071E+03  0.97692059134E+02 0.  0.
          5    1    3    3  502    0  0.38536594173E+02 -0.19256994204E+02  0.73637826959E+02  0.85416057480E+02  0.41800000000E+01 0. -1.
         -5    1    3    3    0  502 -0.67768861182E+02  0.53968138202E+02  0.82094518966E+02  0.11942428954E+03  0.41800000000E+01 0. -1.
        -11    1    4    4    0    0  0.84484458795E+01 -0.93992482171E+01 -0.11564702030E+02  0.17130803772E+02  0.00000000000E+00 0. -1.
         11    1    4    4    0    0  0.20783821130E+02 -0.25311895781E+02  0.17892862165E+03  0.18190137694E+03  0.00000000000E+00 0.  1.
</event>
<event>
 8    1  0.8619230E-006  0.7511679E+02  0.7561462E-02  0.1343510E+00
          3   -1    0    0  501    0  0.00000000000E+00  0.00000000000E+00  0.23042221453E+03  0.23042221453E+03  0.00000000000E+00 0. -1.
         -3   -1    0    0    0  501 -0.00000000000E+00 -0.00000000000E+00 -0.62874289546E+02  0.62874289546E+02  0.00000000000E+00 0.  1.
         23    2    1    2    0    0 -0.21738883629E+02 -0.98194754818E+01  0.40600588095E+02  0.13365213572E+03  0.12508191103E+03 0.  0.
         23    2    1    2    0    0  0.21738883629E+02  0.98194754818E+01  0.12694733689E+03  0.15964436836E+03  0.93817358977E+02 0.  0.
          5    1    3    3  502    0  0.16363011100E+02 -0.48737100471E+02 -0.16961236983E+02  0.54297412964E+02  0.41800000000E+01 0. -1.
         -5    1    3    3    0  502 -0.38101894729E+02  0.38917624989E+02  0.57561825078E+02  0.79354722752E+02  0.41800000000E+01 0. -1.
        -11    1    4    4    0    0  0.50400596835E+01 -0.14033885295E+02 -0.11081169853E+02  0.18578064038E+02  0.00000000000E+00 0.  1.
         11    1    4    4    0    0  0.16698823946E+02  0.23853360777E+02  0.13802850674E+03  0.14106630432E+03  0.00000000000E+00 0. -1.
</event>
<event>
 8    1  0.8619230E-006  0.7508404E+02  0.7561462E-02  0.1343611E+00
         -1   -1    0    0    0  501 -0.00000000000E+00  0.00000000000E+00  0.19778485961E+03  0.19778485961E+03  0.00000000000E+00 0.  1.
          1   -1    0    0  501    0  0.00000000000E+00 -0.00000000000E+00 -0.65272571159E+02  0.65272571159E+02  0.00000000000E+00 0. -1.
         23    2    1    2    0    0  0.18317661571E+02  0.31863817543E+02  0.60234668487E+02  0.14361924974E+03  0.12508970387E+03 0.  0.
         23    2    1    2    0    0 -0.18317661571E+02 -0.31863817543E+02  0.72277619960E+02  0.11943818102E+03  0.87695981350E+02 0.  0.
          5    1    3    3  502    0  0.15880278952E+01  0.58605009383E+02 -0.16081358554E+02  0.60935633667E+02  0.41800000000E+01 0. -1.
         -5    1    3    3    0  502  0.16729633676E+02 -0.26741191840E+02  0.76316027041E+02  0.82683616075E+02  0.41800000000E+01 0. -1.
        -11    1    4    4    0    0 -0.23929298877E+02 -0.41798647538E+02  0.87818132826E+02  0.10015868776E+03  0.00000000000E+00 0.  1.
         11    1    4    4    0    0  0.56116373062E+01  0.99348299951E+01 -0.15540512866E+02  0.19279493262E+02  0.00000000000E+00 0. -1.
</event>
<event>
 8    1  0.8619230E-006  0.1113683E+03  0.7561462E-02  0.1258057E+00
          1   -1    0    0  501    0  0.00000000000E+00  0.00000000000E+00  0.46580974178E+03  0.46580974178E+03  0.00000000000E+00 0. -1.
         -1   -1    0    0    0  501 -0.00000000000E+00 -0.00000000000E+00 -0.38111371799E+02  0.38111371799E+02  0.00000000000E+00 0.  1.
         23    2    1    2    0    0  0.64059889691E+02  0.12224170005E+02  0.15583410517E+03  0.21020611307E+03  0.12509692978E+03 0.  0.
         23    2    1    2    0    0 -0.64059889691E+02 -0.12224170005E+02  0.27186426482E+03  0.29371500051E+03  0.90029013321E+02 0.  0.
          5    1    3    3  502    0  0.16845278583E+01  0.45468169409E+02  0.12479550621E+03  0.13289688797E+03  0.41800000000E+01 0.  1.
         -5    1    3    3    0  502  0.62375361833E+02 -0.33243999404E+02  0.31038598961E+02  0.77309225100E+02  0.41800000000E+01 0.  1.
        -11    1    4    4    0    0  0.11347587037E+02  0.20975657969E+02  0.30764016284E+02  0.38925193085E+02  0.00000000000E+00 0. -1.
         11    1    4    4    0    0 -0.75407476729E+02 -0.33199827974E+02  0.24110024853E+03  0.25478980742E+03  0.00000000000E+00 0.  1.
</event>
<event>
 8    1  0.8619230E-006  0.7070304E+02  0.7561462E-02  0.1357719E+00
         -2   -1    0    0    0  501 -0.00000000000E+00  0.00000000000E+00  0.65742973547E+02  0.65742973547E+02  0.00000000000E+00 0.  1.
          2   -1    0    0  501    0  0.00000000000E+00 -0.00000000000E+00 -0.22729070796E+03  0.22729070796E+03  0.00000000000E+00 0. -1.
         23    2    1    2    0    0 -0.21870921011E+02  0.16243599833E+02 -0.30598399791E+02  0.13162779148E+03  0.12508965464E+03 0.  0.
         23    2    1    2    0    0  0.21870921011E+02 -0.16243599833E+02 -0.13094933462E+03  0.16140589003E+03  0.90343463392E+02 0.  0.
          5    1    3    3  502    0 -0.23820981624E+02 -0.78734896614E+01  0.45247651011E+02  0.51906197385E+02  0.41800000000E+01 0.  1.
         -5    1    3    3    0  502  0.19500606136E+01  0.24117089494E+02 -0.75846050802E+02  0.79721594090E+02  0.41800000000E+01 0.  1.
        -11    1    4    4    0    0 -0.12224166828E+02  0.30903884718E+02 -0.67992754091E+02  0.75680215077E+02  0.00000000000E+00 0.  1.
         11    1    4    4    0    0  0.34095087839E+02 -0.47147484551E+02 -0.62956580528E+02  0.85725674952E+02  0.00000000000E+00 0. -1.
</event>
<event>
 7    1  0.8619230E-006  0.1535671E+03  0.7561462E-02  0.1196157E+00
         -3   -1    0    0    0  501 -0.00000000000E+00  0.00000000000E+00  0.71978750581E+02  0.71978750581E+02  0.00000000000E+00 0.  1.
          3   -1    0    0  501    0  0.00000000000E+00 -0.00000000000E+00 -0.51712892219E+03  0.51712892219E+03  0.00000000000E+00 0. -1.
         23    2    1    2    0    0  0.78260217707E+02  0.87004943591E+02 -0.34349150312E+03  0.37449024341E+03  0.92531118065E+02 0.  0.
          5    1    1    2  502    0 -0.10418264287E+03 -0.88834188063E+02 -0.12034759643E+03  0.18233637161E+03  0.41800000000E+01 0. -1.
         -5    1    1    2    0  502  0.25922425167E+02  0.18292444726E+01  0.18688927941E+02  0.32281057750E+02  0.41800000000E+01 0.  1.
        -11    1    3    3    0    0  0.70189362967E+02  0.15505517115E+02 -0.22136556244E+03  0.23274380759E+03  0.00000000000E+00 0.  1.
         11    1    3    3    0    0  0.80708547401E+01  0.71499426476E+02 -0.12212594067E+03  0.14174643582E+03  0.00000000000E+00 0. -1.
</event>
<event>
 8    1  0.8619230E-006  0.9919344E+02  0.7561462E-02  0.1282001E+00
         -2   -1    0    0    0  501 -0.00000000000E+00  0.00000000000E+00  0.30042158267E+02  0.30042158267E+02  0.00000000000E+00 0.  1.
          2   -1    0    0  501    0  0.00000000000E+00 -0.00000000000E+00 -0.62602267489E+03  0.62602267489E+03  0.00000000000E+00 0. -1.
         23    2    1    2    0    0  0.11873900958E+01 -0.33487361130E+02 -0.13073673952E+03  0.18086378357E+03  0.12040265735E+03 0.  0.
         23    2    1    2    0    0 -0.11873900958E+01  0.33487361130E+02 -0.46524377710E+03  0.47520104958E+03  0.90782444036E+02 0.  0.
          5    1    3    3  502    0  0.34403128981E+02  0.21605379214E+02 -0.10277939898E+03  0.11059586316E+03  0.41800000000E+01 0. -1.
         -5    1    3    3    0  502 -0.33215738885E+02 -0.55092740344E+02 -0.27957340545E+02  0.70267920409E+02  0.41800000000E+01 0.  1.
        -11    1    4    4    0    0 -0.24947474942E+02 -0.21656479452E+02 -0.10778041500E+03  0.11272975413E+03  0.00000000000E+00 0.  1.
         11    1    4    4    0    0  0.23760084846E+02  0.55143840582E+02 -0.35746336210E+03  0.36247129545E+03  0.00000000000E+00 0. -1.
</event>
<event>
 8    1  0.8619230E-006  0.8943502E+02  0.7561462E-02  0.1304226E+00
          4   -1    0    0  501    0  0.00000000000E+00  0.00000000000E+00  0.23486612941E+02  0.23486612941E+02  0.00000000000E+00 0. -1.
         -4   -1    0    0    0  501 -0.00000000000E+00 -0.00000000000E+00 -0.56682384082E+03  0.56682384082E+03  0.00000000000E+00 0.  1.
         23    2    1    2    0    0 -0.77781117512E+01 -0.19491486441E+02 -0.38107400963E+03  0.40162858399E+03  0.12509077343E+03 0.  0.
         23    2    1    2    0    0  0.77781117512E+01  0.19491486441E+02 -0.16226321825E+03  0.18868186977E+03  0.93973820387E+02 0.  0.
          5    1    3    3  502    0  0.48282101898E+02 -0.32617933015E+02 -0.11078183874E+03  0.12524048512E+03  0.41800000000E+01 0. -1.
         -5    1    3    3    0  502 -0.56060213649E+02  0.13126446574E+02 -0.27029217089E+03  0.27638809888E+03  0.41800000000E+01 0. -1.
        -11    1    4    4    0    0 -0.25700671907E+02  0.12254883746E+02 -0.14940818117E+03  0.15209704570E+03  0.00000000000E+00 0.  1.
         11    1    4    4    0    0  0.33478783658E+02  0.72366026943E+01 -0.12855037083E+02  0.36584824069E+02  0.00000000000E+00 0. -1.
</event>
<event>
 8    1  0.8619230E-006  0.1101314E+03  0.7561462E-02  0.1260327E+00
          3   -1    0    0  501    0  0.00000000000E+00  0.00000000000E+00  0.17729457364E+03  0.17729457364E+03  0.00000000000E+00 0. -1.
         -3   -1    0    0    0  501 -0.00000000000E+00 -0.00000000000E+00 -0.10124511112E+03  0.10124511112E+03  0.00000000000E+00 0.  1.
         23    2    1    2    0    0  0.77796798230E+02  0.60203022642E+01  0.39874983351E+02  0.15273046927E+03  0.12509195055E+03 0.  0.
         23    2    1    2    0    0 -0.77796798230E+02 -0.60203022642E+01  0.36174479165E+02  0.12580921549E+03  0.91819278508E+02 0.  0.
          5    1    3    3  502    0  0.41826491832E+02  0.44340340619E+02 -0.27647285242E+02  0.67062403822E+02  0.41800000000E+01 0.  1.
         -5    1    3    3    0  502  0.35970306398E+02 -0.38320038355E+02  0.67522268593E+02  0.85668065449E+02  0.41800000000E+01 0.  1.
        -11    1    4    4    0    0 -0.90311647992E+01  0.28214643621E+02 -0.15298612426E+02  0.33341799508E+02  0.00000000000E+00 0.  1.
         11    1    4    4    0    0 -0.68765633431E+02 -0.34234945885E+02  0.51473091592E+02  0.92467415985E+02  0.00000000000E+00 0. -1.
</event>
<event>
 8    1  0.8619230E-006  0.1616463E+03  0.7561462E-02  0.1186851E+00
         -2   -1    0    0    0  501 -0.00000000000E+00  0.00000000000E+00  0.13113712191E+03  0.13113712191E+03  0.00000000000E+00 0.  1.
          2   -1    0    0  501    0  0.00000000000E+00 -0.00000000000E+00 -0.33376412067E+03  0.33376412067E+03  0.00000000000E+00 0. -1.
         23    2    1    2    0    0  0.93461852067E+01  0.13766563935E+03  0.20215326334E+02  0.18733477862E+03  0.12508589219E+03 0.  0.
         23    2    1    2    0    0 -0.93461852067E+01 -0.13766563935E+03 -0.22284232510E+03  0.27756646396E+03  0.91352398022E+02 0.  0.
          5    1    3    3  502    0  0.22214657723E+02  0.14816373011E+03 -0.12510020604E+02  0.15039931833E+03  0.41800000000E+01 0. -1.
         -5    1    3    3    0  502 -0.12868472517E+02 -0.10498090761E+02  0.32725346938E+02  0.36935460289E+02  0.41800000000E+01 0. -1.
        -11    1    4    4    0    0 -0.27855276327E+02 -0.13869958250E+02 -0.89141443373E+02  0.94416572103E+02  0.00000000000E+00 0. -1.
         11    1    4    4    0    0  0.18509091121E+02 -0.12379568110E+03 -0.13370088173E+03  0.18314989186E+03  0.00000000000E+00 0.  1.
</event>
<event>
 8    1  0.8619230E-006  0.7752294E+02  0.7561462E-02  0.1336232E+00
         -2   -1    0    0    0  501 -0.00000000000E+00  0.00000000000E+00  0.18066393304E+02  0.18066393304E+02  0.00000000000E+00 0.  1.
          2   -1    0    0  501    0  0.00000000000E+00 -0.00000000000E+00 -0.77917983326E+03  0.77917983326E+03  0.00000000000E+00 0. -1.
         23    2    1    2    0    0  0.26483671778E+02 -0.42698525506E+02 -0.41735095126E+03  0.43864173806E+03  0.12530047446E+03 0.  0.
         23    2    1    2    0    0 -0.26483671778E+02  0.42698525506E+02 -0.34376248869E+03  0.35860448850E+03  0.88881840601E+02 0.  0.
          5    1    3    3  502    0  0.27392838727E+02 -0.41373465576E+02 -0.42600086515E+03  0.42890131822E+03  0.41800000000E+01 0. -1.
         -5    1    3    3    0  502 -0.90916694921E+00 -0.13250599294E+01  0.86499138870E+01  0.97404198375E+01  0.41800000000E+01 0. -1.
        -11    1    4    4    0    0  0.31324692241E+02  0.49068223995E+01 -0.82976246691E+02  0.88827758977E+02  0.00000000000E+00 0. -1.
         11    1    4    4    0    0 -0.57808364019E+02  0.37791703106E+02 -0.26078624200E+03  0.26977672952E+03  0.00000000000E+00 0.  1.
</event>
<event>
 8    1  0.8619230E-006  0.2744706E+03  0.7561462E-02  0.1098748E+00
          1   -1    0    0  501    0  0.00000000000E+00  0.00000000000E+00  0.16951971452E+04  0.16951971452E+04  0.00000000000E+00 0. -1.
         -1   -1    0    0    0  501 -0.00000000000E+00 -0.00000000000E+00 -0.48682633877E+02  0.48682633877E+02  0.00000000000E+00 0.  1.
         23    2    1    2    0    0  0.24897122857E+03  0.92440003555E+02  0.81096583525E+03  0.86246532642E+03  0.12509606872E+03 0.  0.
         23    2    1    2    0    0 -0.24897122857E+03 -0.92440003555E+02  0.83554867609E+03  0.88141445268E+03  0.90653297573E+02 0.  0.
          5    1    3    3  502    0  0.20568543714E+03  0.91048492949E+02  0.49761837412E+03  0.54611156899E+03  0.41800000000E+01 0.  1.
         -5    1    3    3    0  502  0.43285791433E+02  0.13915106066E+01  0.31334746113E+03  0.31635375743E+03  0.41800000000E+01 0.  1.
        -11    1    4    4    0    0 -0.29273390043E+02 -0.48132848327E+02  0.15593860353E+03  0.16580274583E+03  0.00000000000E+00 0.  1.
         11    1    4    4    0    0 -0.21969783853E+03 -0.44307155229E+02  0.67961007256E+03  0.71561170685E+03  0.00000000000E+00 0. -1.
</event>
<event>
 8    1  0.8619230E-006  0.7124930E+02  0.7561462E-02  0.1355896E+00
         -1   -1    0    0    0  501 -0.00000000000E+00  0.00000000000E+00  0.57941061807E+02  0.57941061807E+02  0.00000000000E+00 0.  1.
          1   -1    0    0  501    0  0.00000000000E+00 -0.00000000000E+00 -0.28613749481E+03  0.28613749481E+03  0.00000000000E+00 0. -1.
         23    2    1    2    0    0 -0.40930795318E+02  0.26068367251E+02 -0.64642973951E+02  0.14893251754E+03  0.12508913191E+03 0.  0.
         23    2    1    2    0    0  0.40930795318E+02 -0.26068367251E+02 -0.16355345905E+03  0.19514603909E+03  0.94748893532E+02 0.  0.
          5    1    3    3  502    0 -0.97096116134E+01  0.48804383516E+02  0.21551363226E+02  0.54388216232E+02  0.41800000000E+01 0.  1.
         -5    1    3    3    0  502 -0.31221183704E+02 -0.22736016265E+02 -0.86194337177E+02  0.94544301303E+02  0.41800000000E+01 0.  1.
        -11    1    4    4    0    0  0.16180777375E+02 -0.23910126491E+02 -0.16751812024E+03  0.16998774165E+03  0.00000000000E+00 0. -1.
         11    1    4    4    0    0  0.24750017943E+02 -0.21582407605E+01  0.39646611815E+01  0.25158297431E+02  0.00000000000E+00 0.  1.
</event>
<event>
 8    1  0.8619230E-006  0.9431388E+02  0.7561462E-02  0.1292729E+00
         -1   -1    0    0    0  501 -0.00000000000E+00  0.00000000000E+00  0.85177586505E+02  0.85177586505E+02  0.00000000000E+00 0.  1.
          1   -1    0    0  501    0  0.00000000000E+00 -0.00000000000E+00 -0.18942035855E+03  0.18942035855E+03  0.00000000000E+00 0. -1.
         23    2    1    2    0    0 -0.60301182927E+02  0.97902902897E+01 -0.33742282798E+02  0.14324114953E+03  0.12508957920E+03 0.  0.
         23    2    1    2    0    0  0.60301182927E+02 -0.97902902897E+01 -0.70500489243E+02  0.13135679552E+03  0.92478139578E+02 0.  0.
          5    1    3    3  502    0 -0.50401285286E+01 -0.43185491468E+02 -0.48390509863E+02  0.65188215298E+02  0.41800000000E+01 0.  1.
         -5    1    3    3    0  502 -0.55261054398E+02  0.52975781758E+02  0.14648227065E+02  0.78052934232E+02  0.41800000000E+01 0.  1.
        -11    1    4    4    0    0  0.53089911056E+02  0.34542154543E+01 -0.91297321412E+02  0.10566773944E+03  0.00000000000E+00 0. -1.
         11    1    4    4    0    0  0.72112718706E+01 -0.13244505744E+02  0.20796832168E+02  0.25689056087E+02  0.00000000000E+00 0.  1.
</event>
<event>
 8    1  0.8619230E-006  0.2457949E+03  0.7561462E-02  0.1115992E+00
         -3   -1    0    0    0  501 -0.00000000000E+00  0.00000000000E+00  0.51362833350E+03  0.51362833350E+03  0.00000000000E+00 0.  1.
          3   -1    0    0  501    0  0.00000000000E+00 -0.00000000000E+00 -0.13310880894E+03  0.13310880894E+03  0.00000000000E+00 0. -1.
         23    2    1    2    0    0  0.15849101506E+03 -0.15751208585E+03  0.29486565633E+03  0.39054295979E+03  0.12509432090E+03 0.  0.
         23    2    1    2    0    0 -0.15849101506E+03  0.15751208585E+03  0.85653868239E+02  0.25619418265E+03  0.91484507072E+02 0.  0.
          5    1    3    3  502    0  0.73857149536E+02 -0.14962074550E+03  0.16092644894E+03  0.23185348907E+03  0.41800000000E+01 0.  1.
         -5    1    3    3    0  502  0.84633865523E+02 -0.78913403472E+01  0.13393920738E+03  0.15868947073E+03  0.41800000000E+01 0.  1.
        -11    1    4    4    0    0 -0.43057388684E+02  0.10356576163E+03  0.24241799979E+02  0.11474959942E+03  0.00000000000E+00 0.  1.
         11    1    4    4    0    0 -0.11543362637E+03  0.53946324223E+02  0.61412068260E+02  0.14144458322E+03  0.00000000000E+00 0. -1.
</event>
<event>
 8    1  0.8619230E-006  0.1459074E+03  0.7561462E-02  0.1205594E+00
          2   -1    0    0  501    0  0.00000000000E+00  0.00000000000E+00  0.62999567945E+03  0.62999567945E+03  0.00000000000E+00 0.  1.
         -2   -1    0    0    0  501 -0.00000000000E+00 -0.00000000000E+00 -0.44873858164E+02  0.44873858164E+02  0.00000000000E+00 0. -1.
         23    2    1    2    0    0  0.11762164681E+03 -0.54477341942E+02  0.26465265194E+03  0.32014164352E+03  0.12508802161E+03 0.  0.
         23    2    1    2    0    0 -0.11762164681E+03  0.54477341942E+02  0.32046916934E+03  0.35472789410E+03  0.79553489979E+02 0.  0.
          5    1    3    3  502    0  0.20531169889E+02  0.19730378185E+02  0.19015036656E+00  0.28780641367E+02  0.41800000000E+01 0. -1.
         -5    1    3    3    0  502  0.97090476918E+02 -0.74207720127E+02  0.26446250158E+03  0.29136100215E+03  0.41800000000E+01 0. -1.
        -11    1    4    4    0    0 -0.98571547279E+02  0.18845985865E+02  0.28042497290E+03  0.29784171391E+03  0.00000000000E+00 0.  1.
         11    1    4    4    0    0 -0.19050099528E+02  0.35631356077E+02  0.40044196443E+02  0.56886180190E+02  0.00000000000E+00 0. -1.
</event>
<event>
 8    1  0.8619230E-006  0.1315532E+03  0.7561462E-02  0.1225169E+00
         -1   -1    0    0    0  501 -0.00000000000E+00  0.00000000000E+00  0.17491747706E+03  0.17491747706E+03  0.00000000000E+00 0.  1.
          1   -1    0    0  501    0  0.00000000000E+00 -0.00000000000E+00 -0.13746547309E+03  0.13746547309E+03  0.00000000000E+00 0. -1.
         23    2    1    2    0    0 -0.34812547252E+02 -0.70960736548E+02  0.95868121325E+02  0.17630608300E+03  0.12508316688E+03 0.  0.
         23    2    1    2    0    0  0.34812547252E+02  0.70960736548E+02 -0.58416117355E+02  0.13607686715E+03  0.94112334093E+02 0.  0.
          5    1    3    3  502    0  0.44708888261E+02 -0.23684253441E+02  0.13906006414E+02  0.52637229837E+02  0.41800000000E+01 0. -1.
         -5    1    3    3    0  502 -0.79521435514E+02 -0.47276483107E+02  0.81962114911E+02  0.12366885316E+03  0.41800000000E+01 0. -1.
        -11    1    4    4    0    0 -0.13127520907E+02 -0.15839507929E+02  0.78915730662E+00  0.20587486147E+02  0.00000000000E+00 0.  1.
         11    1    4    4    0    0  0.47940068159E+02  0.86800244476E+02 -0.59205274661E+02  0.11548938100E+03  0.00000000000E+00 0. -1.
</event>
<event>
 8    1  0.8619230E-006  0.1096597E+03  0.7561462E-02  0.1261201E+00
         -2   -1    0    0    0  501 -0.00000000000E+00  0.00000000000E+00  0.52002055584E+02  0.52002055584E+02  0.00000000000E+00 0.  1.
          2   -1    0    0  501    0  0.00000000000E+00 -0.00000000000E+00 -0.34520158939E+03  0.34520158939E+03  0.00000000000E+00 0. -1.
         23    2    1    2    0    0 -0.65919204900E+02  0.71997814997E+01 -0.99437747711E+02  0.17301080837E+03  0.12509074991E+03 0.  0.
         23    2    1    2    0    0  0.65919204900E+02 -0.71997814997E+01 -0.19376178609E+03  0.22419283660E+03  0.91222912725E+02 0.  0.
          5    1    3    3  502    0  0.29655447459E+02 -0.71568794322E+01  0.43878159015E+01  0.31102922943E+02  0.41800000000E+01 0. -1.
         -5    1    3    3    0  502 -0.95574652359E+02  0.14356660932E+02 -0.10382556361E+03  0.14190788543E+03  0.41800000000E+01 0. -1.
        -11    1    4    4    0    0  0.78030182218E+02 -0.11634646359E+02 -0.19583584068E+03  0.21112970144E+03  0.00000000000E+00 0. -1.
         11    1    4    4    0    0 -0.12110977318E+02  0.44348648595E+01  0.20740545900E+01  0.13063135166E+02  0.00000000000E+00 0.  1.
</event>
<event>
 8    1  0.8619230E-006  0.9683216E+02  0.7561462E-02  0.1287102E+00
          2   -1    0    0  501    0  0.00000000000E+00  0.00000000000E+00  0.11617652333E+03  0.11617652333E+03  0.00000000000E+00 0. -1.
         -2   -1    0    0    0  501 -0.00000000000E+00 -0.00000000000E+00 -0.13923883939E+03  0.13923883939E+03  0.00000000000E+00 0.  1.
         23    2    1    2    0    0  0.36840530850E+01  0.61605975478E+02 -0.37615814799E+02  0.14446862379E+03  0.12508942911E+03 0.  0.
         23    2    1    2    0    0 -0.36840530850E+01 -0.61605975478E+02  0.14553498738E+02  0.11094673893E+03  0.91041232921E+02 0.  0.
          5    1    3    3  502    0  0.32350550084E+02  0.37509935860E+01  0.34468823408E+02  0.47604624048E+02  0.41800000000E+01 0.  1.
         -5    1    3    3    0  502 -0.28666496999E+02  0.57854981892E+02 -0.72084638208E+02  0.96863999739E+02  0.41800000000E+01 0.  1.
        -11    1    4    4    0    0  0.24975393114E+02  0.32837139561E+01  0.29147311936E+02  0.38524262895E+02  0.00000000000E+00 0. -1.
         11    1    4    4    0    0 -0.28659446199E+02 -0.64889689434E+02 -0.14593813198E+02  0.72422476034E+02  0.00000000000E+00 0.  1.
</event>
<event>
 8    1  0.8619230E-006  0.1706135E+03  0.7561462E-02  0.1177210E+00
         -3   -1    0    0    0  501 -0.00000000000E+00  0.00000000000E+00  0.76646296467E+02  0.76646296467E+02  0.00000000000E+00 0.  1.
          3   -1    0    0  501    0  0.00000000000E+00 -0.00000000000E+00 -0.39067423774E+03  0.39067423774E+03  0.00000000000E+00 0. -1.
         23    2    1    2    0    0  0.11542232356E+03  0.67205675259E+02 -0.18681949472E+03  0.26151009712E+03  0.12508833568E+03 0.  0.
         23    2    1    2    0    0 -0.11542232356E+03 -0.67205675259E+02 -0.12720844656E+03  0.20581043709E+03  0.91307346794E+02 0.  0.
          5    1    3    3  502    0 -0.75260403492E+00 -0.30698447248E+02 -0.30339271828E+02  0.43369400403E+02  0.41800000000E+01 0. -1.
         -5    1    3    3    0  502  0.11617492760E+03  0.97904122506E+02 -0.15648022289E+03  0.21814069671E+03  0.41800000000E+01 0. -1.
        -11    1    4    4    0    0  0.10554175546E+02 -0.22016092292E+02 -0.57622357147E+01  0.25085898463E+02  0.00000000000E+00 0.  1.
         11    1    4    4    0    0 -0.12597649911E+03 -0.45189582967E+02 -0.12144621084E+03  0.18072453863E+03  0.00000000000E+00 0. -1.
</event>
<event>
 8    1  0.8619230E-006  0.9591263E+02  0.7561462E-02  0.1289134E+00
         -4   -1    0    0    0  501 -0.00000000000E+00  0.00000000000E+00  0.19928526567E+03  0.19928526567E+03  0.00000000000E+00 0.  1.
          4   -1    0    0  501    0  0.00000000000E+00 -0.00000000000E+00 -0.64403454310E+02  0.64403454310E+02  0.00000000000E+00 0. -1.
         23    2    1    2    0    0 -0.16264512279E+02  0.11626051297E+02  0.10904026084E+03  0.16714419489E+03  0.12509078292E+03 0.  0.
         23    2    1    2    0    0  0.16264512279E+02 -0.11626051297E+02  0.25841550520E+02  0.96544525092E+02  0.90848005831E+02 0.  0.
          5    1    3    3  502    0  0.26269272811E+02 -0.40001950002E+02  0.12532991634E+02  0.49646540436E+02  0.41800000000E+01 0.  1.
         -5    1    3    3    0  502 -0.42533785090E+02  0.51628001299E+02  0.96507269206E+02  0.11749765445E+03  0.41800000000E+01 0.  1.
        -11    1    4    4    0    0  0.23477200213E+02  0.27969573271E+02  0.39735586528E+02  0.53966589623E+02  0.00000000000E+00 0. -1.
         11    1    4    4    0    0 -0.72126879336E+01 -0.39595624568E+02 -0.13894036008E+02  0.42577935469E+02  0.00000000000E+00 0.  1.
</event>
<event>
 8    1  0.8619230E-006  0.7874465E+02  0.7561462E-02  0.1332652E+00
         -1   -1    0    0    0  501 -0.00000000000E+00  0.00000000000E+00  0.19395464166E+03  0.19395464166E+03  0.00000000000E+00 0.  1.
          1   -1    0    0  501    0  0.00000000000E+00 -0.00000000000E+00 -0.13308150262E+03  0.13308150262E+03  0.00000000000E+00 0. -1.
         23    2    1    2    0    0  0.28560047377E+01  0.18627216354E+01  0.15145999091E+03  0.19645630345E+03  0.12507327381E+03 0.  0.
         23    2    1    2    0    0 -0.28560047377E+01 -0.18627216354E+01 -0.90586851873E+02  0.13057984084E+03  0.93986651211E+02 0.  0.
          5    1    3    3  502    0 -0.10622310280E+02 -0.43104311330E+02  0.78053002344E+01  0.45268203440E+02  0.41800000000E+01 0.  1.
         -5    1    3    3    0  502  0.13478315018E+02  0.44967032965E+02  0.14365469068E+03  0.15118810001E+03  0.41800000000E+01 0.  1.
        -11    1    4    4    0    0  0.10647191049E+02  0.29640387165E+02  0.22925306153E+01  0.31578013319E+02  0.00000000000E+00 0.  1.
         11    1    4    4    0    0 -0.13503195787E+02 -0.31503108801E+02 -0.92879382488E+02  0.99001827518E+02  0.00000000000E+00 0. -1.
</event>
<event>
 8    1  0.8619230E-006  0.1267339E+03  0.7561462E-02  0.1232384E+00
          1   -1    0    0  501    0  0.00000000000E+00  0.00000000000E+00  0.49207222737E+02  0.49207222737E+02  0.00000000000E+00 0. -1.
         -1   -1    0    0    0  501 -0.00000000000E+00 -0.00000000000E+00 -0.42961288455E+03  0.42961288455E+03  0.00000000000E+00 0.  1.
         23    2    1    2    0    0  0.76466402661E+02 -0.54684292673E+02 -0.24412949910E+03  0.28997419101E+03  0.12509331125E+03 0.  0.
         23    2    1    2    0    0 -0.76466402661E+02  0.54684292673E+02 -0.13627616271E+03  0.18884591628E+03  0.90852104934E+02 0.  0.
          5    1    3    3  502    0  0.85823304896E+02  0.13977531465E+02 -0.13499411518E+03  0.16062968151E+03  0.41800000000E+01 0.  1.
         -5    1    3    3    0  502 -0.93569022355E+01 -0.68661824138E+02 -0.10913538392E+03  0.12934450950E+03  0.41800000000E+01 0.  1.
        -11    1    4    4    0    0 -0.13724041549E+02  0.22800168526E+02 -0.11087400080E+03  0.11402298477E+03  0.00000000000E+00 0.  1.
         11    1    4    4    0    0 -0.62742361112E+02  0.31884124148E+02 -0.25402161911E+02  0.74822931513E+02  0.00000000000E+00 0. -1.
</event>
<event>
 8    1  0.8619230E-006  0.1799497E+03  0.7561462E-02  0.1167852E+00
          1   -1    0    0  501    0  0.00000000000E+00  0.00000000000E+00  0.31583629130E+03  0.31583629130E+03  0.00000000000E+00 0. -1.
         -1   -1    0    0    0  501 -0.00000000000E+00 -0.00000000000E+00 -0.12916427721E+03  0.12916427721E+03  0.00000000000E+00 0.  1.
         23    2    1    2    0    0 -0.15456083278E+03 -0.67441590534E+02  0.79192660257E+02  0.22440155203E+03  0.12508860839E+03 0.  0.
         23    2    1    2    0    0  0.15456083278E+03  0.67441590534E+02  0.10747935384E+03  0.22059901648E+03  0.93138044898E+02 0.  0.
          5    1    3    3  502    0 -0.13072875953E+03 -0.78306186207E+02  0.10678809140E+03  0.18612639853E+03  0.41800000000E+01 0.  1.
         -5    1    3    3    0  502 -0.23832073255E+02  0.10864595673E+02 -0.27595431143E+02  0.38275153490E+02  0.41800000000E+01 0.  1.
        -11    1    4    4    0    0  0.75193420330E+02 -0.23687699129E+01  0.83587769807E+01  0.75693663437E+02  0.00000000000E+00 0.  1.
         11    1    4    4    0    0  0.79367412455E+02  0.69810360447E+02  0.99120576855E+02  0.14490535305E+03  0.00000000000E+00 0. -1.
</event>
<event>
 8    1  0.8619230E-006  0.2082790E+03  0.7561462E-02  0.1142936E+00
         -2   -1    0    0    0  501 -0.00000000000E+00  0.00000000000E+00  0.90578524418E+02  0.90578524418E+02  0.00000000000E+00 0.  1.
          2   -1    0    0  501    0  0.00000000000E+00 -0.00000000000E+00 -0.63483573850E+03  0.63483573850E+03  0.00000000000E+00 0. -1.
         23    2    1    2    0    0 -0.17345274000E+03 -0.67495571006E+02 -0.12071500578E+03  0.25467699772E+03  0.12508699145E+03 0.  0.
         23    2    1    2    0    0  0.17345274000E+03  0.67495571006E+02 -0.42354220831E+03  0.47073726520E+03  0.86971636218E+02 0.  0.
          5    1    3    3  502    0 -0.86424072977E+02  0.20049918788E+02 -0.11047016994E+02  0.89502115158E+02  0.41800000000E+01 0. -1.
         -5    1    3    3    0  502 -0.87028667024E+02 -0.87545489794E+02 -0.10966798878E+03  0.16517488257E+03  0.41800000000E+01 0. -1.
        -11    1    4    4    0    0  0.56812448036E+02 -0.18013926251E+02 -0.14789557463E+03  0.15945299240E+03  0.00000000000E+00 0.  1.
         11    1    4    4    0    0  0.11664029196E+03  0.85509497257E+02 -0.27564663368E+03  0.31128427279E+03  0.00000000000E+00 0. -1.
</event>
<event>
 7    1  0.8619230E-006  0.8199979E+02  0.7561462E-02  0.1323470E+00
          2   -1    0    0  501    0  0.00000000000E+00  0.00000000000E+00  0.28247805392E+03  0.28247805392E+03  0.00000000000E+00 0. -1.
         -2   -1    0    0    0  501 -0.00000000000E+00 -0.00000000000E+00 -0.53208026650E+02  0.53208026650E+02  0.00000000000E+00 0.  1.
         23    2    1    2    0    0 -0.51806049039E+02  0.41407300445E+02  0.69237299808E+02  0.15760140946E+03  0.12508384920E+03 0.  0.
          5    1    3    3  502    0 -0.15066683528E+01  0.46415336881E+02  0.91123505669E+02  0.10236024244E+03  0.41800000000E+01 0. -1.
         -5    1    3    3    0  502 -0.50299380686E+02 -0.50080364363E+01 -0.21886205861E+02  0.55241167017E+02  0.41800000000E+01 0. -1.
        -11    1    1    2    0    0  0.26345108789E+02 -0.16820193500E+02  0.30012297457E+02  0.43332685875E+02  0.00000000000E+00 0.  1.
         11    1    1    2    0    0  0.25460940250E+02 -0.24587106945E+02  0.13002043000E+03  0.13475198523E+03  0.00000000000E+00 0. -1.
</event>
<event>
 8    1  0.8619230E-006  0.1448663E+03  0.7561462E-02  0.1206927E+00
          1   -1    0    0  501    0  0.00000000000E+00  0.00000000000E+00  0.37066676935E+03  0.37066676935E+03  0.00000000000E+00 0. -1.
         -1   -1    0    0    0  501 -0.00000000000E+00 -0.00000000000E+00 -0.72121389406E+02  0.72121389406E+02  0.00000000000E+00 0.  1.
         23    2    1    2    0    0 -0.11707405741E+03 -0.24243437746E+02  0.18786920171E+03  0.25541093048E+03  0.12508328132E+03 0.  0.
         23    2    1    2    0    0  0.11707405741E+03  0.24243437746E+02  0.11067617824E+03  0.18737722828E+03  0.92557712029E+02 0.  0.
          5    1    3    3  502    0 -0.21947505454E+02  0.39586337649E+02  0.14769458344E+02  0.47795192476E+02  0.41800000000E+01 0. -1.
         -5    1    3    3    0  502 -0.95126551957E+02 -0.63829775394E+02  0.17309974336E+03  0.20761573800E+03  0.41800000000E+01 0. -1.
        -11    1    4    4    0    0  0.24830028539E+02 -0.15425386359E+02 -0.95340168860E+01  0.30746875281E+02  0.00000000000E+00 0.  1.
         11    1    4    4    0    0  0.92244028871E+02  0.39668824104E+02  0.12021019513E+03  0.15663035300E+03  0.00000000000E+00 0. -1.
</event>
<event>
 8    1  0.8619230E-006  0.1041349E+03  0.7561462E-02  0.1271834E+00
         -1   -1    0    0    0  501 -0.00000000000E+00  0.00000000000E+00  0.83006623039E+02  0.83006623039E+02  0.00000000000E+00 0.  1.
          1   -1    0    0  501    0  0.00000000000E+00 -0.00000000000E+00 -0.17665652472E+03  0.17665652472E+03  0.00000000000E+00 0. -1.
         23    2    1    2    0    0  0.44178704609E+02  0.20868827699E+02 -0.18540248494E+02  0.13556213707E+03  0.12508431670E+03 0.  0.
         23    2    1    2    0    0 -0.44178704609E+02 -0.20868827699E+02 -0.75109653184E+02  0.12410101068E+03  0.85862302207E+02 0.  0.
          5    1    3    3  502    0 -0.33224534272E+02 -0.67327402763E+01  0.25132886424E+02  0.42406766550E+02  0.41800000000E+01 0. -1.
         -5    1    3    3    0  502  0.77403238881E+02  0.27601567976E+02 -0.43673134918E+02  0.93155370524E+02  0.41800000000E+01 0. -1.
        -11    1    4    4    0    0  0.40818493859E+01  0.24950850420E+02 -0.21854198680E+01  0.25376810104E+02  0.00000000000E+00 0.  1.
         11    1    4    4    0    0 -0.48260553995E+02 -0.45819678119E+02 -0.72924233316E+02  0.98724200577E+02  0.00000000000E+00 0. -1.
</event>
<event>
 8    1  0.8619230E-006  0.1605758E+03  0.7561462E-02  0.1188048E+00
          2   -1    0    0  501    0  0.00000000000E+00  0.00000000000E+00  0.12690575090E+04  0.12690575090E+04  0.00000000000E+00 0. -1.
         -2   -1    0    0    0  501 -0.00000000000E+00 -0.00000000000E+00 -0.25781199921E+02  0.25781199921E+02  0.00000000000E+00 0.  1.
         23    2    1    2    0    0  0.30249145253E+02  0.13986254703E+03  0.58283332329E+03  0.61304052221E+03  0.12508979289E+03 0.  0.
         23    2    1    2    0    0 -0.30249145253E+02 -0.13986254703E+03  0.66044298574E+03  0.68179818666E+03  0.90483628752E+02 0.  0.
          5    1    3    3  502    0 -0.20378540810E+02  0.18262132081E+02  0.29703010696E+03  0.29831719233E+03  0.41800000000E+01 0.  1.
         -5    1    3    3    0  502  0.50627686063E+02  0.12160041495E+03  0.28580321633E+03  0.31472332989E+03  0.41800000000E+01 0.  1.
        -11    1    4    4    0    0  0.19678431169E+01 -0.12696846695E+03  0.58688754135E+03  0.60046802596E+03  0.00000000000E+00 0.  1.
         11    1    4    4    0    0 -0.32216988370E+02 -0.12894080083E+02  0.73555444390E+02  0.81330160705E+02  0.00000000000E+00 0. -1.
</event>
<event>
 8    1  0.8619230E-006  0.1617872E+03  0.7561462E-02  0.1186694E+00
         -1   -1    0    0    0  501 -0.00000000000E+00  0.00000000000E+00  0.12060364496E+03  0.12060364496E+03  0.00000000000E+00 0.  1.
          1   -1    0    0  501    0  0.00000000000E+00 -0.00000000000E+00 -0.27229517213E+03  0.27229517213E+03  0.00000000000E+00 0. -1.
         23    2    1    2    0    0  0.31700656903E+01  0.13210694100E+03 -0.15966480386E+02  0.18265973040E+03  0.12508938979E+03 0.  0.
         23    2    1    2    0    0 -0.31700656903E+01 -0.13210694100E+03 -0.13572504678E+03  0.21023908669E+03  0.91196995969E+02 0.  0.
          5    1    3    3  502    0  0.14708237906E+02  0.15232170268E+03 -0.28771125446E+02  0.15576740169E+03  0.41800000000E+01 0.  1.
         -5    1    3    3    0  502 -0.11538172216E+02 -0.20214761689E+02  0.12804645060E+02  0.26892328708E+02  0.41800000000E+01 0.  1.
        -11    1    4    4    0    0  0.29624704451E+02 -0.79577813041E+02 -0.11882850368E+03  0.14604952834E+03  0.00000000000E+00 0. -1.
         11    1    4    4    0    0 -0.32794770141E+02 -0.52529127955E+02 -0.16896543100E+02  0.64189558349E+02  0.00000000000E+00 0.  1.
</event>
<event>
 6    1  0.8619230E-006  0.9717960E+02  0.7561462E-02  0.1286341E+00
          4   -1    0    0  501    0  0.00000000000E+00  0.00000000000E+00  0.19910497554E+02  0.19910497554E+02  0.00000000000E+00 0. -1.
         -4   -1    0    0    0  501 -0.00000000000E+00 -0.00000000000E+00 -0.10739442071E+04  0.10739442071E+04  0.00000000000E+00 0.  1.
          5    1    1    2  502    0 -0.39959955142E+02  0.56876561093E+02 -0.51029529292E+03  0.51502475629E+03  0.41800000000E+01 0. -1.
         -5    1    1    2    0  502  0.73592750966E+02 -0.32904789291E+02 -0.52361997753E+03  0.52980559776E+03  0.41800000000E+01 0.  1.
        -11    1    1    2    0    0 -0.10929913159E+02 -0.17074397007E+02 -0.13618783394E+02  0.24422720896E+02  0.00000000000E+00 0. -1.
         11    1    1    2    0    0 -0.22702882665E+02 -0.68973747950E+01 -0.64996557188E+01  0.24601629719E+02  0.00000000000E+00 0.  1.
</event>
<event>
 8    1  0.8619230E-006  0.1976094E+03  0.7561462E-02  0.1151772E+00
         -2   -1    0    0    0  501 -0.00000000000E+00  0.00000000000E+00  0.39273726898E+02  0.39273726898E+02  0.00000000000E+00 0.  1.
          2   -1    0    0  501    0  0.00000000000E+00 -0.00000000000E+00 -0.11123974199E+04  0.11123974199E+04  0.00000000000E+00 0. -1.
         23    2    1    2    0    0  0.17452831013E+03  0.36229623612E+02 -0.53564568205E+03  0.57821787400E+03  0.12508755515E+03 0.  0.
         23    2    1    2    0    0 -0.17452831013E+03 -0.36229623612E+02 -0.53747801099E+03  0.57345327283E+03  0.90516999282E+02 0.  0.
          5    1    3    3  502    0  0.10193609481E+03  0.81884912144E+02 -0.35103689376E+03  0.37462044717E+03  0.41800000000E+01 0.  1.
         -5    1    3    3    0  502  0.72592215319E+02 -0.45655288532E+02 -0.18460878829E+03  0.20359742683E+03  0.41800000000E+01 0.  1.
        -11    1    4    4    0    0 -0.11768455683E+03 -0.29305371784E+02 -0.22339205116E+03  0.25418982721E+03  0.00000000000E+00 0.  1.
         11    1    4    4    0    0 -0.56843753301E+02 -0.69242518280E+01 -0.31408595982E+03  0.31926344562E+03  0.00000000000E+00 0. -1.
</event>
<event>
 8    1  0.8619230E-006  0.1584817E+03  0.7561462E-02  0.1190422E+00
          1   -1    0    0  501    0  0.00000000000E+00  0.00000000000E+00  0.27804700998E+03  0.27804700998E+03  0.00000000000E+00 0. -1.
         -1   -1    0    0    0  501 -0.00000000000E+00 -0.00000000000E+00 -0.98273585184E+02  0.98273585184E+02  0.00000000000E+00 0.  1.
         23    2    1    2    0    0 -0.78712336266E+02  0.85954135215E+02  0.49377129304E+02  0.17795062981E+03  0.12507829752E+03 0.  0.
         23    2    1    2    0    0  0.78712336266E+02 -0.85954135215E+02  0.13039629550E+03  0.19836996536E+03  0.93614657164E+02 0.  0.
          5    1    3    3  502    0 -0.23941024943E+02 -0.32068676552E+02  0.56996694972E+01  0.40639036941E+02  0.41800000000E+01 0. -1.
         -5    1    3    3    0  502 -0.54771311322E+02  0.11802281177E+03  0.43677459807E+02  0.13731159287E+03  0.41800000000E+01 0. -1.
        -11    1    4    4    0    0 -0.17096851863E+02  0.10483900083E+01  0.30120987641E+02  0.34650762786E+02  0.00000000000E+00 0. -1.
         11    1    4    4    0    0  0.95809188128E+02 -0.87002525223E+02  0.10027530785E+03  0.16371920257E+03  0.00000000000E+00 0.  1.
</event>
<event>
 8    1  0.8619230E-006  0.1343071E+03  0.7561462E-02  0.1221201E+00
         -1   -1    0    0    0  501 -0.00000000000E+00  0.00000000000E+00  0.16036416120E+02  0.16036416120E+02  0.00000000000E+00 0.  1.
          1   -1    0    0  501    0  0.00000000000E+00 -0.00000000000E+00 -0.12859007081E+04  0.12859007081E+04  0.00000000000E+00 0. -1.
         23    2    1    2    0    0  0.52784000172E+02 -0.67729951458E+02 -0.84030545019E+03  0.85388872161E+03  0.12505679620E+03 0.  0.
         23    2    1    2    0    0 -0.52784000172E+02  0.67729951458E+02 -0.42955884177E+03  0.44804840259E+03  0.94090783407E+02 0.  0.
          5    1    3    3  502    0 -0.35919889734E+02 -0.16462112820E+02 -0.12214596695E+03  0.12844590021E+03  0.41800000000E+01 0. -1.
         -5    1    3    3    0  502  0.88703889906E+02 -0.51267838638E+02 -0.71815948324E+03  0.72544282141E+03  0.41800000000E+01 0. -1.
        -11    1    4    4    0    0 -0.57760973368E+02 -0.66666286979E+00 -0.22518004174E+03  0.23247112870E+03  0.00000000000E+00 0. -1.
         11    1    4    4    0    0  0.49769731961E+01  0.68396614328E+02 -0.20437880003E+03  0.21557727389E+03  0.00000000000E+00 0.  1.
</event>
<event>
 8    1  0.8619230E-006  0.8284553E+02  0.7561462E-02  0.1321165E+00
          1   -1    0    0  501    0  0.00000000000E+00  0.00000000000E+00  0.34945992972E+03  0.34945992972E+03  0.00000000000E+00 0. -1.
         -1   -1    0    0    0  501 -0.00000000000E+00 -0.00000000000E+00 -0.33328143424E+02  0.33328143424E+02  0.00000000000E+00 0.  1.
         23    2    1    2    0    0  0.63579802400E+01  0.18224367432E+01  0.18523275636E+03  0.22361255594E+03  0.12509059099E+03 0.  0.
         23    2    1    2    0    0 -0.63579802400E+01 -0.18224367432E+01  0.13089902993E+03  0.15917551721E+03  0.90324659156E+02 0.  0.
          5    1    3    3  502    0  0.63385190853E+02 -0.12945649169E+01  0.12663286732E+03  0.14167820511E+03  0.41800000000E+01 0. -1.
         -5    1    3    3    0  502 -0.57027210613E+02  0.31170016602E+01  0.58599889036E+02  0.81934350822E+02  0.41800000000E+01 0. -1.
        -11    1    4    4    0    0  0.39742421515E+01  0.20187757854E+02 -0.49544231757E+01  0.21163328586E+02  0.00000000000E+00 0.  1.
         11    1    4    4    0    0 -0.10332222391E+02 -0.22010194597E+02  0.13585345311E+03  0.13801218862E+03  0.00000000000E+00 0. -1.
</event>
<event>
 8    1  0.8619230E-006  0.6579803E+02  0.7561462E-02  0.1374995E+00
         -1   -1    0    0    0  501 -0.00000000000E+00  0.00000000000E+00  0.43499670726E+03  0.43499670726E+03  0.00000000000E+00 0.  1.
          1   -1    0    0  501    0  0.00000000000E+00 -0.00000000000E+00 -0.50369556689E+02  0.50369556689E+02  0.00000000000E+00 0. -1.
         23    2    1    2    0    0  0.10888460917E+01  0.57232555266E+02  0.34413035446E+03  0.37061013020E+03  0.12509762897E+03 0.  0.
         23    2    1    2    0    0 -0.10888460917E+01 -0.57232555266E+02  0.40496796107E+02  0.11475613375E+03  0.90841778770E+02 0.  0.
          5    1    3    3  502    0  0.68701138773E+01  0.43595485473E+02  0.24580030767E+02  0.50689398604E+02  0.41800000000E+01 0.  1.
         -5    1    3    3    0  502 -0.57812677856E+01  0.13637069792E+02  0.31955032369E+03  0.31992073159E+03  0.41800000000E+01 0.  1.
        -11    1    4    4    0    0 -0.12006498331E+02  0.15326117043E+01  0.52427267759E+02  0.53806350048E+02  0.00000000000E+00 0.  1.
         11    1    4    4    0    0  0.10917652239E+02 -0.58765166970E+02 -0.11930471652E+02  0.60949783701E+02  0.00000000000E+00 0. -1.
</event>
<event>
 8    1  0.8619230E-006  0.1165795E+03  0.7561462E-02  0.1248849E+00
          4   -1    0    0  501    0  0.00000000000E+00  0.00000000000E+00  0.54677341967E+02  0.54677341967E+02  0.00000000000E+00 0.  1.
         -4   -1    0    0    0  501 -0.00000000000E+00 -0.00000000000E+00 -0.37995610816E+03  0.37995610816E+03  0.00000000000E+00 0. -1.
         23    2    1    2    0    0  0.13708707990E+02  0.81467223860E+02 -0.24530246554E+03  0.28748215148E+03  0.12509136892E+03 0.  0.
         23    2    1    2    0    0 -0.13708707990E+02 -0.81467223860E+02 -0.79976300652E+02  0.14715129865E+03  0.91828420384E+02 0.  0.
          5    1    3    3  502    0 -0.51344170481E+01  0.88993040549E+02 -0.25067057784E+03  0.26608144336E+03  0.41800000000E+01 0. -1.
         -5    1    3    3    0  502  0.18843125038E+02 -0.75258166886E+01  0.53681123056E+01  0.21400708113E+02  0.41800000000E+01 0. -1.
        -11    1    4    4    0    0 -0.36271123661E+02  0.24037520793E+01 -0.18873506375E+02  0.40958291939E+02  0.00000000000E+00 0.  1.
         11    1    4    4    0    0  0.22562415671E+02 -0.83870975939E+02 -0.61102794277E+02  0.10619300671E+03  0.00000000000E+00 0. -1.
</event>
<event>
 7    1  0.8619230E-006  0.2661678E+03  0.7561462E-02  0.1103493E+00
          2   -1    0    0  501    0  0.00000000000E+00  0.00000000000E+00  0.10123677237E+04  0.10123677237E+04  0.00000000000E+00 0. -1.
         -2   -1    0    0    0  501 -0.00000000000E+00 -0.00000000000E+00 -0.78093346827E+02  0.78093346827E+02  0.00000000000E+00 0.  1.
         23    2    1    2    0    0 -0.38178586638E+02  0.48721858398E+02  0.32445789787E+03  0.34222667660E+03  0.89525117824E+02 0.  0.
          5    1    1    2  502    0  0.14045694419E+03 -0.20209159706E+03  0.39172620729E+03  0.46264031455E+03  0.41800000000E+01 0. -1.
         -5    1    1    2    0  502 -0.10227835755E+03  0.15336973866E+03  0.21809027173E+03  0.28559407939E+03  0.41800000000E+01 0.  1.
        -11    1    3    3    0    0 -0.28197247702E+02  0.71538622591E+02  0.28789913689E+03  0.29799122860E+03  0.00000000000E+00 0.  1.
         11    1    3    3    0    0 -0.99813389354E+01 -0.22816764193E+02  0.36558760981E+02  0.44235447999E+02  0.00000000000E+00 0. -1.
</event>
<event>
 8    1  0.8619230E-006  0.2002972E+03  0.7561462E-02  0.1149489E+00
          2   -1    0    0  501    0  0.00000000000E+00  0.00000000000E+00  0.16825583747E+03  0.16825583747E+03  0.00000000000E+00 0. -1.
         -2   -1    0    0    0  501 -0.00000000000E+00 -0.00000000000E+00 -0.32138985697E+03  0.32138985697E+03  0.00000000000E+00 0.  1.
         23    2    1    2    0    0  0.68236124643E+02  0.18059674969E+03 -0.15337038894E+03  0.27648103935E+03  0.12509170321E+03 0.  0.
         23    2    1    2    0    0 -0.68236124643E+02 -0.18059674969E+03  0.23636944986E+00  0.21316465509E+03  0.90375658260E+02 0.  0.
          5    1    3    3  502    0  0.35813302667E+02  0.64444145801E+02  0.87742868770E+01  0.74364649439E+02  0.41800000000E+01 0. -1.
         -5    1    3    3    0  502  0.32422821975E+02  0.11615260389E+03 -0.16214467582E+03  0.20211638991E+03  0.41800000000E+01 0. -1.
        -11    1    4    4    0    0 -0.64916450802E+02 -0.70116028153E+02  0.27285329875E+02  0.99372492245E+02  0.00000000000E+00 0. -1.
         11    1    4    4    0    0 -0.33196738409E+01 -0.11048072153E+03 -0.27048960426E+02  0.11379216285E+03  0.00000000000E+00 0.  1.
</event>
<event>
 8    1  0.8619230E-006  0.8846493E+02  0.7561462E-02  0.1306612E+00
          1   -1    0    0  501    0  0.00000000000E+00  0.00000000000E+00  0.30885298304E+02  0.30885298304E+02  0.00000000000E+00 0. -1.
         -1   -1    0    0    0  501 -0.00000000000E+00 -0.00000000000E+00 -0.39165742457E+03  0.39165742457E+03  0.00000000000E+00 0.  1.
         23    2    1    2    0    0  0.13658069382E+02  0.77203353591E+01 -0.23011992719E+03  0.26239154534E+03  0.12509194913E+03 0.  0.
         23    2    1    2    0    0 -0.13658069382E+02 -0.77203353591E+01 -0.13065219908E+03  0.16015117754E+03  0.91281192507E+02 0.  0.
          5    1    3    3  502    0  0.44480905100E+02  0.53201418827E+02 -0.10797950082E+03  0.12839776821E+03  0.41800000000E+01 0. -1.
         -5    1    3    3    0  502 -0.30822835717E+02 -0.45481083468E+02 -0.12214042637E+03  0.13399377713E+03  0.41800000000E+01 0. -1.
        -11    1    4    4    0    0 -0.67397392915E+01  0.21394814141E+02 -0.12817500462E+03  0.13012299554E+03  0.00000000000E+00 0.  1.
         11    1    4    4    0    0 -0.69183300907E+01 -0.29115149500E+02 -0.24771944518E+01  0.30028181996E+02  0.00000000000E+00 0. -1.
</event>
<event>
 8    1  0.8619230E-006  0.9921755E+02  0.7561462E-02  0.1281950E+00
         -2   -1    0    0    0  501 -0.00000000000E+00  0.00000000000E+00  0.34334562075E+02  0.34334562075E+02  0.00000000000E+00 0.  1.
          2   -1    0    0  501    0  0.00000000000E+00 -0.00000000000E+00 -0.40505789901E+03  0.40505789901E+03  0.00000000000E+00 0. -1.
         23    2    1    2    0    0  0.18075318853E+02  0.18848711558E+02 -0.13437085721E+03  0.18543552757E+03  0.12509522989E+03 0.  0.
         23    2    1    2    0    0 -0.18075318853E+02 -0.18848711558E+02 -0.23635247973E+03  0.25395693351E+03  0.89160744311E+02 0.  0.
          5    1    3    3  502    0 -0.25316479872E+02  0.49052154658E+02 -0.19117877806E+02  0.58566233288E+02  0.41800000000E+01 0. -1.
         -5    1    3    3    0  502  0.43391798725E+02 -0.30203443100E+02 -0.11525297940E+03  0.12686929428E+03  0.41800000000E+01 0. -1.
        -11    1    4    4    0    0  0.37787191827E+01 -0.51015420198E+02 -0.10229234321E+03  0.11437034273E+03  0.00000000000E+00 0.  1.
         11    1    4    4    0    0 -0.21854038035E+02  0.32166708639E+02 -0.13406013652E+03  0.13958659078E+03  0.00000000000E+00 0. -1.
</event>
<event>
 8    1  0.1695862E-005  0.1498015E+03  0.7561462E-02  0.1200717E+00
          2   -1    0    0  501    0  0.00000000000E+00  0.00000000000E+00  0.47241075152E+03  0.47241075152E+03  0.00000000000E+00 0. -1.
         -2   -1    0    0    0  501 -0.00000000000E+00 -0.00000000000E+00 -0.82444952978E+02  0.82444952978E+02  0.00000000000E+00 0.  1.
         23    2    1    2    0    0  0.12649698394E+03 -0.61116858095E+02  0.83953103621E+02  0.20599037807E+03  0.12508858845E+03 0.  0.
         23    2    1    2    0    0 -0.12649698394E+03  0.61116858095E+02  0.30601269492E+03  0.34886532643E+03  0.91249598598E+02 0.  0.
          5    1    3    3  502    0  0.29623838630E+02 -0.93137410013E+01 -0.32982399001E+02  0.45493171251E+02  0.41800000000E+01 0. -1.
         -5    1    3    3    0  502  0.96873145306E+02 -0.51803117093E+02  0.11693550262E+03  0.16049720682E+03  0.41800000000E+01 0. -1.
        -11    1    4    4    0    0 -0.54783996461E+02  0.66807116681E+02  0.10873452977E+03  0.13888007442E+03  0.00000000000E+00 0. -1.
         11    1    4    4    0    0 -0.71712987476E+02 -0.56902585865E+01  0.19727816515E+03  0.20998525200E+03  0.00000000000E+00 0.  1.
</event>
<event>
 8    1  0.8619230E-006  0.1130862E+03  0.7561462E-02  0.1254959E+00
          1   -1    0    0  501    0  0.00000000000E+00  0.00000000000E+00  0.29507872922E+03  0.29507872922E+03  0.00000000000E+00 0. -1.
         -1   -1    0    0    0  501 -0.00000000000E+00 -0.00000000000E+00 -0.79758775251E+02  0.79758775251E+02  0.00000000000E+00 0.  1.
         23    2    1    2    0    0  0.81666239645E+02 -0.11367519866E+02  0.30156524988E+02  0.15282395828E+03  0.12508857269E+03 0.  0.
         23    2    1    2    0    0 -0.81666239645E+02  0.11367519866E+02  0.18516342898E+03  0.22201354619E+03  0.90586555603E+02 0.  0.
          5    1    3    3  502    0  0.94170989143E+02  0.53034344250E+01  0.63143748214E+02  0.11358215948E+03  0.41800000000E+01 0.  1.
         -5    1    3    3    0  502 -0.12504749498E+02 -0.16670954291E+02 -0.32987223226E+02  0.39241798801E+02  0.41800000000E+01 0.  1.
        -11    1    4    4    0    0 -0.71048256121E+02 -0.22886115098E+02  0.73593873101E+02  0.10482216903E+03  0.00000000000E+00 0.  1.
         11    1    4    4    0    0 -0.10617983523E+02  0.34253634965E+02  0.11156955588E+03  0.11719137716E+03  0.00000000000E+00 0. -1.
</event>
<event>
 8    1  0.8619230E-006  0.1254828E+03  0.7561462E-02  0.1234317E+00
         -1   -1    0    0    0  501 -0.00000000000E+00  0.00000000000E+00  0.90516008289E+02  0.90516008289E+02  0.00000000000E+00 0.  1.
          1   -1    0    0  501    0  0.00000000000E+00 -0.00000000000E+00 -0.22453046561E+03  0.22453046561E+03  0.00000000000E+00 0. -1.
         23    2    1    2    0    0  0.56438075300E+02 -0.26305072296E+02  0.91634792407E+00  0.13974509863E+03  0.12510251686E+03 0.  0.
         23    2    1    2    0    0 -0.56438075300E+02  0.26305072296E+02 -0.13493080524E+03  0.17530137527E+03  0.92989444542E+02 0.  0.
          5    1    3    3  502    0  0.87525732282E+02  0.13525549672E+02 -0.43722701559E+01  0.88770960633E+02  0.41800000000E+01 0. -1.
         -5    1    3    3    0  502 -0.31087656982E+02 -0.39830621968E+02  0.52886180800E+01  0.50974137994E+02  0.41800000000E+01 0. -1.
        -11    1    4    4    0    0  0.10235271512E+02  0.41898636494E+02 -0.45895309652E+02  0.62981235070E+02  0.00000000000E+00 0.  1.
         11    1    4    4    0    0 -0.66673346812E+02 -0.15593564198E+02 -0.89035495591E+02  0.11232014020E+03  0.00000000000E+00 0. -1.
</event>
<event>
 8    1  0.8619230E-006  0.1049020E+03  0.7561462E-02  0.1270313E+00
          1   -1    0    0  501    0  0.00000000000E+00  0.00000000000E+00  0.57959148281E+03  0.57959148281E+03  0.00000000000E+00 0. -1.
         -1   -1    0    0    0  501 -0.00000000000E+00 -0.00000000000E+00 -0.23630573951E+02  0.23630573951E+02  0.00000000000E+00 0.  1.
         23    2    1    2    0    0 -0.29109315310E+02  0.23698211284E+02  0.25419298167E+03  0.28577976737E+03  0.12508815312E+03 0.  0.
         23    2    1    2    0    0  0.29109315310E+02 -0.23698211284E+02  0.30176792719E+03  0.31744228939E+03  0.91086594845E+02 0.  0.
          5    1    3    3  502    0 -0.73759979247E+02  0.29743611180E+02  0.19940257948E+03  0.21471860201E+03  0.41800000000E+01 0. -1.
         -5    1    3    3    0  502  0.44650663938E+02 -0.60453998966E+01  0.54790402187E+02  0.71061165357E+02  0.41800000000E+01 0. -1.
        -11    1    4    4    0    0  0.35471027499E+02  0.20021327948E+02  0.22676919468E+03  0.23039816627E+03  0.00000000000E+00 0. -1.
         11    1    4    4    0    0 -0.63617121897E+01 -0.43719539231E+02  0.74998732506E+02  0.87044123122E+02  0.00000000000E+00 0.  1.
</event>
<event>
 8    1  0.8619230E-006  0.8725309E+02  0.7561462E-02  0.1309643E+00
         -1   -1    0    0    0  501 -0.00000000000E+00  0.00000000000E+00  0.24457758318E+02  0.24457758318E+02  0.00000000000E+00 0.  1.
          1   -1    0    0  501    0  0.00000000000E+00 -0.00000000000E+00 -0.58231670319E+03  0.58231670319E+03  0.00000000000E+00 0. -1.
         23    2    1    2    0    0 -0.31296271418E+02 -0.14300065952E+02 -0.21732562823E+03  0.25310588243E+03  0.12509280773E+03 0.  0.
         23    2    1    2    0    0  0.31296271418E+02  0.14300065952E+02 -0.34053331664E+03  0.35366857908E+03  0.89076234714E+02 0.  0.
          5    1    3    3  502    0 -0.43123109992E+02  0.16041829403E+02 -0.21531073523E+03  0.22021155286E+03  0.41800000000E+01 0. -1.
         -5    1    3    3    0  502  0.11826838574E+02 -0.30341895354E+02 -0.20148929970E+01  0.32894329574E+02  0.41800000000E+01 0. -1.
        -11    1    4    4    0    0  0.17859148707E+02 -0.37726489543E+02 -0.14556783311E+03  0.15143391708E+03  0.00000000000E+00 0. -1.
         11    1    4    4    0    0  0.13437122711E+02  0.52026555495E+02 -0.19496548353E+03  0.20223466199E+03  0.00000000000E+00 0.  1.
</event>
<event>
 8    1  0.8619230E-006  0.6314664E+02  0.7561462E-02  0.1385082E+00
         -1   -1    0    0    0  501 -0.00000000000E+00  0.00000000000E+00  0.12017713736E+03  0.12017713736E+03  0.00000000000E+00 0.  1.
          1   -1    0    0  501    0  0.00000000000E+00 -0.00000000000E+00 -0.11612359331E+03  0.11612359331E+03  0.00000000000E+00 0. -1.
         23    2    1    2    0    0 -0.22899380758E+02 -0.16000765379E+02  0.41788949541E+02  0.13481139960E+03  0.12508953204E+03 0.  0.
         23    2    1    2    0    0  0.22899380758E+02  0.16000765379E+02 -0.37735405497E+02  0.10148933107E+03  0.89976204421E+02 0.  0.
          5    1    3    3  502    0  0.17991328944E+02 -0.35862810664E+02 -0.29627555876E+02  0.50050909813E+02  0.41800000000E+01 0.  1.
         -5    1    3    3    0  502 -0.40890709702E+02  0.19862045285E+02  0.71416505417E+02  0.84760489786E+02  0.41800000000E+01 0.  1.
        -11    1    4    4    0    0  0.41373039155E+01  0.20578175501E+02  0.26848584972E+02  0.34079687581E+02  0.00000000000E+00 0.  1.
         11    1    4    4    0    0  0.18762076843E+02 -0.45774101214E+01 -0.64583990470E+02  0.67409643493E+02  0.00000000000E+00 0. -1.
</event>
<event>
 8    1  0.8619230E-006  0.1259267E+03  0.7561462E-02  0.1233628E+00
         -3   -1    0    0    0  501 -0.00000000000E+00  0.00000000000E+00  0.44842376598E+03  0.44842376598E+03  0.00000000000E+00 0.  1.
          3   -1    0    0  501    0  0.00000000000E+00 -0.00000000000E+00 -0.50099618146E+02  0.50099618146E+02  0.00000000000E+00 0. -1.
         23    2    1    2    0    0  0.45138553445E+02  0.92601007517E+02  0.21310141466E+03  0.26776106797E+03  0.12518522672E+03 0.  0.
         23    2    1    2    0    0 -0.45138553445E+02 -0.92601007517E+02  0.18522273317E+03  0.23076231615E+03  0.91276229507E+02 0.  0.
          5    1    3    3  502    0  0.51918755209E+02  0.99901983959E+02  0.90034742713E+02  0.14422097918E+03  0.41800000000E+01 0.  1.
         -5    1    3    3    0  502 -0.67802017645E+01 -0.73009764417E+01  0.12306667195E+03  0.12354008879E+03  0.41800000000E+01 0.  1.
        -11    1    4    4    0    0 -0.45948009679E+02 -0.11615239317E+02  0.11185857737E+03  0.12148446283E+03  0.00000000000E+00 0.  1.
         11    1    4    4    0    0  0.80945623372E+00 -0.80985768200E+02  0.73364155793E+02  0.10927785332E+03  0.00000000000E+00 0. -1.
</event>
<event>
 8    1  0.8619230E-006  0.9567063E+02  0.7561462E-02  0.1289673E+00
         -2   -1    0    0    0  501 -0.00000000000E+00  0.00000000000E+00  0.20718905673E+03  0.20718905673E+03  0.00000000000E+00 0.  1.
          2   -1    0    0  501    0  0.00000000000E+00 -0.00000000000E+00 -0.68716306057E+02  0.68716306057E+02  0.00000000000E+00 0. -1.
         23    2    1    2    0    0 -0.17427946943E+02  0.18998292806E+02  0.12684846652E+03  0.18000538761E+03  0.12508692036E+03 0.  0.
         23    2    1    2    0    0  0.17427946943E+02 -0.18998292806E+02  0.11624284145E+02  0.95899975171E+02  0.91635215893E+02 0.  0.
          5    1    3    3  502    0 -0.66192675351E+02  0.14738729161E+02  0.36407723113E+02  0.77082391697E+02  0.41800000000E+01 0.  1.
         -5    1    3    3    0  502  0.48764728409E+02  0.42595636455E+01  0.90440743411E+02  0.10292299591E+03  0.41800000000E+01 0.  1.
        -11    1    4    4    0    0 -0.27074438808E+02 -0.10034301028E+02  0.34563503139E+02  0.45037186670E+02  0.00000000000E+00 0.  1.
         11    1    4    4    0    0  0.44502385750E+02 -0.89639917780E+01 -0.22939218994E+02  0.50862788501E+02  0.00000000000E+00 0. -1.
</event>
<event>
 8    1  0.8619230E-006  0.1382284E+03  0.7561462E-02  0.1215733E+00
         -1   -1    0    0    0  501 -0.00000000000E+00  0.00000000000E+00  0.10204320025E+04  0.10204320025E+04  0.00000000000E+00 0.  1.
          1   -1    0    0  501    0  0.00000000000E+00 -0.00000000000E+00 -0.37336537553E+02  0.37336537553E+02  0.00000000000E+00 0. -1.
         23    2    1    2    0    0 -0.10167195686E+03  0.89119922882E+02  0.75378247922E+03  0.77596025460E+03  0.12508694289E+03 0.  0.
         23    2    1    2    0    0  0.10167195686E+03 -0.89119922882E+02  0.22931298569E+03  0.28180828541E+03  0.92476574616E+02 0.  0.
          5    1    3    3  502    0 -0.30633202039E+02  0.52052200126E+02  0.97334481135E+02  0.11462677795E+03  0.41800000000E+01 0. -1.
         -5    1    3    3    0  502 -0.71038754825E+02  0.37067722756E+02  0.65644799808E+03  0.66133347665E+03  0.41800000000E+01 0. -1.
        -11    1    4    4    0    0  0.62183772718E+02 -0.47041981480E+02  0.20474747667E+03  0.21909198711E+03  0.00000000000E+00 0.  1.
         11    1    4    4    0    0  0.39488184145E+02 -0.42077941402E+02  0.24565509021E+02  0.62716298305E+02  0.00000000000E+00 0. -1.
</event>
<event>
 8    1  0.8619230E-006  0.1699945E+03  0.7561462E-02  0.1177854E+00
          1   -1    0    0  501    0  0.00000000000E+00  0.00000000000E+00  0.89430326997E+02  0.89430326997E+02  0.00000000000E+00 0. -1.
         -1   -1    0    0    0  501 -0.00000000000E+00 -0.00000000000E+00 -0.42720213220E+03  0.42720213220E+03  0.00000000000E+00 0.  1.
         23    2    1    2    0    0  0.11754294308E+03 -0.91666847519E+02 -0.26121323106E+03  0.32572852697E+03  0.12509023462E+03 0.  0.
         23    2    1    2    0    0 -0.11754294308E+03  0.91666847519E+02 -0.76558574141E+02  0.19090393223E+03  0.91454587980E+02 0.  0.
          5    1    3    3  502    0  0.46026320943E+02 -0.87592592114E+02 -0.69397860872E+02  0.12093146781E+03  0.41800000000E+01 0. -1.
         -5    1    3    3    0  502  0.71516622141E+02 -0.40742554055E+01 -0.19181537019E+03  0.20479705916E+03  0.41800000000E+01 0. -1.
        -11    1    4    4    0    0 -0.76957481999E+02  0.94843749806E+01 -0.11232875603E+02  0.78349121875E+02  0.00000000000E+00 0. -1.
         11    1    4    4    0    0 -0.40585461086E+02  0.82182472538E+02 -0.65325698537E+02  0.11255481035E+03  0.00000000000E+00 0.  1.
</event>
<event>
 8    1  0.8619230E-006  0.9726023E+02  0.7561462E-02  0.1286165E+00
          1   -1    0    0  501    0  0.00000000000E+00  0.00000000000E+00  0.23023143371E+02  0.23023143371E+02  0.00000000000E+00 0. -1.
         -1   -1    0    0    0  501 -0.00000000000E+00 -0.00000000000E+00 -0.54851979475E+03  0.54851979475E+03  0.00000000000E+00 0.  1.
         23    2    1    2    0    0  0.35897169258E+01  0.14218234148E+02 -0.38617048840E+03  0.40619203331E+03  0.12509707256E+03 0.  0.
         23    2    1    2    0    0 -0.35897169258E+01 -0.14218234148E+02 -0.13932616298E+03  0.16535090481E+03  0.87829936706E+02 0.  0.
          5    1    3    3  502    0  0.12972662526E+02 -0.45778180504E+02 -0.27798227560E+03  0.28205593369E+03  0.41800000000E+01 0. -1.
         -5    1    3    3    0  502 -0.93829456003E+01  0.59996414652E+02 -0.10818821281E+03  0.12413609962E+03  0.41800000000E+01 0. -1.
        -11    1    4    4    0    0  0.33770677544E+02 -0.30150307894E+02 -0.51381149860E+02  0.68480086805E+02  0.00000000000E+00 0.  1.
         11    1    4    4    0    0 -0.37360394470E+02  0.15932073746E+02 -0.87945013121E+02  0.96870818009E+02  0.00000000000E+00 0. -1.
</event>
<event>
 8    1  0.8619230E-006  0.9558958E+02  0.7561462E-02  0.1289854E+00
         -1   -1    0    0    0  501 -0.00000000000E+00  0.00000000000E+00  0.15861257764E+03  0.15861257764E+03  0.00000000000E+00 0.  1.
          1   -1    0    0  501    0  0.00000000000E+00 -0.00000000000E+00 -0.10087863627E+03  0.10087863627E+03  0.00000000000E+00 0. -1.
         23    2    1    2    0    0 -0.44213141027E+02 -0.40586157605E+02  0.60542240952E+02  0.15137802212E+03  0.12509158490E+03 0.  0.
         23    2    1    2    0    0  0.44213141027E+02  0.40586157605E+02 -0.28082995837E+01  0.10811319179E+03  0.89880685709E+02 0.  0.
          5    1    3    3  502    0  0.24334097522E+02 -0.13112636792E+02 -0.25551612146E+02  0.37874091793E+02  0.41800000000E+01 0.  1.
         -5    1    3    3    0  502 -0.68547238549E+02 -0.27473520812E+02  0.86093853098E+02  0.11350393033E+03  0.41800000000E+01 0.  1.
        -11    1    4    4    0    0 -0.17538537665E+02  0.63733541684E+01 -0.27577817786E+02  0.33297987637E+02  0.00000000000E+00 0. -1.
         11    1    4    4    0    0  0.61751678692E+02  0.34212803436E+02  0.24769518203E+02  0.74815204152E+02  0.00000000000E+00 0.  1.
</event>
<event>
 8    1  0.8619230E-006  0.1281501E+03  0.7561462E-02  0.1230227E+00
         -2   -1    0    0    0  501 -0.00000000000E+00  0.00000000000E+00  0.21423529850E+02  0.21423529850E+02  0.00000000000E+00 0. -1.
          2   -1    0    0  501    0  0.00000000000E+00 -0.00000000000E+00 -0.89769405623E+03  0.89769405623E+03  0.00000000000E+00 0.  1.
         23    2    1    2    0    0 -0.76055433954E+02  0.65183162291E+02 -0.56800558206E+03  0.59017791509E+03  0.12508539692E+03 0.  0.
         23    2    1    2    0    0  0.76055433954E+02 -0.65183162291E+02 -0.30826494432E+03  0.32893967099E+03  0.56042462282E+02 0.  0.
          5    1    3    3  502    0 -0.34532113207E+02 -0.30611585917E+02 -0.94099989301E+02  0.10488954391E+03  0.41800000000E+01 0.  1.
         -5    1    3    3    0  502 -0.41523320747E+02  0.95794748208E+02 -0.47390559276E+03  0.48528837118E+03  0.41800000000E+01 0.  1.
        -11    1    4    4    0    0  0.14205171105E+02 -0.32611884286E+02 -0.49869047946E+02  0.61255561591E+02  0.00000000000E+00 0. -1.
         11    1    4    4    0    0  0.61850262848E+02 -0.32571278005E+02 -0.25839589637E+03  0.26768410940E+03  0.00000000000E+00 0.  1.
</event>
<event>
 6    1  0.8619230E-006  0.1279740E+03  0.7561462E-02  0.1230493E+00
         -2   -1    0    0    0  501 -0.00000000000E+00  0.00000000000E+00  0.60191500929E+02  0.60191500929E+02  0.00000000000E+00 0.  1.
          2   -1    0    0  501    0  0.00000000000E+00 -0.00000000000E+00 -0.53061787954E+03  0.53061787954E+03  0.00000000000E+00 0. -1.
          5    1    1    2  502    0  0.10117497813E+03 -0.53558015407E+02 -0.17113443948E+03  0.20593519852E+03  0.41800000000E+01 0. -1.
         -5    1    1    2    0  502 -0.26332495987E+02  0.58668555032E+02  0.10826739386E+02  0.65345928567E+02  0.41800000000E+01 0.  1.
        -11    1    1    2    0    0 -0.39216685708E+02 -0.11257266540E+02 -0.16801404700E+03  0.17289706324E+03  0.00000000000E+00 0. -1.
         11    1    1    2    0    0 -0.35625796434E+02  0.61467269147E+01 -0.14210463151E+03  0.14663119014E+03  0.00000000000E+00 0.  1.
</event>
<event>
 8    1  0.8619230E-006  0.8173771E+02  0.7561462E-02  0.1324191E+00
          4   -1    0    0  501    0  0.00000000000E+00  0.00000000000E+00  0.19731427611E+03  0.19731427611E+03  0.00000000000E+00 0. -1.
         -4   -1    0    0    0  501 -0.00000000000E+00 -0.00000000000E+00 -0.70655658336E+02  0.70655658336E+02  0.00000000000E+00 0.  1.
         23    2    1    2    0    0 -0.38390970092E+01 -0.34336550727E+02  0.48044864524E+02  0.13838233889E+03  0.12509046858E+03 0.  0.
         23    2    1    2    0    0  0.38390970092E+01  0.34336550727E+02  0.78613753246E+02  0.12958759555E+03  0.97051972362E+02 0.  0.
          5    1    3    3  502    0  0.27326314868E+02 -0.10439708001E+02  0.81456547054E+02  0.86650772907E+02  0.41800000000E+01 0. -1.
         -5    1    3    3    0  502 -0.31165411878E+02 -0.23896842726E+02 -0.33411682530E+02  0.51731565985E+02  0.41800000000E+01 0. -1.
        -11    1    4    4    0    0  0.45336372429E+02  0.10359297563E+02  0.12913579265E+02  0.48264502903E+02  0.00000000000E+00 0.  1.
         11    1    4    4    0    0 -0.41497275420E+02  0.23977253164E+02  0.65700173981E+02  0.81323092647E+02  0.00000000000E+00 0. -1.
</event>
<event>
 8    1  0.8619230E-006  0.1226474E+03  0.7561462E-02  0.1238792E+00
         -2   -1    0    0    0  501 -0.00000000000E+00  0.00000000000E+00  0.17282584263E+03  0.17282584263E+03  0.00000000000E+00 0.  1.
          2   -1    0    0  501    0  0.00000000000E+00 -0.00000000000E+00 -0.32954054629E+03  0.32954054629E+03  0.00000000000E+00 0. -1.
         23    2    1    2    0    0 -0.57823756169E+02 -0.73976157422E+02  0.11967704904E+03  0.19694113907E+03  0.12508859880E+03 0.  0.
         23    2    1    2    0    0  0.57823756169E+02  0.73976157422E+02 -0.27639175269E+03  0.30542524984E+03  0.89867255652E+02 0.  0.
          5    1    3    3  502    0  0.16593584534E+02  0.16206942425E+02 -0.69165627343E+01  0.24562639730E+02  0.41800000000E+01 0. -1.
         -5    1    3    3    0  502 -0.74417340703E+02 -0.90183099847E+02  0.12659361177E+03  0.17237849934E+03  0.41800000000E+01 0. -1.
        -11    1    4    4    0    0  0.34991259001E+02  0.93956204503E+01 -0.22944727391E+02  0.42885037078E+02  0.00000000000E+00 0.  1.
         11    1    4    4    0    0  0.22832497168E+02  0.64580536972E+02 -0.25344702530E+03  0.26254021276E+03  0.00000000000E+00 0. -1.
</event>
<event>
 8    1  0.8619230E-006  0.1694275E+03  0.7561462E-02  0.1178446E+00
          2   -1    0    0  501    0  0.00000000000E+00  0.00000000000E+00  0.94516063159E+03  0.94516063159E+03  0.00000000000E+00 0. -1.
         -2   -1    0    0    0  501 -0.00000000000E+00 -0.00000000000E+00 -0.39196805364E+02  0.39196805364E+02  0.00000000000E+00 0.  1.
         23    2    1    2    0    0  0.83904326538E+02  0.13233956915E+03  0.41531903606E+03  0.46122485633E+03  0.12523884704E+03 0.  0.
         23    2    1    2    0    0 -0.83904326538E+02 -0.13233956915E+03  0.49064479017E+03  0.52313258063E+03  0.91551565895E+02 0.  0.
          5    1    3    3  502    0  0.68277818397E+02  0.11417681695E+03  0.41612151302E+03  0.43688990834E+03  0.41800000000E+01 0. -1.
         -5    1    3    3    0  502  0.15626508142E+02  0.18162752203E+02 -0.80247696074E+00  0.24334947987E+02  0.41800000000E+01 0. -1.
        -11    1    4    4    0    0 -0.97849391558E+02 -0.77427442762E+02  0.34296549450E+03  0.36495868635E+03  0.00000000000E+00 0. -1.
         11    1    4    4    0    0  0.13945065019E+02 -0.54912126388E+02  0.14767929567E+03  0.15817389428E+03  0.00000000000E+00 0.  1.
</event>
<event>
 8    1  0.8619230E-006  0.1248824E+03  0.7561462E-02  0.1235253E+00
          2   -1    0    0  501    0  0.00000000000E+00  0.00000000000E+00  0.20240554377E+03  0.20240554377E+03  0.00000000000E+00 0. -1.
         -2   -1    0    0    0  501 -0.00000000000E+00 -0.00000000000E+00 -0.82541384568E+02  0.82541384568E+02  0.00000000000E+00 0.  1.
         23    2    1    2    0    0  0.62035780282E+02 -0.16499671460E+02  0.37213808701E+02  0.14540281257E+03  0.12504572424E+03 0.  0.
         23    2    1    2    0    0 -0.62035780282E+02  0.16499671460E+02  0.82650350497E+02  0.13954411577E+03  0.92308193648E+02 0.  0.
          5    1    3    3  502    0 -0.18671818997E+02  0.38366823213E+02  0.10736058675E+02  0.44197118729E+02  0.41800000000E+01 0.  1.
         -5    1    3    3    0  502  0.80707599278E+02 -0.54866494672E+02  0.26477750027E+02  0.10120569384E+03  0.41800000000E+01 0.  1.
        -11    1    4    4    0    0 -0.57042060712E+01 -0.33444078603E+02  0.11135606209E+02  0.35707787472E+02  0.00000000000E+00 0. -1.
         11    1    4    4    0    0 -0.56331574210E+02  0.49943750062E+02  0.71514744289E+02  0.10383632830E+03  0.00000000000E+00 0.  1.
</event>
<event>
 8    1  0.8619230E-006  0.2127555E+03  0.7561462E-02  0.1139402E+00
         -1   -1    0    0    0  501 -0.00000000000E+00  0.00000000000E+00  0.14332134678E+03  0.14332134678E+03  0.00000000000E+00 0.  1.
          1   -1    0    0  501    0  0.00000000000E+00 -0.00000000000E+00 -0.35269088565E+03  0.35269088565E+03  0.00000000000E+00 0. -1.
         23    2    1    2    0    0 -0.12811777780E+03 -0.14775723077E+03 -0.91940136473E+02  0.24969539706E+03  0.12509371841E+03 0.  0.
         23    2    1    2    0    0  0.12811777780E+03  0.14775723077E+03 -0.11742940239E+03  0.24631683537E+03  0.92929837014E+02 0.  0.
          5    1    3    3  502    0 -0.11436875486E+03 -0.69346578393E+02 -0.10346532898E+03  0.16914995336E+03  0.41800000000E+01 0.  1.
         -5    1    3    3    0  502 -0.13749022941E+02 -0.78410652380E+02  0.11525192505E+02  0.80545443700E+02  0.41800000000E+01 0.  1.
        -11    1    4    4    0    0  0.27901392676E+02  0.94412783844E+02 -0.29672019695E+02  0.10282358785E+03  0.00000000000E+00 0.  1.
         11    1    4    4    0    0  0.10021638512E+03  0.53344446929E+02 -0.87757382696E+02  0.14349324752E+03  0.00000000000E+00 0. -1.
</event>
<event>
 8    1  0.8619230E-006  0.1089795E+03  0.7561462E-02  0.1262471E+00
          2   -1    0    0  501    0  0.00000000000E+00  0.00000000000E+00  0.97625373011E+03  0.97625373011E+03  0.00000000000E+00 0. -1.
         -2   -1    0    0    0  501 -0.00000000000E+00 -0.00000000000E+00 -0.14809255897E+02  0.14809255897E+02  0.00000000000E+00 0.  1.
         23    2    1    2    0    0 -0.37431008945E+02  0.34827976080E+02  0.50728644175E+03  0.52497374448E+03  0.12507529754E+03 0.  0.
         23    2    1    2    0    0  0.37431008945E+02 -0.34827976080E+02  0.45415803246E+03  0.46608924153E+03  0.91463622683E+02 0.  0.
          5    1    3    3  502    0 -0.67753412971E+02 -0.18649705668E+01  0.42008565643E+03  0.42553899260E+03  0.41800000000E+01 0.  1.
         -5    1    3    3    0  502  0.30322404026E+02  0.36692946647E+02  0.87200785319E+02  0.99434751872E+02  0.41800000000E+01 0.  1.
        -11    1    4    4    0    0 -0.65294070257E+00 -0.57791924602E+02  0.20490417419E+03  0.21289916271E+03  0.00000000000E+00 0.  1.
         11    1    4    4    0    0  0.38083949647E+02  0.22963948522E+02  0.24925385827E+03  0.25319007882E+03  0.00000000000E+00 0. -1.
</event>
<event>
 8    1  0.8619230E-006  0.1853125E+03  0.7561462E-02  0.1162758E+00
          2   -1    0    0  501    0  0.00000000000E+00  0.00000000000E+00  0.17663511468E+03  0.17663511468E+03  0.00000000000E+00 0. -1.
         -2   -1    0    0    0  501 -0.00000000000E+00 -0.00000000000E+00 -0.23176242590E+03  0.23176242590E+03  0.00000000000E+00 0.  1.
         23    2    1    2    0    0  0.17239745828E+01  0.15309414112E+03 -0.10747864027E+03  0.22503432938E+03  0.12509197876E+03 0.  0.
         23    2    1    2    0    0 -0.17239745828E+01 -0.15309414112E+03  0.52351329055E+02  0.18336321120E+03  0.86259013654E+02 0.  0.
          5    1    3    3  502    0  0.61364192129E+02  0.58215543564E+02 -0.56788555776E+02  0.10196580827E+03  0.41800000000E+01 0.  1.
         -5    1    3    3    0  502 -0.59640217546E+02  0.94878597553E+02 -0.50690084496E+02  0.12306852111E+03  0.41800000000E+01 0.  1.
        -11    1    4    4    0    0  0.17681340162E+02 -0.15336935066E+03  0.54755344981E+02  0.16380761678E+03  0.00000000000E+00 0. -1.
         11    1    4    4    0    0 -0.19405314744E+02  0.27520954384E+00 -0.24040159256E+01  0.19555594422E+02  0.00000000000E+00 0.  1.
</event>
<event>
 8    1  0.8619230E-006  0.1016854E+03  0.7561462E-02  0.1276791E+00
          1   -1    0    0  501    0  0.00000000000E+00  0.00000000000E+00  0.78174911008E+02  0.78174911008E+02  0.00000000000E+00 0. -1.
         -1   -1    0    0    0  501 -0.00000000000E+00 -0.00000000000E+00 -0.21033488508E+03  0.21033488508E+03  0.00000000000E+00 0.  1.
         23    2    1    2    0    0  0.97624947566E+01 -0.28539093921E+01 -0.15223530933E+03  0.19729880180E+03  0.12509107356E+03 0.  0.
         23    2    1    2    0    0 -0.97624947566E+01  0.28539093921E+01  0.20075335255E+02  0.91210994285E+02  0.88391036255E+02 0.  0.
          5    1    3    3  502    0 -0.47017076195E+02 -0.26225534558E+02 -0.11035202073E+03  0.12285530105E+03  0.41800000000E+01 0. -1.
         -5    1    3    3    0  502  0.56779570952E+02  0.23371625166E+02 -0.41883288591E+02  0.74443500748E+02  0.41800000000E+01 0. -1.
        -11    1    4    4    0    0  0.35686921262E+02  0.17937682516E+02  0.18864219572E+01  0.39985939917E+02  0.00000000000E+00 0.  1.
         11    1    4    4    0    0 -0.45449416019E+02 -0.15083773124E+02  0.18188913298E+02  0.51225054369E+02  0.00000000000E+00 0. -1.
</event>
<event>
 8    1  0.8619230E-006  0.8357584E+02  0.7561462E-02  0.1319199E+00
          2   -1    0    0  501    0  0.00000000000E+00  0.00000000000E+00  0.98491935767E+02  0.98491935767E+02  0.00000000000E+00 0. -1.
         -2   -1    0    0    0  501 -0.00000000000E+00 -0.00000000000E+00 -0.17723216238E+03  0.17723216238E+03  0.00000000000E+00 0.  1.
         23    2    1    2    0    0  0.61843054901E+01  0.74835308920E+02 -0.62091551412E+02  0.15857139922E+03  0.12510379210E+03 0.  0.
         23    2    1    2    0    0 -0.61843054901E+01 -0.74835308920E+02 -0.16648675200E+02  0.11715269893E+03  0.88368588227E+02 0.  0.
          5    1    3    3  502    0  0.24413709453E+02  0.37256818409E+02 -0.95148672452E+02  0.10514200871E+03  0.41800000000E+01 0. -1.
         -5    1    3    3    0  502 -0.18229403963E+02  0.37578490511E+02  0.33057121039E+02  0.53429390501E+02  0.41800000000E+01 0. -1.
        -11    1    4    4    0    0 -0.15470435432E+02 -0.22629673323E+02  0.34102588516E+02  0.43754120156E+02  0.00000000000E+00 0. -1.
         11    1    4    4    0    0  0.92861299422E+01 -0.52205635596E+02 -0.50751263715E+02  0.73398578774E+02  0.00000000000E+00 0.  1.
</event>
<event>
 8    1  0.8619230E-006  0.9518315E+02  0.7561462E-02  0.1290764E+00
          2   -1    0    0  501    0  0.00000000000E+00  0.00000000000E+00  0.32214717620E+03  0.32214717620E+03  0.00000000000E+00 0. -1.
         -2   -1    0    0    0  501 -0.00000000000E+00 -0.00000000000E+00 -0.39130320075E+02  0.39130320075E+02  0.00000000000E+00 0.  1.
         23    2    1    2    0    0  0.11102193665E+02  0.18947056075E+02  0.12462096252E+03  0.17793306561E+03  0.12509013511E+03 0.  0.
         23    2    1    2    0    0 -0.11102193665E+02 -0.18947056075E+02  0.15839589360E+03  0.18334443066E+03  0.89686517974E+02 0.  0.
          5    1    3    3  502    0 -0.51183031616E+02  0.18916772505E+02  0.93117853778E+02  0.10800904638E+03  0.41800000000E+01 0.  1.
         -5    1    3    3    0  502  0.62285225281E+02  0.30283570509E-01  0.31503108745E+02  0.69924019236E+02  0.41800000000E+01 0.  1.
        -11    1    4    4    0    0 -0.40567194955E+02 -0.15976475486E+02  0.33494531032E+02  0.54980257225E+02  0.00000000000E+00 0.  1.
         11    1    4    4    0    0  0.29465001290E+02 -0.29705805897E+01  0.12490136257E+03  0.12836417344E+03  0.00000000000E+00 0. -1.
</event>
<event>
 8    1  0.8619230E-006  0.1077645E+03  0.7561462E-02  0.1264767E+00
         -1   -1    0    0    0  501 -0.00000000000E+00  0.00000000000E+00  0.14226429996E+03  0.14226429996E+03  0.00000000000E+00 0.  1.
          1   -1    0    0  501    0  0.00000000000E+00 -0.00000000000E+00 -0.22447074229E+03  0.22447074229E+03  0.00000000000E+00 0. -1.
         23    2    1    2    0    0  0.54297053695E+02 -0.56652099227E+02  0.85074707043E+02  0.16040490545E+03  0.11106033282E+03 0.  0.
         23    2    1    2    0    0 -0.54297053695E+02  0.56652099227E+02 -0.16728114938E+03  0.20633013680E+03  0.91823265172E+02 0.  0.
          5    1    3    3  502    0  0.61642295042E+02 -0.32165412766E+02 -0.18729888997E+01  0.69680462138E+02  0.41800000000E+01 0. -1.
         -5    1    3    3    0  502 -0.73452413467E+01 -0.24486686460E+02  0.86947695943E+02  0.90724443310E+02  0.41800000000E+01 0.  1.
        -11    1    4    4    0    0 -0.34499873908E+02  0.81322557179E+02 -0.11207325312E+03  0.14270253562E+03  0.00000000000E+00 0. -1.
         11    1    4    4    0    0 -0.19797179787E+02 -0.24670457952E+02 -0.55207896259E+02  0.63627601184E+02  0.00000000000E+00 0.  1.
</event>
<event>
 8    1  0.8619230E-006  0.1016357E+03  0.7561462E-02  0.1276893E+00
          2   -1    0    0  501    0  0.00000000000E+00  0.00000000000E+00  0.34747496885E+03  0.34747496885E+03  0.00000000000E+00 0. -1.
         -2   -1    0    0    0  501 -0.00000000000E+00 -0.00000000000E+00 -0.38503559319E+02  0.38503559319E+02  0.00000000000E+00 0.  1.
         23    2    1    2    0    0 -0.17382841530E+02 -0.31829676122E+02  0.14855905585E+03  0.19756983343E+03  0.12509498209E+03 0.  0.
         23    2    1    2    0    0  0.17382841530E+02  0.31829676122E+02  0.16041235369E+03  0.18840869475E+03  0.91926174610E+02 0.  0.
          5    1    3    3  502    0  0.30795871269E+02  0.18258810774E+02  0.29430609904E+01  0.36164953561E+02  0.41800000000E+01 0.  1.
         -5    1    3    3    0  502 -0.48178712799E+02 -0.50088486896E+02  0.14561599486E+03  0.16140487987E+03  0.41800000000E+01 0.  1.
        -11    1    4    4    0    0 -0.90089382248E+01  0.59023671833E+02  0.83302375222E+02  0.10249019720E+03  0.00000000000E+00 0.  1.
         11    1    4    4    0    0  0.26391779755E+02 -0.27193995711E+02  0.77109978466E+02  0.85918497545E+02  0.00000000000E+00 0. -1.
</event>
<event>
 8    1  0.8619230E-006  0.1088662E+03  0.7561462E-02  0.1262684E+00
         -1   -1    0    0    0  501 -0.00000000000E+00  0.00000000000E+00  0.40440137024E+02  0.40440137024E+02  0.00000000000E+00 0.  1.
          1   -1    0    0  501    0  0.00000000000E+00 -0.00000000000E+00 -0.46342633674E+03  0.46342633674E+03  0.00000000000E+00 0. -1.
         23    2    1    2    0    0 -0.48366317488E+02  0.53814061917E+02 -0.30855694641E+03  0.34071922258E+03  0.12508775132E+03 0.  0.
         23    2    1    2    0    0  0.48366317488E+02 -0.53814061917E+02 -0.11442925330E+03  0.16314725118E+03  0.91036902564E+02 0.  0.
          5    1    3    3  502    0 -0.84342528840E+02  0.32652835855E+02 -0.13777646079E+03  0.16486265620E+03  0.41800000000E+01 0.  1.
         -5    1    3    3    0  502  0.35976211352E+02  0.21161226062E+02 -0.17078048562E+03  0.17585656639E+03  0.41800000000E+01 0.  1.
        -11    1    4    4    0    0  0.40051380906E+02 -0.10864078317E+02 -0.11187676369E+03  0.11932540201E+03  0.00000000000E+00 0. -1.
         11    1    4    4    0    0  0.83149365827E+01 -0.42949983600E+02 -0.25524896111E+01  0.43821849172E+02  0.00000000000E+00 0.  1.
</event>
<event>
 8    1  0.8619230E-006  0.6602683E+02  0.7561462E-02  0.1374150E+00
         -2   -1    0    0    0  501 -0.00000000000E+00  0.00000000000E+00  0.12133239229E+03  0.12133239229E+03  0.00000000000E+00 0.  1.
          2   -1    0    0  501    0  0.00000000000E+00 -0.00000000000E+00 -0.99209562340E+02  0.99209562340E+02  0.00000000000E+00 0. -1.
         23    2    1    2    0    0  0.20343616935E+01 -0.14609448224E+02  0.14133994336E+02  0.12674932095E+03  0.12509214987E+03 0.  0.
         23    2    1    2    0    0 -0.20343616935E+01  0.14609448224E+02  0.79888356108E+01  0.93792633680E+02  0.92280344783E+02 0.  0.
          5    1    3    3  502    0  0.17521788946E+02  0.18768637377E+01 -0.52880980328E+02  0.55896387950E+02  0.41800000000E+01 0.  1.
         -5    1    3    3    0  502 -0.15487427253E+02 -0.16486311962E+02  0.67014974665E+02  0.70852932997E+02  0.41800000000E+01 0.  1.
        -11    1    4    4    0    0  0.29013666673E+02  0.40975322608E+02  0.15133016222E+02  0.52438326600E+02  0.00000000000E+00 0. -1.
         11    1    4    4    0    0 -0.31048028366E+02 -0.26365874384E+02 -0.71441806116E+01  0.41354307080E+02  0.00000000000E+00 0.  1.
</event>
<event>
 8    1  0.8619230E-006  0.1256033E+03  0.7561462E-02  0.1234129E+00
          1   -1    0    0  501    0  0.00000000000E+00  0.00000000000E+00  0.74387962493E+02  0.74387962493E+02  0.00000000000E+00 0. -1.
         -1   -1    0    0    0  501 -0.00000000000E+00 -0.00000000000E+00 -0.26580123281E+03  0.26580123281E+03  0.00000000000E+00 0.  1.
         23    2    1    2    0    0 -0.55332288967E+00 -0.49028959600E+02 -0.17439543688E+03  0.22014769663E+03  0.12508834830E+03 0.  0.
         23    2    1    2    0    0  0.55332288967E+00  0.49028959600E+02 -0.17017833437E+02  0.12004149867E+03  0.10824144171E+03 0.  0.
          5    1    3    3  502    0 -0.49883853811E+02  0.14248916155E+02 -0.50768402909E+02  0.72707177201E+02  0.41800000000E+01 0.  1.
         -5    1    3    3    0  502  0.49330530922E+02 -0.63277875756E+02 -0.12362703397E+03  0.14744051943E+03  0.41800000000E+01 0.  1.
        -11    1    4    4    0    0  0.31905873517E+02 -0.23615463633E+02 -0.48506018131E+01  0.39990039078E+02  0.00000000000E+00 0.  1.
         11    1    4    4    0    0 -0.31352550627E+02  0.72644423234E+02 -0.12167231623E+02  0.80051459595E+02  0.00000000000E+00 0. -1.
</event>
<event>
 8    1  0.8619230E-006  0.1766943E+03  0.7561462E-02  0.1171041E+00
          1   -1    0    0  501    0  0.00000000000E+00  0.00000000000E+00  0.35094006208E+03  0.35094006208E+03  0.00000000000E+00 0. -1.
         -1   -1    0    0    0  501 -0.00000000000E+00 -0.00000000000E+00 -0.10721649563E+03  0.10721649563E+03  0.00000000000E+00 0.  1.
         23    2    1    2    0    0  0.65771220277E+02 -0.14604386264E+03  0.11483470101E+03  0.23342967259E+03  0.12509092796E+03 0.  0.
         23    2    1    2    0    0 -0.65771220277E+02  0.14604386264E+03  0.12888886544E+03  0.22472688512E+03  0.90747837596E+02 0.  0.
          5    1    3    3  502    0  0.69111783465E+02 -0.91947244532E+02  0.13320886389E+03  0.17604774412E+03  0.41800000000E+01 0. -1.
         -5    1    3    3    0  502 -0.33405631879E+01 -0.54096618104E+02 -0.18374162886E+02  0.57381928466E+02  0.41800000000E+01 0. -1.
        -11    1    4    4    0    0  0.15984497227E+02  0.71579567560E+02  0.56074330733E+02  0.92322636503E+02  0.00000000000E+00 0. -1.
         11    1    4    4    0    0 -0.81755717504E+02  0.74464295077E+02  0.72814534712E+02  0.13240424861E+03  0.00000000000E+00 0.  1.
</event>
<event>
 8    1  0.8619230E-006  0.8557832E+02  0.7561462E-02  0.1313927E+00
         -1   -1    0    0    0  501 -0.00000000000E+00  0.00000000000E+00  0.11439670289E+03  0.11439670289E+03  0.00000000000E+00 0.  1.
          1   -1    0    0  501    0  0.00000000000E+00 -0.00000000000E+00 -0.25606692625E+03  0.25606692625E+03  0.00000000000E+00 0. -1.
         23    2    1    2    0    0  0.51271690170E+02 -0.49588486170E+02  0.44840853948E+02  0.15081757228E+03  0.12508970282E+03 0.  0.
         23    2    1    2    0    0 -0.51271690170E+02  0.49588486170E+02 -0.18651107731E+03  0.21964605687E+03  0.91488819898E+02 0.  0.
          5    1    3    3  502    0  0.51960333608E+02 -0.23150060526E+02  0.85112589501E+02  0.10245695127E+03  0.41800000000E+01 0.  1.
         -5    1    3    3    0  502 -0.68864343874E+00 -0.26438425643E+02 -0.40271735553E+02  0.48360621012E+02  0.41800000000E+01 0.  1.
        -11    1    4    4    0    0 -0.35221097096E+02 -0.10394147875E-02 -0.11519700241E+02  0.37057106948E+02  0.00000000000E+00 0.  1.
         11    1    4    4    0    0 -0.16050593074E+02  0.49589525584E+02 -0.17499137707E+03  0.18258894992E+03  0.00000000000E+00 0. -1.
</event>
<event>
 7    1  0.8619230E-006  0.1166952E+03  0.7561462E-02  0.1248651E+00
         -1   -1    0    0    0  501 -0.00000000000E+00  0.00000000000E+00  0.42277367162E+03  0.42277367162E+03  0.00000000000E+00 0.  1.
          1   -1    0    0  501    0  0.00000000000E+00 -0.00000000000E+00 -0.20551691986E+03  0.20551691986E+03  0.00000000000E+00 0. -1.
         23    2    1    2    0    0 -0.45407293159E+02  0.18670980541E+02 -0.14972325563E+03  0.18213908755E+03  0.91362826955E+02 0.  0.
          5    1    1    2  502    0 -0.42895711764E+02 -0.45560784374E+02 -0.49541646986E+01  0.62911392517E+02  0.41800000000E+01 0. -1.
         -5    1    1    2    0  502  0.88303004924E+02  0.26889803833E+02  0.37193417209E+03  0.38324011142E+03  0.41800000000E+01 0.  1.
        -11    1    3    3    0    0 -0.56900281137E+02  0.65550049145E+00 -0.15035251833E+03  0.16076054069E+03  0.00000000000E+00 0. -1.
         11    1    3    3    0    0  0.11492987978E+02  0.18015480050E+02  0.62926270224E+00  0.21378546855E+02  0.00000000000E+00 0.  1.
</event>
<event>
 8    1  0.8619230E-006  0.8916873E+02  0.7561462E-02  0.1304877E+00
          1   -1    0    0  501    0  0.00000000000E+00  0.00000000000E+00  0.48943217646E+03  0.48943217646E+03  0.00000000000E+00 0. -1.
         -1   -1    0    0    0  501 -0.00000000000E+00 -0.00000000000E+00 -0.31181962267E+02  0.31181962267E+02  0.00000000000E+00 0.  1.
         23    2    1    2    0    0 -0.12209911034E+01 -0.43067582775E+02  0.23427817965E+03  0.26905234760E+03  0.12508634130E+03 0.  0.
         23    2    1    2    0    0  0.12209911034E+01  0.43067582775E+02  0.22397203454E+03  0.25156179113E+03  0.10612989680E+03 0.  0.
          5    1    3    3  502    0 -0.22369741923E+02  0.13473994863E+02  0.19527938764E+03  0.19706208547E+03  0.41800000000E+01 0. -1.
         -5    1    3    3    0  502  0.21148750820E+02 -0.56541577638E+02  0.38998792011E+02  0.71990262128E+02  0.41800000000E+01 0. -1.
        -11    1    4    4    0    0 -0.13803930243E+02  0.64078533227E+02  0.71830601396E+02  0.97243211627E+02  0.00000000000E+00 0.  1.
         11    1    4    4    0    0  0.15024921347E+02 -0.21010950453E+02  0.15214143314E+03  0.15431857950E+03  0.00000000000E+00 0. -1.
</event>
<event>
 8    1  0.8619230E-006  0.1147412E+03  0.7561462E-02  0.1252034E+00
          1   -1    0    0  501    0  0.00000000000E+00  0.00000000000E+00  0.10346518078E+03  0.10346518078E+03  0.00000000000E+00 0. -1.
         -1   -1    0    0    0  501 -0.00000000000E+00 -0.00000000000E+00 -0.14225135176E+03  0.14225135176E+03  0.00000000000E+00 0.  1.
         23    2    1    2    0    0  0.17575575658E+02  0.65465010159E+01 -0.53635678474E+02  0.13739074655E+03  0.12509066191E+03 0.  0.
         23    2    1    2    0    0 -0.17575575658E+02 -0.65465010159E+01  0.14849507494E+02  0.10832578599E+03  0.10565136299E+03 0.  0.
          5    1    3    3  502    0  0.38026855754E+02  0.56404821830E+02 -0.12092585951E+02  0.69218846561E+02  0.41800000000E+01 0. -1.
         -5    1    3    3    0  502 -0.20451280096E+02 -0.49858320815E+02 -0.41543092523E+02  0.68171899991E+02  0.41800000000E+01 0. -1.
        -11    1    4    4    0    0 -0.41694450179E+02 -0.45339870918E+02  0.73282058021E+01  0.62030908996E+02  0.00000000000E+00 0.  1.
         11    1    4    4    0    0  0.24118874521E+02  0.38793369902E+02  0.75213016924E+01  0.46294876992E+02  0.00000000000E+00 0. -1.
</event>
<event>
 8    1  0.8619230E-006  0.1446043E+03  0.7561462E-02  0.1207264E+00
          2   -1    0    0  501    0  0.00000000000E+00  0.00000000000E+00  0.29779035221E+03  0.29779035221E+03  0.00000000000E+00 0. -1.
         -2   -1    0    0    0  501 -0.00000000000E+00 -0.00000000000E+00 -0.16631761669E+03  0.16631761669E+03  0.00000000000E+00 0.  1.
         23    2    1    2    0    0  0.59668449041E+02 -0.84499791760E+02 -0.10267371050E+03  0.19323192579E+03  0.12687059431E+03 0.  0.
         23    2    1    2    0    0 -0.59668449041E+02  0.84499791760E+02  0.23414644602E+03  0.27087604311E+03  0.88593080610E+02 0.  0.
          5    1    3    3  502    0 -0.25286586896E+02 -0.66223216312E+02 -0.21370226396E+02  0.74155814552E+02  0.41800000000E+01 0. -1.
         -5    1    3    3    0  502  0.84955035938E+02 -0.18276575448E+02 -0.81303484101E+02  0.11907611124E+03  0.41800000000E+01 0. -1.
        -11    1    4    4    0    0  0.20233429258E+02  0.13623998704E+02  0.19891653862E+02  0.31475115466E+02  0.00000000000E+00 0. -1.
         11    1    4    4    0    0 -0.79901878299E+02  0.70875793056E+02  0.21425479216E+03  0.23940092765E+03  0.00000000000E+00 0.  1.
</event>
<event>
 8    1  0.8619230E-006  0.1173522E+03  0.7561462E-02  0.1247530E+00
         -1   -1    0    0    0  501 -0.00000000000E+00  0.00000000000E+00  0.10623983814E+03  0.10623983814E+03  0.00000000000E+00 0.  1.
          1   -1    0    0  501    0  0.00000000000E+00 -0.00000000000E+00 -0.19094254197E+03  0.19094254197E+03  0.00000000000E+00 0. -1.
         23    2    1    2    0    0 -0.52678060518E+02 -0.49506833539E+02 -0.74509736049E+01  0.14466811260E+03  0.12508973247E+03 0.  0.
         23    2    1    2    0    0  0.52678060518E+02  0.49506833539E+02 -0.77251730224E+02  0.15251426750E+03  0.10984929377E+03 0.  0.
          5    1    3    3  502    0  0.29931351404E+02 -0.64864436026E+01 -0.35725437947E+02  0.47241285587E+02  0.41800000000E+01 0. -1.
         -5    1    3    3    0  502 -0.82609411921E+02 -0.43020389937E+02  0.28274464342E+02  0.97426827015E+02  0.41800000000E+01 0. -1.
        -11    1    4    4    0    0  0.72919351389E+02  0.21534304740E+02 -0.96986952081E+01  0.76648697160E+02  0.00000000000E+00 0.  1.
         11    1    4    4    0    0 -0.20241290871E+02  0.27972528800E+02 -0.67553035016E+02  0.75865570343E+02  0.00000000000E+00 0. -1.
</event>
<event>
 8    1  0.8619230E-006  0.1202218E+03  0.7561462E-02  0.1242732E+00
          1   -1    0    0  501    0  0.00000000000E+00  0.00000000000E+00  0.87310737978E+03  0.87310737978E+03  0.00000000000E+00 0. -1.
         -1   -1    0    0    0  501 -0.00000000000E+00 -0.00000000000E+00 -0.18877334950E+02  0.18877334950E+02  0.00000000000E+00 0.  1.
         23    2    1    2    0    0 -0.49336894351E+02  0.41983360823E+02  0.41268351814E+03  0.43606283187E+03  0.12508547262E+03 0.  0.
         23    2    1    2    0    0  0.49336894351E+02 -0.41983360823E+02  0.44154652669E+03  0.45592188286E+03  0.93298962005E+02 0.  0.
          5    1    3    3  502    0 -0.74576244809E+02 -0.71922737096E+01  0.31434188895E+03  0.32317431927E+03  0.41800000000E+01 0. -1.
         -5    1    3    3    0  502  0.25239350458E+02  0.49175634533E+02  0.98341629193E+02  0.11288851259E+03  0.41800000000E+01 0. -1.
        -11    1    4    4    0    0 -0.23050683798E+02 -0.27964278271E+02  0.96382960023E+02  0.10297091757E+03  0.00000000000E+00 0.  1.
         11    1    4    4    0    0  0.72387578149E+02 -0.14019082552E+02  0.34516356667E+03  0.35295096529E+03  0.00000000000E+00 0. -1.
</event>
<event>
 8    1  0.8619230E-006  0.3125603E+03  0.7561462E-02  0.1079125E+00
          2   -1    0    0  501    0  0.00000000000E+00  0.00000000000E+00  0.76883769468E+03  0.76883769468E+03  0.00000000000E+00 0. -1.
         -2   -1    0    0    0  501 -0.00000000000E+00 -0.00000000000E+00 -0.17132448031E+03  0.17132448031E+03  0.00000000000E+00 0.  1.
         23    2    1    2    0    0  0.27423349820E+03  0.12933274874E+03  0.87268018582E+02  0.33940283823E+03  0.12509039973E+03 0.  0.
         23    2    1    2    0    0 -0.27423349820E+03 -0.12933274874E+03  0.51024519579E+03  0.60075933676E+03  0.92901288746E+02 0.  0.
          5    1    3    3  502    0  0.44287265881E+02 -0.10243263902E+02  0.50175566601E+02  0.67833223853E+02  0.41800000000E+01 0.  1.
         -5    1    3    3    0  502  0.22994623232E+03  0.13957601264E+03  0.37092451981E+02  0.27156961438E+03  0.41800000000E+01 0.  1.
        -11    1    4    4    0    0 -0.19994660068E+03 -0.59803081649E+02  0.39703501929E+03  0.44854415417E+03  0.00000000000E+00 0. -1.
         11    1    4    4    0    0 -0.74286897521E+02 -0.69529667086E+02  0.11321017650E+03  0.15221518259E+03  0.00000000000E+00 0.  1.
</event>
<event>
 8    1  0.8619230E-006  0.6401273E+02  0.7561462E-02  0.1381724E+00
         -1   -1    0    0    0  501 -0.00000000000E+00  0.00000000000E+00  0.26492596116E+02  0.26492596116E+02  0.00000000000E+00 0.  1.
          1   -1    0    0  501    0  0.00000000000E+00 -0.00000000000E+00 -0.51424724678E+03  0.51424724678E+03  0.00000000000E+00 0. -1.
         23    2    1    2    0    0 -0.27089130601E+02  0.12975864976E+02 -0.20544049031E+03  0.24239509821E+03  0.12508954596E+03 0.  0.
         23    2    1    2    0    0  0.27089130601E+02 -0.12975864976E+02 -0.28231416035E+03  0.29834474469E+03  0.91684826861E+02 0.  0.
          5    1    3    3  502    0 -0.22065260375E+02 -0.90911333063E+01 -0.21580055287E+03  0.21715633871E+03  0.41800000000E+01 0. -1.
         -5    1    3    3    0  502 -0.50238702259E+01  0.22066998282E+02  0.10360062560E+02  0.25238759507E+02  0.41800000000E+01 0. -1.
        -11    1    4    4    0    0  0.17966815722E+02  0.31022073064E+02 -0.21122341990E+03  0.21424403982E+03  0.00000000000E+00 0. -1.
         11    1    4    4    0    0  0.91223148783E+01 -0.43997938039E+02 -0.71090740453E+02  0.84100704864E+02  0.00000000000E+00 0.  1.
</event>
<event>
 8    1  0.8619230E-006  0.6948672E+02  0.7561462E-02  0.1361847E+00
          3   -1    0    0  501    0  0.00000000000E+00  0.00000000000E+00  0.10195707302E+03  0.10195707302E+03  0.00000000000E+00 0. -1.
         -3   -1    0    0    0  501 -0.00000000000E+00 -0.00000000000E+00 -0.17103247032E+03  0.17103247032E+03  0.00000000000E+00 0.  1.
         23    2    1    2    0    0  0.34419064054E+02 -0.10379916638E+02 -0.79950480782E+02  0.15273314401E+03  0.12507165651E+03 0.  0.
         23    2    1    2    0    0 -0.34419064054E+02  0.10379916638E+02  0.10875083479E+02  0.12025639932E+03  0.11424062105E+03 0.  0.
          5    1    3    3  502    0  0.37193650634E+02  0.10136353094E+02 -0.10964145533E+03  0.11629632165E+03  0.41800000000E+01 0. -1.
         -5    1    3    3    0  502 -0.27745865800E+01 -0.20516269731E+02  0.29690974550E+02  0.36436822366E+02  0.41800000000E+01 0. -1.
        -11    1    4    4    0    0  0.45879112298E+01 -0.25601058006E+02 -0.39363844692E+02  0.47180243423E+02  0.00000000000E+00 0.  1.
         11    1    4    4    0    0 -0.39006975284E+02  0.35980974644E+02  0.50238928171E+02  0.73076155898E+02  0.00000000000E+00 0. -1.
</event>
<event>
 8    1  0.8619230E-006  0.1145194E+03  0.7561462E-02  0.1252422E+00
          2   -1    0    0  501    0  0.00000000000E+00  0.00000000000E+00  0.83609518874E+03  0.83609518874E+03  0.00000000000E+00 0.  1.
         -2   -1    0    0    0  501 -0.00000000000E+00 -0.00000000000E+00 -0.17712039052E+02  0.17712039052E+02  0.00000000000E+00 0. -1.
         23    2    1    2    0    0  0.72704187830E+01  0.49324006727E+02  0.38225206776E+03  0.40527696399E+03  0.12508819931E+03 0.  0.
         23    2    1    2    0    0 -0.72704187830E+01 -0.49324006727E+02  0.43613108193E+03  0.44853026380E+03  0.92105158885E+02 0.  0.
          5    1    3    3  502    0  0.53314220051E+02  0.58948267202E+02  0.16824412129E+03  0.18612055505E+03  0.41800000000E+01 0.  1.
         -5    1    3    3    0  502 -0.46043801268E+02 -0.96242604744E+01  0.21400794647E+03  0.21915640894E+03  0.41800000000E+01 0.  1.
        -11    1    4    4    0    0  0.39971064063E+02 -0.34241803573E+02  0.27303212350E+03  0.27805885625E+03  0.00000000000E+00 0.  1.
         11    1    4    4    0    0 -0.47241482846E+02 -0.15082203154E+02  0.16309895843E+03  0.17047140756E+03  0.00000000000E+00 0. -1.
</event>
<event>
 8    1  0.8619230E-006  0.9387272E+02  0.7561462E-02  0.1293735E+00
          1   -1    0    0  501    0  0.00000000000E+00  0.00000000000E+00  0.41867235612E+03  0.41867235612E+03  0.00000000000E+00 0. -1.
         -1   -1    0    0    0  501 -0.00000000000E+00 -0.00000000000E+00 -0.31436177404E+02  0.31436177404E+02  0.00000000000E+00 0.  1.
         23    2    1    2    0    0 -0.28091377383E+02 -0.19843164124E+02  0.18861542689E+03  0.22892482796E+03  0.12509165020E+03 0.  0.
         23    2    1    2    0    0  0.28091377383E+02  0.19843164124E+02  0.19862075182E+03  0.22118370556E+03  0.91044779669E+02 0.  0.
          5    1    3    3  502    0 -0.75778663625E+02 -0.28069227899E+02  0.12456635278E+03  0.14854136144E+03  0.41800000000E+01 0.  1.
         -5    1    3    3    0  502  0.47687286242E+02  0.82260637747E+01  0.64049074119E+02  0.80383466520E+02  0.41800000000E+01 0.  1.
        -11    1    4    4    0    0  0.13987227817E+02 -0.15094196880E+02  0.16530218771E+01  0.20644849304E+02  0.00000000000E+00 0.  1.
         11    1    4    4    0    0  0.14104149566E+02  0.34937361004E+02  0.19696772994E+03  0.20053885625E+03  0.00000000000E+00 0. -1.
</event>
<event>
 8    1  0.8619230E-006  0.1684472E+03  0.7561462E-02  0.1179477E+00
          2   -1    0    0  501    0  0.00000000000E+00  0.00000000000E+00  0.94356457705E+03  0.94356457705E+03  0.00000000000E+00 0. -1.
         -2   -1    0    0    0  501 -0.00000000000E+00 -0.00000000000E+00 -0.79380676099E+02  0.79380676099E+02  0.00000000000E+00 0.  1.
         23    2    1    2    0    0 -0.94703798721E+02 -0.13486690822E+03  0.89111001447E+02  0.22526974821E+03  0.12509115259E+03 0.  0.
         23    2    1    2    0    0  0.94703798721E+02  0.13486690822E+03  0.77507289951E+03  0.79767550494E+03  0.91598685605E+02 0.  0.
          5    1    3    3  502    0 -0.32901863877E+02 -0.34086232597E+02  0.95621448975E+02  0.10679577615E+03  0.41800000000E+01 0.  1.
         -5    1    3    3    0  502 -0.61801934845E+02 -0.10078067562E+03 -0.65104475284E+01  0.11847397206E+03  0.41800000000E+01 0.  1.
        -11    1    4    4    0    0  0.79186619043E+02  0.13381259058E+03  0.76093038403E+03  0.77665396373E+03  0.00000000000E+00 0. -1.
         11    1    4    4    0    0  0.15517179678E+02  0.10543176399E+01  0.14142515473E+02  0.21021541208E+02  0.00000000000E+00 0.  1.
</event>
<event>
 7    1  0.8619230E-006  0.1006924E+03  0.7561462E-02  0.1278847E+00
         -2   -1    0    0    0  501 -0.00000000000E+00  0.00000000000E+00  0.26968912255E+03  0.26968912255E+03  0.00000000000E+00 0.  1.
          2   -1    0    0  501    0  0.00000000000E+00 -0.00000000000E+00 -0.17709722160E+03  0.17709722160E+03  0.00000000000E+00 0. -1.
         23    2    1    2    0    0  0.91149679792E+01  0.16784117114E+02 -0.10971212135E+03  0.14257166914E+03  0.89023266850E+02 0.  0.
          5    1    1    2  502    0 -0.44009551302E+02  0.39897115370E+02 -0.27017986170E+02  0.65391623296E+02  0.41800000000E+01 0. -1.
         -5    1    1    2    0  502  0.34894583323E+02 -0.56681232483E+02  0.22932200848E+03  0.23882305172E+03  0.41800000000E+01 0.  1.
        -11    1    3    3    0    0  0.36829100472E+02  0.26936199378E+02 -0.10248688238E+03  0.11218512619E+03  0.00000000000E+00 0. -1.
         11    1    3    3    0    0 -0.27714132493E+02 -0.10152082264E+02 -0.72252389725E+01  0.30386542948E+02  0.00000000000E+00 0.  1.
</event>
<event>
 7    1  0.8619230E-006  0.1401453E+03  0.7561462E-02  0.1213134E+00
          1   -1    0    0  501    0  0.00000000000E+00  0.00000000000E+00  0.34166809379E+03  0.34166809379E+03  0.00000000000E+00 0. -1.
         -1   -1    0    0    0  501 -0.00000000000E+00 -0.00000000000E+00 -0.12266267691E+03  0.12266267691E+03  0.00000000000E+00 0.  1.
         23    2    1    2    0    0 -0.38230119443E+02  0.96899145679E+02  0.25050159947E+03  0.28649185903E+03  0.92062736708E+02 0.  0.
          5    1    1    2  502    0  0.84198405704E+02 -0.24080017720E+02 -0.26001139849E+02  0.91448075157E+02  0.41800000000E+01 0. -1.
         -5    1    1    2    0  502 -0.45968286261E+02 -0.72819127959E+02 -0.54950427407E+01  0.86390836512E+02  0.41800000000E+01 0.  1.
        -11    1    3    3    0    0 -0.32212907334E+02  0.52491607897E+02  0.45298762764E+02  0.76452718765E+02  0.00000000000E+00 0.  1.
         11    1    3    3    0    0 -0.60172121086E+01  0.44407537782E+02  0.20520283670E+03  0.21003914027E+03  0.00000000000E+00 0. -1.
</event>
<event>
 8    1  0.8619230E-006  0.1025049E+03  0.7561462E-02  0.1275115E+00
         -1   -1    0    0    0  501 -0.00000000000E+00  0.00000000000E+00  0.20646476464E+03  0.20646476464E+03  0.00000000000E+00 0.  1.
          1   -1    0    0  501    0  0.00000000000E+00 -0.00000000000E+00 -0.12995858647E+03  0.12995858647E+03  0.00000000000E+00 0. -1.
         23    2    1    2    0    0 -0.54057199353E+02  0.23493410126E+01  0.15124865309E+03  0.20359556030E+03  0.12508915583E+03 0.  0.
         23    2    1    2    0    0  0.54057199353E+02 -0.23493410126E+01 -0.74742474920E+02  0.13282779081E+03  0.95546241413E+02 0.  0.
          5    1    3    3  502    0 -0.70843103481E+02  0.29182062140E+02  0.37411571049E+02  0.85366481185E+02  0.41800000000E+01 0.  1.
         -5    1    3    3    0  502  0.16785904128E+02 -0.26832721127E+02  0.11383708204E+03  0.11822907912E+03  0.41800000000E+01 0.  1.
        -11    1    4    4    0    0 -0.12599805235E+02 -0.23292994454E+02  0.48454201637E+01  0.26922050055E+02  0.00000000000E+00 0.  1.
         11    1    4    4    0    0  0.66657004588E+02  0.20943653441E+02 -0.79587895083E+02  0.10590574075E+03  0.00000000000E+00 0. -1.
</event>
<event>
 8    1  0.8619230E-006  0.2755099E+03  0.7561462E-02  0.1098167E+00
         -2   -1    0    0    0  501 -0.00000000000E+00  0.00000000000E+00  0.97830901908E+02  0.97830901908E+02  0.00000000000E+00 0.  1.
          2   -1    0    0  501    0  0.00000000000E+00 -0.00000000000E+00 -0.83430377069E+03  0.83430377069E+03  0.00000000000E+00 0. -1.
         23    2    1    2    0    0 -0.22070603231E+03  0.12501155421E+03 -0.25686330928E+03  0.38205298722E+03  0.12508670595E+03 0.  0.
         23    2    1    2    0    0  0.22070603231E+03 -0.12501155421E+03 -0.47960955951E+03  0.55008168538E+03  0.90694485126E+02 0.  0.
          5    1    3    3  502    0  0.18954010653E+01  0.46453330459E+02 -0.44937149088E+02  0.64794476802E+02  0.41800000000E+01 0. -1.
         -5    1    3    3    0  502 -0.22260143338E+03  0.78558223754E+02 -0.21192616019E+03  0.31725851042E+03  0.41800000000E+01 0. -1.
        -11    1    4    4    0    0  0.16216378210E+03 -0.43511394428E+02 -0.27531081895E+03  0.32246919342E+03  0.00000000000E+00 0.  1.
         11    1    4    4    0    0  0.58542250210E+02 -0.81500159784E+02 -0.20429874056E+03  0.22761249196E+03  0.00000000000E+00 0. -1.
</event>
<event>
 8    1  0.8619230E-006  0.1331071E+03  0.7561462E-02  0.1222917E+00
         -1   -1    0    0    0  501 -0.00000000000E+00  0.00000000000E+00  0.39608594367E+03  0.39608594367E+03  0.00000000000E+00 0.  1.
          1   -1    0    0  501    0  0.00000000000E+00 -0.00000000000E+00 -0.80036745770E+02  0.80036745770E+02  0.00000000000E+00 0. -1.
         23    2    1    2    0    0 -0.70469526644E+02 -0.64636309502E+02  0.30559613283E+03  0.34377434732E+03  0.12509196131E+03 0.  0.
         23    2    1    2    0    0  0.70469526644E+02  0.64636309502E+02  0.10453065070E+02  0.13234834212E+03  0.90901102305E+02 0.  0.
          5    1    3    3  502    0 -0.22799400361E+02  0.37664545335E+02  0.76874928273E+02  0.88688542829E+02  0.41800000000E+01 0. -1.
         -5    1    3    3    0  502 -0.47670126283E+02 -0.10230085484E+03  0.22872120456E+03  0.25508580449E+03  0.41800000000E+01 0. -1.
        -11    1    4    4    0    0  0.41752654491E+02  0.68349099919E+02  0.41237644833E+02  0.90085664609E+02  0.00000000000E+00 0.  1.
         11    1    4    4    0    0  0.28716872153E+02 -0.37127904167E+01 -0.30784579763E+02  0.42262677508E+02  0.00000000000E+00 0. -1.
</event>
<event>
 8    1  0.8619230E-006  0.1399168E+03  0.7561462E-02  0.1213441E+00
          1   -1    0    0  501    0  0.00000000000E+00  0.00000000000E+00  0.69349303492E+03  0.69349303492E+03  0.00000000000E+00 0. -1.
         -1   -1    0    0    0  501 -0.00000000000E+00 -0.00000000000E+00 -0.31781944363E+02  0.31781944363E+02  0.00000000000E+00 0.  1.
         23    2    1    2    0    0 -0.84786732177E+02 -0.54472752636E+02  0.33041129443E+03  0.36738954010E+03  0.12508948777E+03 0.  0.
         23    2    1    2    0    0  0.84786732177E+02  0.54472752636E+02  0.33129979612E+03  0.35788543918E+03  0.90367925378E+02 0.  0.
          5    1    3    3  502    0 -0.52480100708E+02  0.36358887732E+02  0.12385266338E+03  0.13940259794E+03  0.41800000000E+01 0. -1.
         -5    1    3    3    0  502 -0.32306631469E+02 -0.90831640368E+02  0.20655863106E+03  0.22798694215E+03  0.41800000000E+01 0. -1.
        -11    1    4    4    0    0  0.82059009495E+02  0.19587821271E+02  0.14033662384E+03  0.16374288312E+03  0.00000000000E+00 0.  1.
         11    1    4    4    0    0  0.27277226817E+01  0.34884931365E+02  0.19096317229E+03  0.19414255607E+03  0.00000000000E+00 0. -1.
</event>
<event>
 8    1  0.8619230E-006  0.8025236E+02  0.7561462E-02  0.1328337E+00
          1   -1    0    0  501    0  0.00000000000E+00  0.00000000000E+00  0.51478990287E+02  0.51478990287E+02  0.00000000000E+00 0. -1.
         -1   -1    0    0    0  501 -0.00000000000E+00 -0.00000000000E+00 -0.33609966005E+03  0.33609966005E+03  0.00000000000E+00 0.  1.
         23    2    1    2    0    0  0.62019226011E+02  0.26576906756E+02 -0.17637956740E+03  0.22651733449E+03  0.12509050587E+03 0.  0.
         23    2    1    2    0    0 -0.62019226011E+02 -0.26576906756E+02 -0.10824110236E+03  0.16106131585E+03  0.98345792254E+02 0.  0.
          5    1    3    3  502    0  0.71928743677E+02  0.33844935575E+02 -0.39212329863E+02  0.88737269759E+02  0.41800000000E+01 0.  1.
         -5    1    3    3    0  502 -0.99095176656E+01 -0.72680288187E+01 -0.13716723754E+03  0.13778006473E+03  0.41800000000E+01 0.  1.
        -11    1    4    4    0    0 -0.39016583966E+02 -0.20752034753E+02  0.58060072284E+01  0.44571857608E+02  0.00000000000E+00 0. -1.
         11    1    4    4    0    0 -0.23002642046E+02 -0.58248720035E+01 -0.11404710959E+03  0.11648945824E+03  0.00000000000E+00 0.  1.
</event>
<event>
 8    1  0.8619230E-006  0.1152930E+03  0.7561462E-02  0.1251070E+00
          2   -1    0    0  501    0  0.00000000000E+00  0.00000000000E+00  0.46666243229E+03  0.46666243229E+03  0.00000000000E+00 0. -1.
         -2   -1    0    0    0  501 -0.00000000000E+00 -0.00000000000E+00 -0.37783747812E+02  0.37783747812E+02  0.00000000000E+00 0.  1.
         23    2    1    2    0    0  0.33323104206E+01 -0.74720131852E+02  0.20087359722E+03  0.24828851175E+03  0.12531073621E+03 0.  0.
         23    2    1    2    0    0 -0.33323104206E+01  0.74720131852E+02  0.22800508726E+03  0.25615766836E+03  0.89645015720E+02 0.  0.
          5    1    3    3  502    0  0.89541270214E+01  0.18189404895E+02 -0.58725448124E+01  0.21517202971E+02  0.41800000000E+01 0. -1.
         -5    1    3    3    0  502 -0.56218166008E+01 -0.92909536746E+02  0.20674614203E+03  0.22677130878E+03  0.41800000000E+01 0.  1.
        -11    1    4    4    0    0 -0.11516604144E+02 -0.19225531361E+02  0.41287127527E+02  0.46977442742E+02  0.00000000000E+00 0.  1.
         11    1    4    4    0    0  0.81842937232E+01  0.93945663213E+02  0.18671795974E+03  0.20918022562E+03  0.00000000000E+00 0. -1.
</event>
<event>
 8    1  0.8619230E-006  0.9927556E+02  0.7561462E-02  0.1281827E+00
         -2   -1    0    0    0  501 -0.00000000000E+00  0.00000000000E+00  0.52488204353E+02  0.52488204353E+02  0.00000000000E+00 0.  1.
          2   -1    0    0  501    0  0.00000000000E+00 -0.00000000000E+00 -0.32783078012E+03  0.32783078012E+03  0.00000000000E+00 0. -1.
         23    2    1    2    0    0 -0.25120695740E+02 -0.91074944460E+01 -0.50828328006E+02  0.13764242141E+03  0.12509165214E+03 0.  0.
         23    2    1    2    0    0  0.25120695740E+02  0.91074944460E+01 -0.22451424776E+03  0.24267656306E+03  0.88154812699E+02 0.  0.
          5    1    3    3  502    0 -0.18070780667E+02 -0.65963502645E+02 -0.39502918882E+02  0.79092918743E+02  0.41800000000E+01 0. -1.
         -5    1    3    3    0  502 -0.70499150730E+01  0.56856008199E+02 -0.11325409124E+02  0.58549502669E+02  0.41800000000E+01 0. -1.
        -11    1    4    4    0    0  0.15293007278E+02  0.38589289202E+02 -0.19650160716E+03  0.20083797184E+03  0.00000000000E+00 0. -1.
         11    1    4    4    0    0  0.98276884619E+01 -0.29481794756E+02 -0.28012640595E+02  0.41838591225E+02  0.00000000000E+00 0.  1.
</event>
<event>
 8    1  0.8619230E-006  0.1603704E+03  0.7561462E-02  0.1188279E+00
         -1   -1    0    0    0  501 -0.00000000000E+00  0.00000000000E+00  0.69494957975E+02  0.69494957975E+02  0.00000000000E+00 0.  1.
          1   -1    0    0  501    0  0.00000000000E+00 -0.00000000000E+00 -0.49380333017E+03  0.49380333017E+03  0.00000000000E+00 0. -1.
         23    2    1    2    0    0 -0.14922571867E+03 -0.81946056289E+01 -0.22437884355E+03  0.29719957468E+03  0.12508499145E+03 0.  0.
         23    2    1    2    0    0  0.14922571867E+03  0.81946056289E+01 -0.19992952864E+03  0.26609871346E+03  0.92202181143E+02 0.  0.
          5    1    3    3  502    0 -0.99011988099E+02 -0.11355934400E+02 -0.42467965464E+02  0.10841278303E+03  0.41800000000E+01 0. -1.
         -5    1    3    3    0  502 -0.50213730571E+02  0.31613287713E+01 -0.18191087809E+03  0.18878679166E+03  0.41800000000E+01 0. -1.
        -11    1    4    4    0    0  0.15969351157E+03  0.93921564635E+01 -0.16584576419E+03  0.23042362670E+03  0.00000000000E+00 0.  1.
         11    1    4    4    0    0 -0.10467792901E+02 -0.11975508346E+01 -0.34083764450E+02  0.35675086760E+02  0.00000000000E+00 0. -1.
</event>
<event>
 8    1  0.8619230E-006  0.2049392E+03  0.7561462E-02  0.1145637E+00
         -1   -1    0    0    0  501 -0.00000000000E+00  0.00000000000E+00  0.68048378997E+03  0.68048378997E+03  0.00000000000E+00 0.  1.
          1   -1    0    0  501    0  0.00000000000E+00 -0.00000000000E+00 -0.98169655805E+02  0.98169655805E+02  0.00000000000E+00 0. -1.
         23    2    1    2    0    0  0.15348085170E+03  0.11238387779E+03  0.50485741351E+03  0.55381819126E+03  0.12508826151E+03 0.  0.
         23    2    1    2    0    0 -0.15348085170E+03 -0.11238387779E+03  0.77456720654E+02  0.22483525452E+03  0.91459500735E+02 0.  0.
          5    1    3    3  502    0  0.14693877256E+03  0.49499838245E+02  0.27872889757E+03  0.31898041884E+03  0.41800000000E+01 0.  1.
         -5    1    3    3    0  502  0.65420791387E+01  0.62884039540E+02  0.22612851595E+03  0.23483777242E+03  0.41800000000E+01 0.  1.
        -11    1    4    4    0    0 -0.17057967901E+02 -0.21670155626E+02  0.52244731985E+02  0.59076915407E+02  0.00000000000E+00 0.  1.
         11    1    4    4    0    0 -0.13642288380E+03 -0.90713722159E+02  0.25211988668E+02  0.16575833911E+03  0.00000000000E+00 0. -1.
</event>
<event>
 8    1  0.8619230E-006  0.1084384E+03  0.7561462E-02  0.1263489E+00
          1   -1    0    0  501    0  0.00000000000E+00  0.00000000000E+00  0.62853510877E+03  0.62853510877E+03  0.00000000000E+00 0. -1.
         -1   -1    0    0    0  501 -0.00000000000E+00 -0.00000000000E+00 -0.25603691493E+02  0.25603691493E+02  0.00000000000E+00 0.  1.
         23    2    1    2    0    0  0.28958321006E+02  0.60063907120E+02  0.33587424562E+03  0.36455995128E+03  0.12508473893E+03 0.  0.
         23    2    1    2    0    0 -0.28958321006E+02 -0.60063907120E+02  0.26705717166E+03  0.28957884898E+03  0.89945091862E+02 0.  0.
          5    1    3    3  502    0  0.58194357570E+02  0.75728297007E+01  0.67639799295E+02  0.89646783832E+02  0.41800000000E+01 0. -1.
         -5    1    3    3    0  502 -0.29236036564E+02  0.52491077419E+02  0.26823444632E+03  0.27491316745E+03  0.41800000000E+01 0. -1.
        -11    1    4    4    0    0  0.61230385673E+01  0.14319179832E+02  0.74635632922E+01  0.17269490131E+02  0.00000000000E+00 0.  1.
         11    1    4    4    0    0 -0.35081359574E+02 -0.74383086952E+02  0.25959360836E+03  0.27230935885E+03  0.00000000000E+00 0. -1.
</event>
<event>
 8    1  0.9898095E-006  0.4173506E+03  0.7561462E-02  0.1037932E+00
          4   -1    0    0  501    0  0.00000000000E+00  0.00000000000E+00  0.10155469963E+04  0.10155469963E+04  0.00000000000E+00 0. -1.
         -4   -1    0    0    0  501 -0.00000000000E+00 -0.00000000000E+00 -0.17637803582E+03  0.17637803582E+03  0.00000000000E+00 0.  1.
         23    2    1    2    0    0  0.39608309734E+03 -0.93000383479E+02  0.37911630711E+03  0.57000624393E+03  0.12508817878E+03 0.  0.
         23    2    1    2    0    0 -0.39608309734E+03  0.93000383479E+02  0.46005265336E+03  0.62191878818E+03  0.97998183149E+02 0.  0.
          5    1    3    3  502    0  0.27043892355E+03 -0.15814501346E+02  0.19363787350E+03  0.33301712911E+03  0.41800000000E+01 0. -1.
         -5    1    3    3    0  502  0.12564417378E+03 -0.77185882132E+02  0.18547843361E+03  0.23698911482E+03  0.41800000000E+01 0. -1.
        -11    1    4    4    0    0 -0.37137586916E+03  0.10872396767E+03  0.40888971389E+03  0.56296690442E+03  0.00000000000E+00 0.  1.
         11    1    4    4    0    0 -0.24707228182E+02 -0.15723584194E+02  0.51162939469E+02  0.58951883765E+02  0.00000000000E+00 0. -1.
</event>
<event>
 8    1  0.8619230E-006  0.1603265E+03  0.7561462E-02  0.1188329E+00
         -1   -1    0    0    0  501 -0.00000000000E+00  0.00000000000E+00  0.34275000551E+03  0.34275000551E+03  0.00000000000E+00 0.  1.
          1   -1    0    0  501    0  0.00000000000E+00 -0.00000000000E+00 -0.82545765987E+02  0.82545765987E+02  0.00000000000E+00 0. -1.
         23    2    1    2    0    0  0.11465515459E+03  0.47326945442E+02  0.18280569430E+03  0.25386574877E+03  0.12507698546E+03 0.  0.
         23    2    1    2    0    0 -0.11465515459E+03 -0.47326945442E+02  0.77398545218E+02  0.17143002272E+03  0.89510187415E+02 0.  0.
          5    1    3    3  502    0  0.82575337290E+02  0.85237133258E+02  0.15949236062E+03  0.19884501681E+03  0.41800000000E+01 0. -1.
         -5    1    3    3    0  502  0.32079817296E+02 -0.37910187816E+02  0.23313333682E+02  0.55020731960E+02  0.41800000000E+01 0. -1.
        -11    1    4    4    0    0 -0.12370700208E+03 -0.59194394857E+02  0.75013381869E+02  0.15631508630E+03  0.00000000000E+00 0.  1.
         11    1    4    4    0    0  0.90518474971E+01  0.11867449416E+02  0.23851633486E+01  0.15114936419E+02  0.00000000000E+00 0. -1.
</event>
<event>
 7    1  0.8619230E-006  0.1197358E+03  0.7561462E-02  0.1243533E+00
          1   -1    0    0  501    0  0.00000000000E+00  0.00000000000E+00  0.67878833888E+02  0.67878833888E+02  0.00000000000E+00 0. -1.
         -1   -1    0    0    0  501 -0.00000000000E+00 -0.00000000000E+00 -0.37490422574E+03  0.37490422574E+03  0.00000000000E+00 0.  1.
         23    2    1    2    0    0 -0.36621262136E+02 -0.20123906895E+02  0.25509363180E+01  0.10044314018E+03  0.91302949923E+02 0.  0.
          5    1    1    2  502    0 -0.21530374888E+02 -0.48863380346E+02 -0.87405685225E+02  0.10251055161E+03  0.41800000000E+01 0. -1.
         -5    1    1    2    0  502  0.58151637024E+02  0.68987287241E+02 -0.22217064294E+03  0.23982936783E+03  0.41800000000E+01 0.  1.
        -11    1    3    3    0    0  0.93720438687E+01  0.27696634684E+02  0.15114952054E+02  0.32915050580E+02  0.00000000000E+00 0.  1.
         11    1    3    3    0    0 -0.45993306005E+02 -0.47820541579E+02 -0.12564015736E+02  0.67528089604E+02  0.00000000000E+00 0. -1.
</event>
<event>
 8    1  0.8619230E-006  0.1143981E+03  0.7561462E-02  0.1252635E+00
          1   -1    0    0  501    0  0.00000000000E+00  0.00000000000E+00  0.57956738947E+03  0.57956738947E+03  0.00000000000E+00 0. -1.
         -1   -1    0    0    0  501 -0.00000000000E+00 -0.00000000000E+00 -0.46580569431E+02  0.46580569431E+02  0.00000000000E+00 0.  1.
         23    2    1    2    0    0  0.51070623337E+02  0.90111808431E+02  0.15878233632E+03  0.22712925188E+03  0.12509004815E+03 0.  0.
         23    2    1    2    0    0 -0.51070623337E+02 -0.90111808431E+02  0.37420448372E+03  0.39901870702E+03  0.91970573165E+02 0.  0.
          5    1    3    3  502    0  0.39284637461E+02  0.82130091428E+02  0.17969698343E+03  0.20148725248E+03  0.41800000000E+01 0. -1.
         -5    1    3    3    0  502  0.11785985876E+02  0.79817170024E+01 -0.20914647113E+02  0.25641999400E+02  0.41800000000E+01 0. -1.
        -11    1    4    4    0    0 -0.21972722200E+02 -0.91095805874E+02  0.34606598561E+03  0.35852881720E+03  0.00000000000E+00 0. -1.
         11    1    4    4    0    0 -0.29097901137E+02  0.98399744346E+00  0.28138498116E+02  0.40489889821E+02  0.00000000000E+00 0.  1.
</event>
<event>
 8    1  0.1196908E-005  0.2033288E+03  0.7561462E-02  0.1146961E+00
          2   -1    0    0  501    0  0.00000000000E+00  0.00000000000E+00  0.18950176887E+03  0.18950176887E+03  0.00000000000E+00 0. -1.
         -2   -1    0    0    0  501 -0.00000000000E+00 -0.00000000000E+00 -0.28126539052E+03  0.28126539052E+03  0.00000000000E+00 0.  1.
         23    2    1    2    0    0  0.13126049080E+03  0.13762469138E+03 -0.12163734227E+03  0.25809456049E+03  0.12508911622E+03 0.  0.
         23    2    1    2    0    0 -0.13126049080E+03 -0.13762469138E+03  0.29873720621E+02  0.21267259891E+03  0.90373242822E+02 0.  0.
          5    1    3    3  502    0  0.55670562449E+02 -0.36562529781E+01 -0.70180010260E+02  0.89751244834E+02  0.41800000000E+01 0. -1.
         -5    1    3    3    0  502  0.75589928354E+02  0.14128094436E+03 -0.51457332011E+02  0.16834331566E+03  0.41800000000E+01 0. -1.
        -11    1    4    4    0    0 -0.44465153383E+02 -0.40179363332E+02 -0.32348016246E+02  0.68102314632E+02  0.00000000000E+00 0.  1.
         11    1    4    4    0    0 -0.86795337420E+02 -0.97445328051E+02  0.62221736867E+02  0.14457028428E+03  0.00000000000E+00 0. -1.
</event>
<event>
 8    1  0.8619230E-006  0.8655322E+02  0.7561462E-02  0.1311420E+00
         -1   -1    0    0    0  501 -0.00000000000E+00  0.00000000000E+00  0.75990713465E+02  0.75990713465E+02  0.00000000000E+00 0.  1.
          1   -1    0    0  501    0  0.00000000000E+00 -0.00000000000E+00 -0.29405533499E+03  0.29405533499E+03  0.00000000000E+00 0. -1.
         23    2    1    2    0    0 -0.45423159875E+02  0.54873227084E+02 -0.26325716923E+02  0.14633641046E+03  0.12508783774E+03 0.  0.
         23    2    1    2    0    0  0.45423159875E+02 -0.54873227084E+02 -0.19173890461E+03  0.22370963800E+03  0.90597241076E+02 0.  0.
          5    1    3    3  502    0 -0.27705123796E+01  0.14500490984E+02  0.48646040900E+02  0.51008329446E+02  0.41800000000E+01 0. -1.
         -5    1    3    3    0  502 -0.42652647495E+02  0.40372736100E+02 -0.74971757823E+02  0.95328081013E+02  0.41800000000E+01 0. -1.
        -11    1    4    4    0    0 -0.71474708519E+01 -0.44788971400E+02 -0.14734263298E+03  0.15416546238E+03  0.00000000000E+00 0.  1.
         11    1    4    4    0    0  0.52570630727E+02 -0.10084255684E+02 -0.44396271627E+02  0.69544175616E+02  0.00000000000E+00 0. -1.
</event>
<event>
 8    1  0.8619230E-006  0.1113066E+03  0.7561462E-02  0.1258169E+00
          2   -1    0    0  501    0  0.00000000000E+00  0.00000000000E+00  0.44054545460E+03  0.44054545460E+03  0.00000000000E+00 0.  1.
         -2   -1    0    0    0  501 -0.00000000000E+00 -0.00000000000E+00 -0.35683974956E+02  0.35683974956E+02  0.00000000000E+00 0. -1.
         23    2    1    2    0    0  0.56963139311E+02 -0.16410990999E+02  0.17879029845E+03  0.22611431986E+03  0.12509034718E+03 0.  0.
         23    2    1    2    0    0 -0.56963139311E+02  0.16410990999E+02  0.22607118119E+03  0.25011510969E+03  0.89080128351E+02 0.  0.
          5    1    3    3  502    0 -0.29749628093E+02  0.18729170339E+02  0.17233166416E+02  0.39373552265E+02  0.41800000000E+01 0.  1.
         -5    1    3    3    0  502  0.86712767404E+02 -0.35140161338E+02  0.16155713204E+03  0.18674076759E+03  0.41800000000E+01 0.  1.
        -11    1    4    4    0    0 -0.72325377993E+02  0.24284035152E+02  0.21818035613E+03  0.23113490101E+03  0.00000000000E+00 0.  1.
         11    1    4    4    0    0  0.15362238682E+02 -0.78730441526E+01  0.78908250631E+01  0.18980208685E+02  0.00000000000E+00 0. -1.
</event>
<event>
 8    1  0.8619230E-006  0.1314195E+03  0.7561462E-02  0.1225364E+00
         -2   -1    0    0    0  501 -0.00000000000E+00  0.00000000000E+00  0.28083962510E+03  0.28083962510E+03  0.00000000000E+00 0.  1.
          2   -1    0    0  501    0  0.00000000000E+00 -0.00000000000E+00 -0.76513438972E+02  0.76513438972E+02  0.00000000000E+00 0. -1.
         23    2    1    2    0    0 -0.72784414634E+02  0.56191437387E+02  0.13919342420E+03  0.20851196395E+03  0.12508949244E+03 0.  0.
         23    2    1    2    0    0  0.72784414634E+02 -0.56191437387E+02  0.65132761927E+02  0.14884110013E+03  0.97243754361E+02 0.  0.
          5    1    3    3  502    0 -0.10363318890E+03  0.64500902168E+02  0.11876697691E+03  0.17036217722E+03  0.41800000000E+01 0.  1.
         -5    1    3    3    0  502  0.30848774263E+02 -0.83094647808E+01  0.20426447294E+02  0.38149786730E+02  0.41800000000E+01 0.  1.
        -11    1    4    4    0    0  0.56795399613E+02 -0.75701114161E+01 -0.97664811230E+01  0.58124075542E+02  0.00000000000E+00 0. -1.
         11    1    4    4    0    0  0.15989015021E+02 -0.48621325971E+02  0.74899243050E+02  0.90717024587E+02  0.00000000000E+00 0.  1.
</event>
<event>
 8    1  0.8619230E-006  0.9916077E+02  0.7561462E-02  0.1282071E+00
         -2   -1    0    0    0  501 -0.00000000000E+00  0.00000000000E+00  0.13164331900E+03  0.13164331900E+03  0.00000000000E+00 0.  1.
          2   -1    0    0  501    0  0.00000000000E+00 -0.00000000000E+00 -0.11506142303E+03  0.11506142303E+03  0.00000000000E+00 0. -1.
         23    2    1    2    0    0  0.33331595421E+01 -0.17187584054E+02  0.54495881780E+02  0.13756535725E+03  0.12509158000E+03 0.  0.
         23    2    1    2    0    0 -0.33331595421E+01  0.17187584054E+02 -0.37913985806E+02  0.10913938478E+03  0.10083358564E+03 0.  0.
          5    1    3    3  502    0 -0.28746982356E+02  0.45729817757E+02  0.13635145817E+02  0.55865864605E+02  0.41800000000E+01 0.  1.
         -5    1    3    3    0  502  0.32080141898E+02 -0.62917401811E+02  0.40860735963E+02  0.81699492644E+02  0.41800000000E+01 0.  1.
        -11    1    4    4    0    0 -0.12874211054E+02  0.43523021766E+02 -0.58742243008E+02  0.74233751404E+02  0.00000000000E+00 0. -1.
         11    1    4    4    0    0  0.95410515120E+01 -0.26335437712E+02  0.20828257202E+02  0.34905633378E+02  0.00000000000E+00 0.  1.
</event>
<event>
 8    1  0.8619230E-006  0.9379124E+02  0.7561462E-02  0.1293922E+00
         -3   -1    0    0    0  501 -0.00000000000E+00  0.00000000000E+00  0.15933166331E+03  0.15933166331E+03  0.00000000000E+00 0.  1.
          3   -1    0    0  501    0  0.00000000000E+00 -0.00000000000E+00 -0.13693547076E+03  0.13693547076E+03  0.00000000000E+00 0. -1.
         23    2    1    2    0    0  0.95125405700E+01  0.50555066772E+02  0.10257334944E+03  0.16409407267E+03  0.11729991247E+03 0.  0.
         23    2    1    2    0    0 -0.95125405700E+01 -0.50555066772E+02 -0.80177156890E+02  0.13217306139E+03  0.91624442519E+02 0.  0.
          5    1    3    3  502    0  0.52462990196E+02  0.63951364922E+02  0.63637256928E+02  0.10444766769E+03  0.41800000000E+01 0. -1.
         -5    1    3    3    0  502 -0.42950449626E+02 -0.13396298150E+02  0.38936092515E+02  0.59646404984E+02  0.41800000000E+01 0.  1.
        -11    1    4    4    0    0  0.10863213160E+02 -0.21481671677E+02  0.16499305490E+02  0.29183877395E+02  0.00000000000E+00 0.  1.
         11    1    4    4    0    0 -0.20375753730E+02 -0.29073395095E+02 -0.96676462380E+02  0.10298918400E+03  0.00000000000E+00 0. -1.
</event>
<event>
 8    1  0.8619230E-006  0.8795198E+02  0.7561462E-02  0.1307888E+00
         -1   -1    0    0    0  501 -0.00000000000E+00  0.00000000000E+00  0.13103610872E+03  0.13103610872E+03  0.00000000000E+00 0.  1.
          1   -1    0    0  501    0  0.00000000000E+00 -0.00000000000E+00 -0.11430329099E+03  0.11430329099E+03  0.00000000000E+00 0. -1.
         23    2    1    2    0    0  0.52317087523E+02 -0.17765263882E+02  0.20434077086E+02  0.13826548741E+03  0.12508841375E+03 0.  0.
         23    2    1    2    0    0 -0.52317087523E+02  0.17765263882E+02 -0.37012593626E+01  0.10707391230E+03  0.91643009156E+02 0.  0.
          5    1    3    3  502    0 -0.79681828700E+01 -0.48206514464E+02  0.44726787479E+02  0.66372568831E+02  0.41800000000E+01 0.  1.
         -5    1    3    3    0  502  0.60285270393E+02  0.30441250582E+02 -0.24292710393E+02  0.71892918577E+02  0.41800000000E+01 0.  1.
        -11    1    4    4    0    0 -0.10027089678E+02  0.13327647024E+02 -0.44881199030E+02  0.47879961664E+02  0.00000000000E+00 0. -1.
         11    1    4    4    0    0 -0.42289997845E+02  0.44376168579E+01  0.41179939667E+02  0.59193950638E+02  0.00000000000E+00 0.  1.
</event>
<event>
 8    1  0.8619230E-006  0.1033616E+03  0.7561462E-02  0.1273382E+00
         -2   -1    0    0    0  501 -0.00000000000E+00  0.00000000000E+00  0.86750202117E+02  0.86750202117E+02  0.00000000000E+00 0.  1.
          2   -1    0    0  501    0  0.00000000000E+00 -0.00000000000E+00 -0.20606821591E+03  0.20606821591E+03  0.00000000000E+00 0. -1.
         23    2    1    2    0    0  0.11309923540E+02  0.40169691042E+02 -0.21476518201E+02  0.13360842012E+03  0.12509376741E+03 0.  0.
         23    2    1    2    0    0 -0.11309923540E+02 -0.40169691042E+02 -0.97841495594E+02  0.15920999791E+03  0.11846242748E+03 0.  0.
          5    1    3    3  502    0  0.42801481968E+02  0.25012729476E+02  0.39283250035E+02  0.63389664992E+02  0.41800000000E+01 0. -1.
         -5    1    3    3    0  502 -0.31491558428E+02  0.15156961566E+02 -0.60759768236E+02  0.70218755131E+02  0.41800000000E+01 0. -1.
        -11    1    4    4    0    0  0.20486820014E+02  0.34776601760E+02 -0.51839596967E+02  0.65699814596E+02  0.00000000000E+00 0.  1.
         11    1    4    4    0    0 -0.31796743553E+02 -0.74946292802E+02 -0.46001898627E+02  0.93510183310E+02  0.00000000000E+00 0. -1.
</event>
<event>
 8    1  0.8619230E-006  0.8715141E+02  0.7561462E-02  0.1309900E+00
          1   -1    0    0  501    0  0.00000000000E+00  0.00000000000E+00  0.15925995182E+03  0.15925995182E+03  0.00000000000E+00 0. -1.
         -1   -1    0    0    0  501 -0.00000000000E+00 -0.00000000000E+00 -0.73429727551E+02  0.73429727551E+02  0.00000000000E+00 0.  1.
         23    2    1    2    0    0 -0.23087625014E+02 -0.12744500382E+02  0.33865738431E+02  0.13225052131E+03  0.12509137231E+03 0.  0.
         23    2    1    2    0    0  0.23087625014E+02  0.12744500382E+02  0.51964485837E+02  0.10043915806E+03  0.81806209822E+02 0.  0.
          5    1    3    3  502    0  0.29665509573E+02  0.13998318713E+02  0.59171171416E+02  0.67784181869E+02  0.41800000000E+01 0.  1.
         -5    1    3    3    0  502 -0.52753134587E+02 -0.26742819095E+02 -0.25305432985E+02  0.64466339437E+02  0.41800000000E+01 0.  1.
        -11    1    4    4    0    0  0.35198164037E+02 -0.24430173669E+02  0.42205756513E+02  0.60142081939E+02  0.00000000000E+00 0. -1.
         11    1    4    4    0    0 -0.12110539023E+02  0.37174674051E+02  0.97587293247E+01  0.40297076125E+02  0.00000000000E+00 0.  1.
</event>
<event>
 8    1  0.8619230E-006  0.1534160E+03  0.7561462E-02  0.1196337E+00
          1   -1    0    0  501    0  0.00000000000E+00  0.00000000000E+00  0.55421436595E+03  0.55421436595E+03  0.00000000000E+00 0. -1.
         -1   -1    0    0    0  501 -0.00000000000E+00 -0.00000000000E+00 -0.57577848785E+02  0.57577848785E+02  0.00000000000E+00 0.  1.
         23    2    1    2    0    0 -0.84266773308E+02  0.86131124634E+02  0.13362252357E+03  0.21913838135E+03  0.12508873514E+03 0.  0.
         23    2    1    2    0    0  0.84266773308E+02 -0.86131124634E+02  0.36301399360E+03  0.39265383339E+03  0.88760428202E+02 0.  0.
          5    1    3    3  502    0 -0.49278252942E+02  0.11644958767E+03  0.88852633364E+02  0.15459985620E+03  0.41800000000E+01 0.  1.
         -5    1    3    3    0  502 -0.34988520366E+02 -0.30318463041E+02  0.44769890206E+02  0.64538525143E+02  0.41800000000E+01 0.  1.
        -11    1    4    4    0    0 -0.78332004489E+01 -0.16850707489E+02  0.95846157061E+01  0.20908616176E+02  0.00000000000E+00 0. -1.
         11    1    4    4    0    0  0.92099973756E+02 -0.69280417145E+02  0.35342937789E+03  0.37174521722E+03  0.00000000000E+00 0.  1.
</event>
<event>
 7    1  0.8619230E-006  0.2453553E+03  0.7561462E-02  0.1116276E+00
          2   -1    0    0  501    0  0.00000000000E+00  0.00000000000E+00  0.52099375983E+03  0.52099375983E+03  0.00000000000E+00 0. -1.
         -2   -1    0    0    0  501 -0.00000000000E+00 -0.00000000000E+00 -0.18165638976E+03  0.18165638976E+03  0.00000000000E+00 0.  1.
         23    2    1    2    0    0  0.11325012840E+03  0.17051739367E+03  0.28873165654E+03  0.36543939733E+03  0.90984671805E+02 0.  0.
          5    1    1    2  502    0 -0.76507041690E+02  0.14538323888E+02  0.11400804626E+03  0.13813036343E+03  0.41800000000E+01 0. -1.
         -5    1    1    2    0  502 -0.36743086708E+02 -0.18505571756E+03 -0.63402332739E+02  0.19908038883E+03  0.41800000000E+01 0.  1.
        -11    1    3    3    0    0  0.97780625434E+02  0.65118141559E+02  0.15196780769E+03  0.19208237203E+03  0.00000000000E+00 0. -1.
         11    1    3    3    0    0  0.15469502965E+02  0.10539925211E+03  0.13676384886E+03  0.17335702530E+03  0.00000000000E+00 0.  1.
</event>
<event>
 8    1  0.8619230E-006  0.1240673E+03  0.7561462E-02  0.1236534E+00
          2   -1    0    0  501    0  0.00000000000E+00  0.00000000000E+00  0.83008919837E+03  0.83008919837E+03  0.00000000000E+00 0. -1.
         -2   -1    0    0    0  501 -0.00000000000E+00 -0.00000000000E+00 -0.27761648660E+02  0.27761648660E+02  0.00000000000E+00 0.  1.
         23    2    1    2    0    0  0.68734672163E+02  0.72044372838E+02  0.32953388928E+03  0.36627141693E+03  0.12508924757E+03 0.  0.
         23    2    1    2    0    0 -0.68734672163E+02 -0.72044372838E+02  0.47279366043E+03  0.49157943010E+03  0.90562928085E+02 0.  0.
          5    1    3    3  502    0  0.21690990310E+02  0.62246969087E+02  0.30516378291E+03  0.31223002902E+03  0.41800000000E+01 0. -1.
         -5    1    3    3    0  502  0.47043681853E+02  0.97974037515E+01  0.24370106373E+02  0.54041387910E+02  0.41800000000E+01 0. -1.
        -11    1    4    4    0    0 -0.85441456465E+02 -0.33380488873E+02  0.34709971975E+03  0.35901631574E+03  0.00000000000E+00 0.  1.
         11    1    4    4    0    0  0.16706784302E+02 -0.38663883965E+02  0.12569394068E+03  0.13256311436E+03  0.00000000000E+00 0. -1.
</event>
<event>
 8    1  0.8619230E-006  0.1297216E+03  0.7561462E-02  0.1227869E+00
         -2   -1    0    0    0  501 -0.00000000000E+00  0.00000000000E+00  0.78363957888E+02  0.78363957888E+02  0.00000000000E+00 0.  1.
          2   -1    0    0  501    0  0.00000000000E+00 -0.00000000000E+00 -0.23654865580E+03  0.23654865580E+03  0.00000000000E+00 0. -1.
         23    2    1    2    0    0 -0.25118944174E+02 -0.75935077896E+02 -0.10274477356E+03  0.18055840607E+03  0.12509097528E+03 0.  0.
         23    2    1    2    0    0  0.25118944174E+02  0.75935077896E+02 -0.55439924350E+02  0.13435420762E+03  0.92630289221E+02 0.  0.
          5    1    3    3  502    0  0.43029696336E+02 -0.66291003213E+02 -0.48464105467E+02  0.92802444970E+02  0.41800000000E+01 0.  1.
         -5    1    3    3    0  502 -0.68148640510E+02 -0.96440746834E+01 -0.54280668094E+02  0.87755961100E+02  0.41800000000E+01 0.  1.
        -11    1    4    4    0    0 -0.18605328387E+02  0.63087306572E+02 -0.59378769997E+02  0.88611538872E+02  0.00000000000E+00 0. -1.
         11    1    4    4    0    0  0.43724272561E+02  0.12847771324E+02  0.39388456464E+01  0.45742668746E+02  0.00000000000E+00 0.  1.
</event>
<event>
 8    1  0.8619230E-006  0.7668504E+02  0.7561462E-02  0.1338731E+00
          2   -1    0    0  501    0  0.00000000000E+00  0.00000000000E+00  0.30116688350E+03  0.30116688350E+03  0.00000000000E+00 0. -1.
         -2   -1    0    0    0  501 -0.00000000000E+00 -0.00000000000E+00 -0.63311738740E+02  0.63311738740E+02  0.00000000000E+00 0.  1.
         23    2    1    2    0    0  0.19971059694E+02  0.70604876368E+02  0.73767280318E+02  0.16273942249E+03  0.12513439254E+03 0.  0.
         23    2    1    2    0    0 -0.19971059694E+02 -0.70604876368E+02  0.16408786444E+03  0.20173919975E+03  0.91596864931E+02 0.  0.
          5    1    3    3  502    0  0.18434141854E+02  0.21477011956E+02 -0.33870193075E+02  0.44336689179E+02  0.41800000000E+01 0.  1.
         -5    1    3    3    0  502  0.15369178405E+01  0.49127864412E+02  0.10763747339E+03  0.11840273332E+03  0.41800000000E+01 0.  1.
        -11    1    4    4    0    0 -0.19143752428E+02 -0.35642581187E+02  0.73166410494E+01  0.41114597006E+02  0.00000000000E+00 0.  1.
         11    1    4    4    0    0 -0.82730726551E+00 -0.34962295181E+02  0.15677122339E+03  0.16062460274E+03  0.00000000000E+00 0. -1.
</event>
<event>
 8    1  0.8619230E-006  0.8601860E+02  0.7561462E-02  0.1312790E+00
         -3   -1    0    0    0  501 -0.00000000000E+00  0.00000000000E+00  0.95464874330E+02  0.95464874330E+02  0.00000000000E+00 0.  1.
          3   -1    0    0  501    0  0.00000000000E+00 -0.00000000000E+00 -0.15170449855E+03  0.15170449855E+03  0.00000000000E+00 0. -1.
         23    2    1    2    0    0 -0.29973926792E+02  0.10216961529E+02  0.80327048386E+01  0.12928366090E+03  0.12508764143E+03 0.  0.
         23    2    1    2    0    0  0.29973926792E+02 -0.10216961529E+02 -0.64272329058E+02  0.11788571198E+03  0.93612425539E+02 0.  0.
          5    1    3    3  502    0 -0.38841945026E+02  0.51472930323E+02  0.40160780118E+02  0.76082323236E+02  0.41800000000E+01 0.  1.
         -5    1    3    3    0  502  0.88680182341E+01 -0.41255968794E+02 -0.32128075279E+02  0.53201337668E+02  0.41800000000E+01 0.  1.
        -11    1    4    4    0    0 -0.44546089281E+01  0.19211585746E+02  0.16214053579E+02  0.25530846070E+02  0.00000000000E+00 0.  1.
         11    1    4    4    0    0  0.34428535720E+02 -0.29428547275E+02 -0.80486382637E+02  0.92354865906E+02  0.00000000000E+00 0. -1.
</event>
<event>
 8    1  0.8619230E-006  0.7538844E+02  0.7561462E-02  0.1342672E+00
         -3   -1    0    0    0  501 -0.00000000000E+00  0.00000000000E+00  0.99089732437E+02  0.99089732437E+02  0.00000000000E+00 0.  1.
          3   -1    0    0  501    0  0.00000000000E+00 -0.00000000000E+00 -0.13821801621E+03  0.13821801621E+03  0.00000000000E+00 0. -1.
         23    2    1    2    0    0 -0.48189771993E+01  0.51222962615E+01  0.21066294148E+02  0.12709573955E+03  0.12514023255E+03 0.  0.
         23    2    1    2    0    0  0.48189771993E+01 -0.51222962615E+01 -0.60194577919E+02  0.11021200909E+03  0.92053458798E+02 0.  0.
          5    1    3    3  502    0  0.16079733924E+02 -0.19698656265E+02 -0.45858275773E+02  0.52602744782E+02  0.41800000000E+01 0.  1.
         -5    1    3    3    0  502 -0.20898711123E+02  0.24820952527E+02  0.66924569921E+02  0.74492994772E+02  0.41800000000E+01 0.  1.
        -11    1    4    4    0    0  0.47606320732E+02 -0.11645718777E+02 -0.30564432639E+02  0.57759580002E+02  0.00000000000E+00 0. -1.
         11    1    4    4    0    0 -0.42787343533E+02  0.65234225154E+01 -0.29630145280E+02  0.52452429088E+02  0.00000000000E+00 0.  1.
</event>
<event>
 8    1  0.8619230E-006  0.1334427E+03  0.7561462E-02  0.1222435E+00
         -2   -1    0    0    0  501 -0.00000000000E+00  0.00000000000E+00  0.15050053351E+03  0.15050053351E+03  0.00000000000E+00 0.  1.
          2   -1    0    0  501    0  0.00000000000E+00 -0.00000000000E+00 -0.21023629281E+03  0.21023629281E+03  0.00000000000E+00 0. -1.
         23    2    1    2    0    0 -0.68706407227E+02 -0.10244363441E+03  0.36357495924E+02  0.17939950018E+03  0.12508814704E+03 0.  0.
         23    2    1    2    0    0  0.68706407227E+02  0.10244363441E+03 -0.96093255224E+02  0.18133732615E+03  0.91837048786E+02 0.  0.
          5    1    3    3  502    0 -0.83685446790E+02 -0.81995124311E+02 -0.18631141426E+02  0.11870571278E+03  0.41800000000E+01 0. -1.
         -5    1    3    3    0  502  0.14979039563E+02 -0.20448510095E+02  0.54988637350E+02  0.60693787400E+02  0.41800000000E+01 0. -1.
        -11    1    4    4    0    0  0.41926712841E+02  0.72815146397E+02 -0.77422956565E+01  0.84379132115E+02  0.00000000000E+00 0.  1.
         11    1    4    4    0    0  0.26779694386E+02  0.29628488008E+02 -0.88350959568E+02  0.96958194030E+02  0.00000000000E+00 0. -1.
</event>
<event>
 8    1  0.8619230E-006  0.1066711E+03  0.7561462E-02  0.1266862E+00
         -1   -1    0    0    0  501 -0.00000000000E+00  0.00000000000E+00  0.51076949966E+02  0.51076949966E+02  0.00000000000E+00 0.  1.
          1   -1    0    0  501    0  0.00000000000E+00 -0.00000000000E+00 -0.26816752718E+03  0.26816752718E+03  0.00000000000E+00 0. -1.
         23    2    1    2    0    0 -0.10202096494E+02 -0.39924477065E+02 -0.10495561103E+03  0.16840648440E+03  0.12508803724E+03 0.  0.
         23    2    1    2    0    0  0.10202096494E+02  0.39924477065E+02 -0.11213496618E+03  0.15083799275E+03  0.92085844583E+02 0.  0.
          5    1    3    3  502    0 -0.53485249667E+02 -0.46937414464E+02 -0.22201456037E+02  0.74660363371E+02  0.41800000000E+01 0. -1.
         -5    1    3    3    0  502  0.43283153173E+02  0.70129373989E+01 -0.82754154998E+02  0.93746121034E+02  0.41800000000E+01 0. -1.
        -11    1    4    4    0    0 -0.34994207987E+02 -0.37098017362E+01 -0.23962157412E+02  0.42573961636E+02  0.00000000000E+00 0.  1.
         11    1    4    4    0    0  0.45196304481E+02  0.43634278801E+02 -0.88172808772E+02  0.10826403111E+03  0.00000000000E+00 0. -1.
</event>
<event>
 8    1  0.8619230E-006  0.1268596E+03  0.7561462E-02  0.1232191E+00
         -2   -1    0    0    0  501 -0.00000000000E+00  0.00000000000E+00  0.60304276022E+03  0.60304276022E+03  0.00000000000E+00 0.  1.
          2   -1    0    0  501    0  0.00000000000E+00 -0.00000000000E+00 -0.33731006730E+02  0.33731006730E+02  0.00000000000E+00 0. -1.
         23    2    1    2    0    0  0.60525685939E+02 -0.60392252950E+02  0.38801740092E+03  0.41405688841E+03  0.11651189018E+03 0.  0.
         23    2    1    2    0    0 -0.60525685939E+02  0.60392252950E+02  0.18129435257E+03  0.22271687854E+03  0.97080290666E+02 0.  0.
          5    1    3    3  502    0  0.76990601843E+02  0.25529272639E+01  0.17414674054E+03  0.19046949848E+03  0.41800000000E+01 0. -1.
         -5    1    3    3    0  502 -0.16464915904E+02 -0.62945180214E+02  0.21387066037E+03  0.22358738993E+03  0.41800000000E+01 0.  1.
        -11    1    4    4    0    0 -0.49964418093E+02 -0.10406877986E+00  0.14016709633E+03  0.14880614503E+03  0.00000000000E+00 0.  1.
         11    1    4    4    0    0 -0.10561267846E+02  0.60496321729E+02  0.41127256245E+02  0.73910733507E+02  0.00000000000E+00 0. -1.
</event>
<event>
 8    1  0.8619230E-006  0.1249639E+03  0.7561462E-02  0.1235126E+00
         -2   -1    0    0    0  501 -0.00000000000E+00  0.00000000000E+00  0.22432147967E+02  0.22432147967E+02  0.00000000000E+00 0.  1.
          2   -1    0    0  501    0  0.00000000000E+00 -0.00000000000E+00 -0.92101883099E+03  0.92101883099E+03  0.00000000000E+00 0. -1.
         23    2    1    2    0    0 -0.80552244278E+01 -0.62279713836E+02 -0.25960818534E+03  0.29493283639E+03  0.12508124836E+03 0.  0.
         23    2    1    2    0    0  0.80552244278E+01  0.62279713836E+02 -0.63897849768E+03  0.64851814256E+03  0.91315997163E+02 0.  0.
          5    1    3    3  502    0 -0.60623249746E+02 -0.44371472961E+01 -0.98589189855E+02  0.11589722793E+03  0.41800000000E+01 0. -1.
         -5    1    3    3    0  502  0.52568025318E+02 -0.57842566539E+02 -0.16101899548E+03  0.17903560846E+03  0.41800000000E+01 0. -1.
        -11    1    4    4    0    0 -0.26898599009E+02  0.69947360106E+02 -0.44510758770E+03  0.45137227699E+03  0.00000000000E+00 0.  1.
         11    1    4    4    0    0  0.34953823437E+02 -0.76676462703E+01 -0.19387090999E+03  0.19714586557E+03  0.00000000000E+00 0. -1.
</event>
<event>
 8    1  0.8619230E-006  0.1108548E+03  0.7561462E-02  0.1258995E+00
          1   -1    0    0  501    0  0.00000000000E+00  0.00000000000E+00  0.13024922540E+03  0.13024922540E+03  0.00000000000E+00 0. -1.
         -1   -1    0    0    0  501 -0.00000000000E+00 -0.00000000000E+00 -0.11384378659E+03  0.11384378659E+03  0.00000000000E+00 0.  1.
         23    2    1    2    0    0  0.37340312148E+02  0.29323471834E+00  0.14399870290E+02  0.13132313486E+03  0.12507607520E+03 0.  0.
         23    2    1    2    0    0 -0.37340312148E+02 -0.29323471834E+00  0.20055685195E+01  0.11276987713E+03  0.10638908771E+03 0.  0.
          5    1    3    3  502    0  0.66298946926E+02  0.32177744523E+02  0.36928233580E+02  0.82535594996E+02  0.41800000000E+01 0. -1.
         -5    1    3    3    0  502 -0.28958634778E+02 -0.31884509804E+02 -0.22528363290E+02  0.48787539866E+02  0.41800000000E+01 0. -1.
        -11    1    4    4    0    0 -0.42176095003E+02  0.43484030057E+02 -0.19656886001E+02  0.63687338043E+02  0.00000000000E+00 0. -1.
         11    1    4    4    0    0  0.48357828551E+01 -0.43777264776E+02  0.21662454521E+02  0.49082539084E+02  0.00000000000E+00 0.  1.
</event>
<event>
 8    1  0.8619230E-006  0.9699683E+02  0.7561462E-02  0.1286741E+00
         -1   -1    0    0    0  501 -0.00000000000E+00  0.00000000000E+00  0.20145231276E+03  0.20145231276E+03  0.00000000000E+00 0.  1.
          1   -1    0    0  501    0  0.00000000000E+00 -0.00000000000E+00 -0.91518591360E+02  0.91518591360E+02  0.00000000000E+00 0. -1.
         23    2    1    2    0    0  0.13262198425E+01 -0.69922978602E+02  0.91367135595E+02  0.16995444292E+03  0.12508228255E+03 0.  0.
         23    2    1    2    0    0 -0.13262198425E+01  0.69922978602E+02  0.18566585808E+02  0.12301646120E+03  0.99485425172E+02 0.  0.
          5    1    3    3  502    0  0.37725940226E+02 -0.66875095845E+02  0.61463387595E+01  0.77141265807E+02  0.41800000000E+01 0. -1.
         -5    1    3    3    0  502 -0.36399720384E+02 -0.30478827575E+01  0.85220796835E+02  0.92813177117E+02  0.41800000000E+01 0. -1.
        -11    1    4    4    0    0  0.19090410967E+02  0.35613076009E+02  0.55484533288E+02  0.68638680114E+02  0.00000000000E+00 0.  1.
         11    1    4    4    0    0 -0.20416630809E+02  0.34309902593E+02 -0.36917947479E+02  0.54377781084E+02  0.00000000000E+00 0. -1.
</event>
<event>
 8    1  0.8619230E-006  0.1248663E+03  0.7561462E-02  0.1235278E+00
          2   -1    0    0  501    0  0.00000000000E+00  0.00000000000E+00  0.64774140283E+03  0.64774140283E+03  0.00000000000E+00 0. -1.
         -2   -1    0    0    0  501 -0.00000000000E+00 -0.00000000000E+00 -0.28474922183E+02  0.28474922183E+02  0.00000000000E+00 0.  1.
         23    2    1    2    0    0  0.62003726068E+02 -0.50671300964E+02  0.30482963829E+03  0.33908762857E+03  0.12508904302E+03 0.  0.
         23    2    1    2    0    0 -0.62003726068E+02  0.50671300964E+02  0.31443684236E+03  0.33712869644E+03  0.91505121949E+02 0.  0.
          5    1    3    3  502    0 -0.37938302533E+02 -0.55583026773E+01  0.87622785328E+02  0.95736275447E+02  0.41800000000E+01 0.  1.
         -5    1    3    3    0  502  0.99942028602E+02 -0.45112998286E+02  0.21720685296E+03  0.24335135312E+03  0.41800000000E+01 0.  1.
        -11    1    4    4    0    0 -0.28635948653E+02  0.60255027588E+02  0.28141726601E+03  0.28921681057E+03  0.00000000000E+00 0. -1.
         11    1    4    4    0    0 -0.33367777415E+02 -0.95837266246E+01  0.33019576342E+02  0.47911885868E+02  0.00000000000E+00 0.  1.
</event>
<event>
 8    1  0.8619230E-006  0.5750184E+02  0.7561462E-02  0.1408625E+00
          2   -1    0    0  501    0  0.00000000000E+00  0.00000000000E+00  0.15158779886E+03  0.15158779886E+03  0.00000000000E+00 0. -1.
         -2   -1    0    0    0  501 -0.00000000000E+00 -0.00000000000E+00 -0.11891675871E+03  0.11891675871E+03  0.00000000000E+00 0.  1.
         23    2    1    2    0    0  0.27895195248E+02 -0.17014248086E+02 -0.54931022728E+02  0.14046836819E+03  0.12508524552E+03 0.  0.
         23    2    1    2    0    0 -0.27895195248E+02  0.17014248086E+02  0.87602062884E+02  0.13003618938E+03  0.90375121421E+02 0.  0.
          5    1    3    3  502    0  0.92726162963E+01 -0.16145596641E+02 -0.94564274807E+02  0.96470390139E+02  0.41800000000E+01 0. -1.
         -5    1    3    3    0  502  0.18622578952E+02 -0.86865144504E+00  0.39633252079E+02  0.43997978050E+02  0.41800000000E+01 0. -1.
        -11    1    4    4    0    0 -0.12529537204E+02  0.44006964192E+02  0.87764698907E+02  0.98975979783E+02  0.00000000000E+00 0. -1.
         11    1    4    4    0    0 -0.15365658044E+02 -0.26992716106E+02 -0.16263602213E+00  0.31060209600E+02  0.00000000000E+00 0.  1.
</event>
<event>
 8    1  0.8619230E-006  0.3964445E+03  0.7561462E-02  0.1045018E+00
         -1   -1    0    0    0  501 -0.00000000000E+00  0.00000000000E+00  0.12810544252E+03  0.12810544252E+03  0.00000000000E+00 0.  1.
          1   -1    0    0  501    0  0.00000000000E+00 -0.00000000000E+00 -0.16420016219E+04  0.16420016219E+04  0.00000000000E+00 0. -1.
         23    2    1    2    0    0 -0.22414385358E+03  0.31997962263E+03 -0.35058623278E+03  0.53961639094E+03  0.12509083404E+03 0.  0.
         23    2    1    2    0    0  0.22414385358E+03 -0.31997962263E+03 -0.11633099466E+04  0.12304906735E+04  0.90497733111E+02 0.  0.
          5    1    3    3  502    0 -0.17316635192E+02  0.91552806385E+02 -0.13267594553E+03  0.16217941032E+03  0.41800000000E+01 0. -1.
         -5    1    3    3    0  502 -0.20682721839E+03  0.22842681624E+03 -0.21791028726E+03  0.37743698062E+03  0.41800000000E+01 0. -1.
        -11    1    4    4    0    0  0.11256152172E+03 -0.13944185113E+03 -0.40167101483E+03  0.43983375288E+03  0.00000000000E+00 0.  1.
         11    1    4    4    0    0  0.11158233186E+03 -0.18053777150E+03 -0.76163893182E+03  0.79065692066E+03  0.00000000000E+00 0. -1.
</event>
<event>
 8    1  0.8619230E-006  0.1021780E+03  0.7561462E-02  0.1275781E+00
         -2   -1    0    0    0  501 -0.00000000000E+00  0.00000000000E+00  0.98401003344E+02  0.98401003344E+02  0.00000000000E+00 0.  1.
          2   -1    0    0  501    0  0.00000000000E+00 -0.00000000000E+00 -0.19567259072E+03  0.19567259072E+03  0.00000000000E+00 0. -1.
         23    2    1    2    0    0  0.53467656115E+02  0.54297512562E+02 -0.12352367194E+02  0.14699492455E+03  0.12509163340E+03 0.  0.
         23    2    1    2    0    0 -0.53467656115E+02 -0.54297512562E+02 -0.84919220185E+02  0.14707866952E+03  0.92810834221E+02 0.  0.
          5    1    3    3  502    0  0.43123195843E+02  0.65478519686E+02 -0.58698689844E+02  0.98030888751E+02  0.41800000000E+01 0.  1.
         -5    1    3    3    0  502  0.10344460273E+02 -0.11181007124E+02  0.46346322650E+02  0.48964035800E+02  0.41800000000E+01 0.  1.
        -11    1    4    4    0    0 -0.21355377334E+02 -0.70793762115E+02 -0.82658404030E+02  0.11090635984E+03  0.00000000000E+00 0. -1.
         11    1    4    4    0    0 -0.32112278781E+02  0.16496249553E+02 -0.22608161557E+01  0.36172309679E+02  0.00000000000E+00 0.  1.
</event>
<event>
 8    1  0.8619230E-006  0.1057809E+03  0.7561462E-02  0.1268589E+00
          1   -1    0    0  501    0  0.00000000000E+00  0.00000000000E+00  0.41715956535E+03  0.41715956535E+03  0.00000000000E+00 0. -1.
         -1   -1    0    0    0  501 -0.00000000000E+00 -0.00000000000E+00 -0.43174250477E+02  0.43174250477E+02  0.00000000000E+00 0.  1.
         23    2    1    2    0    0 -0.50756491690E+02 -0.99618859281E+01  0.10784049988E+03  0.17310187006E+03  0.12513681867E+03 0.  0.
         23    2    1    2    0    0  0.50756491690E+02  0.99618859281E+01  0.26614481500E+03  0.28723194576E+03  0.94834948713E+02 0.  0.
          5    1    3    3  502    0 -0.75691315707E+02  0.10762113712E+02  0.11638526110E+03  0.13931259730E+03  0.41800000000E+01 0.  1.
         -5    1    3    3    0  502  0.24934824017E+02 -0.20723999640E+02 -0.85447612198E+01  0.33789272767E+02  0.41800000000E+01 0.  1.
        -11    1    4    4    0    0 -0.44570193651E+01  0.39455825673E+02  0.15143214686E+03  0.15655134079E+03  0.00000000000E+00 0. -1.
         11    1    4    4    0    0  0.55213511055E+02 -0.29493939745E+02  0.11471266814E+03  0.13068060497E+03  0.00000000000E+00 0.  1.
</event>
<event>
 8    1  0.8619230E-006  0.2258048E+03  0.7561462E-02  0.1129628E+00
         -2   -1    0    0    0  501 -0.00000000000E+00  0.00000000000E+00  0.16460029528E+03  0.16460029528E+03  0.00000000000E+00 0.  1.
          2   -1    0    0  501    0  0.00000000000E+00 -0.00000000000E+00 -0.44167214943E+03  0.44167214943E+03  0.00000000000E+00 0. -1.
         23    2    1    2    0    0 -0.21587616493E+03  0.41022828972E+02 -0.16595988156E+02  0.25339190529E+03  0.12508652909E+03 0.  0.
         23    2    1    2    0    0  0.21587616493E+03 -0.41022828972E+02 -0.26047586599E+03  0.35288053942E+03  0.91605716292E+02 0.  0.
          5    1    3    3  502    0 -0.63055923136E+02  0.46069117184E+02 -0.55092592863E+02  0.95661273194E+02  0.41800000000E+01 0. -1.
         -5    1    3    3    0  502 -0.15282024179E+03 -0.50462882119E+01  0.38496604708E+02  0.15773063209E+03  0.41800000000E+01 0. -1.
        -11    1    4    4    0    0  0.12670513968E+03 -0.15222598358E+02 -0.21376875117E+03  0.24896385058E+03  0.00000000000E+00 0. -1.
         11    1    4    4    0    0  0.89171025252E+02 -0.25800230614E+02 -0.46707114825E+02  0.10391668884E+03  0.00000000000E+00 0.  1.
</event>
<event>
 8    1  0.8619230E-006  0.1286634E+03  0.7561462E-02  0.1229453E+00
         -1   -1    0    0    0  501 -0.00000000000E+00  0.00000000000E+00  0.42562011894E+02  0.42562011894E+02  0.00000000000E+00 0.  1.
          1   -1    0    0  501    0  0.00000000000E+00 -0.00000000000E+00 -0.48938288393E+03  0.48938288393E+03  0.00000000000E+00 0. -1.
         23    2    1    2    0    0 -0.13186977356E+01 -0.94957673016E+02 -0.22253869280E+03  0.27238048908E+03  0.12509581293E+03 0.  0.
         23    2    1    2    0    0  0.13186977356E+01  0.94957673016E+02 -0.22428217924E+03  0.25956440675E+03  0.89735648971E+02 0.  0.
          5    1    3    3  502    0  0.50392332687E+02 -0.38810498982E+02 -0.42031700582E+02  0.76352984740E+02  0.41800000000E+01 0. -1.
         -5    1    3    3    0  502 -0.51711030423E+02 -0.56147174034E+02 -0.18050699221E+03  0.19602750434E+03  0.41800000000E+01 0. -1.
        -11    1    4    4    0    0 -0.32091139315E+02  0.63978418569E+02 -0.18849745689E+03  0.20162928984E+03  0.00000000000E+00 0.  1.
         11    1    4    4    0    0  0.33409837051E+02  0.30979254447E+02 -0.35784722352E+02  0.57935116912E+02  0.00000000000E+00 0. -1.
</event>
<event>
 8    1  0.8619230E-006  0.1378229E+03  0.7561462E-02  0.1216289E+00
          1   -1    0    0  501    0  0.00000000000E+00  0.00000000000E+00  0.11725404233E+03  0.11725404233E+03  0.00000000000E+00 0. -1.
         -1   -1    0    0    0  501 -0.00000000000E+00 -0.00000000000E+00 -0.18726439756E+03  0.18726439756E+03  0.00000000000E+00 0.  1.
         23    2    1    2    0    0 -0.28544853772E+02 -0.81035604074E+02 -0.89964906494E+02  0.17640147499E+03  0.12506885373E+03 0.  0.
         23    2    1    2    0    0  0.28544853772E+02  0.81035604074E+02  0.19954551263E+02  0.12811696490E+03  0.92920367928E+02 0.  0.
          5    1    3    3  502    0 -0.68998795291E+01  0.33253844160E+02 -0.11802897111E+02  0.36196785342E+02  0.41800000000E+01 0. -1.
         -5    1    3    3    0  502 -0.21644974243E+02 -0.11428944823E+03 -0.78162009383E+02  0.14020468964E+03  0.41800000000E+01 0. -1.
        -11    1    4    4    0    0 -0.67840390381E+00  0.93326209578E+02  0.61257692149E+01  0.93529496281E+02  0.00000000000E+00 0. -1.
         11    1    4    4    0    0  0.29223257676E+02 -0.12290605505E+02  0.13828782048E+02  0.34587468624E+02  0.00000000000E+00 0.  1.
</event>
<event>
 8    1  0.8619230E-006  0.8896008E+02  0.7561462E-02  0.1305390E+00
         -2   -1    0    0    0  501 -0.00000000000E+00  0.00000000000E+00  0.32536060921E+02  0.32536060921E+02  0.00000000000E+00 0.  1.
          2   -1    0    0  501    0  0.00000000000E+00 -0.00000000000E+00 -0.42658400119E+03  0.42658400119E+03  0.00000000000E+00 0. -1.
         23    2    1    2    0    0  0.35512548172E+02 -0.20771310275E+02 -0.18288008491E+03  0.22535692786E+03  0.12509209036E+03 0.  0.
         23    2    1    2    0    0 -0.35512548172E+02  0.20771310275E+02 -0.21116785536E+03  0.23376313425E+03  0.91437144468E+02 0.  0.
          5    1    3    3  502    0  0.73822211220E+02  0.19304167079E+01 -0.15732377512E+03  0.17384386097E+03  0.41800000000E+01 0. -1.
         -5    1    3    3    0  502 -0.38309663048E+02 -0.22701726983E+02 -0.25556309789E+02  0.51513066895E+02  0.41800000000E+01 0. -1.
        -11    1    4    4    0    0 -0.36607682949E+02 -0.17791004727E+01 -0.20771492181E+03  0.21092362692E+03  0.00000000000E+00 0. -1.
         11    1    4    4    0    0  0.10951347776E+01  0.22550410748E+02 -0.34529335504E+01  0.22839507332E+02  0.00000000000E+00 0.  1.
</event>
<event>
 8    1  0.8619230E-006  0.9919016E+02  0.7561462E-02  0.1282008E+00
          1   -1    0    0  501    0  0.00000000000E+00  0.00000000000E+00  0.41142297411E+03  0.41142297411E+03  0.00000000000E+00 0. -1.
         -1   -1    0    0    0  501 -0.00000000000E+00 -0.00000000000E+00 -0.45485529563E+02  0.45485529563E+02  0.00000000000E+00 0.  1.
         23    2    1    2    0    0  0.80033279711E+02 -0.16669630559E+02  0.16535414220E+03  0.22287440551E+03  0.12509119011E+03 0.  0.
         23    2    1    2    0    0 -0.80033279711E+02  0.16669630559E+02  0.20058330235E+03  0.23403409817E+03  0.88628976531E+02 0.  0.
          5    1    3    3  502    0  0.57270854572E+02  0.75552594854E+01  0.39750580551E+01  0.58054338475E+02  0.41800000000E+01 0. -1.
         -5    1    3    3    0  502  0.22762425139E+02 -0.24224890045E+02  0.16137908415E+03  0.16482006703E+03  0.41800000000E+01 0. -1.
        -11    1    4    4    0    0 -0.66396157910E+02  0.41735539915E+02  0.18627875527E+03  0.20211402659E+03  0.00000000000E+00 0.  1.
         11    1    4    4    0    0 -0.13637121801E+02 -0.25065909356E+02  0.14304547077E+02  0.31920071584E+02  0.00000000000E+00 0. -1.
</event>
<event>
 8    1  0.8619230E-006  0.9495467E+02  0.7561462E-02  0.1291278E+00
         -1   -1    0    0    0  501 -0.00000000000E+00  0.00000000000E+00  0.30356625291E+02  0.30356625291E+02  0.00000000000E+00 0.  1.
          1   -1    0    0  501    0  0.00000000000E+00 -0.00000000000E+00 -0.51345217594E+03  0.51345217594E+03  0.00000000000E+00 0. -1.
         23    2    1    2    0    0 -0.19126531365E+02 -0.41263158136E+02 -0.19083518573E+03  0.23262156582E+03  0.12500500931E+03 0.  0.
         23    2    1    2    0    0  0.19126531365E+02  0.41263158136E+02 -0.29226036492E+03  0.31118723541E+03  0.96710403550E+02 0.  0.
          5    1    3    3  502    0 -0.69860174135E+01  0.22580339735E+02  0.64595750908E+01  0.24857085352E+02  0.41800000000E+01 0. -1.
         -5    1    3    3    0  502 -0.12140513951E+02 -0.63843497871E+02 -0.19729476082E+03  0.20776448047E+03  0.41800000000E+01 0. -1.
        -11    1    4    4    0    0  0.47650127225E+02 -0.34206047493E+01 -0.87677957484E+02  0.99848181706E+02  0.00000000000E+00 0.  1.
         11    1    4    4    0    0 -0.28523595860E+02  0.44683762885E+02 -0.20458240744E+03  0.21133905370E+03  0.00000000000E+00 0. -1.
</event>
<event>
 8    1  0.8619230E-006  0.1014696E+03  0.7561462E-02  0.1277236E+00
          2   -1    0    0  501    0  0.00000000000E+00  0.00000000000E+00  0.75111207463E+02  0.75111207463E+02  0.00000000000E+00 0. -1.
         -2   -1    0    0    0  501 -0.00000000000E+00 -0.00000000000E+00 -0.15047451853E+03  0.15047451853E+03  0.00000000000E+00 0.  1.
         23    2    1    2    0    0 -0.16804332546E+02  0.14582762407E+02 -0.33934545559E+02  0.13149257342E+03  0.12507478135E+03 0.  0.
         23    2    1    2    0    0  0.16804332546E+02 -0.14582762407E+02 -0.41428765507E+02  0.94093152572E+02  0.81499301824E+02 0.  0.
          5    1    3    3  502    0 -0.35623703687E+02 -0.45291686019E+02  0.42127627421E+01  0.57927582866E+02  0.41800000000E+01 0. -1.
         -5    1    3    3    0  502  0.18819371141E+02  0.59874448425E+02 -0.38147308301E+02  0.73564990552E+02  0.41800000000E+01 0. -1.
        -11    1    4    4    0    0  0.23683250622E+02 -0.45121702166E+02 -0.14990819009E+02  0.53118631580E+02  0.00000000000E+00 0. -1.
         11    1    4    4    0    0 -0.68789180757E+01  0.30538939759E+02 -0.26437946499E+02  0.40974520993E+02  0.00000000000E+00 0.  1.
</event>
<event>
 8    1  0.8619230E-006  0.1745770E+03  0.7561462E-02  0.1173157E+00
         -1   -1    0    0    0  501 -0.00000000000E+00  0.00000000000E+00  0.18179835556E+03  0.18179835556E+03  0.00000000000E+00 0.  1.
          1   -1    0    0  501    0  0.00000000000E+00 -0.00000000000E+00 -0.20431423764E+03  0.20431423764E+03  0.00000000000E+00 0. -1.
         23    2    1    2    0    0 -0.95583123612E+02 -0.10810841524E+03  0.53711820373E+02  0.19838449823E+03  0.12509151260E+03 0.  0.
         23    2    1    2    0    0  0.95583123612E+02  0.10810841524E+03 -0.76227702454E+02  0.18772809498E+03  0.92777217349E+02 0.  0.
          5    1    3    3  502    0 -0.73526683260E+02  0.15447691329E+01 -0.12900268897E+01  0.73672898900E+02  0.41800000000E+01 0. -1.
         -5    1    3    3    0  502 -0.22056440351E+02 -0.10965318437E+03  0.55001847263E+02  0.12471159933E+03  0.41800000000E+01 0. -1.
        -11    1    4    4    0    0  0.70451539815E+02  0.11727843104E+03 -0.39708471222E+02  0.14245845898E+03  0.00000000000E+00 0.  1.
         11    1    4    4    0    0  0.25131583796E+02 -0.91700157960E+01 -0.36519231233E+02  0.45269636001E+02  0.00000000000E+00 0. -1.
</event>
<event>
 8    1  0.8619230E-006  0.2804207E+03  0.7561462E-02  0.1095459E+00
          3   -1    0    0  501    0  0.00000000000E+00  0.00000000000E+00  0.70644284749E+03  0.70644284749E+03  0.00000000000E+00 0. -1.
         -3   -1    0    0    0  501 -0.00000000000E+00 -0.00000000000E+00 -0.11222996760E+03  0.11222996760E+03  0.00000000000E+00 0.  1.
         23    2    1    2    0    0  0.18962491256E+03  0.17737597741E+03  0.29806311464E+03  0.41461959517E+03  0.12509174058E+03 0.  0.
         23    2    1    2    0    0 -0.18962491256E+03 -0.17737597741E+03  0.29614976526E+03  0.40405321993E+03  0.90191331291E+02 0.  0.
          5    1    3    3  502    0  0.39899888518E+02  0.11836938182E+03  0.15617992272E+03  0.20003237817E+03  0.41800000000E+01 0.  1.
         -5    1    3    3    0  502  0.14972502405E+03  0.59006595594E+02  0.14188319191E+03  0.21458721699E+03  0.41800000000E+01 0.  1.
        -11    1    4    4    0    0 -0.20013398818E+02 -0.73053040037E+02  0.81410611533E+02  0.11119788874E+03  0.00000000000E+00 0. -1.
         11    1    4    4    0    0 -0.16961151375E+03 -0.10432293738E+03  0.21473915373E+03  0.29285533118E+03  0.00000000000E+00 0.  1.
</event>
<event>
 8    1  0.8619230E-006  0.9446873E+02  0.7561462E-02  0.1292377E+00
         -4   -1    0    0    0  501 -0.00000000000E+00  0.00000000000E+00  0.69108129216E+02  0.69108129216E+02  0.00000000000E+00 0.  1.
          4   -1    0    0  501    0  0.00000000000E+00 -0.00000000000E+00 -0.17790697307E+03  0.17790697307E+03  0.00000000000E+00 0. -1.
         23    2    1    2    0    0 -0.17108596529E+02 -0.21610993318E+02 -0.52013770151E+02  0.13824927258E+03  0.12509072698E+03 0.  0.
         23    2    1    2    0    0  0.17108596529E+02  0.21610993318E+02 -0.56785073700E+02  0.10876582970E+03  0.88576080342E+02 0.  0.
          5    1    3    3  502    0 -0.61288494317E+02 -0.21947324230E+02 -0.64919331047E+02  0.92032366699E+02  0.41800000000E+01 0.  1.
         -5    1    3    3    0  502  0.44179897788E+02  0.33633091180E+00  0.12905560896E+02  0.46216905880E+02  0.41800000000E+01 0.  1.
        -11    1    4    4    0    0 -0.26244009503E+02  0.24465112487E+02 -0.54512132620E+02  0.65259959903E+02  0.00000000000E+00 0. -1.
         11    1    4    4    0    0  0.43352606032E+02 -0.28541191690E+01 -0.22729410798E+01  0.43505869801E+02  0.00000000000E+00 0.  1.
</event>
<event>
 8    1  0.8619230E-006  0.1073891E+03  0.7561462E-02  0.1265483E+00
          1   -1    0    0  501    0  0.00000000000E+00  0.00000000000E+00  0.30719028305E+03  0.30719028305E+03  0.00000000000E+00 0. -1.
         -1   -1    0    0    0  501 -0.00000000000E+00 -0.00000000000E+00 -0.46215048236E+02  0.46215048236E+02  0.00000000000E+00 0.  1.
         23    2    1    2    0    0  0.17486384778E+02  0.16783795126E+02  0.83748451728E+02  0.15246498283E+03  0.12507716974E+03 0.  0.
         23    2    1    2    0    0 -0.17486384778E+02 -0.16783795126E+02  0.17722678309E+03  0.20094034846E+03  0.91543550095E+02 0.  0.
          5    1    3    3  502    0 -0.51791627370E+02 -0.27709405811E+01  0.18515325790E+02  0.55229887438E+02  0.41800000000E+01 0. -1.
         -5    1    3    3    0  502  0.69278012148E+02  0.19554735707E+02  0.65233125938E+02  0.97235095389E+02  0.41800000000E+01 0. -1.
        -11    1    4    4    0    0 -0.47481893369E+02  0.12097111197E+02  0.66190056121E+02  0.82352861678E+02  0.00000000000E+00 0.  1.
         11    1    4    4    0    0  0.29995508591E+02 -0.28880906323E+02  0.11103672697E+03  0.11858748678E+03  0.00000000000E+00 0. -1.
</event>
<event>
 8    1  0.8619230E-006  0.1196146E+03  0.7561462E-02  0.1243734E+00
         -3   -1    0    0    0  501 -0.00000000000E+00  0.00000000000E+00  0.17770143348E+03  0.17770143348E+03  0.00000000000E+00 0.  1.
          3   -1    0    0  501    0  0.00000000000E+00 -0.00000000000E+00 -0.94918670543E+02  0.94918670543E+02  0.00000000000E+00 0. -1.
         23    2    1    2    0    0  0.37770415635E+02 -0.62504328155E+02  0.96786705905E+02  0.17420972947E+03  0.12509183853E+03 0.  0.
         23    2    1    2    0    0 -0.37770415635E+02  0.62504328155E+02 -0.14003942968E+02  0.98410374554E+02  0.64460034640E+02 0.  0.
          5    1    3    3  502    0  0.37707155091E+02 -0.98522734470E+02  0.86591607063E+02  0.13654353726E+03  0.41800000000E+01 0.  1.
         -5    1    3    3    0  502  0.63260544142E-01  0.36018406316E+02  0.10195098842E+02  0.37666192213E+02  0.41800000000E+01 0.  1.
        -11    1    4    4    0    0  0.17133219605E+02  0.27111800703E+02 -0.38126805717E+01  0.32297577069E+02  0.00000000000E+00 0.  1.
         11    1    4    4    0    0 -0.54903635240E+02  0.35392527451E+02 -0.10191262396E+02  0.66112797484E+02  0.00000000000E+00 0. -1.
</event>
<event>
 8    1  0.1051553E-005  0.1973977E+03  0.7561462E-02  0.1151953E+00
         -1   -1    0    0    0  501 -0.00000000000E+00  0.00000000000E+00  0.26009640917E+03  0.26009640917E+03  0.00000000000E+00 0.  1.
          1   -1    0    0  501    0  0.00000000000E+00 -0.00000000000E+00 -0.20041409793E+03  0.20041409793E+03  0.00000000000E+00 0. -1.
         23    2    1    2    0    0  0.13575051427E+03 -0.10941851455E+03  0.13095596842E+03  0.25139133974E+03  0.12509007387E+03 0.  0.
         23    2    1    2    0    0 -0.13575051427E+03  0.10941851455E+03 -0.71273657174E+02  0.20911916737E+03  0.90831043705E+02 0.  0.
          5    1    3    3  502    0  0.10001082754E+03 -0.15853600450E+02  0.22714128422E+02  0.10386003227E+03  0.41800000000E+01 0.  1.
         -5    1    3    3    0  502  0.35739686729E+02 -0.93564914101E+02  0.10824184000E+03  0.14753130747E+03  0.41800000000E+01 0.  1.
        -11    1    4    4    0    0 -0.66072886346E+02  0.10413300012E+03 -0.63775330951E+02  0.13884019901E+03  0.00000000000E+00 0. -1.
         11    1    4    4    0    0 -0.69677627928E+02  0.52855144309E+01 -0.74983262224E+01  0.70278968351E+02  0.00000000000E+00 0.  1.
</event>
<event>
 8    1  0.8619230E-006  0.1151605E+03  0.7561462E-02  0.1251301E+00
          2   -1    0    0  501    0  0.00000000000E+00  0.00000000000E+00  0.41393302815E+02  0.41393302815E+02  0.00000000000E+00 0. -1.
         -2   -1    0    0    0  501 -0.00000000000E+00 -0.00000000000E+00 -0.40329966605E+03  0.40329966605E+03  0.00000000000E+00 0.  1.
         23    2    1    2    0    0 -0.10629355100E+02  0.69201487872E+02 -0.21237468322E+03  0.25621987921E+03  0.12507514270E+03 0.  0.
         23    2    1    2    0    0  0.10629355100E+02 -0.69201487872E+02 -0.14953168002E+03  0.18847308965E+03  0.90887584849E+02 0.  0.
          5    1    3    3  502    0 -0.64164498887E+02  0.15037599017E+02 -0.83358451217E+02  0.10634526830E+03  0.41800000000E+01 0. -1.
         -5    1    3    3    0  502  0.53535143787E+02  0.54163888855E+02 -0.12901623200E+03  0.14987461091E+03  0.41800000000E+01 0. -1.
        -11    1    4    4    0    0  0.26528490851E+02 -0.66877387760E+02 -0.15549576983E+03  0.17133382695E+03  0.00000000000E+00 0.  1.
         11    1    4    4    0    0 -0.15899135751E+02 -0.23241001126E+01  0.59640898079E+01  0.17139262709E+02  0.00000000000E+00 0. -1.
</event>
<event>
 8    1  0.8619230E-006  0.1051481E+03  0.7561462E-02  0.1269828E+00
         -2   -1    0    0    0  501 -0.00000000000E+00  0.00000000000E+00  0.35587804611E+03  0.35587804611E+03  0.00000000000E+00 0.  1.
          2   -1    0    0  501    0  0.00000000000E+00 -0.00000000000E+00 -0.39751283437E+02  0.39751283437E+02  0.00000000000E+00 0. -1.
         23    2    1    2    0    0 -0.43462954839E+02 -0.11586202058E+02  0.19485124150E+03  0.23587433392E+03  0.12508567690E+03 0.  0.
         23    2    1    2    0    0  0.43462954839E+02  0.11586202058E+02  0.12127552117E+03  0.15975499562E+03  0.93758402670E+02 0.  0.
          5    1    3    3  502    0 -0.72138172946E+02  0.31428720886E+02  0.13805256567E+03  0.15895805667E+03  0.41800000000E+01 0. -1.
         -5    1    3    3    0  502  0.28675218106E+02 -0.43014922944E+02  0.56798675833E+02  0.76916277248E+02  0.41800000000E+01 0. -1.
        -11    1    4    4    0    0  0.16046709347E+02 -0.27529854277E+02  0.10430305692E+03  0.10906198898E+03  0.00000000000E+00 0.  1.
         11    1    4    4    0    0  0.27416245492E+02  0.39116056335E+02  0.16972464246E+02  0.50693006645E+02  0.00000000000E+00 0. -1.
</event>
<event>
 8    1  0.8619230E-006  0.1084158E+03  0.7561462E-02  0.1263532E+00
          3   -1    0    0  501    0  0.00000000000E+00  0.00000000000E+00  0.39484255759E+03  0.39484255759E+03  0.00000000000E+00 0. -1.
         -3   -1    0    0    0  501 -0.00000000000E+00 -0.00000000000E+00 -0.51635997069E+02  0.51635997069E+02  0.00000000000E+00 0.  1.
         23    2    1    2    0    0  0.45424286279E+02  0.93542495653E+01  0.62163534227E+02  0.14713569271E+03  0.12503495236E+03 0.  0.
         23    2    1    2    0    0 -0.45424286279E+02 -0.93542495653E+01  0.28104302629E+03  0.29934286195E+03  0.92033138614E+02 0.  0.
          5    1    3    3  502    0  0.28947269312E+02 -0.47996625647E+02 -0.59093233194E+01  0.56515599406E+02  0.41800000000E+01 0. -1.
         -5    1    3    3    0  502  0.16477016967E+02  0.57350875212E+02  0.68072857546E+02  0.90620093303E+02  0.41800000000E+01 0. -1.
        -11    1    4    4    0    0  0.18573183323E+02  0.22620107051E+02  0.55777479171E+02  0.62990154504E+02  0.00000000000E+00 0.  1.
         11    1    4    4    0    0 -0.63997469603E+02 -0.31974356616E+02  0.22526554712E+03  0.23635270745E+03  0.00000000000E+00 0. -1.
</event>
<event>
 8    1  0.8619230E-006  0.1280648E+03  0.7561462E-02  0.1230356E+00
         -2   -1    0    0    0  501 -0.00000000000E+00  0.00000000000E+00  0.20060353491E+02  0.20060353491E+02  0.00000000000E+00 0.  1.
          2   -1    0    0  501    0  0.00000000000E+00 -0.00000000000E+00 -0.84843470938E+03  0.84843470938E+03  0.00000000000E+00 0. -1.
         23    2    1    2    0    0 -0.85988700675E+02  0.95549101240E+01 -0.50621996848E+03  0.52857570947E+03  0.12509305016E+03 0.  0.
         23    2    1    2    0    0  0.85988700675E+02 -0.95549101240E+01 -0.32215438741E+03  0.33991935341E+03  0.65393918234E+02 0.  0.
          5    1    3    3  502    0  0.11186451232E+02 -0.40830961708E+02 -0.14495759811E+03  0.15107111496E+03  0.41800000000E+01 0.  1.
         -5    1    3    3    0  502 -0.97175151907E+02  0.50385871832E+02 -0.36126237037E+03  0.37750459451E+03  0.41800000000E+01 0.  1.
        -11    1    4    4    0    0  0.63179123494E+02 -0.33049790935E+02 -0.26082728204E+03  0.27039741379E+03  0.00000000000E+00 0. -1.
         11    1    4    4    0    0  0.22809577181E+02  0.23494880811E+02 -0.61327105368E+02  0.69521939619E+02  0.00000000000E+00 0.  1.
</event>
<event>
 8    1  0.8619230E-006  0.1023690E+03  0.7561462E-02  0.1275392E+00
         -1   -1    0    0    0  501 -0.00000000000E+00  0.00000000000E+00  0.10997020093E+03  0.10997020093E+03  0.00000000000E+00 0.  1.
          1   -1    0    0  501    0  0.00000000000E+00 -0.00000000000E+00 -0.14421707199E+03  0.14421707199E+03  0.00000000000E+00 0. -1.
         23    2    1    2    0    0  0.30414504110E+02  0.33207177195E+01  0.38795982162E+02  0.13449882911E+03  0.12509491426E+03 0.  0.
         23    2    1    2    0    0 -0.30414504110E+02 -0.33207177195E+01 -0.73042853221E+02  0.11968844381E+03  0.89744058018E+02 0.  0.
          5    1    3    3  502    0  0.22041423314E+02 -0.60168356311E+02  0.14159422030E+02  0.65757258726E+02  0.41800000000E+01 0.  1.
         -5    1    3    3    0  502  0.83730807960E+01  0.63489074031E+02  0.24636560132E+02  0.68741570381E+02  0.41800000000E+01 0.  1.
        -11    1    4    4    0    0 -0.26863154729E+02 -0.35195686167E+02 -0.51159446204E+01  0.44570599010E+02  0.00000000000E+00 0.  1.
         11    1    4    4    0    0 -0.35513493808E+01  0.31874968447E+02 -0.67926908601E+02  0.75117844804E+02  0.00000000000E+00 0. -1.
</event>
<event>
 8    1  0.8619230E-006  0.2201189E+03  0.7561462E-02  0.1133794E+00
         -1   -1    0    0    0  501 -0.00000000000E+00  0.00000000000E+00  0.12333955434E+03  0.12333955434E+03  0.00000000000E+00 0.  1.
          1   -1    0    0  501    0  0.00000000000E+00 -0.00000000000E+00 -0.43705691319E+03  0.43705691319E+03  0.00000000000E+00 0. -1.
         23    2    1    2    0    0  0.41826704868E+02 -0.19814146256E+03 -0.12798364666E+03  0.27025151053E+03  0.12508618111E+03 0.  0.
         23    2    1    2    0    0 -0.41826704868E+02  0.19814146256E+03 -0.18573371219E+03  0.29014495700E+03  0.93153485204E+02 0.  0.
          5    1    3    3  502    0  0.64002952077E+02 -0.11491691832E+03 -0.21690545003E+02  0.13338001399E+03  0.41800000000E+01 0.  1.
         -5    1    3    3    0  502 -0.22176247209E+02 -0.83224544240E+02 -0.10629310165E+03  0.13687149653E+03  0.41800000000E+01 0.  1.
        -11    1    4    4    0    0  0.27963725239E+02  0.84867035054E+02 -0.65157858766E+02  0.11058901450E+03  0.00000000000E+00 0. -1.
         11    1    4    4    0    0 -0.69790430107E+02  0.11327442750E+03 -0.12057585342E+03  0.17955594251E+03  0.00000000000E+00 0.  1.
</event>
<event>
 8    1  0.8619230E-006  0.2298097E+03  0.7561462E-02  0.1126774E+00
          1   -1    0    0  501    0  0.00000000000E+00  0.00000000000E+00  0.59164790876E+03  0.59164790876E+03  0.00000000000E+00 0. -1.
         -1   -1    0    0    0  501 -0.00000000000E+00 -0.00000000000E+00 -0.95096424401E+02  0.95096424401E+02  0.00000000000E+00 0.  1.
         23    2    1    2    0    0  0.72866359285E+01 -0.20938437279E+03  0.22382692038E+03  0.33111322300E+03  0.12507024237E+03 0.  0.
         23    2    1    2    0    0 -0.72866359285E+01  0.20938437279E+03  0.27272456398E+03  0.35563111016E+03  0.90553233441E+02 0.  0.
          5    1    3    3  502    0 -0.30400629199E+02 -0.20320992123E+03  0.19144882167E+03  0.28087113425E+03  0.41800000000E+01 0. -1.
         -5    1    3    3    0  502  0.37687265128E+02 -0.61744515618E+01  0.32378098712E+02  0.50242088742E+02  0.41800000000E+01 0. -1.
        -11    1    4    4    0    0 -0.28686887903E+02  0.14590049158E+03  0.12818032316E+03  0.19631629129E+03  0.00000000000E+00 0.  1.
         11    1    4    4    0    0  0.21400251974E+02  0.63483881207E+02  0.14454424082E+03  0.15931481887E+03  0.00000000000E+00 0. -1.
</event>
<event>
 8    1  0.9525746E-006  0.1057778E+03  0.7561462E-02  0.1268595E+00
          2   -1    0    0  501    0  0.00000000000E+00  0.00000000000E+00  0.63092077312E+03  0.63092077312E+03  0.00000000000E+00 0. -1.
         -2   -1    0    0    0  501 -0.00000000000E+00 -0.00000000000E+00 -0.24986678549E+02  0.24986678549E+02  0.00000000000E+00 0.  1.
         23    2    1    2    0    0  0.98560277706E+01  0.58841795899E+02  0.28344875935E+03  0.31551562049E+03  0.12508960535E+03 0.  0.
         23    2    1    2    0    0 -0.98560277706E+01 -0.58841795899E+02  0.32248533522E+03  0.34039183118E+03  0.91160896634E+02 0.  0.
          5    1    3    3  502    0 -0.21513787155E+02  0.78994911323E+02  0.10524733808E+03  0.13340732224E+03  0.41800000000E+01 0. -1.
         -5    1    3    3    0  502  0.31369814925E+02 -0.20153115424E+02  0.17820142127E+03  0.18210829825E+03  0.41800000000E+01 0. -1.
        -11    1    4    4    0    0 -0.37269599661E+02 -0.51692945997E+02  0.29159435379E+03  0.29847688501E+03  0.00000000000E+00 0. -1.
         11    1    4    4    0    0  0.27413571891E+02 -0.71488499021E+01  0.30890981436E+02  0.41914946175E+02  0.00000000000E+00 0.  1.
</event>
<event>
 7    1  0.8619230E-006  0.8577452E+02  0.7561462E-02  0.1313419E+00
          2   -1    0    0  501    0  0.00000000000E+00  0.00000000000E+00  0.28002476546E+03  0.28002476546E+03  0.00000000000E+00 0. -1.
         -2   -1    0    0    0  501 -0.00000000000E+00 -0.00000000000E+00 -0.39554808244E+02  0.39554808244E+02  0.00000000000E+00 0.  1.
         23    2    1    2    0    0 -0.60816287933E+02 -0.26638208663E+02  0.11083344575E+03  0.17116319522E+03  0.11227008355E+03 0.  0.
          5    1    3    3  502    0  0.15191101152E+02 -0.23223266386E+02 -0.87236598523E+01  0.29388165936E+02  0.41800000000E+01 0. -1.
         -5    1    3    3    0  502 -0.76007389085E+02 -0.34149422763E+01  0.11955710561E+03  0.14177502928E+03  0.41800000000E+01 0.  1.
        -11    1    1    2    0    0  0.42816993626E+02  0.24030513181E+02  0.11509544328E+03  0.12513081783E+03  0.00000000000E+00 0. -1.
         11    1    1    2    0    0  0.17999294307E+02  0.26076954820E+01  0.14541068181E+02  0.23285560658E+02  0.00000000000E+00 0.  1.
</event>
<event>
 7    1  0.8619230E-006  0.1077671E+03  0.7561462E-02  0.1264762E+00
          2   -1    0    0  501    0  0.00000000000E+00  0.00000000000E+00  0.23502283899E+03  0.23502283899E+03  0.00000000000E+00 0. -1.
         -2   -1    0    0    0  501 -0.00000000000E+00 -0.00000000000E+00 -0.14616229992E+03  0.14616229992E+03  0.00000000000E+00 0.  1.
         23    2    1    2    0    0  0.18826920235E+01  0.39933879406E+02  0.18863205925E+03  0.21257533678E+03  0.89487210111E+02 0.  0.
          5    1    1    2  502    0  0.54021066094E+02  0.15758787796E+02 -0.34690474735E+02  0.66238330384E+02  0.41800000000E+01 0. -1.
         -5    1    1    2    0  502 -0.55903758118E+02 -0.55692667202E+02 -0.65081045451E+02  0.10237147175E+03  0.41800000000E+01 0.  1.
        -11    1    3    3    0    0 -0.33745971527E+02  0.20848319491E+02  0.32452437311E+02  0.51250402021E+02  0.00000000000E+00 0.  1.
         11    1    3    3    0    0  0.35628663550E+02  0.19085559915E+02  0.15617962194E+03  0.16132493475E+03  0.00000000000E+00 0. -1.
</event>
<event>
 8    1  0.8619230E-006  0.9514394E+02  0.7561462E-02  0.1290852E+00
         -1   -1    0    0    0  501 -0.00000000000E+00  0.00000000000E+00  0.14469147139E+03  0.14469147139E+03  0.00000000000E+00 0.  1.
          1   -1    0    0  501    0  0.00000000000E+00 -0.00000000000E+00 -0.12086372223E+03  0.12086372223E+03  0.00000000000E+00 0. -1.
         23    2    1    2    0    0 -0.11334284516E+02 -0.61769369815E+02  0.56840662323E+02  0.15107155244E+03  0.12509129470E+03 0.  0.
         23    2    1    2    0    0  0.11334284516E+02  0.61769369815E+02 -0.33012913165E+02  0.11448364118E+03  0.89848375667E+02 0.  0.
          5    1    3    3  502    0 -0.32413240002E+02  0.31211944361E+01  0.73687225080E+02  0.80669941876E+02  0.41800000000E+01 0. -1.
         -5    1    3    3    0  502  0.21078955486E+02 -0.64890564251E+02 -0.16846562758E+02  0.70401610564E+02  0.41800000000E+01 0. -1.
        -11    1    4    4    0    0  0.33614221263E+02  0.57217890456E+02 -0.52436201304E+02  0.84577526960E+02  0.00000000000E+00 0. -1.
         11    1    4    4    0    0 -0.22279936747E+02  0.45514793591E+01  0.19423288139E+02  0.29906114223E+02  0.00000000000E+00 0.  1.
</event>
<event>
 8    1  0.8619230E-006  0.1769001E+03  0.7561462E-02  0.1170837E+00
         -1   -1    0    0    0  501 -0.00000000000E+00  0.00000000000E+00  0.73554349086E+03  0.73554349086E+03  0.00000000000E+00 0.  1.
          1   -1    0    0  501    0  0.00000000000E+00 -0.00000000000E+00 -0.52467402038E+02  0.52467402038E+02  0.00000000000E+00 0. -1.
         23    2    1    2    0    0 -0.16000130991E+03  0.31673706986E+02  0.36133680064E+03  0.41570888082E+03  0.12508376078E+03 0.  0.
         23    2    1    2    0    0  0.16000130991E+03 -0.31673706986E+02  0.32173928818E+03  0.37230201208E+03  0.92135637797E+02 0.  0.
          5    1    3    3  502    0 -0.46376210720E+02  0.24440913114E+02  0.25328811547E+03  0.25868987802E+03  0.41800000000E+01 0. -1.
         -5    1    3    3    0  502 -0.11362509918E+03  0.72327938719E+01  0.10804868517E+03  0.15701900280E+03  0.41800000000E+01 0. -1.
        -11    1    4    4    0    0  0.10302835283E+03  0.25950053460E+02  0.17822585444E+03  0.20749145031E+03  0.00000000000E+00 0. -1.
         11    1    4    4    0    0  0.56972957079E+02 -0.57623760446E+02  0.14351343374E+03  0.16481056177E+03  0.00000000000E+00 0.  1.
</event>
<event>
 8    1  0.8619230E-006  0.3256277E+03  0.7561462E-02  0.1073088E+00
          1   -1    0    0  501    0  0.00000000000E+00  0.00000000000E+00  0.10369448558E+04  0.10369448558E+04  0.00000000000E+00 0. -1.
         -1   -1    0    0    0  501 -0.00000000000E+00 -0.00000000000E+00 -0.12030845297E+03  0.12030845297E+03  0.00000000000E+00 0.  1.
         23    2    1    2    0    0  0.10190956054E+02 -0.31190157633E+03  0.25618424951E+03  0.42269719358E+03  0.12512433363E+03 0.  0.
         23    2    1    2    0    0 -0.10190956054E+02  0.31190157633E+03  0.66045215333E+03  0.73455611518E+03  0.77389861228E+02 0.  0.
          5    1    3    3  502    0  0.21945867871E+02  0.15758473682E+01  0.19661049329E+02  0.29801571640E+02  0.41800000000E+01 0. -1.
         -5    1    3    3    0  502 -0.11754911816E+02 -0.31347742370E+03  0.23652320018E+03  0.39289562194E+03  0.41800000000E+01 0. -1.
        -11    1    4    4    0    0 -0.25795383106E+02  0.12811575669E+03  0.34792384498E+03  0.37165851370E+03  0.00000000000E+00 0. -1.
         11    1    4    4    0    0  0.15604427052E+02  0.18378581964E+03  0.31252830834E+03  0.36289760148E+03  0.00000000000E+00 0.  1.
</event>
<event>
 8    1  0.8619230E-006  0.9502173E+02  0.7561462E-02  0.1291127E+00
         -1   -1    0    0    0  501 -0.00000000000E+00  0.00000000000E+00  0.40715950882E+02  0.40715950882E+02  0.00000000000E+00 0.  1.
          1   -1    0    0  501    0  0.00000000000E+00 -0.00000000000E+00 -0.42629890484E+03  0.42629890484E+03  0.00000000000E+00 0. -1.
         23    2    1    2    0    0 -0.25331498699E+02 -0.16407209750E+02 -0.94173785682E+02  0.15946044957E+03  0.12509217285E+03 0.  0.
         23    2    1    2    0    0  0.25331498699E+02  0.16407209750E+02 -0.29140916827E+03  0.30755440615E+03  0.93592350280E+02 0.  0.
          5    1    3    3  502    0 -0.59617890922E+02 -0.19442656872E+02 -0.41431345057E+01  0.62983710496E+02  0.41800000000E+01 0. -1.
         -5    1    3    3    0  502  0.34286392223E+02  0.30354471214E+01 -0.90030651177E+02  0.96476739073E+02  0.41800000000E+01 0. -1.
        -11    1    4    4    0    0  0.24491408847E+02  0.51706474073E+02 -0.12545117688E+03  0.13788178396E+03  0.00000000000E+00 0. -1.
         11    1    4    4    0    0  0.84008985199E+00 -0.35299264323E+02 -0.16595799139E+03  0.16967262219E+03  0.00000000000E+00 0.  1.
</event>
<event>
 8    1  0.8619230E-006  0.1741886E+03  0.7561462E-02  0.1173549E+00
         -2   -1    0    0    0  501 -0.00000000000E+00  0.00000000000E+00  0.49298183622E+02  0.49298183622E+02  0.00000000000E+00 0.  1.
          2   -1    0    0  501    0  0.00000000000E+00 -0.00000000000E+00 -0.89790209211E+03  0.89790209211E+03  0.00000000000E+00 0. -1.
         23    2    1    2    0    0 -0.12823402739E+03 -0.71502769737E+02 -0.20740805059E+03  0.28323336044E+03  0.12508567128E+03 0.  0.
         23    2    1    2    0    0  0.12823402739E+03  0.71502769737E+02 -0.64119585790E+03  0.66396691529E+03  0.90351118165E+02 0.  0.
          5    1    3    3  502    0 -0.95737553339E+02  0.15536759260E+02 -0.12989696763E+03  0.16216585524E+03  0.41800000000E+01 0.  1.
         -5    1    3    3    0  502 -0.32496474046E+02 -0.87039528997E+02 -0.77511082960E+02  0.12106750520E+03  0.41800000000E+01 0.  1.
        -11    1    4    4    0    0  0.59155079019E+02  0.66547291941E+02 -0.22375145564E+03  0.24081648477E+03  0.00000000000E+00 0.  1.
         11    1    4    4    0    0  0.69078948366E+02  0.49554777956E+01 -0.41744440226E+03  0.42315043052E+03  0.00000000000E+00 0. -1.
</event>
<event>
 8    1  0.8619230E-006  0.1060976E+03  0.7561462E-02  0.1267972E+00
         -2   -1    0    0    0  501 -0.00000000000E+00  0.00000000000E+00  0.16823253112E+03  0.16823253112E+03  0.00000000000E+00 0.  1.
          2   -1    0    0  501    0  0.00000000000E+00 -0.00000000000E+00 -0.95891520870E+02  0.95891520870E+02  0.00000000000E+00 0. -1.
         23    2    1    2    0    0  0.46602625982E+02  0.44561323328E+02  0.56041902720E+02  0.15147669761E+03  0.12508788420E+03 0.  0.
         23    2    1    2    0    0 -0.46602625982E+02 -0.44561323328E+02  0.16299107526E+02  0.11264735438E+03  0.90918915835E+02 0.  0.
          5    1    3    3  502    0  0.79816484799E+02 -0.57442081974E+01  0.35631575976E+02  0.87696914313E+02  0.41800000000E+01 0.  1.
         -5    1    3    3    0  502 -0.33213858817E+02  0.50305531525E+02  0.20410326744E+02  0.63779783297E+02  0.41800000000E+01 0.  1.
        -11    1    4    4    0    0 -0.35060790873E+02 -0.11946034006E+02 -0.34875554739E+02  0.50875053842E+02  0.00000000000E+00 0. -1.
         11    1    4    4    0    0 -0.11541835109E+02 -0.32615289322E+02  0.51174662265E+02  0.61772300534E+02  0.00000000000E+00 0.  1.
</event>
<event>
 8    1  0.8619230E-006  0.1541941E+03  0.7561462E-02  0.1195412E+00
         -2   -1    0    0    0  501 -0.00000000000E+00  0.00000000000E+00  0.29069661834E+03  0.29069661834E+03  0.00000000000E+00 0.  1.
          2   -1    0    0  501    0  0.00000000000E+00 -0.00000000000E+00 -0.97968337764E+02  0.97968337764E+02  0.00000000000E+00 0. -1.
         23    2    1    2    0    0 -0.22609673846E+02  0.12297512552E+03  0.13923440417E+03  0.22508906242E+03  0.12507912643E+03 0.  0.
         23    2    1    2    0    0  0.22609673846E+02 -0.12297512552E+03  0.53493876406E+02  0.16357589369E+03  0.90892240235E+02 0.  0.
          5    1    3    3  502    0  0.25053949263E+02  0.37493049062E+01  0.79252560803E+02  0.83307853500E+02  0.41800000000E+01 0.  1.
         -5    1    3    3    0  502 -0.47663623109E+02  0.11922582061E+03  0.59981843372E+02  0.14178120892E+03  0.41800000000E+01 0.  1.
        -11    1    4    4    0    0 -0.29277094132E+02 -0.85126173398E+02  0.36523310455E+02  0.97147135032E+02  0.00000000000E+00 0.  1.
         11    1    4    4    0    0  0.51886767978E+02 -0.37848952121E+02  0.16970565950E+02  0.66428758656E+02  0.00000000000E+00 0. -1.
</event>
<event>
 8    1  0.8619230E-006  0.1341355E+03  0.7561462E-02  0.1221445E+00
         -2   -1    0    0    0  501 -0.00000000000E+00  0.00000000000E+00  0.22470909747E+02  0.22470909747E+02  0.00000000000E+00 0. -1.
          2   -1    0    0  501    0  0.00000000000E+00 -0.00000000000E+00 -0.87611349515E+03  0.87611349515E+03  0.00000000000E+00 0.  1.
         23    2    1    2    0    0 -0.60189075662E+02 -0.50498347412E+02 -0.35491336366E+03  0.38442607804E+03  0.12508839217E+03 0.  0.
         23    2    1    2    0    0  0.60189075662E+02  0.50498347412E+02 -0.49872922174E+03  0.51415832685E+03  0.97237546917E+02 0.  0.
          5    1    3    3  502    0 -0.42909913289E+02  0.35287283416E+02 -0.18571692602E+03  0.19389353274E+03  0.41800000000E+01 0. -1.
         -5    1    3    3    0  502 -0.17279162373E+02 -0.85785630828E+02 -0.16919643764E+03  0.19053254530E+03  0.41800000000E+01 0. -1.
        -11    1    4    4    0    0  0.37597436977E+00  0.63696735031E+02 -0.26233331047E+03  0.26995588749E+03  0.00000000000E+00 0.  1.
         11    1    4    4    0    0  0.59813101292E+02 -0.13198387619E+02 -0.23639591127E+03  0.24420243936E+03  0.00000000000E+00 0. -1.
</event>
<event>
 8    1  0.8619230E-006  0.1064522E+03  0.7561462E-02  0.1267284E+00
         -2   -1    0    0    0  501 -0.00000000000E+00  0.00000000000E+00  0.30672505383E+02  0.30672505383E+02  0.00000000000E+00 0. -1.
          2   -1    0    0  501    0  0.00000000000E+00 -0.00000000000E+00 -0.54730538138E+03  0.54730538138E+03  0.00000000000E+00 0.  1.
         23    2    1    2    0    0 -0.23368585686E+02 -0.53778100581E+02 -0.20255186615E+03  0.24517875134E+03  0.12508871543E+03 0.  0.
         23    2    1    2    0    0  0.23368585686E+02  0.53778100581E+02 -0.31408100984E+03  0.33279913542E+03  0.93113956489E+02 0.  0.
          5    1    3    3  502    0 -0.53859312072E+02 -0.71789563274E+02 -0.18449548618E+03  0.20520873205E+03  0.41800000000E+01 0.  1.
         -5    1    3    3    0  502  0.30490726386E+02  0.18011462693E+02 -0.18056379975E+02  0.39970019285E+02  0.41800000000E+01 0.  1.
        -11    1    4    4    0    0  0.94627556369E+01  0.67325256126E+02 -0.30281480905E+03  0.31035309316E+03  0.00000000000E+00 0.  1.
         11    1    4    4    0    0  0.13905830049E+02 -0.13547155544E+02 -0.11266200796E+02  0.22446042258E+02  0.00000000000E+00 0. -1.
</event>
<event>
 8    1  0.8619230E-006  0.1901147E+03  0.7561462E-02  0.1158358E+00
         -2   -1    0    0    0  501 -0.00000000000E+00  0.00000000000E+00  0.19214326066E+02  0.19214326066E+02  0.00000000000E+00 0.  1.
          2   -1    0    0  501    0  0.00000000000E+00 -0.00000000000E+00 -0.19564193151E+04  0.19564193151E+04  0.00000000000E+00 0. -1.
         23    2    1    2    0    0  0.27889972350E+02 -0.15626178844E+03 -0.11369821944E+04  0.11548049190E+04  0.12510113298E+03 0.  0.
         23    2    1    2    0    0 -0.27889972350E+02  0.15626178844E+03 -0.80022279461E+03  0.82082872215E+03  0.90596208537E+02 0.  0.
          5    1    3    3  502    0 -0.37095058071E+02 -0.97842286851E+01 -0.31344219888E+03  0.31580889617E+03  0.41800000000E+01 0.  1.
         -5    1    3    3    0  502  0.64985030421E+02 -0.14647755976E+03 -0.82353999554E+03  0.83899602284E+03  0.41800000000E+01 0.  1.
        -11    1    4    4    0    0 -0.16951170012E+01  0.15510879652E+03 -0.64379891250E+03  0.66222250937E+03  0.00000000000E+00 0.  1.
         11    1    4    4    0    0 -0.26194855349E+02  0.11529919254E+01 -0.15642388211E+03  0.15860621278E+03  0.00000000000E+00 0. -1.
</event>
<event>
 8    1  0.8619230E-006  0.1207200E+03  0.7561462E-02  0.1241914E+00
         -1   -1    0    0    0  501 -0.00000000000E+00  0.00000000000E+00  0.44201540309E+02  0.44201540309E+02  0.00000000000E+00 0.  1.
          1   -1    0    0  501    0  0.00000000000E+00 -0.00000000000E+00 -0.49405232132E+03  0.49405232132E+03  0.00000000000E+00 0. -1.
         23    2    1    2    0    0 -0.55504325142E+02  0.82297937630E+02 -0.22278821676E+03  0.27410654941E+03  0.12508449246E+03 0.  0.
         23    2    1    2    0    0  0.55504325142E+02 -0.82297937630E+02 -0.22706256425E+03  0.26414731222E+03  0.91447874882E+02 0.  0.
          5    1    3    3  502    0 -0.60768467386E+02  0.71679012291E+02 -0.23708952332E+03  0.25506783784E+03  0.41800000000E+01 0. -1.
         -5    1    3    3    0  502  0.52641422436E+01  0.10618925339E+02  0.14301306561E+02  0.19038711570E+02  0.41800000000E+01 0. -1.
        -11    1    4    4    0    0  0.11408715143E+02  0.20215636917E+02 -0.34410873069E+02  0.41508299683E+02  0.00000000000E+00 0. -1.
         11    1    4    4    0    0  0.44095609999E+02 -0.10251357455E+03 -0.19265169118E+03  0.22263901253E+03  0.00000000000E+00 0.  1.
</event>
<event>
 7    1  0.8619230E-006  0.2025463E+03  0.7561462E-02  0.1147608E+00
          2   -1    0    0  501    0  0.00000000000E+00  0.00000000000E+00  0.90993326439E+03  0.90993326439E+03  0.00000000000E+00 0.  1.
         -2   -1    0    0    0  501 -0.00000000000E+00 -0.00000000000E+00 -0.55769459626E+02  0.55769459626E+02  0.00000000000E+00 0. -1.
         23    2    1    2    0    0 -0.51711825581E+02 -0.15407844819E+03  0.23670208347E+03  0.31319313653E+03  0.12509110021E+03 0.  0.
          5    1    3    3  502    0  0.33369374948E+02 -0.20341190763E+02  0.18437843203E+02  0.43413197165E+02  0.41800000000E+01 0.  1.
         -5    1    3    3    0  502 -0.85081200529E+02 -0.13373725743E+03  0.21826424026E+03  0.26977993937E+03  0.41800000000E+01 0.  1.
        -11    1    1    2    0    0  0.86886672142E+02  0.14787164572E+03  0.45706821004E+03  0.48818712195E+03  0.00000000000E+00 0.  1.
         11    1    1    2    0    0 -0.35174846561E+02  0.62068024712E+01  0.16039351125E+03  0.16432246553E+03  0.00000000000E+00 0. -1.
</event>
<event>
 8    1  0.8619230E-006  0.1570959E+03  0.7561462E-02  0.1192015E+00
          1   -1    0    0  501    0  0.00000000000E+00  0.00000000000E+00  0.79139815278E+02  0.79139815278E+02  0.00000000000E+00 0. -1.
         -1   -1    0    0    0  501 -0.00000000000E+00 -0.00000000000E+00 -0.58497830988E+03  0.58497830988E+03  0.00000000000E+00 0.  1.
         23    2    1    2    0    0 -0.10662141103E+03 -0.77692040955E+02 -0.46360682071E+03  0.49797919705E+03  0.12509123858E+03 0.  0.
         23    2    1    2    0    0  0.10662141103E+03  0.77692040955E+02 -0.42231673895E+02  0.16613892811E+03  0.91730314709E+02 0.  0.
          5    1    3    3  502    0 -0.12271487424E+03 -0.91534127364E+02 -0.34571644692E+03  0.37812004826E+03  0.41800000000E+01 0. -1.
         -5    1    3    3    0  502  0.16093463212E+02  0.13842086408E+02 -0.11789037379E+03  0.11985914878E+03  0.41800000000E+01 0. -1.
        -11    1    4    4    0    0  0.64825362414E+02  0.72554866991E+02 -0.66203168223E+02  0.11768345601E+03  0.00000000000E+00 0.  1.
         11    1    4    4    0    0  0.41796048611E+02  0.51371739642E+01  0.23971494328E+02  0.48455472097E+02  0.00000000000E+00 0. -1.
</event>
<event>
 8    1  0.8619230E-006  0.9256229E+02  0.7561462E-02  0.1296763E+00
         -2   -1    0    0    0  501 -0.00000000000E+00  0.00000000000E+00  0.37874620180E+02  0.37874620180E+02  0.00000000000E+00 0.  1.
          2   -1    0    0  501    0  0.00000000000E+00 -0.00000000000E+00 -0.38219104071E+03  0.38219104071E+03  0.00000000000E+00 0. -1.
         23    2    1    2    0    0  0.14249172325E+02 -0.20846786370E+02 -0.11608857543E+03  0.17251656882E+03  0.12509109384E+03 0.  0.
         23    2    1    2    0    0 -0.14249172325E+02  0.20846786370E+02 -0.22822784510E+03  0.24754909207E+03  0.92493114830E+02 0.  0.
          5    1    3    3  502    0  0.59874335556E+02 -0.29929780298E+02 -0.10486619201E+03  0.12447938959E+03  0.41800000000E+01 0.  1.
         -5    1    3    3    0  502 -0.45625163231E+02  0.90829939281E+01 -0.11222383421E+02  0.48037179228E+02  0.41800000000E+01 0.  1.
        -11    1    4    4    0    0 -0.38440347838E+02 -0.14236119326E+01 -0.36518840386E+02  0.53040670395E+02  0.00000000000E+00 0.  1.
         11    1    4    4    0    0  0.24191175513E+02  0.22270398303E+02 -0.19170900471E+03  0.19450842167E+03  0.00000000000E+00 0. -1.
</event>
<event>
 8    1  0.8619230E-006  0.6008637E+02  0.7561462E-02  0.1397470E+00
         -4   -1    0    0    0  501 -0.00000000000E+00  0.00000000000E+00  0.21908959354E+03  0.21908959354E+03  0.00000000000E+00 0. -1.
          4   -1    0    0  501    0  0.00000000000E+00 -0.00000000000E+00 -0.75057155746E+02  0.75057155746E+02  0.00000000000E+00 0.  1.
         23    2    1    2    0    0  0.59348819167E+00  0.12509044473E+02  0.15789606233E+03  0.20183169625E+03  0.12509212081E+03 0.  0.
         23    2    1    2    0    0 -0.59348819167E+00 -0.12509044473E+02 -0.13863624538E+02  0.92315053037E+02  0.90404869946E+02 0.  0.
          5    1    3    3  502    0  0.25621847081E+02  0.17876823083E+02  0.17022166545E+03  0.17311541711E+03  0.41800000000E+01 0.  1.
         -5    1    3    3    0  502 -0.25028358890E+02 -0.53677786099E+01 -0.12325603115E+02  0.28716279147E+02  0.41800000000E+01 0.  1.
        -11    1    4    4    0    0 -0.24028292463E+02 -0.26220068899E+02 -0.40761830168E+02  0.54096004015E+02  0.00000000000E+00 0.  1.
         11    1    4    4    0    0  0.23434804271E+02  0.13711024426E+02  0.26898205630E+02  0.38219049022E+02  0.00000000000E+00 0. -1.
</event>
<event>
 8    1  0.8619230E-006  0.1400858E+03  0.7561462E-02  0.1213214E+00
         -2   -1    0    0    0  501 -0.00000000000E+00  0.00000000000E+00  0.20407561763E+02  0.20407561763E+02  0.00000000000E+00 0.  1.
          2   -1    0    0  501    0  0.00000000000E+00 -0.00000000000E+00 -0.13727914614E+04  0.13727914614E+04  0.00000000000E+00 0. -1.
         23    2    1    2    0    0 -0.11726606031E+03  0.47001892462E+02 -0.76195589985E+03  0.78242357997E+03  0.12509739559E+03 0.  0.
         23    2    1    2    0    0  0.11726606031E+03 -0.47001892462E+02 -0.59042799974E+03  0.61077544314E+03  0.92091868670E+02 0.  0.
          5    1    3    3  502    0 -0.11965561757E+03  0.47203260247E+02 -0.39502413333E+03  0.41546017006E+03  0.41800000000E+01 0.  1.
         -5    1    3    3    0  502  0.23895572537E+01 -0.20136778512E+00 -0.36693176652E+03  0.36696340992E+03  0.41800000000E+01 0.  1.
        -11    1    4    4    0    0 -0.71440591111E+01 -0.17345256848E+02 -0.26135909156E+02  0.32171124679E+02  0.00000000000E+00 0.  1.
         11    1    4    4    0    0  0.12441011942E+03 -0.29656635614E+02 -0.56429209058E+03  0.57860431846E+03  0.00000000000E+00 0. -1.
</event>
<event>
 8    1  0.8619230E-006  0.1068157E+03  0.7561462E-02  0.1266583E+00
         -2   -1    0    0    0  501 -0.00000000000E+00  0.00000000000E+00  0.23877503570E+02  0.23877503570E+02  0.00000000000E+00 0.  1.
          2   -1    0    0  501    0  0.00000000000E+00 -0.00000000000E+00 -0.55735064823E+03  0.55735064823E+03  0.00000000000E+00 0. -1.
         23    2    1    2    0    0 -0.39631307573E+01  0.19376885542E+02 -0.22074513092E+03  0.25449465596E+03  0.12509175428E+03 0.  0.
         23    2    1    2    0    0  0.39631307573E+01 -0.19376885542E+02 -0.31272801374E+03  0.32673349584E+03  0.92546186452E+02 0.  0.
          5    1    3    3  502    0 -0.34240272893E+02  0.61218261277E+02 -0.92389377578E+02  0.11607472288E+03  0.41800000000E+01 0.  1.
         -5    1    3    3    0  502  0.30277142136E+02 -0.41841375735E+02 -0.12835575334E+03  0.13841993308E+03  0.41800000000E+01 0.  1.
        -11    1    4    4    0    0  0.23926563446E+02  0.29950272235E+02 -0.17345905243E+03  0.17764442607E+03  0.00000000000E+00 0. -1.
         11    1    4    4    0    0 -0.19963432689E+02 -0.49327157777E+02 -0.13926896131E+03  0.14908906977E+03  0.00000000000E+00 0.  1.
</event>
<event>
 8    1  0.8619230E-006  0.1066064E+03  0.7561462E-02  0.1266987E+00
         -3   -1    0    0    0  501 -0.00000000000E+00  0.00000000000E+00  0.34483202567E+03  0.34483202567E+03  0.00000000000E+00 0.  1.
          3   -1    0    0  501    0  0.00000000000E+00 -0.00000000000E+00 -0.40309891235E+02  0.40309891235E+02  0.00000000000E+00 0. -1.
         23    2    1    2    0    0  0.10954263942E+02 -0.16359064704E+02  0.24157127573E+03  0.27275493956E+03  0.12510380051E+03 0.  0.
         23    2    1    2    0    0 -0.10954263942E+02  0.16359064704E+02  0.62950858706E+02  0.11238697734E+03  0.90996742624E+02 0.  0.
          5    1    3    3  502    0  0.30917121414E+01 -0.70117286956E+02  0.15865345096E+03  0.17353496050E+03  0.41800000000E+01 0. -1.
         -5    1    3    3    0  502  0.78625518004E+01  0.53758222253E+02  0.82917824767E+02  0.99219979060E+02  0.41800000000E+01 0. -1.
        -11    1    4    4    0    0  0.20077770378E+02  0.43036433191E+02  0.51150144272E+02  0.69796767147E+02  0.00000000000E+00 0.  1.
         11    1    4    4    0    0 -0.31032034320E+02 -0.26677368487E+02  0.11800714434E+02  0.42590210197E+02  0.00000000000E+00 0. -1.
</event>
<event>
 8    1  0.8619230E-006  0.9362276E+02  0.7561462E-02  0.1294308E+00
         -1   -1    0    0    0  501 -0.00000000000E+00  0.00000000000E+00  0.28871273496E+02  0.28871273496E+02  0.00000000000E+00 0.  1.
          1   -1    0    0  501    0  0.00000000000E+00 -0.00000000000E+00 -0.47491013592E+03  0.47491013592E+03  0.00000000000E+00 0. -1.
         23    2    1    2    0    0  0.17820355144E+02 -0.28961140737E+02 -0.19784453133E+03  0.23652891213E+03  0.12508858846E+03 0.  0.
         23    2    1    2    0    0 -0.17820355144E+02  0.28961140737E+02 -0.24819433109E+03  0.26725249729E+03  0.93097575646E+02 0.  0.
          5    1    3    3  502    0  0.54983334477E+02  0.14123400447E+02 -0.15517618142E+03  0.16528689358E+03  0.41800000000E+01 0.  1.
         -5    1    3    3    0  502 -0.37162979333E+02 -0.43084541183E+02 -0.42668349913E+02  0.71242018543E+02  0.41800000000E+01 0.  1.
        -11    1    4    4    0    0 -0.17942962286E+02  0.49541986912E+02 -0.23894991992E+03  0.24469046281E+03  0.00000000000E+00 0. -1.
         11    1    4    4    0    0  0.12260714191E+00 -0.20580846176E+02 -0.92444111752E+01  0.22562034478E+02  0.00000000000E+00 0.  1.
</event>
<event>
 8    1  0.8619230E-006  0.8637887E+02  0.7561462E-02  0.1311866E+00
          1   -1    0    0  501    0  0.00000000000E+00  0.00000000000E+00  0.49543673139E+03  0.49543673139E+03  0.00000000000E+00 0. -1.
         -1   -1    0    0    0  501 -0.00000000000E+00 -0.00000000000E+00 -0.28889623723E+02  0.28889623723E+02  0.00000000000E+00 0.  1.
         23    2    1    2    0    0  0.23257706275E+02 -0.18820501149E+02  0.17116557310E+03  0.21410356013E+03  0.12509016300E+03 0.  0.
         23    2    1    2    0    0 -0.23257706275E+02  0.18820501149E+02  0.29538153457E+03  0.31022279499E+03  0.89959987770E+02 0.  0.
          5    1    3    3  502    0  0.43782518993E+02  0.80672965212E+01  0.17423561716E+03  0.17988194165E+03  0.41800000000E+01 0. -1.
         -5    1    3    3    0  502 -0.20524812718E+02 -0.26887797670E+02 -0.30700440673E+01  0.34221618478E+02  0.41800000000E+01 0. -1.
        -11    1    4    4    0    0 -0.28685240988E+02  0.52510302843E+02  0.16748598533E+03  0.17785311422E+03  0.00000000000E+00 0.  1.
         11    1    4    4    0    0  0.54275347136E+01 -0.33689801694E+02  0.12789554925E+03  0.13236968077E+03  0.00000000000E+00 0. -1.
</event>
<event>
 8    1  0.8619230E-006  0.1108886E+03  0.7561462E-02  0.1258933E+00
         -1   -1    0    0    0  501 -0.00000000000E+00  0.00000000000E+00  0.98628198118E+02  0.98628198118E+02  0.00000000000E+00 0.  1.
          1   -1    0    0  501    0  0.00000000000E+00 -0.00000000000E+00 -0.16786890577E+03  0.16786890577E+03  0.00000000000E+00 0. -1.
         23    2    1    2    0    0 -0.55777719187E+02 -0.41963708397E+02 -0.46982420147E+02  0.15075713933E+03  0.12509300731E+03 0.  0.
         23    2    1    2    0    0  0.55777719187E+02  0.41963708397E+02 -0.22258287504E+02  0.11573996455E+03  0.89600230199E+02 0.  0.
          5    1    3    3  502    0 -0.57907639987E+02  0.80514429809E+01 -0.73454521925E+02  0.93974250165E+02  0.41800000000E+01 0.  1.
         -5    1    3    3    0  502  0.21299207996E+01 -0.50015151378E+02  0.26472101778E+02  0.56782889170E+02  0.41800000000E+01 0.  1.
        -11    1    4    4    0    0 -0.11292337341E+02 -0.19123768381E+02  0.47974086802E+00  0.22214084519E+02  0.00000000000E+00 0.  1.
         11    1    4    4    0    0  0.67070056528E+02  0.61087476777E+02 -0.22738028372E+02  0.93525880033E+02  0.00000000000E+00 0. -1.
</event>
<event>
 8    1  0.8619230E-006  0.1665719E+03  0.7561462E-02  0.1181471E+00
         -1   -1    0    0    0  501 -0.00000000000E+00  0.00000000000E+00  0.32420636839E+03  0.32420636839E+03  0.00000000000E+00 0.  1.
          1   -1    0    0  501    0  0.00000000000E+00 -0.00000000000E+00 -0.11449797155E+03  0.11449797155E+03  0.00000000000E+00 0. -1.
         23    2    1    2    0    0  0.19162014905E+02  0.13711564716E+03  0.20440603333E+03  0.27427539321E+03  0.11948757822E+03 0.  0.
         23    2    1    2    0    0 -0.19162014905E+02 -0.13711564716E+03  0.53023635121E+01  0.16442894672E+03  0.88548743350E+02 0.  0.
          5    1    3    3  502    0  0.11004534945E+02 -0.21068187928E+02  0.21958627065E+02  0.32628546313E+02  0.41800000000E+01 0. -1.
         -5    1    3    3    0  502  0.81574799601E+01  0.15818383509E+03  0.18244740627E+03  0.24164684690E+03  0.41800000000E+01 0.  1.
        -11    1    4    4    0    0  0.17963076284E+02 -0.16608500324E+02  0.27048886480E+02  0.36471312732E+02  0.00000000000E+00 0. -1.
         11    1    4    4    0    0 -0.37125091189E+02 -0.12050714684E+03 -0.21746522968E+02  0.12795763399E+03  0.00000000000E+00 0.  1.
</event>
<event>
 8    1  0.8619230E-006  0.1284963E+03  0.7561462E-02  0.1229704E+00
          1   -1    0    0  501    0  0.00000000000E+00  0.00000000000E+00  0.11055935826E+03  0.11055935826E+03  0.00000000000E+00 0. -1.
         -1   -1    0    0    0  501 -0.00000000000E+00 -0.00000000000E+00 -0.17437759040E+03  0.17437759040E+03  0.00000000000E+00 0.  1.
         23    2    1    2    0    0  0.62008748725E+02  0.37862518158E+02 -0.77058356896E+02  0.16390271989E+03  0.12508979183E+03 0.  0.
         23    2    1    2    0    0 -0.62008748725E+02 -0.37862518158E+02  0.13240124759E+02  0.12103422878E+03  0.95892275146E+02 0.  0.
          5    1    3    3  502    0  0.97837405707E+02  0.12446791809E+02 -0.64879536668E+02  0.11812665770E+03  0.41800000000E+01 0.  1.
         -5    1    3    3    0  502 -0.35828656982E+02  0.25415726349E+02 -0.12178820228E+02  0.45776062184E+02  0.41800000000E+01 0.  1.
        -11    1    4    4    0    0 -0.82091507294E+02 -0.14531126363E+02  0.26553668096E+02  0.87494379777E+02  0.00000000000E+00 0. -1.
         11    1    4    4    0    0  0.20082758569E+02 -0.23331391796E+02 -0.13313543337E+02  0.33539849002E+02  0.00000000000E+00 0.  1.
</event>
<event>
 8    1  0.8619230E-006  0.1302425E+03  0.7561462E-02  0.1227096E+00
          1   -1    0    0  501    0  0.00000000000E+00  0.00000000000E+00  0.58320664256E+02  0.58320664256E+02  0.00000000000E+00 0. -1.
         -1   -1    0    0    0  501 -0.00000000000E+00 -0.00000000000E+00 -0.39592260498E+03  0.39592260498E+03  0.00000000000E+00 0.  1.
         23    2    1    2    0    0  0.74752755514E+02 -0.51768551307E+02 -0.26608605315E+03  0.30776201627E+03  0.12509082147E+03 0.  0.
         23    2    1    2    0    0 -0.74752755514E+02  0.51768551307E+02 -0.71515887574E+02  0.14648125296E+03  0.89856986001E+02 0.  0.
          5    1    3    3  502    0  0.10303367774E+03 -0.65467883337E+02 -0.22313464246E+03  0.25437870108E+03  0.41800000000E+01 0. -1.
         -5    1    3    3    0  502 -0.28280922230E+02  0.13699332030E+02 -0.42951410685E+02  0.53383315184E+02  0.41800000000E+01 0. -1.
        -11    1    4    4    0    0 -0.32178470699E+02  0.55233859255E+02 -0.87459864427E+00  0.63929634033E+02  0.00000000000E+00 0. -1.
         11    1    4    4    0    0 -0.42574284815E+02 -0.34653079481E+01 -0.70641288929E+02  0.82551618932E+02  0.00000000000E+00 0.  1.
</event>
<event>
 8    1  0.8619230E-006  0.9179091E+02  0.7561462E-02  0.1298572E+00
         -2   -1    0    0    0  501 -0.00000000000E+00  0.00000000000E+00  0.37635031858E+02  0.37635031858E+02  0.00000000000E+00 0.  1.
          2   -1    0    0  501    0  0.00000000000E+00 -0.00000000000E+00 -0.33937343093E+03  0.33937343093E+03  0.00000000000E+00 0. -1.
         23    2    1    2    0    0  0.19815911000E+02 -0.93488121664E+01 -0.18210795900E+03  0.22202249598E+03  0.12510239554E+03 0.  0.
         23    2    1    2    0    0 -0.19815911000E+02  0.93488121664E+01 -0.11963044007E+03  0.15498596681E+03  0.96068398026E+02 0.  0.
          5    1    3    3  502    0 -0.17012907347E+02  0.48289338007E+02 -0.43154617290E+02  0.67090182404E+02  0.41800000000E+01 0.  1.
         -5    1    3    3    0  502  0.36828818347E+02 -0.57638150174E+02 -0.13895334171E+03  0.15493231357E+03  0.41800000000E+01 0.  1.
        -11    1    4    4    0    0 -0.14760879886E+02  0.34766392361E+02 -0.57637461413E+01  0.38207412663E+02  0.00000000000E+00 0.  1.
         11    1    4    4    0    0 -0.50550311142E+01 -0.25417580195E+02 -0.11386669393E+03  0.11677855415E+03  0.00000000000E+00 0. -1.
</event>
<event>
 8    1  0.8619230E-006  0.1421147E+03  0.7561462E-02  0.1210511E+00
         -2   -1    0    0    0  501 -0.00000000000E+00  0.00000000000E+00  0.87827928593E+03  0.87827928593E+03  0.00000000000E+00 0.  1.
          2   -1    0    0  501    0  0.00000000000E+00 -0.00000000000E+00 -0.34083125894E+02  0.34083125894E+02  0.00000000000E+00 0. -1.
         23    2    1    2    0    0  0.93991404378E+02 -0.85061558024E+02  0.56923413487E+03  0.59644351895E+03  0.12509004058E+03 0.  0.
         23    2    1    2    0    0 -0.93991404378E+02  0.85061558024E+02  0.27496202517E+03  0.31591889287E+03  0.90170831414E+02 0.  0.
          5    1    3    3  502    0  0.59382348041E+02 -0.67072671615E+02  0.14563779148E+03  0.17103463171E+03  0.41800000000E+01 0.  1.
         -5    1    3    3    0  502  0.34609056337E+02 -0.17988886410E+02  0.42359634339E+03  0.42540888724E+03  0.41800000000E+01 0.  1.
        -11    1    4    4    0    0 -0.73133364790E+02  0.58020880199E+01  0.12106143704E+03  0.14155573040E+03  0.00000000000E+00 0. -1.
         11    1    4    4    0    0 -0.20858039588E+02  0.79259470004E+02  0.15390058813E+03  0.17436316247E+03  0.00000000000E+00 0.  1.
</event>
<event>
 8    1  0.8619230E-006  0.1097682E+03  0.7561462E-02  0.1261000E+00
          2   -1    0    0  501    0  0.00000000000E+00  0.00000000000E+00  0.66871745388E+03  0.66871745388E+03  0.00000000000E+00 0.  1.
         -2   -1    0    0    0  501 -0.00000000000E+00 -0.00000000000E+00 -0.23712787079E+02  0.23712787079E+02  0.00000000000E+00 0. -1.
         23    2    1    2    0    0 -0.54911391236E+02  0.23982122775E+02  0.33968171484E+03  0.36690861886E+03  0.12509142295E+03 0.  0.
         23    2    1    2    0    0  0.54911391236E+02 -0.23982122775E+02  0.30532295196E+03  0.32552162210E+03  0.95665136603E+02 0.  0.
          5    1    3    3  502    0  0.17157425779E+02 -0.17011975609E+02  0.21936148683E+03  0.22072770302E+03  0.41800000000E+01 0. -1.
         -5    1    3    3    0  502 -0.72068817015E+02  0.40994098384E+02  0.12032022801E+03  0.14618091584E+03  0.41800000000E+01 0. -1.
        -11    1    4    4    0    0  0.26958654591E+02 -0.60368596999E+02  0.15981852289E+03  0.17295403094E+03  0.00000000000E+00 0. -1.
         11    1    4    4    0    0  0.27952736645E+02  0.36386474224E+02  0.14550442907E+03  0.15256759115E+03  0.00000000000E+00 0.  1.
</event>
<event>
 8    1  0.8619230E-006  0.1238396E+03  0.7561462E-02  0.1236894E+00
         -2   -1    0    0    0  501 -0.00000000000E+00  0.00000000000E+00  0.57863721848E+03  0.57863721848E+03  0.00000000000E+00 0.  1.
          2   -1    0    0  501    0  0.00000000000E+00 -0.00000000000E+00 -0.30148661692E+02  0.30148661692E+02  0.00000000000E+00 0. -1.
         23    2    1    2    0    0 -0.70638519271E+02 -0.19022652170E+02  0.26853903188E+03  0.30514235617E+03  0.12508790584E+03 0.  0.
         23    2    1    2    0    0  0.70638519271E+02  0.19022652170E+02  0.27994952491E+03  0.30364352400E+03  0.92065147970E+02 0.  0.
          5    1    3    3  502    0 -0.56738045324E+02 -0.62348043736E+02  0.10171353359E+03  0.13217261313E+03  0.41800000000E+01 0.  1.
         -5    1    3    3    0  502 -0.13900473947E+02  0.43325391566E+02  0.16682549828E+03  0.17296974304E+03  0.41800000000E+01 0.  1.
        -11    1    4    4    0    0  0.87871397866E+02 -0.50061590605E+01  0.20803726364E+03  0.22588923669E+03  0.00000000000E+00 0.  1.
         11    1    4    4    0    0 -0.17232878595E+02  0.24028811231E+02  0.71912261272E+02  0.77754287310E+02  0.00000000000E+00 0. -1.
</event>
<event>
 8    1  0.8619230E-006  0.1323686E+03  0.7561462E-02  0.1223983E+00
         -2   -1    0    0    0  501 -0.00000000000E+00  0.00000000000E+00  0.43732174086E+02  0.43732174086E+02  0.00000000000E+00 0. -1.
          2   -1    0    0  501    0  0.00000000000E+00 -0.00000000000E+00 -0.65957634765E+03  0.65957634765E+03  0.00000000000E+00 0.  1.
         23    2    1    2    0    0 -0.10821153969E+03 -0.13843134534E+02 -0.18963874181E+03  0.25201887518E+03  0.12509712769E+03 0.  0.
         23    2    1    2    0    0  0.10821153969E+03  0.13843134534E+02 -0.42620543175E+03  0.45128964655E+03  0.10054802500E+03 0.  0.
          5    1    3    3  502    0 -0.11783486513E+02 -0.16113930762E+02 -0.14363060272E+03  0.14507147120E+03  0.41800000000E+01 0.  1.
         -5    1    3    3    0  502 -0.96428053182E+02  0.22707962278E+01 -0.46008139089E+02  0.10694740398E+03  0.41800000000E+01 0.  1.
        -11    1    4    4    0    0  0.94117031579E+01  0.43606515470E+02 -0.11120065785E+03  0.11981525218E+03  0.00000000000E+00 0.  1.
         11    1    4    4    0    0  0.98799836537E+02 -0.29763380936E+02 -0.31500477390E+03  0.33147439437E+03  0.00000000000E+00 0. -1.
</event>
<event>
 8    1  0.8619230E-006  0.1175466E+03  0.7561462E-02  0.1247200E+00
          2   -1    0    0  501    0  0.00000000000E+00  0.00000000000E+00  0.21171096458E+03  0.21171096458E+03  0.00000000000E+00 0. -1.
         -2   -1    0    0    0  501 -0.00000000000E+00 -0.00000000000E+00 -0.12939190512E+03  0.12939190512E+03  0.00000000000E+00 0.  1.
         23    2    1    2    0    0  0.94527893969E+02 -0.40651516193E+02 -0.28410927296E+02  0.16444151657E+03  0.12508302473E+03 0.  0.
         23    2    1    2    0    0 -0.94527893969E+02  0.40651516193E+02  0.11072998676E+03  0.17666135313E+03  0.91433228171E+02 0.  0.
          5    1    3    3  502    0 -0.15562662132E+01 -0.35038583317E+02  0.34505155028E+02  0.49378157204E+02  0.41800000000E+01 0. -1.
         -5    1    3    3    0  502  0.96084160182E+02 -0.56129328758E+01 -0.62916082323E+02  0.11506335936E+03  0.41800000000E+01 0. -1.
        -11    1    4    4    0    0 -0.33743212799E+02  0.20058860717E+02  0.10515301763E+03  0.11224134452E+03  0.00000000000E+00 0. -1.
         11    1    4    4    0    0 -0.60784681170E+02  0.20592655476E+02  0.55769691335E+01  0.64420008609E+02  0.00000000000E+00 0.  1.
</event>
<event>
 8    1  0.8619230E-006  0.1400701E+03  0.7561462E-02  0.1213235E+00
         -2   -1    0    0    0  501 -0.00000000000E+00  0.00000000000E+00  0.19884012105E+02  0.19884012105E+02  0.00000000000E+00 0. -1.
          2   -1    0    0  501    0  0.00000000000E+00 -0.00000000000E+00 -0.13095642317E+04  0.13095642317E+04  0.00000000000E+00 0.  1.
         23    2    1    2    0    0  0.10581883944E+03  0.23700893287E+02 -0.49659306777E+03  0.52345995152E+03  0.12508511808E+03 0.  0.
         23    2    1    2    0    0 -0.10581883944E+03 -0.23700893287E+02 -0.79308715181E+03  0.80598829227E+03  0.94183532455E+02 0.  0.
          5    1    3    3  502    0  0.11575457746E+03  0.45261366771E+01 -0.24643597451E+03  0.27233760307E+03  0.41800000000E+01 0.  1.
         -5    1    3    3    0  502 -0.99357380144E+01  0.19174756610E+02 -0.25015709326E+03  0.25112234844E+03  0.41800000000E+01 0.  1.
        -11    1    4    4    0    0 -0.11478333498E+03 -0.41694870328E+02 -0.71504028855E+03  0.72539388642E+03  0.00000000000E+00 0.  1.
         11    1    4    4    0    0  0.89644955389E+01  0.17993977041E+02 -0.78046863258E+02  0.80594405850E+02  0.00000000000E+00 0. -1.
</event>
<event>
 8    1  0.8619230E-006  0.6475802E+02  0.7561462E-02  0.1378884E+00
          3   -1    0    0  501    0  0.00000000000E+00  0.00000000000E+00  0.80522834757E+03  0.80522834757E+03  0.00000000000E+00 0. -1.
         -3   -1    0    0    0  501 -0.00000000000E+00 -0.00000000000E+00 -0.16081453232E+02  0.16081453232E+02  0.00000000000E+00 0.  1.
         23    2    1    2    0    0  0.56718722394E+01  0.28840059829E+02  0.37770705776E+03  0.39895749329E+03  0.12506214767E+03 0.  0.
         23    2    1    2    0    0 -0.56718722394E+01 -0.28840059829E+02  0.41143983657E+03  0.42235230751E+03  0.90745872396E+02 0.  0.
          5    1    3    3  502    0  0.25280129460E+01 -0.25125751306E+01  0.36449287205E+03  0.36453426459E+03  0.41800000000E+01 0. -1.
         -5    1    3    3    0  502  0.31438592934E+01  0.31352634960E+02  0.13214185716E+02  0.34423228703E+02  0.41800000000E+01 0. -1.
        -11    1    4    4    0    0 -0.13709736595E+02 -0.59233048157E+02  0.31816271445E+03  0.32391977979E+03  0.00000000000E+00 0. -1.
         11    1    4    4    0    0  0.80378643557E+01  0.30392988328E+02  0.93277122120E+02  0.98432527723E+02  0.00000000000E+00 0.  1.
</event>
<event>
 8    1  0.8619230E-006  0.1945648E+03  0.7561462E-02  0.1154407E+00
          3   -1    0    0  501    0  0.00000000000E+00  0.00000000000E+00  0.12629267987E+03  0.12629267987E+03  0.00000000000E+00 0. -1.
         -3   -1    0    0    0  501 -0.00000000000E+00 -0.00000000000E+00 -0.35768227485E+03  0.35768227485E+03  0.00000000000E+00 0.  1.
         23    2    1    2    0    0 -0.13589797706E+03  0.10924733284E+03 -0.63708482082E+02  0.22384515108E+03  0.12507853961E+03 0.  0.
         23    2    1    2    0    0  0.13589797706E+03 -0.10924733284E+03 -0.16768111290E+03  0.26012980364E+03  0.95641618652E+02 0.  0.
          5    1    3    3  502    0 -0.88356300685E+02 -0.71293192331E+01 -0.29036101096E+02  0.93371465825E+02  0.41800000000E+01 0.  1.
         -5    1    3    3    0  502 -0.47541676375E+02  0.11637665208E+03 -0.34672380986E+02  0.13047368526E+03  0.41800000000E+01 0.  1.
        -11    1    4    4    0    0  0.95637486829E+02 -0.82140761511E+02 -0.55202182275E+02  0.13762599506E+03  0.00000000000E+00 0. -1.
         11    1    4    4    0    0  0.40260490231E+02 -0.27106571333E+02 -0.11247893062E+03  0.12250380858E+03  0.00000000000E+00 0.  1.
</event>
<event>
 8    1  0.8619230E-006  0.1232053E+03  0.7561462E-02  0.1237901E+00
          2   -1    0    0  501    0  0.00000000000E+00  0.00000000000E+00  0.20000868055E+03  0.20000868055E+03  0.00000000000E+00 0. -1.
         -2   -1    0    0    0  501 -0.00000000000E+00 -0.00000000000E+00 -0.14594521540E+03  0.14594521540E+03  0.00000000000E+00 0.  1.
         23    2    1    2    0    0 -0.14786650611E+02 -0.10139695807E+03 -0.55356736066E+02  0.17091281718E+03  0.12508730834E+03 0.  0.
         23    2    1    2    0    0  0.14786650611E+02  0.10139695807E+03  0.10942020121E+03  0.17504107877E+03  0.90369301652E+02 0.  0.
          5    1    3    3  502    0  0.38683327899E+01 -0.11829100858E+03 -0.73702246068E+02  0.13948914003E+03  0.41800000000E+01 0.  1.
         -5    1    3    3    0  502 -0.18654983401E+02  0.16894050515E+02  0.18345510002E+02  0.31423677152E+02  0.41800000000E+01 0.  1.
        -11    1    4    4    0    0  0.12080667124E+02  0.83804928988E+02  0.24313193830E+02  0.88092792186E+02  0.00000000000E+00 0.  1.
         11    1    4    4    0    0  0.27059834867E+01  0.17592029078E+02  0.85107007383E+02  0.86948286582E+02  0.00000000000E+00 0. -1.
</event>
<event>
 8    1  0.8619230E-006  0.1206338E+03  0.7561462E-02  0.1242055E+00
         -2   -1    0    0    0  501 -0.00000000000E+00  0.00000000000E+00  0.55134262115E+02  0.55134262115E+02  0.00000000000E+00 0.  1.
          2   -1    0    0  501    0  0.00000000000E+00 -0.00000000000E+00 -0.38605126554E+03  0.38605126554E+03  0.00000000000E+00 0. -1.
         23    2    1    2    0    0 -0.77669490610E+02 -0.32709433136E+02 -0.11259546522E+03  0.18821881337E+03  0.12508447598E+03 0.  0.
         23    2    1    2    0    0  0.77669490610E+02  0.32709433136E+02 -0.21832153820E+03  0.25296671428E+03  0.96048985965E+02 0.  0.
          5    1    3    3  502    0 -0.89550205524E+02 -0.47212968591E+02 -0.12824666799E+03  0.16344107184E+03  0.41800000000E+01 0.  1.
         -5    1    3    3    0  502  0.11880714914E+02  0.14503535455E+02  0.15651202767E+02  0.24777741536E+02  0.41800000000E+01 0.  1.
        -11    1    4    4    0    0  0.57136904041E+02  0.62420979484E+02 -0.11000649021E+03  0.13878916518E+03  0.00000000000E+00 0. -1.
         11    1    4    4    0    0  0.20532586570E+02 -0.29711546348E+02 -0.10831504800E+03  0.11417754911E+03  0.00000000000E+00 0.  1.
</event>
<event>
 8    1  0.8619230E-006  0.1358145E+03  0.7561462E-02  0.1219074E+00
         -1   -1    0    0    0  501 -0.00000000000E+00  0.00000000000E+00  0.96632452297E+03  0.96632452297E+03  0.00000000000E+00 0.  1.
          1   -1    0    0  501    0  0.00000000000E+00 -0.00000000000E+00 -0.26999818173E+02  0.26999818173E+02  0.00000000000E+00 0. -1.
         23    2    1    2    0    0  0.48607101591E+02 -0.85595142100E+02  0.71376318880E+03  0.73129612051E+03  0.12508775926E+03 0.  0.
         23    2    1    2    0    0 -0.48607101591E+02  0.85595142100E+02  0.22556151600E+03  0.26202822063E+03  0.89953389213E+02 0.  0.
          5    1    3    3  502    0  0.82538976936E+02 -0.50197850297E+02  0.31498424670E+03  0.32949211668E+03  0.41800000000E+01 0. -1.
         -5    1    3    3    0  502 -0.33931875344E+02 -0.35397291802E+02  0.39877894210E+03  0.40180400383E+03  0.41800000000E+01 0. -1.
        -11    1    4    4    0    0 -0.63961043887E+02  0.35131874816E+02  0.17206755897E+03  0.18690240398E+03  0.00000000000E+00 0.  1.
         11    1    4    4    0    0  0.15353942295E+02  0.50463267283E+02  0.53493957029E+02  0.75125816651E+02  0.00000000000E+00 0. -1.
</event>
<event>
 8    1  0.8619230E-006  0.1282818E+03  0.7561462E-02  0.1230028E+00
         -2   -1    0    0    0  501 -0.00000000000E+00  0.00000000000E+00  0.44043025152E+02  0.44043025152E+02  0.00000000000E+00 0.  1.
          2   -1    0    0  501    0  0.00000000000E+00 -0.00000000000E+00 -0.56533464576E+03  0.56533464576E+03  0.00000000000E+00 0. -1.
         23    2    1    2    0    0 -0.15100216503E+01 -0.78351274127E+02 -0.95597666768E+02  0.16673003144E+03  0.11188738610E+03 0.  0.
         23    2    1    2    0    0  0.15100216503E+01  0.78351274127E+02 -0.42569395384E+03  0.44264763948E+03  0.92630384193E+02 0.  0.
          5    1    3    3  502    0  0.41515528309E+02 -0.81917872402E+02 -0.53927906030E+02  0.10658221408E+03  0.41800000000E+01 0. -1.
         -5    1    3    3    0  502 -0.43025549959E+02  0.35665982754E+01 -0.41669760738E+02  0.60147817355E+02  0.41800000000E+01 0.  1.
        -11    1    4    4    0    0  0.12660188412E+02 -0.19239144081E+02 -0.74862740024E+02  0.78325314423E+02  0.00000000000E+00 0. -1.
         11    1    4    4    0    0 -0.11150166762E+02  0.97590418208E+02 -0.35083121382E+03  0.36432232506E+03  0.00000000000E+00 0.  1.
</event>
<event>
 7    1  0.8619230E-006  0.8701015E+02  0.7561462E-02  0.1310258E+00
         -1   -1    0    0    0  501 -0.00000000000E+00  0.00000000000E+00  0.68561845999E+02  0.68561845999E+02  0.00000000000E+00 0.  1.
          1   -1    0    0  501    0  0.00000000000E+00 -0.00000000000E+00 -0.20127117786E+03  0.20127117786E+03  0.00000000000E+00 0. -1.
         23    2    1    2    0    0  0.97919028451E+01 -0.59497278873E+01 -0.75402212326E+02  0.12195944229E+03  0.95170012692E+02 0.  0.
          5    1    1    2  502    0 -0.44813509529E+02 -0.93121824538E+01 -0.87609315316E+02  0.98933472134E+02  0.41800000000E+01 0. -1.
         -5    1    1    2    0  502  0.35021606684E+02  0.15261910341E+02  0.30302195786E+02  0.48940109434E+02  0.41800000000E+01 0.  1.
        -11    1    3    3    0    0  0.59437983364E+01  0.41550041868E+02 -0.14026299686E+02  0.44254624626E+02  0.00000000000E+00 0. -1.
         11    1    3    3    0    0  0.38481045087E+01 -0.47499769756E+02 -0.61375912640E+02  0.77704817660E+02  0.00000000000E+00 0.  1.
</event>
<event>
 8    1  0.8619230E-006  0.1101721E+03  0.7561462E-02  0.1260252E+00
          1   -1    0    0  501    0  0.00000000000E+00  0.00000000000E+00  0.18759664650E+03  0.18759664650E+03  0.00000000000E+00 0. -1.
         -1   -1    0    0    0  501 -0.00000000000E+00 -0.00000000000E+00 -0.14344751916E+03  0.14344751916E+03  0.00000000000E+00 0.  1.
         23    2    1    2    0    0  0.23853871428E+02 -0.24164135058E+02 -0.94592521911E+02  0.16046148856E+03  0.12508889441E+03 0.  0.
         23    2    1    2    0    0 -0.23853871428E+02  0.24164135058E+02  0.13874164925E+03  0.17058267709E+03  0.93253910814E+02 0.  0.
          5    1    3    3  502    0  0.74658372810E+02 -0.59696765205E+01 -0.48108010025E+02  0.89114323747E+02  0.41800000000E+01 0.  1.
         -5    1    3    3    0  502 -0.50804501382E+02 -0.18194458537E+02 -0.46484511886E+02  0.71347164817E+02  0.41800000000E+01 0.  1.
        -11    1    4    4    0    0 -0.18125482245E+02 -0.30910754048E+02  0.23851880023E+02  0.43045557297E+02  0.00000000000E+00 0.  1.
         11    1    4    4    0    0 -0.57283891836E+01  0.55074889105E+02  0.11488976923E+03  0.12753711979E+03  0.00000000000E+00 0. -1.
</event>
<event>
 7    1  0.8619230E-006  0.1872109E+03  0.7561462E-02  0.1161001E+00
          2   -1    0    0  501    0  0.00000000000E+00  0.00000000000E+00  0.11815571639E+04  0.11815571639E+04  0.00000000000E+00 0. -1.
         -2   -1    0    0    0  501 -0.00000000000E+00 -0.00000000000E+00 -0.52008797572E+02  0.52008797572E+02  0.00000000000E+00 0.  1.
         23    2    1    2    0    0 -0.33424556930E+02 -0.11759068913E+03  0.43498277924E+03  0.46085946036E+03  0.90756006899E+02 0.  0.
          5    1    1    2  502    0 -0.21908456817E+02 -0.45107208832E+02  0.53751727613E+03  0.53986751644E+03  0.41800000000E+01 0. -1.
         -5    1    1    2    0  502  0.55333013747E+02  0.16269789796E+03  0.15704831096E+03  0.23283898468E+03  0.41800000000E+01 0.  1.
        -11    1    3    3    0    0 -0.48691302180E+02 -0.18731450578E+02  0.14335665774E+03  0.15255438855E+03  0.00000000000E+00 0.  1.
         11    1    3    3    0    0  0.15266745251E+02 -0.98859238550E+02  0.29162612150E+03  0.30830507181E+03  0.00000000000E+00 0. -1.
</event>
<event>
 7    1  0.8619230E-006  0.4387771E+03  0.7561462E-02  0.1031123E+00
          2   -1    0    0  501    0  0.00000000000E+00  0.00000000000E+00  0.98123906966E+03  0.98123906966E+03  0.00000000000E+00 0. -1.
         -2   -1    0    0    0  501 -0.00000000000E+00 -0.00000000000E+00 -0.37083729663E+03  0.37083729663E+03  0.00000000000E+00 0.  1.
         23    2    1    2    0    0 -0.30875484649E+02  0.15044783915E+02  0.96611359551E+02  0.13646864226E+03  0.90057173232E+02 0.  0.
          5    1    1    2  502    0  0.31673197152E+03  0.25436733229E+03  0.67755306855E+03  0.79001108512E+03  0.41800000000E+01 0. -1.
         -5    1    1    2    0  502 -0.28585648687E+03 -0.26941211621E+03 -0.16376265507E+03  0.42559663890E+03  0.41800000000E+01 0.  1.
        -11    1    3    3    0    0 -0.34232983796E+02  0.40368827250E+02  0.21495693249E+02  0.57127963567E+02  0.00000000000E+00 0. -1.
         11    1    3    3    0    0  0.33574991468E+01 -0.25324043335E+02  0.75115666302E+02  0.79340678692E+02  0.00000000000E+00 0.  1.
</event>
<event>
 8    1  0.8619230E-006  0.8944637E+02  0.7561462E-02  0.1304198E+00
          4   -1    0    0  501    0  0.00000000000E+00  0.00000000000E+00  0.18755606084E+03  0.18755606084E+03  0.00000000000E+00 0. -1.
         -4   -1    0    0    0  501 -0.00000000000E+00 -0.00000000000E+00 -0.95806817844E+02  0.95806817844E+02  0.00000000000E+00 0.  1.
         23    2    1    2    0    0  0.41253556200E+01 -0.80707549802E+00 -0.31718667730E+02  0.12911681701E+03  0.12508960237E+03 0.  0.
         23    2    1    2    0    0 -0.41253556200E+01  0.80707549802E+00  0.12346791073E+03  0.15424606168E+03  0.92357201315E+02 0.  0.
          5    1    3    3  502    0  0.15305320582E+02  0.59644969320E+02 -0.48963481361E+01  0.61913018246E+02  0.41800000000E+01 0.  1.
         -5    1    3    3    0  502 -0.11179964962E+02 -0.60452044818E+02 -0.26822319594E+02  0.67203798759E+02  0.41800000000E+01 0.  1.
        -11    1    4    4    0    0  0.23579567651E+02  0.11019412756E+02  0.12193202791E+03  0.12467895932E+03  0.00000000000E+00 0. -1.
         11    1    4    4    0    0 -0.27704923271E+02 -0.10212337258E+02  0.15358828179E+01  0.29567102356E+02  0.00000000000E+00 0.  1.
</event>
<event>
 8    1  0.8619230E-006  0.9783219E+02  0.7561462E-02  0.1284922E+00
          2   -1    0    0  501    0  0.00000000000E+00  0.00000000000E+00  0.33524038226E+03  0.33524038226E+03  0.00000000000E+00 0. -1.
         -2   -1    0    0    0  501 -0.00000000000E+00 -0.00000000000E+00 -0.49092013603E+02  0.49092013603E+02  0.00000000000E+00 0.  1.
         23    2    1    2    0    0 -0.20761625714E+01 -0.53542388860E+02  0.94751848081E+02  0.16581986170E+03  0.12508883229E+03 0.  0.
         23    2    1    2    0    0  0.20761625714E+01  0.53542388860E+02  0.19139652057E+03  0.21851253416E+03  0.90796484745E+02 0.  0.
          5    1    3    3  502    0 -0.15107062583E+02  0.39231916240E+02  0.31653703521E+02  0.52790112126E+02  0.41800000000E+01 0.  1.
         -5    1    3    3    0  502  0.13030900011E+02 -0.92774305099E+02  0.63098144559E+02  0.11302974957E+03  0.41800000000E+01 0.  1.
        -11    1    4    4    0    0 -0.98879511424E+01  0.41507150688E+02  0.19627154962E+03  0.20085600894E+03  0.00000000000E+00 0. -1.
         11    1    4    4    0    0  0.11964113714E+02  0.12035238171E+02 -0.48750290458E+01  0.17656525224E+02  0.00000000000E+00 0.  1.
</event>
<event>
 7    1  0.8619230E-006  0.8121045E+02  0.7561462E-02  0.1325651E+00
         -1   -1    0    0    0  501 -0.00000000000E+00  0.00000000000E+00  0.55246496791E+03  0.55246496791E+03  0.00000000000E+00 0.  1.
          1   -1    0    0  501    0  0.00000000000E+00 -0.00000000000E+00 -0.33881649193E+02  0.33881649193E+02  0.00000000000E+00 0. -1.
         23    2    1    2    0    0  0.76781572785E+00  0.11207023725E+02  0.15595429964E+03  0.18041190762E+03  0.90002921689E+02 0.  0.
          5    1    1    2  502    0 -0.27188941248E+02  0.35714530409E+02  0.62798796060E+01  0.45515662100E+02  0.41800000000E+01 0. -1.
         -5    1    1    2    0  502  0.26421125520E+02 -0.46921554134E+02  0.35634913947E+03  0.36041904739E+03  0.41800000000E+01 0.  1.
        -11    1    3    3    0    0 -0.24740091638E+02 -0.13186731819E+02  0.92498668813E+01  0.29521552596E+02  0.00000000000E+00 0. -1.
         11    1    3    3    0    0  0.25507907366E+02  0.24393755544E+02  0.14670443276E+03  0.15089035502E+03  0.00000000000E+00 0.  1.
</event>
<event>
 8    1  0.8619230E-006  0.1558450E+03  0.7561462E-02  0.1193469E+00
          1   -1    0    0  501    0  0.00000000000E+00  0.00000000000E+00  0.40608766150E+03  0.40608766150E+03  0.00000000000E+00 0. -1.
         -1   -1    0    0    0  501 -0.00000000000E+00 -0.00000000000E+00 -0.80050950287E+02  0.80050950287E+02  0.00000000000E+00 0.  1.
         23    2    1    2    0    0 -0.88530939959E+00  0.14223983026E+03  0.14603290867E+03  0.23917649084E+03  0.12508729060E+03 0.  0.
         23    2    1    2    0    0  0.88530939959E+00 -0.14223983026E+03  0.18000380254E+03  0.24696212095E+03  0.91410979486E+02 0.  0.
          5    1    3    3  502    0  0.19432715035E+02  0.30691526315E+02  0.11625968571E+03  0.12187447281E+03  0.41800000000E+01 0.  1.
         -5    1    3    3    0  502 -0.20318024435E+02  0.11154830394E+03  0.29773222967E+02  0.11730201803E+03  0.41800000000E+01 0.  1.
        -11    1    4    4    0    0 -0.34419650225E+02 -0.36427869528E+02  0.25033368900E+02  0.56021170627E+02  0.00000000000E+00 0.  1.
         11    1    4    4    0    0  0.35304959624E+02 -0.10581196073E+03  0.15497043364E+03  0.19094095032E+03  0.00000000000E+00 0. -1.
</event>
<event>
 8    1  0.8619230E-006  0.8802906E+02  0.7561462E-02  0.1307696E+00
          3   -1    0    0  501    0  0.00000000000E+00  0.00000000000E+00  0.14370521726E+03  0.14370521726E+03  0.00000000000E+00 0. -1.
         -3   -1    0    0    0  501 -0.00000000000E+00 -0.00000000000E+00 -0.89526379053E+02  0.89526379053E+02  0.00000000000E+00 0.  1.
         23    2    1    2    0    0 -0.20861211765E+02 -0.13261676086E+02  0.68625377631E+01  0.12769393945E+03  0.12509030953E+03 0.  0.
         23    2    1    2    0    0  0.20861211765E+02  0.13261676086E+02  0.47316300441E+02  0.10553765686E+03  0.91040114890E+02 0.  0.
          5    1    3    3  502    0  0.53195999788E+01  0.53903251864E+02  0.10756272479E+02  0.55380759322E+02  0.41800000000E+01 0.  1.
         -5    1    3    3    0  502 -0.26180811744E+02 -0.67164927950E+02 -0.38937347161E+01  0.72313180127E+02  0.41800000000E+01 0.  1.
        -11    1    4    4    0    0 -0.12791131709E+02 -0.12978480655E+01 -0.22935147428E+02  0.26292935316E+02  0.00000000000E+00 0.  1.
         11    1    4    4    0    0  0.33652343474E+02  0.14559524151E+02  0.70251447870E+02  0.79244721544E+02  0.00000000000E+00 0. -1.
</event>
<event>
 8    1  0.8619230E-006  0.1613980E+03  0.7561462E-02  0.1187127E+00
          1   -1    0    0  501    0  0.00000000000E+00  0.00000000000E+00  0.48183120658E+03  0.48183120658E+03  0.00000000000E+00 0. -1.
         -1   -1    0    0    0  501 -0.00000000000E+00 -0.00000000000E+00 -0.58089397783E+02  0.58089397783E+02  0.00000000000E+00 0.  1.
         23    2    1    2    0    0  0.69874512073E+02  0.10694244714E+03  0.22261015327E+03  0.28552188371E+03  0.12509329039E+03 0.  0.
         23    2    1    2    0    0 -0.69874512073E+02 -0.10694244714E+03  0.20113165553E+03  0.25439872066E+03  0.89138273359E+02 0.  0.
          5    1    3    3  502    0  0.16193758992E+02 -0.28333069256E+02  0.47642053958E+02  0.57898517676E+02  0.41800000000E+01 0. -1.
         -5    1    3    3    0  502  0.53680753081E+02  0.13527551640E+03  0.17496809931E+03  0.22762336603E+03  0.41800000000E+01 0. -1.
        -11    1    4    4    0    0 -0.51503118251E+02 -0.19700400837E+02  0.33466786278E+02  0.64503509722E+02  0.00000000000E+00 0.  1.
         11    1    4    4    0    0 -0.18371393822E+02 -0.87242046303E+02  0.16766486925E+03  0.18989521093E+03  0.00000000000E+00 0. -1.
</event>
<event>
 8    1  0.8619230E-006  0.1082934E+03  0.7561462E-02  0.1263763E+00
          2   -1    0    0  501    0  0.00000000000E+00  0.00000000000E+00  0.42399347369E+03  0.42399347369E+03  0.00000000000E+00 0. -1.
         -2   -1    0    0    0  501 -0.00000000000E+00 -0.00000000000E+00 -0.91732482727E+02  0.91732482727E+02  0.00000000000E+00 0.  1.
         23    2    1    2    0    0  0.13023348104E+02 -0.62262871940E+02 -0.19122527523E+02  0.14163361292E+03  0.12509251150E+03 0.  0.
         23    2    1    2    0    0 -0.13023348104E+02  0.62262871940E+02  0.35138351848E+03  0.37409234349E+03  0.11148287572E+03 0.  0.
          5    1    3    3  502    0 -0.37334695322E+02 -0.72535279923E+02 -0.33209398871E+02  0.88179265599E+02  0.41800000000E+01 0. -1.
         -5    1    3    3    0  502  0.50358043425E+02  0.10272407983E+02  0.14086871348E+02  0.53454347323E+02  0.41800000000E+01 0. -1.
        -11    1    4    4    0    0 -0.27174905503E+02  0.63558860489E+02  0.35307802184E+03  0.35978089686E+03  0.00000000000E+00 0. -1.
         11    1    4    4    0    0  0.14151557399E+02 -0.12959885487E+01 -0.16945033578E+01  0.14311446634E+02  0.00000000000E+00 0.  1.
</event>
<event>
 8    1  0.8619230E-006  0.2009341E+03  0.7561462E-02  0.1148953E+00
          2   -1    0    0  501    0  0.00000000000E+00  0.00000000000E+00  0.52760162750E+03  0.52760162750E+03  0.00000000000E+00 0.  1.
         -2   -1    0    0    0  501 -0.00000000000E+00 -0.00000000000E+00 -0.13866702047E+03  0.13866702047E+03  0.00000000000E+00 0. -1.
         23    2    1    2    0    0  0.14373467143E+02 -0.18261466886E+03 -0.15009200954E+01  0.22182176686E+03  0.12509168498E+03 0.  0.
         23    2    1    2    0    0 -0.14373467143E+02  0.18261466886E+03  0.39043552713E+03  0.44444688111E+03  0.10741701653E+03 0.  0.
          5    1    3    3  502    0  0.17752171841E+02 -0.19721168592E+03  0.15646423296E+02  0.19867025854E+03  0.41800000000E+01 0.  1.
         -5    1    3    3    0  502 -0.33787046985E+01  0.14597017050E+02 -0.17147343391E+02  0.23151508322E+02  0.41800000000E+01 0.  1.
        -11    1    4    4    0    0 -0.30031121644E+02  0.12482862055E+03  0.34837208681E+03  0.37127774461E+03  0.00000000000E+00 0.  1.
         11    1    4    4    0    0  0.15657654501E+02  0.57786048312E+02  0.42063440319E+02  0.73169136495E+02  0.00000000000E+00 0. -1.
</event>
<event>
 8    1  0.8619230E-006  0.1053316E+03  0.7561462E-02  0.1269468E+00
          2   -1    0    0  501    0  0.00000000000E+00  0.00000000000E+00  0.69962256245E+03  0.69962256245E+03  0.00000000000E+00 0. -1.
         -2   -1    0    0    0  501 -0.00000000000E+00 -0.00000000000E+00 -0.24154736824E+02  0.24154736824E+02  0.00000000000E+00 0.  1.
         23    2    1    2    0    0  0.32107127496E+02  0.61427185799E+02  0.33275229659E+03  0.36218197342E+03  0.12509006432E+03 0.  0.
         23    2    1    2    0    0 -0.32107127496E+02 -0.61427185799E+02  0.34271552903E+03  0.36159532585E+03  0.92157902797E+02 0.  0.
          5    1    3    3  502    0 -0.31845897893E+02  0.12906050401E+02  0.22554133451E+03  0.22818214944E+03  0.41800000000E+01 0. -1.
         -5    1    3    3    0  502  0.63953025389E+02  0.48521135398E+02  0.10721096209E+03  0.13399982399E+03  0.41800000000E+01 0. -1.
        -11    1    4    4    0    0 -0.34446602918E+02 -0.25638258629E+00  0.40163732959E+02  0.52912754888E+02  0.00000000000E+00 0.  1.
         11    1    4    4    0    0  0.23394754216E+01 -0.61170803212E+02  0.30255179607E+03  0.30868257097E+03  0.00000000000E+00 0. -1.
</event>
<event>
 8    1  0.8619230E-006  0.1445029E+03  0.7561462E-02  0.1207395E+00
          4   -1    0    0  501    0  0.00000000000E+00  0.00000000000E+00  0.11969122302E+04  0.11969122302E+04  0.00000000000E+00 0. -1.
         -4   -1    0    0    0  501 -0.00000000000E+00 -0.00000000000E+00 -0.25084910769E+02  0.25084910769E+02  0.00000000000E+00 0.  1.
         23    2    1    2    0    0 -0.88294904967E+02 -0.92452379680E+02  0.46836905465E+03  0.50135547951E+03  0.12507722705E+03 0.  0.
         23    2    1    2    0    0  0.88294904967E+02  0.92452379680E+02  0.70345826474E+03  0.72064166142E+03  0.90152322174E+02 0.  0.
          5    1    3    3  502    0 -0.57271503852E+02 -0.26733471102E+02  0.38711625242E+03  0.39226415707E+03  0.41800000000E+01 0.  1.
         -5    1    3    3    0  502 -0.31023401115E+02 -0.65718908578E+02  0.81252802226E+02  0.10909132244E+03  0.41800000000E+01 0.  1.
        -11    1    4    4    0    0  0.62382857445E+02  0.60607341751E+01  0.21601273330E+03  0.22492188499E+03  0.00000000000E+00 0.  1.
         11    1    4    4    0    0  0.25912047522E+02  0.86391645505E+02  0.48744553144E+03  0.49571977643E+03  0.00000000000E+00 0. -1.
</event>
<event>
 8    1  0.8619230E-006  0.6527351E+02  0.7561462E-02  0.1376946E+00
         -1   -1    0    0    0  501 -0.00000000000E+00  0.00000000000E+00  0.17846422239E+03  0.17846422239E+03  0.00000000000E+00 0.  1.
          1   -1    0    0  501    0  0.00000000000E+00 -0.00000000000E+00 -0.85034890849E+02  0.85034890849E+02  0.00000000000E+00 0. -1.
         23    2    1    2    0    0 -0.77661022784E+00  0.39387608663E+02  0.99407644631E+02  0.16456477308E+03  0.12509075861E+03 0.  0.
         23    2    1    2    0    0  0.77661022784E+00 -0.39387608663E+02 -0.59783130931E+01  0.98934340153E+02  0.90555378606E+02 0.  0.
          5    1    3    3  502    0  0.17052297381E+02  0.32357061337E+02 -0.21126596734E+02  0.42444855447E+02  0.41800000000E+01 0. -1.
         -5    1    3    3    0  502 -0.17828907608E+02  0.70305473256E+01  0.12053424136E+03  0.12211991764E+03  0.41800000000E+01 0. -1.
        -11    1    4    4    0    0 -0.28657200003E+02 -0.33528522250E+02  0.29045378062E+02  0.52811276287E+02  0.00000000000E+00 0. -1.
         11    1    4    4    0    0  0.29433810230E+02 -0.58590864125E+01 -0.35023691156E+02  0.46123063866E+02  0.00000000000E+00 0.  1.
</event>
<event>
 8    1  0.8619230E-006  0.4007255E+03  0.7561462E-02  0.1043529E+00
         -1   -1    0    0    0  501 -0.00000000000E+00  0.00000000000E+00  0.71770256299E+03  0.71770256299E+03  0.00000000000E+00 0.  1.
          1   -1    0    0  501    0  0.00000000000E+00 -0.00000000000E+00 -0.23243022563E+03  0.23243022563E+03  0.00000000000E+00 0. -1.
         23    2    1    2    0    0  0.37385850000E+03 -0.11483965162E+03  0.29777696841E+03  0.50722963347E+03  0.12510977001E+03 0.  0.
         23    2    1    2    0    0 -0.37385850000E+03  0.11483965162E+03  0.18749536895E+03  0.44290315515E+03  0.89723842172E+02 0.  0.
          5    1    3    3  502    0  0.17121684847E+03  0.32718870777E+01  0.88258421169E+02  0.19269908083E+03  0.41800000000E+01 0. -1.
         -5    1    3    3    0  502  0.20264165153E+03 -0.11811153870E+03  0.20951854724E+03  0.31453055264E+03  0.41800000000E+01 0. -1.
        -11    1    4    4    0    0 -0.23188205542E+03  0.10097060274E+03  0.15488865376E+03  0.29657182150E+03  0.00000000000E+00 0.  1.
         11    1    4    4    0    0 -0.14197644458E+03  0.13869048885E+02  0.32606715198E+02  0.14633133365E+03  0.00000000000E+00 0. -1.
</event>
<event>
 8    1  0.8619230E-006  0.1133524E+03  0.7561462E-02  0.1254485E+00
         -1   -1    0    0    0  501 -0.00000000000E+00  0.00000000000E+00  0.68651476737E+03  0.68651476737E+03  0.00000000000E+00 0.  1.
          1   -1    0    0  501    0  0.00000000000E+00 -0.00000000000E+00 -0.27238164253E+02  0.27238164253E+02  0.00000000000E+00 0. -1.
         23    2    1    2    0    0 -0.23629415353E+02  0.77657135098E+02  0.32888595680E+03  0.36111419066E+03  0.12509398951E+03 0.  0.
         23    2    1    2    0    0  0.23629415353E+02 -0.77657135098E+02  0.33039064632E+03  0.35263874097E+03  0.92774579247E+02 0.  0.
          5    1    3    3  502    0  0.70533588580E+01 -0.98749206045E+01  0.20940709570E+03  0.20980006686E+03  0.41800000000E+01 0. -1.
         -5    1    3    3    0  502 -0.30682774211E+02  0.87532055702E+02  0.11947886111E+03  0.15131412379E+03  0.41800000000E+01 0. -1.
        -11    1    4    4    0    0  0.19464987021E+02  0.17258836147E+02  0.10222144318E+03  0.10547974493E+03  0.00000000000E+00 0.  1.
         11    1    4    4    0    0  0.41644283318E+01 -0.94915971244E+02  0.22816920314E+03  0.24715899603E+03  0.00000000000E+00 0. -1.
</event>
<event>
 7    1  0.8619230E-006  0.1396711E+03  0.7561462E-02  0.1213772E+00
          2   -1    0    0  501    0  0.00000000000E+00  0.00000000000E+00  0.22622513181E+03  0.22622513181E+03  0.00000000000E+00 0. -1.
         -2   -1    0    0    0  501 -0.00000000000E+00 -0.00000000000E+00 -0.14479795597E+03  0.14479795597E+03  0.00000000000E+00 0.  1.
         23    2    1    2    0    0  0.21915538523E+02  0.77623007994E+02 -0.32821407247E+02  0.14400896887E+03  0.11469837026E+03 0.  0.
          5    1    3    3  502    0  0.68916991004E+02  0.50899590161E+02 -0.16235176176E+02  0.87300476935E+02  0.41800000000E+01 0. -1.
         -5    1    3    3    0  502 -0.47001452481E+02  0.26723417833E+02 -0.16586231071E+02  0.56708491932E+02  0.41800000000E+01 0.  1.
        -11    1    1    2    0    0 -0.68045439569E+02 -0.34955150806E+02 -0.19755764606E+02  0.79008446696E+02  0.00000000000E+00 0.  1.
         11    1    1    2    0    0  0.46129901047E+02 -0.42667857188E+02  0.13400434770E+03  0.14800567222E+03  0.00000000000E+00 0. -1.
</event>
<event>
 8    1  0.8619230E-006  0.1510201E+03  0.7561462E-02  0.1199225E+00
          1   -1    0    0  501    0  0.00000000000E+00  0.00000000000E+00  0.74800473540E+03  0.74800473540E+03  0.00000000000E+00 0. -1.
         -1   -1    0    0    0  501 -0.00000000000E+00 -0.00000000000E+00 -0.33778661413E+02  0.33778661413E+02  0.00000000000E+00 0.  1.
         23    2    1    2    0    0 -0.74685253277E+02 -0.86193221622E+02  0.39142174011E+03  0.42646237191E+03  0.12510802338E+03 0.  0.
         23    2    1    2    0    0  0.74685253277E+02  0.86193221622E+02  0.32280433387E+03  0.35532102490E+03  0.95095921349E+02 0.  0.
          5    1    3    3  502    0  0.22547336746E+02 -0.46239445001E+02  0.62122171125E+02  0.80765742822E+02  0.41800000000E+01 0. -1.
         -5    1    3    3    0  502 -0.97232590023E+02 -0.39953776622E+02  0.32929956899E+03  0.34569662909E+03  0.41800000000E+01 0. -1.
        -11    1    4    4    0    0  0.45090045282E+02 -0.86122297888E+01  0.70022761154E+02  0.83728548088E+02  0.00000000000E+00 0.  1.
         11    1    4    4    0    0  0.29595207996E+02  0.94805451411E+02  0.25278157272E+03  0.27159247681E+03  0.00000000000E+00 0. -1.
</event>
<event>
 8    1  0.8619230E-006  0.8448394E+02  0.7561462E-02  0.1316788E+00
          1   -1    0    0  501    0  0.00000000000E+00  0.00000000000E+00  0.58648064975E+02  0.58648064975E+02  0.00000000000E+00 0. -1.
         -1   -1    0    0    0  501 -0.00000000000E+00 -0.00000000000E+00 -0.20894841874E+03  0.20894841874E+03  0.00000000000E+00 0.  1.
         23    2    1    2    0    0  0.21653851600E+02 -0.35399845928E+01 -0.97754657675E+02  0.16023866803E+03  0.12505613481E+03 0.  0.
         23    2    1    2    0    0 -0.21653851600E+02  0.35399845928E+01 -0.52545696089E+02  0.10735781569E+03  0.91012249901E+02 0.  0.
          5    1    3    3  502    0  0.12544143780E+02 -0.56086257278E+02 -0.11526602953E+02  0.58765285452E+02  0.41800000000E+01 0.  1.
         -5    1    3    3    0  502  0.91097078199E+01  0.52546272685E+02 -0.86228054723E+02  0.10147338257E+03  0.41800000000E+01 0.  1.
        -11    1    4    4    0    0 -0.36928446953E+02  0.13829930793E+02  0.11209727084E+02  0.40995550508E+02  0.00000000000E+00 0. -1.
         11    1    4    4    0    0  0.15274595354E+02 -0.10289946200E+02 -0.63755423173E+02  0.66362265182E+02  0.00000000000E+00 0.  1.
</event>
<event>
 8    1  0.8619230E-006  0.1606741E+03  0.7561462E-02  0.1187938E+00
          1   -1    0    0  501    0  0.00000000000E+00  0.00000000000E+00  0.13537039954E+03  0.13537039954E+03  0.00000000000E+00 0. -1.
         -1   -1    0    0    0  501 -0.00000000000E+00 -0.00000000000E+00 -0.24359445018E+03  0.24359445018E+03  0.00000000000E+00 0.  1.
         23    2    1    2    0    0 -0.74334551025E+02  0.10536145656E+03 -0.12597864085E+03  0.21941431641E+03  0.12508142264E+03 0.  0.
         23    2    1    2    0    0  0.74334551025E+02 -0.10536145656E+03  0.17754590204E+02  0.15955053332E+03  0.92273968176E+02 0.  0.
          5    1    3    3  502    0 -0.10210200359E+03  0.44801849382E+02 -0.91416153998E+02  0.14424427357E+03  0.41800000000E+01 0. -1.
         -5    1    3    3    0  502  0.27767452562E+02  0.60559607181E+02 -0.34562486850E+02  0.75170042842E+02  0.41800000000E+01 0. -1.
        -11    1    4    4    0    0 -0.78204812243E+01 -0.31782182504E+02  0.35003802119E+02  0.47922157861E+02  0.00000000000E+00 0. -1.
         11    1    4    4    0    0  0.82155032249E+02 -0.73579274060E+02 -0.17249211915E+02  0.11162837546E+03  0.00000000000E+00 0.  1.
</event>
<event>
 7    1  0.8619230E-006  0.1663616E+03  0.7561462E-02  0.1181696E+00
         -1   -1    0    0    0  501 -0.00000000000E+00  0.00000000000E+00  0.41220159087E+03  0.41220159087E+03  0.00000000000E+00 0.  1.
          1   -1    0    0  501    0  0.00000000000E+00 -0.00000000000E+00 -0.81821405147E+02  0.81821405147E+02  0.00000000000E+00 0. -1.
         23    2    1    2    0    0  0.67239676908E+02 -0.79814151862E+02  0.13044071129E+03  0.19520183092E+03  0.10098268488E+03 0.  0.
          5    1    1    2  502    0  0.41131038468E+02 -0.14664351832E+02 -0.93698039465E+01  0.44856116262E+02  0.41800000000E+01 0. -1.
         -5    1    1    2    0  502 -0.10837071538E+03  0.94478503694E+02  0.20930927838E+03  0.25396504883E+03  0.41800000000E+01 0.  1.
        -11    1    3    3    0    0  0.42790593579E+02  0.16344325425E+02  0.36543245459E+02  0.58596763230E+02  0.00000000000E+00 0.  1.
         11    1    3    3    0    0  0.24449083330E+02 -0.96158477287E+02  0.93897465828E+02  0.13660506769E+03  0.00000000000E+00 0. -1.
</event>
<event>
 8    1  0.8619230E-006  0.1300414E+03  0.7561462E-02  0.1227394E+00
          1   -1    0    0  501    0  0.00000000000E+00  0.00000000000E+00  0.10760478752E+03  0.10760478752E+03  0.00000000000E+00 0. -1.
         -1   -1    0    0    0  501 -0.00000000000E+00 -0.00000000000E+00 -0.29954062802E+03  0.29954062802E+03  0.00000000000E+00 0.  1.
         23    2    1    2    0    0  0.77251631478E+02 -0.73781190251E+02 -0.21023662029E+03  0.26575717682E+03  0.12253963409E+03 0.  0.
         23    2    1    2    0    0 -0.77251631478E+02  0.73781190251E+02  0.18300779785E+02  0.14138823872E+03  0.90797780299E+02 0.  0.
          5    1    3    3  502    0  0.37889623061E+02  0.87495978278E+01 -0.30227934202E+01  0.39227397032E+02  0.41800000000E+01 0. -1.
         -5    1    3    3    0  502  0.39362008417E+02 -0.82530788078E+02 -0.20721382687E+03  0.22652977979E+03  0.41800000000E+01 0.  1.
        -11    1    4    4    0    0 -0.85605964026E+02  0.39725535087E+02 -0.11885225638E+02  0.95119702497E+02  0.00000000000E+00 0. -1.
         11    1    4    4    0    0  0.83543325473E+01  0.34055655164E+02  0.30186005423E+02  0.46268536224E+02  0.00000000000E+00 0.  1.
</event>
<event>
 8    1  0.8619230E-006  0.3370374E+03  0.7561462E-02  0.1068065E+00
         -2   -1    0    0    0  501 -0.00000000000E+00  0.00000000000E+00  0.76211171282E+02  0.76211171282E+02  0.00000000000E+00 0.  1.
          2   -1    0    0  501    0  0.00000000000E+00 -0.00000000000E+00 -0.15950649117E+04  0.15950649117E+04  0.00000000000E+00 0. -1.
         23    2    1    2    0    0  0.37253431982E+02  0.32896691530E+03 -0.73552750468E+03  0.81624410057E+03  0.12508665801E+03 0.  0.
         23    2    1    2    0    0 -0.37253431982E+02 -0.32896691530E+03 -0.78332623577E+03  0.85503198245E+03  0.88727953894E+02 0.  0.
          5    1    3    3  502    0  0.18233030134E+02  0.29780116593E+03 -0.53689653537E+03  0.61424208575E+03  0.41800000000E+01 0.  1.
         -5    1    3    3    0  502  0.19020401848E+02  0.31165749375E+02 -0.19863096931E+03  0.20200201482E+03  0.41800000000E+01 0.  1.
        -11    1    4    4    0    0 -0.47373723819E+02 -0.11039075018E+03 -0.34107742486E+03  0.36161332551E+03  0.00000000000E+00 0. -1.
         11    1    4    4    0    0  0.10120291837E+02 -0.21857616512E+03 -0.44224881091E+03  0.49341865694E+03  0.00000000000E+00 0.  1.
</event>
<event>
 8    1  0.8619230E-006  0.2227188E+03  0.7561462E-02  0.1131872E+00
         -1   -1    0    0    0  501 -0.00000000000E+00  0.00000000000E+00  0.53243050944E+03  0.53243050944E+03  0.00000000000E+00 0.  1.
          1   -1    0    0  501    0  0.00000000000E+00 -0.00000000000E+00 -0.17016851507E+03  0.17016851507E+03  0.00000000000E+00 0. -1.
         23    2    1    2    0    0 -0.44196481295E+02  0.20424800128E+03  0.40271958446E+03  0.47063587737E+03  0.12507793723E+03 0.  0.
         23    2    1    2    0    0  0.44196481295E+02 -0.20424800128E+03 -0.40457590087E+02  0.23196314713E+03  0.92192787374E+02 0.  0.
          5    1    3    3  502    0  0.51973942187E+01  0.17957942312E+03  0.35349139947E+03  0.39654687492E+03  0.41800000000E+01 0. -1.
         -5    1    3    3    0  502 -0.49393875514E+02  0.24668578160E+02  0.49228184989E+02  0.74089002450E+02  0.41800000000E+01 0. -1.
        -11    1    4    4    0    0  0.15662291911E+02 -0.30467835747E+02  0.26753139978E+02  0.43466388184E+02  0.00000000000E+00 0. -1.
         11    1    4    4    0    0  0.28534189384E+02 -0.17378016554E+03 -0.67210730065E+02  0.18849675895E+03  0.00000000000E+00 0.  1.
</event>
<event>
 8    1  0.1533945E-005  0.3256982E+03  0.7561462E-02  0.1073056E+00
          1   -1    0    0  501    0  0.00000000000E+00  0.00000000000E+00  0.89064901589E+03  0.89064901589E+03  0.00000000000E+00 0. -1.
         -1   -1    0    0    0  501 -0.00000000000E+00 -0.00000000000E+00 -0.14171225113E+03  0.14171225113E+03  0.00000000000E+00 0.  1.
         23    2    1    2    0    0  0.89827808383E+02  0.30984164208E+03  0.23133287184E+03  0.41621310061E+03  0.12509024420E+03 0.  0.
         23    2    1    2    0    0 -0.89827808383E+02 -0.30984164208E+03  0.51760389291E+03  0.61614816642E+03  0.87486540066E+02 0.  0.
          5    1    3    3  502    0  0.33817218241E+01  0.10832344033E+03  0.17415243166E+02  0.10984610536E+03  0.41800000000E+01 0. -1.
         -5    1    3    3    0  502  0.86446086559E+02  0.20151820175E+03  0.21391762868E+03  0.30636699525E+03  0.41800000000E+01 0. -1.
        -11    1    4    4    0    0 -0.27173734683E+02 -0.13954212087E+03  0.15280255716E+03  0.20870801812E+03  0.00000000000E+00 0.  1.
         11    1    4    4    0    0 -0.62654073700E+02 -0.17029952121E+03  0.36480133575E+03  0.40744014830E+03  0.00000000000E+00 0. -1.
</event>
<event>
 8    1  0.8619230E-006  0.1243309E+03  0.7561462E-02  0.1236119E+00
          1   -1    0    0  501    0  0.00000000000E+00  0.00000000000E+00  0.17830102045E+03  0.17830102045E+03  0.00000000000E+00 0. -1.
         -1   -1    0    0    0  501 -0.00000000000E+00 -0.00000000000E+00 -0.11284094276E+03  0.11284094276E+03  0.00000000000E+00 0.  1.
         23    2    1    2    0    0 -0.60048451725E+02  0.39788899142E+01 -0.31923491100E+02  0.14240347698E+03  0.12505196062E+03 0.  0.
         23    2    1    2    0    0  0.60048451725E+02 -0.39788899142E+01  0.97383568789E+02  0.14873848623E+03  0.94962780588E+02 0.  0.
          5    1    3    3  502    0 -0.20049117417E+02  0.62237972231E+02 -0.20133374039E+01  0.65551950574E+02  0.41800000000E+01 0. -1.
         -5    1    3    3    0  502 -0.39999334308E+02 -0.58259082317E+02 -0.29910153696E+02  0.76851526410E+02  0.41800000000E+01 0.  1.
        -11    1    4    4    0    0 -0.26070144870E+02  0.96633691138E+00  0.24979081565E+02  0.36118427103E+02  0.00000000000E+00 0.  1.
         11    1    4    4    0    0  0.86118596595E+02 -0.49452268256E+01  0.72404487224E+02  0.11262005913E+03  0.00000000000E+00 0. -1.
</event>
<event>
 8    1  0.8619230E-006  0.1206666E+03  0.7561462E-02  0.1242001E+00
          1   -1    0    0  501    0  0.00000000000E+00  0.00000000000E+00  0.89926148700E+03  0.89926148700E+03  0.00000000000E+00 0. -1.
         -1   -1    0    0    0  501 -0.00000000000E+00 -0.00000000000E+00 -0.24076855796E+02  0.24076855796E+02  0.00000000000E+00 0.  1.
         23    2    1    2    0    0  0.48670976129E+02  0.87107689671E+02  0.44448667463E+03  0.47241263939E+03  0.12509470180E+03 0.  0.
         23    2    1    2    0    0 -0.48670976129E+02 -0.87107689671E+02  0.43069795658E+03  0.45092570341E+03  0.88750474223E+02 0.  0.
          5    1    3    3  502    0 -0.85131884884E+01 -0.31571287690E+01 -0.44313155052E+01  0.10933928727E+02  0.41800000000E+01 0. -1.
         -5    1    3    3    0  502  0.57184164618E+02  0.90264818440E+02  0.44891799013E+03  0.46147871066E+03  0.41800000000E+01 0. -1.
        -11    1    4    4    0    0 -0.39770745893E+02 -0.30645456343E+01  0.22557533950E+03  0.22907496035E+03  0.00000000000E+00 0.  1.
         11    1    4    4    0    0 -0.89002302367E+01 -0.84043144036E+02  0.20512261708E+03  0.22185074306E+03  0.00000000000E+00 0. -1.
</event>
<event>
 8    1  0.8619230E-006  0.1455924E+03  0.7561462E-02  0.1205996E+00
         -1   -1    0    0    0  501 -0.00000000000E+00  0.00000000000E+00  0.71810829681E+02  0.71810829681E+02  0.00000000000E+00 0.  1.
          1   -1    0    0  501    0  0.00000000000E+00 -0.00000000000E+00 -0.47854687917E+03  0.47854687917E+03  0.00000000000E+00 0. -1.
         23    2    1    2    0    0  0.79208747016E+02 -0.96953811272E+02 -0.91632431447E+02  0.19929450883E+03  0.12509089348E+03 0.  0.
         23    2    1    2    0    0 -0.79208747016E+02  0.96953811272E+02 -0.31510361804E+03  0.35106320003E+03  0.91000072443E+02 0.  0.
          5    1    3    3  502    0  0.57606967860E+02 -0.10538003611E+03 -0.11484213449E+03  0.16622184877E+03  0.41800000000E+01 0.  1.
         -5    1    3    3    0  502  0.21601779156E+02  0.84262248366E+01  0.23209703041E+02  0.33072660053E+02  0.41800000000E+01 0.  1.
        -11    1    4    4    0    0 -0.19330695615E+02 -0.12267956549E+02 -0.18734379186E+02  0.29583027470E+02  0.00000000000E+00 0.  1.
         11    1    4    4    0    0 -0.59878051401E+02  0.10922176782E+03 -0.29636923886E+03  0.32148017256E+03  0.00000000000E+00 0. -1.
</event>
<event>
 8    1  0.8619230E-006  0.1611967E+03  0.7561462E-02  0.1187352E+00
          1   -1    0    0  501    0  0.00000000000E+00  0.00000000000E+00  0.20316920036E+03  0.20316920036E+03  0.00000000000E+00 0. -1.
         -1   -1    0    0    0  501 -0.00000000000E+00 -0.00000000000E+00 -0.16562740742E+03  0.16562740742E+03  0.00000000000E+00 0.  1.
         23    2    1    2    0    0 -0.97756095475E+02 -0.82133063370E+02 -0.55717294418E+02  0.18722903704E+03  0.12509277003E+03 0.  0.
         23    2    1    2    0    0  0.97756095475E+02  0.82133063370E+02  0.93259087353E+02  0.18156757074E+03  0.89260467556E+02 0.  0.
          5    1    3    3  502    0  0.29099834553E+02 -0.19988777119E+02 -0.22446909748E+02  0.42043878734E+02  0.41800000000E+01 0. -1.
         -5    1    3    3    0  502 -0.12685593003E+03 -0.62144286251E+02 -0.33270384671E+02  0.14518515831E+03  0.41800000000E+01 0. -1.
        -11    1    4    4    0    0 -0.27893929694E+01  0.33883946225E+02 -0.31571412041E+01  0.34144839515E+02  0.00000000000E+00 0.  1.
         11    1    4    4    0    0  0.10054548844E+03  0.48249117145E+02  0.96416228557E+02  0.14742273122E+03  0.00000000000E+00 0. -1.
</event>
<event>
 8    1  0.8619230E-006  0.1183952E+03  0.7561462E-02  0.1245768E+00
         -2   -1    0    0    0  501 -0.00000000000E+00  0.00000000000E+00  0.24782596395E+02  0.24782596395E+02  0.00000000000E+00 0.  1.
          2   -1    0    0  501    0  0.00000000000E+00 -0.00000000000E+00 -0.78458203077E+03  0.78458203077E+03  0.00000000000E+00 0. -1.
         23    2    1    2    0    0 -0.84762674946E+02 -0.12928081421E+02 -0.38250081720E+03  0.41146676638E+03  0.12508468460E+03 0.  0.
         23    2    1    2    0    0  0.84762674946E+02  0.12928081421E+02 -0.37729861717E+03  0.39789786078E+03  0.92825722424E+02 0.  0.
          5    1    3    3  502    0 -0.21505623469E+02 -0.61745048155E+02 -0.23130624375E+03  0.24040589346E+03  0.41800000000E+01 0. -1.
         -5    1    3    3    0  502 -0.63257051477E+02  0.48816966735E+02 -0.15119457345E+03  0.17106087292E+03  0.41800000000E+01 0. -1.
        -11    1    4    4    0    0  0.59904942415E+02 -0.57327147438E+01 -0.35393235186E+03  0.35901194386E+03  0.00000000000E+00 0. -1.
         11    1    4    4    0    0  0.24857732531E+02  0.18660796164E+02 -0.23366265312E+02  0.38885916920E+02  0.00000000000E+00 0.  1.
</event>
<event>
 8    1  0.8619230E-006  0.1180696E+03  0.7561462E-02  0.1246316E+00
          2   -1    0    0  501    0  0.00000000000E+00  0.00000000000E+00  0.30431947326E+03  0.30431947326E+03  0.00000000000E+00 0. -1.
         -2   -1    0    0    0  501 -0.00000000000E+00 -0.00000000000E+00 -0.62596697188E+02  0.62596697188E+02  0.00000000000E+00 0.  1.
         23    2    1    2    0    0  0.68897599707E+01  0.48956664189E+02  0.40412449255E+02  0.14044389536E+03  0.12508836048E+03 0.  0.
         23    2    1    2    0    0 -0.68897599707E+01 -0.48956664189E+02  0.20131032682E+03  0.22647227508E+03  0.91211950635E+02 0.  0.
          5    1    3    3  502    0 -0.15833579983E+02  0.86670432528E+02  0.15108386717E+02  0.89488557251E+02  0.41800000000E+01 0.  1.
         -5    1    3    3    0  502  0.22723339954E+02 -0.37713768339E+02  0.25304062539E+02  0.50955338111E+02  0.41800000000E+01 0.  1.
        -11    1    4    4    0    0 -0.47927166918E+02 -0.38185799216E+02  0.11576344740E+03  0.13098222912E+03  0.00000000000E+00 0.  1.
         11    1    4    4    0    0  0.41037406947E+02 -0.10770864973E+02  0.85546879416E+02  0.95490045968E+02  0.00000000000E+00 0. -1.
</event>
<event>
 8    1  0.8619230E-006  0.7517863E+02  0.7561462E-02  0.1343319E+00
         -3   -1    0    0    0  501 -0.00000000000E+00  0.00000000000E+00  0.16926402890E+03  0.16926402890E+03  0.00000000000E+00 0.  1.
          3   -1    0    0  501    0  0.00000000000E+00 -0.00000000000E+00 -0.77672248736E+02  0.77672248736E+02  0.00000000000E+00 0. -1.
         23    2    1    2    0    0 -0.16371897041E+02 -0.10056457961E+02  0.11640762537E+03  0.16134119221E+03  0.11005032349E+03 0.  0.
         23    2    1    2    0    0  0.16371897041E+02  0.10056457961E+02 -0.24815845207E+02  0.85595085423E+02  0.79633668231E+02 0.  0.
          5    1    3    3  502    0  0.11380413090E+02  0.31459202568E+02 -0.95467551214E+00  0.33728015561E+02  0.41800000000E+01 0. -1.
         -5    1    3    3    0  502 -0.27752310131E+02 -0.41515660529E+02  0.11736230088E+03  0.12761317665E+03  0.41800000000E+01 0.  1.
        -11    1    4    4    0    0  0.74352633902E+00 -0.26637183249E+02  0.13862059934E+02  0.30037461085E+02  0.00000000000E+00 0. -1.
         11    1    4    4    0    0  0.15628370702E+02  0.36693641209E+02 -0.38677905141E+02  0.55557624338E+02  0.00000000000E+00 0.  1.
</event>
<event>
 8    1  0.8619230E-006  0.1279636E+03  0.7561462E-02  0.1230509E+00
         -1   -1    0    0    0  501 -0.00000000000E+00  0.00000000000E+00  0.42461006401E+03  0.42461006401E+03  0.00000000000E+00 0.  1.
          1   -1    0    0  501    0  0.00000000000E+00 -0.00000000000E+00 -0.57830721104E+02  0.57830721104E+02  0.00000000000E+00 0. -1.
         23    2    1    2    0    0 -0.37559740467E+02 -0.78933405734E+02  0.30621253515E+03  0.34212959446E+03  0.12508127787E+03 0.  0.
         23    2    1    2    0    0  0.37559740467E+02  0.78933405734E+02  0.60566807756E+02  0.14031119066E+03  0.91529642072E+02 0.  0.
          5    1    3    3  502    0  0.31412074781E+02 -0.36395392383E+02  0.36587715279E+02  0.60559692355E+02  0.41800000000E+01 0. -1.
         -5    1    3    3    0  502 -0.68971815248E+02 -0.42538013351E+02  0.26962481988E+03  0.28156990210E+03  0.41800000000E+01 0. -1.
        -11    1    4    4    0    0  0.55153382613E+02  0.10854081836E+02  0.25188786111E+02  0.61596928916E+02  0.00000000000E+00 0. -1.
         11    1    4    4    0    0 -0.17593642146E+02  0.68079323898E+02  0.35378021645E+02  0.78714261743E+02  0.00000000000E+00 0.  1.
</event>
<event>
 8    1  0.8619230E-006  0.9449142E+02  0.7561462E-02  0.1292326E+00
         -2   -1    0    0    0  501 -0.00000000000E+00  0.00000000000E+00  0.43800077137E+02  0.43800077137E+02  0.00000000000E+00 0.  1.
          2   -1    0    0  501    0  0.00000000000E+00 -0.00000000000E+00 -0.36437924294E+03  0.36437924294E+03  0.00000000000E+00 0. -1.
         23    2    1    2    0    0 -0.35070357889E+02  0.27276632672E+02 -0.98997846420E+02  0.16559715090E+03  0.12509155886E+03 0.  0.
         23    2    1    2    0    0  0.35070357889E+02 -0.27276632672E+02 -0.22158131938E+03  0.24258216918E+03  0.88169626360E+02 0.  0.
          5    1    3    3  502    0 -0.27331428906E+01  0.50315101769E+02 -0.11259032534E+03  0.12342258018E+03  0.41800000000E+01 0.  1.
         -5    1    3    3    0  502 -0.32337214998E+02 -0.23038469097E+02  0.13592478924E+02  0.42174570721E+02  0.41800000000E+01 0.  1.
        -11    1    4    4    0    0 -0.64868890917E+01 -0.50483373880E+02 -0.10613060215E+03  0.11770452617E+03  0.00000000000E+00 0. -1.
         11    1    4    4    0    0  0.41557246981E+02  0.23206741208E+02 -0.11545071723E+03  0.12487764301E+03  0.00000000000E+00 0.  1.
</event>
<event>
 8    1  0.8619230E-006  0.1068787E+03  0.7561462E-02  0.1266462E+00
         -1   -1    0    0    0  501 -0.00000000000E+00  0.00000000000E+00  0.19177310074E+02  0.19177310074E+02  0.00000000000E+00 0.  1.
          1   -1    0    0  501    0  0.00000000000E+00 -0.00000000000E+00 -0.61909336025E+03  0.61909336025E+03  0.00000000000E+00 0. -1.
         23    2    1    2    0    0 -0.55689433415E+01  0.11945567573E+02 -0.38002724308E+03  0.40030188534E+03  0.12508870536E+03 0.  0.
         23    2    1    2    0    0  0.55689433415E+01 -0.11945567573E+02 -0.21988880709E+03  0.23796878498E+03  0.90024138017E+02 0.  0.
          5    1    3    3  502    0 -0.18058636651E+02 -0.53381292821E+02 -0.13442827139E+03  0.14582218394E+03  0.41800000000E+01 0. -1.
         -5    1    3    3    0  502  0.12489693310E+02  0.65326860394E+02 -0.24559897170E+03  0.25447970140E+03  0.41800000000E+01 0. -1.
        -11    1    4    4    0    0 -0.12102444373E+02  0.36810186396E+02 -0.83477602100E+02  0.92032434689E+02  0.00000000000E+00 0. -1.
         11    1    4    4    0    0  0.17671387714E+02 -0.48755753969E+02 -0.13641120499E+03  0.14593635029E+03  0.00000000000E+00 0.  1.
</event>
<event>
 8    1  0.8619230E-006  0.1474539E+03  0.7561462E-02  0.1203637E+00
          2   -1    0    0  501    0  0.00000000000E+00  0.00000000000E+00  0.43957627135E+03  0.43957627135E+03  0.00000000000E+00 0. -1.
         -2   -1    0    0    0  501 -0.00000000000E+00 -0.00000000000E+00 -0.10953841139E+03  0.10953841139E+03  0.00000000000E+00 0.  1.
         23    2    1    2    0    0  0.17422134049E+02 -0.13806375888E+03  0.91301755875E+01  0.18734130105E+03  0.12509304818E+03 0.  0.
         23    2    1    2    0    0 -0.17422134049E+02  0.13806375888E+03  0.32090768437E+03  0.36177338169E+03  0.92374810093E+02 0.  0.
          5    1    3    3  502    0  0.39335087212E+02 -0.12183769025E+03 -0.37226755523E+02  0.13339780950E+03  0.41800000000E+01 0. -1.
         -5    1    3    3    0  502 -0.21912953163E+02 -0.16226068627E+02  0.46356931111E+02  0.53943491558E+02  0.41800000000E+01 0. -1.
        -11    1    4    4    0    0 -0.92341307990E+01  0.56337228098E+02  0.41596203941E+02  0.70635661133E+02  0.00000000000E+00 0.  1.
         11    1    4    4    0    0 -0.81880032501E+01  0.81726530779E+02  0.27931148043E+03  0.29113772055E+03  0.00000000000E+00 0. -1.
</event>
<event>
 8    1  0.8619230E-006  0.1126732E+03  0.7561462E-02  0.1255698E+00
         -1   -1    0    0    0  501 -0.00000000000E+00  0.00000000000E+00  0.40570273468E+02  0.40570273468E+02  0.00000000000E+00 0.  1.
          1   -1    0    0  501    0  0.00000000000E+00 -0.00000000000E+00 -0.79442405487E+03  0.79442405487E+03  0.00000000000E+00 0. -1.
         23    2    1    2    0    0 -0.70571148756E+02 -0.42202826080E+02 -0.12754435472E+03  0.19666270470E+03  0.12508913394E+03 0.  0.
         23    2    1    2    0    0  0.70571148756E+02  0.42202826080E+02 -0.62630942668E+03  0.63833162365E+03  0.91882524058E+02 0.  0.
          5    1    3    3  502    0 -0.22259487513E+02  0.15051591066E+02 -0.11792302223E+03  0.12101796044E+03  0.41800000000E+01 0. -1.
         -5    1    3    3    0  502 -0.48311661243E+02 -0.57254417146E+02 -0.96213324970E+01  0.75644744257E+02  0.41800000000E+01 0. -1.
        -11    1    4    4    0    0 -0.12883718525E+02  0.37368683473E+02 -0.21756735314E+03  0.22112883543E+03  0.00000000000E+00 0.  1.
         11    1    4    4    0    0  0.83454867281E+02  0.48341426072E+01 -0.40874207354E+03  0.41720278821E+03  0.00000000000E+00 0. -1.
</event>
<event>
 8    1  0.8619230E-006  0.1606984E+03  0.7561462E-02  0.1187910E+00
          1   -1    0    0  501    0  0.00000000000E+00  0.00000000000E+00  0.48676689609E+03  0.48676689609E+03  0.00000000000E+00 0. -1.
         -1   -1    0    0    0  501 -0.00000000000E+00 -0.00000000000E+00 -0.74731673519E+02  0.74731673519E+02  0.00000000000E+00 0.  1.
         23    2    1    2    0    0 -0.84046118610E+01 -0.14779724030E+03  0.29133614498E+03  0.34991215508E+03  0.12508838938E+03 0.  0.
         23    2    1    2    0    0  0.84046118610E+01  0.14779724030E+03  0.12069907759E+03  0.21158641453E+03  0.91026818808E+02 0.  0.
          5    1    3    3  502    0 -0.40454910022E+02 -0.30048687195E+02  0.23921919993E+02  0.55939735459E+02  0.41800000000E+01 0.  1.
         -5    1    3    3    0  502  0.32050298161E+02 -0.11774855311E+03  0.26741422499E+03  0.29397241962E+03  0.41800000000E+01 0.  1.
        -11    1    4    4    0    0  0.12359515977E+02  0.12243913787E+03  0.43973040396E+02  0.13068178296E+03  0.00000000000E+00 0.  1.
         11    1    4    4    0    0 -0.39549041157E+01  0.25358102434E+02  0.76726037198E+02  0.80904631571E+02  0.00000000000E+00 0. -1.
</event>
<event>
 8    1  0.8619230E-006  0.9071743E+02  0.7561462E-02  0.1301124E+00
         -1   -1    0    0    0  501 -0.00000000000E+00  0.00000000000E+00  0.12951368721E+04  0.12951368721E+04  0.00000000000E+00 0.  1.
          1   -1    0    0  501    0  0.00000000000E+00 -0.00000000000E+00 -0.16915059620E+02  0.16915059620E+02  0.00000000000E+00 0. -1.
         23    2    1    2    0    0  0.58896861217E+02 -0.27054882397E+02  0.10124929507E+04  0.10222472982E+04  0.12508699641E+03 0.  0.
         23    2    1    2    0    0 -0.58896861217E+02  0.27054882397E+02  0.26572886176E+03  0.28980463344E+03  0.95781473498E+02 0.  0.
          5    1    3    3  502    0  0.65837786389E+02 -0.16146412627E+02  0.10038461054E+04  0.10061410421E+04  0.41800000000E+01 0.  1.
         -5    1    3    3    0  502 -0.69409251728E+01 -0.10908469770E+02  0.86468452412E+01  0.16106256164E+02  0.41800000000E+01 0.  1.
        -11    1    4    4    0    0 -0.15587679929E+02 -0.26688375592E+02  0.26162571432E+02  0.40493521720E+02  0.00000000000E+00 0. -1.
         11    1    4    4    0    0 -0.43309181287E+02  0.53743257990E+02  0.23956629033E+03  0.24931111172E+03  0.00000000000E+00 0.  1.
</event>
<event>
 8    1  0.8619230E-006  0.1658872E+03  0.7561462E-02  0.1182206E+00
          1   -1    0    0  501    0  0.00000000000E+00  0.00000000000E+00  0.56478095625E+03  0.56478095625E+03  0.00000000000E+00 0. -1.
         -1   -1    0    0    0  501 -0.00000000000E+00 -0.00000000000E+00 -0.54560622127E+02  0.54560622127E+02  0.00000000000E+00 0.  1.
         23    2    1    2    0    0  0.22357188673E+02 -0.13660362151E+03  0.28088794444E+03  0.33720231993E+03  0.12508786489E+03 0.  0.
         23    2    1    2    0    0 -0.22357188673E+02  0.13660362151E+03  0.22933238968E+03  0.28213925845E+03  0.88593582755E+02 0.  0.
          5    1    3    3  502    0  0.73982774275E+02 -0.68699858832E+02  0.15817043546E+03  0.18769251595E+03  0.41800000000E+01 0. -1.
         -5    1    3    3    0  502 -0.51625585602E+02 -0.67903762674E+02  0.12271750899E+03  0.14950980398E+03  0.41800000000E+01 0. -1.
        -11    1    4    4    0    0 -0.18610805640E+02  0.15660198718E+02  0.17457841903E+01  0.24385480781E+02  0.00000000000E+00 0.  1.
         11    1    4    4    0    0 -0.37463830326E+01  0.12094342279E+03  0.22758660549E+03  0.25775377766E+03  0.00000000000E+00 0. -1.
</event>
<event>
 8    1  0.8619230E-006  0.1666606E+03  0.7561462E-02  0.1181376E+00
         -2   -1    0    0    0  501 -0.00000000000E+00  0.00000000000E+00  0.25606856323E+03  0.25606856323E+03  0.00000000000E+00 0.  1.
          2   -1    0    0  501    0  0.00000000000E+00 -0.00000000000E+00 -0.15344173222E+03  0.15344173222E+03  0.00000000000E+00 0. -1.
         23    2    1    2    0    0  0.14605220623E+03 -0.77913757251E+02  0.41961497872E+02  0.21177178896E+03  0.12523866328E+03 0.  0.
         23    2    1    2    0    0 -0.14605220623E+03  0.77913757251E+02  0.60665333133E+02  0.19773850649E+03  0.89545707824E+02 0.  0.
          5    1    3    3  502    0  0.86519641117E+02 -0.45402990009E+02 -0.39683885144E+02  0.10554318046E+03  0.41800000000E+01 0. -1.
         -5    1    3    3    0  502  0.59532565118E+02 -0.32510767242E+02  0.81645383016E+02  0.10622860850E+03  0.41800000000E+01 0. -1.
        -11    1    4    4    0    0 -0.71175961717E+02  0.52674273812E+02  0.76658932667E+02  0.11712040217E+03  0.00000000000E+00 0. -1.
         11    1    4    4    0    0 -0.74876244518E+02  0.25239483440E+02 -0.15993599534E+02  0.80618104316E+02  0.00000000000E+00 0.  1.
</event>
<event>
 8    1  0.8619230E-006  0.7414124E+02  0.7561462E-02  0.1346551E+00
          3   -1    0    0  501    0  0.00000000000E+00  0.00000000000E+00  0.44549010380E+02  0.44549010380E+02  0.00000000000E+00 0. -1.
         -3   -1    0    0    0  501 -0.00000000000E+00 -0.00000000000E+00 -0.28102853893E+03  0.28102853893E+03  0.00000000000E+00 0.  1.
         23    2    1    2    0    0  0.13825719869E+02  0.20534463863E+02 -0.16177251425E+03  0.20595727829E+03  0.12504095079E+03 0.  0.
         23    2    1    2    0    0 -0.13825719869E+02 -0.20534463863E+02 -0.74707014299E+02  0.11962027102E+03  0.90083608489E+02 0.  0.
          5    1    3    3  502    0  0.29610657995E+02 -0.23193947811E+02 -0.27113436780E+00  0.37845689263E+02  0.41800000000E+01 0.  1.
         -5    1    3    3    0  502 -0.15784938126E+02  0.43728411674E+02 -0.16150137989E+03  0.16811158902E+03  0.41800000000E+01 0.  1.
        -11    1    4    4    0    0 -0.25630790425E+02  0.12618076595E+02  0.80589419708E+01  0.29683325630E+02  0.00000000000E+00 0. -1.
         11    1    4    4    0    0  0.11805070556E+02 -0.33152540458E+02 -0.82765956269E+02  0.89936945394E+02  0.00000000000E+00 0.  1.
</event>
<event>
 8    1  0.8619230E-006  0.1049903E+03  0.7561462E-02  0.1270139E+00
         -4   -1    0    0    0  501 -0.00000000000E+00  0.00000000000E+00  0.18723331344E+03  0.18723331344E+03  0.00000000000E+00 0. -1.
          4   -1    0    0  501    0  0.00000000000E+00 -0.00000000000E+00 -0.90364954547E+02  0.90364954547E+02  0.00000000000E+00 0.  1.
         23    2    1    2    0    0  0.40480375109E+02 -0.38767238349E+02  0.10523102073E+03  0.17278454839E+03  0.12505747839E+03 0.  0.
         23    2    1    2    0    0 -0.40480375109E+02  0.38767238349E+02 -0.83626618393E+01  0.10481371959E+03  0.88172683774E+02 0.  0.
          5    1    3    3  502    0 -0.39394379891E+01 -0.59547049468E+02  0.36817041288E+01  0.59936613329E+02  0.41800000000E+01 0.  1.
         -5    1    3    3    0  502  0.44419813098E+02  0.20779811119E+02  0.10154931660E+03  0.11284793506E+03  0.41800000000E+01 0.  1.
        -11    1    4    4    0    0 -0.51978880218E+02  0.58403501409E+02 -0.17790554930E+02  0.80182771280E+02  0.00000000000E+00 0.  1.
         11    1    4    4    0    0  0.11498505109E+02 -0.19636263059E+02  0.94278930911E+01  0.24630948313E+02  0.00000000000E+00 0. -1.
</event>
<event>
 8    1  0.8619230E-006  0.1304304E+03  0.7561462E-02  0.1226819E+00
          2   -1    0    0  501    0  0.00000000000E+00  0.00000000000E+00  0.60717269328E+02  0.60717269328E+02  0.00000000000E+00 0.  1.
         -2   -1    0    0    0  501 -0.00000000000E+00 -0.00000000000E+00 -0.62795879413E+03  0.62795879413E+03  0.00000000000E+00 0. -1.
         23    2    1    2    0    0  0.12604629366E+03 -0.19415962656E+01 -0.47789123427E+03  0.50982228901E+03  0.12508915475E+03 0.  0.
         23    2    1    2    0    0 -0.12604629366E+03  0.19415962656E+01 -0.89350290531E+02  0.17885377445E+03  0.90076413524E+02 0.  0.
          5    1    3    3  502    0  0.88529206030E+02 -0.23259579077E+01 -0.11616854743E+03  0.14613498627E+03  0.41800000000E+01 0. -1.
         -5    1    3    3    0  502  0.37517087635E+02  0.38436164214E+00 -0.36172268684E+03  0.36368730274E+03  0.41800000000E+01 0. -1.
        -11    1    4    4    0    0 -0.25955818929E+02  0.19971197085E+02  0.12374517118E+02  0.35009740404E+02  0.00000000000E+00 0. -1.
         11    1    4    4    0    0 -0.10009047474E+03 -0.18029600819E+02 -0.10172480765E+03  0.14384403404E+03  0.00000000000E+00 0.  1.
</event>
<event>
 8    1  0.8619230E-006  0.1052784E+03  0.7561462E-02  0.1269572E+00
         -4   -1    0    0    0  501 -0.00000000000E+00  0.00000000000E+00  0.47383238029E+02  0.47383238029E+02  0.00000000000E+00 0.  1.
          4   -1    0    0  501    0  0.00000000000E+00 -0.00000000000E+00 -0.28198556203E+03  0.28198556203E+03  0.00000000000E+00 0. -1.
         23    2    1    2    0    0 -0.27009705574E+02 -0.26467585702E+02 -0.15004267192E+03  0.19896713081E+03  0.12508020809E+03 0.  0.
         23    2    1    2    0    0  0.27009705574E+02  0.26467585702E+02 -0.84559652075E+02  0.13040166925E+03  0.91783458727E+02 0.  0.
          5    1    3    3  502    0 -0.48635093137E+02  0.38405871369E+02 -0.68611500323E+02  0.92549411757E+02  0.41800000000E+01 0.  1.
         -5    1    3    3    0  502  0.21625387563E+02 -0.64873457071E+02 -0.81431171601E+02  0.10641771905E+03  0.41800000000E+01 0.  1.
        -11    1    4    4    0    0  0.20108160751E+02 -0.22676814264E+02  0.22676680638E+01  0.30392735191E+02  0.00000000000E+00 0.  1.
         11    1    4    4    0    0  0.69015448233E+01  0.49144399966E+02 -0.86827320139E+02  0.10000893406E+03  0.00000000000E+00 0. -1.
</event>
<event>
 8    1  0.8619230E-006  0.7924949E+02  0.7561462E-02  0.1331195E+00
         -1   -1    0    0    0  501 -0.00000000000E+00  0.00000000000E+00  0.70312645396E+02  0.70312645396E+02  0.00000000000E+00 0.  1.
          1   -1    0    0  501    0  0.00000000000E+00 -0.00000000000E+00 -0.19266042202E+03  0.19266042202E+03  0.00000000000E+00 0. -1.
         23    2    1    2    0    0  0.18673247818E+02 -0.23074711823E+02 -0.42310469686E+02  0.13534562657E+03  0.12508848979E+03 0.  0.
         23    2    1    2    0    0 -0.18673247818E+02  0.23074711823E+02 -0.80037306940E+02  0.12762744085E+03  0.94877081769E+02 0.  0.
          5    1    3    3  502    0 -0.31627074601E+02 -0.34969969224E+00 -0.67401367171E+02  0.74570844398E+02  0.41800000000E+01 0.  1.
         -5    1    3    3    0  502  0.50300322418E+02 -0.22725012130E+02  0.25090897485E+02  0.60774782174E+02  0.41800000000E+01 0.  1.
        -11    1    4    4    0    0 -0.26733071535E+02 -0.16126267441E+02  0.68527719410E+01  0.31963637130E+02  0.00000000000E+00 0.  1.
         11    1    4    4    0    0  0.80598237172E+01  0.39200979264E+02 -0.86890078881E+02  0.95663803717E+02  0.00000000000E+00 0. -1.
</event>
<event>
 8    1  0.8619230E-006  0.1550598E+03  0.7561462E-02  0.1194390E+00
          1   -1    0    0  501    0  0.00000000000E+00  0.00000000000E+00  0.40487533688E+03  0.40487533688E+03  0.00000000000E+00 0. -1.
         -1   -1    0    0    0  501 -0.00000000000E+00 -0.00000000000E+00 -0.67194302627E+02  0.67194302627E+02  0.00000000000E+00 0.  1.
         23    2    1    2    0    0  0.38403020077E+02 -0.11624818254E+03  0.13004724746E+03  0.21611662969E+03  0.12167858957E+03 0.  0.
         23    2    1    2    0    0 -0.38403020077E+02  0.11624818254E+03  0.20763378679E+03  0.25595300982E+03  0.86091357996E+02 0.  0.
          5    1    3    3  502    0 -0.28593086498E+02 -0.78377488643E+02  0.10685181282E+03  0.13562956029E+03  0.41800000000E+01 0. -1.
         -5    1    3    3    0  502  0.66996106574E+02 -0.37870693899E+02  0.23195434643E+02  0.80487069401E+02  0.41800000000E+01 0.  1.
        -11    1    4    4    0    0 -0.63091426997E+02  0.10473837152E+03  0.16517957697E+03  0.20551142859E+03  0.00000000000E+00 0. -1.
         11    1    4    4    0    0  0.24688406921E+02  0.11509811021E+02  0.42454209817E+02  0.50441581232E+02  0.00000000000E+00 0.  1.
</event>
<event>
 8    1  0.8619230E-006  0.1621535E+03  0.7561462E-02  0.1186287E+00
          2   -1    0    0  501    0  0.00000000000E+00  0.00000000000E+00  0.14418425811E+03  0.14418425811E+03  0.00000000000E+00 0. -1.
         -2   -1    0    0    0  501 -0.00000000000E+00 -0.00000000000E+00 -0.24383260436E+03  0.24383260436E+03  0.00000000000E+00 0.  1.
         23    2    1    2    0    0 -0.50170077405E+02  0.12412872451E+03 -0.12693340590E+03  0.22297642152E+03  0.12522546908E+03 0.  0.
         23    2    1    2    0    0  0.50170077405E+02 -0.12412872451E+03  0.27285059659E+02  0.16504044095E+03  0.92568330187E+02 0.  0.
          5    1    3    3  502    0 -0.44504416945E+02  0.14884895066E+03 -0.95663036734E+02  0.18249806091E+03  0.41800000000E+01 0. -1.
         -5    1    3    3    0  502 -0.56656604600E+01 -0.24720226152E+02 -0.31270369166E+02  0.40478360605E+02  0.41800000000E+01 0. -1.
        -11    1    4    4    0    0  0.57360725230E+02 -0.79783410929E+02 -0.19499254352E+02  0.10017917138E+03  0.00000000000E+00 0.  1.
         11    1    4    4    0    0 -0.71906478250E+01 -0.44345313580E+02  0.46784314011E+02  0.64861269570E+02  0.00000000000E+00 0. -1.
</event>
<event>
 7    1  0.8619230E-006  0.1189321E+03  0.7561462E-02  0.1244869E+00
         -2   -1    0    0    0  501 -0.00000000000E+00  0.00000000000E+00  0.15856281965E+03  0.15856281965E+03  0.00000000000E+00 0.  1.
          2   -1    0    0  501    0  0.00000000000E+00 -0.00000000000E+00 -0.31582401763E+03  0.31582401763E+03  0.00000000000E+00 0. -1.
         23    2    1    2    0    0 -0.36255806745E+02  0.24813032285E+01 -0.60848923732E+02  0.11239926785E+03  0.87237397400E+02 0.  0.
          5    1    1    2  502    0 -0.50048272807E+02  0.49318115445E+02 -0.20327965915E+03  0.21512135726E+03  0.41800000000E+01 0. -1.
         -5    1    1    2    0  502  0.86304079552E+02 -0.51799418674E+02  0.10686738491E+03  0.14686621218E+03  0.41800000000E+01 0.  1.
        -11    1    3    3    0    0 -0.17396001625E+02 -0.26771820471E+02  0.10004872445E+02  0.33458163675E+02  0.00000000000E+00 0.  1.
         11    1    3    3    0    0 -0.18859805120E+02  0.29253123699E+02 -0.70853796178E+02  0.78941104173E+02  0.00000000000E+00 0. -1.
</event>
<event>
 8    1  0.8619230E-006  0.8142658E+02  0.7561462E-02  0.1325051E+00
          3   -1    0    0  501    0  0.00000000000E+00  0.00000000000E+00  0.33728604266E+02  0.33728604266E+02  0.00000000000E+00 0. -1.
         -3   -1    0    0    0  501 -0.00000000000E+00 -0.00000000000E+00 -0.47673436658E+03  0.47673436658E+03  0.00000000000E+00 0.  1.
         23    2    1    2    0    0 -0.19430832779E+02 -0.27578237293E+02 -0.35989336524E+03  0.38250281608E+03  0.12508818301E+03 0.  0.
         23    2    1    2    0    0  0.19430832779E+02  0.27578237293E+02 -0.83112397066E+02  0.12796015476E+03  0.91257954314E+02 0.  0.
          5    1    3    3  502    0 -0.43887063260E+01  0.17214772694E+02 -0.32000534434E+03  0.32052535305E+03  0.41800000000E+01 0. -1.
         -5    1    3    3    0  502 -0.15042126453E+02 -0.44793009987E+02 -0.39888020902E+02  0.61977463028E+02  0.41800000000E+01 0. -1.
        -11    1    4    4    0    0 -0.26238241899E+02  0.41784251309E+02 -0.38931436816E+02  0.62849230448E+02  0.00000000000E+00 0.  1.
         11    1    4    4    0    0  0.45669074678E+02 -0.14206014016E+02 -0.44180960250E+02  0.65110924312E+02  0.00000000000E+00 0. -1.
</event>
<event>
 7    1  0.8619230E-006  0.1747453E+03  0.7561462E-02  0.1172988E+00
          2   -1    0    0  501    0  0.00000000000E+00  0.00000000000E+00  0.43951071118E+03  0.43951071118E+03  0.00000000000E+00 0. -1.
         -2   -1    0    0    0  501 -0.00000000000E+00 -0.00000000000E+00 -0.19049236674E+03  0.19049236674E+03  0.00000000000E+00 0.  1.
         23    2    1    2    0    0 -0.24682869670E+02  0.12209363379E+03  0.34588673635E+03  0.37933943204E+03  0.93512944814E+02 0.  0.
          5    1    1    2  502    0  0.90178709945E+02 -0.19420124412E+02  0.40708114434E+01  0.92430432571E+02  0.41800000000E+01 0. -1.
         -5    1    1    2    0  502 -0.65495840275E+02 -0.10267350938E+03 -0.10093920335E+03  0.15823321331E+03  0.41800000000E+01 0.  1.
        -11    1    3    3    0    0  0.16742611100E+02  0.31332989958E+02  0.25370455899E+02  0.43654682666E+02  0.00000000000E+00 0.  1.
         11    1    3    3    0    0 -0.41425480770E+02  0.90760643835E+02  0.32051628045E+03  0.33568474937E+03  0.00000000000E+00 0. -1.
</event>
<event>
 8    1  0.8619230E-006  0.1050583E+03  0.7561462E-02  0.1270005E+00
         -2   -1    0    0    0  501 -0.00000000000E+00  0.00000000000E+00  0.21286972269E+03  0.21286972269E+03  0.00000000000E+00 0.  1.
          2   -1    0    0  501    0  0.00000000000E+00 -0.00000000000E+00 -0.80166045978E+02  0.80166045978E+02  0.00000000000E+00 0. -1.
         23    2    1    2    0    0  0.26502511329E+02  0.36017952449E+02  0.14170930457E+03  0.19423924418E+03  0.12509069098E+03 0.  0.
         23    2    1    2    0    0 -0.26502511329E+02 -0.36017952449E+02 -0.90056278604E+01  0.98796524490E+02  0.87635471773E+02 0.  0.
          5    1    3    3  502    0  0.52098811895E+02  0.71321579144E+02  0.85751715150E+02  0.12317419739E+03  0.41800000000E+01 0.  1.
         -5    1    3    3    0  502 -0.25596300565E+02 -0.35303626695E+02  0.55957589422E+02  0.71065046783E+02  0.41800000000E+01 0.  1.
        -11    1    4    4    0    0 -0.45503031733E+02 -0.37309907285E+02  0.21655910770E+02  0.62701942153E+02  0.00000000000E+00 0.  1.
         11    1    4    4    0    0  0.19000520404E+02  0.12919548362E+01 -0.30661538630E+02  0.36094582337E+02  0.00000000000E+00 0. -1.
</event>
<event>
 8    1  0.8619230E-006  0.2316364E+03  0.7561462E-02  0.1125493E+00
         -2   -1    0    0    0  501 -0.00000000000E+00  0.00000000000E+00  0.13246598964E+03  0.13246598964E+03  0.00000000000E+00 0.  1.
          2   -1    0    0  501    0  0.00000000000E+00 -0.00000000000E+00 -0.44463820343E+03  0.44463820343E+03  0.00000000000E+00 0. -1.
         23    2    1    2    0    0 -0.20589634028E+03 -0.64759619033E+02 -0.18547991757E+03  0.31086287367E+03  0.12508323311E+03 0.  0.
         23    2    1    2    0    0  0.20589634028E+03  0.64759619033E+02 -0.12669229622E+03  0.26624131940E+03  0.90809641743E+02 0.  0.
          5    1    3    3  502    0 -0.62817677482E+02 -0.66546036300E+02 -0.23263322167E+02  0.94515025841E+02  0.41800000000E+01 0.  1.
         -5    1    3    3    0  502 -0.14307866280E+03  0.17864172671E+01 -0.16221659540E+03  0.21634784783E+03  0.41800000000E+01 0.  1.
        -11    1    4    4    0    0  0.40307041820E+02 -0.17114395661E+02 -0.49355118612E+02  0.65980966137E+02  0.00000000000E+00 0.  1.
         11    1    4    4    0    0  0.16558929846E+03  0.81874014694E+02 -0.77337177612E+02  0.20026035326E+03  0.00000000000E+00 0. -1.
</event>
<event>
 8    1  0.8619230E-006  0.1158290E+03  0.7561462E-02  0.1250141E+00
         -2   -1    0    0    0  501 -0.00000000000E+00  0.00000000000E+00  0.98863627560E+02  0.98863627560E+02  0.00000000000E+00 0.  1.
          2   -1    0    0  501    0  0.00000000000E+00 -0.00000000000E+00 -0.17973393192E+03  0.17973393192E+03  0.00000000000E+00 0. -1.
         23    2    1    2    0    0  0.51137417959E+02 -0.51129960332E+02 -0.15062410779E+02  0.14527305221E+03  0.12509226643E+03 0.  0.
         23    2    1    2    0    0 -0.51137417959E+02  0.51129960332E+02 -0.65807893576E+02  0.13332450727E+03  0.90639048003E+02 0.  0.
          5    1    3    3  502    0 -0.34479256298E+02  0.90078798109E+01  0.10695838276E+02  0.37441078643E+02  0.41800000000E+01 0.  1.
         -5    1    3    3    0  502  0.85616674257E+02 -0.60137840143E+02 -0.25758249055E+02  0.10783197356E+03  0.41800000000E+01 0.  1.
        -11    1    4    4    0    0  0.45458780288E+01  0.31800867565E+02  0.13218491302E+02  0.34737425023E+02  0.00000000000E+00 0.  1.
         11    1    4    4    0    0 -0.55683295988E+02  0.19329092768E+02 -0.79026384877E+02  0.98587082248E+02  0.00000000000E+00 0. -1.
</event>
<event>
 8    1  0.8619230E-006  0.1112553E+03  0.7561462E-02  0.1258263E+00
         -2   -1    0    0    0  501 -0.00000000000E+00  0.00000000000E+00  0.17848111836E+03  0.17848111836E+03  0.00000000000E+00 0.  1.
          2   -1    0    0  501    0  0.00000000000E+00 -0.00000000000E+00 -0.11249929519E+03  0.11249929519E+03  0.00000000000E+00 0. -1.
         23    2    1    2    0    0 -0.73167547591E+01  0.23050850987E+02  0.12495248382E+03  0.17845704375E+03  0.12509562991E+03 0.  0.
         23    2    1    2    0    0  0.73167547591E+01 -0.23050850987E+02 -0.58970660653E+02  0.11252336979E+03  0.92731296226E+02 0.  0.
          5    1    3    3  502    0  0.33256235983E+02 -0.39730979531E+02  0.59547738824E+02  0.79043871143E+02  0.41800000000E+01 0. -1.
         -5    1    3    3    0  502 -0.40572990742E+02  0.62781830518E+02  0.65404744995E+02  0.99413172612E+02  0.41800000000E+01 0. -1.
        -11    1    4    4    0    0 -0.14722403233E+02  0.32619350827E+02 -0.18834637101E+02  0.40441497995E+02  0.00000000000E+00 0.  1.
         11    1    4    4    0    0  0.22039157992E+02 -0.55670201814E+02 -0.40136023552E+02  0.72081871796E+02  0.00000000000E+00 0. -1.
</event>
<event>
 8    1  0.8619230E-006  0.7440660E+02  0.7561462E-02  0.1345718E+00
          1   -1    0    0  501    0  0.00000000000E+00  0.00000000000E+00  0.62897247893E+03  0.62897247893E+03  0.00000000000E+00 0. -1.
         -1   -1    0    0    0  501 -0.00000000000E+00 -0.00000000000E+00 -0.20671294949E+02  0.20671294949E+02  0.00000000000E+00 0.  1.
         23    2    1    2    0    0 -0.24142842242E+01 -0.19206072880E+02  0.26650010962E+03  0.29503343634E+03  0.12509083951E+03 0.  0.
         23    2    1    2    0    0  0.24142842242E+01  0.19206072880E+02  0.34180107437E+03  0.35461033754E+03  0.92443577656E+02 0.  0.
          5    1    3    3  502    0  0.25046674926E+02 -0.21588609390E+02  0.26502777317E+03  0.26711532515E+03  0.41800000000E+01 0. -1.
         -5    1    3    3    0  502 -0.27460959150E+02  0.23825365104E+01  0.14723364491E+01  0.27918111187E+02  0.41800000000E+01 0. -1.
        -11    1    4    4    0    0  0.39160319160E+02  0.29971599292E+02  0.12358756417E+03  0.13306281741E+03  0.00000000000E+00 0.  1.
         11    1    4    4    0    0 -0.36746034936E+02 -0.10765526412E+02  0.21821351020E+03  0.22154752013E+03  0.00000000000E+00 0. -1.
</event>
<event>
 8    1  0.8619230E-006  0.9488741E+02  0.7561462E-02  0.1291430E+00
         -1   -1    0    0    0  501 -0.00000000000E+00  0.00000000000E+00  0.14162555135E+03  0.14162555135E+03  0.00000000000E+00 0.  1.
          1   -1    0    0  501    0  0.00000000000E+00 -0.00000000000E+00 -0.83730278113E+02  0.83730278113E+02  0.00000000000E+00 0. -1.
         23    2    1    2    0    0  0.23097426386E+02 -0.71941768297E+01  0.45357498091E+02  0.13524331203E+03  0.12509277969E+03 0.  0.
         23    2    1    2    0    0 -0.23097426386E+02  0.71941768297E+01  0.12537775146E+02  0.90112517432E+02  0.85894253046E+02 0.  0.
          5    1    3    3  502    0 -0.19368304021E+02 -0.53264778155E+02 -0.15661361230E+01  0.56852378797E+02  0.41800000000E+01 0. -1.
         -5    1    3    3    0  502  0.42465730406E+02  0.46070601325E+02  0.46923634214E+02  0.78390933233E+02  0.41800000000E+01 0. -1.
        -11    1    4    4    0    0 -0.31762651645E+02 -0.22689014558E+02 -0.21033234735E+02  0.44340211823E+02  0.00000000000E+00 0. -1.
         11    1    4    4    0    0  0.86652252592E+01  0.29883191388E+02  0.33571009881E+02  0.45772305608E+02  0.00000000000E+00 0.  1.
</event>
<event>
 7    1  0.8619230E-006  0.1643002E+03  0.7561462E-02  0.1183926E+00
          1   -1    0    0  501    0  0.00000000000E+00  0.00000000000E+00  0.82745454209E+03  0.82745454209E+03  0.00000000000E+00 0. -1.
         -1   -1    0    0    0  501 -0.00000000000E+00 -0.00000000000E+00 -0.33569270780E+02  0.33569270780E+02  0.00000000000E+00 0.  1.
         23    2    1    2    0    0 -0.15933116283E+02 -0.53231191111E+02  0.28347778536E+03  0.30294328259E+03  0.91255431464E+02 0.  0.
          5    1    1    2  502    0 -0.44516711852E+02 -0.71845224021E+02  0.15752600813E+03  0.17881663649E+03  0.41800000000E+01 0. -1.
         -5    1    1    2    0  502  0.60449828136E+02  0.12507641513E+03  0.35288147781E+03  0.37926389378E+03  0.41800000000E+01 0.  1.
        -11    1    3    3    0    0  0.30995248091E+02 -0.48864587688E+02  0.12785548967E+03  0.14034058420E+03  0.00000000000E+00 0.  1.
         11    1    3    3    0    0 -0.46928364375E+02 -0.43666034229E+01  0.15562229569E+03  0.16260269840E+03  0.00000000000E+00 0. -1.
</event>
<event>
 8    1  0.8619230E-006  0.1231939E+03  0.7561462E-02  0.1237919E+00
          3   -1    0    0  501    0  0.00000000000E+00  0.00000000000E+00  0.32311197842E+03  0.32311197842E+03  0.00000000000E+00 0. -1.
         -3   -1    0    0    0  501 -0.00000000000E+00 -0.00000000000E+00 -0.81450479710E+02  0.81450479710E+02  0.00000000000E+00 0.  1.
         23    2    1    2    0    0  0.12368653876E+02 -0.77374782058E+02  0.16025123139E+02  0.14847292167E+03  0.12509022105E+03 0.  0.
         23    2    1    2    0    0 -0.12368653876E+02  0.77374782058E+02  0.22563637557E+03  0.25608953645E+03  0.92359277845E+02 0.  0.
          5    1    3    3  502    0 -0.45357278625E+02 -0.29906202331E+02 -0.28381987561E+02  0.61438369770E+02  0.41800000000E+01 0. -1.
         -5    1    3    3    0  502  0.57725932501E+02 -0.47468579727E+02  0.44407110701E+02  0.87034551904E+02  0.41800000000E+01 0. -1.
        -11    1    4    4    0    0 -0.35149955351E+02  0.85827163349E+02  0.20160082622E+03  0.22191150142E+03  0.00000000000E+00 0. -1.
         11    1    4    4    0    0  0.22781301474E+02 -0.84523812909E+01  0.24035549351E+02  0.34178035037E+02  0.00000000000E+00 0.  1.
</event>
<event>
 8    1  0.8619230E-006  0.1501298E+03  0.7561462E-02  0.1200314E+00
         -1   -1    0    0    0  501 -0.00000000000E+00  0.00000000000E+00  0.72781717127E+02  0.72781717127E+02  0.00000000000E+00 0.  1.
          1   -1    0    0  501    0  0.00000000000E+00 -0.00000000000E+00 -0.33577257313E+03  0.33577257313E+03  0.00000000000E+00 0. -1.
         23    2    1    2    0    0 -0.10552840776E+03  0.14167594564E+02 -0.96039176579E+02  0.19028479404E+03  0.12509122201E+03 0.  0.
         23    2    1    2    0    0  0.10552840776E+03 -0.14167594564E+02 -0.16695167943E+03  0.21826949622E+03  0.91824529068E+02 0.  0.
          5    1    3    3  502    0  0.23965254717E+02 -0.18607928700E+02 -0.17798485143E+02  0.35423818506E+02  0.41800000000E+01 0. -1.
         -5    1    3    3    0  502 -0.12949366247E+03  0.32775523265E+02 -0.78240691436E+02  0.15486097553E+03  0.41800000000E+01 0. -1.
        -11    1    4    4    0    0 -0.41685182221E+01 -0.25380789907E+02 -0.12775585664E+02  0.28718924588E+02  0.00000000000E+00 0.  1.
         11    1    4    4    0    0  0.10969692598E+03  0.11213195342E+02 -0.15417609376E+03  0.18955057163E+03  0.00000000000E+00 0. -1.
</event>
<event>
 7    1  0.8619230E-006  0.1234971E+03  0.7561462E-02  0.1237437E+00
         -2   -1    0    0    0  501 -0.00000000000E+00  0.00000000000E+00  0.10527350884E+03  0.10527350884E+03  0.00000000000E+00 0.  1.
          2   -1    0    0  501    0  0.00000000000E+00 -0.00000000000E+00 -0.15237304177E+03  0.15237304177E+03  0.00000000000E+00 0. -1.
         23    2    1    2    0    0 -0.18692734549E+02 -0.28846043614E+02 -0.39667105596E+02  0.10516783277E+03  0.91133315676E+02 0.  0.
          5    1    1    2  502    0  0.43958722307E+02 -0.50081216492E+02  0.10490419365E+02  0.67587120154E+02  0.41800000000E+01 0. -1.
         -5    1    1    2    0  502 -0.25265987759E+02  0.78927260106E+02 -0.17922846697E+02  0.84891597694E+02  0.41800000000E+01 0.  1.
        -11    1    3    3    0    0 -0.13704252137E+02  0.32723295656E+02 -0.11659821544E+02  0.37343969308E+02  0.00000000000E+00 0.  1.
         11    1    3    3    0    0 -0.49884824112E+01 -0.61569339270E+02 -0.28007284052E+02  0.67823863462E+02  0.00000000000E+00 0. -1.
</event>
<event>
 8    1  0.8619230E-006  0.1303786E+03  0.7561462E-02  0.1226895E+00
          1   -1    0    0  501    0  0.00000000000E+00  0.00000000000E+00  0.15444449574E+03  0.15444449574E+03  0.00000000000E+00 0. -1.
         -1   -1    0    0    0  501 -0.00000000000E+00 -0.00000000000E+00 -0.15314831390E+03  0.15314831390E+03  0.00000000000E+00 0.  1.
         23    2    1    2    0    0  0.12109614556E+02 -0.94683509812E+02 -0.48654132484E+02  0.16470012632E+03  0.12508915704E+03 0.  0.
         23    2    1    2    0    0 -0.12109614556E+02  0.94683509812E+02  0.49950314325E+02  0.14289268333E+03  0.93870523870E+02 0.  0.
          5    1    3    3  502    0  0.62963394365E+01 -0.11763229289E+03 -0.88587032508E+01  0.11820723009E+03  0.41800000000E+01 0. -1.
         -5    1    3    3    0  502  0.58132751191E+01  0.22948783082E+02 -0.39795429233E+02  0.46492896236E+02  0.41800000000E+01 0. -1.
        -11    1    4    4    0    0  0.24012791996E+02  0.72684920786E+02 -0.11534786316E+01  0.76557445112E+02  0.00000000000E+00 0.  1.
         11    1    4    4    0    0 -0.36122406552E+02  0.21998589026E+02  0.51103792957E+02  0.66335238213E+02  0.00000000000E+00 0. -1.
</event>
<event>
 8    1  0.8619230E-006  0.2818018E+03  0.7561462E-02  0.1094709E+00
          2   -1    0    0  501    0  0.00000000000E+00  0.00000000000E+00  0.94354207618E+03  0.94354207618E+03  0.00000000000E+00 0. -1.
         -2   -1    0    0    0  501 -0.00000000000E+00 -0.00000000000E+00 -0.86758869089E+02  0.86758869089E+02  0.00000000000E+00 0.  1.
         23    2    1    2    0    0  0.19790339123E+03  0.17308178554E+03  0.38758411203E+03  0.48475891281E+03  0.12508678150E+03 0.  0.
         23    2    1    2    0    0 -0.19790339123E+03 -0.17308178554E+03  0.46919909507E+03  0.54554203246E+03  0.91352403494E+02 0.  0.
          5    1    3    3  502    0  0.55608061819E+01  0.74388905930E+02  0.10778237849E+03  0.13114551232E+03  0.41800000000E+01 0.  1.
         -5    1    3    3    0  502  0.19234258505E+03  0.98692879613E+02  0.27980173354E+03  0.35361340049E+03  0.41800000000E+01 0.  1.
        -11    1    4    4    0    0 -0.10478153616E+03 -0.44345937336E+02  0.14331782249E+03  0.18299106733E+03  0.00000000000E+00 0.  1.
         11    1    4    4    0    0 -0.93121855076E+02 -0.12873584821E+03  0.32588127257E+03  0.36255096514E+03  0.00000000000E+00 0. -1.
</event>
<event>
 7    1  0.8619230E-006  0.1124819E+03  0.7561462E-02  0.1256042E+00
         -1   -1    0    0    0  501 -0.00000000000E+00  0.00000000000E+00  0.37812140574E+03  0.37812140574E+03  0.00000000000E+00 0.  1.
          1   -1    0    0  501    0  0.00000000000E+00 -0.00000000000E+00 -0.81549300554E+02  0.81549300554E+02  0.00000000000E+00 0. -1.
         23    2    1    2    0    0  0.64215970666E+02 -0.44285008535E+01 -0.20924357663E+01  0.11451476995E+03  0.94688709680E+02 0.  0.
          5    1    1    2  502    0  0.30613621721E+02 -0.75785491220E+01  0.28834895308E+00  0.31814835954E+02  0.41800000000E+01 0. -1.
         -5    1    1    2    0  502 -0.94829592387E+02  0.12007049976E+02  0.29837619200E+03  0.31334110039E+03  0.41800000000E+01 0.  1.
        -11    1    3    3    0    0  0.56929387699E+02  0.28557751913E+02 -0.30275979354E+02  0.70520460180E+02  0.00000000000E+00 0. -1.
         11    1    3    3    0    0  0.72865829669E+01 -0.32986252767E+02  0.28183543588E+02  0.43994309770E+02  0.00000000000E+00 0.  1.
</event>
<event>
 8    1  0.8619230E-006  0.2435374E+03  0.7561462E-02  0.1117458E+00
          1   -1    0    0  501    0  0.00000000000E+00  0.00000000000E+00  0.15177205439E+03  0.15177205439E+03  0.00000000000E+00 0. -1.
         -1   -1    0    0    0  501 -0.00000000000E+00 -0.00000000000E+00 -0.43898208841E+03  0.43898208841E+03  0.00000000000E+00 0.  1.
         23    2    1    2    0    0 -0.15458877305E+03  0.17450536462E+03 -0.12925882417E+03  0.29445796410E+03  0.12509131848E+03 0.  0.
         23    2    1    2    0    0  0.15458877305E+03 -0.17450536462E+03 -0.15795120985E+03  0.29629617870E+03  0.92157635514E+02 0.  0.
          5    1    3    3  502    0  0.53054803811E+01  0.47541402338E+02  0.76119443832E+01  0.48618382898E+02  0.41800000000E+01 0. -1.
         -5    1    3    3    0  502 -0.15989425343E+03  0.12696396228E+03 -0.13687076855E+03  0.24583958120E+03  0.41800000000E+01 0. -1.
        -11    1    4    4    0    0  0.10356239203E+03 -0.13587085705E+03 -0.15739499150E+03  0.23229128737E+03  0.00000000000E+00 0.  1.
         11    1    4    4    0    0  0.51026381026E+02 -0.38634507573E+02 -0.55621835453E+00  0.64004891335E+02  0.00000000000E+00 0. -1.
</event>
<event>
 7    1  0.8619230E-006  0.1637727E+03  0.7561462E-02  0.1184502E+00
          1   -1    0    0  501    0  0.00000000000E+00  0.00000000000E+00  0.21675460732E+03  0.21675460732E+03  0.00000000000E+00 0. -1.
         -1   -1    0    0    0  501 -0.00000000000E+00 -0.00000000000E+00 -0.18674589869E+03  0.18674589869E+03  0.00000000000E+00 0.  1.
         23    2    1    2    0    0 -0.17606903996E+02  0.64997381006E+02  0.11168889263E+03  0.15848980595E+03  0.90055245527E+02 0.  0.
          5    1    1    2  502    0 -0.93695981316E+02 -0.16685659969E+02  0.56927055498E+01  0.95431794806E+02  0.41800000000E+01 0. -1.
         -5    1    1    2    0  502  0.11130288531E+03 -0.48311721037E+02 -0.87372889550E+02  0.14957890525E+03  0.41800000000E+01 0.  1.
        -11    1    3    3    0    0 -0.43717660148E+02  0.71647035103E+02  0.95134300620E+02  0.12686633361E+03  0.00000000000E+00 0. -1.
         11    1    3    3    0    0  0.26110756152E+02 -0.66496540969E+01  0.16554592006E+02  0.31623472342E+02  0.00000000000E+00 0.  1.
</event>
<event>
 8    1  0.1106743E-005  0.2093536E+03  0.7561462E-02  0.1142079E+00
          2   -1    0    0  501    0  0.00000000000E+00  0.00000000000E+00  0.65034500303E+03  0.65034500303E+03  0.00000000000E+00 0. -1.
         -2   -1    0    0    0  501 -0.00000000000E+00 -0.00000000000E+00 -0.72091977788E+02  0.72091977788E+02  0.00000000000E+00 0.  1.
         23    2    1    2    0    0 -0.14904057190E+03  0.10685387853E+03  0.23957916045E+03  0.32661443236E+03  0.12509184578E+03 0.  0.
         23    2    1    2    0    0  0.14904057190E+03 -0.10685387853E+03  0.33867386479E+03  0.39582254845E+03  0.91349109130E+02 0.  0.
          5    1    3    3  502    0  0.46886114436E+00  0.66713746269E+02  0.64806215760E+02  0.93103500327E+02  0.41800000000E+01 0.  1.
         -5    1    3    3    0  502 -0.14950943304E+03  0.40140132263E+02  0.17477294469E+03  0.23351093204E+03  0.41800000000E+01 0.  1.
        -11    1    4    4    0    0  0.14198797711E+03 -0.67854136004E+02  0.21842149968E+03  0.26920757964E+03  0.00000000000E+00 0.  1.
         11    1    4    4    0    0  0.70525947931E+01 -0.38999742528E+02  0.12025236511E+03  0.12661496881E+03  0.00000000000E+00 0. -1.
</event>
<event>
 8    1  0.8619230E-006  0.1780795E+03  0.7561462E-02  0.1169675E+00
         -2   -1    0    0    0  501 -0.00000000000E+00  0.00000000000E+00  0.19645550156E+03  0.19645550156E+03  0.00000000000E+00 0.  1.
          2   -1    0    0  501    0  0.00000000000E+00 -0.00000000000E+00 -0.22818475018E+03  0.22818475018E+03  0.00000000000E+00 0. -1.
         23    2    1    2    0    0  0.89918122165E+02  0.13885848980E+03  0.58517009168E+02  0.21547406688E+03  0.12505152639E+03 0.  0.
         23    2    1    2    0    0 -0.89918122165E+02 -0.13885848980E+03 -0.90246257789E+02  0.20916618486E+03  0.90769802017E+02 0.  0.
          5    1    3    3  502    0  0.31621728386E+02  0.11571315405E+03 -0.12445672758E+02  0.12067242807E+03  0.41800000000E+01 0.  1.
         -5    1    3    3    0  502  0.58296393779E+02  0.23145335755E+02  0.70962681925E+02  0.94801638809E+02  0.41800000000E+01 0.  1.
        -11    1    4    4    0    0 -0.69248194975E+02 -0.59619225402E+02 -0.88571407124E+02  0.12725823629E+03  0.00000000000E+00 0.  1.
         11    1    4    4    0    0 -0.20669927190E+02 -0.79239264401E+02 -0.16748506657E+01  0.81907948562E+02  0.00000000000E+00 0. -1.
</event>
<event>
 7    1  0.8619230E-006  0.1507792E+03  0.7561462E-02  0.1199519E+00
         -2   -1    0    0    0  501 -0.00000000000E+00  0.00000000000E+00  0.19489005515E+02  0.19489005515E+02  0.00000000000E+00 0.  1.
          2   -1    0    0  501    0  0.00000000000E+00 -0.00000000000E+00 -0.11774555255E+04  0.11774555255E+04  0.00000000000E+00 0. -1.
         23    2    1    2    0    0  0.64491460787E+02  0.46799358791E+02 -0.49043613282E+03  0.50420303974E+03  0.85695836587E+02 0.  0.
          5    1    1    2  502    0 -0.95891807690E+02 -0.89990742223E+02 -0.46686063052E+03  0.48504627944E+03  0.41800000000E+01 0. -1.
         -5    1    1    2    0  502  0.31400346903E+02  0.43191383432E+02 -0.20066975666E+03  0.20769521186E+03  0.41800000000E+01 0.  1.
        -11    1    3    3    0    0  0.71097927239E+02  0.65451103250E+02 -0.38632980315E+03  0.39823294562E+03  0.00000000000E+00 0.  1.
         11    1    3    3    0    0 -0.66064664521E+01 -0.18651744459E+02 -0.10410632967E+03  0.10597009412E+03  0.00000000000E+00 0. -1.
</event>
<event>
 8    1  0.8619230E-006  0.1118116E+03  0.7561462E-02  0.1257251E+00
         -2   -1    0    0    0  501 -0.00000000000E+00  0.00000000000E+00  0.15261536148E+02  0.15261536148E+02  0.00000000000E+00 0.  1.
          2   -1    0    0  501    0  0.00000000000E+00 -0.00000000000E+00 -0.88647422543E+03  0.88647422543E+03  0.00000000000E+00 0. -1.
         23    2    1    2    0    0  0.33943184956E+02  0.83466357256E+01 -0.39449099848E+03  0.41532193619E+03  0.12508939472E+03 0.  0.
         23    2    1    2    0    0 -0.33943184956E+02 -0.83466357256E+01 -0.47672169080E+03  0.48641382538E+03  0.90072375949E+02 0.  0.
          5    1    3    3  502    0 -0.24643301880E+02  0.49400621774E+02 -0.21600967642E+03  0.22299185292E+03  0.41800000000E+01 0.  1.
         -5    1    3    3    0  502  0.58586486837E+02 -0.41053986049E+02 -0.17848132206E+03  0.19233008328E+03  0.41800000000E+01 0.  1.
        -11    1    4    4    0    0 -0.13629450635E+02  0.41014892323E+02 -0.20853182797E+03  0.21296362739E+03  0.00000000000E+00 0.  1.
         11    1    4    4    0    0 -0.20313734321E+02 -0.49361528048E+02 -0.26818986283E+03  0.27345019799E+03  0.00000000000E+00 0. -1.
</event>
<event>
 8    1  0.8619230E-006  0.2565624E+03  0.7561462E-02  0.1109226E+00
         -4   -1    0    0    0  501 -0.00000000000E+00  0.00000000000E+00  0.26934737530E+03  0.26934737530E+03  0.00000000000E+00 0. -1.
          4   -1    0    0  501    0  0.00000000000E+00 -0.00000000000E+00 -0.29578625990E+03  0.29578625990E+03  0.00000000000E+00 0.  1.
         23    2    1    2    0    0 -0.22479416427E+03  0.72803601066E+02 -0.12245546561E+03  0.29406732087E+03  0.12508983783E+03 0.  0.
         23    2    1    2    0    0  0.22479416427E+03 -0.72803601066E+02  0.96016581004E+02  0.27106631433E+03  0.91787702434E+02 0.  0.
          5    1    3    3  502    0 -0.64235868511E+02  0.84106794555E+02 -0.56829477185E+02  0.12019676190E+03  0.41800000000E+01 0. -1.
         -5    1    3    3    0  502 -0.16055829576E+03 -0.11303193489E+02 -0.65625988422E+02  0.17387055897E+03  0.41800000000E+01 0. -1.
        -11    1    4    4    0    0  0.10302736976E+03  0.24511789369E+01  0.87709190158E+01  0.10342908787E+03  0.00000000000E+00 0. -1.
         11    1    4    4    0    0  0.12176679452E+03 -0.75254780003E+02  0.87245661988E+02  0.16763722646E+03  0.00000000000E+00 0.  1.
</event>
<event>
 8    1  0.8619230E-006  0.1846365E+03  0.7561462E-02  0.1163390E+00
          1   -1    0    0  501    0  0.00000000000E+00  0.00000000000E+00  0.26547295166E+03  0.26547295166E+03  0.00000000000E+00 0. -1.
         -1   -1    0    0    0  501 -0.00000000000E+00 -0.00000000000E+00 -0.16050710961E+03  0.16050710961E+03  0.00000000000E+00 0.  1.
         23    2    1    2    0    0 -0.16968264343E+03 -0.31516454566E+01 -0.57084217444E+01  0.21090418982E+03  0.12508340759E+03 0.  0.
         23    2    1    2    0    0  0.16968264343E+03  0.31516454566E+01  0.11067426380E+03  0.21507587145E+03  0.72157504563E+02 0.  0.
          5    1    3    3  502    0 -0.14474993407E+03  0.25375780875E+02  0.39049784885E+02  0.15211453503E+03  0.41800000000E+01 0.  1.
         -5    1    3    3    0  502 -0.24932709353E+02 -0.28527426332E+02 -0.44758206629E+02  0.58789654783E+02  0.41800000000E+01 0.  1.
        -11    1    4    4    0    0  0.16222894442E+03  0.22146745221E+02  0.10198203779E+03  0.19289646125E+03  0.00000000000E+00 0.  1.
         11    1    4    4    0    0  0.74536990078E+01 -0.18995099764E+02  0.86922260066E+01  0.22179410202E+02  0.00000000000E+00 0. -1.
</event>
<event>
 8    1  0.8619230E-006  0.1090034E+03  0.7561462E-02  0.1262427E+00
         -1   -1    0    0    0  501 -0.00000000000E+00  0.00000000000E+00  0.20100431956E+03  0.20100431956E+03  0.00000000000E+00 0.  1.
          1   -1    0    0  501    0  0.00000000000E+00 -0.00000000000E+00 -0.78644204626E+02  0.78644204626E+02  0.00000000000E+00 0. -1.
         23    2    1    2    0    0  0.27828616243E+02  0.21671793156E+02  0.12981042574E+03  0.18369060674E+03  0.12508954343E+03 0.  0.
         23    2    1    2    0    0 -0.27828616243E+02 -0.21671793156E+02 -0.74503108041E+01  0.95957917439E+02  0.88928714640E+02 0.  0.
          5    1    3    3  502    0  0.41100500321E+02  0.68502291022E+02  0.68653940544E+02  0.10541655920E+03  0.41800000000E+01 0. -1.
         -5    1    3    3    0  502 -0.13271884078E+02 -0.46830497867E+02  0.61156485191E+02  0.78274047540E+02  0.41800000000E+01 0. -1.
        -11    1    4    4    0    0 -0.26092674442E+01  0.30815355478E+02  0.13939618261E+02  0.33922077871E+02  0.00000000000E+00 0.  1.
         11    1    4    4    0    0 -0.25219348799E+02 -0.52487148633E+02 -0.21389929065E+02  0.62035839568E+02  0.00000000000E+00 0. -1.
</event>
<event>
 8    1  0.8619230E-006  0.2168277E+03  0.7561462E-02  0.1136270E+00
         -2   -1    0    0    0  501 -0.00000000000E+00  0.00000000000E+00  0.10946423734E+03  0.10946423734E+03  0.00000000000E+00 0.  1.
          2   -1    0    0  501    0  0.00000000000E+00 -0.00000000000E+00 -0.49673306688E+03  0.49673306688E+03  0.00000000000E+00 0. -1.
         23    2    1    2    0    0 -0.11400379602E+02  0.20354432551E+03 -0.24921701026E+03  0.34542236148E+03  0.12508888243E+03 0.  0.
         23    2    1    2    0    0  0.11400379602E+02 -0.20354432551E+03 -0.13805181928E+03  0.26077494274E+03  0.85936050949E+02 0.  0.
          5    1    3    3  502    0 -0.57496870286E+02  0.11420889839E+03 -0.18879944826E+03  0.22806197980E+03  0.41800000000E+01 0. -1.
         -5    1    3    3    0  502  0.46096490684E+02  0.89335427118E+02 -0.60417561998E+02  0.11736038169E+03  0.41800000000E+01 0. -1.
        -11    1    4    4    0    0  0.18334868703E+02 -0.14966508368E+03 -0.14090894908E+03  0.20637620167E+03  0.00000000000E+00 0. -1.
         11    1    4    4    0    0 -0.69344891012E+01 -0.53879241831E+02  0.28571298078E+01  0.54398741071E+02  0.00000000000E+00 0.  1.
</event>
<event>
 8    1  0.8619230E-006  0.1151768E+03  0.7561462E-02  0.1251273E+00
         -1   -1    0    0    0  501 -0.00000000000E+00  0.00000000000E+00  0.77864494472E+02  0.77864494472E+02  0.00000000000E+00 0.  1.
          1   -1    0    0  501    0  0.00000000000E+00 -0.00000000000E+00 -0.18207155056E+03  0.18207155056E+03  0.00000000000E+00 0. -1.
         23    2    1    2    0    0 -0.88446137314E+01 -0.47939473360E+02 -0.30687570547E+02  0.13206790516E+03  0.11884352860E+03 0.  0.
         23    2    1    2    0    0  0.88446137314E+01  0.47939473360E+02 -0.73519485542E+02  0.12786813987E+03  0.92567414039E+02 0.  0.
          5    1    3    3  502    0  0.48859280772E+02  0.31274139288E+01 -0.31881859586E+00  0.49138417564E+02  0.41800000000E+01 0. -1.
         -5    1    3    3    0  502 -0.57703894503E+02 -0.51066887288E+02 -0.30368751951E+02  0.82929487598E+02  0.41800000000E+01 0.  1.
        -11    1    4    4    0    0  0.32017808211E+02 -0.16176383258E+02 -0.31820578459E+02  0.47951690600E+02  0.00000000000E+00 0. -1.
         11    1    4    4    0    0 -0.23173194480E+02  0.64115856618E+02 -0.41698907084E+02  0.79916449272E+02  0.00000000000E+00 0.  1.
</event>
<event>
 8    1  0.8619230E-006  0.1131659E+03  0.7561462E-02  0.1254817E+00
         -2   -1    0    0    0  501 -0.00000000000E+00  0.00000000000E+00  0.11470735917E+03  0.11470735917E+03  0.00000000000E+00 0.  1.
          2   -1    0    0  501    0  0.00000000000E+00 -0.00000000000E+00 -0.19229498237E+03  0.19229498237E+03  0.00000000000E+00 0. -1.
         23    2    1    2    0    0  0.32820521065E+02 -0.73156686057E+02  0.20520948066E+02  0.14999473147E+03  0.12509285688E+03 0.  0.
         23    2    1    2    0    0 -0.32820521065E+02  0.73156686057E+02 -0.98108571263E+02  0.15700761007E+03  0.92720065498E+02 0.  0.
          5    1    3    3  502    0  0.52901403303E+02 -0.53637841894E+02 -0.38371892917E+02  0.84648987711E+02  0.41800000000E+01 0. -1.
         -5    1    3    3    0  502 -0.20080882238E+02 -0.19518844163E+02  0.58892840983E+02  0.65345743763E+02  0.41800000000E+01 0. -1.
        -11    1    4    4    0    0 -0.61910304339E+02  0.69771806775E+02 -0.75735673593E+02  0.12015358113E+03  0.00000000000E+00 0. -1.
         11    1    4    4    0    0  0.29089783274E+02  0.33848792818E+01 -0.22372897670E+02  0.36854028936E+02  0.00000000000E+00 0.  1.
</event>
<event>
 8    1  0.8619230E-006  0.1146870E+03  0.7561462E-02  0.1252129E+00
          2   -1    0    0  501    0  0.00000000000E+00  0.00000000000E+00  0.15128034117E+03  0.15128034117E+03  0.00000000000E+00 0. -1.
         -2   -1    0    0    0  501 -0.00000000000E+00 -0.00000000000E+00 -0.16695452102E+03  0.16695452102E+03  0.00000000000E+00 0.  1.
         23    2    1    2    0    0 -0.79163418043E+02 -0.70773242903E+02 -0.55059888005E+02  0.17307462007E+03  0.12509010424E+03 0.  0.
         23    2    1    2    0    0  0.79163418043E+02  0.70773242903E+02  0.39385708155E+02  0.14516024211E+03  0.90799577176E+02 0.  0.
          5    1    3    3  502    0 -0.70908453978E+01 -0.46100834433E+02  0.32452300603E+02  0.56975356412E+02  0.41800000000E+01 0. -1.
         -5    1    3    3    0  502 -0.72072572645E+02 -0.24672408470E+02 -0.87512188608E+02  0.11609926366E+03  0.41800000000E+01 0. -1.
        -11    1    4    4    0    0  0.31707273001E+02  0.30778608154E+02  0.64520364499E+02  0.78201990487E+02  0.00000000000E+00 0. -1.
         11    1    4    4    0    0  0.47456145043E+02  0.39994634748E+02 -0.25134656344E+02  0.66958251623E+02  0.00000000000E+00 0.  1.
</event>
<event>
 8    1  0.8619230E-006  0.1514764E+03  0.7561462E-02  0.1198670E+00
         -2   -1    0    0    0  501 -0.00000000000E+00  0.00000000000E+00  0.40399140954E+02  0.40399140954E+02  0.00000000000E+00 0.  1.
          2   -1    0    0  501    0  0.00000000000E+00 -0.00000000000E+00 -0.68705999584E+03  0.68705999584E+03  0.00000000000E+00 0. -1.
         23    2    1    2    0    0 -0.11410809741E+03 -0.51428983121E+02 -0.37601322096E+03  0.41557096247E+03  0.12509070434E+03 0.  0.
         23    2    1    2    0    0  0.11410809741E+03  0.51428983121E+02 -0.27064763392E+03  0.31188817432E+03  0.91424796052E+02 0.  0.
          5    1    3    3  502    0 -0.14135036692E+03 -0.45022697482E+02 -0.30727192260E+03  0.34123375615E+03  0.41800000000E+01 0.  1.
         -5    1    3    3    0  502  0.27242269507E+02 -0.64062856386E+01 -0.68741298362E+02  0.74337206324E+02  0.41800000000E+01 0.  1.
        -11    1    4    4    0    0  0.83986223911E+02  0.29595908053E+02 -0.86939860241E+02  0.12445136753E+03  0.00000000000E+00 0.  1.
         11    1    4    4    0    0  0.30121873500E+02  0.21833075068E+02 -0.18370777368E+03  0.18743680679E+03  0.00000000000E+00 0. -1.
</event>
<event>
 8    1  0.8619230E-006  0.1593064E+03  0.7561462E-02  0.1189482E+00
          2   -1    0    0  501    0  0.00000000000E+00  0.00000000000E+00  0.63677150580E+03  0.63677150580E+03  0.00000000000E+00 0. -1.
         -2   -1    0    0    0  501 -0.00000000000E+00 -0.00000000000E+00 -0.48518593692E+02  0.48518593692E+02  0.00000000000E+00 0.  1.
         23    2    1    2    0    0 -0.72781797703E+02  0.11132627767E+03  0.23966226266E+03  0.30129365402E+03  0.12509650527E+03 0.  0.
         23    2    1    2    0    0  0.72781797703E+02 -0.11132627767E+03  0.34859064945E+03  0.38399644547E+03  0.90813540146E+02 0.  0.
          5    1    3    3  502    0 -0.84049614855E+01  0.92594330060E+02  0.20622874794E+03  0.22625676170E+03  0.41800000000E+01 0.  1.
         -5    1    3    3    0  502 -0.64376836218E+02  0.18731947615E+02  0.33433514718E+02  0.75036892321E+02  0.41800000000E+01 0.  1.
        -11    1    4    4    0    0  0.46546088961E+01  0.14528622869E+02  0.17003392539E+02  0.22844290847E+02  0.00000000000E+00 0.  1.
         11    1    4    4    0    0  0.68127188807E+02 -0.12585490054E+03  0.33158725691E+03  0.36115215462E+03  0.00000000000E+00 0. -1.
</event>
<event>
 8    1  0.8619230E-006  0.8845268E+02  0.7561462E-02  0.1306643E+00
          2   -1    0    0  501    0  0.00000000000E+00  0.00000000000E+00  0.17299574706E+03  0.17299574706E+03  0.00000000000E+00 0. -1.
         -2   -1    0    0    0  501 -0.00000000000E+00 -0.00000000000E+00 -0.70112508087E+02  0.70112508087E+02  0.00000000000E+00 0.  1.
         23    2    1    2    0    0 -0.21569161710E+01  0.48881438333E+01  0.38151250607E+02  0.13088644244E+03  0.12508875511E+03 0.  0.
         23    2    1    2    0    0  0.21569161710E+01 -0.48881438333E+01  0.64731988363E+02  0.11222181270E+03  0.91514800391E+02 0.  0.
          5    1    3    3  502    0  0.77009903284E+01 -0.56254197519E+02 -0.19863014658E+01  0.56967164086E+02  0.41800000000E+01 0. -1.
         -5    1    3    3    0  502 -0.98579064994E+01  0.61142341352E+02  0.40137552073E+02  0.73919278358E+02  0.41800000000E+01 0. -1.
        -11    1    4    4    0    0 -0.22267066815E+01 -0.31172847900E+02 -0.10054330964E+02  0.32829776728E+02  0.00000000000E+00 0.  1.
         11    1    4    4    0    0  0.43836228525E+01  0.26284704067E+02  0.74786319328E+02  0.79392035972E+02  0.00000000000E+00 0. -1.
</event>
<event>
 8    1  0.8619230E-006  0.1520073E+03  0.7561462E-02  0.1198028E+00
         -2   -1    0    0    0  501 -0.00000000000E+00  0.00000000000E+00  0.37302284794E+02  0.37302284794E+02  0.00000000000E+00 0.  1.
          2   -1    0    0  501    0  0.00000000000E+00 -0.00000000000E+00 -0.64987941449E+03  0.64987941449E+03  0.00000000000E+00 0. -1.
         23    2    1    2    0    0 -0.10209625280E+03  0.32922677813E+02 -0.38691113783E+03  0.42054166497E+03  0.12509003096E+03 0.  0.
         23    2    1    2    0    0  0.10209625280E+03 -0.32922677813E+02 -0.22566599187E+03  0.26664003432E+03  0.93081794488E+02 0.  0.
          5    1    3    3  502    0 -0.11422103828E+03 -0.13927696420E+02 -0.24920382911E+03  0.27451857342E+03  0.41800000000E+01 0. -1.
         -5    1    3    3    0  502  0.12124785473E+02  0.46850374234E+02 -0.13770730872E+03  0.14602309154E+03  0.41800000000E+01 0. -1.
        -11    1    4    4    0    0  0.22528747621E+01 -0.40131122524E+02 -0.84626562354E+02  0.93686912083E+02  0.00000000000E+00 0. -1.
         11    1    4    4    0    0  0.99843378041E+02  0.72084447104E+01 -0.14103942951E+03  0.17295312224E+03  0.00000000000E+00 0.  1.
</event>
<event>
 8    1  0.8619230E-006  0.2100311E+03  0.7561462E-02  0.1141541E+00
         -2   -1    0    0    0  501 -0.00000000000E+00  0.00000000000E+00  0.51403895216E+02  0.51403895216E+02  0.00000000000E+00 0.  1.
          2   -1    0    0  501    0  0.00000000000E+00 -0.00000000000E+00 -0.13507222425E+04  0.13507222425E+04  0.00000000000E+00 0. -1.
         23    2    1    2    0    0  0.20320100396E+03  0.48177859748E+02 -0.35381538057E+03  0.42947140819E+03  0.12509441532E+03 0.  0.
         23    2    1    2    0    0 -0.20320100396E+03 -0.48177859748E+02 -0.94550296676E+03  0.97265472957E+03  0.92030476598E+02 0.  0.
          5    1    3    3  502    0  0.31823424938E+02  0.10263144336E+02 -0.17742342068E+03  0.18059514144E+03  0.41800000000E+01 0.  1.
         -5    1    3    3    0  502  0.17137757903E+03  0.37914715412E+02 -0.17639195989E+03  0.24887626675E+03  0.41800000000E+01 0.  1.
        -11    1    4    4    0    0 -0.24368451179E+02  0.35595856586E+01 -0.32023300191E+02  0.40397819471E+02  0.00000000000E+00 0.  1.
         11    1    4    4    0    0 -0.17883255278E+03 -0.51737445407E+02 -0.91347966657E+03  0.93225691010E+03  0.00000000000E+00 0. -1.
</event>
<event>
 8    1  0.8619230E-006  0.7772675E+02  0.7561462E-02  0.1335629E+00
         -2   -1    0    0    0  501 -0.00000000000E+00  0.00000000000E+00  0.95912150579E+02  0.95912150579E+02  0.00000000000E+00 0.  1.
          2   -1    0    0  501    0  0.00000000000E+00 -0.00000000000E+00 -0.14169303817E+03  0.14169303817E+03  0.00000000000E+00 0. -1.
         23    2    1    2    0    0  0.41182150828E+02  0.12385179699E+02 -0.37490651112E+02  0.13748617545E+03  0.12509011670E+03 0.  0.
         23    2    1    2    0    0 -0.41182150828E+02 -0.12385179699E+02 -0.82902364775E+01  0.10011901330E+03  0.90031808712E+02 0.  0.
          5    1    3    3  502    0  0.40023299109E+02  0.21571362679E+02 -0.80904894515E+02  0.92899206217E+02  0.41800000000E+01 0.  1.
         -5    1    3    3    0  502  0.11588517192E+01 -0.91861829798E+01  0.43414243403E+02  0.44586969232E+02  0.41800000000E+01 0.  1.
        -11    1    4    4    0    0 -0.30619264327E+02  0.37632695102E+02 -0.66736094286E+01  0.48972401936E+02  0.00000000000E+00 0. -1.
         11    1    4    4    0    0 -0.10562886502E+02 -0.50017874801E+02 -0.16166270489E+01  0.51146611363E+02  0.00000000000E+00 0.  1.
</event>
<event>
 8    1  0.8619230E-006  0.7608612E+02  0.7561462E-02  0.1340540E+00
          2   -1    0    0  501    0  0.00000000000E+00  0.00000000000E+00  0.21672209266E+03  0.21672209266E+03  0.00000000000E+00 0.  1.
         -2   -1    0    0    0  501 -0.00000000000E+00 -0.00000000000E+00 -0.67270274181E+02  0.67270274181E+02  0.00000000000E+00 0. -1.
         23    2    1    2    0    0  0.44955253980E+02  0.14013321470E+02  0.11297597592E+03  0.17501231841E+03  0.12509353469E+03 0.  0.
         23    2    1    2    0    0 -0.44955253980E+02 -0.14013321470E+02  0.36475842565E+02  0.10898004844E+03  0.91262346164E+02 0.  0.
          5    1    3    3  502    0  0.33896171878E+02  0.19258700386E+02 -0.18181202987E+02  0.43218937408E+02  0.41800000000E+01 0.  1.
         -5    1    3    3    0  502  0.11059082102E+02 -0.52453789161E+01  0.13115717891E+03  0.13179338100E+03  0.41800000000E+01 0.  1.
        -11    1    4    4    0    0  0.21704108937E+02  0.15960915623E+02  0.21272825976E+02  0.34327136456E+02  0.00000000000E+00 0.  1.
         11    1    4    4    0    0 -0.66659362917E+02 -0.29974237093E+02  0.15203016588E+02  0.74652911981E+02  0.00000000000E+00 0. -1.
</event>
<event>
 8    1  0.8619230E-006  0.1687831E+03  0.7561462E-02  0.1179123E+00
         -2   -1    0    0    0  501 -0.00000000000E+00  0.00000000000E+00  0.36950696086E+02  0.36950696086E+02  0.00000000000E+00 0.  1.
          2   -1    0    0  501    0  0.00000000000E+00 -0.00000000000E+00 -0.81360766942E+03  0.81360766942E+03  0.00000000000E+00 0. -1.
         23    2    1    2    0    0  0.10672122580E+03 -0.82695322988E+02 -0.34974048989E+03  0.39520978415E+03  0.12507768284E+03 0.  0.
         23    2    1    2    0    0 -0.10672122580E+03  0.82695322988E+02 -0.42691648345E+03  0.45534858135E+03  0.82805254791E+02 0.  0.
          5    1    3    3  502    0 -0.18804894334E+02 -0.48152244124E+02 -0.75386606827E+02  0.91503418264E+02  0.41800000000E+01 0. -1.
         -5    1    3    3    0  502  0.12552612013E+03 -0.34543078863E+02 -0.27435388306E+03  0.30370636589E+03  0.41800000000E+01 0. -1.
        -11    1    4    4    0    0  0.12241853415E+02  0.11547509027E+02 -0.24462589660E+02  0.29692191442E+02  0.00000000000E+00 0.  1.
         11    1    4    4    0    0 -0.11896307921E+03  0.71147813961E+02 -0.40245389379E+03  0.42565638991E+03  0.00000000000E+00 0. -1.
</event>
<event>
 8    1  0.8619230E-006  0.1535844E+03  0.7561462E-02  0.1196136E+00
          1   -1    0    0  501    0  0.00000000000E+00  0.00000000000E+00  0.11558420844E+03  0.11558420844E+03  0.00000000000E+00 0. -1.
         -1   -1    0    0    0  501 -0.00000000000E+00 -0.00000000000E+00 -0.23014614220E+03  0.23014614220E+03  0.00000000000E+00 0.  1.
         23    2    1    2    0    0 -0.57397473669E+02 -0.96100407138E+02 -0.10900493906E+03  0.20014477543E+03  0.12508435616E+03 0.  0.
         23    2    1    2    0    0  0.57397473669E+02  0.96100407138E+02 -0.55569947025E+01  0.14558557520E+03  0.92922124821E+02 0.  0.
          5    1    3    3  502    0 -0.47665761671E+02 -0.12358063198E+03 -0.66063357657E+02  0.14807443081E+03  0.41800000000E+01 0. -1.
         -5    1    3    3    0  502 -0.97317119975E+01  0.27480224837E+02 -0.42941581400E+02  0.52070344618E+02  0.41800000000E+01 0. -1.
        -11    1    4    4    0    0  0.82500390719E+02  0.63812149839E+02  0.89315080465E-01  0.10429915107E+03  0.00000000000E+00 0.  1.
         11    1    4    4    0    0 -0.25102917050E+02  0.32288257299E+02 -0.56463097830E+01  0.41286424137E+02  0.00000000000E+00 0. -1.
</event>
<event>
 8    1  0.8619230E-006  0.1355301E+03  0.7561462E-02  0.1219473E+00
          2   -1    0    0  501    0  0.00000000000E+00  0.00000000000E+00  0.31673595329E+03  0.31673595329E+03  0.00000000000E+00 0. -1.
         -2   -1    0    0    0  501 -0.00000000000E+00 -0.00000000000E+00 -0.76462466349E+02  0.76462466349E+02  0.00000000000E+00 0.  1.
         23    2    1    2    0    0  0.67362300275E+02  0.50972389315E+02  0.37616691340E+02  0.15548065997E+03  0.12499342458E+03 0.  0.
         23    2    1    2    0    0 -0.67362300275E+02 -0.50972389315E+02  0.20265679560E+03  0.23771775967E+03  0.91126793458E+02 0.  0.
          5    1    3    3  502    0  0.89361477440E+02  0.72958707797E+02  0.14164660440E+02  0.11630372608E+03  0.41800000000E+01 0. -1.
         -5    1    3    3    0  502 -0.21999177164E+02 -0.21986318482E+02  0.23452030900E+02  0.39176933898E+02  0.41800000000E+01 0. -1.
        -11    1    4    4    0    0  0.22960188067E+02 -0.94062599400E+01  0.38893810009E+02  0.46134330158E+02  0.00000000000E+00 0. -1.
         11    1    4    4    0    0 -0.90322488342E+02 -0.41566129375E+02  0.16376298559E+03  0.19158342951E+03  0.00000000000E+00 0.  1.
</event>
<event>
 8    1  0.8619230E-006  0.7687516E+02  0.7561462E-02  0.1338161E+00
          1   -1    0    0  501    0  0.00000000000E+00  0.00000000000E+00  0.87862844563E+03  0.87862844563E+03  0.00000000000E+00 0. -1.
         -1   -1    0    0    0  501 -0.00000000000E+00 -0.00000000000E+00 -0.16188377801E+02  0.16188377801E+02  0.00000000000E+00 0.  1.
         23    2    1    2    0    0  0.42248377065E+02  0.26450280139E+02  0.51138547322E+03  0.52881661076E+03  0.12508941966E+03 0.  0.
         23    2    1    2    0    0 -0.42248377065E+02 -0.26450280139E+02  0.35105459461E+03  0.36600021267E+03  0.90731938116E+02 0.  0.
          5    1    3    3  502    0  0.27563590239E+02  0.24950166685E+02  0.32131124466E+02  0.49316770818E+02  0.41800000000E+01 0.  1.
         -5    1    3    3    0  502  0.14684786825E+02  0.15001134539E+01  0.47925434876E+03  0.47949983994E+03  0.41800000000E+01 0.  1.
        -11    1    4    4    0    0 -0.28981175520E+01  0.31124044704E+02  0.74573640221E+02  0.80859959559E+02  0.00000000000E+00 0. -1.
         11    1    4    4    0    0 -0.39350259513E+02 -0.57574324843E+02  0.27648095439E+03  0.28514025311E+03  0.00000000000E+00 0.  1.
</event>
<event>
 8    1  0.8619230E-006  0.1061842E+03  0.7561462E-02  0.1267804E+00
         -2   -1    0    0    0  501 -0.00000000000E+00  0.00000000000E+00  0.25876935450E+02  0.25876935450E+02  0.00000000000E+00 0.  1.
          2   -1    0    0  501    0  0.00000000000E+00 -0.00000000000E+00 -0.65664975546E+03  0.65664975546E+03  0.00000000000E+00 0. -1.
         23    2    1    2    0    0  0.63576932732E+02  0.10765936181E+02 -0.26530892285E+03  0.30032241959E+03  0.12508716724E+03 0.  0.
         23    2    1    2    0    0 -0.63576932732E+02 -0.10765936181E+02 -0.36546389716E+03  0.38220427132E+03  0.91423810521E+02 0.  0.
          5    1    3    3  502    0  0.66123827177E+02  0.36625476047E+02 -0.69552555419E+02  0.10280474883E+03  0.41800000000E+01 0. -1.
         -5    1    3    3    0  502 -0.25468944457E+01 -0.25859539867E+02 -0.19575636743E+03  0.19751767077E+03  0.41800000000E+01 0. -1.
        -11    1    4    4    0    0  0.22564398577E+02  0.40886999348E+01 -0.10460522106E+03  0.10708931704E+03  0.00000000000E+00 0.  1.
         11    1    4    4    0    0 -0.86141331308E+02 -0.14854636116E+02 -0.26085867610E+03  0.27511495428E+03  0.00000000000E+00 0. -1.
</event>
<event>
 8    1  0.8619230E-006  0.7630114E+02  0.7561462E-02  0.1339889E+00
          2   -1    0    0  501    0  0.00000000000E+00  0.00000000000E+00  0.37302801434E+02  0.37302801434E+02  0.00000000000E+00 0. -1.
         -2   -1    0    0    0  501 -0.00000000000E+00 -0.00000000000E+00 -0.38814791046E+03  0.38814791046E+03  0.00000000000E+00 0.  1.
         23    2    1    2    0    0  0.35885014910E+02 -0.35492106649E+02 -0.22140482032E+03  0.25925938640E+03  0.12509161061E+03 0.  0.
         23    2    1    2    0    0 -0.35885014910E+02  0.35492106649E+02 -0.12944028871E+03  0.16619132550E+03  0.91199475876E+02 0.  0.
          5    1    3    3  502    0  0.25955549348E+02 -0.36967907087E+02 -0.23641307314E+03  0.24072584043E+03  0.41800000000E+01 0. -1.
         -5    1    3    3    0  502  0.99294655621E+01  0.14758004380E+01  0.15008252826E+02  0.18533545969E+02  0.41800000000E+01 0. -1.
        -11    1    4    4    0    0 -0.57170267709E+02  0.26535085217E+01 -0.43917383668E+02  0.72140260643E+02  0.00000000000E+00 0.  1.
         11    1    4    4    0    0  0.21285252799E+02  0.32838598127E+02 -0.85522905039E+02  0.94051064853E+02  0.00000000000E+00 0. -1.
</event>
<event>
 8    1  0.8619230E-006  0.8087703E+02  0.7561462E-02  0.1326581E+00
         -2   -1    0    0    0  501 -0.00000000000E+00  0.00000000000E+00  0.25790574618E+02  0.25790574618E+02  0.00000000000E+00 0. -1.
          2   -1    0    0  501    0  0.00000000000E+00 -0.00000000000E+00 -0.50940465427E+03  0.50940465427E+03  0.00000000000E+00 0.  1.
         23    2    1    2    0    0  0.27386249808E+02  0.24730474996E+02 -0.26360985595E+03  0.29411351445E+03  0.12510395741E+03 0.  0.
         23    2    1    2    0    0 -0.27386249808E+02 -0.24730474996E+02 -0.22000422370E+03  0.24108171444E+03  0.91416254108E+02 0.  0.
          5    1    3    3  502    0  0.53507212721E+02  0.22455776215E+02 -0.44100329102E+02  0.73004076088E+02  0.41800000000E+01 0. -1.
         -5    1    3    3    0  502 -0.26120962913E+02  0.22746987816E+01 -0.21950952685E+03  0.22110943837E+03  0.41800000000E+01 0. -1.
        -11    1    4    4    0    0  0.45276061780E+00  0.22336321189E+02 -0.10735686850E+02  0.24786512634E+02  0.00000000000E+00 0. -1.
         11    1    4    4    0    0 -0.27839010425E+02 -0.47066796186E+02 -0.20926853686E+03  0.21629520180E+03  0.00000000000E+00 0.  1.
</event>
<event>
 8    1  0.8619230E-006  0.1508789E+03  0.7561462E-02  0.1199397E+00
          2   -1    0    0  501    0  0.00000000000E+00  0.00000000000E+00  0.74192499738E+03  0.74192499738E+03  0.00000000000E+00 0. -1.
         -2   -1    0    0    0  501 -0.00000000000E+00 -0.00000000000E+00 -0.53871227334E+02  0.53871227334E+02  0.00000000000E+00 0.  1.
         23    2    1    2    0    0  0.71740976516E+02  0.93231752863E+02  0.12281116481E+03  0.21111555118E+03  0.12509303057E+03 0.  0.
         23    2    1    2    0    0 -0.71740976516E+02 -0.93231752863E+02  0.56524260523E+03  0.58468067353E+03  0.92267869669E+02 0.  0.
          5    1    3    3  502    0  0.86031450193E+01 -0.23356869515E+02 -0.62890327832E+01  0.26011185884E+02  0.41800000000E+01 0. -1.
         -5    1    3    3    0  502  0.63137831497E+02  0.11658862238E+03  0.12910019759E+03  0.18510436530E+03  0.41800000000E+01 0. -1.
        -11    1    4    4    0    0 -0.84776283637E+02 -0.49362112595E+02  0.30330474600E+03  0.31877485060E+03  0.00000000000E+00 0.  1.
         11    1    4    4    0    0  0.13035307121E+02 -0.43869640269E+02  0.26193785923E+03  0.26590582293E+03  0.00000000000E+00 0. -1.
</event>
<event>
 8    1  0.8619230E-006  0.6793855E+02  0.7561462E-02  0.1367247E+00
         -1   -1    0    0    0  501 -0.00000000000E+00  0.00000000000E+00  0.60408707355E+02  0.60408707355E+02  0.00000000000E+00 0.  1.
          1   -1    0    0  501    0  0.00000000000E+00 -0.00000000000E+00 -0.32822567068E+03  0.32822567068E+03  0.00000000000E+00 0. -1.
         23    2    1    2    0    0  0.10688488652E+02  0.21987220533E+01 -0.23998509150E+02  0.12783852460E+03  0.12509069414E+03 0.  0.
         23    2    1    2    0    0 -0.10688488652E+02 -0.21987220533E+01 -0.24381845417E+03  0.26079585343E+03  0.91912786953E+02 0.  0.
          5    1    3    3  502    0 -0.24969279403E+02 -0.13610055080E+01  0.44045717285E+02  0.50821401605E+02  0.41800000000E+01 0. -1.
         -5    1    3    3    0  502  0.35657768055E+02  0.35597275613E+01 -0.68044226435E+02  0.77017122993E+02  0.41800000000E+01 0. -1.
        -11    1    4    4    0    0 -0.26784197520E+02 -0.31296468589E+02 -0.53123133582E+02  0.67222983455E+02  0.00000000000E+00 0.  1.
         11    1    4    4    0    0  0.16095708868E+02  0.29097746536E+02 -0.19069532059E+03  0.19357286998E+03  0.00000000000E+00 0. -1.
</event>
<event>
 8    1  0.8619230E-006  0.1332700E+03  0.7561462E-02  0.1222683E+00
         -2   -1    0    0    0  501 -0.00000000000E+00  0.00000000000E+00  0.72713424359E+02  0.72713424359E+02  0.00000000000E+00 0.  1.
          2   -1    0    0  501    0  0.00000000000E+00 -0.00000000000E+00 -0.26714416720E+03  0.26714416720E+03  0.00000000000E+00 0. -1.
         23    2    1    2    0    0 -0.77053748189E+02  0.27537089220E+02 -0.69325747636E+02  0.16476975637E+03  0.12508973554E+03 0.  0.
         23    2    1    2    0    0  0.77053748189E+02 -0.27537089220E+02 -0.12510499520E+03  0.17508783518E+03  0.91153270984E+02 0.  0.
          5    1    3    3  502    0 -0.49123248531E+02 -0.46814617250E+02 -0.18780246835E+02  0.70532772565E+02  0.41800000000E+01 0.  1.
         -5    1    3    3    0  502 -0.27930499658E+02  0.74351706471E+02 -0.50545500801E+02  0.94236983809E+02  0.41800000000E+01 0.  1.
        -11    1    4    4    0    0  0.90257028947E+02 -0.20101059421E+01 -0.75188217173E+02  0.11748889225E+03  0.00000000000E+00 0.  1.
         11    1    4    4    0    0 -0.13203280758E+02 -0.25526983278E+02 -0.49916778029E+02  0.57598942931E+02  0.00000000000E+00 0. -1.
</event>
<event>
 8    1  0.8619230E-006  0.1012148E+03  0.7561462E-02  0.1277762E+00
          2   -1    0    0  501    0  0.00000000000E+00  0.00000000000E+00  0.45966194452E+03  0.45966194452E+03  0.00000000000E+00 0. -1.
         -2   -1    0    0    0  501 -0.00000000000E+00 -0.00000000000E+00 -0.43478699760E+02  0.43478699760E+02  0.00000000000E+00 0.  1.
         23    2    1    2    0    0  0.69693525507E+02  0.17969315901E+02  0.12892196202E+03  0.19351815036E+03  0.12509323888E+03 0.  0.
         23    2    1    2    0    0 -0.69693525507E+02 -0.17969315901E+02  0.28726128273E+03  0.30962249392E+03  0.90371236416E+02 0.  0.
          5    1    3    3  502    0  0.69257078000E+02  0.29308766577E+02  0.15077555644E+03  0.16854164907E+03  0.41800000000E+01 0. -1.
         -5    1    3    3    0  502  0.43644750659E+00 -0.11339450676E+02 -0.21853594412E+02  0.24976501292E+02  0.41800000000E+01 0. -1.
        -11    1    4    4    0    0  0.70518546161E+01 -0.35583928207E+02  0.10461788191E+03  0.11072870367E+03  0.00000000000E+00 0. -1.
         11    1    4    4    0    0 -0.76745380123E+02  0.17614612306E+02  0.18264340082E+03  0.19889379025E+03  0.00000000000E+00 0.  1.
</event>
<event>
 8    1  0.8619230E-006  0.1475998E+03  0.7561462E-02  0.1203454E+00
         -2   -1    0    0    0  501 -0.00000000000E+00  0.00000000000E+00  0.63052734858E+02  0.63052734858E+02  0.00000000000E+00 0.  1.
          2   -1    0    0  501    0  0.00000000000E+00 -0.00000000000E+00 -0.41733635458E+03  0.41733635458E+03  0.00000000000E+00 0. -1.
         23    2    1    2    0    0  0.87047252295E+02  0.82403907231E+02 -0.19757188310E+03  0.26277336248E+03  0.12509021936E+03 0.  0.
         23    2    1    2    0    0 -0.87047252295E+02 -0.82403907231E+02 -0.15671173663E+03  0.21761572696E+03  0.91817254180E+02 0.  0.
          5    1    3    3  502    0  0.55730011757E+02  0.11402317787E+03 -0.16079533292E+03  0.20488955755E+03  0.41800000000E+01 0.  1.
         -5    1    3    3    0  502  0.31317240538E+02 -0.31619270639E+02 -0.36776550174E+02  0.57883804931E+02  0.41800000000E+01 0.  1.
        -11    1    4    4    0    0 -0.62220336430E+02 -0.75328296242E+02 -0.53841053843E+02  0.11155528477E+03  0.00000000000E+00 0.  1.
         11    1    4    4    0    0 -0.24826915865E+02 -0.70756109887E+01 -0.10287068278E+03  0.10606044220E+03  0.00000000000E+00 0. -1.
</event>
<event>
 7    1  0.8619230E-006  0.5598225E+02  0.7561462E-02  0.1415510E+00
         -2   -1    0    0    0  501 -0.00000000000E+00  0.00000000000E+00  0.28002949551E+02  0.28002949551E+02  0.00000000000E+00 0.  1.
          2   -1    0    0  501    0  0.00000000000E+00 -0.00000000000E+00 -0.29600190640E+03  0.29600190640E+03  0.00000000000E+00 0. -1.
         23    2    1    2    0    0 -0.15419557193E+02 -0.14032395974E+02 -0.19862475177E+03  0.23566280222E+03  0.12510193224E+03 0.  0.
          5    1    3    3  502    0 -0.18567675081E+02  0.26395734853E+02 -0.19154205253E+03  0.19428670481E+03  0.41800000000E+01 0. -1.
         -5    1    3    3    0  502  0.31481178877E+01 -0.40428130828E+02 -0.70826992412E+01  0.41376097411E+02  0.41800000000E+01 0. -1.
        -11    1    1    2    0    0  0.24847355023E+02  0.45024183539E+01 -0.70503412853E+02  0.74889211818E+02  0.00000000000E+00 0. -1.
         11    1    1    2    0    0 -0.94277978302E+01  0.95299776205E+01  0.11292077786E+01  0.13452841915E+02  0.00000000000E+00 0.  1.
</event>
<event>
 8    1  0.8619230E-006  0.8205449E+02  0.7561462E-02  0.1323320E+00
         -1   -1    0    0    0  501 -0.00000000000E+00  0.00000000000E+00  0.36249454761E+02  0.36249454761E+02  0.00000000000E+00 0.  1.
          1   -1    0    0  501    0  0.00000000000E+00 -0.00000000000E+00 -0.41164369569E+03  0.41164369569E+03  0.00000000000E+00 0. -1.
         23    2    1    2    0    0  0.45077814067E+02  0.48528650023E+01 -0.14778350690E+03  0.19885452771E+03  0.12509036197E+03 0.  0.
         23    2    1    2    0    0 -0.45077814067E+02 -0.48528650023E+01 -0.22761073403E+03  0.24903862275E+03  0.90321812173E+02 0.  0.
          5    1    3    3  502    0  0.50534003628E+02 -0.51745421300E+01 -0.40102417445E+00  0.50971508015E+02  0.41800000000E+01 0.  1.
         -5    1    3    3    0  502 -0.54561895610E+01  0.10027407132E+02 -0.14738248273E+03  0.14788301969E+03  0.41800000000E+01 0.  1.
        -11    1    4    4    0    0 -0.40590200386E+01 -0.44055708892E+02 -0.94821298811E+02  0.10463488824E+03  0.00000000000E+00 0. -1.
         11    1    4    4    0    0 -0.41018794028E+02  0.39202843890E+02 -0.13278943522E+03  0.14440373450E+03  0.00000000000E+00 0.  1.
</event>
<event>
 7    1  0.8619230E-006  0.1069698E+03  0.7561462E-02  0.1266286E+00
         -2   -1    0    0    0  501 -0.00000000000E+00  0.00000000000E+00  0.11744751781E+03  0.11744751781E+03  0.00000000000E+00 0.  1.
          2   -1    0    0  501    0  0.00000000000E+00 -0.00000000000E+00 -0.37437193214E+03  0.37437193214E+03  0.00000000000E+00 0. -1.
         23    2    1    2    0    0 -0.37244300546E+02  0.22607780105E+02 -0.26846865354E+03  0.28652350360E+03  0.90122419728E+02 0.  0.
          5    1    1    2  502    0 -0.41727192035E+02  0.35300962481E+02 -0.61998627929E+02  0.82756382064E+02  0.41800000000E+01 0. -1.
         -5    1    1    2    0  502  0.78971492581E+02 -0.57908742586E+02  0.73542867135E+02  0.12253956428E+03  0.41800000000E+01 0.  1.
        -11    1    3    3    0    0 -0.38259975618E+01 -0.12240230967E+02  0.90584801441E+00  0.12856207532E+02  0.00000000000E+00 0.  1.
         11    1    3    3    0    0 -0.33418302984E+02  0.34848011073E+02 -0.26937450155E+03  0.27366729607E+03  0.00000000000E+00 0. -1.
</event>
<event>
 8    1  0.8619230E-006  0.1151486E+03  0.7561462E-02  0.1251322E+00
          1   -1    0    0  501    0  0.00000000000E+00  0.00000000000E+00  0.76606156956E+03  0.76606156956E+03  0.00000000000E+00 0. -1.
         -1   -1    0    0    0  501 -0.00000000000E+00 -0.00000000000E+00 -0.19273986418E+02  0.19273986418E+02  0.00000000000E+00 0.  1.
         23    2    1    2    0    0 -0.35988718391E+02 -0.20575296355E+02  0.31569700371E+03  0.34209782326E+03  0.12509113419E+03 0.  0.
         23    2    1    2    0    0  0.35988718391E+02  0.20575296355E+02  0.43109057943E+03  0.44323773272E+03  0.94350778281E+02 0.  0.
          5    1    3    3  502    0 -0.72718023479E+02  0.16794215653E+02  0.22705302069E+03  0.23904079824E+03  0.41800000000E+01 0. -1.
         -5    1    3    3    0  502  0.36729305088E+02 -0.37369512008E+02  0.88643983020E+02  0.10305702502E+03  0.41800000000E+01 0. -1.
        -11    1    4    4    0    0 -0.31853590637E+02  0.14094985441E+02  0.13804566733E+03  0.14237249074E+03  0.00000000000E+00 0.  1.
         11    1    4    4    0    0  0.67842309028E+02  0.64803109137E+01  0.29304491210E+03  0.30086524198E+03  0.00000000000E+00 0. -1.
</event>
<event>
 8    1  0.8619230E-006  0.8554551E+02  0.7561462E-02  0.1314012E+00
          2   -1    0    0  501    0  0.00000000000E+00  0.00000000000E+00  0.12157628919E+03  0.12157628919E+03  0.00000000000E+00 0. -1.
         -2   -1    0    0    0  501 -0.00000000000E+00 -0.00000000000E+00 -0.12439940468E+03  0.12439940468E+03  0.00000000000E+00 0.  1.
         23    2    1    2    0    0 -0.24317831740E+01  0.58490850914E+02  0.18508152604E+02  0.13934846265E+03  0.12509336161E+03 0.  0.
         23    2    1    2    0    0  0.24317831740E+01 -0.58490850914E+02 -0.21331268090E+02  0.10662723122E+03  0.86528898236E+02 0.  0.
          5    1    3    3  502    0  0.16008799916E+01 -0.28527273478E+01  0.63077946079E+02  0.63300873229E+02  0.41800000000E+01 0.  1.
         -5    1    3    3    0  502 -0.40326631656E+01  0.61343578262E+02 -0.44569793475E+02  0.76047589420E+02  0.41800000000E+01 0.  1.
        -11    1    4    4    0    0 -0.41439006178E+02 -0.35862254273E+02 -0.15294588731E+02  0.56896546108E+02  0.00000000000E+00 0.  1.
         11    1    4    4    0    0  0.43870789352E+02 -0.22628596641E+02 -0.60366793592E+01  0.49730685115E+02  0.00000000000E+00 0. -1.
</event>
<event>
 8    1  0.8619230E-006  0.1205540E+03  0.7561462E-02  0.1242186E+00
         -2   -1    0    0    0  501 -0.00000000000E+00  0.00000000000E+00  0.20302991843E+02  0.20302991843E+02  0.00000000000E+00 0. -1.
          2   -1    0    0  501    0  0.00000000000E+00 -0.00000000000E+00 -0.92768743433E+03  0.92768743433E+03  0.00000000000E+00 0.  1.
         23    2    1    2    0    0  0.63181956528E+02  0.45942335967E+02 -0.48327713593E+03  0.50526692299E+03  0.12504085531E+03 0.  0.
         23    2    1    2    0    0 -0.63181956528E+02 -0.45942335967E+02 -0.42410730656E+03  0.44272350318E+03  0.10017202666E+03 0.  0.
          5    1    3    3  502    0  0.86789115366E+01 -0.26126927844E+02 -0.29581279168E+03  0.29712054791E+03  0.41800000000E+01 0. -1.
         -5    1    3    3    0  502  0.54503044991E+02  0.72069263811E+02 -0.18746434424E+03  0.20814637509E+03  0.41800000000E+01 0. -1.
        -11    1    4    4    0    0 -0.64659158189E+02  0.11220293335E+02 -0.28216790504E+03  0.28969885805E+03  0.00000000000E+00 0.  1.
         11    1    4    4    0    0  0.14772016611E+01 -0.57162629302E+02 -0.14193940153E+03  0.15302464514E+03  0.00000000000E+00 0. -1.
</event>
<event>
 8    1  0.8619230E-006  0.1083836E+03  0.7561462E-02  0.1263593E+00
          1   -1    0    0  501    0  0.00000000000E+00  0.00000000000E+00  0.52435407038E+03  0.52435407038E+03  0.00000000000E+00 0. -1.
         -1   -1    0    0    0  501 -0.00000000000E+00 -0.00000000000E+00 -0.25682377503E+02  0.25682377503E+02  0.00000000000E+00 0.  1.
         23    2    1    2    0    0  0.34810039079E+02  0.16916415233E+02  0.27631216411E+03  0.30576826085E+03  0.12509161997E+03 0.  0.
         23    2    1    2    0    0 -0.34810039079E+02 -0.16916415233E+02  0.22235952877E+03  0.24426818703E+03  0.93409224572E+02 0.  0.
          5    1    3    3  502    0 -0.26851010322E+02 -0.30705833354E+02  0.41529005755E+02  0.58360566106E+02  0.41800000000E+01 0. -1.
         -5    1    3    3    0  502  0.61661049402E+02  0.47622248587E+02  0.23478315835E+03  0.24740769475E+03  0.41800000000E+01 0. -1.
        -11    1    4    4    0    0 -0.96186819930E+01 -0.52927207445E+02  0.90533873148E+02  0.10530997350E+03  0.00000000000E+00 0.  1.
         11    1    4    4    0    0 -0.25191357086E+02  0.36010792212E+02  0.13182565562E+03  0.13895821353E+03  0.00000000000E+00 0. -1.
</event>
<event>
 8    1  0.8619230E-006  0.1097260E+03  0.7561462E-02  0.1261078E+00
          2   -1    0    0  501    0  0.00000000000E+00  0.00000000000E+00  0.19561039045E+03  0.19561039045E+03  0.00000000000E+00 0. -1.
         -2   -1    0    0    0  501 -0.00000000000E+00 -0.00000000000E+00 -0.10165654083E+03  0.10165654083E+03  0.00000000000E+00 0.  1.
         23    2    1    2    0    0  0.27659728602E+02 -0.81908662565E+02  0.26082918051E+02  0.15427857461E+03  0.12508984922E+03 0.  0.
         23    2    1    2    0    0 -0.27659728602E+02  0.81908662565E+02  0.67870931572E+02  0.14298835667E+03  0.91461014650E+02 0.  0.
          5    1    3    3  502    0 -0.35845280149E+02 -0.19413590721E+02 -0.28309146192E+02  0.49806141908E+02  0.41800000000E+01 0. -1.
         -5    1    3    3    0  502  0.63505008751E+02 -0.62495071844E+02  0.54392064243E+02  0.10447243270E+03  0.41800000000E+01 0. -1.
        -11    1    4    4    0    0 -0.24084913362E+02  0.36514021928E+02  0.83978964286E+02  0.94688031406E+02  0.00000000000E+00 0. -1.
         11    1    4    4    0    0 -0.35748152401E+01  0.45394640637E+02 -0.16108032714E+02  0.48300325263E+02  0.00000000000E+00 0.  1.
</event>
<event>
 8    1  0.8619230E-006  0.7568163E+02  0.7561462E-02  0.1341773E+00
          2   -1    0    0  501    0  0.00000000000E+00  0.00000000000E+00  0.25650003444E+03  0.25650003444E+03  0.00000000000E+00 0. -1.
         -2   -1    0    0    0  501 -0.00000000000E+00 -0.00000000000E+00 -0.62831906922E+02  0.62831906922E+02  0.00000000000E+00 0.  1.
         23    2    1    2    0    0  0.52249724067E+02  0.28429803008E+02  0.72822796605E+02  0.15649062735E+03  0.12509144407E+03 0.  0.
         23    2    1    2    0    0 -0.52249724067E+02 -0.28429803008E+02  0.12084533091E+03  0.16284131402E+03  0.91517278053E+02 0.  0.
          5    1    3    3  502    0  0.39727460925E+02  0.31073401407E+02  0.10775804520E+03  0.11905081323E+03  0.41800000000E+01 0.  1.
         -5    1    3    3    0  502  0.12522263142E+02 -0.26435983988E+01 -0.34935248594E+02  0.37439814115E+02  0.41800000000E+01 0.  1.
        -11    1    4    4    0    0  0.70325101272E+01 -0.27095378111E+02  0.93392270981E+02  0.97497343516E+02  0.00000000000E+00 0.  1.
         11    1    4    4    0    0 -0.59282234194E+02 -0.13344248976E+01  0.27453059933E+02  0.65343970499E+02  0.00000000000E+00 0. -1.
</event>
<event>
 8    1  0.8619230E-006  0.2981097E+03  0.7561462E-02  0.1086189E+00
         -1   -1    0    0    0  501 -0.00000000000E+00  0.00000000000E+00  0.85014802086E+02  0.85014802086E+02  0.00000000000E+00 0.  1.
          1   -1    0    0  501    0  0.00000000000E+00 -0.00000000000E+00 -0.11287979060E+04  0.11287979060E+04  0.00000000000E+00 0. -1.
         23    2    1    2    0    0 -0.28329927763E+03  0.56888992274E+02 -0.55861455441E+03  0.64124315200E+03  0.12509085275E+03 0.  0.
         23    2    1    2    0    0  0.28329927763E+03 -0.56888992274E+02 -0.48516854951E+03  0.57256955609E+03  0.94617847058E+02 0.  0.
          5    1    3    3  502    0 -0.13793382344E+03  0.54242856641E+02 -0.16613870472E+03  0.22268266379E+03  0.41800000000E+01 0. -1.
         -5    1    3    3    0  502 -0.14536545419E+03  0.26461356335E+01 -0.39247584968E+03  0.41856048821E+03  0.41800000000E+01 0. -1.
        -11    1    4    4    0    0  0.76172953502E+02  0.24403903196E+02 -0.15501548301E+03  0.17443528688E+03  0.00000000000E+00 0.  1.
         11    1    4    4    0    0  0.20712632413E+03 -0.81292895470E+02 -0.33015306650E+03  0.39813426921E+03  0.00000000000E+00 0. -1.
</event>
<event>
 8    1  0.8619230E-006  0.9864313E+02  0.7561462E-02  0.1283175E+00
          1   -1    0    0  501    0  0.00000000000E+00  0.00000000000E+00  0.93360455029E+02  0.93360455029E+02  0.00000000000E+00 0. -1.
         -1   -1    0    0    0  501 -0.00000000000E+00 -0.00000000000E+00 -0.18310130681E+03  0.18310130681E+03  0.00000000000E+00 0.  1.
         23    2    1    2    0    0 -0.14132957017E+02  0.26217828785E+02 -0.11961247637E+03  0.17561889390E+03  0.12509091242E+03 0.  0.
         23    2    1    2    0    0  0.14132957017E+02 -0.26217828785E+02  0.29871624589E+02  0.10084286794E+03  0.91596151875E+02 0.  0.
          5    1    3    3  502    0  0.46555005753E+02  0.32775068755E+02 -0.92496579021E+02  0.10869527691E+03  0.41800000000E+01 0. -1.
         -5    1    3    3    0  502 -0.60687962770E+02 -0.65572399705E+01 -0.27115897345E+02  0.66923616983E+02  0.41800000000E+01 0. -1.
        -11    1    4    4    0    0 -0.28553628003E+02 -0.22143090566E+02  0.42840448118E+02  0.56044001703E+02  0.00000000000E+00 0. -1.
         11    1    4    4    0    0  0.42686585021E+02 -0.40747382186E+01 -0.12968823529E+02  0.44798866236E+02  0.00000000000E+00 0.  1.
</event>
<event>
 8    1  0.8619230E-006  0.7530921E+02  0.7561462E-02  0.1342916E+00
         -1   -1    0    0    0  501 -0.00000000000E+00  0.00000000000E+00  0.63286841581E+02  0.63286841581E+02  0.00000000000E+00 0.  1.
          1   -1    0    0  501    0  0.00000000000E+00 -0.00000000000E+00 -0.20412398071E+03  0.20412398071E+03  0.00000000000E+00 0. -1.
         23    2    1    2    0    0 -0.11132719690E+01 -0.42610677205E+02 -0.85332565608E+02  0.15731017016E+03  0.12509170115E+03 0.  0.
         23    2    1    2    0    0  0.11132719690E+01  0.42610677205E+02 -0.55504573524E+02  0.11010065214E+03  0.84996980725E+02 0.  0.
          5    1    3    3  502    0 -0.19325461793E+02 -0.19149229733E+02 -0.11312158204E+03  0.11642221093E+03  0.41800000000E+01 0. -1.
         -5    1    3    3    0  502  0.18212189824E+02 -0.23461447472E+02  0.27789016436E+02  0.40887959232E+02  0.41800000000E+01 0. -1.
        -11    1    4    4    0    0  0.11671887196E+02 -0.23453490327E+02 -0.26235946196E+02  0.37075922538E+02  0.00000000000E+00 0. -1.
         11    1    4    4    0    0 -0.10558615227E+02  0.66064167532E+02 -0.29268627328E+02  0.73024729598E+02  0.00000000000E+00 0.  1.
</event>
<event>
 8    1  0.8619230E-006  0.1297636E+03  0.7561462E-02  0.1227807E+00
         -2   -1    0    0    0  501 -0.00000000000E+00  0.00000000000E+00  0.37838830165E+02  0.37838830165E+02  0.00000000000E+00 0.  1.
          2   -1    0    0  501    0  0.00000000000E+00 -0.00000000000E+00 -0.57777359397E+03  0.57777359397E+03  0.00000000000E+00 0. -1.
         23    2    1    2    0    0 -0.89953449860E+02 -0.45343727768E+02 -0.30135184876E+03  0.34148212923E+03  0.12509768598E+03 0.  0.
         23    2    1    2    0    0  0.89953449860E+02  0.45343727768E+02 -0.23858291504E+03  0.27413029491E+03  0.89877329998E+02 0.  0.
          5    1    3    3  502    0  0.59423208756E+01  0.32917837412E+02 -0.95163913042E+02  0.10095809994E+03  0.41800000000E+01 0.  1.
         -5    1    3    3    0  502 -0.95895770735E+02 -0.78261565179E+02 -0.20618793572E+03  0.24052402929E+03  0.41800000000E+01 0.  1.
        -11    1    4    4    0    0  0.32098658049E+02  0.24843340922E+02 -0.19417189358E+03  0.19836894841E+03  0.00000000000E+00 0. -1.
         11    1    4    4    0    0  0.57854791810E+02  0.20500386846E+02 -0.44411021464E+02  0.75761346501E+02  0.00000000000E+00 0.  1.
</event>
<event>
 8    1  0.8619230E-006  0.9825949E+02  0.7561462E-02  0.1283999E+00
          3   -1    0    0  501    0  0.00000000000E+00  0.00000000000E+00  0.30501695894E+03  0.30501695894E+03  0.00000000000E+00 0. -1.
         -3   -1    0    0    0  501 -0.00000000000E+00 -0.00000000000E+00 -0.48092924212E+02  0.48092924212E+02  0.00000000000E+00 0.  1.
         23    2    1    2    0    0  0.36484210003E+02  0.26185373929E+02  0.18492014415E+03  0.22772808739E+03  0.12509136936E+03 0.  0.
         23    2    1    2    0    0 -0.36484210003E+02 -0.26185373929E+02  0.72003890582E+02  0.12538179576E+03  0.92299854073E+02 0.  0.
          5    1    3    3  502    0 -0.28706377381E+02  0.50844480307E+02  0.11429815554E+03  0.12841634646E+03  0.41800000000E+01 0. -1.
         -5    1    3    3    0  502  0.65190587384E+02 -0.24659106378E+02  0.70621988609E+02  0.99311740927E+02  0.41800000000E+01 0. -1.
        -11    1    4    4    0    0 -0.43608919655E+02 -0.27865992299E+01 -0.55623549553E+01  0.44050457448E+02  0.00000000000E+00 0.  1.
         11    1    4    4    0    0  0.71247096511E+01 -0.23398774699E+02  0.77566245538E+02  0.81331338313E+02  0.00000000000E+00 0. -1.
</event>
<event>
 7    1  0.8619230E-006  0.1184174E+03  0.7561462E-02  0.1245731E+00
          1   -1    0    0  501    0  0.00000000000E+00  0.00000000000E+00  0.56893947168E+03  0.56893947168E+03  0.00000000000E+00 0. -1.
         -1   -1    0    0    0  501 -0.00000000000E+00 -0.00000000000E+00 -0.57391745787E+02  0.57391745787E+02  0.00000000000E+00 0.  1.
         23    2    1    2    0    0  0.48839853929E+02  0.36803052107E+02  0.44433653953E+03  0.46058132984E+03  0.10469195316E+03 0.  0.
          5    1    1    2  502    0  0.48464023061E+02 -0.15315995793E+02  0.30790123569E+02  0.59572186193E+02  0.41800000000E+01 0. -1.
         -5    1    1    2    0  502 -0.97303876990E+02 -0.21487056313E+02  0.36421062784E+02  0.10617770143E+03  0.41800000000E+01 0.  1.
        -11    1    3    3    0    0 -0.12942994206E+02 -0.20681637354E+01  0.32610763210E+01  0.13506776781E+02  0.00000000000E+00 0.  1.
         11    1    3    3    0    0  0.61782848135E+02  0.38871215842E+02  0.44107546321E+03  0.44707455306E+03  0.00000000000E+00 0. -1.
</event>
<event>
 8    1  0.8619230E-006  0.1097697E+03  0.7561462E-02  0.1260997E+00
          2   -1    0    0  501    0  0.00000000000E+00  0.00000000000E+00  0.57977911635E+03  0.57977911635E+03  0.00000000000E+00 0. -1.
         -2   -1    0    0    0  501 -0.00000000000E+00 -0.00000000000E+00 -0.35316872006E+02  0.35316872006E+02  0.00000000000E+00 0.  1.
         23    2    1    2    0    0  0.46366908314E+02 -0.77850268168E+02  0.24342418805E+03  0.28829660607E+03  0.12509613625E+03 0.  0.
         23    2    1    2    0    0 -0.46366908314E+02  0.77850268168E+02  0.30103805630E+03  0.32679938228E+03  0.89237718939E+02 0.  0.
          5    1    3    3  502    0  0.65280274301E+02 -0.21064945247E+02  0.47884997474E+02  0.83759724893E+02  0.41800000000E+01 0. -1.
         -5    1    3    3    0  502 -0.18913365987E+02 -0.56785322921E+02  0.19553919057E+03  0.20453688118E+03  0.41800000000E+01 0. -1.
        -11    1    4    4    0    0 -0.13186304709E+02  0.27809955715E+02  0.14471179041E+02  0.34010105728E+02  0.00000000000E+00 0.  1.
         11    1    4    4    0    0 -0.33180603605E+02  0.50040312453E+02  0.28656687726E+03  0.29278927656E+03  0.00000000000E+00 0. -1.
</event>
<event>
 8    1  0.9098186E-006  0.3241240E+03  0.7561462E-02  0.1073767E+00
          1   -1    0    0  501    0  0.00000000000E+00  0.00000000000E+00  0.21368688629E+04  0.21368688629E+04  0.00000000000E+00 0. -1.
         -1   -1    0    0    0  501 -0.00000000000E+00 -0.00000000000E+00 -0.67400949503E+02  0.67400949503E+02  0.00000000000E+00 0.  1.
         23    2    1    2    0    0 -0.28263611459E+03  0.13657517568E+03  0.51577186183E+03  0.61660697846E+03  0.12509036953E+03 0.  0.
         23    2    1    2    0    0  0.28263611459E+03 -0.13657517568E+03  0.15536960516E+04  0.15876628340E+04  0.90365379132E+02 0.  0.
          5    1    3    3  502    0  0.15773680885E+01  0.29674127057E+02  0.80124946571E+02  0.85560045405E+02  0.41800000000E+01 0. -1.
         -5    1    3    3    0  502 -0.28421348268E+03  0.10690104862E+03  0.43564691526E+03  0.53104693305E+03  0.41800000000E+01 0. -1.
        -11    1    4    4    0    0  0.22617162610E+03 -0.10007451453E+03  0.13678283035E+04  0.13900081945E+04  0.00000000000E+00 0.  1.
         11    1    4    4    0    0  0.56464488491E+02 -0.36500661146E+02  0.18586774816E+03  0.19765463954E+03  0.00000000000E+00 0. -1.
</event>
<event>
 8    1  0.8619230E-006  0.1609630E+03  0.7561462E-02  0.1187614E+00
          2   -1    0    0  501    0  0.00000000000E+00  0.00000000000E+00  0.11150110357E+04  0.11150110357E+04  0.00000000000E+00 0. -1.
         -2   -1    0    0    0  501 -0.00000000000E+00 -0.00000000000E+00 -0.36413085753E+02  0.36413085753E+02  0.00000000000E+00 0.  1.
         23    2    1    2    0    0  0.13792306879E+03  0.51204969513E+02  0.32389931701E+03  0.37709477677E+03  0.12507989967E+03 0.  0.
         23    2    1    2    0    0 -0.13792306879E+03 -0.51204969513E+02  0.75469863297E+03  0.77432934471E+03  0.91494183813E+02 0.  0.
          5    1    3    3  502    0  0.98448232637E+02  0.97043612603E+01  0.82263594433E+02  0.12872839821E+03  0.41800000000E+01 0.  1.
         -5    1    3    3    0  502  0.39474836149E+02  0.41500608253E+02  0.24163572258E+03  0.24836637856E+03  0.41800000000E+01 0.  1.
        -11    1    4    4    0    0 -0.13928042809E+02 -0.38377989700E+02  0.10263668845E+03  0.11045881715E+03  0.00000000000E+00 0.  1.
         11    1    4    4    0    0 -0.12399502598E+03 -0.12826979813E+02  0.65206194451E+03  0.66387052756E+03  0.00000000000E+00 0. -1.
</event>
<event>
 8    1  0.8619230E-006  0.1150906E+03  0.7561462E-02  0.1251423E+00
          3   -1    0    0  501    0  0.00000000000E+00  0.00000000000E+00  0.73057761827E+03  0.73057761827E+03  0.00000000000E+00 0. -1.
         -3   -1    0    0    0  501 -0.00000000000E+00 -0.00000000000E+00 -0.23549434087E+02  0.23549434087E+02  0.00000000000E+00 0.  1.
         23    2    1    2    0    0 -0.39364510576E+01 -0.73977172906E+02  0.33655683991E+03  0.36661481429E+03  0.12509115800E+03 0.  0.
         23    2    1    2    0    0  0.39364510576E+01  0.73977172906E+02  0.37047134427E+03  0.38751223807E+03  0.86189326276E+02 0.  0.
          5    1    3    3  502    0 -0.55971762660E+02 -0.15148571777E+02  0.84463556305E+02  0.10253722342E+03  0.41800000000E+01 0. -1.
         -5    1    3    3    0  502  0.52035311603E+02 -0.58828601128E+02  0.25209328361E+03  0.26407759088E+03  0.41800000000E+01 0. -1.
        -11    1    4    4    0    0  0.29315913060E+02  0.52572905930E+02  0.32863921083E+03  0.33410636643E+03  0.00000000000E+00 0. -1.
         11    1    4    4    0    0 -0.25379462002E+02  0.21404266976E+02  0.41832133448E+02  0.53405871635E+02  0.00000000000E+00 0.  1.
</event>
<event>
 7    1  0.8619230E-006  0.2136591E+03  0.7561462E-02  0.1138701E+00
          1   -1    0    0  501    0  0.00000000000E+00  0.00000000000E+00  0.24453792644E+04  0.24453792644E+04  0.00000000000E+00 0. -1.
         -1   -1    0    0    0  501 -0.00000000000E+00 -0.00000000000E+00 -0.18763691685E+02  0.18763691685E+02  0.00000000000E+00 0.  1.
         23    2    1    2    0    0 -0.86420924086E+02  0.13616375134E+03  0.11310420299E+04  0.11493092290E+04  0.12508591918E+03 0.  0.
          5    1    3    3  502    0 -0.94389257568E+02  0.33713792067E+02  0.50357718120E+03  0.51347190921E+03  0.41800000000E+01 0. -1.
         -5    1    3    3    0  502  0.79683334823E+01  0.10244995927E+03  0.62746484870E+03  0.63583731980E+03  0.41800000000E+01 0. -1.
        -11    1    1    2    0    0  0.55658959812E+02  0.24328267082E+02  0.33686768924E+03  0.34230048852E+03  0.00000000000E+00 0.  1.
         11    1    1    2    0    0  0.30761964274E+02 -0.16049201842E+03  0.95870585354E+03  0.97253323853E+03  0.00000000000E+00 0. -1.
</event>
<event>
 8    1  0.8619230E-006  0.8392772E+02  0.7561462E-02  0.1318261E+00
         -4   -1    0    0    0  501 -0.00000000000E+00  0.00000000000E+00  0.25440472881E+03  0.25440472881E+03  0.00000000000E+00 0.  1.
          4   -1    0    0  501    0  0.00000000000E+00 -0.00000000000E+00 -0.86122265726E+02  0.86122265726E+02  0.00000000000E+00 0. -1.
         23    2    1    2    0    0 -0.37352563793E+02 -0.28557998011E+02  0.19401298331E+03  0.23558316012E+03  0.12509042476E+03 0.  0.
         23    2    1    2    0    0  0.37352563793E+02  0.28557998011E+02 -0.25730520228E+02  0.10494383442E+03  0.90224029162E+02 0.  0.
          5    1    3    3  502    0 -0.30689668670E+02  0.25605165112E+02  0.70834985879E+01  0.40805987254E+02  0.41800000000E+01 0.  1.
         -5    1    3    3    0  502 -0.66628951233E+01 -0.54163163123E+02  0.18692948472E+03  0.19477717286E+03  0.41800000000E+01 0.  1.
        -11    1    4    4    0    0  0.49812101038E+02  0.10351959467E+02 -0.50561801744E+02  0.71727988053E+02  0.00000000000E+00 0. -1.
         11    1    4    4    0    0 -0.12459537245E+02  0.18206038544E+02  0.24831281516E+02  0.33215846362E+02  0.00000000000E+00 0.  1.
</event>
<event>
 8    1  0.8619230E-006  0.1146736E+03  0.7561462E-02  0.1252152E+00
         -2   -1    0    0    0  501 -0.00000000000E+00  0.00000000000E+00  0.18841823369E+02  0.18841823369E+02  0.00000000000E+00 0.  1.
          2   -1    0    0  501    0  0.00000000000E+00 -0.00000000000E+00 -0.84755719891E+03  0.84755719891E+03  0.00000000000E+00 0. -1.
         23    2    1    2    0    0  0.55287770939E+02  0.10133284378E+01 -0.45037382519E+03  0.47067989853E+03  0.12508085392E+03 0.  0.
         23    2    1    2    0    0 -0.55287770939E+02 -0.10133284378E+01 -0.37834155036E+03  0.39571912375E+03  0.10194867201E+03 0.  0.
          5    1    3    3  502    0 -0.25634348541E+02 -0.22460249296E+02 -0.26247929084E+03  0.26471575915E+03  0.41800000000E+01 0. -1.
         -5    1    3    3    0  502  0.80922119481E+02  0.23473577734E+02 -0.18789453435E+03  0.20596413938E+03  0.41800000000E+01 0. -1.
        -11    1    4    4    0    0  0.16077787745E+02  0.29055271694E+02 -0.65520909751E+02  0.73455385688E+02  0.00000000000E+00 0.  1.
         11    1    4    4    0    0 -0.71365558684E+02 -0.30068600131E+02 -0.31282064060E+03  0.32226373806E+03  0.00000000000E+00 0. -1.
</event>
<event>
 8    1  0.9242748E-006  0.2744000E+03  0.7561462E-02  0.1098787E+00
         -2   -1    0    0    0  501 -0.00000000000E+00  0.00000000000E+00  0.47388171477E+02  0.47388171477E+02  0.00000000000E+00 0.  1.
          2   -1    0    0  501    0  0.00000000000E+00 -0.00000000000E+00 -0.18681055267E+04  0.18681055267E+04  0.00000000000E+00 0. -1.
         23    2    1    2    0    0 -0.24352693801E+03 -0.12161276667E+03 -0.76749131970E+03  0.82388396579E+03  0.12508728439E+03 0.  0.
         23    2    1    2    0    0  0.24352693801E+03  0.12161276667E+03 -0.10532260355E+04  0.10916097324E+04  0.90728669022E+02 0.  0.
          5    1    3    3  502    0 -0.13134185472E+03 -0.40157667903E+02 -0.22240999038E+03  0.26143258656E+03  0.41800000000E+01 0. -1.
         -5    1    3    3    0  502 -0.11218508329E+03 -0.81455098767E+02 -0.54508132932E+03  0.56245137923E+03  0.41800000000E+01 0. -1.
        -11    1    4    4    0    0  0.66862211932E+02  0.41645331209E+02 -0.17024956939E+03  0.18758945832E+03  0.00000000000E+00 0.  1.
         11    1    4    4    0    0  0.17666472608E+03  0.79967435461E+02 -0.88297646613E+03  0.90402027406E+03  0.00000000000E+00 0. -1.
</event>
<event>
 8    1  0.8619230E-006  0.1462802E+03  0.7561462E-02  0.1205120E+00
          2   -1    0    0  501    0  0.00000000000E+00  0.00000000000E+00  0.11411293117E+03  0.11411293117E+03  0.00000000000E+00 0. -1.
         -2   -1    0    0    0  501 -0.00000000000E+00 -0.00000000000E+00 -0.22653370596E+03  0.22653370596E+03  0.00000000000E+00 0.  1.
         23    2    1    2    0    0 -0.10586507795E+03  0.26198892311E+01 -0.11971488841E+03  0.20293915253E+03  0.12505345485E+03 0.  0.
         23    2    1    2    0    0  0.10586507795E+03 -0.26198892311E+01  0.72941136184E+01  0.13770748461E+03  0.87726100298E+02 0.  0.
          5    1    3    3  502    0 -0.11847958576E+03  0.38367766761E+02 -0.10129773021E+03  0.16058704902E+03  0.41800000000E+01 0. -1.
         -5    1    3    3    0  502  0.12614507803E+02 -0.35747877530E+02 -0.18417158203E+02  0.42352103505E+02  0.41800000000E+01 0. -1.
        -11    1    4    4    0    0  0.83292942923E+02 -0.34996858453E+02 -0.16182706933E+02  0.91784391081E+02  0.00000000000E+00 0.  1.
         11    1    4    4    0    0  0.22572135031E+02  0.32376969221E+02  0.23476820552E+02  0.45923093527E+02  0.00000000000E+00 0. -1.
</event>
<event>
 8    1  0.8619230E-006  0.1049086E+03  0.7561462E-02  0.1270300E+00
          1   -1    0    0  501    0  0.00000000000E+00  0.00000000000E+00  0.70920366904E+03  0.70920366904E+03  0.00000000000E+00 0. -1.
         -1   -1    0    0    0  501 -0.00000000000E+00 -0.00000000000E+00 -0.18658330220E+02  0.18658330220E+02  0.00000000000E+00 0.  1.
         23    2    1    2    0    0 -0.17336724953E+02 -0.38443313008E+02  0.38497810858E+03  0.40698225166E+03  0.12509180122E+03 0.  0.
         23    2    1    2    0    0  0.17336724953E+02  0.38443313008E+02  0.30556723024E+03  0.32087974760E+03  0.88397001517E+02 0.  0.
          5    1    3    3  502    0  0.25418268896E+02  0.25229091975E+02  0.24206984692E+03  0.24474043120E+03  0.41800000000E+01 0. -1.
         -5    1    3    3    0  502 -0.42754993849E+02 -0.63672404983E+02  0.14290826166E+03  0.16224182046E+03  0.41800000000E+01 0. -1.
        -11    1    4    4    0    0 -0.35797925951E+02  0.17385553657E+02  0.10358834163E+03  0.11096978643E+03  0.00000000000E+00 0. -1.
         11    1    4    4    0    0  0.53134650904E+02  0.21057759351E+02  0.20197888860E+03  0.20990996117E+03  0.00000000000E+00 0.  1.
</event>
<event>
 8    1  0.8619230E-006  0.8302896E+02  0.7561462E-02  0.1320669E+00
          2   -1    0    0  501    0  0.00000000000E+00  0.00000000000E+00  0.31681780341E+02  0.31681780341E+02  0.00000000000E+00 0. -1.
         -2   -1    0    0    0  501 -0.00000000000E+00 -0.00000000000E+00 -0.71325032839E+03  0.71325032839E+03  0.00000000000E+00 0.  1.
         23    2    1    2    0    0 -0.56122160638E+02  0.77313014366E+01 -0.58182388336E+03  0.59780976579E+03  0.12509202570E+03 0.  0.
         23    2    1    2    0    0  0.56122160638E+02 -0.77313014366E+01 -0.99744664693E+02  0.14712234294E+03  0.92122286776E+02 0.  0.
          5    1    3    3  502    0  0.38612149419E+01  0.14783160945E+02 -0.47311218871E+03  0.47337729808E+03  0.41800000000E+01 0. -1.
         -5    1    3    3    0  502 -0.59983375580E+02 -0.70518595080E+01 -0.10871169465E+03  0.12443246771E+03  0.41800000000E+01 0. -1.
        -11    1    4    4    0    0  0.67094688402E+02  0.10978043231E+02 -0.10473467395E+03  0.12486619467E+03  0.00000000000E+00 0.  1.
         11    1    4    4    0    0 -0.10972527764E+02 -0.18709344668E+02  0.49900092531E+01  0.22256148269E+02  0.00000000000E+00 0. -1.
</event>
<event>
 8    1  0.8619230E-006  0.1048970E+03  0.7561462E-02  0.1270323E+00
          2   -1    0    0  501    0  0.00000000000E+00  0.00000000000E+00  0.38098954263E+03  0.38098954263E+03  0.00000000000E+00 0. -1.
         -2   -1    0    0    0  501 -0.00000000000E+00 -0.00000000000E+00 -0.49370734372E+02  0.49370734372E+02  0.00000000000E+00 0.  1.
         23    2    1    2    0    0  0.14261092831E+02  0.38549162228E+01  0.53003877434E+02  0.13665490944E+03  0.12508762570E+03 0.  0.
         23    2    1    2    0    0 -0.14261092831E+02 -0.38549162228E+01  0.27861493083E+03  0.29370536756E+03  0.91751425643E+02 0.  0.
          5    1    3    3  502    0 -0.43022550578E+02  0.38065311868E+02  0.14065396056E+02  0.59289253597E+02  0.41800000000E+01 0.  1.
         -5    1    3    3    0  502  0.57283643409E+02 -0.34210395645E+02  0.38938481378E+02  0.77365655846E+02  0.41800000000E+01 0.  1.
        -11    1    4    4    0    0  0.14729904748E+02 -0.37880393615E+02  0.19178670582E+03  0.19604600186E+03  0.00000000000E+00 0. -1.
         11    1    4    4    0    0 -0.28990997580E+02  0.34025477392E+02  0.86828225008E+02  0.97659365708E+02  0.00000000000E+00 0.  1.
</event>
<event>
 8    1  0.8619230E-006  0.1198942E+03  0.7561462E-02  0.1243272E+00
          4   -1    0    0  501    0  0.00000000000E+00  0.00000000000E+00  0.61403378174E+03  0.61403378174E+03  0.00000000000E+00 0. -1.
         -4   -1    0    0    0  501 -0.00000000000E+00 -0.00000000000E+00 -0.24461411836E+02  0.24461411836E+02  0.00000000000E+00 0.  1.
         23    2    1    2    0    0  0.58351773872E+02  0.61500776247E+01  0.31530102192E+03  0.34424589340E+03  0.12509095783E+03 0.  0.
         23    2    1    2    0    0 -0.58351773872E+02 -0.61500776247E+01  0.27427134798E+03  0.29424930017E+03  0.88966990287E+02 0.  0.
          5    1    3    3  502    0  0.61636979222E+02 -0.51404105429E+02  0.18417568623E+03  0.20094689613E+03  0.41800000000E+01 0.  1.
         -5    1    3    3    0  502 -0.32852053506E+01  0.57554183054E+02  0.13112533569E+03  0.14329899728E+03  0.41800000000E+01 0.  1.
        -11    1    4    4    0    0 -0.31431503647E+02 -0.44674167930E+02  0.10227946323E+03  0.11595175419E+03  0.00000000000E+00 0.  1.
         11    1    4    4    0    0 -0.26920270225E+02  0.38524090305E+02  0.17199188475E+03  0.17829754598E+03  0.00000000000E+00 0. -1.
</event>
<event>
 8    1  0.8619230E-006  0.9618074E+02  0.7561462E-02  0.1288539E+00
         -2   -1    0    0    0  501 -0.00000000000E+00  0.00000000000E+00  0.28242429857E+03  0.28242429857E+03  0.00000000000E+00 0.  1.
          2   -1    0    0  501    0  0.00000000000E+00 -0.00000000000E+00 -0.48053212287E+02  0.48053212287E+02  0.00000000000E+00 0. -1.
         23    2    1    2    0    0  0.30002826570E+02  0.18548341489E+02  0.17103033644E+03  0.21481127816E+03  0.12509315996E+03 0.  0.
         23    2    1    2    0    0 -0.30002826570E+02 -0.18548341489E+02  0.63340749841E+02  0.11566623270E+03  0.90124448522E+02 0.  0.
          5    1    3    3  502    0 -0.21979177592E+02  0.45380549107E+02  0.22984284283E+02  0.55571829273E+02  0.41800000000E+01 0.  1.
         -5    1    3    3    0  502  0.51982004162E+02 -0.26832207618E+02  0.14804605216E+03  0.15923944889E+03  0.41800000000E+01 0.  1.
        -11    1    4    4    0    0  0.24295643329E+02 -0.15321821589E+02  0.53021383644E+02  0.60301771326E+02  0.00000000000E+00 0.  1.
         11    1    4    4    0    0 -0.54298469899E+02 -0.32265198996E+01  0.10319366198E+02  0.55364461370E+02  0.00000000000E+00 0. -1.
</event>
<event>
 8    1  0.8619230E-006  0.1181853E+03  0.7561462E-02  0.1246121E+00
          1   -1    0    0  501    0  0.00000000000E+00  0.00000000000E+00  0.56557925679E+03  0.56557925679E+03  0.00000000000E+00 0. -1.
         -1   -1    0    0    0  501 -0.00000000000E+00 -0.00000000000E+00 -0.31384358206E+02  0.31384358206E+02  0.00000000000E+00 0.  1.
         23    2    1    2    0    0 -0.63104011407E+02 -0.27947998083E+02  0.21641245379E+03  0.25931923974E+03  0.12509560780E+03 0.  0.
         23    2    1    2    0    0  0.63104011407E+02  0.27947998083E+02  0.31778244479E+03  0.33764437526E+03  0.90856122924E+02 0.  0.
          5    1    3    3  502    0  0.22349585882E+02  0.31220925787E+02  0.52280670536E+02  0.64999931598E+02  0.41800000000E+01 0. -1.
         -5    1    3    3    0  502 -0.85453597289E+02 -0.59168923870E+02  0.16413178326E+03  0.19431930814E+03  0.41800000000E+01 0. -1.
        -11    1    4    4    0    0  0.63572016691E+02  0.44224520665E+02  0.31012987247E+03  0.31965254157E+03  0.00000000000E+00 0. -1.
         11    1    4    4    0    0 -0.46800528362E+00 -0.16276522582E+02  0.76525723224E+01  0.17991833688E+02  0.00000000000E+00 0.  1.
</event>
<event>
 8    1  0.8619230E-006  0.6630380E+02  0.7561462E-02  0.1373133E+00
         -1   -1    0    0    0  501 -0.00000000000E+00  0.00000000000E+00  0.98591506851E+02  0.98591506851E+02  0.00000000000E+00 0.  1.
          1   -1    0    0  501    0  0.00000000000E+00 -0.00000000000E+00 -0.13344531110E+03  0.13344531110E+03  0.00000000000E+00 0. -1.
         23    2    1    2    0    0 -0.35026653903E+02  0.13147122308E+02 -0.17255803268E+02  0.13170390566E+03  0.12509373569E+03 0.  0.
         23    2    1    2    0    0  0.35026653903E+02 -0.13147122308E+02 -0.17598000982E+02  0.10033291230E+03  0.91418216688E+02 0.  0.
          5    1    3    3  502    0 -0.22574201936E+01  0.32721301447E+02 -0.63502001167E+02  0.71594385720E+02  0.41800000000E+01 0. -1.
         -5    1    3    3    0  502 -0.32769233709E+02 -0.19574179139E+02  0.46246197900E+02  0.60109519936E+02  0.41800000000E+01 0. -1.
        -11    1    4    4    0    0  0.15273441994E+02  0.18406508541E+02  0.30975300688E+02  0.39134982301E+02  0.00000000000E+00 0.  1.
         11    1    4    4    0    0  0.19753211909E+02 -0.31553630849E+02 -0.48573301670E+02  0.61197929994E+02  0.00000000000E+00 0. -1.
</event>
<event>
 8    1  0.8619230E-006  0.1628684E+03  0.7561462E-02  0.1185496E+00
         -2   -1    0    0    0  501 -0.00000000000E+00  0.00000000000E+00  0.22424614783E+03  0.22424614783E+03  0.00000000000E+00 0. -1.
          2   -1    0    0  501    0  0.00000000000E+00 -0.00000000000E+00 -0.13432829763E+03  0.13432829763E+03  0.00000000000E+00 0.  1.
         23    2    1    2    0    0  0.13239623633E+03  0.54699321531E+01  0.78887915159E+02  0.19856020909E+03  0.12507665619E+03 0.  0.
         23    2    1    2    0    0 -0.13239623633E+03 -0.54699321531E+01  0.11029935037E+02  0.16001423637E+03  0.89018047716E+02 0.  0.
          5    1    3    3  502    0  0.27344145783E+02  0.55922446181E+02  0.45632279187E+02  0.77296827873E+02  0.41800000000E+01 0.  1.
         -5    1    3    3    0  502  0.10505209055E+03 -0.50452514028E+02  0.33255635972E+02  0.12126338122E+03  0.41800000000E+01 0.  1.
        -11    1    4    4    0    0 -0.65929924826E+02 -0.34258894669E+02  0.37080989202E+02  0.83038705503E+02  0.00000000000E+00 0. -1.
         11    1    4    4    0    0 -0.66466311509E+02  0.28788962516E+02 -0.26051054165E+02  0.76975530862E+02  0.00000000000E+00 0.  1.
</event>
<event>
 8    1  0.8619230E-006  0.2295665E+03  0.7561462E-02  0.1126945E+00
         -2   -1    0    0    0  501 -0.00000000000E+00  0.00000000000E+00  0.13561292018E+04  0.13561292018E+04  0.00000000000E+00 0. -1.
          2   -1    0    0  501    0  0.00000000000E+00 -0.00000000000E+00 -0.66933448265E+02  0.66933448265E+02  0.00000000000E+00 0.  1.
         23    2    1    2    0    0  0.11421501637E+03  0.18640696162E+03  0.10708708946E+04  0.11000934750E+04  0.12509418620E+03 0.  0.
         23    2    1    2    0    0 -0.11421501637E+03 -0.18640696162E+03  0.21832485893E+03  0.32296917511E+03  0.94078258591E+02 0.  0.
          5    1    3    3  502    0 -0.14270990270E+02  0.16877781881E+01  0.20188170946E+03  0.20243568552E+03  0.41800000000E+01 0. -1.
         -5    1    3    3    0  502  0.12848600664E+03  0.18471918343E+03  0.86898918516E+03  0.89765778945E+03  0.41800000000E+01 0. -1.
        -11    1    4    4    0    0 -0.65477334514E+02 -0.12059162129E+03  0.71216380818E+02  0.15460075471E+03  0.00000000000E+00 0.  1.
         11    1    4    4    0    0 -0.48737681859E+02 -0.65815340327E+02  0.14710847811E+03  0.16836842040E+03  0.00000000000E+00 0. -1.
</event>
<event>
 8    1  0.8619230E-006  0.1328733E+03  0.7561462E-02  0.1223253E+00
         -2   -1    0    0    0  501 -0.00000000000E+00  0.00000000000E+00  0.24145105692E+03  0.24145105692E+03  0.00000000000E+00 0.  1.
          2   -1    0    0  501    0  0.00000000000E+00 -0.00000000000E+00 -0.96772144812E+02  0.96772144812E+02  0.00000000000E+00 0. -1.
         23    2    1    2    0    0 -0.42638840119E+02  0.93796643280E+02  0.77390925787E+02  0.17959020581E+03  0.12508959051E+03 0.  0.
         23    2    1    2    0    0  0.42638840119E+02 -0.93796643280E+02  0.67287986323E+02  0.15863299592E+03  0.10010431216E+03 0.  0.
          5    1    3    3  502    0  0.32844170577E+02 -0.83280630235E+01  0.24184511349E+02  0.41838489024E+02  0.41800000000E+01 0. -1.
         -5    1    3    3    0  502 -0.75483010696E+02  0.10212470630E+03  0.53206414438E+02  0.13775171679E+03  0.41800000000E+01 0. -1.
        -11    1    4    4    0    0  0.20900505812E+02 -0.66161683666E+02  0.92309528467E+02  0.11547834678E+03  0.00000000000E+00 0.  1.
         11    1    4    4    0    0  0.21738334307E+02 -0.27634959614E+02 -0.25021542144E+02  0.43154649142E+02  0.00000000000E+00 0. -1.
</event>
<event>
 8    1  0.8619230E-006  0.7747854E+02  0.7561462E-02  0.1336363E+00
         -2   -1    0    0    0  501 -0.00000000000E+00  0.00000000000E+00  0.48334881886E+02  0.48334881886E+02  0.00000000000E+00 0.  1.
          2   -1    0    0  501    0  0.00000000000E+00 -0.00000000000E+00 -0.24760110693E+03  0.24760110693E+03  0.00000000000E+00 0. -1.
         23    2    1    2    0    0 -0.35490893339E+01  0.13548024398E+02 -0.11661913568E+03  0.17159238402E+03  0.12509108061E+03 0.  0.
         23    2    1    2    0    0  0.35490893339E+01 -0.13548024398E+02 -0.82647089362E+02  0.12434360479E+03  0.91840327051E+02 0.  0.
          5    1    3    3  502    0 -0.35797075895E+02  0.11507992923E+02 -0.13072406497E+03  0.13608864062E+03  0.41800000000E+01 0. -1.
         -5    1    3    3    0  502  0.32247986561E+02  0.20400314757E+01  0.14104929285E+02  0.35503743405E+02  0.41800000000E+01 0. -1.
        -11    1    4    4    0    0 -0.33109115293E+02  0.16638752619E+02 -0.62712267016E+02  0.72841540610E+02  0.00000000000E+00 0. -1.
         11    1    4    4    0    0  0.36658204627E+02 -0.30186777017E+02 -0.19934822346E+02  0.51502064183E+02  0.00000000000E+00 0.  1.
</event>
<event>
 8    1  0.8619230E-006  0.1026030E+03  0.7561462E-02  0.1274915E+00
         -3   -1    0    0    0  501 -0.00000000000E+00  0.00000000000E+00  0.34762092289E+03  0.34762092289E+03  0.00000000000E+00 0.  1.
          3   -1    0    0  501    0  0.00000000000E+00 -0.00000000000E+00 -0.48616727229E+02  0.48616727229E+02  0.00000000000E+00 0. -1.
         23    2    1    2    0    0  0.14832196503E+02  0.19304010546E+02  0.27752903243E+03  0.30077739653E+03  0.11336683618E+03 0.  0.
         23    2    1    2    0    0 -0.14832196503E+02 -0.19304010546E+02  0.21475163237E+02  0.95460253594E+02  0.89771033769E+02 0.  0.
          5    1    3    3  502    0 -0.16450457706E+02 -0.41798196374E+02  0.83284233439E+02  0.94717700132E+02  0.41800000000E+01 0. -1.
         -5    1    3    3    0  502  0.31282654208E+02  0.61102206919E+02  0.19424479899E+03  0.20605969640E+03  0.41800000000E+01 0.  1.
        -11    1    4    4    0    0  0.32070396098E+02 -0.29215828155E+02  0.11696721104E+01  0.43398652669E+02  0.00000000000E+00 0. -1.
         11    1    4    4    0    0 -0.46902592601E+02  0.99118176090E+01  0.20305491126E+02  0.52061600925E+02  0.00000000000E+00 0.  1.
</event>
<event>
 8    1  0.8619230E-006  0.8378337E+02  0.7561462E-02  0.1318645E+00
         -2   -1    0    0    0  501 -0.00000000000E+00  0.00000000000E+00  0.53813524538E+02  0.53813524538E+02  0.00000000000E+00 0. -1.
          2   -1    0    0  501    0  0.00000000000E+00 -0.00000000000E+00 -0.26267318198E+03  0.26267318198E+03  0.00000000000E+00 0.  1.
         23    2    1    2    0    0 -0.38163443887E+02  0.23748249540E+02 -0.94796925626E+02  0.16326264879E+03  0.12509119704E+03 0.  0.
         23    2    1    2    0    0  0.38163443887E+02 -0.23748249540E+02 -0.11406273181E+03  0.15322405772E+03  0.91906894580E+02 0.  0.
          5    1    3    3  502    0  0.11524593383E+02  0.59807355932E+02 -0.78798112890E+02  0.99681247340E+02  0.41800000000E+01 0.  1.
         -5    1    3    3    0  502 -0.49688037270E+02 -0.36059106392E+02 -0.15998812737E+02  0.63581401452E+02  0.41800000000E+01 0.  1.
        -11    1    4    4    0    0  0.19246613125E+02 -0.10992124707E+02  0.11937575193E+02  0.25174682200E+02  0.00000000000E+00 0. -1.
         11    1    4    4    0    0  0.18916830762E+02 -0.12756124833E+02 -0.12600030700E+03  0.12804937552E+03  0.00000000000E+00 0.  1.
</event>
<event>
 8    1  0.8619230E-006  0.1202523E+03  0.7561462E-02  0.1242681E+00
         -1   -1    0    0    0  501 -0.00000000000E+00  0.00000000000E+00  0.16682374036E+03  0.16682374036E+03  0.00000000000E+00 0.  1.
          1   -1    0    0  501    0  0.00000000000E+00 -0.00000000000E+00 -0.97041844364E+02  0.97041844364E+02  0.00000000000E+00 0. -1.
         23    2    1    2    0    0 -0.44700444961E+02  0.49893352265E+02  0.41829693729E+02  0.14793479410E+03  0.12508998220E+03 0.  0.
         23    2    1    2    0    0  0.44700444961E+02 -0.49893352265E+02  0.27952202262E+02  0.11593079062E+03  0.90394392652E+02 0.  0.
          5    1    3    3  502    0 -0.78415433000E+02  0.67471932759E+02  0.27896298287E+02  0.10722461332E+03  0.41800000000E+01 0.  1.
         -5    1    3    3    0  502  0.33714988039E+02 -0.17578580494E+02  0.13933395442E+02  0.40710180781E+02  0.41800000000E+01 0.  1.
        -11    1    4    4    0    0  0.23289303182E+02  0.16772938366E+02 -0.16390181922E+02  0.33050887546E+02  0.00000000000E+00 0. -1.
         11    1    4    4    0    0  0.21411141779E+02 -0.66666290631E+02  0.44342384184E+02  0.82879903076E+02  0.00000000000E+00 0.  1.
</event>
<event>
 8    1  0.8619230E-006  0.1924362E+03  0.7561462E-02  0.1156282E+00
          2   -1    0    0  501    0  0.00000000000E+00  0.00000000000E+00  0.27381172816E+03  0.27381172816E+03  0.00000000000E+00 0.  1.
         -2   -1    0    0    0  501 -0.00000000000E+00 -0.00000000000E+00 -0.15111109463E+03  0.15111109463E+03  0.00000000000E+00 0. -1.
         23    2    1    2    0    0 -0.65687320015E+02  0.15590519446E+03  0.31429303552E+02  0.21273631586E+03  0.12509070825E+03 0.  0.
         23    2    1    2    0    0  0.65687320015E+02 -0.15590519446E+03  0.91271329975E+02  0.21218650693E+03  0.89840994969E+02 0.  0.
          5    1    3    3  502    0  0.15796587569E+02 -0.14028041212E+02  0.70515118610E+01  0.22660854763E+02  0.41800000000E+01 0. -1.
         -5    1    3    3    0  502 -0.81483907583E+02  0.16993323568E+03  0.24377791691E+02  0.19007546109E+03  0.41800000000E+01 0. -1.
        -11    1    4    4    0    0  0.39502263419E+02 -0.40818590264E+02 -0.87557098789E+01  0.57473894786E+02  0.00000000000E+00 0. -1.
         11    1    4    4    0    0  0.26185056596E+02 -0.11508660420E+03  0.10002703985E+03  0.15471261215E+03  0.00000000000E+00 0.  1.
</event>
<event>
 8    1  0.8619230E-006  0.1340198E+03  0.7561462E-02  0.1221610E+00
         -2   -1    0    0    0  501 -0.00000000000E+00  0.00000000000E+00  0.25125715449E+02  0.25125715449E+02  0.00000000000E+00 0.  1.
          2   -1    0    0  501    0  0.00000000000E+00 -0.00000000000E+00 -0.10161744078E+04  0.10161744078E+04  0.00000000000E+00 0. -1.
         23    2    1    2    0    0  0.74324733649E+02 -0.90342572047E+02 -0.51972007695E+03  0.54723008474E+03  0.12516333692E+03 0.  0.
         23    2    1    2    0    0 -0.74324733649E+02  0.90342572047E+02 -0.47132861536E+03  0.49407003846E+03  0.90931803536E+02 0.  0.
          5    1    3    3  502    0  0.37230205705E+02 -0.22854409826E+02 -0.41426021030E+03  0.41657821175E+03  0.41800000000E+01 0. -1.
         -5    1    3    3    0  502  0.37094527944E+02 -0.67488162221E+02 -0.10545986664E+03  0.13065187299E+03  0.41800000000E+01 0. -1.
        -11    1    4    4    0    0 -0.12649284180E+02  0.84093424130E+02 -0.30225241428E+03  0.31398762764E+03  0.00000000000E+00 0.  1.
         11    1    4    4    0    0 -0.61675449469E+02  0.62491479169E+01 -0.16907620108E+03  0.18008241082E+03  0.00000000000E+00 0. -1.
</event>
<event>
 7    1  0.8619230E-006  0.1538611E+03  0.7561462E-02  0.1195807E+00
          2   -1    0    0  501    0  0.00000000000E+00  0.00000000000E+00  0.21446894055E+03  0.21446894055E+03  0.00000000000E+00 0. -1.
         -2   -1    0    0    0  501 -0.00000000000E+00 -0.00000000000E+00 -0.18175157266E+03  0.18175157266E+03  0.00000000000E+00 0.  1.
         23    2    1    2    0    0  0.74118815419E+02 -0.10030968456E+03  0.89119057737E+02  0.17812538189E+03  0.90723831525E+02 0.  0.
          5    1    1    2  502    0  0.17491913384E+02  0.40534845652E+02  0.49031808279E+02  0.66110750782E+02  0.41800000000E+01 0. -1.
         -5    1    1    2    0  502 -0.91610728802E+02  0.59774838909E+02 -0.10543349813E+03  0.15198438054E+03  0.41800000000E+01 0.  1.
        -11    1    3    3    0    0  0.33419343288E+01  0.16769887026E+02  0.64354817144E+01  0.18270551738E+02  0.00000000000E+00 0.  1.
         11    1    3    3    0    0  0.70776881090E+02 -0.11707957159E+03  0.82683576022E+02  0.15985483015E+03  0.00000000000E+00 0. -1.
</event>
<event>
 8    1  0.8619230E-006  0.7023249E+02  0.7561462E-02  0.1359304E+00
          1   -1    0    0  501    0  0.00000000000E+00  0.00000000000E+00  0.65656787524E+02  0.65656787524E+02  0.00000000000E+00 0. -1.
         -1   -1    0    0    0  501 -0.00000000000E+00 -0.00000000000E+00 -0.21328884097E+03  0.21328884097E+03  0.00000000000E+00 0.  1.
         23    2    1    2    0    0 -0.22691475976E+02  0.23662070265E+02 -0.12511905227E+03  0.17993633366E+03  0.12509000871E+03 0.  0.
         23    2    1    2    0    0  0.22691475976E+02 -0.23662070265E+02 -0.22513001177E+02  0.99009294834E+02  0.90670880608E+02 0.  0.
          5    1    3    3  502    0 -0.45970950039E+02  0.24576954341E+02  0.30697984230E+00  0.52296477594E+02  0.41800000000E+01 0.  1.
         -5    1    3    3    0  502  0.23279474063E+02 -0.91488407618E+00 -0.12542603211E+03  0.12763985606E+03  0.41800000000E+01 0.  1.
        -11    1    4    4    0    0 -0.10001004344E+02  0.12330372195E+02 -0.43307422980E+02  0.46125817624E+02  0.00000000000E+00 0.  1.
         11    1    4    4    0    0  0.32692480319E+02 -0.35992442460E+02  0.20794421803E+02  0.52883477209E+02  0.00000000000E+00 0. -1.
</event>
<event>
 8    1  0.8619230E-006  0.7533941E+02  0.7561462E-02  0.1342823E+00
         -4   -1    0    0    0  501 -0.00000000000E+00  0.00000000000E+00  0.34829789472E+03  0.34829789472E+03  0.00000000000E+00 0.  1.
          4   -1    0    0  501    0  0.00000000000E+00 -0.00000000000E+00 -0.35356828451E+02  0.35356828451E+02  0.00000000000E+00 0. -1.
         23    2    1    2    0    0 -0.51579431309E+01 -0.24272560594E+02  0.19990793174E+03  0.23712061205E+03  0.12508893601E+03 0.  0.
         23    2    1    2    0    0  0.51579431309E+01  0.24272560594E+02  0.11303313453E+03  0.14653411112E+03  0.89888790430E+02 0.  0.
          5    1    3    3  502    0 -0.10171777266E+02 -0.60770103491E+02  0.41437821861E+02  0.74370935261E+02  0.41800000000E+01 0.  1.
         -5    1    3    3    0  502  0.50138341351E+01  0.36497542897E+02  0.15847010988E+03  0.16274967679E+03  0.41800000000E+01 0.  1.
        -11    1    4    4    0    0  0.18289540169E+02 -0.56710143485E+01  0.11220500335E+03  0.11382719560E+03  0.00000000000E+00 0.  1.
         11    1    4    4    0    0 -0.13131597038E+02  0.29943574943E+02  0.82813118014E+00  0.32706915513E+02  0.00000000000E+00 0. -1.
</event>
<event>
 8    1  0.8619230E-006  0.9556794E+02  0.7561462E-02  0.1289902E+00
          1   -1    0    0  501    0  0.00000000000E+00  0.00000000000E+00  0.56828679863E+02  0.56828679863E+02  0.00000000000E+00 0. -1.
         -1   -1    0    0    0  501 -0.00000000000E+00 -0.00000000000E+00 -0.26248296264E+03  0.26248296264E+03  0.00000000000E+00 0.  1.
         23    2    1    2    0    0 -0.12740118449E+02 -0.52689815699E+02 -0.15174219560E+03  0.20398677824E+03  0.12508550865E+03 0.  0.
         23    2    1    2    0    0  0.12740118449E+02  0.52689815699E+02 -0.53912087179E+02  0.11532486427E+03  0.86341090320E+02 0.  0.
          5    1    3    3  502    0 -0.51142250427E+02 -0.47014265615E+02 -0.29371311522E+02  0.75538184321E+02  0.41800000000E+01 0.  1.
         -5    1    3    3    0  502  0.38402131978E+02 -0.56755500841E+01 -0.12237088407E+03  0.12844859391E+03  0.41800000000E+01 0.  1.
        -11    1    4    4    0    0  0.38050801108E+02  0.34091016847E+02  0.20730216267E+01  0.51130796134E+02  0.00000000000E+00 0. -1.
         11    1    4    4    0    0 -0.25310682659E+02  0.18598798852E+02 -0.55985108806E+02  0.64194068133E+02  0.00000000000E+00 0.  1.
</event>
<event>
 8    1  0.8619230E-006  0.1249879E+03  0.7561462E-02  0.1235088E+00
          1   -1    0    0  501    0  0.00000000000E+00  0.00000000000E+00  0.35308543217E+03  0.35308543217E+03  0.00000000000E+00 0. -1.
         -1   -1    0    0    0  501 -0.00000000000E+00 -0.00000000000E+00 -0.50472096821E+02  0.50472096821E+02  0.00000000000E+00 0.  1.
         23    2    1    2    0    0 -0.59226191611E+02  0.42486979885E+02  0.13730658775E+03  0.19953225831E+03  0.12508851999E+03 0.  0.
         23    2    1    2    0    0  0.59226191611E+02 -0.42486979885E+02  0.16530674760E+03  0.20402527068E+03  0.94800343053E+02 0.  0.
          5    1    3    3  502    0 -0.92380824967E+02  0.48626323750E+02  0.75165605873E+02  0.12870927274E+03  0.41800000000E+01 0.  1.
         -5    1    3    3    0  502  0.33154633357E+02 -0.61393438649E+01  0.62140981880E+02  0.70822985570E+02  0.41800000000E+01 0.  1.
        -11    1    4    4    0    0 -0.58287209290E+01  0.20291812120E+02  0.79749883295E+01  0.22568386421E+02  0.00000000000E+00 0.  1.
         11    1    4    4    0    0  0.65054912540E+02 -0.62778792005E+02  0.15733175927E+03  0.18145688426E+03  0.00000000000E+00 0. -1.
</event>
<event>
 8    1  0.8619230E-006  0.8106476E+02  0.7561462E-02  0.1326057E+00
          3   -1    0    0  501    0  0.00000000000E+00  0.00000000000E+00  0.40171108085E+03  0.40171108085E+03  0.00000000000E+00 0. -1.
         -3   -1    0    0    0  501 -0.00000000000E+00 -0.00000000000E+00 -0.33752343864E+02  0.33752343864E+02  0.00000000000E+00 0.  1.
         23    2    1    2    0    0  0.11259422660E+02 -0.29221004264E+02  0.15096298231E+03  0.19853975723E+03  0.12509025335E+03 0.  0.
         23    2    1    2    0    0 -0.11259422660E+02  0.29221004264E+02  0.21699575467E+03  0.23692366748E+03  0.89805484120E+02 0.  0.
          5    1    3    3  502    0 -0.19521801998E+02  0.19890996279E+02 -0.79937911012E+01  0.29293780609E+02  0.41800000000E+01 0. -1.
         -5    1    3    3    0  502  0.30781224657E+02 -0.49112000543E+02  0.15895677342E+03  0.16924597662E+03  0.41800000000E+01 0. -1.
        -11    1    4    4    0    0 -0.37828801036E+02  0.31420358317E+02  0.59518536822E+02  0.77205656076E+02  0.00000000000E+00 0.  1.
         11    1    4    4    0    0  0.26569378376E+02 -0.21993540530E+01  0.15747721785E+03  0.15971801141E+03  0.00000000000E+00 0. -1.
</event>
<event>
 8    1  0.8619230E-006  0.1163533E+03  0.7561462E-02  0.1249237E+00
          2   -1    0    0  501    0  0.00000000000E+00  0.00000000000E+00  0.15555238095E+03  0.15555238095E+03  0.00000000000E+00 0. -1.
         -2   -1    0    0    0  501 -0.00000000000E+00 -0.00000000000E+00 -0.11489767674E+03  0.11489767674E+03  0.00000000000E+00 0.  1.
         23    2    1    2    0    0 -0.55022574974E+02  0.40673779732E+02 -0.20985884192E+02  0.14406874364E+03  0.12503421709E+03 0.  0.
         23    2    1    2    0    0  0.55022574974E+02 -0.40673779732E+02  0.61640588394E+02  0.12638131405E+03  0.86549605950E+02 0.  0.
          5    1    3    3  502    0 -0.56397558519E+02  0.72913925115E+02  0.17237663692E+02  0.93870839627E+02  0.41800000000E+01 0.  1.
         -5    1    3    3    0  502  0.13749835451E+01 -0.32240145384E+02 -0.38223547884E+02  0.50197904009E+02  0.41800000000E+01 0.  1.
        -11    1    4    4    0    0 -0.14081772737E+02 -0.35970518610E+02  0.35139880976E+02  0.52220549284E+02  0.00000000000E+00 0. -1.
         11    1    4    4    0    0  0.69104347711E+02 -0.47032611217E+01  0.26500707418E+02  0.74160764771E+02  0.00000000000E+00 0.  1.
</event>
<event>
 8    1  0.8619230E-006  0.1140852E+03  0.7561462E-02  0.1253186E+00
          1   -1    0    0  501    0  0.00000000000E+00  0.00000000000E+00  0.54764629475E+02  0.54764629475E+02  0.00000000000E+00 0. -1.
         -1   -1    0    0    0  501 -0.00000000000E+00 -0.00000000000E+00 -0.25655561898E+03  0.25655561898E+03  0.00000000000E+00 0.  1.
         23    2    1    2    0    0 -0.56525781636E+02  0.28970941972E+01 -0.12382708601E+03  0.18488886460E+03  0.12508872003E+03 0.  0.
         23    2    1    2    0    0  0.56525781636E+02 -0.28970941972E+01 -0.77963903497E+02  0.12643138385E+03  0.81871652179E+02 0.  0.
          5    1    3    3  502    0  0.72757967337E+01  0.50958778366E+02 -0.75375188933E+02  0.91370814910E+02  0.41800000000E+01 0. -1.
         -5    1    3    3    0  502 -0.63801578370E+02 -0.48061684169E+02 -0.48451897075E+02  0.93518049690E+02  0.41800000000E+01 0. -1.
        -11    1    4    4    0    0 -0.19973520464E+02  0.22090014344E+00 -0.30144933551E+02  0.36162236316E+02  0.00000000000E+00 0.  1.
         11    1    4    4    0    0  0.76499302101E+02 -0.31179943406E+01 -0.47818969947E+02  0.90269147539E+02  0.00000000000E+00 0. -1.
</event>
<event>
 8    1  0.8619230E-006  0.1071671E+03  0.7561462E-02  0.1265908E+00
          2   -1    0    0  501    0  0.00000000000E+00  0.00000000000E+00  0.59063337788E+03  0.59063337788E+03  0.00000000000E+00 0. -1.
         -2   -1    0    0    0  501 -0.00000000000E+00 -0.00000000000E+00 -0.31377544433E+02  0.31377544433E+02  0.00000000000E+00 0.  1.
         23    2    1    2    0    0 -0.42463908775E+02 -0.18819616182E+02  0.15295048786E+03  0.20297446941E+03  0.12508965583E+03 0.  0.
         23    2    1    2    0    0  0.42463908775E+02  0.18819616182E+02  0.40630534559E+03  0.41903645290E+03  0.91379174348E+02 0.  0.
          5    1    3    3  502    0  0.14189423169E+02  0.33771482534E+02  0.10648336724E+03  0.11268554770E+03  0.41800000000E+01 0.  1.
         -5    1    3    3    0  502 -0.56653331943E+02 -0.52591098715E+02  0.46467120614E+02  0.90288921704E+02  0.41800000000E+01 0.  1.
        -11    1    4    4    0    0  0.67858596263E+02 -0.95541551807E+00  0.31489833129E+03  0.32212832995E+03  0.00000000000E+00 0.  1.
         11    1    4    4    0    0 -0.25394687489E+02  0.19775031700E+02  0.91407014295E+02  0.96908122950E+02  0.00000000000E+00 0. -1.
</event>
<event>
 8    1  0.8619230E-006  0.2058908E+03  0.7561462E-02  0.1144862E+00
         -1   -1    0    0    0  501 -0.00000000000E+00  0.00000000000E+00  0.22444420772E+02  0.22444420772E+02  0.00000000000E+00 0.  1.
          1   -1    0    0  501    0  0.00000000000E+00 -0.00000000000E+00 -0.19268103500E+04  0.19268103500E+04  0.00000000000E+00 0. -1.
         23    2    1    2    0    0 -0.13328461877E+03 -0.11234788047E+03 -0.91074990271E+03  0.93567987206E+03  0.12507838283E+03 0.  0.
         23    2    1    2    0    0  0.13328461877E+03  0.11234788047E+03 -0.99361602651E+03  0.10135748987E+04  0.98358686898E+02 0.  0.
          5    1    3    3  502    0  0.29346162910E+01  0.22066686478E+02 -0.78615896889E+02  0.81813704650E+02  0.41800000000E+01 0.  1.
         -5    1    3    3    0  502 -0.13621923506E+03 -0.13441456695E+03 -0.83213400582E+03  0.85386616741E+03  0.41800000000E+01 0.  1.
        -11    1    4    4    0    0  0.13406692428E+03  0.62601866484E+02 -0.80632798368E+03  0.81979128511E+03  0.00000000000E+00 0. -1.
         11    1    4    4    0    0 -0.78230550471E+00  0.49746013990E+02 -0.18728804282E+03  0.19378361359E+03  0.00000000000E+00 0.  1.
</event>
<event>
 8    1  0.8619230E-006  0.1465632E+03  0.7561462E-02  0.1204761E+00
         -2   -1    0    0    0  501 -0.00000000000E+00  0.00000000000E+00  0.39973691483E+02  0.39973691483E+02  0.00000000000E+00 0.  1.
          2   -1    0    0  501    0  0.00000000000E+00 -0.00000000000E+00 -0.68402987238E+03  0.68402987238E+03  0.00000000000E+00 0. -1.
         23    2    1    2    0    0 -0.11563484265E+03  0.36893155484E+02 -0.28564858611E+03  0.33462802141E+03  0.12509307021E+03 0.  0.
         23    2    1    2    0    0  0.11563484265E+03 -0.36893155484E+02 -0.35840759479E+03  0.38937554245E+03  0.91786640097E+02 0.  0.
          5    1    3    3  502    0 -0.30906966357E+02  0.53072273028E+02 -0.37972552034E+02  0.72327683785E+02  0.41800000000E+01 0.  1.
         -5    1    3    3    0  502 -0.84727876290E+02 -0.16179117544E+02 -0.24767603408E+03  0.26230033763E+03  0.41800000000E+01 0.  1.
        -11    1    4    4    0    0  0.93970114138E+02  0.90585152714E+01 -0.17240903210E+03  0.19656376421E+03  0.00000000000E+00 0.  1.
         11    1    4    4    0    0  0.21664728510E+02 -0.45951670756E+02 -0.18599856269E+03  0.19281177824E+03  0.00000000000E+00 0. -1.
</event>
<event>
 8    1  0.8619230E-006  0.8067912E+02  0.7561462E-02  0.1327135E+00
          3   -1    0    0  501    0  0.00000000000E+00  0.00000000000E+00  0.13875359254E+03  0.13875359254E+03  0.00000000000E+00 0. -1.
         -3   -1    0    0    0  501 -0.00000000000E+00 -0.00000000000E+00 -0.11790079095E+03  0.11790079095E+03  0.00000000000E+00 0.  1.
         23    2    1    2    0    0 -0.65410215783E+01 -0.66421014746E+02  0.94971484964E+01  0.14210316686E+03  0.12509427660E+03 0.  0.
         23    2    1    2    0    0  0.65410215783E+01  0.66421014746E+02  0.11355653089E+02  0.11455121663E+03  0.92403972916E+02 0.  0.
          5    1    3    3  502    0  0.67584787528E+01 -0.63275914339E+02 -0.49922419530E+02  0.80989127309E+02  0.41800000000E+01 0.  1.
         -5    1    3    3    0  502 -0.13299500331E+02 -0.31451004068E+01  0.59419568027E+02  0.61114039550E+02  0.41800000000E+01 0.  1.
        -11    1    4    4    0    0 -0.71792816957E+01  0.68966839626E+02 -0.26480422309E+02  0.74223849397E+02  0.00000000000E+00 0.  1.
         11    1    4    4    0    0  0.13720303274E+02 -0.25458248803E+01  0.37836075398E+02  0.40327367231E+02  0.00000000000E+00 0. -1.
</event>
<event>
 8    1  0.8619230E-006  0.8665872E+02  0.7561462E-02  0.1311151E+00
          1   -1    0    0  501    0  0.00000000000E+00  0.00000000000E+00  0.17847168021E+03  0.17847168021E+03  0.00000000000E+00 0. -1.
         -1   -1    0    0    0  501 -0.00000000000E+00 -0.00000000000E+00 -0.95658644499E+02  0.95658644499E+02  0.00000000000E+00 0.  1.
         23    2    1    2    0    0 -0.57450498946E+02 -0.39270654796E+02  0.21474058013E+02  0.14467814186E+03  0.12501154110E+03 0.  0.
         23    2    1    2    0    0  0.57450498946E+02  0.39270654796E+02  0.61338977696E+02  0.12945218284E+03  0.90292044507E+02 0.  0.
          5    1    3    3  502    0 -0.60428584844E+02 -0.13034258967E+02  0.67391313233E+02  0.91545438293E+02  0.41800000000E+01 0.  1.
         -5    1    3    3    0  502  0.29780858978E+01 -0.26236395829E+02 -0.45917255220E+02  0.53132703570E+02  0.41800000000E+01 0.  1.
        -11    1    4    4    0    0 -0.53961667343E+01  0.17181094930E+02 -0.18266506535E+02  0.25651001918E+02  0.00000000000E+00 0.  1.
         11    1    4    4    0    0  0.62846665681E+02  0.22089559866E+02  0.79605484230E+02  0.10380118093E+03  0.00000000000E+00 0. -1.
</event>
<event>
 8    1  0.8619230E-006  0.1675665E+03  0.7561462E-02  0.1180410E+00
          1   -1    0    0  501    0  0.00000000000E+00  0.00000000000E+00  0.41170736319E+03  0.41170736319E+03  0.00000000000E+00 0. -1.
         -1   -1    0    0    0  501 -0.00000000000E+00 -0.00000000000E+00 -0.77317984375E+02  0.77317984375E+02  0.00000000000E+00 0.  1.
         23    2    1    2    0    0  0.49216539994E+01 -0.13814586253E+03  0.13699744205E+03  0.23135205945E+03  0.12508786622E+03 0.  0.
         23    2    1    2    0    0 -0.49216539994E+01  0.13814586253E+03  0.19739193676E+03  0.25767328811E+03  0.91232914535E+02 0.  0.
          5    1    3    3  502    0 -0.36816089046E+02 -0.13338533259E+03  0.12722938228E+03  0.18802090171E+03  0.41800000000E+01 0.  1.
         -5    1    3    3    0  502  0.41737743045E+02 -0.47605299339E+01  0.97680597605E+01  0.43331157742E+02  0.41800000000E+01 0.  1.
        -11    1    4    4    0    0 -0.35366545143E+02  0.50140525318E+02  0.35442295977E+02  0.70859164112E+02  0.00000000000E+00 0.  1.
         11    1    4    4    0    0  0.30444891144E+02  0.88005337208E+02  0.16194964079E+03  0.18681412400E+03  0.00000000000E+00 0. -1.
</event>
<event>
 8    1  0.8619230E-006  0.7186633E+02  0.7561462E-02  0.1353859E+00
          4   -1    0    0  501    0  0.00000000000E+00  0.00000000000E+00  0.18667452822E+03  0.18667452822E+03  0.00000000000E+00 0.  1.
         -4   -1    0    0    0  501 -0.00000000000E+00 -0.00000000000E+00 -0.12459991798E+03  0.12459991798E+03  0.00000000000E+00 0. -1.
         23    2    1    2    0    0 -0.51404442129E+02 -0.14298886613E+02 -0.59852782390E+02  0.14857976888E+03  0.12508683917E+03 0.  0.
         23    2    1    2    0    0  0.51404442129E+02  0.14298886613E+02  0.12192739263E+03  0.16269467732E+03  0.93575606457E+02 0.  0.
          5    1    3    3  502    0  0.19651496132E+00  0.26281348056E+01 -0.87402261289E+02  0.87541837935E+02  0.41800000000E+01 0.  1.
         -5    1    3    3    0  502 -0.51600957091E+02 -0.16927021419E+02  0.27549478899E+02  0.61037930948E+02  0.41800000000E+01 0.  1.
        -11    1    4    4    0    0  0.26240912779E+02  0.40332236259E+02  0.15932639100E+02  0.50686524579E+02  0.00000000000E+00 0. -1.
         11    1    4    4    0    0  0.25163529350E+02 -0.26033349646E+02  0.10599475353E+03  0.11200815274E+03  0.00000000000E+00 0.  1.
</event>
<event>
 8    1  0.1308007E-005  0.1989431E+03  0.7561462E-02  0.1150634E+00
          2   -1    0    0  501    0  0.00000000000E+00  0.00000000000E+00  0.30072707432E+03  0.30072707432E+03  0.00000000000E+00 0.  1.
         -2   -1    0    0    0  501 -0.00000000000E+00 -0.00000000000E+00 -0.14694768206E+03  0.14694768206E+03  0.00000000000E+00 0. -1.
         23    2    1    2    0    0  0.97581180343E+02  0.14953344961E+03  0.56778611955E+02  0.22528423370E+03  0.12508731298E+03 0.  0.
         23    2    1    2    0    0 -0.97581180343E+02 -0.14953344961E+03  0.97000780300E+02  0.22239052268E+03  0.90366220961E+02 0.  0.
          5    1    3    3  502    0  0.11367381883E+03  0.80061630974E+02  0.90956544524E+01  0.13939800993E+03  0.41800000000E+01 0.  1.
         -5    1    3    3    0  502 -0.16092638487E+02  0.69471818634E+02  0.47682957503E+02  0.85886223773E+02  0.41800000000E+01 0.  1.
        -11    1    4    4    0    0 -0.44904949963E+02 -0.11728563726E+03  0.25938509435E+02  0.12823876758E+03  0.00000000000E+00 0.  1.
         11    1    4    4    0    0 -0.52676230380E+02 -0.32247812349E+02  0.71062270865E+02  0.94151755103E+02  0.00000000000E+00 0. -1.
</event>
<event>
 8    1  0.8619230E-006  0.8382514E+02  0.7561462E-02  0.1318534E+00
         -1   -1    0    0    0  501 -0.00000000000E+00  0.00000000000E+00  0.17248161671E+02  0.17248161671E+02  0.00000000000E+00 0.  1.
          1   -1    0    0  501    0  0.00000000000E+00 -0.00000000000E+00 -0.74385401326E+03  0.74385401326E+03  0.00000000000E+00 0. -1.
         23    2    1    2    0    0  0.19324580010E+02 -0.12459746197E+02 -0.35520181700E+03  0.37728554115E+03  0.12508942441E+03 0.  0.
         23    2    1    2    0    0 -0.19324580010E+02  0.12459746197E+02 -0.37140403459E+03  0.38381663377E+03  0.94050873380E+02 0.  0.
          5    1    3    3  502    0  0.16145121024E+02  0.26613578667E+02 -0.14997339169E+02  0.34804311292E+02  0.41800000000E+01 0. -1.
         -5    1    3    3    0  502  0.31794589852E+01 -0.39073324864E+02 -0.34020447783E+03  0.34248122986E+03  0.41800000000E+01 0. -1.
        -11    1    4    4    0    0 -0.22785146424E+02 -0.39039823964E+02 -0.17476641947E+03  0.18051751197E+03  0.00000000000E+00 0.  1.
         11    1    4    4    0    0  0.34605664143E+01  0.51499570162E+02 -0.19663761512E+03  0.20329912180E+03  0.00000000000E+00 0. -1.
</event>
<event>
 8    1  0.8619230E-006  0.1253043E+03  0.7561462E-02  0.1234594E+00
         -2   -1    0    0    0  501 -0.00000000000E+00  0.00000000000E+00  0.85367342843E+02  0.85367342843E+02  0.00000000000E+00 0.  1.
          2   -1    0    0  501    0  0.00000000000E+00 -0.00000000000E+00 -0.37261630334E+03  0.37261630334E+03  0.00000000000E+00 0. -1.
         23    2    1    2    0    0 -0.50789231218E+02 -0.93684033464E+02 -0.33710216691E+02  0.16775005732E+03  0.12508980330E+03 0.  0.
         23    2    1    2    0    0  0.50789231218E+02  0.93684033464E+02 -0.25353874381E+03  0.29023358886E+03  0.92722151384E+02 0.  0.
          5    1    3    3  502    0 -0.29809371257E+02 -0.10793715737E+03 -0.63183707978E+02  0.12864168030E+03  0.41800000000E+01 0. -1.
         -5    1    3    3    0  502 -0.20979859961E+02  0.14253123906E+02  0.29473491287E+02  0.39108377027E+02  0.41800000000E+01 0. -1.
        -11    1    4    4    0    0  0.18393633928E+01  0.40590528632E+02 -0.18920367329E+03  0.19351745208E+03  0.00000000000E+00 0. -1.
         11    1    4    4    0    0  0.48949867825E+02  0.53093504831E+02 -0.64335070516E+02  0.96716136780E+02  0.00000000000E+00 0.  1.
</event>
<event>
 8    1  0.8619230E-006  0.8691678E+02  0.7561462E-02  0.1310495E+00
          1   -1    0    0  501    0  0.00000000000E+00  0.00000000000E+00  0.10412016842E+03  0.10412016842E+03  0.00000000000E+00 0. -1.
         -1   -1    0    0    0  501 -0.00000000000E+00 -0.00000000000E+00 -0.13807100887E+03  0.13807100887E+03  0.00000000000E+00 0.  1.
         23    2    1    2    0    0  0.49933123753E+02  0.52564201581E+01 -0.33289563988E+02  0.13883892570E+03  0.12508839042E+03 0.  0.
         23    2    1    2    0    0 -0.49933123753E+02 -0.52564201581E+01 -0.66127646151E+00  0.10335225160E+03  0.90334400000E+02 0.  0.
          5    1    3    3  502    0  0.71699910554E+02 -0.86624738664E+01  0.23701134720E+02  0.76125763142E+02  0.41800000000E+01 0.  1.
         -5    1    3    3    0  502 -0.21766786801E+02  0.13918894025E+02 -0.56990698708E+02  0.62713162556E+02  0.41800000000E+01 0.  1.
        -11    1    4    4    0    0 -0.38202541147E+02 -0.29579098972E+02 -0.35005295173E+02  0.59663455618E+02  0.00000000000E+00 0.  1.
         11    1    4    4    0    0 -0.11730582606E+02  0.24322678814E+02  0.34344018712E+02  0.43688795981E+02  0.00000000000E+00 0. -1.
</event>
<event>
 8    1  0.8619230E-006  0.1013557E+03  0.7561462E-02  0.1277471E+00
         -1   -1    0    0    0  501 -0.00000000000E+00  0.00000000000E+00  0.24937992870E+03  0.24937992870E+03  0.00000000000E+00 0.  1.
          1   -1    0    0  501    0  0.00000000000E+00 -0.00000000000E+00 -0.50753986909E+02  0.50753986909E+02  0.00000000000E+00 0. -1.
         23    2    1    2    0    0 -0.15934515512E+02 -0.16808181407E+02  0.14190886191E+03  0.19058337884E+03  0.12508986952E+03 0.  0.
         23    2    1    2    0    0  0.15934515512E+02  0.16808181407E+02  0.56717079888E+02  0.10955053677E+03  0.90818881343E+02 0.  0.
          5    1    3    3  502    0  0.25765033267E+02 -0.57447138266E+02  0.45187583114E+02  0.77610570813E+02  0.41800000000E+01 0.  1.
         -5    1    3    3    0  502 -0.41699548780E+02  0.40638956859E+02  0.96721278793E+02  0.11297280803E+03  0.41800000000E+01 0.  1.
        -11    1    4    4    0    0  0.24313765322E+02  0.45367728809E+02  0.60628581152E+02  0.79531219366E+02  0.00000000000E+00 0.  1.
         11    1    4    4    0    0 -0.83792498098E+01 -0.28559547402E+02 -0.39115012642E+01  0.30019317402E+02  0.00000000000E+00 0. -1.
</event>
<event>
 8    1  0.8619230E-006  0.7382411E+02  0.7561462E-02  0.1347552E+00
          2   -1    0    0  501    0  0.00000000000E+00  0.00000000000E+00  0.10871271801E+03  0.10871271801E+03  0.00000000000E+00 0. -1.
         -2   -1    0    0    0  501 -0.00000000000E+00 -0.00000000000E+00 -0.12503291977E+03  0.12503291977E+03  0.00000000000E+00 0.  1.
         23    2    1    2    0    0 -0.31718385170E+02 -0.15019848714E+02 -0.32350226819E+02  0.13388789677E+03  0.12509108646E+03 0.  0.
         23    2    1    2    0    0  0.31718385170E+02  0.15019848714E+02  0.16030025056E+02  0.99857741012E+02  0.92102958278E+02 0.  0.
          5    1    3    3  502    0  0.15147432819E+02 -0.23210433437E+02  0.39000669324E+02  0.48028049607E+02  0.41800000000E+01 0. -1.
         -5    1    3    3    0  502 -0.46865817990E+02  0.81905847229E+01 -0.71350896143E+02  0.85859847160E+02  0.41800000000E+01 0. -1.
        -11    1    4    4    0    0  0.10099353526E+02  0.38582068417E+02 -0.25579346664E+02  0.47380121578E+02  0.00000000000E+00 0.  1.
         11    1    4    4    0    0  0.21619031644E+02 -0.23562219703E+02  0.41609371720E+02  0.52477619435E+02  0.00000000000E+00 0. -1.
</event>
<event>
 8    1  0.8619230E-006  0.1003864E+03  0.7561462E-02  0.1279485E+00
          2   -1    0    0  501    0  0.00000000000E+00  0.00000000000E+00  0.91122347515E+02  0.91122347515E+02  0.00000000000E+00 0. -1.
         -2   -1    0    0    0  501 -0.00000000000E+00 -0.00000000000E+00 -0.17913286947E+03  0.17913286947E+03  0.00000000000E+00 0.  1.
         23    2    1    2    0    0  0.29093212871E+02  0.15451050898E+02 -0.11078371449E+03  0.17031424135E+03  0.12509500150E+03 0.  0.
         23    2    1    2    0    0 -0.29093212871E+02 -0.15451050898E+02  0.22773192532E+02  0.99940975641E+02  0.91566534853E+02 0.  0.
          5    1    3    3  502    0 -0.46718867385E+02 -0.49535168762E+01 -0.23017534193E+02  0.52483037065E+02  0.41800000000E+01 0. -1.
         -5    1    3    3    0  502  0.75812080256E+02  0.20404567775E+02 -0.87766180296E+02  0.11783120428E+03  0.41800000000E+01 0. -1.
        -11    1    4    4    0    0  0.18879977269E+02  0.92524469641E+01 -0.21552512479E+02  0.30109335939E+02  0.00000000000E+00 0.  1.
         11    1    4    4    0    0 -0.47973190140E+02 -0.24703497862E+02  0.44325705010E+02  0.69831639702E+02  0.00000000000E+00 0. -1.
</event>
<event>
 8    1  0.8619230E-006  0.1288666E+03  0.7561462E-02  0.1229147E+00
         -1   -1    0    0    0  501 -0.00000000000E+00  0.00000000000E+00  0.52450629653E+02  0.52450629653E+02  0.00000000000E+00 0.  1.
          1   -1    0    0  501    0  0.00000000000E+00 -0.00000000000E+00 -0.36487384609E+03  0.36487384609E+03  0.00000000000E+00 0. -1.
         23    2    1    2    0    0  0.47463311545E+02  0.73473741002E+02 -0.12891266543E+03  0.19516278722E+03  0.11755373940E+03 0.  0.
         23    2    1    2    0    0 -0.47463311545E+02 -0.73473741002E+02 -0.18351055100E+03  0.22216168852E+03  0.89602103527E+02 0.  0.
          5    1    3    3  502    0  0.14339182510E+02 -0.29938140970E+02 -0.52737731932E+02  0.62455145578E+02  0.41800000000E+01 0. -1.
         -5    1    3    3    0  502  0.33124129034E+02  0.10341188197E+03 -0.76174933501E+02  0.13270764165E+03  0.41800000000E+01 0.  1.
        -11    1    4    4    0    0  0.42099723224E+01 -0.62677995635E+02 -0.14108074155E+03  0.15443455131E+03  0.00000000000E+00 0. -1.
         11    1    4    4    0    0 -0.51673283867E+02 -0.10795745367E+02 -0.42429809457E+02  0.67727137206E+02  0.00000000000E+00 0.  1.
</event>
<event>
 8    1  0.8619230E-006  0.1413995E+03  0.7561462E-02  0.1211458E+00
          2   -1    0    0  501    0  0.00000000000E+00  0.00000000000E+00  0.14525962258E+03  0.14525962258E+03  0.00000000000E+00 0. -1.
         -2   -1    0    0    0  501 -0.00000000000E+00 -0.00000000000E+00 -0.20245727628E+03  0.20245727628E+03  0.00000000000E+00 0.  1.
         23    2    1    2    0    0 -0.33755192746E+02  0.11884160361E+03 -0.42145143499E+02  0.18079196440E+03  0.12508709560E+03 0.  0.
         23    2    1    2    0    0  0.33755192746E+02 -0.11884160361E+03 -0.15052510198E+02  0.16692493445E+03  0.11124125086E+03 0.  0.
          5    1    3    3  502    0 -0.37194614958E+02  0.45494596216E+01  0.27657572395E+02  0.46760567527E+02  0.41800000000E+01 0. -1.
         -5    1    3    3    0  502  0.34394222115E+01  0.11429214399E+03 -0.69802715894E+02  0.13403139688E+03  0.41800000000E+01 0. -1.
        -11    1    4    4    0    0 -0.10257072637E+02 -0.25102728755E+02 -0.50623507583E+02  0.57429034904E+02  0.00000000000E+00 0.  1.
         11    1    4    4    0    0  0.44012265384E+02 -0.93738874853E+02  0.35570997385E+02  0.10949589955E+03  0.00000000000E+00 0. -1.
</event>
<event>
 8    1  0.8619230E-006  0.7377431E+02  0.7561462E-02  0.1347709E+00
          1   -1    0    0  501    0  0.00000000000E+00  0.00000000000E+00  0.20247979709E+03  0.20247979709E+03  0.00000000000E+00 0. -1.
         -1   -1    0    0    0  501 -0.00000000000E+00 -0.00000000000E+00 -0.68488008253E+02  0.68488008253E+02  0.00000000000E+00 0.  1.
         23    2    1    2    0    0 -0.57870393998E+01  0.46583276089E+02  0.78388043256E+02  0.15490387447E+03  0.12508810320E+03 0.  0.
         23    2    1    2    0    0  0.57870393998E+01 -0.46583276089E+02  0.55603745583E+02  0.11606393088E+03  0.90418848100E+02 0.  0.
          5    1    3    3  502    0  0.14286368706E+02  0.24986377245E+02  0.10863280457E+03  0.11245878359E+03  0.41800000000E+01 0.  1.
         -5    1    3    3    0  502 -0.20073408106E+02  0.21596898845E+02 -0.30244761311E+02  0.42445090876E+02  0.41800000000E+01 0.  1.
        -11    1    4    4    0    0  0.36080226458E+02 -0.45900638310E+02  0.70181387978E+01  0.58803959142E+02  0.00000000000E+00 0.  1.
         11    1    4    4    0    0 -0.30293187059E+02 -0.68263777939E+00  0.48585606786E+02  0.57259971736E+02  0.00000000000E+00 0. -1.
</event>
<event>
 8    1  0.8619230E-006  0.1216548E+03  0.7561462E-02  0.1240392E+00
          1   -1    0    0  501    0  0.00000000000E+00  0.00000000000E+00  0.47230369982E+02  0.47230369982E+02  0.00000000000E+00 0. -1.
         -1   -1    0    0    0  501 -0.00000000000E+00 -0.00000000000E+00 -0.47297251394E+03  0.47297251394E+03  0.00000000000E+00 0.  1.
         23    2    1    2    0    0  0.70480737376E+01  0.10164992607E+03 -0.22596804876E+03  0.27765743756E+03  0.12509880399E+03 0.  0.
         23    2    1    2    0    0 -0.70480737376E+01 -0.10164992607E+03 -0.19977409520E+03  0.24254544636E+03  0.92391675077E+02 0.  0.
          5    1    3    3  502    0 -0.17410513687E+02  0.89938147083E+02 -0.23208512174E+03  0.24954553176E+03  0.41800000000E+01 0.  1.
         -5    1    3    3    0  502  0.24458587425E+02  0.11711778989E+02  0.61170729831E+01  0.28111905801E+02  0.41800000000E+01 0.  1.
        -11    1    4    4    0    0 -0.28651585671E+02 -0.10534964074E+02 -0.12158243673E+02  0.32859119263E+02  0.00000000000E+00 0. -1.
         11    1    4    4    0    0  0.21603511933E+02 -0.91114961998E+02 -0.18761585153E+03  0.20968632710E+03  0.00000000000E+00 0.  1.
</event>
<event>
 8    1  0.8619230E-006  0.1005391E+03  0.7561462E-02  0.1279166E+00
         -2   -1    0    0    0  501 -0.00000000000E+00  0.00000000000E+00  0.51860948427E+02  0.51860948427E+02  0.00000000000E+00 0.  1.
          2   -1    0    0  501    0  0.00000000000E+00 -0.00000000000E+00 -0.31480424037E+03  0.31480424037E+03  0.00000000000E+00 0. -1.
         23    2    1    2    0    0  0.63265944336E+02 -0.33970488134E+01 -0.11116572949E+03  0.17894457417E+03  0.12509684872E+03 0.  0.
         23    2    1    2    0    0 -0.63265944336E+02  0.33970488134E+01 -0.15177756245E+03  0.18772061463E+03  0.90490226203E+02 0.  0.
          5    1    3    3  502    0 -0.89724976414E+01  0.21673949356E+02 -0.98479939075E+02  0.10132145180E+03  0.41800000000E+01 0.  1.
         -5    1    3    3    0  502  0.72238441978E+02 -0.25070998169E+02 -0.12685790419E+02  0.77623122374E+02  0.41800000000E+01 0.  1.
        -11    1    4    4    0    0 -0.38002937582E+02  0.40658188257E+02 -0.44088795717E+02  0.71000939747E+02  0.00000000000E+00 0.  1.
         11    1    4    4    0    0 -0.25263006754E+02 -0.37261139443E+02 -0.10768876674E+03  0.11671967488E+03  0.00000000000E+00 0. -1.
</event>
<event>
 8    1  0.8619230E-006  0.1100950E+03  0.7561462E-02  0.1260394E+00
          1   -1    0    0  501    0  0.00000000000E+00  0.00000000000E+00  0.12484987050E+03  0.12484987050E+03  0.00000000000E+00 0. -1.
         -1   -1    0    0    0  501 -0.00000000000E+00 -0.00000000000E+00 -0.10431132464E+03  0.10431132464E+03  0.00000000000E+00 0.  1.
         23    2    1    2    0    0  0.65655361985E+01  0.29094779502E+02  0.14012578392E+02  0.12932952200E+03  0.12506062709E+03 0.  0.
         23    2    1    2    0    0 -0.65655361985E+01 -0.29094779502E+02  0.65259674671E+01  0.99831673134E+02  0.95048210133E+02 0.  0.
          5    1    3    3  502    0  0.93278500307E+00 -0.49464038623E+02  0.36988513432E+01  0.49786696075E+02  0.41800000000E+01 0.  1.
         -5    1    3    3    0  502  0.56327511954E+01  0.78558818125E+02  0.10313727049E+02  0.79542825929E+02  0.41800000000E+01 0.  1.
        -11    1    4    4    0    0  0.88681057228E+01  0.29641418741E+02 -0.16279146225E+02  0.34960944007E+02  0.00000000000E+00 0.  1.
         11    1    4    4    0    0 -0.15433641921E+02 -0.58736198242E+02  0.22805113692E+02  0.64870729126E+02  0.00000000000E+00 0. -1.
</event>
<event>
 8    1  0.8619230E-006  0.1148791E+03  0.7561462E-02  0.1251792E+00
         -3   -1    0    0    0  501 -0.00000000000E+00  0.00000000000E+00  0.15302514259E+03  0.15302514259E+03  0.00000000000E+00 0.  1.
          3   -1    0    0  501    0  0.00000000000E+00 -0.00000000000E+00 -0.12383732703E+03  0.12383732703E+03  0.00000000000E+00 0. -1.
         23    2    1    2    0    0 -0.25700518167E+02 -0.58797608447E+02  0.81691901616E+02  0.15362762656E+03  0.11318217819E+03 0.  0.
         23    2    1    2    0    0  0.25700518167E+02  0.58797608447E+02 -0.52504086049E+02  0.12323484306E+03  0.91172759630E+02 0.  0.
          5    1    3    3  502    0 -0.21657687260E+02 -0.90057318930E+02  0.78834574890E+02  0.12170348684E+03  0.41800000000E+01 0. -1.
         -5    1    3    3    0  502 -0.40428309071E+01  0.31259710483E+02  0.28573267258E+01  0.31924139726E+02  0.41800000000E+01 0.  1.
        -11    1    4    4    0    0 -0.24579524148E+02  0.47836753492E+02 -0.47100536602E+02  0.71491038181E+02  0.00000000000E+00 0. -1.
         11    1    4    4    0    0  0.50280042315E+02  0.10960854955E+02 -0.54035494469E+01  0.51743804877E+02  0.00000000000E+00 0.  1.
</event>
<event>
 8    1  0.8619230E-006  0.1320933E+03  0.7561462E-02  0.1224382E+00
         -2   -1    0    0    0  501 -0.00000000000E+00  0.00000000000E+00  0.58354502790E+02  0.58354502790E+02  0.00000000000E+00 0.  1.
          2   -1    0    0  501    0  0.00000000000E+00 -0.00000000000E+00 -0.45902207300E+03  0.45902207300E+03  0.00000000000E+00 0. -1.
         23    2    1    2    0    0  0.61307114358E+02 -0.10248536976E+03 -0.16754488348E+03  0.24079256475E+03  0.12509179817E+03 0.  0.
         23    2    1    2    0    0 -0.61307114358E+02  0.10248536976E+03 -0.23312268672E+03  0.27658401104E+03  0.88829695557E+02 0.  0.
          5    1    3    3  502    0 -0.19400085896E+01 -0.37535996002E+02 -0.14136920977E+03  0.14634015341E+03  0.41800000000E+01 0.  1.
         -5    1    3    3    0  502  0.63247122948E+02 -0.64949373756E+02 -0.26175673712E+02  0.94452411334E+02  0.41800000000E+01 0.  1.
        -11    1    4    4    0    0 -0.43725511244E+02  0.14765210080E+02 -0.31139101646E+02  0.55673830599E+02  0.00000000000E+00 0.  1.
         11    1    4    4    0    0 -0.17581603114E+02  0.87720159679E+02 -0.20198358508E+03  0.22091018044E+03  0.00000000000E+00 0. -1.
</event>
<event>
 8    1  0.8619230E-006  0.1173016E+03  0.7561462E-02  0.1247616E+00
         -1   -1    0    0    0  501 -0.00000000000E+00  0.00000000000E+00  0.31764644541E+02  0.31764644541E+02  0.00000000000E+00 0.  1.
          1   -1    0    0  501    0  0.00000000000E+00 -0.00000000000E+00 -0.51168965565E+03  0.51168965565E+03  0.00000000000E+00 0. -1.
         23    2    1    2    0    0  0.45396324778E+02  0.82312186997E+01 -0.16469862576E+03  0.21190835555E+03  0.12510369522E+03 0.  0.
         23    2    1    2    0    0 -0.45396324778E+02 -0.82312186997E+01 -0.31522638535E+03  0.33154594465E+03  0.91795752218E+02 0.  0.
          5    1    3    3  502    0 -0.47226378570E+01  0.59765023528E+02 -0.89392483559E+02  0.10771559712E+03  0.41800000000E+01 0. -1.
         -5    1    3    3    0  502  0.50118962635E+02 -0.51533804829E+02 -0.75306142202E+02  0.10419275843E+03  0.41800000000E+01 0. -1.
        -11    1    4    4    0    0 -0.36858789213E+02  0.39490541109E+02 -0.17737865475E+03  0.18542184429E+03  0.00000000000E+00 0.  1.
         11    1    4    4    0    0 -0.85375355659E+01 -0.47721759809E+02 -0.13784773061E+03  0.14612410036E+03  0.00000000000E+00 0. -1.
</event>
<event>
 8    1  0.8619230E-006  0.9019954E+02  0.7561462E-02  0.1302369E+00
         -1   -1    0    0    0  501 -0.00000000000E+00  0.00000000000E+00  0.68785062937E+02  0.68785062937E+02  0.00000000000E+00 0. -1.
          1   -1    0    0  501    0  0.00000000000E+00 -0.00000000000E+00 -0.24016315015E+03  0.24016315015E+03  0.00000000000E+00 0.  1.
         23    2    1    2    0    0  0.30761307786E+02 -0.53704247732E+02 -0.55581182327E+02  0.15022383613E+03  0.12509008286E+03 0.  0.
         23    2    1    2    0    0 -0.30761307786E+02  0.53704247732E+02 -0.11579690489E+03  0.15872437696E+03  0.89185763320E+02 0.  0.
          5    1    3    3  502    0 -0.78738075593E+01 -0.69721532598E+01 -0.82842121031E+02  0.83611585223E+02  0.41800000000E+01 0.  1.
         -5    1    3    3    0  502  0.38635115345E+02 -0.46732094473E+02  0.27260938704E+02  0.66612250904E+02  0.41800000000E+01 0.  1.
        -11    1    4    4    0    0 -0.62359490526E+02  0.37896254908E+02 -0.72845614508E+02  0.10310827197E+03  0.00000000000E+00 0. -1.
         11    1    4    4    0    0  0.31598182740E+02  0.15807992824E+02 -0.42951290378E+02  0.55616104994E+02  0.00000000000E+00 0.  1.
</event>
<event>
 8    1  0.8619230E-006  0.1260561E+03  0.7561462E-02  0.1233428E+00
          1   -1    0    0  501    0  0.00000000000E+00  0.00000000000E+00  0.98920875272E+02  0.98920875272E+02  0.00000000000E+00 0. -1.
         -1   -1    0    0    0  501 -0.00000000000E+00 -0.00000000000E+00 -0.24077770718E+03  0.24077770718E+03  0.00000000000E+00 0.  1.
         23    2    1    2    0    0  0.49925216867E+01 -0.10982781463E+03 -0.69647560034E+02  0.18050133699E+03  0.12507148315E+03 0.  0.
         23    2    1    2    0    0 -0.49925216867E+01  0.10982781463E+03 -0.72209271877E+02  0.15919724546E+03  0.89680041695E+02 0.  0.
          5    1    3    3  502    0 -0.89192232109E+01 -0.15968972106E+02 -0.82547558937E+02  0.84653012346E+02  0.41800000000E+01 0. -1.
         -5    1    3    3    0  502  0.13911744898E+02 -0.93858842523E+02  0.12899998903E+02  0.95848324647E+02  0.41800000000E+01 0. -1.
        -11    1    4    4    0    0  0.37480240884E+02  0.30226973864E+02 -0.42456160398E+02  0.64194734686E+02  0.00000000000E+00 0. -1.
         11    1    4    4    0    0 -0.42472762571E+02  0.79600840765E+02 -0.29753111479E+02  0.95002510775E+02  0.00000000000E+00 0.  1.
</event>
<event>
 7    1  0.8619230E-006  0.1966483E+03  0.7561462E-02  0.1152598E+00
          2   -1    0    0  501    0  0.00000000000E+00  0.00000000000E+00  0.10316840423E+04  0.10316840423E+04  0.00000000000E+00 0. -1.
         -2   -1    0    0    0  501 -0.00000000000E+00 -0.00000000000E+00 -0.52529112262E+02  0.52529112262E+02  0.00000000000E+00 0.  1.
         23    2    1    2    0    0 -0.55223055803E+02 -0.13070346031E+03  0.22212208446E+03  0.29174718996E+03  0.12508086191E+03 0.  0.
          5    1    3    3  502    0  0.16284589502E+02 -0.64816148791E+02  0.24216357239E+02  0.71205514936E+02  0.41800000000E+01 0. -1.
         -5    1    3    3    0  502 -0.71507645305E+02 -0.65887311521E+02  0.19790572722E+03  0.22054167503E+03  0.41800000000E+01 0. -1.
        -11    1    1    2    0    0  0.47002518884E+02 -0.37794608965E+02  0.28171066140E+03  0.28809471706E+03  0.00000000000E+00 0.  1.
         11    1    1    2    0    0  0.82205369184E+01  0.16849806928E+03  0.47532218417E+03  0.50437124754E+03  0.00000000000E+00 0. -1.
</event>
<event>
 8    1  0.8619230E-006  0.2466248E+03  0.7561462E-02  0.1115457E+00
         -1   -1    0    0    0  501 -0.00000000000E+00  0.00000000000E+00  0.50651257384E+02  0.50651257384E+02  0.00000000000E+00 0.  1.
          1   -1    0    0  501    0  0.00000000000E+00 -0.00000000000E+00 -0.14973552779E+04  0.14973552779E+04  0.00000000000E+00 0. -1.
         23    2    1    2    0    0 -0.11890815729E+03  0.20249575770E+03 -0.47829454762E+03  0.54731473632E+03  0.12507623499E+03 0.  0.
         23    2    1    2    0    0  0.11890815729E+03 -0.20249575770E+03 -0.96840947293E+03  0.10006917990E+04  0.91779559587E+02 0.  0.
          5    1    3    3  502    0 -0.21887435779E+02 -0.78135797139E+00 -0.45830158294E+01  0.22762838121E+02  0.41800000000E+01 0. -1.
         -5    1    3    3    0  502 -0.97020721512E+02  0.20327711567E+03 -0.47371153179E+03  0.52455189820E+03  0.41800000000E+01 0. -1.
        -11    1    4    4    0    0  0.51270606307E+02 -0.27765369036E+02 -0.14605886049E+03  0.15726659377E+03  0.00000000000E+00 0.  1.
         11    1    4    4    0    0  0.67637550984E+02 -0.17473038866E+03 -0.82235061244E+03  0.84342520522E+03  0.00000000000E+00 0. -1.
</event>
<event>
 8    1  0.8619230E-006  0.8636307E+02  0.7561462E-02  0.1311906E+00
          2   -1    0    0  501    0  0.00000000000E+00  0.00000000000E+00  0.18586534318E+02  0.18586534318E+02  0.00000000000E+00 0.  1.
         -2   -1    0    0    0  501 -0.00000000000E+00 -0.00000000000E+00 -0.10977174337E+04  0.10977174337E+04  0.00000000000E+00 0. -1.
         23    2    1    2    0    0  0.33042241468E+02  0.45164425520E+02 -0.87476323504E+03  0.88543177116E+03  0.12508832459E+03 0.  0.
         23    2    1    2    0    0 -0.33042241468E+02 -0.45164425520E+02 -0.20436766439E+03  0.23087219690E+03  0.91674500281E+02 0.  0.
          5    1    3    3  502    0  0.98547778854E+00  0.43093410954E+02 -0.82448287852E+03  0.82561946599E+03  0.41800000000E+01 0. -1.
         -5    1    3    3    0  502  0.32056763680E+02  0.20710145658E+01 -0.50280356516E+02  0.59812305175E+02  0.41800000000E+01 0. -1.
        -11    1    4    4    0    0 -0.25495442773E+02  0.19389829541E+02 -0.12097453886E+03  0.12514320654E+03  0.00000000000E+00 0. -1.
         11    1    4    4    0    0 -0.75467986957E+01 -0.64554255061E+02 -0.83393125530E+02  0.10572899036E+03  0.00000000000E+00 0.  1.
</event>
<event>
 8    1  0.8619230E-006  0.9352149E+02  0.7561462E-02  0.1294541E+00
         -2   -1    0    0    0  501 -0.00000000000E+00  0.00000000000E+00  0.50393852342E+03  0.50393852342E+03  0.00000000000E+00 0.  1.
          2   -1    0    0  501    0  0.00000000000E+00 -0.00000000000E+00 -0.33003513936E+02  0.33003513936E+02  0.00000000000E+00 0. -1.
         23    2    1    2    0    0  0.43200779963E+02  0.20365138199E+02  0.43046999448E+03  0.45081358980E+03  0.12508968924E+03 0.  0.
         23    2    1    2    0    0 -0.43200779963E+02 -0.20365138199E+02  0.40465014999E+02  0.86128447556E+02  0.59157804188E+02 0.  0.
          5    1    3    3  502    0 -0.32548797399E+02  0.11294764992E+02  0.40082827302E+02  0.53019820566E+02  0.41800000000E+01 0.  1.
         -5    1    3    3    0  502  0.75749577361E+02  0.90703732068E+01  0.39038716718E+03  0.39779376923E+03  0.41800000000E+01 0.  1.
        -11    1    4    4    0    0  0.27685464580E+00  0.17967436819E+02  0.77404753016E+01  0.19565796489E+02  0.00000000000E+00 0. -1.
         11    1    4    4    0    0 -0.43477634608E+02 -0.38332575018E+02  0.32724539697E+02  0.66562651067E+02  0.00000000000E+00 0.  1.
</event>
<event>
 8    1  0.8619230E-006  0.1052552E+03  0.7561462E-02  0.1269618E+00
         -2   -1    0    0    0  501 -0.00000000000E+00  0.00000000000E+00  0.26799775754E+02  0.26799775754E+02  0.00000000000E+00 0.  1.
          2   -1    0    0  501    0  0.00000000000E+00 -0.00000000000E+00 -0.67715841819E+03  0.67715841819E+03  0.00000000000E+00 0. -1.
         23    2    1    2    0    0 -0.33103548626E+02  0.65002094828E+02 -0.28330592459E+03  0.31816820911E+03  0.12509054767E+03 0.  0.
         23    2    1    2    0    0  0.33103548626E+02 -0.65002094828E+02 -0.36705271785E+03  0.38578998484E+03  0.93728850722E+02 0.  0.
          5    1    3    3  502    0 -0.64257872947E+02  0.26709767010E+02 -0.24726332501E+03  0.25690291977E+03  0.41800000000E+01 0. -1.
         -5    1    3    3    0  502  0.31154324321E+02  0.38292327818E+02 -0.36042599576E+02  0.61265289339E+02  0.41800000000E+01 0. -1.
        -11    1    4    4    0    0  0.78274746764E+01  0.96586340845E+01 -0.23321687527E+01  0.12649015111E+02  0.00000000000E+00 0.  1.
         11    1    4    4    0    0  0.25276073950E+02 -0.74660728912E+02 -0.36472054910E+03  0.37314096973E+03  0.00000000000E+00 0. -1.
</event>
<event>
 8    1  0.8619230E-006  0.1061976E+03  0.7561462E-02  0.1267778E+00
          1   -1    0    0  501    0  0.00000000000E+00  0.00000000000E+00  0.23585725218E+03  0.23585725218E+03  0.00000000000E+00 0. -1.
         -1   -1    0    0    0  501 -0.00000000000E+00 -0.00000000000E+00 -0.52828818512E+02  0.52828818512E+02  0.00000000000E+00 0.  1.
         23    2    1    2    0    0  0.33034809498E+02  0.36339523929E+02  0.88375688116E+02  0.16083884405E+03  0.12508801649E+03 0.  0.
         23    2    1    2    0    0 -0.33034809498E+02 -0.36339523929E+02  0.94652745555E+02  0.12784722664E+03  0.70525963168E+02 0.  0.
          5    1    3    3  502    0  0.81320917392E+01  0.80628491677E+02  0.68240163421E+02  0.10602488807E+03  0.41800000000E+01 0. -1.
         -5    1    3    3    0  502  0.24902717759E+02 -0.44288967748E+02  0.20135524694E+02  0.54813955984E+02  0.41800000000E+01 0. -1.
        -11    1    4    4    0    0 -0.41005193117E+02  0.20534739176E+01  0.25441896649E+02  0.48300442263E+02  0.00000000000E+00 0.  1.
         11    1    4    4    0    0  0.79703836184E+01 -0.38392997847E+02  0.69210848906E+02  0.79546784378E+02  0.00000000000E+00 0. -1.
</event>
<event>
 8    1  0.8619230E-006  0.9784220E+02  0.7561462E-02  0.1284900E+00
         -4   -1    0    0    0  501 -0.00000000000E+00  0.00000000000E+00  0.41840905260E+03  0.41840905260E+03  0.00000000000E+00 0.  1.
          4   -1    0    0  501    0  0.00000000000E+00 -0.00000000000E+00 -0.44196522236E+02  0.44196522236E+02  0.00000000000E+00 0. -1.
         23    2    1    2    0    0  0.49510734028E+02 -0.53400584646E+02  0.25181380037E+03  0.29044796985E+03  0.12508756098E+03 0.  0.
         23    2    1    2    0    0 -0.49510734028E+02  0.53400584646E+02  0.12239872999E+03  0.17215760498E+03  0.96715338101E+02 0.  0.
          5    1    3    3  502    0  0.48694766585E+02 -0.42973726246E+02  0.26513385055E+03  0.27300430866E+03  0.41800000000E+01 0. -1.
         -5    1    3    3    0  502  0.81596744240E+00 -0.10426858400E+02 -0.13320050180E+02  0.17443661192E+02  0.41800000000E+01 0. -1.
        -11    1    4    4    0    0 -0.74035761059E+02  0.17858770686E+02  0.91559232374E+02  0.11909375567E+03  0.00000000000E+00 0.  1.
         11    1    4    4    0    0  0.24525027031E+02  0.35541813960E+02  0.30839497616E+02  0.53063849311E+02  0.00000000000E+00 0. -1.
</event>
<event>
 8    1  0.8619230E-006  0.2086867E+03  0.7561462E-02  0.1142610E+00
         -1   -1    0    0    0  501 -0.00000000000E+00  0.00000000000E+00  0.33735648750E+03  0.33735648750E+03  0.00000000000E+00 0.  1.
          1   -1    0    0  501    0  0.00000000000E+00 -0.00000000000E+00 -0.16282139366E+03  0.16282139366E+03  0.00000000000E+00 0. -1.
         23    2    1    2    0    0 -0.82990373365E+02  0.17743795798E+03  0.16331982659E+03  0.28406139081E+03  0.12508348008E+03 0.  0.
         23    2    1    2    0    0  0.82990373365E+02 -0.17743795798E+03  0.11215267244E+02  0.21611649035E+03  0.90603113512E+02 0.  0.
          5    1    3    3  502    0  0.21956576934E+02  0.50256851849E+02  0.46662201319E+01  0.55200438755E+02  0.41800000000E+01 0.  1.
         -5    1    3    3    0  502 -0.10494695030E+03  0.12718110613E+03  0.15865360646E+03  0.22886095206E+03  0.41800000000E+01 0.  1.
        -11    1    4    4    0    0  0.67612250171E+02 -0.16242562651E+03  0.39773047255E+02  0.18037570736E+03  0.00000000000E+00 0.  1.
         11    1    4    4    0    0  0.15378123194E+02 -0.15012331474E+02 -0.28557780011E+02  0.35740782986E+02  0.00000000000E+00 0. -1.
</event>
<event>
 8    1  0.8619230E-006  0.1189452E+03  0.7561462E-02  0.1244847E+00
         -1   -1    0    0    0  501 -0.00000000000E+00  0.00000000000E+00  0.33678822970E+02  0.33678822970E+02  0.00000000000E+00 0.  1.
          1   -1    0    0  501    0  0.00000000000E+00 -0.00000000000E+00 -0.43431261378E+03  0.43431261378E+03  0.00000000000E+00 0. -1.
         23    2    1    2    0    0 -0.53812420393E+02  0.16156871419E+01 -0.21144664370E+03  0.25150764108E+03  0.12509205953E+03 0.  0.
         23    2    1    2    0    0  0.53812420393E+02 -0.16156871419E+01 -0.18918714711E+03  0.21648379566E+03  0.90416094367E+02 0.  0.
          5    1    3    3  502    0  0.33315419791E+02 -0.27095712568E+02 -0.83867574486E+02  0.94315095746E+02  0.41800000000E+01 0. -1.
         -5    1    3    3    0  502 -0.87127840184E+02  0.28711399710E+02 -0.12757906921E+03  0.15719254534E+03  0.41800000000E+01 0. -1.
        -11    1    4    4    0    0  0.78307596998E+02 -0.31365745565E+01 -0.12250157585E+03  0.14542542395E+03  0.00000000000E+00 0. -1.
         11    1    4    4    0    0 -0.24495176605E+02  0.15208874146E+01 -0.66685571260E+02  0.71058371708E+02  0.00000000000E+00 0.  1.
</event>
<event>
 8    1  0.8619230E-006  0.1164708E+03  0.7561462E-02  0.1249035E+00
         -2   -1    0    0    0  501 -0.00000000000E+00  0.00000000000E+00  0.19726512286E+03  0.19726512286E+03  0.00000000000E+00 0.  1.
          2   -1    0    0  501    0  0.00000000000E+00 -0.00000000000E+00 -0.10143506813E+03  0.10143506813E+03  0.00000000000E+00 0. -1.
         23    2    1    2    0    0  0.13302711553E+02 -0.73084101284E+02  0.10809181169E+03  0.18124510420E+03  0.12509076723E+03 0.  0.
         23    2    1    2    0    0 -0.13302711553E+02  0.73084101284E+02 -0.12261756961E+02  0.11745508679E+03  0.90150422814E+02 0.  0.
          5    1    3    3  502    0  0.27937510033E+02 -0.90166088612E+02  0.28890793012E+02  0.98805760577E+02  0.41800000000E+01 0.  1.
         -5    1    3    3    0  502 -0.14634798480E+02  0.17081987328E+02  0.79201018675E+02  0.82439343622E+02  0.41800000000E+01 0.  1.
        -11    1    4    4    0    0  0.36281170476E+02  0.47526677799E+02  0.21836159976E+01  0.59832070101E+02  0.00000000000E+00 0. -1.
         11    1    4    4    0    0 -0.49583882029E+02  0.25557423485E+02 -0.14445372959E+02  0.57623016688E+02  0.00000000000E+00 0.  1.
</event>
<event>
 8    1  0.8619230E-006  0.9877663E+02  0.7561462E-02  0.1282890E+00
          1   -1    0    0  501    0  0.00000000000E+00  0.00000000000E+00  0.34375827962E+03  0.34375827962E+03  0.00000000000E+00 0. -1.
         -1   -1    0    0    0  501 -0.00000000000E+00 -0.00000000000E+00 -0.67097893949E+02  0.67097893949E+02  0.00000000000E+00 0.  1.
         23    2    1    2    0    0 -0.93694031849E+02 -0.12657569835E+02  0.81885066778E+02  0.17690047244E+03  0.12509926982E+03 0.  0.
         23    2    1    2    0    0  0.93694031849E+02  0.12657569835E+02  0.19477531890E+03  0.23395570114E+03  0.88651337067E+02 0.  0.
          5    1    3    3  502    0 -0.59246661345E+02 -0.24590859943E+01 -0.24680430682E+02  0.64364664554E+02  0.41800000000E+01 0.  1.
         -5    1    3    3    0  502 -0.34447370504E+02 -0.10198483840E+02  0.10656549746E+03  0.11253580788E+03  0.41800000000E+01 0.  1.
        -11    1    4    4    0    0  0.37850726830E+02 -0.13616249134E+02  0.13448315500E+02  0.42413876878E+02  0.00000000000E+00 0.  1.
         11    1    4    4    0    0  0.55843305019E+02  0.26273818969E+02  0.18132700340E+03  0.19154182426E+03  0.00000000000E+00 0. -1.
</event>
<event>
 8    1  0.8619230E-006  0.1340357E+03  0.7561462E-02  0.1221587E+00
         -1   -1    0    0    0  501 -0.00000000000E+00  0.00000000000E+00  0.96033292802E+02  0.96033292802E+02  0.00000000000E+00 0.  1.
          1   -1    0    0  501    0  0.00000000000E+00 -0.00000000000E+00 -0.30784427036E+03  0.30784427036E+03  0.00000000000E+00 0. -1.
         23    2    1    2    0    0 -0.96843838548E+02  0.54412224204E+02 -0.24707532267E+02  0.16910724226E+03  0.12508948008E+03 0.  0.
         23    2    1    2    0    0  0.96843838548E+02 -0.54412224204E+02 -0.18710344529E+03  0.23477032090E+03  0.88147519123E+02 0.  0.
          5    1    3    3  502    0  0.78983171678E+01  0.16955826876E+02 -0.51210045532E+02  0.54679288972E+02  0.41800000000E+01 0. -1.
         -5    1    3    3    0  502 -0.10474215572E+03  0.37456397328E+02  0.26502513265E+02  0.11442795329E+03  0.41800000000E+01 0. -1.
        -11    1    4    4    0    0 -0.11047019897E+02  0.73513735760E+01 -0.40146332580E+02  0.42282471093E+02  0.00000000000E+00 0. -1.
         11    1    4    4    0    0  0.10789085844E+03 -0.61763597780E+02 -0.14695711271E+03  0.19248784980E+03  0.00000000000E+00 0.  1.
</event>
<event>
 8    1  0.1642707E-005  0.1974544E+03  0.7561462E-02  0.1151905E+00
          2   -1    0    0  501    0  0.00000000000E+00  0.00000000000E+00  0.10593483931E+04  0.10593483931E+04  0.00000000000E+00 0. -1.
         -2   -1    0    0    0  501 -0.00000000000E+00 -0.00000000000E+00 -0.44286577466E+02  0.44286577466E+02  0.00000000000E+00 0.  1.
         23    2    1    2    0    0 -0.63588772690E+01 -0.18651776163E+03  0.49318001802E+03  0.54194382072E+03  0.12508902398E+03 0.  0.
         23    2    1    2    0    0  0.63588772690E+01  0.18651776163E+03  0.52188179759E+03  0.56169114982E+03  0.91142890051E+02 0.  0.
          5    1    3    3  502    0 -0.93009742041E+01 -0.16972447663E+03  0.27679140802E+03  0.32484436588E+03  0.41800000000E+01 0.  1.
         -5    1    3    3    0  502  0.29420969351E+01 -0.16793284997E+02  0.21638861000E+03  0.21709945485E+03  0.41800000000E+01 0.  1.
        -11    1    4    4    0    0 -0.28022206956E+02  0.13833564265E+02  0.67324119156E+02  0.74223639113E+02  0.00000000000E+00 0.  1.
         11    1    4    4    0    0  0.34381084225E+02  0.17268419736E+03  0.45455767843E+03  0.48746751070E+03  0.00000000000E+00 0. -1.
</event>
<event>
 8    1  0.8619230E-006  0.1205033E+03  0.7561462E-02  0.1242269E+00
         -2   -1    0    0    0  501 -0.00000000000E+00  0.00000000000E+00  0.27766864629E+03  0.27766864629E+03  0.00000000000E+00 0. -1.
          2   -1    0    0  501    0  0.00000000000E+00 -0.00000000000E+00 -0.63391899221E+02  0.63391899221E+02  0.00000000000E+00 0.  1.
         23    2    1    2    0    0  0.46654673624E+02 -0.52076130166E+02  0.17104990094E+03  0.22313323468E+03  0.12506714158E+03 0.  0.
         23    2    1    2    0    0 -0.46654673624E+02  0.52076130166E+02  0.43226846124E+02  0.11792731083E+03  0.84555948989E+02 0.  0.
          5    1    3    3  502    0  0.79644617017E+02 -0.28031721071E+01  0.71306988442E+02  0.10702000651E+03  0.41800000000E+01 0.  1.
         -5    1    3    3    0  502 -0.32989943393E+02 -0.49272958059E+02  0.99742912502E+02  0.11611322817E+03  0.41800000000E+01 0.  1.
        -11    1    4    4    0    0 -0.34991762802E+01 -0.18612196062E+02  0.27869154663E+02  0.33694923334E+02  0.00000000000E+00 0. -1.
         11    1    4    4    0    0 -0.43155497344E+02  0.70688326229E+02  0.15357691461E+02  0.84232387494E+02  0.00000000000E+00 0.  1.
</event>
<event>
 8    1  0.8619230E-006  0.1816762E+03  0.7561462E-02  0.1166191E+00
          2   -1    0    0  501    0  0.00000000000E+00  0.00000000000E+00  0.20884241791E+02  0.20884241791E+02  0.00000000000E+00 0.  1.
         -2   -1    0    0    0  501 -0.00000000000E+00 -0.00000000000E+00 -0.17083346791E+04  0.17083346791E+04  0.00000000000E+00 0. -1.
         23    2    1    2    0    0 -0.73812426854E+02 -0.13368227202E+03 -0.96912502111E+03  0.98902446958E+03  0.12508745211E+03 0.  0.
         23    2    1    2    0    0  0.73812426854E+02  0.13368227202E+03 -0.71832541618E+03  0.74019445129E+03  0.92613163116E+02 0.  0.
          5    1    3    3  502    0 -0.73037402252E+01 -0.11706793753E+03 -0.43706356211E+03  0.45254864528E+03  0.41800000000E+01 0. -1.
         -5    1    3    3    0  502 -0.66508686629E+02 -0.16614334496E+02 -0.53206145900E+03  0.53647582430E+03  0.41800000000E+01 0. -1.
        -11    1    4    4    0    0  0.95074181886E+02  0.10586287050E+03 -0.60887601136E+03  0.62528077263E+03  0.00000000000E+00 0.  1.
         11    1    4    4    0    0 -0.21261755031E+02  0.27819401523E+02 -0.10944940482E+03  0.11491367866E+03  0.00000000000E+00 0. -1.
</event>
<event>
 6    1  0.8619230E-006  0.9016984E+02  0.7561462E-02  0.1302441E+00
          1   -1    0    0  501    0  0.00000000000E+00  0.00000000000E+00  0.44353438487E+03  0.44353438487E+03  0.00000000000E+00 0. -1.
         -1   -1    0    0    0  501 -0.00000000000E+00 -0.00000000000E+00 -0.24739790250E+03  0.24739790250E+03  0.00000000000E+00 0.  1.
          5    1    1    2  502    0  0.37080554669E+02  0.25111227727E+02  0.54088960391E+02  0.70346494786E+02  0.41800000000E+01 0. -1.
         -5    1    1    2    0  502 -0.76637054125E+00  0.13888079630E+02 -0.22021509721E+03  0.22069351490E+03  0.41800000000E+01 0.  1.
        -11    1    1    2    0    0 -0.64850092112E+02  0.85216040699E+01  0.48903281949E+02  0.81668128227E+02  0.00000000000E+00 0.  1.
         11    1    1    2    0    0  0.28535907984E+02 -0.47520911427E+02  0.31335933723E+03  0.31822414946E+03  0.00000000000E+00 0. -1.
</event>
<event>
 8    1  0.8619230E-006  0.1026649E+03  0.7561462E-02  0.1274790E+00
         -1   -1    0    0    0  501 -0.00000000000E+00  0.00000000000E+00  0.27982080694E+02  0.27982080694E+02  0.00000000000E+00 0.  1.
          1   -1    0    0  501    0  0.00000000000E+00 -0.00000000000E+00 -0.56287664573E+03  0.56287664573E+03  0.00000000000E+00 0. -1.
         23    2    1    2    0    0 -0.36973272535E+02 -0.44357423497E+02 -0.34684819289E+03  0.37321041993E+03  0.12509094582E+03 0.  0.
         23    2    1    2    0    0  0.36973272535E+02  0.44357423497E+02 -0.18804637215E+03  0.21764830650E+03  0.93138302243E+02 0.  0.
          5    1    3    3  502    0 -0.55546434823E+02 -0.92199420193E+00 -0.30473769050E+03  0.30978829691E+03  0.41800000000E+01 0. -1.
         -5    1    3    3    0  502  0.18573162288E+02 -0.43435429295E+02 -0.42110502397E+02  0.63422123014E+02  0.41800000000E+01 0. -1.
        -11    1    4    4    0    0  0.35922315228E+02 -0.17756685279E+02 -0.37890500493E+02  0.55148913235E+02  0.00000000000E+00 0.  1.
         11    1    4    4    0    0  0.10509573075E+01  0.62114108775E+02 -0.15015587165E+03  0.16249939327E+03  0.00000000000E+00 0. -1.
</event>
<event>
 8    1  0.8619230E-006  0.2226041E+03  0.7561462E-02  0.1131956E+00
         -1   -1    0    0    0  501 -0.00000000000E+00  0.00000000000E+00  0.44092390195E+02  0.44092390195E+02  0.00000000000E+00 0.  1.
          1   -1    0    0  501    0  0.00000000000E+00 -0.00000000000E+00 -0.12228155106E+04  0.12228155106E+04  0.00000000000E+00 0. -1.
         23    2    1    2    0    0  0.18429471858E+03  0.90531840531E+02 -0.58862861760E+03  0.63584013601E+03  0.12509385139E+03 0.  0.
         23    2    1    2    0    0 -0.18429471858E+03 -0.90531840531E+02 -0.59009450278E+03  0.63106776476E+03  0.88738064326E+02 0.  0.
          5    1    3    3  502    0  0.20120520809E+03  0.74229946008E+02 -0.55106408544E+03  0.59133976639E+03  0.41800000000E+01 0.  1.
         -5    1    3    3    0  502 -0.16910489506E+02  0.16301894523E+02 -0.37564532159E+02  0.44500369624E+02  0.41800000000E+01 0.  1.
        -11    1    4    4    0    0 -0.10317046028E+03 -0.36769727315E+02 -0.19001515050E+03  0.21932148582E+03  0.00000000000E+00 0.  1.
         11    1    4    4    0    0 -0.81124258302E+02 -0.53762113216E+02 -0.40007935228E+03  0.41174627895E+03  0.00000000000E+00 0. -1.
</event>
<event>
 8    1  0.8619230E-006  0.8480091E+02  0.7561462E-02  0.1315954E+00
          2   -1    0    0  501    0  0.00000000000E+00  0.00000000000E+00  0.34144608393E+03  0.34144608393E+03  0.00000000000E+00 0. -1.
         -2   -1    0    0    0  501 -0.00000000000E+00 -0.00000000000E+00 -0.49384919755E+02  0.49384919755E+02  0.00000000000E+00 0.  1.
         23    2    1    2    0    0 -0.14551237350E+02  0.48262296622E+02  0.72439975073E+02  0.15308768228E+03  0.12508917096E+03 0.  0.
         23    2    1    2    0    0  0.14551237350E+02 -0.48262296622E+02  0.21962118910E+03  0.23774332141E+03  0.75811822216E+02 0.  0.
          5    1    3    3  502    0 -0.49800772025E+02  0.73255720776E+01 -0.12779624978E+02  0.52101555784E+02  0.41800000000E+01 0. -1.
         -5    1    3    3    0  502  0.35249534675E+02  0.40936724544E+02  0.85219600050E+02  0.10098612649E+03  0.41800000000E+01 0. -1.
        -11    1    4    4    0    0 -0.12593917508E+02 -0.29020906998E+02  0.25063138214E+02  0.40360633027E+02  0.00000000000E+00 0.  1.
         11    1    4    4    0    0  0.27145154858E+02 -0.19241389623E+02  0.19455805089E+03  0.19738268838E+03  0.00000000000E+00 0. -1.
</event>
<event>
 8    1  0.8619230E-006  0.9816456E+02  0.7561462E-02  0.1284204E+00
         -2   -1    0    0    0  501 -0.00000000000E+00  0.00000000000E+00  0.39570379940E+02  0.39570379940E+02  0.00000000000E+00 0. -1.
          2   -1    0    0  501    0  0.00000000000E+00 -0.00000000000E+00 -0.31316552131E+03  0.31316552131E+03  0.00000000000E+00 0.  1.
         23    2    1    2    0    0  0.64931446550E+00 -0.54999849346E+01 -0.10867917097E+03  0.16579913990E+03  0.12509005215E+03 0.  0.
         23    2    1    2    0    0 -0.64931446550E+00  0.54999849346E+01 -0.16491597040E+03  0.18693676134E+03  0.87848756430E+02 0.  0.
          5    1    3    3  502    0 -0.55410122433E+02  0.94826419251E+00 -0.17095452560E+02  0.58145573961E+02  0.41800000000E+01 0.  1.
         -5    1    3    3    0  502  0.56059436899E+02 -0.64482491271E+01 -0.91583718411E+02  0.10765356594E+03  0.41800000000E+01 0.  1.
        -11    1    4    4    0    0 -0.30499294489E+02 -0.26503719622E+02 -0.10678292955E+03  0.11417201129E+03  0.00000000000E+00 0.  1.
         11    1    4    4    0    0  0.29849980023E+02  0.32003704557E+02 -0.58133040847E+02  0.72764750057E+02  0.00000000000E+00 0. -1.
</event>
<event>
 8    1  0.8619230E-006  0.6851795E+02  0.7561462E-02  0.1365207E+00
         -1   -1    0    0    0  501 -0.00000000000E+00  0.00000000000E+00  0.76663828238E+02  0.76663828238E+02  0.00000000000E+00 0.  1.
          1   -1    0    0  501    0  0.00000000000E+00 -0.00000000000E+00 -0.19948895659E+03  0.19948895659E+03  0.00000000000E+00 0. -1.
         23    2    1    2    0    0  0.40889812278E+02 -0.11249333027E+02 -0.24567861057E+02  0.13434936577E+03  0.12509055937E+03 0.  0.
         23    2    1    2    0    0 -0.40889812278E+02  0.11249333027E+02 -0.98257267299E+02  0.14180341906E+03  0.93033299625E+02 0.  0.
          5    1    3    3  502    0  0.22086545139E+02 -0.32374473395E+02 -0.70196560159E+02  0.80504356788E+02  0.41800000000E+01 0. -1.
         -5    1    3    3    0  502  0.18803267138E+02  0.21125140368E+02  0.45628699101E+02  0.53845008982E+02  0.41800000000E+01 0. -1.
        -11    1    4    4    0    0 -0.51675084939E+02 -0.22880650584E+01 -0.11047078945E+02  0.52892226257E+02  0.00000000000E+00 0.  1.
         11    1    4    4    0    0  0.10785272662E+02  0.13537398085E+02 -0.87210188354E+02  0.88911192806E+02  0.00000000000E+00 0. -1.
</event>
<event>
 8    1  0.8619230E-006  0.1281010E+03  0.7561462E-02  0.1230301E+00
         -2   -1    0    0    0  501 -0.00000000000E+00  0.00000000000E+00  0.13120680468E+03  0.13120680468E+03  0.00000000000E+00 0. -1.
          2   -1    0    0  501    0  0.00000000000E+00 -0.00000000000E+00 -0.16135217315E+03  0.16135217315E+03  0.00000000000E+00 0.  1.
         23    2    1    2    0    0  0.10743331787E+02  0.95967525636E+02 -0.20473253713E+02  0.15350231079E+03  0.11755262713E+03 0.  0.
         23    2    1    2    0    0 -0.10743331787E+02 -0.95967525636E+02 -0.96721147599E+01  0.13905666704E+03  0.99589264930E+02 0.  0.
          5    1    3    3  502    0  0.33897669842E+02  0.19099623507E+02  0.37649494332E+02  0.54302895524E+02  0.41800000000E+01 0. -1.
         -5    1    3    3    0  502 -0.23154338055E+02  0.76867902129E+02 -0.58122748045E+02  0.99199415265E+02  0.41800000000E+01 0.  1.
        -11    1    4    4    0    0 -0.24919350182E+02  0.12090581848E+02 -0.11666674314E+02  0.30054408537E+02  0.00000000000E+00 0.  1.
         11    1    4    4    0    0  0.14176018395E+02 -0.10805810748E+03  0.19945595541E+01  0.10900225850E+03  0.00000000000E+00 0. -1.
</event>
<event>
 8    1  0.8619230E-006  0.1906051E+03  0.7561462E-02  0.1157917E+00
          1   -1    0    0  501    0  0.00000000000E+00  0.00000000000E+00  0.72611606927E+02  0.72611606927E+02  0.00000000000E+00 0. -1.
         -1   -1    0    0    0  501 -0.00000000000E+00 -0.00000000000E+00 -0.55435337537E+03  0.55435337537E+03  0.00000000000E+00 0.  1.
         23    2    1    2    0    0 -0.83631876945E+02 -0.14116126581E+03 -0.30878905615E+03  0.37136823176E+03  0.12507153376E+03 0.  0.
         23    2    1    2    0    0  0.83631876945E+02  0.14116126581E+03 -0.17295271229E+03  0.25559675053E+03  0.92175183140E+02 0.  0.
          5    1    3    3  502    0 -0.77541169233E+02 -0.15733358544E+03 -0.30686770514E+03  0.35348514947E+03  0.41800000000E+01 0. -1.
         -5    1    3    3    0  502 -0.60907077115E+01  0.16172319631E+02 -0.19213510086E+01  0.17883082295E+02  0.41800000000E+01 0. -1.
        -11    1    4    4    0    0  0.52859643916E+02  0.14738874738E+03 -0.13934954718E+03  0.20960887650E+03  0.00000000000E+00 0.  1.
         11    1    4    4    0    0  0.30772233029E+02 -0.62274815689E+01 -0.33603165112E+02  0.45987874030E+02  0.00000000000E+00 0. -1.
</event>
<event>
 8    1  0.8619230E-006  0.1447345E+03  0.7561462E-02  0.1207097E+00
         -1   -1    0    0    0  501 -0.00000000000E+00  0.00000000000E+00  0.20183881476E+03  0.20183881476E+03  0.00000000000E+00 0.  1.
          1   -1    0    0  501    0  0.00000000000E+00 -0.00000000000E+00 -0.12095910831E+03  0.12095910831E+03  0.00000000000E+00 0. -1.
         23    2    1    2    0    0 -0.96303846307E+02 -0.37539510245E+02  0.88210387834E+02  0.18468987861E+03  0.12508250515E+03 0.  0.
         23    2    1    2    0    0  0.96303846307E+02  0.37539510245E+02 -0.73306813920E+01  0.13810804446E+03  0.91304147842E+02 0.  0.
          5    1    3    3  502    0 -0.79338985924E+02 -0.80703895424E+02  0.47389175871E+02  0.12276400048E+03  0.41800000000E+01 0. -1.
         -5    1    3    3    0  502 -0.16964860383E+02  0.43164385179E+02  0.40821211964E+02  0.61925878128E+02  0.41800000000E+01 0. -1.
        -11    1    4    4    0    0  0.56253264235E+02 -0.19865694470E+02 -0.26879316370E+02  0.65433731381E+02  0.00000000000E+00 0.  1.
         11    1    4    4    0    0  0.40050582072E+02  0.57405204715E+02  0.19548634978E+02  0.72674313084E+02  0.00000000000E+00 0. -1.
</event>
<event>
 8    1  0.8619230E-006  0.1084535E+03  0.7561462E-02  0.1263461E+00
         -2   -1    0    0    0  501 -0.00000000000E+00  0.00000000000E+00  0.71685113011E+02  0.71685113011E+02  0.00000000000E+00 0.  1.
          2   -1    0    0  501    0  0.00000000000E+00 -0.00000000000E+00 -0.23039713620E+03  0.23039713620E+03  0.00000000000E+00 0. -1.
         23    2    1    2    0    0  0.16858921135E+02  0.14871909251E+02 -0.98117288144E+02  0.16056138946E+03  0.12509021003E+03 0.  0.
         23    2    1    2    0    0 -0.16858921135E+02 -0.14871909251E+02 -0.60594735040E+02  0.14152085975E+03  0.12590089326E+03 0.  0.
          5    1    3    3  502    0  0.34395558101E+02  0.58657634020E+02 -0.89423636196E+02  0.11241811045E+03  0.41800000000E+01 0. -1.
         -5    1    3    3    0  502 -0.17536636966E+02 -0.43785724769E+02 -0.86936519485E+01  0.48143279010E+02  0.41800000000E+01 0. -1.
        -11    1    4    4    0    0 -0.76850568951E+01 -0.57405036893E+02 -0.75831322939E+02  0.95419012251E+02  0.00000000000E+00 0. -1.
         11    1    4    4    0    0 -0.91738642399E+01  0.42533127642E+02  0.15236587899E+02  0.46101847500E+02  0.00000000000E+00 0.  1.
</event>
<event>
 8    1  0.8619230E-006  0.8251972E+02  0.7561462E-02  0.1322049E+00
          2   -1    0    0  501    0  0.00000000000E+00  0.00000000000E+00  0.15464995731E+03  0.15464995731E+03  0.00000000000E+00 0. -1.
         -2   -1    0    0    0  501 -0.00000000000E+00 -0.00000000000E+00 -0.94500343511E+02  0.94500343511E+02  0.00000000000E+00 0.  1.
         23    2    1    2    0    0  0.10520702223E+02 -0.47752155413E+02  0.26378818877E+02  0.13688660117E+03  0.12510454017E+03 0.  0.
         23    2    1    2    0    0 -0.10520702223E+02  0.47752155413E+02  0.33770794926E+02  0.11226369966E+03  0.95245567609E+02 0.  0.
          5    1    3    3  502    0  0.46025070551E+02 -0.38703257739E+02 -0.31686237394E+02  0.68100949472E+02  0.41800000000E+01 0.  1.
         -5    1    3    3    0  502 -0.35504368327E+02 -0.90488976735E+01  0.58065056271E+02  0.68785651695E+02  0.41800000000E+01 0.  1.
        -11    1    4    4    0    0 -0.28933536993E+02  0.35353375721E+02 -0.23116005560E+02  0.51199223147E+02  0.00000000000E+00 0.  1.
         11    1    4    4    0    0  0.18412834769E+02  0.12398779691E+02  0.56886800485E+02  0.61064476511E+02  0.00000000000E+00 0. -1.
</event>
<event>
 8    1  0.8619230E-006  0.1390629E+03  0.7561462E-02  0.1214596E+00
          3   -1    0    0  501    0  0.00000000000E+00  0.00000000000E+00  0.89396620171E+03  0.89396620171E+03  0.00000000000E+00 0. -1.
         -3   -1    0    0    0  501 -0.00000000000E+00 -0.00000000000E+00 -0.30189764394E+02  0.30189764394E+02  0.00000000000E+00 0.  1.
         23    2    1    2    0    0  0.11668777929E+03 -0.36195861040E+02  0.42550425433E+03  0.46003026077E+03  0.12509113553E+03 0.  0.
         23    2    1    2    0    0 -0.11668777929E+03  0.36195861040E+02  0.43827218299E+03  0.46412570533E+03  0.91673255498E+02 0.  0.
          5    1    3    3  502    0  0.20252974242E+02  0.28487372006E+02  0.25436000975E+02  0.43430126353E+02  0.41800000000E+01 0. -1.
         -5    1    3    3    0  502  0.96434805045E+02 -0.64683233046E+02  0.40006825335E+03  0.41660013442E+03  0.41800000000E+01 0. -1.
        -11    1    4    4    0    0 -0.33203525844E+02 -0.50951589025E+01  0.28964527296E+02  0.44355141914E+02  0.00000000000E+00 0.  1.
         11    1    4    4    0    0 -0.83484253443E+02  0.41291019943E+02  0.40930765570E+03  0.41977056342E+03  0.00000000000E+00 0. -1.
</event>
<event>
 8    1  0.8619230E-006  0.1352928E+03  0.7561462E-02  0.1219807E+00
         -1   -1    0    0    0  501 -0.00000000000E+00  0.00000000000E+00  0.37055619709E+02  0.37055619709E+02  0.00000000000E+00 0.  1.
          1   -1    0    0  501    0  0.00000000000E+00 -0.00000000000E+00 -0.87189419919E+03  0.87189419919E+03  0.00000000000E+00 0. -1.
         23    2    1    2    0    0 -0.11986083319E+03 -0.20006964764E+02 -0.25608076511E+03  0.30983053207E+03  0.12510276725E+03 0.  0.
         23    2    1    2    0    0  0.11986083319E+03  0.20006964764E+02 -0.57875781437E+03  0.59911928683E+03  0.96002157160E+02 0.  0.
          5    1    3    3  502    0 -0.84816700906E+02 -0.21060331163E+02 -0.50050101435E+02  0.10079630626E+03  0.41800000000E+01 0.  1.
         -5    1    3    3    0  502 -0.35044132283E+02  0.10533663993E+01 -0.20603066368E+03  0.20903422582E+03  0.41800000000E+01 0.  1.
        -11    1    4    4    0    0  0.55277946851E+02 -0.32874005816E+02 -0.16636616529E+03  0.17836494224E+03  0.00000000000E+00 0.  1.
         11    1    4    4    0    0  0.64582886338E+02  0.52880970580E+02 -0.41239164908E+03  0.42075434459E+03  0.00000000000E+00 0. -1.
</event>
<event>
 8    1  0.8619230E-006  0.6820718E+02  0.7561462E-02  0.1366298E+00
         -1   -1    0    0    0  501 -0.00000000000E+00  0.00000000000E+00  0.53085445981E+03  0.53085445981E+03  0.00000000000E+00 0.  1.
          1   -1    0    0  501    0  0.00000000000E+00 -0.00000000000E+00 -0.25298049041E+02  0.25298049041E+02  0.00000000000E+00 0. -1.
         23    2    1    2    0    0 -0.19301706720E+02 -0.11770781127E+02  0.36992176696E+03  0.39115345408E+03  0.12509118193E+03 0.  0.
         23    2    1    2    0    0  0.19301706720E+02  0.11770781127E+02  0.13563464380E+03  0.16499905476E+03  0.91196624406E+02 0.  0.
          5    1    3    3  502    0 -0.46686909642E+02  0.19858741226E+02  0.61305017253E+02  0.79685724414E+02  0.41800000000E+01 0.  1.
         -5    1    3    3    0  502  0.27385202922E+02 -0.31629522354E+02  0.30861674971E+03  0.31146772967E+03  0.41800000000E+01 0.  1.
        -11    1    4    4    0    0  0.30051771996E+02  0.42703160365E+01  0.14547529185E+03  0.14860822702E+03  0.00000000000E+00 0.  1.
         11    1    4    4    0    0 -0.10750065276E+02  0.75004650910E+01 -0.98406480505E+01  0.16390827742E+02  0.00000000000E+00 0. -1.
</event>
<event>
 8    1  0.8619230E-006  0.1155086E+03  0.7561462E-02  0.1250696E+00
         -2   -1    0    0    0  501 -0.00000000000E+00  0.00000000000E+00  0.38756599335E+03  0.38756599335E+03  0.00000000000E+00 0.  1.
          2   -1    0    0  501    0  0.00000000000E+00 -0.00000000000E+00 -0.46872166260E+02  0.46872166260E+02  0.00000000000E+00 0. -1.
         23    2    1    2    0    0 -0.20766714548E+01 -0.41617833580E+02  0.29447713070E+03  0.32264592057E+03  0.12508897999E+03 0.  0.
         23    2    1    2    0    0  0.20766714548E+01  0.41617833580E+02  0.46216696389E+02  0.11179223905E+03  0.92871766699E+02 0.  0.
          5    1    3    3  502    0  0.61265122379E+02 -0.24251914253E+02  0.14963098259E+03  0.16354960690E+03  0.41800000000E+01 0. -1.
         -5    1    3    3    0  502 -0.63341793834E+02 -0.17365919327E+02  0.14484614811E+03  0.15909631367E+03  0.41800000000E+01 0. -1.
        -11    1    4    4    0    0  0.40029042024E+02 -0.35499323434E+01  0.31306606938E+02  0.50941435619E+02  0.00000000000E+00 0.  1.
         11    1    4    4    0    0 -0.37952370569E+02  0.45167765924E+02  0.14910089452E+02  0.60850803428E+02  0.00000000000E+00 0. -1.
</event>
<event>
 8    1  0.8619230E-006  0.1473012E+03  0.7561462E-02  0.1203829E+00
         -2   -1    0    0    0  501 -0.00000000000E+00  0.00000000000E+00  0.56178712381E+02  0.56178712381E+02  0.00000000000E+00 0.  1.
          2   -1    0    0  501    0  0.00000000000E+00 -0.00000000000E+00 -0.57481939244E+03  0.57481939244E+03  0.00000000000E+00 0. -1.
         23    2    1    2    0    0  0.14044947451E+03  0.34085707101E+01 -0.21521429988E+03  0.28476968695E+03  0.12263321935E+03 0.  0.
         23    2    1    2    0    0 -0.14044947451E+03 -0.34085707101E+01 -0.30342638018E+03  0.34622841788E+03  0.89826921975E+02 0.  0.
          5    1    3    3  502    0  0.83450193434E+02  0.19291604011E+02 -0.20803829818E+03  0.22501890294E+03  0.41800000000E+01 0. -1.
         -5    1    3    3    0  502  0.56999281073E+02 -0.15883033301E+02 -0.71760017016E+01  0.59750784012E+02  0.41800000000E+01 0.  1.
        -11    1    4    4    0    0 -0.13700569722E+03 -0.14638089992E+02 -0.30470836683E+03  0.33441295364E+03  0.00000000000E+00 0. -1.
         11    1    4    4    0    0 -0.34437772841E+01  0.11229519282E+02  0.12819866455E+01  0.11815464233E+02  0.00000000000E+00 0.  1.
</event>
<event>
 8    1  0.8619230E-006  0.1953690E+03  0.7561462E-02  0.1153706E+00
         -3   -1    0    0    0  501 -0.00000000000E+00  0.00000000000E+00  0.50825371699E+03  0.50825371699E+03  0.00000000000E+00 0.  1.
          3   -1    0    0  501    0  0.00000000000E+00 -0.00000000000E+00 -0.14745863130E+03  0.14745863130E+03  0.00000000000E+00 0. -1.
         23    2    1    2    0    0  0.11469679148E+02  0.16943801690E+03  0.40663852831E+03  0.45808615616E+03  0.12508892297E+03 0.  0.
         23    2    1    2    0    0 -0.11469679148E+02 -0.16943801690E+03 -0.45843442622E+02  0.19762619214E+03  0.90076053850E+02 0.  0.
          5    1    3    3  502    0  0.14966163185E+02  0.18464727533E+03  0.39958166441E+03  0.44045610594E+03  0.41800000000E+01 0.  1.
         -5    1    3    3    0  502 -0.34964840374E+01 -0.15209258431E+02  0.70568638980E+01  0.17630050219E+02  0.41800000000E+01 0.  1.
        -11    1    4    4    0    0 -0.41500548966E+02 -0.14420342228E+03 -0.21835291639E+02  0.15163674529E+03  0.00000000000E+00 0. -1.
         11    1    4    4    0    0  0.30030869818E+02 -0.25234594619E+02 -0.24008150982E+02  0.45989446846E+02  0.00000000000E+00 0.  1.
</event>
<event>
 8    1  0.8619230E-006  0.1098101E+03  0.7561462E-02  0.1260922E+00
          1   -1    0    0  501    0  0.00000000000E+00  0.00000000000E+00  0.88243625871E+02  0.88243625871E+02  0.00000000000E+00 0. -1.
         -1   -1    0    0    0  501 -0.00000000000E+00 -0.00000000000E+00 -0.18534156750E+03  0.18534156750E+03  0.00000000000E+00 0.  1.
         23    2    1    2    0    0 -0.60972740279E+02 -0.61884113108E+01 -0.80093887468E+02  0.16068030886E+03  0.12508860601E+03 0.  0.
         23    2    1    2    0    0  0.60972740279E+02  0.61884113108E+01 -0.17004054156E+02  0.11290488450E+03  0.93286674266E+02 0.  0.
          5    1    3    3  502    0 -0.46395396589E+02 -0.63301182604E+02 -0.57645550852E+02  0.97468222907E+02  0.41800000000E+01 0. -1.
         -5    1    3    3    0  502 -0.14577343690E+02  0.57112771294E+02 -0.22448336616E+02  0.63212085955E+02  0.41800000000E+01 0. -1.
        -11    1    4    4    0    0  0.36215818022E+02 -0.23580588443E+02  0.29550974807E+02  0.52353507413E+02  0.00000000000E+00 0. -1.
         11    1    4    4    0    0  0.24756922257E+02  0.29768999754E+02 -0.46555028963E+02  0.60551377092E+02  0.00000000000E+00 0.  1.
</event>
<event>
 8    1  0.8619230E-006  0.2404569E+03  0.7561462E-02  0.1119489E+00
          1   -1    0    0  501    0  0.00000000000E+00  0.00000000000E+00  0.42684513016E+02  0.42684513016E+02  0.00000000000E+00 0. -1.
         -1   -1    0    0    0  501 -0.00000000000E+00 -0.00000000000E+00 -0.15205845073E+04  0.15205845073E+04  0.00000000000E+00 0.  1.
         23    2    1    2    0    0 -0.19365771376E+03  0.12409427697E+03 -0.79960348390E+03  0.84137699595E+03  0.12508724226E+03 0.  0.
         23    2    1    2    0    0  0.19365771376E+03 -0.12409427697E+03 -0.67829651042E+03  0.72189202440E+03  0.90217732010E+02 0.  0.
          5    1    3    3  502    0 -0.46735176517E+02  0.83731483311E+02 -0.18822817405E+03  0.21128761423E+03  0.41800000000E+01 0.  1.
         -5    1    3    3    0  502 -0.14692253724E+03  0.40362793656E+02 -0.61137530985E+03  0.63008938172E+03  0.41800000000E+01 0.  1.
        -11    1    4    4    0    0  0.11525757070E+03 -0.93260387143E+02 -0.30394371489E+03  0.33817686088E+03  0.00000000000E+00 0. -1.
         11    1    4    4    0    0  0.78400143062E+02 -0.30833889824E+02 -0.37435279553E+03  0.38371516352E+03  0.00000000000E+00 0.  1.
</event>
<event>
 8    1  0.8619230E-006  0.2498115E+03  0.7561462E-02  0.1113424E+00
          1   -1    0    0  501    0  0.00000000000E+00  0.00000000000E+00  0.34061097449E+03  0.34061097449E+03  0.00000000000E+00 0. -1.
         -1   -1    0    0    0  501 -0.00000000000E+00 -0.00000000000E+00 -0.20987886134E+03  0.20987886134E+03  0.00000000000E+00 0.  1.
         23    2    1    2    0    0  0.21865816511E+03  0.10256976188E+03  0.31938720713E+02  0.27387420044E+03  0.12512012854E+03 0.  0.
         23    2    1    2    0    0 -0.21865816511E+03 -0.10256976188E+03  0.98793392433E+02  0.27661563539E+03  0.91783038368E+02 0.  0.
          5    1    3    3  502    0  0.96038014512E+02  0.77121114340E+02 -0.39774903392E+02  0.12950089516E+03  0.41800000000E+01 0. -1.
         -5    1    3    3    0  502  0.12262015060E+03  0.25448647536E+02  0.71713624105E+02  0.14437330528E+03  0.41800000000E+01 0. -1.
        -11    1    4    4    0    0 -0.93784841193E+02 -0.81888677718E+02  0.16383512117E+02  0.12557775060E+03  0.00000000000E+00 0.  1.
         11    1    4    4    0    0 -0.12487332392E+03 -0.20681084158E+02  0.82409880315E+02  0.15103788479E+03  0.00000000000E+00 0. -1.
</event>
<event>
 8    1  0.8619230E-006  0.9976330E+02  0.7561462E-02  0.1280794E+00
          4   -1    0    0  501    0  0.00000000000E+00  0.00000000000E+00  0.29418806951E+02  0.29418806951E+02  0.00000000000E+00 0. -1.
         -4   -1    0    0    0  501 -0.00000000000E+00 -0.00000000000E+00 -0.43243335026E+03  0.43243335026E+03  0.00000000000E+00 0.  1.
         23    2    1    2    0    0  0.21604452993E+01 -0.25765924394E+02 -0.25165846725E+03  0.28221307020E+03  0.12507470757E+03 0.  0.
         23    2    1    2    0    0 -0.21604452993E+01  0.25765924394E+02 -0.15135607607E+03  0.17963908701E+03  0.93236202390E+02 0.  0.
          5    1    3    3  502    0 -0.85609965569E+01  0.38210592119E+02 -0.18485444982E+03  0.18900259266E+03  0.41800000000E+01 0. -1.
         -5    1    3    3    0  502  0.10721441856E+02 -0.63976516512E+02 -0.66804017423E+02  0.93210477546E+02  0.41800000000E+01 0. -1.
        -11    1    4    4    0    0  0.44713393911E+02  0.12418989131E+02 -0.90207805997E+02  0.10144440423E+03  0.00000000000E+00 0.  1.
         11    1    4    4    0    0 -0.46873839211E+02  0.13346935262E+02 -0.61148270068E+02  0.78194682783E+02  0.00000000000E+00 0. -1.
</event>
<event>
 8    1  0.8619230E-006  0.1071002E+03  0.7561462E-02  0.1266036E+00
         -1   -1    0    0    0  501 -0.00000000000E+00  0.00000000000E+00  0.25928192247E+03  0.25928192247E+03  0.00000000000E+00 0.  1.
          1   -1    0    0  501    0  0.00000000000E+00 -0.00000000000E+00 -0.92185942468E+02  0.92185942468E+02  0.00000000000E+00 0. -1.
         23    2    1    2    0    0 -0.69781171804E+02  0.71997424825E+02  0.14021092273E+03  0.21297580290E+03  0.12508616490E+03 0.  0.
         23    2    1    2    0    0  0.69781171804E+02 -0.71997424825E+02  0.26885057280E+02  0.13849206204E+03  0.91674444768E+02 0.  0.
          5    1    3    3  502    0 -0.61617534201E+02  0.26014185721E+02  0.20179901461E+01  0.67044784017E+02  0.41800000000E+01 0. -1.
         -5    1    3    3    0  502 -0.81636376037E+01  0.45983239104E+02  0.13819293258E+03  0.14593101888E+03  0.41800000000E+01 0. -1.
        -11    1    4    4    0    0  0.44051132508E+02 -0.43675847348E+02  0.61166521075E+02  0.87117307219E+02  0.00000000000E+00 0.  1.
         11    1    4    4    0    0  0.25730039296E+02 -0.28321577477E+02 -0.34281463795E+02  0.51374754821E+02  0.00000000000E+00 0. -1.
</event>
<event>
 8    1  0.8619230E-006  0.1152171E+03  0.7561462E-02  0.1251203E+00
          1   -1    0    0  501    0  0.00000000000E+00  0.00000000000E+00  0.75003824107E+03  0.75003824107E+03  0.00000000000E+00 0. -1.
         -1   -1    0    0    0  501 -0.00000000000E+00 -0.00000000000E+00 -0.19420027590E+02  0.19420027590E+02  0.00000000000E+00 0.  1.
         23    2    1    2    0    0  0.22166225627E+02 -0.35082621565E+02  0.30731349758E+03  0.33438222922E+03  0.12509099701E+03 0.  0.
         23    2    1    2    0    0 -0.22166225627E+02  0.35082621565E+02  0.42330471590E+03  0.43507603943E+03  0.91554058863E+02 0.  0.
          5    1    3    3  502    0  0.55493794964E+02 -0.65841927610E+02  0.20496368722E+03  0.22235625961E+03  0.41800000000E+01 0. -1.
         -5    1    3    3    0  502 -0.33327569337E+02  0.30759306045E+02  0.10234981036E+03  0.11202596961E+03  0.41800000000E+01 0. -1.
        -11    1    4    4    0    0 -0.34501585753E+01  0.64076415800E+02  0.23336128980E+03  0.24202310269E+03  0.00000000000E+00 0.  1.
         11    1    4    4    0    0 -0.18716067052E+02 -0.28993794235E+02  0.18994342609E+03  0.19305293675E+03  0.00000000000E+00 0. -1.
</event>
<event>
 8    1  0.8619230E-006  0.5853447E+02  0.7561462E-02  0.1404087E+00
         -2   -1    0    0    0  501 -0.00000000000E+00  0.00000000000E+00  0.11797993579E+03  0.11797993579E+03  0.00000000000E+00 0.  1.
          2   -1    0    0  501    0  0.00000000000E+00 -0.00000000000E+00 -0.31198649828E+03  0.31198649828E+03  0.00000000000E+00 0. -1.
         23    2    1    2    0    0 -0.12105037415E+02  0.10866961734E+02  0.74789239342E+02  0.14610025070E+03  0.12444770044E+03 0.  0.
         23    2    1    2    0    0  0.12105037415E+02 -0.10866961734E+02 -0.26879580183E+03  0.28386618337E+03  0.89800914222E+02 0.  0.
          5    1    3    3  502    0 -0.12313059984E+02 -0.24994486445E+01 -0.33961358805E+02  0.36451405756E+02  0.41800000000E+01 0. -1.
         -5    1    3    3    0  502  0.20802256935E+00  0.13366410379E+02  0.10875059815E+03  0.10964884494E+03  0.41800000000E+01 0.  1.
        -11    1    4    4    0    0 -0.36190443484E+02 -0.18954085627E+02 -0.97613416159E+02  0.10581769500E+03  0.00000000000E+00 0.  1.
         11    1    4    4    0    0  0.48295480898E+02  0.80871238926E+01 -0.17118238567E+03  0.17804848837E+03  0.00000000000E+00 0. -1.
</event>
<event>
 8    1  0.8619230E-006  0.8952633E+02  0.7561462E-02  0.1304003E+00
         -1   -1    0    0    0  501 -0.00000000000E+00  0.00000000000E+00  0.39528200358E+03  0.39528200358E+03  0.00000000000E+00 0.  1.
          1   -1    0    0  501    0  0.00000000000E+00 -0.00000000000E+00 -0.77740284805E+02  0.77740284805E+02  0.00000000000E+00 0. -1.
         23    2    1    2    0    0  0.60657216855E+02  0.51040947203E+02  0.31812988710E+03  0.35091203490E+03  0.12509258542E+03 0.  0.
         23    2    1    2    0    0 -0.60657216855E+02 -0.51040947203E+02 -0.58816832240E+00  0.12211025348E+03  0.92876756060E+02 0.  0.
          5    1    3    3  502    0  0.62228374379E+02  0.40530546023E+02  0.32768576919E+03  0.33602162351E+03  0.41800000000E+01 0.  1.
         -5    1    3    3    0  502 -0.15711575241E+01  0.10510401180E+02 -0.95558820887E+01  0.14890411392E+02  0.41800000000E+01 0.  1.
        -11    1    4    4    0    0 -0.36745570185E+02  0.15614341904E+00 -0.39155306519E+02  0.53697293578E+02  0.00000000000E+00 0.  1.
         11    1    4    4    0    0 -0.23911646670E+02 -0.51197090622E+02  0.38567138196E+02  0.68412959907E+02  0.00000000000E+00 0. -1.
</event>
<event>
 8    1  0.8619230E-006  0.1029326E+03  0.7561462E-02  0.1274247E+00
          3   -1    0    0  501    0  0.00000000000E+00  0.00000000000E+00  0.87357055431E+03  0.87357055431E+03  0.00000000000E+00 0. -1.
         -3   -1    0    0    0  501 -0.00000000000E+00 -0.00000000000E+00 -0.15068092429E+02  0.15068092429E+02  0.00000000000E+00 0.  1.
         23    2    1    2    0    0  0.23269479110E+02 -0.65719737442E+01  0.35452606672E+03  0.37672399954E+03  0.12509028879E+03 0.  0.
         23    2    1    2    0    0 -0.23269479110E+02  0.65719737442E+01  0.50397639516E+03  0.51191464720E+03  0.86485488015E+02 0.  0.
          5    1    3    3  502    0 -0.14485743805E+02 -0.53559831996E+02  0.24884267755E+03  0.25498753488E+03  0.41800000000E+01 0.  1.
         -5    1    3    3    0  502  0.37755222915E+02  0.46987858252E+02  0.10568338917E+03  0.12173646466E+03  0.41800000000E+01 0.  1.
        -11    1    4    4    0    0 -0.24695284672E+02  0.45008884694E+02  0.28819931867E+03  0.29273623634E+03  0.00000000000E+00 0. -1.
         11    1    4    4    0    0  0.14258055625E+01 -0.38436910950E+02  0.21577707650E+03  0.21917841086E+03  0.00000000000E+00 0.  1.
</event>
<event>
 8    1  0.8619230E-006  0.1108294E+03  0.7561462E-02  0.1259042E+00
          4   -1    0    0  501    0  0.00000000000E+00  0.00000000000E+00  0.47620418509E+03  0.47620418509E+03  0.00000000000E+00 0. -1.
         -4   -1    0    0    0  501 -0.00000000000E+00 -0.00000000000E+00 -0.47899904490E+02  0.47899904490E+02  0.00000000000E+00 0.  1.
         23    2    1    2    0    0  0.93105460666E+02 -0.26997247059E+02  0.16202493435E+03  0.22648852760E+03  0.12508995014E+03 0.  0.
         23    2    1    2    0    0 -0.93105460666E+02  0.26997247059E+02  0.26627934624E+03  0.29761556198E+03  0.90955232620E+02 0.  0.
          5    1    3    3  502    0  0.50126060249E+02 -0.33822829682E+02  0.20515038194E+01  0.60648881208E+02  0.41800000000E+01 0. -1.
         -5    1    3    3    0  502  0.42979400417E+02  0.68255826230E+01  0.15997343054E+03  0.16583964639E+03  0.41800000000E+01 0. -1.
        -11    1    4    4    0    0 -0.80179467567E+02  0.47422990848E+02  0.13432360702E+03  0.16346411986E+03  0.00000000000E+00 0.  1.
         11    1    4    4    0    0 -0.12925993099E+02 -0.20425743789E+02  0.13195573923E+03  0.13415144211E+03  0.00000000000E+00 0. -1.
</event>
<event>
 8    1  0.8619230E-006  0.1199130E+03  0.7561462E-02  0.1243241E+00
          2   -1    0    0  501    0  0.00000000000E+00  0.00000000000E+00  0.45788976460E+02  0.45788976460E+02  0.00000000000E+00 0. -1.
         -2   -1    0    0    0  501 -0.00000000000E+00 -0.00000000000E+00 -0.43898242277E+03  0.43898242277E+03  0.00000000000E+00 0.  1.
         23    2    1    2    0    0  0.66398711781E+02  0.17970863299E+02 -0.31620847109E+03  0.34697619298E+03  0.12519161493E+03 0.  0.
         23    2    1    2    0    0 -0.66398711781E+02 -0.17970863299E+02 -0.76984975216E+02  0.13779520625E+03  0.91263857047E+02 0.  0.
          5    1    3    3  502    0 -0.34200998036E+02  0.90673312155E+01 -0.13348788170E+03  0.13816081833E+03  0.41800000000E+01 0.  1.
         -5    1    3    3    0  502  0.10059970982E+03  0.89035320833E+01 -0.18272058939E+03  0.20881537464E+03  0.41800000000E+01 0.  1.
        -11    1    4    4    0    0 -0.65138086959E+02  0.17640433288E+02 -0.19646228718E+02  0.70286055246E+02  0.00000000000E+00 0.  1.
         11    1    4    4    0    0 -0.12606248221E+01 -0.35611296587E+02 -0.57338746498E+02  0.67509151006E+02  0.00000000000E+00 0. -1.
</event>
<event>
 8    1  0.8619230E-006  0.1291076E+03  0.7561462E-02  0.1228786E+00
          1   -1    0    0  501    0  0.00000000000E+00  0.00000000000E+00  0.44660260016E+02  0.44660260016E+02  0.00000000000E+00 0. -1.
         -1   -1    0    0    0  501 -0.00000000000E+00 -0.00000000000E+00 -0.42408593868E+03  0.42408593868E+03  0.00000000000E+00 0.  1.
         23    2    1    2    0    0 -0.59955189129E+02  0.29064031328E+02 -0.28044876013E+03  0.31422672651E+03  0.12509031129E+03 0.  0.
         23    2    1    2    0    0  0.59955189129E+02 -0.29064031328E+02 -0.98976918537E+02  0.15451947218E+03  0.98186018654E+02 0.  0.
          5    1    3    3  502    0  0.31636145614E+02  0.37344243729E+02 -0.84761344123E+02  0.97966300872E+02  0.41800000000E+01 0.  1.
         -5    1    3    3    0  502 -0.91591334742E+02 -0.82802124012E+01 -0.19568741600E+03  0.21626042564E+03  0.41800000000E+01 0.  1.
        -11    1    4    4    0    0  0.58526232334E+02 -0.61307943956E+02 -0.59650907424E+02  0.10364465553E+03  0.00000000000E+00 0.  1.
         11    1    4    4    0    0  0.14289567943E+01  0.32243912628E+02 -0.39326011113E+02  0.50874816650E+02  0.00000000000E+00 0. -1.
</event>
<event>
 8    1  0.8619230E-006  0.1918735E+03  0.7561462E-02  0.1156782E+00
         -2   -1    0    0    0  501 -0.00000000000E+00  0.00000000000E+00  0.23710462981E+02  0.23710462981E+02  0.00000000000E+00 0.  1.
          2   -1    0    0  501    0  0.00000000000E+00 -0.00000000000E+00 -0.18050812174E+04  0.18050812174E+04  0.00000000000E+00 0. -1.
         23    2    1    2    0    0 -0.17173539470E+03  0.97950797185E+01 -0.12272408085E+04  0.12455345547E+04  0.12508931031E+03 0.  0.
         23    2    1    2    0    0  0.17173539470E+03 -0.97950797185E+01 -0.55412994594E+03  0.58325712569E+03  0.59496960403E+02 0.  0.
          5    1    3    3  502    0 -0.17439656183E+03 -0.16870263976E+02 -0.88288384979E+03  0.90011117713E+03  0.41800000000E+01 0.  1.
         -5    1    3    3    0  502  0.26611671245E+01  0.26665343694E+02 -0.34435695867E+03  0.34542337754E+03  0.41800000000E+01 0.  1.
        -11    1    4    4    0    0  0.86210512222E+02  0.23867462184E+02 -0.29793608906E+03  0.31107526635E+03  0.00000000000E+00 0. -1.
         11    1    4    4    0    0  0.85524882483E+02 -0.33662541903E+02 -0.25619385687E+03  0.27218185934E+03  0.00000000000E+00 0.  1.
</event>
<event>
 8    1  0.8619230E-006  0.2067339E+03  0.7561462E-02  0.1144179E+00
         -2   -1    0    0    0  501 -0.00000000000E+00  0.00000000000E+00  0.39288533058E+03  0.39288533058E+03  0.00000000000E+00 0.  1.
          2   -1    0    0  501    0  0.00000000000E+00 -0.00000000000E+00 -0.15824934444E+03  0.15824934444E+03  0.00000000000E+00 0. -1.
         23    2    1    2    0    0  0.18195205718E+03  0.85475483082E+01  0.26503293787E+03  0.34506370669E+03  0.12508753666E+03 0.  0.
         23    2    1    2    0    0 -0.18195205718E+03 -0.85475483082E+01 -0.30396951727E+02  0.20607096832E+03  0.91442099806E+02 0.  0.
          5    1    3    3  502    0  0.19165619853E+03  0.29638857378E+02  0.21393943996E+03  0.28878732083E+03  0.41800000000E+01 0.  1.
         -5    1    3    3    0  502 -0.97041413458E+01 -0.21091309070E+02  0.51093497910E+02  0.56276385867E+02  0.41800000000E+01 0.  1.
        -11    1    4    4    0    0 -0.53991734528E+02  0.30629789226E+02 -0.36676448109E+02  0.72100299800E+02  0.00000000000E+00 0.  1.
         11    1    4    4    0    0 -0.12796032265E+03 -0.39177337534E+02  0.62794963825E+01  0.13397066852E+03  0.00000000000E+00 0. -1.
</event>
<event>
 8    1  0.8619230E-006  0.1134465E+03  0.7561462E-02  0.1254317E+00
         -3   -1    0    0    0  501 -0.00000000000E+00  0.00000000000E+00  0.49960153445E+02  0.49960153445E+02  0.00000000000E+00 0.  1.
          3   -1    0    0  501    0  0.00000000000E+00 -0.00000000000E+00 -0.30880780650E+03  0.30880780650E+03  0.00000000000E+00 0. -1.
         23    2    1    2    0    0 -0.56223516787E+02 -0.14644640132E+02 -0.12461674769E+03  0.18588351181E+03  0.12509115409E+03 0.  0.
         23    2    1    2    0    0  0.56223516787E+02  0.14644640132E+02 -0.13423090536E+03  0.17288444814E+03  0.92171292322E+02 0.  0.
          5    1    3    3  502    0  0.17748157075E+02  0.39204334067E+02 -0.59295190415E+02  0.73385072702E+02  0.41800000000E+01 0. -1.
         -5    1    3    3    0  502 -0.73971673862E+02 -0.53848974199E+02 -0.65321557279E+02  0.11249843911E+03  0.41800000000E+01 0. -1.
        -11    1    4    4    0    0  0.81983188966E+01 -0.27174017095E+02 -0.50072806703E+01  0.28822083504E+02  0.00000000000E+00 0.  1.
         11    1    4    4    0    0  0.48025197890E+02  0.41818657227E+02 -0.12922362469E+03  0.14406236463E+03  0.00000000000E+00 0. -1.
</event>
<event>
 8    1  0.8619230E-006  0.9702058E+02  0.7561462E-02  0.1286689E+00
         -4   -1    0    0    0  501 -0.00000000000E+00  0.00000000000E+00  0.31830501558E+03  0.31830501558E+03  0.00000000000E+00 0.  1.
          4   -1    0    0  501    0  0.00000000000E+00 -0.00000000000E+00 -0.38245110923E+02  0.38245110923E+02  0.00000000000E+00 0. -1.
         23    2    1    2    0    0 -0.61942819783E+01 -0.16736862730E+01  0.19598996819E+03  0.23252702611E+03  0.12496231385E+03 0.  0.
         23    2    1    2    0    0  0.61942819783E+01  0.16736862730E+01  0.84069936462E+02  0.12402310040E+03  0.90954960614E+02 0.  0.
          5    1    3    3  502    0  0.31327968091E+02  0.37371636542E+02  0.16013113041E+03  0.16744411644E+03  0.41800000000E+01 0. -1.
         -5    1    3    3    0  502 -0.37522250069E+02 -0.39045322815E+02  0.35858837783E+02  0.65082909670E+02  0.41800000000E+01 0. -1.
        -11    1    4    4    0    0  0.71443077054E+01 -0.44263584960E+02  0.47308570044E+02  0.65179804278E+02  0.00000000000E+00 0.  1.
         11    1    4    4    0    0 -0.95002572709E+00  0.45937271233E+02  0.36761366418E+02  0.58843296119E+02  0.00000000000E+00 0. -1.
</event>
<event>
 8    1  0.8619230E-006  0.7596139E+02  0.7561462E-02  0.1340920E+00
          1   -1    0    0  501    0  0.00000000000E+00  0.00000000000E+00  0.42295998735E+03  0.42295998735E+03  0.00000000000E+00 0. -1.
         -1   -1    0    0    0  501 -0.00000000000E+00 -0.00000000000E+00 -0.35197290239E+02  0.35197290239E+02  0.00000000000E+00 0.  1.
         23    2    1    2    0    0 -0.15270994928E+02 -0.50027381994E+02  0.16173733265E+03  0.21104789068E+03  0.12508519158E+03 0.  0.
         23    2    1    2    0    0  0.15270994928E+02  0.50027381994E+02  0.22602536446E+03  0.24710938691E+03  0.85086082791E+02 0.  0.
          5    1    3    3  502    0 -0.40732869073E+02 -0.32657435682E+02  0.65604800908E+01  0.52784344528E+02  0.41800000000E+01 0. -1.
         -5    1    3    3    0  502  0.25461874146E+02 -0.17369946312E+02  0.15517685256E+03  0.15826354615E+03  0.41800000000E+01 0. -1.
        -11    1    4    4    0    0 -0.12616946179E+02  0.18161434621E+01 -0.15287325590E+01  0.12838330546E+02  0.00000000000E+00 0.  1.
         11    1    4    4    0    0  0.27887941107E+02  0.48211238532E+02  0.22755409702E+03  0.23427105637E+03  0.00000000000E+00 0. -1.
</event>
<event>
 8    1  0.8619230E-006  0.1667845E+03  0.7561462E-02  0.1181243E+00
          2   -1    0    0  501    0  0.00000000000E+00  0.00000000000E+00  0.80716647488E+03  0.80716647488E+03  0.00000000000E+00 0. -1.
         -2   -1    0    0    0  501 -0.00000000000E+00 -0.00000000000E+00 -0.35426505314E+02  0.35426505314E+02  0.00000000000E+00 0.  1.
         23    2    1    2    0    0 -0.10774821013E+03  0.71631582228E+02  0.47705427708E+03  0.50987278678E+03  0.12509482425E+03 0.  0.
         23    2    1    2    0    0  0.10774821013E+03 -0.71631582228E+02  0.29468569249E+03  0.33272019342E+03  0.84393775810E+02 0.  0.
          5    1    3    3  502    0  0.27958292352E+02  0.14970277938E+02  0.67504040835E+02  0.74699687160E+02  0.41800000000E+01 0.  1.
         -5    1    3    3    0  502 -0.13570650248E+03  0.56661304290E+02  0.40955023625E+03  0.43517309961E+03  0.41800000000E+01 0.  1.
        -11    1    4    4    0    0  0.14549863368E+02 -0.58571862265E+02  0.11747466629E+03  0.13207065834E+03  0.00000000000E+00 0. -1.
         11    1    4    4    0    0  0.93198346761E+02 -0.13059719963E+02  0.17721102619E+03  0.20064953508E+03  0.00000000000E+00 0.  1.
</event>
<event>
 8    1  0.8619230E-006  0.9393378E+02  0.7561462E-02  0.1293596E+00
         -1   -1    0    0    0  501 -0.00000000000E+00  0.00000000000E+00  0.24523159272E+02  0.24523159272E+02  0.00000000000E+00 0.  1.
          1   -1    0    0  501    0  0.00000000000E+00 -0.00000000000E+00 -0.54562425197E+03  0.54562425197E+03  0.00000000000E+00 0. -1.
         23    2    1    2    0    0 -0.28685856355E+02  0.35756317436E+02 -0.28968978569E+03  0.31885591293E+03  0.12509008229E+03 0.  0.
         23    2    1    2    0    0  0.28685856355E+02 -0.35756317436E+02 -0.23141130701E+03  0.25129149831E+03  0.86572694999E+02 0.  0.
          5    1    3    3  502    0 -0.44658396454E+02  0.50716589152E+02 -0.67683351386E+02  0.95734284579E+02  0.41800000000E+01 0.  1.
         -5    1    3    3    0  502  0.15972540100E+02 -0.14960271716E+02 -0.22200643430E+03  0.22312162835E+03  0.41800000000E+01 0.  1.
        -11    1    4    4    0    0  0.59690293647E+02 -0.19011303590E+02 -0.14323135253E+03  0.15633163841E+03  0.00000000000E+00 0. -1.
         11    1    4    4    0    0 -0.31004437292E+02 -0.16745013846E+02 -0.88179954476E+02  0.94959859898E+02  0.00000000000E+00 0.  1.
</event>
<event>
 8    1  0.8619230E-006  0.1217985E+03  0.7561462E-02  0.1240159E+00
          1   -1    0    0  501    0  0.00000000000E+00  0.00000000000E+00  0.63344648042E+02  0.63344648042E+02  0.00000000000E+00 0. -1.
         -1   -1    0    0    0  501 -0.00000000000E+00 -0.00000000000E+00 -0.25919774898E+03  0.25919774898E+03  0.00000000000E+00 0.  1.
         23    2    1    2    0    0  0.38606533998E+02 -0.66804780264E+02 -0.10771505772E+03  0.17405636193E+03  0.11287045820E+03 0.  0.
         23    2    1    2    0    0 -0.38606533998E+02  0.66804780264E+02 -0.88138043218E+02  0.14848603509E+03  0.91249355186E+02 0.  0.
          5    1    3    3  502    0  0.20256666962E+02 -0.91513626972E+02 -0.10791320445E+03  0.14299583411E+03  0.41800000000E+01 0. -1.
         -5    1    3    3    0  502  0.18349867035E+02  0.24708846708E+02  0.19814673808E+00  0.31060527812E+02  0.41800000000E+01 0.  1.
        -11    1    4    4    0    0  0.28787645130E+02  0.31355848218E+02 -0.23623073140E+02  0.48682310075E+02  0.00000000000E+00 0. -1.
         11    1    4    4    0    0 -0.67394179127E+02  0.35448932046E+02 -0.64514970078E+02  0.99803725019E+02  0.00000000000E+00 0.  1.
</event>
<event>
 8    1  0.8619230E-006  0.2973339E+03  0.7561462E-02  0.1086581E+00
          2   -1    0    0  501    0  0.00000000000E+00  0.00000000000E+00  0.11050351264E+04  0.11050351264E+04  0.00000000000E+00 0. -1.
         -2   -1    0    0    0  501 -0.00000000000E+00 -0.00000000000E+00 -0.85328271219E+02  0.85328271219E+02  0.00000000000E+00 0.  1.
         23    2    1    2    0    0 -0.13789027071E+03 -0.24582888352E+03  0.62359884913E+03  0.69567896054E+03  0.12509246489E+03 0.  0.
         23    2    1    2    0    0  0.13789027071E+03  0.24582888352E+03  0.39610800608E+03  0.49468443710E+03  0.91463506971E+02 0.  0.
          5    1    3    3  502    0 -0.11565934033E+02  0.14478788162E+02  0.37457895509E+02  0.41999672293E+02  0.41800000000E+01 0.  1.
         -5    1    3    3    0  502 -0.12632433668E+03 -0.26030767168E+03  0.58614095362E+03  0.65367928825E+03  0.41800000000E+01 0.  1.
        -11    1    4    4    0    0  0.48742232464E+02  0.44018868932E+02  0.15238653170E+03  0.16593709980E+03  0.00000000000E+00 0. -1.
         11    1    4    4    0    0  0.89148038247E+02  0.20181001458E+03  0.24372147437E+03  0.32874733730E+03  0.00000000000E+00 0.  1.
</event>
<event>
 8    1  0.8619230E-006  0.1578493E+03  0.7561462E-02  0.1191147E+00
         -2   -1    0    0    0  501 -0.00000000000E+00  0.00000000000E+00  0.12405593683E+03  0.12405593683E+03  0.00000000000E+00 0.  1.
          2   -1    0    0  501    0  0.00000000000E+00 -0.00000000000E+00 -0.23013738896E+03  0.23013738896E+03  0.00000000000E+00 0. -1.
         23    2    1    2    0    0  0.11618979592E+03  0.15353893471E+02 -0.11532508691E+03  0.20659737093E+03  0.12508711878E+03 0.  0.
         23    2    1    2    0    0 -0.11618979592E+03 -0.15353893471E+02  0.92436347792E+01  0.14759595486E+03  0.89237382220E+02 0.  0.
          5    1    3    3  502    0 -0.19032114127E+02 -0.22252303135E+02 -0.30805835210E+02  0.42706653416E+02  0.41800000000E+01 0.  1.
         -5    1    3    3    0  502  0.13522191005E+03  0.37606196606E+02 -0.84519251701E+02  0.16389071752E+03  0.41800000000E+01 0.  1.
        -11    1    4    4    0    0 -0.12622539344E+03 -0.28265520638E+02  0.15091300023E+02  0.13022878692E+03  0.00000000000E+00 0.  1.
         11    1    4    4    0    0  0.10035597514E+02  0.12911627167E+02 -0.58476652434E+01  0.17367167943E+02  0.00000000000E+00 0. -1.
</event>
<event>
 7    1  0.8619230E-006  0.1841738E+03  0.7561462E-02  0.1163824E+00
         -4   -1    0    0    0  501 -0.00000000000E+00  0.00000000000E+00  0.51558216501E+03  0.51558216501E+03  0.00000000000E+00 0.  1.
          4   -1    0    0  501    0  0.00000000000E+00 -0.00000000000E+00 -0.18280408699E+03  0.18280408699E+03  0.00000000000E+00 0. -1.
         23    2    1    2    0    0 -0.64656547091E+02 -0.11434533460E+03 -0.51876948842E+02  0.16750611869E+03  0.90065294931E+02 0.  0.
          5    1    1    2  502    0 -0.55331731534E+02  0.99376612238E+02 -0.13621721157E+02  0.11463130140E+03  0.41800000000E+01 0. -1.
         -5    1    1    2    0  502  0.11998827863E+03  0.14968722361E+02  0.39827674801E+03  0.41624883191E+03  0.41800000000E+01 0.  1.
        -11    1    3    3    0    0 -0.56888487780E+02 -0.79014294200E+02  0.78492123996E+01  0.97678906961E+02  0.00000000000E+00 0. -1.
         11    1    3    3    0    0 -0.77680593113E+01 -0.35331040399E+02 -0.59726161242E+02  0.69827211729E+02  0.00000000000E+00 0.  1.
</event>
<event>
 8    1  0.8619230E-006  0.9504162E+02  0.7561462E-02  0.1291082E+00
         -1   -1    0    0    0  501 -0.00000000000E+00  0.00000000000E+00  0.83480319516E+03  0.83480319516E+03  0.00000000000E+00 0.  1.
          1   -1    0    0  501    0  0.00000000000E+00 -0.00000000000E+00 -0.17557505594E+02  0.17557505594E+02  0.00000000000E+00 0. -1.
         23    2    1    2    0    0  0.54570772302E+02  0.64292678601E+01  0.46937403804E+03  0.48885472224E+03  0.12509055597E+03 0.  0.
         23    2    1    2    0    0 -0.54570772302E+02 -0.64292678601E+01  0.34787165153E+03  0.36350597852E+03  0.90014475549E+02 0.  0.
          5    1    3    3  502    0  0.61484113855E+02  0.37265746084E+02  0.43885026213E+03  0.44472020087E+03  0.41800000000E+01 0.  1.
         -5    1    3    3    0  502 -0.69133415529E+01 -0.30836478224E+02  0.30523775908E+02  0.44134521368E+02  0.41800000000E+01 0.  1.
        -11    1    4    4    0    0 -0.36593850462E+02 -0.36159911726E+02  0.29986586535E+03  0.30424691668E+03  0.00000000000E+00 0.  1.
         11    1    4    4    0    0 -0.17976921840E+02  0.29730643865E+02  0.48005786176E+02  0.59259061838E+02  0.00000000000E+00 0. -1.
</event>
<event>
 8    1  0.8619230E-006  0.1347569E+03  0.7561462E-02  0.1220563E+00
         -1   -1    0    0    0  501 -0.00000000000E+00  0.00000000000E+00  0.66769330161E+02  0.66769330161E+02  0.00000000000E+00 0.  1.
          1   -1    0    0  501    0  0.00000000000E+00 -0.00000000000E+00 -0.33201887011E+03  0.33201887011E+03  0.00000000000E+00 0. -1.
         23    2    1    2    0    0  0.33878867274E+02  0.93645279738E+02 -0.11704211835E+03  0.19814595089E+03  0.12508294977E+03 0.  0.
         23    2    1    2    0    0 -0.33878867274E+02 -0.93645279738E+02 -0.14820742161E+03  0.20064224939E+03  0.91513148530E+02 0.  0.
          5    1    3    3  502    0  0.31237208808E+02  0.11151982734E+03 -0.45933627304E+02  0.12465875670E+03  0.41800000000E+01 0. -1.
         -5    1    3    3    0  502  0.26416584660E+01 -0.17874547605E+02 -0.71108491042E+02  0.73487194190E+02  0.41800000000E+01 0. -1.
        -11    1    4    4    0    0  0.18231496981E+02  0.87238182511E+01 -0.25864353454E+02  0.32824644197E+02  0.00000000000E+00 0.  1.
         11    1    4    4    0    0 -0.52110364255E+02 -0.10236909799E+03 -0.12234306815E+03  0.16781760519E+03  0.00000000000E+00 0. -1.
</event>
<event>
 8    1  0.8619230E-006  0.2250823E+03  0.7561462E-02  0.1130150E+00
          2   -1    0    0  501    0  0.00000000000E+00  0.00000000000E+00  0.28404927021E+03  0.28404927021E+03  0.00000000000E+00 0. -1.
         -2   -1    0    0    0  501 -0.00000000000E+00 -0.00000000000E+00 -0.22468086064E+03  0.22468086064E+03  0.00000000000E+00 0.  1.
         23    2    1    2    0    0 -0.20693564272E+03  0.51230151710E+02 -0.50333595236E+02  0.25224724176E+03  0.12509321123E+03 0.  0.
         23    2    1    2    0    0  0.20693564272E+03 -0.51230151710E+02  0.10970200480E+03  0.25648288909E+03  0.91115607150E+02 0.  0.
          5    1    3    3  502    0 -0.59714697176E+02 -0.27260931310E+02 -0.54325028956E+02  0.85309346533E+02  0.41800000000E+01 0.  1.
         -5    1    3    3    0  502 -0.14722094554E+03  0.78491083019E+02  0.39914337206E+01  0.16693789523E+03  0.41800000000E+01 0.  1.
        -11    1    4    4    0    0  0.74553887263E+02 -0.40088830004E+02  0.72087033830E+00  0.84651733893E+02  0.00000000000E+00 0.  1.
         11    1    4    4    0    0  0.13238175546E+03 -0.11141321706E+02  0.10898113446E+03  0.17183115520E+03  0.00000000000E+00 0. -1.
</event>
<event>
 8    1  0.1032710E-005  0.1426109E+03  0.7561462E-02  0.1209858E+00
          2   -1    0    0  501    0  0.00000000000E+00  0.00000000000E+00  0.42752737176E+03  0.42752737176E+03  0.00000000000E+00 0.  1.
         -2   -1    0    0    0  501 -0.00000000000E+00 -0.00000000000E+00 -0.57103473208E+02  0.57103473208E+02  0.00000000000E+00 0. -1.
         23    2    1    2    0    0  0.21512570157E+02  0.96818425539E+02  0.12954008644E+03  0.20558422453E+03  0.12509053195E+03 0.  0.
         23    2    1    2    0    0 -0.21512570157E+02 -0.96818425539E+02  0.24088381211E+03  0.27904662044E+03  0.10002703255E+03 0.  0.
          5    1    3    3  502    0  0.67349117611E+02  0.85315988173E+02  0.69583915411E+02  0.12912828956E+03  0.41800000000E+01 0.  1.
         -5    1    3    3    0  502 -0.45836547455E+02  0.11502437366E+02  0.59956171029E+02  0.76455934972E+02  0.41800000000E+01 0.  1.
        -11    1    4    4    0    0 -0.49893914027E+02 -0.34893972817E+02  0.58819917856E+02  0.84656805589E+02  0.00000000000E+00 0. -1.
         11    1    4    4    0    0  0.28381343871E+02 -0.61924452722E+02  0.18206389426E+03  0.19438981485E+03  0.00000000000E+00 0.  1.
</event>
<event>
 8    1  0.8619230E-006  0.1174627E+03  0.7561462E-02  0.1247343E+00
          1   -1    0    0  501    0  0.00000000000E+00  0.00000000000E+00  0.84908610556E+02  0.84908610556E+02  0.00000000000E+00 0. -1.
         -1   -1    0    0    0  501 -0.00000000000E+00 -0.00000000000E+00 -0.18103100000E+03  0.18103100000E+03  0.00000000000E+00 0.  1.
         23    2    1    2    0    0  0.55156223578E+02 -0.68820167378E+01 -0.78138267328E+02  0.15761935358E+03  0.12509476668E+03 0.  0.
         23    2    1    2    0    0 -0.55156223578E+02  0.68820167378E+01 -0.17984122117E+02  0.10832025697E+03  0.91215559353E+02 0.  0.
          5    1    3    3  502    0  0.48205188472E+02 -0.63416372755E+02 -0.44743218432E+02  0.91459305292E+02  0.41800000000E+01 0. -1.
         -5    1    3    3    0  502  0.69510351066E+01  0.56534356017E+02 -0.33395048896E+02  0.66160048292E+02  0.41800000000E+01 0. -1.
        -11    1    4    4    0    0  0.31278274072E+01  0.33729632137E+02 -0.27262900931E+02  0.43482607506E+02  0.00000000000E+00 0.  1.
         11    1    4    4    0    0 -0.58284050986E+02 -0.26847615399E+02  0.92787788137E+01  0.64837649465E+02  0.00000000000E+00 0. -1.
</event>
<event>
 7    1  0.8619230E-006  0.1186562E+03  0.7561462E-02  0.1245330E+00
         -1   -1    0    0    0  501 -0.00000000000E+00  0.00000000000E+00  0.38125245378E+03  0.38125245378E+03  0.00000000000E+00 0.  1.
          1   -1    0    0  501    0  0.00000000000E+00 -0.00000000000E+00 -0.48554701417E+02  0.48554701417E+02  0.00000000000E+00 0. -1.
         23    2    1    2    0    0  0.22910922260E+02 -0.26123979384E+02  0.12452059619E+03  0.15829292346E+03  0.91344940107E+02 0.  0.
          5    1    1    2  502    0 -0.11162888175E+02  0.97590076882E+02  0.92615217395E+02  0.13506844217E+03  0.41800000000E+01 0. -1.
         -5    1    1    2    0  502 -0.11748034084E+02 -0.71466097498E+02  0.11556193878E+03  0.13644578957E+03  0.41800000000E+01 0.  1.
        -11    1    3    3    0    0 -0.14798133029E+02 -0.24604361830E+02  0.56256356107E+00  0.28717169777E+02  0.00000000000E+00 0. -1.
         11    1    3    3    0    0  0.37709055289E+02 -0.15196175541E+01  0.12395803263E+03  0.12957575368E+03  0.00000000000E+00 0.  1.
</event>
<event>
 8    1  0.8619230E-006  0.1000945E+03  0.7561462E-02  0.1280097E+00
          1   -1    0    0  501    0  0.00000000000E+00  0.00000000000E+00  0.51716642848E+03  0.51716642848E+03  0.00000000000E+00 0. -1.
         -1   -1    0    0    0  501 -0.00000000000E+00 -0.00000000000E+00 -0.32795275939E+02  0.32795275939E+02  0.00000000000E+00 0.  1.
         23    2    1    2    0    0  0.60296742987E+01  0.68340589942E+02  0.24139834975E+03  0.28040638774E+03  0.12509111007E+03 0.  0.
         23    2    1    2    0    0 -0.60296742987E+01 -0.68340589942E+02  0.24297280279E+03  0.26955531668E+03  0.94432476653E+02 0.  0.
          5    1    3    3  502    0 -0.32109989947E+02  0.81313128704E+02  0.97980615538E+02  0.13137941154E+03  0.41800000000E+01 0.  1.
         -5    1    3    3    0  502  0.38139664246E+02 -0.12972538763E+02  0.14341773421E+03  0.14902697620E+03  0.41800000000E+01 0.  1.
        -11    1    4    4    0    0  0.83155410240E+01 -0.32792228860E+02  0.12734384058E+02  0.36147517667E+02  0.00000000000E+00 0.  1.
         11    1    4    4    0    0 -0.14345215323E+02 -0.35548361082E+02  0.23023841873E+03  0.23340779901E+03  0.00000000000E+00 0. -1.
</event>
<event>
 8    1  0.8619230E-006  0.1047641E+03  0.7561462E-02  0.1270585E+00
         -1   -1    0    0    0  501 -0.00000000000E+00  0.00000000000E+00  0.84115964041E+02  0.84115964041E+02  0.00000000000E+00 0.  1.
          1   -1    0    0  501    0  0.00000000000E+00 -0.00000000000E+00 -0.27616866590E+03  0.27616866590E+03  0.00000000000E+00 0. -1.
         23    2    1    2    0    0 -0.63393288982E+02 -0.71695581766E+01  0.97294580042E+00  0.14042374676E+03  0.12509104835E+03 0.  0.
         23    2    1    2    0    0  0.63393288982E+02  0.71695581766E+01 -0.19302564766E+03  0.21986088318E+03  0.83724522377E+02 0.  0.
          5    1    3    3  502    0 -0.11738963902E+02  0.39178951154E+02  0.42750415855E+02  0.59311583547E+02  0.41800000000E+01 0.  1.
         -5    1    3    3    0  502 -0.51654325079E+02 -0.46348509331E+02 -0.41777470055E+02  0.81112163211E+02  0.41800000000E+01 0.  1.
        -11    1    4    4    0    0  0.36594100763E+02 -0.33877991216E+02 -0.59577981611E+02  0.77694159319E+02  0.00000000000E+00 0. -1.
         11    1    4    4    0    0  0.26799188218E+02  0.41047549392E+02 -0.13344766605E+03  0.14216672386E+03  0.00000000000E+00 0.  1.
</event>
<event>
 8    1  0.8619230E-006  0.1416354E+03  0.7561462E-02  0.1211145E+00
          2   -1    0    0  501    0  0.00000000000E+00  0.00000000000E+00  0.61007811206E+03  0.61007811206E+03  0.00000000000E+00 0. -1.
         -2   -1    0    0    0  501 -0.00000000000E+00 -0.00000000000E+00 -0.42363787479E+02  0.42363787479E+02  0.00000000000E+00 0.  1.
         23    2    1    2    0    0  0.33933854920E+02  0.10284146266E+03  0.20818897292E+03  0.26592896971E+03  0.12509074919E+03 0.  0.
         23    2    1    2    0    0 -0.33933854920E+02 -0.10284146266E+03  0.35952535166E+03  0.38651292983E+03  0.91683659874E+02 0.  0.
          5    1    3    3  502    0 -0.36916499289E+02  0.15660712356E+02  0.16205008976E+02  0.43452969372E+02  0.41800000000E+01 0.  1.
         -5    1    3    3    0  502  0.70850354209E+02  0.87180750301E+02  0.19198396395E+03  0.22247600034E+03  0.41800000000E+01 0.  1.
        -11    1    4    4    0    0  0.16839744461E+02 -0.65175109465E+02  0.26026789828E+03  0.26883219815E+03  0.00000000000E+00 0. -1.
         11    1    4    4    0    0 -0.50773599381E+02 -0.37666353192E+02  0.99257453377E+02  0.11768073168E+03  0.00000000000E+00 0.  1.
</event>
<event>
 8    1  0.8619230E-006  0.1451949E+03  0.7561462E-02  0.1206505E+00
         -2   -1    0    0    0  501 -0.00000000000E+00  0.00000000000E+00  0.77762940327E+03  0.77762940327E+03  0.00000000000E+00 0.  1.
          2   -1    0    0  501    0  0.00000000000E+00 -0.00000000000E+00 -0.36420710446E+02  0.36420710446E+02  0.00000000000E+00 0. -1.
         23    2    1    2    0    0  0.11031761321E+03 -0.57442124968E+02  0.47163313691E+03  0.50354202108E+03  0.12508867915E+03 0.  0.
         23    2    1    2    0    0 -0.11031761321E+03  0.57442124968E+02  0.26957555591E+03  0.31050809263E+03  0.90965497538E+02 0.  0.
          5    1    3    3  502    0  0.11609144262E+03 -0.47224190204E+02  0.23314710346E+03  0.26473079050E+03  0.41800000000E+01 0. -1.
         -5    1    3    3    0  502 -0.57738294005E+01 -0.10217934763E+02  0.23848603346E+03  0.23881123058E+03  0.41800000000E+01 0. -1.
        -11    1    4    4    0    0 -0.10417146164E+03  0.99513373197E+01  0.16345186949E+03  0.19408048891E+03  0.00000000000E+00 0. -1.
         11    1    4    4    0    0 -0.61461515734E+01  0.47490787648E+02  0.10612368642E+03  0.11642760373E+03  0.00000000000E+00 0.  1.
</event>
<event>
 8    1  0.8619230E-006  0.1886696E+03  0.7561462E-02  0.1159667E+00
         -1   -1    0    0    0  501 -0.00000000000E+00  0.00000000000E+00  0.24483430476E+03  0.24483430476E+03  0.00000000000E+00 0.  1.
          1   -1    0    0  501    0  0.00000000000E+00 -0.00000000000E+00 -0.15613493631E+03  0.15613493631E+03  0.00000000000E+00 0. -1.
         23    2    1    2    0    0  0.14226370769E+03 -0.78351160373E+02  0.42727998193E+02  0.20940728402E+03  0.12509141424E+03 0.  0.
         23    2    1    2    0    0 -0.14226370769E+03  0.78351160373E+02  0.45971370256E+02  0.19156195704E+03  0.90580073114E+02 0.  0.
          5    1    3    3  502    0  0.68729245118E+02  0.20100094021E+02  0.48054373605E+02  0.86338972294E+02  0.41800000000E+01 0. -1.
         -5    1    3    3    0  502  0.73534462567E+02 -0.98451254395E+02 -0.53263754113E+01  0.12306831173E+03  0.41800000000E+01 0. -1.
        -11    1    4    4    0    0 -0.17035340490E+02  0.51954399702E+02  0.30615070914E+02  0.62663745826E+02  0.00000000000E+00 0. -1.
         11    1    4    4    0    0 -0.12522836720E+03  0.26396760672E+02  0.15356299342E+02  0.12889821121E+03  0.00000000000E+00 0.  1.
</event>
<event>
 8    1  0.8619230E-006  0.1124068E+03  0.7561462E-02  0.1256177E+00
          2   -1    0    0  501    0  0.00000000000E+00  0.00000000000E+00  0.62588153676E+02  0.62588153676E+02  0.00000000000E+00 0. -1.
         -2   -1    0    0    0  501 -0.00000000000E+00 -0.00000000000E+00 -0.44871944006E+03  0.44871944006E+03  0.00000000000E+00 0.  1.
         23    2    1    2    0    0  0.64056212850E+02 -0.89729313659E+02 -0.30094200024E+03  0.34404705546E+03  0.12509092985E+03 0.  0.
         23    2    1    2    0    0 -0.64056212850E+02  0.89729313659E+02 -0.85189286150E+02  0.16726053828E+03  0.92543638654E+02 0.  0.
          5    1    3    3  502    0  0.57448584092E+02 -0.63649239313E+02 -0.67982415714E+02  0.10950181152E+03  0.41800000000E+01 0. -1.
         -5    1    3    3    0  502  0.66076287579E+01 -0.26080074346E+02 -0.23295958452E+03  0.23454524394E+03  0.41800000000E+01 0. -1.
        -11    1    4    4    0    0 -0.17293533009E+02  0.39479543848E+02  0.15152043856E+02  0.45686815378E+02  0.00000000000E+00 0. -1.
         11    1    4    4    0    0 -0.46762679841E+02  0.50249769811E+02 -0.10034133001E+03  0.12157372290E+03  0.00000000000E+00 0.  1.
</event>
<event>
 8    1  0.8619230E-006  0.1106025E+03  0.7561462E-02  0.1259458E+00
          2   -1    0    0  501    0  0.00000000000E+00  0.00000000000E+00  0.53526431608E+03  0.53526431608E+03  0.00000000000E+00 0. -1.
         -2   -1    0    0    0  501 -0.00000000000E+00 -0.00000000000E+00 -0.33488122411E+02  0.33488122411E+02  0.00000000000E+00 0.  1.
         23    2    1    2    0    0  0.45295073411E+02 -0.41848029711E+02  0.17286703214E+03  0.22211050482E+03  0.12508862573E+03 0.  0.
         23    2    1    2    0    0 -0.45295073411E+02  0.41848029711E+02  0.32890916153E+03  0.34664193367E+03  0.90423959050E+02 0.  0.
          5    1    3    3  502    0 -0.10539339167E+02 -0.53559589956E+02  0.18992216680E+02  0.57947252228E+02  0.41800000000E+01 0.  1.
         -5    1    3    3    0  502  0.55834412579E+02  0.11711560245E+02  0.15387481546E+03  0.16416325260E+03  0.41800000000E+01 0.  1.
        -11    1    4    4    0    0  0.14950816849E+02 -0.18632648295E+02  0.80786427735E+02  0.84244580912E+02  0.00000000000E+00 0. -1.
         11    1    4    4    0    0 -0.60245890260E+02  0.60480678006E+02  0.24812273380E+03  0.26239735275E+03  0.00000000000E+00 0.  1.
</event>
<event>
 8    1  0.8619230E-006  0.1021299E+03  0.7561462E-02  0.1275880E+00
         -1   -1    0    0    0  501 -0.00000000000E+00  0.00000000000E+00  0.42597109242E+02  0.42597109242E+02  0.00000000000E+00 0.  1.
          1   -1    0    0  501    0  0.00000000000E+00 -0.00000000000E+00 -0.37103100566E+03  0.37103100566E+03  0.00000000000E+00 0. -1.
         23    2    1    2    0    0  0.53728950278E+02  0.19751753028E+02 -0.13928834905E+03  0.19577143464E+03  0.12509307972E+03 0.  0.
         23    2    1    2    0    0 -0.53728950278E+02 -0.19751753028E+02 -0.18914554737E+03  0.21785668026E+03  0.91698218081E+02 0.  0.
          5    1    3    3  502    0 -0.21084835364E+02  0.16639189747E+02 -0.11312271445E+03  0.11634282892E+03  0.41800000000E+01 0. -1.
         -5    1    3    3    0  502  0.74813785642E+02  0.31125632814E+01 -0.26165634602E+02  0.79428605719E+02  0.41800000000E+01 0. -1.
        -11    1    4    4    0    0 -0.59950533523E+02  0.18956951768E+02 -0.79161891843E+02  0.10109420166E+03  0.00000000000E+00 0.  1.
         11    1    4    4    0    0  0.62215832456E+01 -0.38708704796E+02 -0.10998365553E+03  0.11676247860E+03  0.00000000000E+00 0. -1.
</event>
<event>
 8    1  0.8619230E-006  0.1698696E+03  0.7561462E-02  0.1177984E+00
         -4   -1    0    0    0  501 -0.00000000000E+00  0.00000000000E+00  0.81000868357E+02  0.81000868357E+02  0.00000000000E+00 0.  1.
          4   -1    0    0  501    0  0.00000000000E+00 -0.00000000000E+00 -0.53781446800E+03  0.53781446800E+03  0.00000000000E+00 0. -1.
         23    2    1    2    0    0  0.71572688412E+02 -0.11868955294E+03 -0.72826065179E+02  0.20039979830E+03  0.12508630494E+03 0.  0.
         23    2    1    2    0    0 -0.71572688412E+02  0.11868955294E+03 -0.38398753447E+03  0.41841553806E+03  0.91734814341E+02 0.  0.
          5    1    3    3  502    0  0.69874409820E+02 -0.14267068632E+03 -0.75333998305E+02  0.17586938785E+03  0.41800000000E+01 0.  1.
         -5    1    3    3    0  502  0.16982785928E+01  0.23981133373E+02  0.25079331268E+01  0.24530410445E+02  0.41800000000E+01 0.  1.
        -11    1    4    4    0    0 -0.51918697851E+02  0.12534284004E+03 -0.26582307345E+03  0.29844310197E+03  0.00000000000E+00 0.  1.
         11    1    4    4    0    0 -0.19653990562E+02 -0.66532870975E+01 -0.11816446102E+03  0.11997243609E+03  0.00000000000E+00 0. -1.
</event>
<event>
 8    1  0.8619230E-006  0.1042150E+03  0.7561462E-02  0.1271674E+00
          2   -1    0    0  501    0  0.00000000000E+00  0.00000000000E+00  0.46537383783E+03  0.46537383783E+03  0.00000000000E+00 0.  1.
         -2   -1    0    0    0  501 -0.00000000000E+00 -0.00000000000E+00 -0.38044413172E+02  0.38044413172E+02  0.00000000000E+00 0. -1.
         23    2    1    2    0    0 -0.74829496737E+02  0.93320958874E+01  0.25589541021E+03  0.29464847760E+03  0.12509485517E+03 0.  0.
         23    2    1    2    0    0  0.74829496737E+02 -0.93320958874E+01  0.17143401445E+03  0.20876977341E+03  0.92242373028E+02 0.  0.
          5    1    3    3  502    0  0.75688605567E+01  0.16672354269E+02  0.18403552593E+03  0.18499135723E+03  0.41800000000E+01 0.  1.
         -5    1    3    3    0  502 -0.82398357294E+02 -0.73402583815E+01  0.71859884279E+02  0.10965712036E+03  0.41800000000E+01 0.  1.
        -11    1    4    4    0    0  0.75520117336E+02 -0.33517233634E+02  0.16369865285E+03  0.18336832337E+03  0.00000000000E+00 0.  1.
         11    1    4    4    0    0 -0.69062059846E+00  0.24185137746E+02  0.77353616035E+01  0.25401450032E+02  0.00000000000E+00 0. -1.
</event>
<event>
 8    1  0.8619230E-006  0.1054640E+03  0.7561462E-02  0.1269208E+00
         -2   -1    0    0    0  501 -0.00000000000E+00  0.00000000000E+00  0.98447098606E+02  0.98447098606E+02  0.00000000000E+00 0.  1.
          2   -1    0    0  501    0  0.00000000000E+00 -0.00000000000E+00 -0.35569739480E+03  0.35569739480E+03  0.00000000000E+00 0. -1.
         23    2    1    2    0    0  0.42771469818E+00  0.10196686156E+03  0.17004052010E+01  0.16139347564E+03  0.12509012272E+03 0.  0.
         23    2    1    2    0    0 -0.42771469818E+00 -0.10196686156E+03 -0.25895070139E+03  0.29275101777E+03  0.90830990610E+02 0.  0.
          5    1    3    3  502    0 -0.15213984809E+01  0.22692039461E+02 -0.57742509649E+02  0.62200587849E+02  0.41800000000E+01 0.  1.
         -5    1    3    3    0  502  0.19491131791E+01  0.79274822103E+02  0.59442914850E+02  0.99192887787E+02  0.41800000000E+01 0.  1.
        -11    1    4    4    0    0 -0.18011898927E+02 -0.37955442324E+02 -0.23535821106E+02  0.48155778263E+02  0.00000000000E+00 0.  1.
         11    1    4    4    0    0  0.17584184229E+02 -0.64011419240E+02 -0.23541488028E+03  0.24459523950E+03  0.00000000000E+00 0. -1.
</event>
<event>
 8    1  0.8619230E-006  0.1034389E+03  0.7561462E-02  0.1273226E+00
         -1   -1    0    0    0  501 -0.00000000000E+00  0.00000000000E+00  0.48822416503E+02  0.48822416503E+02  0.00000000000E+00 0.  1.
          1   -1    0    0  501    0  0.00000000000E+00 -0.00000000000E+00 -0.40913786078E+03  0.40913786078E+03  0.00000000000E+00 0. -1.
         23    2    1    2    0    0 -0.37868647869E+02 -0.12204210644E+02 -0.64988509932E+02  0.14647291235E+03  0.12509128819E+03 0.  0.
         23    2    1    2    0    0  0.37868647869E+02  0.12204210644E+02 -0.29532693434E+03  0.31148736493E+03  0.90682981386E+02 0.  0.
          5    1    3    3  502    0  0.41456141792E+02  0.11646465758E+02 -0.42256368939E+02  0.60475821391E+02  0.41800000000E+01 0.  1.
         -5    1    3    3    0  502 -0.79324789661E+02 -0.23850676402E+02 -0.22732140992E+02  0.85997090961E+02  0.41800000000E+01 0.  1.
        -11    1    4    4    0    0  0.28942944457E+01  0.37437515288E+02 -0.50715014122E+02  0.63102750722E+02  0.00000000000E+00 0.  1.
         11    1    4    4    0    0  0.34974353424E+02 -0.25233304644E+02 -0.24461192022E+03  0.24838461421E+03  0.00000000000E+00 0. -1.
</event>
<event>
 8    1  0.8619230E-006  0.1639745E+03  0.7561462E-02  0.1184281E+00
          2   -1    0    0  501    0  0.00000000000E+00  0.00000000000E+00  0.71219870242E+03  0.71219870242E+03  0.00000000000E+00 0. -1.
         -2   -1    0    0    0  501 -0.00000000000E+00 -0.00000000000E+00 -0.42371425290E+02  0.42371425290E+02  0.00000000000E+00 0.  1.
         23    2    1    2    0    0 -0.12144248052E+03  0.58192408769E+02  0.38007996120E+03  0.42218743020E+03  0.12508723674E+03 0.  0.
         23    2    1    2    0    0  0.12144248052E+03 -0.58192408769E+02  0.28974731593E+03  0.33238269751E+03  0.91597587329E+02 0.  0.
          5    1    3    3  502    0 -0.86924760875E+02  0.95664012732E+02  0.23309977179E+03  0.26657174155E+03  0.41800000000E+01 0. -1.
         -5    1    3    3    0  502 -0.34517719649E+02 -0.37471603963E+02  0.14698018941E+03  0.15561568865E+03  0.41800000000E+01 0. -1.
        -11    1    4    4    0    0  0.20539559346E+02  0.12735983588E+02  0.90914101885E+01  0.25821164096E+02  0.00000000000E+00 0.  1.
         11    1    4    4    0    0  0.10090292118E+03 -0.70928392356E+02  0.28065590574E+03  0.30656153342E+03  0.00000000000E+00 0. -1.
</event>
<event>
 7    1  0.8619230E-006  0.3612051E+03  0.7561462E-02  0.1058108E+00
         -2   -1    0    0    0  501 -0.00000000000E+00  0.00000000000E+00  0.12564421041E+03  0.12564421041E+03  0.00000000000E+00 0.  1.
          2   -1    0    0  501    0  0.00000000000E+00 -0.00000000000E+00 -0.10954797371E+04  0.10954797371E+04  0.00000000000E+00 0. -1.
         23    2    1    2    0    0  0.32487684302E+03  0.80304028913E+02 -0.58777313908E+03  0.68231874408E+03  0.89932782147E+02 0.  0.
          5    1    1    2  502    0 -0.69118969048E+02 -0.10103719972E+03 -0.14008111699E+03  0.18608100212E+03  0.41800000000E+01 0. -1.
         -5    1    1    2    0  502 -0.25575787397E+03  0.20733170810E+02 -0.24198127061E+03  0.35272420132E+03  0.41800000000E+01 0.  1.
        -11    1    3    3    0    0  0.21497321663E+03  0.15105663965E+02 -0.41259064764E+03  0.46548115695E+03  0.00000000000E+00 0.  1.
         11    1    3    3    0    0  0.10990362639E+03  0.65198364948E+02 -0.17518249144E+03  0.21683758713E+03  0.00000000000E+00 0. -1.
</event>
<event>
 8    1  0.8619230E-006  0.1326951E+03  0.7561462E-02  0.1223511E+00
         -3   -1    0    0    0  501 -0.00000000000E+00  0.00000000000E+00  0.23899401721E+03  0.23899401721E+03  0.00000000000E+00 0.  1.
          3   -1    0    0  501    0  0.00000000000E+00 -0.00000000000E+00 -0.98775793503E+02  0.98775793503E+02  0.00000000000E+00 0. -1.
         23    2    1    2    0    0  0.38458769273E+02 -0.98646597527E+02  0.10171998916E+03  0.19288760689E+03  0.12509374309E+03 0.  0.
         23    2    1    2    0    0 -0.38458769273E+02  0.98646597527E+02  0.38498234546E+02  0.14488220382E+03  0.91096162285E+02 0.  0.
          5    1    3    3  502    0  0.41780277980E+02  0.13873540595E+02  0.55904913926E+02  0.71280421981E+02  0.41800000000E+01 0.  1.
         -5    1    3    3    0  502 -0.33215087076E+01 -0.11252013812E+03  0.45815075235E+02  0.12160718491E+03  0.41800000000E+01 0.  1.
        -11    1    4    4    0    0  0.31008012608E+01  0.12437524721E+02  0.47080668955E+02  0.48794429794E+02  0.00000000000E+00 0.  1.
         11    1    4    4    0    0 -0.41559570534E+02  0.86209072807E+02 -0.85824344086E+01  0.96087774027E+02  0.00000000000E+00 0. -1.
</event>
<event>
 8    1  0.8619230E-006  0.9804473E+02  0.7561462E-02  0.1284462E+00
         -2   -1    0    0    0  501 -0.00000000000E+00  0.00000000000E+00  0.25997545229E+02  0.25997545229E+02  0.00000000000E+00 0. -1.
          2   -1    0    0  501    0  0.00000000000E+00 -0.00000000000E+00 -0.72845473627E+03  0.72845473627E+03  0.00000000000E+00 0.  1.
         23    2    1    2    0    0 -0.67923533201E+02  0.26144548754E+02 -0.26827745191E+03  0.30482367335E+03  0.12509011488E+03 0.  0.
         23    2    1    2    0    0  0.67923533201E+02 -0.26144548754E+02 -0.43417973913E+03  0.44962860815E+03  0.91414963761E+02 0.  0.
          5    1    3    3  502    0 -0.60164379006E+02  0.36274212118E+02 -0.50473178073E+02  0.86605918220E+02  0.41800000000E+01 0. -1.
         -5    1    3    3    0  502 -0.77591541948E+01 -0.10129663364E+02 -0.21780427384E+03  0.21821775513E+03  0.41800000000E+01 0. -1.
        -11    1    4    4    0    0  0.21656814013E+02 -0.54068284512E+02 -0.28678056877E+03  0.29263542439E+03  0.00000000000E+00 0.  1.
         11    1    4    4    0    0  0.46266719187E+02  0.27923735758E+02 -0.14739917036E+03  0.15699318375E+03  0.00000000000E+00 0. -1.
</event>
<event>
 8    1  0.8619230E-006  0.1023020E+03  0.7561462E-02  0.1275528E+00
         -3   -1    0    0    0  501 -0.00000000000E+00  0.00000000000E+00  0.36786467129E+02  0.36786467129E+02  0.00000000000E+00 0.  1.
          3   -1    0    0  501    0  0.00000000000E+00 -0.00000000000E+00 -0.40772923195E+03  0.40772923195E+03  0.00000000000E+00 0. -1.
         23    2    1    2    0    0 -0.40797332014E+02  0.27079965600E+02 -0.15401245258E+03  0.20436643852E+03  0.12509220122E+03 0.  0.
         23    2    1    2    0    0  0.40797332014E+02 -0.27079965600E+02 -0.21693031225E+03  0.24014926056E+03  0.90637520605E+02 0.  0.
          5    1    3    3  502    0 -0.18563165444E+02 -0.41768540771E+02 -0.16222943870E+02  0.48681191617E+02  0.41800000000E+01 0.  1.
         -5    1    3    3    0  502 -0.22234166570E+02  0.68848506371E+02 -0.13778950871E+03  0.15568524690E+03  0.41800000000E+01 0.  1.
        -11    1    4    4    0    0 -0.20110930602E+02 -0.12248230842E+02 -0.13204672408E+02  0.26996889855E+02  0.00000000000E+00 0.  1.
         11    1    4    4    0    0  0.60908262616E+02 -0.14831734758E+02 -0.20372563984E+03  0.21315237071E+03  0.00000000000E+00 0. -1.
</event>
<event>
 8    1  0.8619230E-006  0.1360680E+03  0.7561462E-02  0.1218720E+00
         -2   -1    0    0    0  501 -0.00000000000E+00  0.00000000000E+00  0.10008093391E+03  0.10008093391E+03  0.00000000000E+00 0.  1.
          2   -1    0    0  501    0  0.00000000000E+00 -0.00000000000E+00 -0.23059433615E+03  0.23059433615E+03  0.00000000000E+00 0. -1.
         23    2    1    2    0    0  0.82971618189E+02 -0.61886099368E+02 -0.45875798835E+02  0.16872080377E+03  0.12509173429E+03 0.  0.
         23    2    1    2    0    0 -0.82971618189E+02  0.61886099368E+02 -0.84637603400E+02  0.16195446629E+03  0.91386796214E+02 0.  0.
          5    1    3    3  502    0  0.10941268582E+03 -0.68981074219E+02 -0.20240621778E+02  0.13098350885E+03  0.41800000000E+01 0. -1.
         -5    1    3    3    0  502 -0.26441067635E+02  0.70949748509E+01 -0.25635177057E+02  0.37737294929E+02  0.41800000000E+01 0. -1.
        -11    1    4    4    0    0 -0.78625970075E+02  0.32092778743E+02 -0.97425394128E+02  0.12924278331E+03  0.00000000000E+00 0. -1.
         11    1    4    4    0    0 -0.43456481135E+01  0.29793320626E+02  0.12787790728E+02  0.32711682976E+02  0.00000000000E+00 0.  1.
</event>
<event>
 8    1  0.8619230E-006  0.8578064E+02  0.7561462E-02  0.1313404E+00
          1   -1    0    0  501    0  0.00000000000E+00  0.00000000000E+00  0.12549659048E+03  0.12549659048E+03  0.00000000000E+00 0. -1.
         -1   -1    0    0    0  501 -0.00000000000E+00 -0.00000000000E+00 -0.12150773607E+03  0.12150773607E+03  0.00000000000E+00 0.  1.
         23    2    1    2    0    0 -0.20305383219E+02  0.58168554958E+02 -0.23247533526E+02  0.14136237842E+03  0.12508790846E+03 0.  0.
         23    2    1    2    0    0  0.20305383219E+02 -0.58168554958E+02  0.27236387934E+02  0.10564194813E+03  0.81378811766E+02 0.  0.
          5    1    3    3  502    0 -0.24661643426E+02  0.13066771416E+02 -0.70392869507E+02  0.75839077322E+02  0.41800000000E+01 0.  1.
         -5    1    3    3    0  502  0.43562602074E+01  0.45101783542E+02  0.47145335981E+02  0.65523301095E+02  0.41800000000E+01 0.  1.
        -11    1    4    4    0    0 -0.10953879974E+02 -0.64935693101E+02  0.32152243988E+02  0.73283002930E+02  0.00000000000E+00 0. -1.
         11    1    4    4    0    0  0.31259263193E+02  0.67671381430E+01 -0.49158560544E+01  0.32358945204E+02  0.00000000000E+00 0.  1.
</event>
<event>
 8    1  0.8619230E-006  0.3457726E+03  0.7561462E-02  0.1064364E+00
         -2   -1    0    0    0  501 -0.00000000000E+00  0.00000000000E+00  0.32704046374E+03  0.32704046374E+03  0.00000000000E+00 0. -1.
          2   -1    0    0  501    0  0.00000000000E+00 -0.00000000000E+00 -0.37206830870E+03  0.37206830870E+03  0.00000000000E+00 0.  1.
         23    2    1    2    0    0  0.14058368985E+03  0.29968014617E+03 -0.15206107427E+02  0.35420531973E+03  0.12513280531E+03 0.  0.
         23    2    1    2    0    0 -0.14058368985E+03 -0.29968014617E+03 -0.29821737540E+02  0.34490345271E+03  0.92179671313E+02 0.  0.
          5    1    3    3  502    0  0.14641335173E+03  0.19189080284E+03  0.15488478115E+02  0.24190145749E+03  0.41800000000E+01 0.  1.
         -5    1    3    3    0  502 -0.58296618871E+01  0.10778934333E+03 -0.30694585542E+02  0.11230386224E+03  0.41800000000E+01 0.  1.
        -11    1    4    4    0    0 -0.10941589619E+03 -0.13149533491E+03  0.11815787654E+01  0.17106799108E+03  0.00000000000E+00 0.  1.
         11    1    4    4    0    0 -0.31167793653E+02 -0.16818481126E+03 -0.31003316306E+02  0.17383546163E+03  0.00000000000E+00 0. -1.
</event>
<event>
 8    1  0.8619230E-006  0.1306595E+03  0.7561462E-02  0.1226480E+00
          2   -1    0    0  501    0  0.00000000000E+00  0.00000000000E+00  0.93294626733E+03  0.93294626733E+03  0.00000000000E+00 0. -1.
         -2   -1    0    0    0  501 -0.00000000000E+00 -0.00000000000E+00 -0.18628289464E+02  0.18628289464E+02  0.00000000000E+00 0.  1.
         23    2    1    2    0    0 -0.18326047200E+02 -0.74255129129E+02  0.47611170988E+03  0.49817614796E+03  0.12508975139E+03 0.  0.
         23    2    1    2    0    0  0.18326047200E+02  0.74255129129E+02  0.43820626798E+03  0.45339840883E+03  0.87725227986E+02 0.  0.
          5    1    3    3  502    0  0.43687612130E+02 -0.71923597270E+02  0.26215767480E+03  0.27536472206E+03  0.41800000000E+01 0.  1.
         -5    1    3    3    0  502 -0.62013659330E+02 -0.23315318586E+01  0.21395403509E+03  0.22281142591E+03  0.41800000000E+01 0.  1.
        -11    1    4    4    0    0  0.52484505466E+02  0.36371410354E+02  0.20667792630E+03  0.21631751668E+03  0.00000000000E+00 0.  1.
         11    1    4    4    0    0 -0.34158458266E+02  0.37883718775E+02  0.23152834168E+03  0.23708089215E+03  0.00000000000E+00 0. -1.
</event>
<event>
 8    1  0.8619230E-006  0.5523673E+02  0.7561462E-02  0.1418983E+00
          2   -1    0    0  501    0  0.00000000000E+00  0.00000000000E+00  0.48981471775E+03  0.48981471775E+03  0.00000000000E+00 0. -1.
         -2   -1    0    0    0  501 -0.00000000000E+00 -0.00000000000E+00 -0.26153697210E+02  0.26153697210E+02  0.00000000000E+00 0.  1.
         23    2    1    2    0    0  0.35429183453E+02  0.15677248456E+02  0.24751709661E+03  0.28003370689E+03  0.12511259219E+03 0.  0.
         23    2    1    2    0    0 -0.35429183453E+02 -0.15677248456E+02  0.21614392394E+03  0.23593470807E+03  0.86290135350E+02 0.  0.
          5    1    3    3  502    0  0.29735453395E+02  0.19591754365E+02  0.36570495664E+01  0.36039983896E+02  0.41800000000E+01 0.  1.
         -5    1    3    3    0  502  0.56937300577E+01 -0.39145059094E+01  0.24386004704E+03  0.24399372300E+03  0.41800000000E+01 0.  1.
        -11    1    4    4    0    0 -0.48718671493E+02 -0.40512469251E+01  0.21231058583E+03  0.21786625808E+03  0.00000000000E+00 0. -1.
         11    1    4    4    0    0  0.13289488040E+02 -0.11626001531E+02  0.38333381016E+01  0.18068449988E+02  0.00000000000E+00 0.  1.
</event>
<event>
 8    1  0.8619230E-006  0.1235629E+03  0.7561462E-02  0.1237332E+00
         -2   -1    0    0    0  501 -0.00000000000E+00  0.00000000000E+00  0.37445121734E+02  0.37445121734E+02  0.00000000000E+00 0.  1.
          2   -1    0    0  501    0  0.00000000000E+00 -0.00000000000E+00 -0.53890211130E+03  0.53890211130E+03  0.00000000000E+00 0. -1.
         23    2    1    2    0    0 -0.70727779839E+02  0.74226684793E+01 -0.15588375185E+03  0.21214343748E+03  0.12509028390E+03 0.  0.
         23    2    1    2    0    0  0.70727779839E+02 -0.74226684793E+01 -0.34557323772E+03  0.36420379556E+03  0.90366073401E+02 0.  0.
          5    1    3    3  502    0  0.39024261565E+01  0.48790412399E+02 -0.95923598506E+02  0.10777078650E+03  0.41800000000E+01 0. -1.
         -5    1    3    3    0  502 -0.74630205996E+02 -0.41367743920E+02 -0.59960153340E+02  0.10437265098E+03  0.41800000000E+01 0. -1.
        -11    1    4    4    0    0  0.61638821384E+02  0.33841176212E+02 -0.25012841436E+03  0.25982454307E+03  0.00000000000E+00 0.  1.
         11    1    4    4    0    0  0.90889584559E+01 -0.41263844691E+02 -0.95444823358E+02  0.10437925249E+03  0.00000000000E+00 0. -1.
</event>
<event>
 8    1  0.8619230E-006  0.1008773E+03  0.7561462E-02  0.1278462E+00
          1   -1    0    0  501    0  0.00000000000E+00  0.00000000000E+00  0.37772926111E+02  0.37772926111E+02  0.00000000000E+00 0. -1.
         -1   -1    0    0    0  501 -0.00000000000E+00 -0.00000000000E+00 -0.43380276390E+03  0.43380276390E+03  0.00000000000E+00 0.  1.
         23    2    1    2    0    0 -0.66185740361E+02 -0.12018676679E+02 -0.21858510179E+03  0.26067654566E+03  0.12509122237E+03 0.  0.
         23    2    1    2    0    0  0.66185740361E+02  0.12018676679E+02 -0.17744473600E+03  0.21089914435E+03  0.92015291875E+02 0.  0.
          5    1    3    3  502    0 -0.56022815703E+02  0.47738312698E+02 -0.76983729204E+02  0.10659019345E+03  0.41800000000E+01 0.  1.
         -5    1    3    3    0  502 -0.10162924658E+02 -0.59756989377E+02 -0.14160137258E+03  0.15408635220E+03  0.41800000000E+01 0.  1.
        -11    1    4    4    0    0  0.36516635531E+02  0.70551323957E+01 -0.17694721752E+03  0.18081359836E+03  0.00000000000E+00 0.  1.
         11    1    4    4    0    0  0.29669104829E+02  0.49635442835E+01 -0.49751848135E+00  0.30085545996E+02  0.00000000000E+00 0. -1.
</event>
<event>
 8    1  0.8619230E-006  0.8703179E+02  0.7561462E-02  0.1310203E+00
         -2   -1    0    0    0  501 -0.00000000000E+00  0.00000000000E+00  0.16074076301E+02  0.16074076301E+02  0.00000000000E+00 0.  1.
          2   -1    0    0  501    0  0.00000000000E+00 -0.00000000000E+00 -0.82161020278E+03  0.82161020278E+03  0.00000000000E+00 0. -1.
         23    2    1    2    0    0  0.17383361734E+01 -0.30234889371E+02 -0.35318961744E+03  0.37590904630E+03  0.12509010702E+03 0.  0.
         23    2    1    2    0    0 -0.17383361734E+01  0.30234889371E+02 -0.45234650903E+03  0.46177523278E+03  0.87760076477E+02 0.  0.
          5    1    3    3  502    0  0.15991376489E+02  0.21660086821E+02 -0.10829166062E+02  0.29319391548E+02  0.41800000000E+01 0.  1.
         -5    1    3    3    0  502 -0.14253040316E+02 -0.51894976193E+02 -0.34236045138E+03  0.34658965475E+03  0.41800000000E+01 0.  1.
        -11    1    4    4    0    0 -0.18329837860E+02 -0.27342688514E+02 -0.16033159299E+03  0.16367597649E+03  0.00000000000E+00 0. -1.
         11    1    4    4    0    0  0.16591501687E+02  0.57577577885E+02 -0.29201491605E+03  0.29809925628E+03  0.00000000000E+00 0.  1.
</event>
<event>
 8    1  0.8619230E-006  0.6559699E+02  0.7561462E-02  0.1375740E+00
         -1   -1    0    0    0  501 -0.00000000000E+00  0.00000000000E+00  0.29911832579E+03  0.29911832579E+03  0.00000000000E+00 0.  1.
          1   -1    0    0  501    0  0.00000000000E+00 -0.00000000000E+00 -0.43390163436E+02  0.43390163436E+02  0.00000000000E+00 0. -1.
         23    2    1    2    0    0 -0.60603887942E+01 -0.19339346974E+00  0.18664673266E+03  0.22477395409E+03  0.12509820906E+03 0.  0.
         23    2    1    2    0    0  0.60603887942E+01  0.19339346974E+00  0.69081429692E+02  0.11773453514E+03  0.95144159686E+02 0.  0.
          5    1    3    3  502    0 -0.13335736182E+02 -0.42893286141E+02  0.17356755289E+03  0.17933444642E+03  0.41800000000E+01 0. -1.
         -5    1    3    3    0  502  0.72753473877E+01  0.42699892671E+02  0.13079179770E+02  0.45439507669E+02  0.41800000000E+01 0. -1.
        -11    1    4    4    0    0  0.20728037961E+02  0.11808124087E+02  0.87970770853E+02  0.91147901110E+02  0.00000000000E+00 0.  1.
         11    1    4    4    0    0 -0.14667649167E+02 -0.11614730617E+02 -0.18889341162E+02  0.26586634027E+02  0.00000000000E+00 0. -1.
</event>
<event>
 8    1  0.8619230E-006  0.9068503E+02  0.7561462E-02  0.1301201E+00
          2   -1    0    0  501    0  0.00000000000E+00  0.00000000000E+00  0.15524151481E+03  0.15524151481E+03  0.00000000000E+00 0. -1.
         -2   -1    0    0    0  501 -0.00000000000E+00 -0.00000000000E+00 -0.96266963913E+02  0.96266963913E+02  0.00000000000E+00 0.  1.
         23    2    1    2    0    0 -0.18743108827E+02  0.56612220690E+02  0.21729886668E+02  0.14026551005E+03  0.12508388255E+03 0.  0.
         23    2    1    2    0    0  0.18743108827E+02 -0.56612220690E+02  0.37244664232E+02  0.11124296868E+03  0.86206643636E+02 0.  0.
          5    1    3    3  502    0  0.11937952702E+02  0.59816192388E+02  0.63514762672E+02  0.88159452492E+02  0.41800000000E+01 0.  1.
         -5    1    3    3    0  502 -0.30681061529E+02 -0.32039716981E+01 -0.41784876004E+02  0.52106057554E+02  0.41800000000E+01 0.  1.
        -11    1    4    4    0    0  0.18263750183E+02 -0.71708336767E+02  0.32786574504E+01  0.74070235097E+02  0.00000000000E+00 0.  1.
         11    1    4    4    0    0  0.47935864347E+00  0.15096116077E+02  0.33966006781E+02  0.37172733582E+02  0.00000000000E+00 0. -1.
</event>
<event>
 8    1  0.8619230E-006  0.1702707E+03  0.7561462E-02  0.1177566E+00
         -2   -1    0    0    0  501 -0.00000000000E+00  0.00000000000E+00  0.40803717581E+02  0.40803717581E+02  0.00000000000E+00 0.  1.
          2   -1    0    0  501    0  0.00000000000E+00 -0.00000000000E+00 -0.88499978257E+03  0.88499978257E+03  0.00000000000E+00 0. -1.
         23    2    1    2    0    0 -0.12641832835E+01 -0.15466032726E+03 -0.43250681488E+03  0.47605768104E+03  0.12508939114E+03 0.  0.
         23    2    1    2    0    0  0.12641832835E+01  0.15466032726E+03 -0.41168925010E+03  0.44974581910E+03  0.94137389827E+02 0.  0.
          5    1    3    3  502    0 -0.26469020537E+02 -0.84461336138E+02 -0.36422782155E+03  0.37485157695E+03  0.41800000000E+01 0.  1.
         -5    1    3    3    0  502  0.25204837253E+02 -0.70198991120E+02 -0.68278993327E+02  0.10120610409E+03  0.41800000000E+01 0.  1.
        -11    1    4    4    0    0 -0.40082860432E+02  0.46263017506E+02 -0.18873273386E+03  0.19841105644E+03  0.00000000000E+00 0. -1.
         11    1    4    4    0    0  0.41347043715E+02  0.10839730975E+03 -0.22295651625E+03  0.25133476266E+03  0.00000000000E+00 0.  1.
</event>
<event>
 8    1  0.8619230E-006  0.3042265E+03  0.7561462E-02  0.1083147E+00
          2   -1    0    0  501    0  0.00000000000E+00  0.00000000000E+00  0.63624668316E+03  0.63624668316E+03  0.00000000000E+00 0. -1.
         -2   -1    0    0    0  501 -0.00000000000E+00 -0.00000000000E+00 -0.16046687954E+03  0.16046687954E+03  0.00000000000E+00 0.  1.
         23    2    1    2    0    0 -0.25501573419E+03  0.12941514929E+03  0.35545391204E+03  0.47305005080E+03  0.12509021317E+03 0.  0.
         23    2    1    2    0    0  0.25501573419E+03 -0.12941514929E+03  0.12032589158E+03  0.32366351189E+03  0.92187001246E+02 0.  0.
          5    1    3    3  502    0 -0.19033483615E+03  0.30092770134E+02  0.20348718662E+03  0.28028098791E+03  0.41800000000E+01 0. -1.
         -5    1    3    3    0  502 -0.64680898036E+02  0.99322379158E+02  0.15196672542E+03  0.19276906289E+03  0.41800000000E+01 0. -1.
        -11    1    4    4    0    0  0.68545394359E+02  0.26686152330E+01  0.48925477697E+02  0.84257314003E+02  0.00000000000E+00 0.  1.
         11    1    4    4    0    0  0.18647033983E+03 -0.13208376452E+03  0.71400413879E+02  0.23940619789E+03  0.00000000000E+00 0. -1.
</event>
<event>
 8    1  0.8619230E-006  0.1569265E+03  0.7561462E-02  0.1192211E+00
          1   -1    0    0  501    0  0.00000000000E+00  0.00000000000E+00  0.13948717748E+03  0.13948717748E+03  0.00000000000E+00 0. -1.
         -1   -1    0    0    0  501 -0.00000000000E+00 -0.00000000000E+00 -0.29322750395E+03  0.29322750395E+03  0.00000000000E+00 0.  1.
         23    2    1    2    0    0 -0.32567786195E+02 -0.12739075021E+03 -0.19683943085E+03  0.26773402677E+03  0.12508670441E+03 0.  0.
         23    2    1    2    0    0  0.32567786195E+02  0.12739075021E+03  0.43099104386E+02  0.16498065466E+03  0.89844419278E+02 0.  0.
          5    1    3    3  502    0  0.22827285084E+02  0.14352358391E+02 -0.45597601226E+02  0.53138392649E+02  0.41800000000E+01 0. -1.
         -5    1    3    3    0  502 -0.55395071280E+02 -0.14174310860E+03 -0.15124182962E+03  0.21459563413E+03  0.41800000000E+01 0. -1.
        -11    1    4    4    0    0  0.19738213006E+01  0.63061142008E+02 -0.23631958247E+02  0.67372643205E+02  0.00000000000E+00 0.  1.
         11    1    4    4    0    0  0.30593964895E+02  0.64329608201E+02  0.66731062633E+02  0.97608011451E+02  0.00000000000E+00 0. -1.
</event>
<event>
 8    1  0.8619230E-006  0.8794383E+02  0.7561462E-02  0.1307909E+00
          2   -1    0    0  501    0  0.00000000000E+00  0.00000000000E+00  0.19334002552E+03  0.19334002552E+03  0.00000000000E+00 0. -1.
         -2   -1    0    0    0  501 -0.00000000000E+00 -0.00000000000E+00 -0.11021347037E+03  0.11021347037E+03  0.00000000000E+00 0.  1.
         23    2    1    2    0    0  0.79000831147E+02  0.32559401581E+02 -0.32172444735E+01  0.15152216830E+03  0.12508945148E+03 0.  0.
         23    2    1    2    0    0 -0.79000831147E+02 -0.32559401581E+02  0.86343799624E+02  0.15203132759E+03  0.91416775716E+02 0.  0.
          5    1    3    3  502    0  0.32057033552E+02  0.27838316584E+02 -0.62480419715E+02  0.75656463823E+02  0.41800000000E+01 0.  1.
         -5    1    3    3    0  502  0.46943797595E+02  0.47210849970E+01  0.59263175242E+02  0.75865704478E+02  0.41800000000E+01 0.  1.
        -11    1    4    4    0    0 -0.34861359731E+02 -0.98788091002E+01  0.94982751420E+02  0.10165937408E+03  0.00000000000E+00 0. -1.
         11    1    4    4    0    0 -0.44139471416E+02 -0.22680592480E+02 -0.86389517959E+01  0.50371953508E+02  0.00000000000E+00 0.  1.
</event>
<event>
 8    1  0.8619230E-006  0.2589693E+03  0.7561462E-02  0.1107764E+00
         -1   -1    0    0    0  501 -0.00000000000E+00  0.00000000000E+00  0.14962327336E+03  0.14962327336E+03  0.00000000000E+00 0.  1.
          1   -1    0    0  501    0  0.00000000000E+00 -0.00000000000E+00 -0.55098121268E+03  0.55098121268E+03  0.00000000000E+00 0. -1.
         23    2    1    2    0    0 -0.14185827568E+03  0.20345830788E+03 -0.88719747861E+02  0.29161359292E+03  0.12509292741E+03 0.  0.
         23    2    1    2    0    0  0.14185827568E+03 -0.20345830788E+03 -0.31263819146E+03  0.40899089312E+03  0.89508985403E+02 0.  0.
          5    1    3    3  502    0 -0.15375491544E+02 -0.12045752925E+02 -0.28058588684E+02  0.34442164606E+02  0.41800000000E+01 0. -1.
         -5    1    3    3    0  502 -0.12648278413E+03  0.21550406081E+03 -0.60661159176E+02  0.25717142831E+03  0.41800000000E+01 0. -1.
        -11    1    4    4    0    0  0.12479100846E+03 -0.18069774783E+03 -0.21512971212E+03  0.30741708622E+03  0.00000000000E+00 0.  1.
         11    1    4    4    0    0  0.17067267215E+02 -0.22760560053E+02 -0.97508479336E+02  0.10157380689E+03  0.00000000000E+00 0. -1.
</event>
<event>
 8    1  0.8619230E-006  0.1163418E+03  0.7561462E-02  0.1249257E+00
          1   -1    0    0  501    0  0.00000000000E+00  0.00000000000E+00  0.28923684300E+02  0.28923684300E+02  0.00000000000E+00 0. -1.
         -1   -1    0    0    0  501 -0.00000000000E+00 -0.00000000000E+00 -0.57911476829E+03  0.57911476829E+03  0.00000000000E+00 0.  1.
         23    2    1    2    0    0 -0.62088750317E+01  0.70687848570E+02 -0.31414139142E+03  0.34549875638E+03  0.12509698155E+03 0.  0.
         23    2    1    2    0    0  0.62088750317E+01 -0.70687848570E+02 -0.23604969257E+03  0.26253969621E+03  0.90400844347E+02 0.  0.
          5    1    3    3  502    0  0.40879846150E+02 -0.88361722605E+01 -0.48345127618E+02  0.64062184835E+02  0.41800000000E+01 0. -1.
         -5    1    3    3    0  502 -0.47088721182E+02  0.79524020831E+02 -0.26579626381E+03  0.28143657155E+03  0.41800000000E+01 0. -1.
        -11    1    4    4    0    0 -0.27924793486E+02 -0.52488948521E+02 -0.20342866141E+03  0.21193891594E+03  0.00000000000E+00 0.  1.
         11    1    4    4    0    0  0.34133668518E+02 -0.18198900049E+02 -0.32621031156E+02  0.50600780263E+02  0.00000000000E+00 0. -1.
</event>
<event>
 8    1  0.8619230E-006  0.1082211E+03  0.7561462E-02  0.1263900E+00
         -2   -1    0    0    0  501 -0.00000000000E+00  0.00000000000E+00  0.91821036745E+03  0.91821036745E+03  0.00000000000E+00 0.  1.
          2   -1    0    0  501    0  0.00000000000E+00 -0.00000000000E+00 -0.15045920142E+02  0.15045920142E+02  0.00000000000E+00 0. -1.
         23    2    1    2    0    0 -0.18370992049E+02  0.41781819766E+02  0.50758103516E+03  0.52475764465E+03  0.12509542177E+03 0.  0.
         23    2    1    2    0    0  0.18370992049E+02 -0.41781819766E+02  0.39558341215E+03  0.40849864295E+03  0.91113618686E+02 0.  0.
          5    1    3    3  502    0  0.31916298391E+02  0.57207297418E+02  0.39509275641E+03  0.40050853118E+03  0.41800000000E+01 0.  1.
         -5    1    3    3    0  502 -0.50287290440E+02 -0.15425477653E+02  0.11248827875E+03  0.12424911347E+03  0.41800000000E+01 0.  1.
        -11    1    4    4    0    0  0.44981522579E+02 -0.52686934533E+02  0.32461226293E+03  0.33192223741E+03  0.00000000000E+00 0. -1.
         11    1    4    4    0    0 -0.26610530530E+02  0.10905114768E+02  0.70971149222E+02  0.76576405538E+02  0.00000000000E+00 0.  1.
</event>
<event>
 7    1  0.8619230E-006  0.1672157E+03  0.7561462E-02  0.1180783E+00
          1   -1    0    0  501    0  0.00000000000E+00  0.00000000000E+00  0.12269727325E+04  0.12269727325E+04  0.00000000000E+00 0. -1.
         -1   -1    0    0    0  501 -0.00000000000E+00 -0.00000000000E+00 -0.26542116970E+02  0.26542116970E+02  0.00000000000E+00 0.  1.
         23    2    1    2    0    0  0.12833529688E+03  0.39010329748E+02  0.71015472585E+03  0.72793777086E+03  0.87074160058E+02 0.  0.
          5    1    1    2  502    0 -0.72937539340E+02 -0.82490149157E+02  0.21741979161E+03  0.24374853340E+03  0.41800000000E+01 0. -1.
         -5    1    1    2    0  502 -0.55397757543E+02  0.43479819410E+02  0.27285609808E+03  0.28182854521E+03  0.41800000000E+01 0.  1.
        -11    1    3    3    0    0  0.46045612158E+02  0.53016488817E+02  0.22659050049E+03  0.23722184005E+03  0.00000000000E+00 0.  1.
         11    1    3    3    0    0  0.82289684725E+02 -0.14006159069E+02  0.48356422536E+03  0.49071593081E+03  0.00000000000E+00 0. -1.
</event>
<event>
 8    1  0.8619230E-006  0.6844402E+02  0.7561462E-02  0.1365466E+00
         -1   -1    0    0    0  501 -0.00000000000E+00  0.00000000000E+00  0.55252279970E+02  0.55252279970E+02  0.00000000000E+00 0.  1.
          1   -1    0    0  501    0  0.00000000000E+00 -0.00000000000E+00 -0.26742543769E+03  0.26742543769E+03  0.00000000000E+00 0. -1.
         23    2    1    2    0    0  0.42783843279E+02 -0.11410595527E+02 -0.77804428941E+02  0.15382856865E+03  0.12509612477E+03 0.  0.
         23    2    1    2    0    0 -0.42783843279E+02  0.11410595527E+02 -0.13436872878E+03  0.16884914901E+03  0.92165182756E+02 0.  0.
          5    1    3    3  502    0 -0.91200873680E+00 -0.63325274215E+01 -0.10278464633E+03  0.10306836849E+03  0.41800000000E+01 0.  1.
         -5    1    3    3    0  502  0.43695852016E+02 -0.50780681050E+01  0.24980217385E+02  0.50760200154E+02  0.41800000000E+01 0.  1.
        -11    1    4    4    0    0  0.18025474597E+02 -0.99701235553E+01 -0.88640757482E+00  0.20618118647E+02  0.00000000000E+00 0.  1.
         11    1    4    4    0    0 -0.60809317876E+02  0.21380719082E+02 -0.13348232120E+03  0.14823103036E+03  0.00000000000E+00 0. -1.
</event>
<event>
 8    1  0.8619230E-006  0.8924656E+02  0.7561462E-02  0.1304687E+00
         -2   -1    0    0    0  501 -0.00000000000E+00  0.00000000000E+00  0.13696572604E+03  0.13696572604E+03  0.00000000000E+00 0.  1.
          2   -1    0    0  501    0  0.00000000000E+00 -0.00000000000E+00 -0.93133353855E+02  0.93133353855E+02  0.00000000000E+00 0. -1.
         23    2    1    2    0    0 -0.26528559569E+02 -0.20576757533E+02  0.12496283377E+02  0.13011629684E+03  0.12508767398E+03 0.  0.
         23    2    1    2    0    0  0.26528559569E+02  0.20576757533E+02  0.31336088807E+02  0.99982783051E+02  0.88811255039E+02 0.  0.
          5    1    3    3  502    0  0.32494895851E+02 -0.20317120031E+02  0.47648330701E+02  0.61290614627E+02  0.41800000000E+01 0. -1.
         -5    1    3    3    0  502 -0.59023455421E+02 -0.25963750205E+00 -0.35152047324E+02  0.68825682216E+02  0.41800000000E+01 0. -1.
        -11    1    4    4    0    0  0.43092158979E+02 -0.11560311290E+02 -0.93172907199E+01  0.45578359656E+02  0.00000000000E+00 0.  1.
         11    1    4    4    0    0 -0.16563599410E+02  0.32137068824E+02  0.40653379527E+02  0.54404423395E+02  0.00000000000E+00 0. -1.
</event>
<event>
 8    1  0.8619230E-006  0.1098445E+03  0.7561462E-02  0.1260858E+00
         -1   -1    0    0    0  501 -0.00000000000E+00  0.00000000000E+00  0.14095796467E+03  0.14095796467E+03  0.00000000000E+00 0.  1.
          1   -1    0    0  501    0  0.00000000000E+00 -0.00000000000E+00 -0.10669317137E+03  0.10669317137E+03  0.00000000000E+00 0. -1.
         23    2    1    2    0    0  0.63583177706E+01  0.56620042621E+02  0.36607252787E+02  0.14224308736E+03  0.12508695980E+03 0.  0.
         23    2    1    2    0    0 -0.63583177706E+01 -0.56620042621E+02 -0.23424594826E+01  0.10540804868E+03  0.88651633823E+02 0.  0.
          5    1    3    3  502    0  0.54216183210E+02  0.12034171650E+02  0.50574480550E+02  0.75229424376E+02  0.41800000000E+01 0. -1.
         -5    1    3    3    0  502 -0.47857865439E+02  0.44585870971E+02 -0.13967227763E+02  0.67013662980E+02  0.41800000000E+01 0. -1.
        -11    1    4    4    0    0 -0.54493353502E+00 -0.77132289627E+02 -0.17692052166E+02  0.79137195841E+02  0.00000000000E+00 0.  1.
         11    1    4    4    0    0 -0.58133842356E+01  0.20512247006E+02  0.15349592683E+02  0.26270852842E+02  0.00000000000E+00 0. -1.
</event>
<event>
 8    1  0.8619230E-006  0.7243615E+02  0.7561462E-02  0.1351999E+00
          1   -1    0    0  501    0  0.00000000000E+00  0.00000000000E+00  0.34233867949E+03  0.34233867949E+03  0.00000000000E+00 0. -1.
         -1   -1    0    0    0  501 -0.00000000000E+00 -0.00000000000E+00 -0.51438073998E+02  0.51438073998E+02  0.00000000000E+00 0.  1.
         23    2    1    2    0    0 -0.47978947140E+02  0.31317059438E+02  0.84632606653E+02  0.16153641677E+03  0.12509435740E+03 0.  0.
         23    2    1    2    0    0  0.47978947140E+02 -0.31317059438E+02  0.20626799884E+03  0.23224033672E+03  0.90035265714E+02 0.  0.
          5    1    3    3  502    0 -0.36054197975E+02  0.24409863808E+02  0.11764853525E+03  0.12551652039E+03  0.41800000000E+01 0. -1.
         -5    1    3    3    0  502 -0.11924749165E+02  0.69071956296E+01 -0.33015928601E+02  0.36019896384E+02  0.41800000000E+01 0. -1.
        -11    1    4    4    0    0 -0.11992087226E+02  0.85411714168E+01  0.10553554857E+01  0.14760607725E+02  0.00000000000E+00 0.  1.
         11    1    4    4    0    0  0.59971034366E+02 -0.39858230854E+02  0.20521264335E+03  0.21747972899E+03  0.00000000000E+00 0. -1.
</event>
<event>
 8    1  0.8619230E-006  0.1083286E+03  0.7561462E-02  0.1263697E+00
         -1   -1    0    0    0  501 -0.00000000000E+00  0.00000000000E+00  0.83006855593E+03  0.83006855593E+03  0.00000000000E+00 0.  1.
          1   -1    0    0  501    0  0.00000000000E+00 -0.00000000000E+00 -0.14565599064E+02  0.14565599064E+02  0.00000000000E+00 0. -1.
         23    2    1    2    0    0  0.69385338817E+01  0.12466194889E+02  0.51031531312E+03  0.52561448897E+03  0.12508126534E+03 0.  0.
         23    2    1    2    0    0 -0.69385338817E+01 -0.12466194889E+02  0.30518764375E+03  0.31901966603E+03  0.91817755093E+02 0.  0.
          5    1    3    3  502    0  0.33760627323E+02  0.60049549244E+02  0.23609551158E+03  0.24597620070E+03  0.41800000000E+01 0.  1.
         -5    1    3    3    0  502 -0.26822093442E+02 -0.47583354356E+02  0.27421980154E+03  0.27963828827E+03  0.41800000000E+01 0.  1.
        -11    1    4    4    0    0 -0.29186122158E+02  0.31894074372E+02  0.14783961329E+03  0.15403120776E+03  0.00000000000E+00 0. -1.
         11    1    4    4    0    0  0.22247588277E+02 -0.44360269260E+02  0.15734803046E+03  0.16498845827E+03  0.00000000000E+00 0.  1.
</event>
<event>
 8    1  0.1028710E-005  0.2032776E+03  0.7561462E-02  0.1147003E+00
          1   -1    0    0  501    0  0.00000000000E+00  0.00000000000E+00  0.40022136169E+03  0.40022136169E+03  0.00000000000E+00 0. -1.
         -1   -1    0    0    0  501 -0.00000000000E+00 -0.00000000000E+00 -0.12305260732E+03  0.12305260732E+03  0.00000000000E+00 0.  1.
         23    2    1    2    0    0 -0.18585662700E+03  0.41280059949E+02  0.10315100299E+03  0.25006904861E+03  0.12509064916E+03 0.  0.
         23    2    1    2    0    0  0.18585662700E+03 -0.41280059949E+02  0.17401775138E+03  0.27320492040E+03  0.90066761805E+02 0.  0.
          5    1    3    3  502    0 -0.83643770063E+02  0.70567113263E+02  0.92090257502E+02  0.14308768525E+03  0.41800000000E+01 0. -1.
         -5    1    3    3    0  502 -0.10221285694E+03 -0.29287053314E+02  0.11060745484E+02  0.10698136336E+03  0.41800000000E+01 0. -1.
        -11    1    4    4    0    0  0.45061160014E+02 -0.14294943977E+02 -0.60009520479E+00  0.47278046484E+02  0.00000000000E+00 0.  1.
         11    1    4    4    0    0  0.14079546699E+03 -0.26985115972E+02  0.17461784659E+03  0.22592687391E+03  0.00000000000E+00 0. -1.
</event>
<event>
 8    1  0.8619230E-006  0.1109410E+03  0.7561462E-02  0.1258837E+00
          2   -1    0    0  501    0  0.00000000000E+00  0.00000000000E+00  0.38926834977E+03  0.38926834977E+03  0.00000000000E+00 0. -1.
         -2   -1    0    0    0  501 -0.00000000000E+00 -0.00000000000E+00 -0.32877463619E+02  0.32877463619E+02  0.00000000000E+00 0.  1.
         23    2    1    2    0    0 -0.24160309752E+02 -0.15298084058E+02  0.18085305758E+03  0.22175003363E+03  0.12508995578E+03 0.  0.
         23    2    1    2    0    0  0.24160309752E+02  0.15298084058E+02  0.17553782857E+03  0.20039577976E+03  0.92342770926E+02 0.  0.
          5    1    3    3  502    0 -0.42456344846E+02  0.45319385853E+02  0.11187881493E+03  0.12802628473E+03  0.41800000000E+01 0. -1.
         -5    1    3    3    0  502  0.18296035095E+02 -0.60617469910E+02  0.68974242645E+02  0.93723748895E+02  0.41800000000E+01 0. -1.
        -11    1    4    4    0    0 -0.20265420456E+02  0.40371533909E+02  0.92486585273E+02  0.10292869606E+03  0.00000000000E+00 0. -1.
         11    1    4    4    0    0  0.44425730208E+02 -0.25073449851E+02  0.83051243298E+02  0.97467083702E+02  0.00000000000E+00 0.  1.
</event>
<event>
 8    1  0.8619230E-006  0.1691899E+03  0.7561462E-02  0.1178695E+00
          1   -1    0    0  501    0  0.00000000000E+00  0.00000000000E+00  0.38581872870E+02  0.38581872870E+02  0.00000000000E+00 0. -1.
         -1   -1    0    0    0  501 -0.00000000000E+00 -0.00000000000E+00 -0.10179406828E+04  0.10179406828E+04  0.00000000000E+00 0.  1.
         23    2    1    2    0    0 -0.15384209613E+03  0.16570464646E+02 -0.67232322881E+03  0.70114772969E+03  0.12509054323E+03 0.  0.
         23    2    1    2    0    0  0.15384209613E+03 -0.16570464646E+02 -0.30703558114E+03  0.35537482600E+03  0.89880187081E+02 0.  0.
          5    1    3    3  502    0 -0.11383596404E+03 -0.12741191339E+02 -0.23997766824E+03  0.26594683363E+03  0.41800000000E+01 0.  1.
         -5    1    3    3    0  502 -0.40006132095E+02  0.29311655985E+02 -0.43234556057E+03  0.43520089606E+03  0.41800000000E+01 0.  1.
        -11    1    4    4    0    0  0.83215407150E+02 -0.48674056907E+02 -0.21052120097E+03  0.23154512273E+03  0.00000000000E+00 0.  1.
         11    1    4    4    0    0  0.70626688982E+02  0.32103592261E+02 -0.96514380170E+02  0.12382970327E+03  0.00000000000E+00 0. -1.
</event>
<event>
 8    1  0.8619230E-006  0.1685661E+03  0.7561462E-02  0.1179351E+00
          3   -1    0    0  501    0  0.00000000000E+00  0.00000000000E+00  0.84088325864E+02  0.84088325864E+02  0.00000000000E+00 0. -1.
         -3   -1    0    0    0  501 -0.00000000000E+00 -0.00000000000E+00 -0.36570266588E+03  0.36570266588E+03  0.00000000000E+00 0.  1.
         23    2    1    2    0    0  0.62761369833E+02  0.12659499989E+03 -0.15759466648E+03  0.24175600118E+03  0.11681010943E+03 0.  0.
         23    2    1    2    0    0 -0.62761369833E+02 -0.12659499989E+03 -0.12401967353E+03  0.20803499056E+03  0.89063990116E+02 0.  0.
          5    1    3    3  502    0  0.10874561841E+02 -0.15619328827E+02 -0.56258109431E+02  0.59537104439E+02  0.41800000000E+01 0. -1.
         -5    1    3    3    0  502  0.51886807991E+02  0.14221432871E+03 -0.10133655705E+03  0.18221889674E+03  0.41800000000E+01 0.  1.
        -11    1    4    4    0    0  0.20370062074E+02 -0.91881587202E+01 -0.24188021151E+02  0.32930564174E+02  0.00000000000E+00 0.  1.
         11    1    4    4    0    0 -0.83131431907E+02 -0.11740684117E+03 -0.99831652383E+02  0.17510442639E+03  0.00000000000E+00 0. -1.
</event>
<event>
 8    1  0.8619230E-006  0.1082746E+03  0.7561462E-02  0.1263799E+00
         -1   -1    0    0    0  501 -0.00000000000E+00  0.00000000000E+00  0.13160496371E+03  0.13160496371E+03  0.00000000000E+00 0.  1.
          1   -1    0    0  501    0  0.00000000000E+00 -0.00000000000E+00 -0.19938297012E+03  0.19938297012E+03  0.00000000000E+00 0. -1.
         23    2    1    2    0    0 -0.51417630501E+02 -0.69889697204E+02  0.48988245011E+02  0.15993679173E+03  0.12510630159E+03 0.  0.
         23    2    1    2    0    0  0.51417630501E+02  0.69889697204E+02 -0.11676625142E+03  0.17105114210E+03  0.89976626072E+02 0.  0.
          5    1    3    3  502    0 -0.65138372204E+02 -0.26439141137E+02  0.78522283536E+02  0.10547633445E+03  0.41800000000E+01 0. -1.
         -5    1    3    3    0  502  0.13720741704E+02 -0.43450556067E+02 -0.29534038524E+02  0.54460457279E+02  0.41800000000E+01 0. -1.
        -11    1    4    4    0    0  0.54478254621E+02  0.33719816113E+02 -0.11849917834E+03  0.13471065842E+03  0.00000000000E+00 0. -1.
         11    1    4    4    0    0 -0.30606241202E+01  0.36169881091E+02  0.17329269140E+01  0.36340483676E+02  0.00000000000E+00 0.  1.
</event>
<event>
 8    1  0.8619230E-006  0.1211486E+03  0.7561462E-02  0.1241214E+00
          2   -1    0    0  501    0  0.00000000000E+00  0.00000000000E+00  0.94571297686E+02  0.94571297686E+02  0.00000000000E+00 0. -1.
         -2   -1    0    0    0  501 -0.00000000000E+00 -0.00000000000E+00 -0.21366560636E+03  0.21366560636E+03  0.00000000000E+00 0.  1.
         23    2    1    2    0    0  0.49339215563E+02  0.39895089113E+02 -0.13214318462E+03  0.19270685553E+03  0.12509250417E+03 0.  0.
         23    2    1    2    0    0 -0.49339215563E+02 -0.39895089113E+02  0.13048875942E+02  0.11553004852E+03  0.95660559371E+02 0.  0.
          5    1    3    3  502    0  0.53904435874E+02  0.80967578719E+02 -0.10442799743E+03  0.14277295282E+03  0.41800000000E+01 0. -1.
         -5    1    3    3    0  502 -0.45652203108E+01 -0.41072489606E+02 -0.27715187190E+02  0.49933902711E+02  0.41800000000E+01 0. -1.
        -11    1    4    4    0    0 -0.49316978185E+02 -0.63161708459E+02 -0.12355140351E+02  0.81081534555E+02  0.00000000000E+00 0.  1.
         11    1    4    4    0    0 -0.22237377839E-01  0.23266619346E+02  0.25404016294E+02  0.34448513961E+02  0.00000000000E+00 0. -1.
</event>
<event>
 8    1  0.8619230E-006  0.9811473E+02  0.7561462E-02  0.1284311E+00
         -1   -1    0    0    0  501 -0.00000000000E+00  0.00000000000E+00  0.23174143204E+03  0.23174143204E+03  0.00000000000E+00 0.  1.
          1   -1    0    0  501    0  0.00000000000E+00 -0.00000000000E+00 -0.92601153813E+02  0.92601153813E+02  0.00000000000E+00 0. -1.
         23    2    1    2    0    0  0.11214721994E+02  0.66595667496E+02  0.15529265730E+03  0.21053087134E+03  0.12508671174E+03 0.  0.
         23    2    1    2    0    0 -0.11214721994E+02 -0.66595667496E+02 -0.16152379071E+02  0.11381171452E+03  0.90174575652E+02 0.  0.
          5    1    3    3  502    0 -0.95124220419E+01 -0.10965650047E+02 -0.15574042678E+02  0.21696885938E+02  0.41800000000E+01 0. -1.
         -5    1    3    3    0  502  0.20727144036E+02  0.77561317543E+02  0.17086669998E+03  0.18883398540E+03  0.41800000000E+01 0. -1.
        -11    1    4    4    0    0 -0.18181476108E+02  0.12027688772E+02 -0.26378412508E+02  0.34220637298E+02  0.00000000000E+00 0. -1.
         11    1    4    4    0    0  0.69667541141E+01 -0.78623356268E+02  0.10226033436E+02  0.79591077224E+02  0.00000000000E+00 0.  1.
</event>
<event>
 8    1  0.8619230E-006  0.9132102E+02  0.7561462E-02  0.1299684E+00
          1   -1    0    0  501    0  0.00000000000E+00  0.00000000000E+00  0.30441574797E+03  0.30441574797E+03  0.00000000000E+00 0. -1.
         -1   -1    0    0    0  501 -0.00000000000E+00 -0.00000000000E+00 -0.21486530923E+03  0.21486530923E+03  0.00000000000E+00 0.  1.
         23    2    1    2    0    0  0.37429996624E+02  0.58342850876E+02 -0.17772066159E+03  0.22811713432E+03  0.12509156855E+03 0.  0.
         23    2    1    2    0    0 -0.37429996624E+02 -0.58342850876E+02  0.26727110033E+03  0.29116392287E+03  0.92399653752E+02 0.  0.
          5    1    3    3  502    0  0.31923298441E+02  0.37528986285E+02 -0.19438303450E+03  0.20057357328E+03  0.41800000000E+01 0.  1.
         -5    1    3    3    0  502  0.55066981834E+01  0.20813864591E+02  0.16662372913E+02  0.27543561048E+02  0.41800000000E+01 0.  1.
        -11    1    4    4    0    0  0.20834423893E+02  0.85790712914E+01  0.91916098901E+02  0.94637428750E+02  0.00000000000E+00 0. -1.
         11    1    4    4    0    0 -0.58264420517E+02 -0.66921922167E+02  0.17535500143E+03  0.19652649412E+03  0.00000000000E+00 0.  1.
</event>
<event>
 8    1  0.8619230E-006  0.9099221E+02  0.7561462E-02  0.1300467E+00
         -1   -1    0    0    0  501 -0.00000000000E+00  0.00000000000E+00  0.12097687812E+03  0.12097687812E+03  0.00000000000E+00 0.  1.
          1   -1    0    0  501    0  0.00000000000E+00 -0.00000000000E+00 -0.13376610854E+03  0.13376610854E+03  0.00000000000E+00 0. -1.
         23    2    1    2    0    0  0.37602744935E+02  0.35020855299E+02  0.35523087527E+02  0.13982556861E+03  0.12509545618E+03 0.  0.
         23    2    1    2    0    0 -0.37602744935E+02 -0.35020855299E+02 -0.48312317942E+02  0.11491741805E+03  0.90727648340E+02 0.  0.
          5    1    3    3  502    0 -0.14717636352E+02  0.24597646028E+02 -0.38689459212E+02  0.48332180419E+02  0.41800000000E+01 0.  1.
         -5    1    3    3    0  502  0.52320381287E+02  0.10423209271E+02  0.74212546739E+02  0.91493388193E+02  0.41800000000E+01 0.  1.
        -11    1    4    4    0    0  0.10720429844E+01 -0.55657991173E+02 -0.97135675563E+01  0.56509420915E+02  0.00000000000E+00 0.  1.
         11    1    4    4    0    0 -0.38674787919E+02  0.20637135873E+02 -0.38598750386E+02  0.58407997132E+02  0.00000000000E+00 0. -1.
</event>
<event>
 8    1  0.8619230E-006  0.7343520E+02  0.7561462E-02  0.1348786E+00
         -1   -1    0    0    0  501 -0.00000000000E+00  0.00000000000E+00  0.69327905514E+02  0.69327905514E+02  0.00000000000E+00 0.  1.
          1   -1    0    0  501    0  0.00000000000E+00 -0.00000000000E+00 -0.17870828398E+03  0.17870828398E+03  0.00000000000E+00 0. -1.
         23    2    1    2    0    0 -0.18892938412E+01  0.10872479330E+02 -0.36553378197E+02  0.13078824180E+03  0.12509050523E+03 0.  0.
         23    2    1    2    0    0  0.18892938412E+01 -0.10872479330E+02 -0.72827000267E+02  0.11724794769E+03  0.91222415177E+02 0.  0.
          5    1    3    3  502    0  0.43246542804E+02  0.14278780966E+02  0.26652644735E+02  0.52933759754E+02  0.41800000000E+01 0.  1.
         -5    1    3    3    0  502 -0.45135836645E+02 -0.34063016361E+01 -0.63206022932E+02  0.77854482050E+02  0.41800000000E+01 0.  1.
        -11    1    4    4    0    0 -0.26293584620E+02 -0.71751837951E+01  0.10498970717E+02  0.29207263493E+02  0.00000000000E+00 0.  1.
         11    1    4    4    0    0  0.28182878461E+02 -0.36972955345E+01 -0.83325970984E+02  0.88040684192E+02  0.00000000000E+00 0. -1.
</event>
<event>
 8    1  0.8619230E-006  0.1398978E+03  0.7561462E-02  0.1213467E+00
          2   -1    0    0  501    0  0.00000000000E+00  0.00000000000E+00  0.78488428888E+02  0.78488428888E+02  0.00000000000E+00 0. -1.
         -2   -1    0    0    0  501 -0.00000000000E+00 -0.00000000000E+00 -0.36670515083E+03  0.36670515083E+03  0.00000000000E+00 0.  1.
         23    2    1    2    0    0  0.10621699244E+03  0.48661102459E+02 -0.22942812469E+03  0.28624172120E+03  0.12508839348E+03 0.  0.
         23    2    1    2    0    0 -0.10621699244E+03 -0.48661102459E+02 -0.58788597259E+02  0.15895185852E+03  0.90330735543E+02 0.  0.
          5    1    3    3  502    0  0.54118726487E+02 -0.99199999808E+01 -0.19104395646E+03  0.19885298252E+03  0.41800000000E+01 0.  1.
         -5    1    3    3    0  502  0.52098265953E+02  0.58581102440E+02 -0.38384168226E+02  0.87388738684E+02  0.41800000000E+01 0.  1.
        -11    1    4    4    0    0  0.10288799869E+02 -0.25261886824E+02 -0.22916241623E+01  0.27372867404E+02  0.00000000000E+00 0.  1.
         11    1    4    4    0    0 -0.11650579231E+03 -0.23399215636E+02 -0.56496973097E+02  0.13157899112E+03  0.00000000000E+00 0. -1.
</event>
<event>
 8    1  0.8619230E-006  0.1238046E+03  0.7561462E-02  0.1236949E+00
         -2   -1    0    0    0  501 -0.00000000000E+00  0.00000000000E+00  0.10399973225E+03  0.10399973225E+03  0.00000000000E+00 0.  1.
          2   -1    0    0  501    0  0.00000000000E+00 -0.00000000000E+00 -0.26685087937E+03  0.26685087937E+03  0.00000000000E+00 0. -1.
         23    2    1    2    0    0 -0.81683760932E+02 -0.48473577693E+02  0.61102914918E+01  0.15718625729E+03  0.12509300254E+03 0.  0.
         23    2    1    2    0    0  0.81683760932E+02  0.48473577693E+02 -0.16896143861E+03  0.21366435433E+03  0.89903081383E+02 0.  0.
          5    1    3    3  502    0 -0.83262224948E+02 -0.16773519564E+02 -0.45506225586E+02  0.96448110551E+02  0.41800000000E+01 0. -1.
         -5    1    3    3    0  502  0.15784640157E+01 -0.31700058130E+02  0.51616517077E+02  0.60738146739E+02  0.41800000000E+01 0. -1.
        -11    1    4    4    0    0  0.10027773109E+03  0.30791272288E+02 -0.14057365393E+03  0.17539862594E+03  0.00000000000E+00 0. -1.
         11    1    4    4    0    0 -0.18593970159E+02  0.17682305405E+02 -0.28387784679E+02  0.38265728396E+02  0.00000000000E+00 0.  1.
</event>
<event>
 7    1  0.8619230E-006  0.1283437E+03  0.7561462E-02  0.1229934E+00
         -2   -1    0    0    0  501 -0.00000000000E+00  0.00000000000E+00  0.18393368984E+04  0.18393368984E+04  0.00000000000E+00 0.  1.
          2   -1    0    0  501    0  0.00000000000E+00 -0.00000000000E+00 -0.20012995721E+02  0.20012995721E+02  0.00000000000E+00 0. -1.
         23    2    1    2    0    0 -0.13157846303E+02 -0.58125650262E+02  0.14399334174E+04  0.14465847205E+04  0.12508951606E+03 0.  0.
          5    1    3    3  502    0  0.34158386159E+02 -0.79291240484E+02  0.86945164634E+03  0.87373768025E+03  0.41800000000E+01 0.  1.
         -5    1    3    3    0  502 -0.47316232462E+02  0.21165590221E+02  0.57048177103E+03  0.57284704026E+03  0.41800000000E+01 0.  1.
        -11    1    1    2    0    0  0.32252227563E+02 -0.19914750992E+02  0.16942354823E+02  0.41519235022E+02  0.00000000000E+00 0. -1.
         11    1    1    2    0    0 -0.19094381260E+02  0.78040401255E+02  0.36244813051E+03  0.37124593861E+03  0.00000000000E+00 0.  1.
</event>
<event>
 7    1  0.8619230E-006  0.2162360E+03  0.7561462E-02  0.1136721E+00
         -2   -1    0    0    0  501 -0.00000000000E+00  0.00000000000E+00  0.79959461836E+02  0.79959461836E+02  0.00000000000E+00 0.  1.
          2   -1    0    0  501    0  0.00000000000E+00 -0.00000000000E+00 -0.13483957455E+04  0.13483957455E+04  0.00000000000E+00 0. -1.
         23    2    1    2    0    0 -0.35378337097E+02 -0.17693085134E+03 -0.51318034259E+03  0.55067476079E+03  0.85629873601E+02 0.  0.
          5    1    1    2  502    0 -0.63458367126E+02  0.68793413338E+02 -0.72114255899E+03  0.72720255834E+03  0.41800000000E+01 0. -1.
         -5    1    1    2    0  502  0.98836704224E+02  0.10813743800E+03 -0.34113382068E+02  0.15047788819E+03  0.41800000000E+01 0.  1.
        -11    1    3    3    0    0 -0.55150047182E+02 -0.13649340167E+03 -0.44716186603E+03  0.47077139976E+03  0.00000000000E+00 0. -1.
         11    1    3    3    0    0  0.19771710085E+02 -0.40437449663E+02 -0.66018476563E+02  0.79903361022E+02  0.00000000000E+00 0.  1.
</event>
<event>
 8    1  0.8619230E-006  0.1856482E+03  0.7561462E-02  0.1162446E+00
         -2   -1    0    0    0  501 -0.00000000000E+00  0.00000000000E+00  0.10397718964E+03  0.10397718964E+03  0.00000000000E+00 0.  1.
          2   -1    0    0  501    0  0.00000000000E+00 -0.00000000000E+00 -0.43302004693E+03  0.43302004693E+03  0.00000000000E+00 0. -1.
         23    2    1    2    0    0  0.18200565450E+03 -0.43243698383E+01 -0.16746138258E+03  0.27720780628E+03  0.12512431724E+03 0.  0.
         23    2    1    2    0    0 -0.18200565450E+03  0.43243698383E+01 -0.16158147472E+03  0.25978943029E+03  0.90759113444E+02 0.  0.
          5    1    3    3  502    0  0.15562917148E+02 -0.77971397548E+01  0.19743912216E+02  0.26651346084E+02  0.41800000000E+01 0.  1.
         -5    1    3    3    0  502  0.16644273735E+03  0.34727699165E+01 -0.18720529480E+03  0.25055646020E+03  0.41800000000E+01 0.  1.
        -11    1    4    4    0    0 -0.39878644031E+02 -0.16616264828E+02  0.49967040168E+00  0.43204816596E+02  0.00000000000E+00 0.  1.
         11    1    4    4    0    0 -0.14212701047E+03  0.20940634666E+02 -0.16208114512E+03  0.21658461369E+03  0.00000000000E+00 0. -1.
</event>
<event>
 8    1  0.8619230E-006  0.1298494E+03  0.7561462E-02  0.1227679E+00
         -2   -1    0    0    0  501 -0.00000000000E+00  0.00000000000E+00  0.35958596989E+02  0.35958596989E+02  0.00000000000E+00 0. -1.
          2   -1    0    0  501    0  0.00000000000E+00 -0.00000000000E+00 -0.71563949694E+03  0.71563949694E+03  0.00000000000E+00 0.  1.
         23    2    1    2    0    0 -0.95496185073E+02 -0.60827508662E+02 -0.29802622072E+03  0.34247262653E+03  0.12509342313E+03 0.  0.
         23    2    1    2    0    0  0.95496185073E+02  0.60827508662E+02 -0.38165467923E+03  0.40912546740E+03  0.94360196706E+02 0.  0.
          5    1    3    3  502    0 -0.54239537741E+02 -0.50040943444E+01 -0.25480430131E+03  0.26059484412E+03  0.41800000000E+01 0. -1.
         -5    1    3    3    0  502 -0.41256647333E+02 -0.55823414318E+02 -0.43221919411E+02  0.81877782413E+02  0.41800000000E+01 0. -1.
        -11    1    4    4    0    0  0.76049787701E+01 -0.16687561995E+02 -0.13508111592E+02  0.22776731685E+02  0.00000000000E+00 0. -1.
         11    1    4    4    0    0  0.87891206303E+02  0.77515070658E+02 -0.36814656764E+03  0.38634873571E+03  0.00000000000E+00 0.  1.
</event>
<event>
 8    1  0.8619230E-006  0.1099240E+03  0.7561462E-02  0.1260711E+00
          3   -1    0    0  501    0  0.00000000000E+00  0.00000000000E+00  0.64932174081E+02  0.64932174081E+02  0.00000000000E+00 0. -1.
         -3   -1    0    0    0  501 -0.00000000000E+00 -0.00000000000E+00 -0.22200347790E+03  0.22200347790E+03  0.00000000000E+00 0.  1.
         23    2    1    2    0    0 -0.26288486921E+02  0.66491999028E+01 -0.14281710819E+03  0.19177711221E+03  0.12508572250E+03 0.  0.
         23    2    1    2    0    0  0.26288486921E+02 -0.66491999028E+01 -0.14254195634E+02  0.95158539769E+02  0.90092559037E+02 0.  0.
          5    1    3    3  502    0 -0.51426982173E+02  0.53360468817E+02 -0.91876417883E+02  0.11811360079E+03  0.41800000000E+01 0. -1.
         -5    1    3    3    0  502  0.25138495252E+02 -0.46711268914E+02 -0.50940690303E+02  0.73663511426E+02  0.41800000000E+01 0. -1.
        -11    1    4    4    0    0 -0.18086408599E+02 -0.35249003069E+02 -0.14993551659E+02  0.42360559306E+02  0.00000000000E+00 0. -1.
         11    1    4    4    0    0  0.44374895520E+02  0.28599803166E+02  0.73935602425E+00  0.52797980462E+02  0.00000000000E+00 0.  1.
</event>
<event>
 8    1  0.8619230E-006  0.1212099E+03  0.7561462E-02  0.1241114E+00
          1   -1    0    0  501    0  0.00000000000E+00  0.00000000000E+00  0.20576909659E+03  0.20576909659E+03  0.00000000000E+00 0. -1.
         -1   -1    0    0    0  501 -0.00000000000E+00 -0.00000000000E+00 -0.11967709028E+03  0.11967709028E+03  0.00000000000E+00 0.  1.
         23    2    1    2    0    0 -0.15762735496E+01  0.78456812262E+02 -0.38992197953E+02  0.15277439746E+03  0.12514659001E+03 0.  0.
         23    2    1    2    0    0  0.15762735496E+01 -0.78456812262E+02  0.12508420427E+03  0.17267178940E+03  0.89507165467E+02 0.  0.
          5    1    3    3  502    0  0.43873956570E+02  0.64017781023E+02  0.16534130001E+02  0.79460998025E+02  0.41800000000E+01 0.  1.
         -5    1    3    3    0  502 -0.45450230119E+02  0.14439031239E+02 -0.55526327954E+02  0.73313399437E+02  0.41800000000E+01 0.  1.
        -11    1    4    4    0    0  0.36408541774E+02 -0.66408928962E+01  0.25019782907E+02  0.44672955009E+02  0.00000000000E+00 0. -1.
         11    1    4    4    0    0 -0.34832268224E+02 -0.71815919366E+02  0.10006442136E+03  0.12799883440E+03  0.00000000000E+00 0.  1.
</event>
<event>
 8    1  0.8619230E-006  0.1636583E+03  0.7561462E-02  0.1184627E+00
         -1   -1    0    0    0  501 -0.00000000000E+00  0.00000000000E+00  0.21852349335E+03  0.21852349335E+03  0.00000000000E+00 0.  1.
          1   -1    0    0  501    0  0.00000000000E+00 -0.00000000000E+00 -0.19225671119E+03  0.19225671119E+03  0.00000000000E+00 0. -1.
         23    2    1    2    0    0 -0.25948448664E+02  0.16076848077E+03  0.72593964820E+02  0.21780339161E+03  0.12509439343E+03 0.  0.
         23    2    1    2    0    0  0.25948448664E+02 -0.16076848077E+03 -0.46327182669E+02  0.19297681293E+03  0.92595983054E+02 0.  0.
          5    1    3    3  502    0 -0.15915816309E+02  0.10967045561E+03 -0.18850195053E+02  0.11248877409E+03  0.41800000000E+01 0. -1.
         -5    1    3    3    0  502 -0.10032632354E+02  0.51098025162E+02  0.91444159873E+02  0.10531461751E+03  0.41800000000E+01 0. -1.
        -11    1    4    4    0    0 -0.30748949969E+01 -0.33534562267E+02 -0.52451231625E+02  0.62330999869E+02  0.00000000000E+00 0. -1.
         11    1    4    4    0    0  0.29023343660E+02 -0.12723391851E+03  0.61240489556E+01  0.13064581307E+03  0.00000000000E+00 0.  1.
</event>
<event>
 8    1  0.8619230E-006  0.1185895E+03  0.7561462E-02  0.1245442E+00
          3   -1    0    0  501    0  0.00000000000E+00  0.00000000000E+00  0.43939222005E+02  0.43939222005E+02  0.00000000000E+00 0. -1.
         -3   -1    0    0    0  501 -0.00000000000E+00 -0.00000000000E+00 -0.36038718151E+03  0.36038718151E+03  0.00000000000E+00 0.  1.
         23    2    1    2    0    0  0.19107271974E+02  0.59039749316E+02 -0.21615291656E+03  0.25733405530E+03  0.12509177766E+03 0.  0.
         23    2    1    2    0    0 -0.19107271974E+02 -0.59039749316E+02 -0.10029504295E+03  0.14699234822E+03  0.87731835459E+02 0.  0.
          5    1    3    3  502    0 -0.42529862698E+02  0.62133185269E+02 -0.94891330234E+02  0.12120709091E+03  0.41800000000E+01 0. -1.
         -5    1    3    3    0  502  0.61637134671E+02 -0.30934359536E+01 -0.12126158633E+03  0.13612696440E+03  0.41800000000E+01 0. -1.
        -11    1    4    4    0    0 -0.47871191500E+02 -0.51211629361E+02 -0.92714222807E+02  0.11623342492E+03  0.00000000000E+00 0.  1.
         11    1    4    4    0    0  0.28763919526E+02 -0.78281199553E+01 -0.75808201401E+01  0.30758923299E+02  0.00000000000E+00 0. -1.
</event>
<event>
 8    1  0.8619230E-006  0.1087557E+03  0.7561462E-02  0.1262892E+00
          1   -1    0    0  501    0  0.00000000000E+00  0.00000000000E+00  0.36402731981E+03  0.36402731981E+03  0.00000000000E+00 0. -1.
         -1   -1    0    0    0  501 -0.00000000000E+00 -0.00000000000E+00 -0.52150129467E+02  0.52150129467E+02  0.00000000000E+00 0.  1.
         23    2    1    2    0    0  0.19137695754E+02 -0.83768296325E+02  0.13280888221E+03  0.19750396919E+03  0.11826343383E+03 0.  0.
         23    2    1    2    0    0 -0.19137695754E+02  0.83768296325E+02  0.17906830813E+03  0.21867348009E+03  0.91483621755E+02 0.  0.
          5    1    3    3  502    0 -0.76967192492E+01 -0.67860130143E+02  0.81189667376E+01  0.68903024397E+02  0.41800000000E+01 0.  1.
         -5    1    3    3    0  502  0.26834415003E+02 -0.15908166182E+02  0.12468991548E+03  0.12860094479E+03  0.41800000000E+01 0.  1.
        -11    1    4    4    0    0 -0.50563148730E+02  0.58237489318E+02  0.15052967886E+03  0.16913728562E+03  0.00000000000E+00 0. -1.
         11    1    4    4    0    0  0.31425452976E+02  0.25530807007E+02  0.28538629273E+02  0.49536194464E+02  0.00000000000E+00 0.  1.
</event>
<event>
 8    1  0.8619230E-006  0.1004481E+03  0.7561462E-02  0.1279356E+00
          1   -1    0    0  501    0  0.00000000000E+00  0.00000000000E+00  0.44483343829E+03  0.44483343829E+03  0.00000000000E+00 0. -1.
         -1   -1    0    0    0  501 -0.00000000000E+00 -0.00000000000E+00 -0.60587697359E+02  0.60587697359E+02  0.00000000000E+00 0.  1.
         23    2    1    2    0    0  0.21514510603E+02 -0.88915222224E+02  0.80455677122E+02  0.17459508797E+03  0.12506613391E+03 0.  0.
         23    2    1    2    0    0 -0.21514510603E+02  0.88915222224E+02  0.30379006381E+03  0.33082604768E+03  0.93747960233E+02 0.  0.
          5    1    3    3  502    0  0.72548869327E+01 -0.72683365944E+02 -0.16643641163E+02  0.75033247700E+02  0.41800000000E+01 0.  1.
         -5    1    3    3    0  502  0.14259623670E+02 -0.16231856280E+02  0.97099318285E+02  0.99561840265E+02  0.41800000000E+01 0.  1.
        -11    1    4    4    0    0 -0.17229419703E+02  0.53079692893E+00  0.32647805182E+01  0.17544042878E+02  0.00000000000E+00 0.  1.
         11    1    4    4    0    0 -0.42850909004E+01  0.88384425295E+02  0.30052528329E+03  0.31328200481E+03  0.00000000000E+00 0. -1.
</event>
<event>
 8    1  0.8619230E-006  0.1079101E+03  0.7561462E-02  0.1264490E+00
          1   -1    0    0  501    0  0.00000000000E+00  0.00000000000E+00  0.56293465814E+03  0.56293465814E+03  0.00000000000E+00 0. -1.
         -1   -1    0    0    0  501 -0.00000000000E+00 -0.00000000000E+00 -0.36754311608E+02  0.36754311608E+02  0.00000000000E+00 0.  1.
         23    2    1    2    0    0  0.63511371540E+02  0.61717197336E+02  0.22540206105E+03  0.27257217011E+03  0.12508713777E+03 0.  0.
         23    2    1    2    0    0 -0.63511371540E+02 -0.61717197336E+02  0.30077828548E+03  0.32711679963E+03  0.93247610273E+02 0.  0.
          5    1    3    3  502    0  0.22656681659E+02  0.37741392261E+02  0.21052965288E+01  0.44267850491E+02  0.41800000000E+01 0. -1.
         -5    1    3    3    0  502  0.40854689881E+02  0.23975805074E+02  0.22329676452E+03  0.22830431962E+03  0.41800000000E+01 0. -1.
        -11    1    4    4    0    0 -0.44202627216E+02  0.13637821680E+02  0.73009131405E+02  0.86430293888E+02  0.00000000000E+00 0.  1.
         11    1    4    4    0    0 -0.19308744324E+02 -0.75355019015E+02  0.22776915408E+03  0.24068650574E+03  0.00000000000E+00 0. -1.
</event>
<event>
 8    1  0.8619230E-006  0.1220257E+03  0.7561462E-02  0.1239792E+00
          1   -1    0    0  501    0  0.00000000000E+00  0.00000000000E+00  0.41509920227E+03  0.41509920227E+03  0.00000000000E+00 0. -1.
         -1   -1    0    0    0  501 -0.00000000000E+00 -0.00000000000E+00 -0.39380882657E+02  0.39380882657E+02  0.00000000000E+00 0.  1.
         23    2    1    2    0    0  0.69921645147E+02 -0.10195628177E+02  0.19893763868E+03  0.24539214491E+03  0.12509249941E+03 0.  0.
         23    2    1    2    0    0 -0.69921645147E+02  0.10195628177E+02  0.17678068093E+03  0.20908794001E+03  0.86448656512E+02 0.  0.
          5    1    3    3  502    0  0.16806327671E+02 -0.58180666551E+02  0.13993482318E+03  0.15253415929E+03  0.41800000000E+01 0.  1.
         -5    1    3    3    0  502  0.53115317476E+02  0.47985038374E+02  0.59002815497E+02  0.92857985628E+02  0.41800000000E+01 0.  1.
        -11    1    4    4    0    0 -0.76494488797E+01  0.41324084950E+02  0.65356838288E+02  0.77702705076E+02  0.00000000000E+00 0. -1.
         11    1    4    4    0    0 -0.62272196267E+02 -0.31128456773E+02  0.11142384264E+03  0.13138523493E+03  0.00000000000E+00 0.  1.
</event>
<event>
 8    1  0.8619230E-006  0.1185897E+03  0.7561462E-02  0.1245442E+00
          1   -1    0    0  501    0  0.00000000000E+00  0.00000000000E+00  0.30606485921E+03  0.30606485921E+03  0.00000000000E+00 0. -1.
         -1   -1    0    0    0  501 -0.00000000000E+00 -0.00000000000E+00 -0.69985890685E+02  0.69985890685E+02  0.00000000000E+00 0.  1.
         23    2    1    2    0    0  0.61082252888E+02 -0.87573866616E+02  0.94892596886E+02  0.18987595199E+03  0.12509215990E+03 0.  0.
         23    2    1    2    0    0 -0.61082252888E+02  0.87573866616E+02  0.14118637164E+03  0.18617479790E+03  0.57682233888E+02 0.  0.
          5    1    3    3  502    0  0.34996135788E+02 -0.83881393269E+02 -0.33180599973E+00  0.90985714000E+02  0.41800000000E+01 0. -1.
         -5    1    3    3    0  502  0.26086117100E+02 -0.36924733464E+01  0.95224402886E+02  0.98890237990E+02  0.41800000000E+01 0. -1.
        -11    1    4    4    0    0 -0.31632790430E+02  0.84115312548E+02  0.11910326664E+03  0.14920324179E+03  0.00000000000E+00 0. -1.
         11    1    4    4    0    0 -0.29449462458E+02  0.34585540680E+01  0.22083104997E+02  0.36971556116E+02  0.00000000000E+00 0.  1.
</event>
<event>
 8    1  0.8619230E-006  0.1197904E+03  0.7561462E-02  0.1243443E+00
         -2   -1    0    0    0  501 -0.00000000000E+00  0.00000000000E+00  0.35089077737E+03  0.35089077737E+03  0.00000000000E+00 0.  1.
          2   -1    0    0  501    0  0.00000000000E+00 -0.00000000000E+00 -0.56852980608E+02  0.56852980608E+02  0.00000000000E+00 0. -1.
         23    2    1    2    0    0 -0.47792283633E+00 -0.81523309127E+02  0.14264429838E+03  0.20650151406E+03  0.12509676697E+03 0.  0.
         23    2    1    2    0    0  0.47792283633E+00  0.81523309127E+02  0.15139349839E+03  0.20124224392E+03  0.10455702293E+03 0.  0.
          5    1    3    3  502    0  0.50942233041E+02 -0.26195538757E+02  0.11003753481E+03  0.12412513374E+03  0.41800000000E+01 0. -1.
         -5    1    3    3    0  502 -0.51420155878E+02 -0.55327770370E+02  0.32606763570E+02  0.82376380323E+02  0.41800000000E+01 0. -1.
        -11    1    4    4    0    0 -0.32286368825E+02  0.57231054369E+02  0.14599254608E+03  0.16009880295E+03  0.00000000000E+00 0.  1.
         11    1    4    4    0    0  0.32764291662E+02  0.24292254758E+02  0.54009523102E+01  0.41143440974E+02  0.00000000000E+00 0. -1.
</event>
<event>
 8    1  0.8619230E-006  0.1083529E+03  0.7561462E-02  0.1263651E+00
          2   -1    0    0  501    0  0.00000000000E+00  0.00000000000E+00  0.34785989550E+03  0.34785989550E+03  0.00000000000E+00 0.  1.
         -2   -1    0    0    0  501 -0.00000000000E+00 -0.00000000000E+00 -0.53055490145E+02  0.53055490145E+02  0.00000000000E+00 0. -1.
         23    2    1    2    0    0  0.10884884765E+02  0.16881154112E+02  0.45396176368E+02  0.13467057915E+03  0.12518745137E+03 0.  0.
         23    2    1    2    0    0 -0.10884884765E+02 -0.16881154112E+02  0.24940822898E+03  0.26624480649E+03  0.90985593455E+02 0.  0.
          5    1    3    3  502    0 -0.10114586458E+02  0.69126405836E+02  0.20222563385E+02  0.72850458563E+02  0.41800000000E+01 0. -1.
         -5    1    3    3    0  502  0.20999471223E+02 -0.52245251724E+02  0.25173612983E+02  0.61820120592E+02  0.41800000000E+01 0. -1.
        -11    1    4    4    0    0 -0.41447180849E+02 -0.35411694122E+02  0.11665292811E+03  0.12876242666E+03  0.00000000000E+00 0. -1.
         11    1    4    4    0    0  0.30562296084E+02  0.18530540010E+02  0.13275530087E+03  0.13748237983E+03  0.00000000000E+00 0.  1.
</event>
<event>
 8    1  0.8619230E-006  0.9395732E+02  0.7561462E-02  0.1293542E+00
         -2   -1    0    0    0  501 -0.00000000000E+00  0.00000000000E+00  0.15902775255E+02  0.15902775255E+02  0.00000000000E+00 0.  1.
          2   -1    0    0  501    0  0.00000000000E+00 -0.00000000000E+00 -0.80749164921E+03  0.80749164921E+03  0.00000000000E+00 0. -1.
         23    2    1    2    0    0 -0.11044278109E+02 -0.11374704911E+02 -0.55536632415E+03  0.56950012242E+03  0.12508907004E+03 0.  0.
         23    2    1    2    0    0  0.11044278109E+02  0.11374704911E+02 -0.23622254980E+03  0.25389430204E+03  0.91705308377E+02 0.  0.
          5    1    3    3  502    0  0.30755142560E+02 -0.35187362871E+02 -0.46208939966E+03  0.46446540773E+03  0.41800000000E+01 0.  1.
         -5    1    3    3    0  502 -0.41799420670E+02  0.23812657960E+02 -0.93276924497E+02  0.10503471469E+03  0.41800000000E+01 0.  1.
        -11    1    4    4    0    0  0.50819238253E+02  0.14390982599E+02 -0.12342456274E+03  0.13425095174E+03  0.00000000000E+00 0.  1.
         11    1    4    4    0    0 -0.39774960144E+02 -0.30162776882E+01 -0.11279798706E+03  0.11964335030E+03  0.00000000000E+00 0. -1.
</event>
<event>
 8    1  0.8619230E-006  0.7731236E+02  0.7561462E-02  0.1336856E+00
         -2   -1    0    0    0  501 -0.00000000000E+00  0.00000000000E+00  0.67244181881E+02  0.67244181881E+02  0.00000000000E+00 0.  1.
          2   -1    0    0  501    0  0.00000000000E+00 -0.00000000000E+00 -0.19288948450E+03  0.19288948450E+03  0.00000000000E+00 0. -1.
         23    2    1    2    0    0  0.58424025977E+01  0.19020606200E+02 -0.41714533427E+02  0.13335373956E+03  0.12508877019E+03 0.  0.
         23    2    1    2    0    0 -0.58424025977E+01 -0.19020606200E+02 -0.83930769194E+02  0.12677992682E+03  0.92913178281E+02 0.  0.
          5    1    3    3  502    0 -0.50118599114E+02 -0.14519822243E+02  0.56099670112E+01  0.52646399164E+02  0.41800000000E+01 0. -1.
         -5    1    3    3    0  502  0.55961001712E+02  0.33540428443E+02 -0.47324500438E+02  0.80707340400E+02  0.41800000000E+01 0. -1.
        -11    1    4    4    0    0 -0.17996589069E+02 -0.16652413081E+02 -0.10198293588E+03  0.10488898555E+03  0.00000000000E+00 0. -1.
         11    1    4    4    0    0  0.12154186471E+02 -0.23681931189E+01  0.18052166686E+02  0.21890941266E+02  0.00000000000E+00 0.  1.
</event>
<event>
 8    1  0.8619230E-006  0.1431536E+03  0.7561462E-02  0.1209147E+00
         -2   -1    0    0    0  501 -0.00000000000E+00  0.00000000000E+00  0.27274350328E+02  0.27274350328E+02  0.00000000000E+00 0.  1.
          2   -1    0    0  501    0  0.00000000000E+00 -0.00000000000E+00 -0.10076237315E+04  0.10076237315E+04  0.00000000000E+00 0. -1.
         23    2    1    2    0    0 -0.92199921937E+02  0.40205297003E+02 -0.29163038171E+03  0.33288776829E+03  0.12509474503E+03 0.  0.
         23    2    1    2    0    0  0.92199921937E+02 -0.40205297003E+02 -0.68871899948E+03  0.70201031355E+03  0.91473102975E+02 0.  0.
          5    1    3    3  502    0 -0.11608428765E+03  0.50536212438E+02 -0.19348282239E+03  0.23126293600E+03  0.41800000000E+01 0. -1.
         -5    1    3    3    0  502  0.23884365715E+02 -0.10330915435E+02 -0.98147559314E+02  0.10162483229E+03  0.41800000000E+01 0. -1.
        -11    1    4    4    0    0  0.94362126599E+01  0.25762808361E+02 -0.93004197783E+02  0.96966722175E+02  0.00000000000E+00 0.  1.
         11    1    4    4    0    0  0.82763709277E+02 -0.65968105364E+02 -0.59571480170E+03  0.60504359137E+03  0.00000000000E+00 0. -1.
</event>
<event>
 8    1  0.8619230E-006  0.1673834E+03  0.7561462E-02  0.1180604E+00
         -1   -1    0    0    0  501 -0.00000000000E+00  0.00000000000E+00  0.19309407281E+03  0.19309407281E+03  0.00000000000E+00 0.  1.
          1   -1    0    0  501    0  0.00000000000E+00 -0.00000000000E+00 -0.17988286891E+03  0.17988286891E+03  0.00000000000E+00 0. -1.
         23    2    1    2    0    0  0.14771321455E+03 -0.31412783779E+02 -0.37327651869E+01  0.19611727005E+03  0.12506835466E+03 0.  0.
         23    2    1    2    0    0 -0.14771321455E+03  0.31412783779E+02  0.16943969091E+02  0.17685967167E+03  0.90478111358E+02 0.  0.
          5    1    3    3  502    0  0.58399788841E+02  0.20815983886E+02 -0.52790332176E+02  0.81536078474E+02  0.41800000000E+01 0. -1.
         -5    1    3    3    0  502  0.89313425713E+02 -0.52228767665E+02  0.49057566989E+02  0.11458119158E+03  0.41800000000E+01 0. -1.
        -11    1    4    4    0    0 -0.57680238267E+02  0.50939131469E+02 -0.16768378921E+02  0.78759021915E+02  0.00000000000E+00 0. -1.
         11    1    4    4    0    0 -0.90032976287E+02 -0.19526347690E+02  0.33712348012E+02  0.98100649751E+02  0.00000000000E+00 0.  1.
</event>
<event>
 8    1  0.8619230E-006  0.9066636E+02  0.7561462E-02  0.1301246E+00
         -2   -1    0    0    0  501 -0.00000000000E+00  0.00000000000E+00  0.73369931379E+02  0.73369931379E+02  0.00000000000E+00 0.  1.
          2   -1    0    0  501    0  0.00000000000E+00 -0.00000000000E+00 -0.28280101074E+03  0.28280101074E+03  0.00000000000E+00 0. -1.
         23    2    1    2    0    0  0.48632757770E+02 -0.29962877200E+02 -0.25111009483E+02  0.13978372768E+03  0.12508400613E+03 0.  0.
         23    2    1    2    0    0 -0.48632757770E+02  0.29962877200E+02 -0.18432006988E+03  0.21638721444E+03  0.97911282664E+02 0.  0.
          5    1    3    3  502    0  0.52892519319E+02 -0.37962388995E+00  0.41036910416E+02  0.67076546801E+02  0.41800000000E+01 0. -1.
         -5    1    3    3    0  502 -0.42597615494E+01 -0.29583253310E+02 -0.66147919900E+02  0.72707180883E+02  0.41800000000E+01 0. -1.
        -11    1    4    4    0    0 -0.67945932566E+02  0.73278024743E+01 -0.68325258613E+02  0.96636884294E+02  0.00000000000E+00 0.  1.
         11    1    4    4    0    0  0.19313174797E+02  0.22635074726E+02 -0.11599481127E+03  0.11975033015E+03  0.00000000000E+00 0. -1.
</event>
<event>
 8    1  0.8619230E-006  0.9535659E+02  0.7561462E-02  0.1290375E+00
          3   -1    0    0  501    0  0.00000000000E+00  0.00000000000E+00  0.29033162541E+02  0.29033162541E+02  0.00000000000E+00 0. -1.
         -3   -1    0    0    0  501 -0.00000000000E+00 -0.00000000000E+00 -0.55292061795E+03  0.55292061795E+03  0.00000000000E+00 0.  1.
         23    2    1    2    0    0 -0.29316627836E+02 -0.62493371632E+02 -0.24335608346E+03  0.27945284382E+03  0.11877214486E+03 0.  0.
         23    2    1    2    0    0  0.29316627836E+02  0.62493371632E+02 -0.28053137195E+03  0.30250093667E+03  0.89688794592E+02 0.  0.
          5    1    3    3  502    0 -0.25586441924E+02 -0.89745347943E+02 -0.11521832320E+03  0.14832945725E+03  0.41800000000E+01 0. -1.
         -5    1    3    3    0  502 -0.37301859119E+01  0.27251976310E+02 -0.12813776026E+03  0.13112338657E+03  0.41800000000E+01 0.  1.
        -11    1    4    4    0    0  0.63473769546E+01  0.22267598809E+02 -0.57705766825E+01  0.23862831059E+02  0.00000000000E+00 0. -1.
         11    1    4    4    0    0  0.22969250882E+02  0.40225772824E+02 -0.27476079526E+03  0.27863810561E+03  0.00000000000E+00 0.  1.
</event>
<event>
 8    1  0.8619230E-006  0.1590532E+03  0.7561462E-02  0.1189770E+00
         -1   -1    0    0    0  501 -0.00000000000E+00  0.00000000000E+00  0.25052054944E+02  0.25052054944E+02  0.00000000000E+00 0.  1.
          1   -1    0    0  501    0  0.00000000000E+00 -0.00000000000E+00 -0.12064352919E+04  0.12064352919E+04  0.00000000000E+00 0. -1.
         23    2    1    2    0    0  0.68532758973E+02 -0.11997402785E+03 -0.59654753265E+03  0.62360982928E+03  0.11802437904E+03 0.  0.
         23    2    1    2    0    0 -0.68532758973E+02  0.11997402785E+03 -0.58483570431E+03  0.60787751757E+03  0.91606598683E+02 0.  0.
          5    1    3    3  502    0  0.72952405207E+02 -0.12485743409E+03 -0.59836083090E+03  0.61560099791E+03  0.41800000000E+01 0. -1.
         -5    1    3    3    0  502 -0.44196462345E+01  0.48834062392E+01  0.18132982477E+01  0.80088313673E+01  0.41800000000E+01 0.  1.
        -11    1    4    4    0    0 -0.26402077088E+02  0.12064621111E+03 -0.42492066817E+03  0.44250440921E+03  0.00000000000E+00 0.  1.
         11    1    4    4    0    0 -0.42130681885E+02 -0.67218325951E+00 -0.15991503614E+03  0.16537310836E+03  0.00000000000E+00 0. -1.
</event>
<event>
 8    1  0.8619230E-006  0.2192483E+03  0.7561462E-02  0.1134445E+00
          1   -1    0    0  501    0  0.00000000000E+00  0.00000000000E+00  0.38925825903E+03  0.38925825903E+03  0.00000000000E+00 0. -1.
         -1   -1    0    0    0  501 -0.00000000000E+00 -0.00000000000E+00 -0.15518896135E+03  0.15518896135E+03  0.00000000000E+00 0.  1.
         23    2    1    2    0    0  0.20076860454E+03  0.63338227180E+02  0.49676169884E+02  0.24986919457E+03  0.12508848447E+03 0.  0.
         23    2    1    2    0    0 -0.20076860454E+03 -0.63338227180E+02  0.18439312780E+03  0.29457802581E+03  0.91954467647E+02 0.  0.
          5    1    3    3  502    0  0.18952161619E+03  0.29513122999E+02  0.41485557333E+01  0.19189619680E+03  0.41800000000E+01 0.  1.
         -5    1    3    3    0  502  0.11246988354E+02  0.33825104180E+02  0.45527614150E+02  0.57972997767E+02  0.41800000000E+01 0.  1.
        -11    1    4    4    0    0 -0.28246937133E+02 -0.12579250484E+02 -0.72621057955E+01  0.31762638126E+02  0.00000000000E+00 0.  1.
         11    1    4    4    0    0 -0.17252166741E+03 -0.50758976695E+02  0.19165523359E+03  0.26281538769E+03  0.00000000000E+00 0. -1.
</event>
<event>
 8    1  0.8619230E-006  0.1289194E+03  0.7561462E-02  0.1229068E+00
          2   -1    0    0  501    0  0.00000000000E+00  0.00000000000E+00  0.74893647582E+03  0.74893647582E+03  0.00000000000E+00 0.  1.
         -2   -1    0    0    0  501 -0.00000000000E+00 -0.00000000000E+00 -0.23775899057E+02  0.23775899057E+02  0.00000000000E+00 0. -1.
         23    2    1    2    0    0 -0.44049452087E+02 -0.61913262670E+02  0.41427459524E+03  0.43936871102E+03  0.12509123725E+03 0.  0.
         23    2    1    2    0    0  0.44049452087E+02  0.61913262670E+02  0.31088598152E+03  0.33334366386E+03  0.93243221760E+02 0.  0.
          5    1    3    3  502    0  0.44162164754E+01 -0.88670937776E+02  0.21880781655E+03  0.23617021649E+03  0.41800000000E+01 0. -1.
         -5    1    3    3    0  502 -0.48465668562E+02  0.26757675106E+02  0.19546677870E+03  0.20319849453E+03  0.41800000000E+01 0. -1.
        -11    1    4    4    0    0  0.10016658716E+02 -0.21299471519E+02  0.12077032380E+03  0.12304256194E+03  0.00000000000E+00 0.  1.
         11    1    4    4    0    0  0.34032793371E+02  0.83212734189E+02  0.19011565773E+03  0.21030110192E+03  0.00000000000E+00 0. -1.
</event>
<event>
 8    1  0.8619230E-006  0.1339071E+03  0.7561462E-02  0.1221771E+00
          1   -1    0    0  501    0  0.00000000000E+00  0.00000000000E+00  0.31221142315E+03  0.31221142315E+03  0.00000000000E+00 0. -1.
         -1   -1    0    0    0  501 -0.00000000000E+00 -0.00000000000E+00 -0.74226334021E+02  0.74226334021E+02  0.00000000000E+00 0.  1.
         23    2    1    2    0    0 -0.99397306648E+02  0.33764007555E+02  0.10051443993E+03  0.19175972786E+03  0.12509519504E+03 0.  0.
         23    2    1    2    0    0  0.99397306648E+02 -0.33764007555E+02  0.13747064921E+03  0.19467802931E+03  0.89339369424E+02 0.  0.
          5    1    3    3  502    0 -0.31863945009E+02  0.60588876023E+02  0.11564862722E+01  0.68593970214E+02  0.41800000000E+01 0. -1.
         -5    1    3    3    0  502 -0.67533361639E+02 -0.26824868468E+02  0.99357953653E+02  0.12316575765E+03  0.41800000000E+01 0. -1.
        -11    1    4    4    0    0  0.10072316032E+03 -0.48399706301E+02  0.85600293113E+02  0.14076610663E+03  0.00000000000E+00 0.  1.
         11    1    4    4    0    0 -0.13258536762E+01  0.14635698746E+02  0.51870356094E+02  0.53911922680E+02  0.00000000000E+00 0. -1.
</event>
<event>
 8    1  0.8619230E-006  0.9221994E+02  0.7561462E-02  0.1297563E+00
          2   -1    0    0  501    0  0.00000000000E+00  0.00000000000E+00  0.53371623298E+03  0.53371623298E+03  0.00000000000E+00 0.  1.
         -2   -1    0    0    0  501 -0.00000000000E+00 -0.00000000000E+00 -0.31533256537E+02  0.31533256537E+02  0.00000000000E+00 0. -1.
         23    2    1    2    0    0 -0.41189917282E+02  0.54102159636E+02  0.26487348962E+03  0.30071448568E+03  0.12509030110E+03 0.  0.
         23    2    1    2    0    0  0.41189917282E+02 -0.54102159636E+02  0.23730948682E+03  0.26453500384E+03  0.95075353050E+02 0.  0.
          5    1    3    3  502    0 -0.45595233174E+00  0.22784075655E+02 -0.68372146907E+01  0.24156611946E+02  0.41800000000E+01 0.  1.
         -5    1    3    3    0  502 -0.40733964950E+02  0.31318083981E+02  0.27171070432E+03  0.27655787373E+03  0.41800000000E+01 0.  1.
        -11    1    4    4    0    0 -0.22371075785E+02 -0.38088555813E+02  0.53447811496E+02  0.69338817912E+02  0.00000000000E+00 0. -1.
         11    1    4    4    0    0  0.63560993067E+02 -0.16013603823E+02  0.18386167532E+03  0.19519618593E+03  0.00000000000E+00 0.  1.
</event>
<event>
 8    1  0.8619230E-006  0.1278621E+03  0.7561462E-02  0.1230663E+00
          1   -1    0    0  501    0  0.00000000000E+00  0.00000000000E+00  0.17385171548E+03  0.17385171548E+03  0.00000000000E+00 0. -1.
         -1   -1    0    0    0  501 -0.00000000000E+00 -0.00000000000E+00 -0.10159166598E+03  0.10159166598E+03  0.00000000000E+00 0.  1.
         23    2    1    2    0    0  0.70857083247E+02 -0.25386494780E+02  0.56729528033E+02  0.15662224980E+03  0.12508832647E+03 0.  0.
         23    2    1    2    0    0 -0.70857083247E+02  0.25386494780E+02  0.15530521463E+02  0.11882113166E+03  0.90620438476E+02 0.  0.
          5    1    3    3  502    0 -0.35570161647E+02 -0.79414688752E+00  0.68698183734E+01  0.36476483841E+02  0.41800000000E+01 0. -1.
         -5    1    3    3    0  502  0.10642724489E+03 -0.24592347892E+02  0.49859709659E+02  0.12014576596E+03  0.41800000000E+01 0. -1.
        -11    1    4    4    0    0 -0.22077538743E+02  0.50942088296E+02  0.28262618458E+02  0.62299997424E+02  0.00000000000E+00 0.  1.
         11    1    4    4    0    0 -0.48779544504E+02 -0.25555593516E+02 -0.12732096995E+02  0.56521134241E+02  0.00000000000E+00 0. -1.
</event>
<event>
 8    1  0.8619230E-006  0.8696511E+02  0.7561462E-02  0.1310372E+00
         -3   -1    0    0    0  501 -0.00000000000E+00  0.00000000000E+00  0.39025948765E+02  0.39025948765E+02  0.00000000000E+00 0.  1.
          3   -1    0    0  501    0  0.00000000000E+00 -0.00000000000E+00 -0.53000595034E+03  0.53000595034E+03  0.00000000000E+00 0. -1.
         23    2    1    2    0    0 -0.31016785788E+02 -0.50317782549E+02 -0.12383084514E+03  0.18568368296E+03  0.12510168532E+03 0.  0.
         23    2    1    2    0    0  0.31016785788E+02  0.50317782549E+02 -0.36714915643E+03  0.38334821614E+03  0.93077556414E+02 0.  0.
          5    1    3    3  502    0 -0.16617436338E+02 -0.45410833261E+02  0.11136551010E+02  0.49797370776E+02  0.41800000000E+01 0. -1.
         -5    1    3    3    0  502 -0.14399349451E+02 -0.49069492888E+01 -0.13496739615E+03  0.13588631219E+03  0.41800000000E+01 0. -1.
        -11    1    4    4    0    0  0.60996759390E+02  0.51181960707E+02 -0.28417940787E+03  0.29512392925E+03  0.00000000000E+00 0. -1.
         11    1    4    4    0    0 -0.29979973602E+02 -0.86417815799E+00 -0.82969748558E+02  0.88224286888E+02  0.00000000000E+00 0.  1.
</event>
<event>
 8    1  0.8619230E-006  0.1038261E+03  0.7561462E-02  0.1272450E+00
         -2   -1    0    0    0  501 -0.00000000000E+00  0.00000000000E+00  0.94190858857E+02  0.94190858857E+02  0.00000000000E+00 0.  1.
          2   -1    0    0  501    0  0.00000000000E+00 -0.00000000000E+00 -0.13894972479E+03  0.13894972479E+03  0.00000000000E+00 0. -1.
         23    2    1    2    0    0  0.34809200631E+02 -0.71875088244E+00  0.69098452941E+01  0.13002729032E+03  0.12508858147E+03 0.  0.
         23    2    1    2    0    0 -0.34809200631E+02  0.71875088244E+00 -0.51668711229E+02  0.10311329333E+03  0.82161417288E+02 0.  0.
          5    1    3    3  502    0  0.75977392079E+02  0.24964943901E+02 -0.37538021687E+01  0.80170917182E+02  0.41800000000E+01 0.  1.
         -5    1    3    3    0  502 -0.41168191448E+02 -0.25683694783E+02  0.10663647463E+02  0.49856373133E+02  0.41800000000E+01 0.  1.
        -11    1    4    4    0    0  0.75891869851E+01  0.27626937232E+02  0.30885738393E+01  0.28816361815E+02  0.00000000000E+00 0.  1.
         11    1    4    4    0    0 -0.42398387616E+02 -0.26908186349E+02 -0.54757285069E+02  0.74296931519E+02  0.00000000000E+00 0. -1.
</event>
<event>
 8    1  0.8619230E-006  0.8747424E+02  0.7561462E-02  0.1309086E+00
         -2   -1    0    0    0  501 -0.00000000000E+00  0.00000000000E+00  0.40699870291E+02  0.40699870291E+02  0.00000000000E+00 0.  1.
          2   -1    0    0  501    0  0.00000000000E+00 -0.00000000000E+00 -0.33802316249E+03  0.33802316249E+03  0.00000000000E+00 0. -1.
         23    2    1    2    0    0  0.34752300587E+02 -0.22757876968E+01 -0.12144044479E+03  0.17778453214E+03  0.12508659653E+03 0.  0.
         23    2    1    2    0    0 -0.34752300587E+02  0.22757876968E+01 -0.17588284741E+03  0.20093850064E+03  0.90711649862E+02 0.  0.
          5    1    3    3  502    0 -0.22596588349E+02  0.68236709791E+00 -0.11787623721E+03  0.12009725696E+03  0.41800000000E+01 0.  1.
         -5    1    3    3    0  502  0.57348888936E+02 -0.29581547947E+01 -0.35642075748E+01  0.57687275179E+02  0.41800000000E+01 0.  1.
        -11    1    4    4    0    0 -0.34098375615E+01 -0.40892718748E+02 -0.53424135862E+02  0.67364528732E+02  0.00000000000E+00 0.  1.
         11    1    4    4    0    0 -0.31342463025E+02  0.43168506444E+02 -0.12245871155E+03  0.13357397191E+03  0.00000000000E+00 0. -1.
</event>
<event>
 8    1  0.8619230E-006  0.9715174E+02  0.7561462E-02  0.1286402E+00
          1   -1    0    0  501    0  0.00000000000E+00  0.00000000000E+00  0.69332126071E+02  0.69332126071E+02  0.00000000000E+00 0.  1.
         -1   -1    0    0    0  501 -0.00000000000E+00 -0.00000000000E+00 -0.20360016771E+03  0.20360016771E+03  0.00000000000E+00 0. -1.
         23    2    1    2    0    0 -0.40803780019E+02 -0.13796102582E+02 -0.10150146002E+03  0.16675301454E+03  0.12509492621E+03 0.  0.
         23    2    1    2    0    0  0.40803780019E+02  0.13796102582E+02 -0.32766581617E+02  0.10617927923E+03  0.91351571180E+02 0.  0.
          5    1    3    3  502    0  0.15239257370E+02 -0.55184310198E+02 -0.23341935149E+02  0.61966615155E+02  0.41800000000E+01 0.  1.
         -5    1    3    3    0  502 -0.56043037389E+02  0.41388207616E+02 -0.78159524868E+02  0.10478639939E+03  0.41800000000E+01 0.  1.
        -11    1    4    4    0    0  0.40835355296E+02 -0.11015562624E+02 -0.57344676323E+02  0.71255040275E+02  0.00000000000E+00 0. -1.
         11    1    4    4    0    0 -0.31575276683E-01  0.24811665206E+02  0.24578094706E+02  0.34924238957E+02  0.00000000000E+00 0.  1.
</event>
<event>
 8    1  0.8619230E-006  0.9832914E+02  0.7561462E-02  0.1283849E+00
          2   -1    0    0  501    0  0.00000000000E+00  0.00000000000E+00  0.49279064353E+03  0.49279064353E+03  0.00000000000E+00 0. -1.
         -2   -1    0    0    0  501 -0.00000000000E+00 -0.00000000000E+00 -0.28242853674E+02  0.28242853674E+02  0.00000000000E+00 0.  1.
         23    2    1    2    0    0 -0.12000865336E+02  0.21635714316E+02  0.18265700111E+03  0.22275674393E+03  0.12507942281E+03 0.  0.
         23    2    1    2    0    0  0.12000865336E+02 -0.21635714316E+02  0.28189078875E+03  0.29827675327E+03  0.94310550090E+02 0.  0.
          5    1    3    3  502    0 -0.19690881192E+01 -0.41932804731E+02  0.13802443477E+03  0.14432759408E+03  0.41800000000E+01 0.  1.
         -5    1    3    3    0  502 -0.10031777217E+02  0.63568519047E+02  0.44632566337E+02  0.78429149848E+02  0.41800000000E+01 0.  1.
        -11    1    4    4    0    0  0.42701309230E+02  0.12084707396E+02  0.81879637312E+02  0.93132792125E+02  0.00000000000E+00 0.  1.
         11    1    4    4    0    0 -0.30700443893E+02 -0.33720421713E+02  0.20001115144E+03  0.20514396115E+03  0.00000000000E+00 0. -1.
</event>
<event>
 8    1  0.8619230E-006  0.1021856E+03  0.7561462E-02  0.1275766E+00
         -3   -1    0    0    0  501 -0.00000000000E+00  0.00000000000E+00  0.60840669716E+02  0.60840669716E+02  0.00000000000E+00 0.  1.
          3   -1    0    0  501    0  0.00000000000E+00 -0.00000000000E+00 -0.25326313589E+03  0.25326313589E+03  0.00000000000E+00 0. -1.
         23    2    1    2    0    0  0.43786473870E+02 -0.35424810825E+01 -0.84005940281E+02  0.15695335178E+03  0.12509017614E+03 0.  0.
         23    2    1    2    0    0 -0.43786473870E+02  0.35424810825E+01 -0.10841652589E+03  0.15715045382E+03  0.10493959016E+03 0.  0.
          5    1    3    3  502    0  0.61792901670E+02  0.35429138497E+02 -0.11052558151E+02  0.72202617633E+02  0.41800000000E+01 0. -1.
         -5    1    3    3    0  502 -0.18006427800E+02 -0.38971619579E+02 -0.72953382130E+02  0.84750734150E+02  0.41800000000E+01 0. -1.
        -11    1    4    4    0    0 -0.31446299672E+02  0.40297394902E+02 -0.10673459186E+03  0.11834281938E+03  0.00000000000E+00 0. -1.
         11    1    4    4    0    0 -0.12340174198E+02 -0.36754913820E+02 -0.16819340344E+01  0.38807634445E+02  0.00000000000E+00 0.  1.
</event>
<event>
 8    1  0.8619230E-006  0.1771975E+03  0.7561462E-02  0.1170543E+00
          1   -1    0    0  501    0  0.00000000000E+00  0.00000000000E+00  0.39501439903E+03  0.39501439903E+03  0.00000000000E+00 0. -1.
         -1   -1    0    0    0  501 -0.00000000000E+00 -0.00000000000E+00 -0.13219431978E+03  0.13219431978E+03  0.00000000000E+00 0.  1.
         23    2    1    2    0    0  0.14537554811E+03 -0.93321838685E+02  0.19400562253E+02  0.21416546183E+03  0.12508975841E+03 0.  0.
         23    2    1    2    0    0 -0.14537554811E+03  0.93321838685E+02  0.24341951700E+03  0.31304325698E+03  0.94339832105E+02 0.  0.
          5    1    3    3  502    0  0.13474480872E+03 -0.63223528770E+02  0.61557888699E+02  0.16112176802E+03  0.41800000000E+01 0.  1.
         -5    1    3    3    0  502  0.10630739389E+02 -0.30098309915E+02 -0.42157326446E+02  0.53043693808E+02  0.41800000000E+01 0.  1.
        -11    1    4    4    0    0 -0.32411668158E+02  0.14197803355E+02  0.25418143006E+01  0.35476114117E+02  0.00000000000E+00 0.  1.
         11    1    4    4    0    0 -0.11296387996E+03  0.79124035330E+02  0.24087770270E+03  0.27756714286E+03  0.00000000000E+00 0. -1.
</event>
<event>
 7    1  0.8619230E-006  0.1121574E+03  0.7561462E-02  0.1256626E+00
         -2   -1    0    0    0  501 -0.00000000000E+00  0.00000000000E+00  0.61435642122E+03  0.61435642122E+03  0.00000000000E+00 0.  1.
          2   -1    0    0  501    0  0.00000000000E+00 -0.00000000000E+00 -0.47539446968E+02  0.47539446968E+02  0.00000000000E+00 0. -1.
         23    2    1    2    0    0 -0.18167995242E+01 -0.28804218777E+02  0.10965625997E+03  0.14641499079E+03  0.92627589825E+02 0.  0.
          5    1    1    2  502    0 -0.18212742001E+02 -0.69374418294E+02  0.31998033645E+02  0.78650241207E+02  0.41800000000E+01 0. -1.
         -5    1    1    2    0  502  0.20029541525E+02  0.98178637071E+02  0.42516268064E+03  0.43683063619E+03  0.41800000000E+01 0.  1.
        -11    1    3    3    0    0  0.19515019209E+02 -0.48592294082E+01  0.11244114973E+03  0.11422547981E+03  0.00000000000E+00 0.  1.
         11    1    3    3    0    0 -0.21331818733E+02 -0.23944989369E+02 -0.27848897543E+01  0.32189510983E+02  0.00000000000E+00 0. -1.
</event>
<event>
 8    1  0.8619230E-006  0.1094385E+03  0.7561462E-02  0.1261613E+00
          4   -1    0    0  501    0  0.00000000000E+00  0.00000000000E+00  0.57088221370E+02  0.57088221370E+02  0.00000000000E+00 0. -1.
         -4   -1    0    0    0  501 -0.00000000000E+00 -0.00000000000E+00 -0.38224986401E+03  0.38224986401E+03  0.00000000000E+00 0.  1.
         23    2    1    2    0    0 -0.72723781309E+02 -0.26066472336E+02 -0.26152135502E+03  0.30001631662E+03  0.12509261272E+03 0.  0.
         23    2    1    2    0    0  0.72723781309E+02  0.26066472336E+02 -0.63640287621E+02  0.13932176876E+03  0.96913671350E+02 0.  0.
          5    1    3    3  502    0 -0.95941069817E+02  0.10839941744E+02 -0.13423820901E+03  0.16540726215E+03  0.41800000000E+01 0. -1.
         -5    1    3    3    0  502  0.23217288508E+02 -0.36906414080E+02 -0.12728314602E+03  0.13460905447E+03  0.41800000000E+01 0. -1.
        -11    1    4    4    0    0  0.36713334195E+02  0.20337383163E+02 -0.86598444098E+02  0.96232887215E+02  0.00000000000E+00 0.  1.
         11    1    4    4    0    0  0.36010447114E+02  0.57290891728E+01  0.22958156477E+02  0.43088881547E+02  0.00000000000E+00 0. -1.
</event>
<event>
 8    1  0.8619230E-006  0.1254321E+03  0.7561462E-02  0.1234395E+00
         -3   -1    0    0    0  501 -0.00000000000E+00  0.00000000000E+00  0.14512025439E+03  0.14512025439E+03  0.00000000000E+00 0.  1.
          3   -1    0    0  501    0  0.00000000000E+00 -0.00000000000E+00 -0.15108105250E+03  0.15108105250E+03  0.00000000000E+00 0. -1.
         23    2    1    2    0    0  0.80173461513E+02 -0.56614106304E+02  0.18437483818E+02  0.16006229351E+03  0.12508819301E+03 0.  0.
         23    2    1    2    0    0 -0.80173461513E+02  0.56614106304E+02 -0.24398281931E+02  0.13613901339E+03  0.91135140539E+02 0.  0.
          5    1    3    3  502    0  0.88014309190E+02 -0.15742394247E+02 -0.31529753917E+02  0.94899627928E+02  0.41800000000E+01 0. -1.
         -5    1    3    3    0  502 -0.78408476771E+01 -0.40871712057E+02  0.49967237735E+02  0.65162665581E+02  0.41800000000E+01 0. -1.
        -11    1    4    4    0    0  0.11125420359E+02 -0.16149020787E+01 -0.25476370025E+02  0.27846513543E+02  0.00000000000E+00 0. -1.
         11    1    4    4    0    0 -0.91298881872E+02  0.58229008383E+02  0.10780880941E+01  0.10829249984E+03  0.00000000000E+00 0.  1.
</event>
<event>
 8    1  0.8619230E-006  0.9370308E+02  0.7561462E-02  0.1294124E+00
          1   -1    0    0  501    0  0.00000000000E+00  0.00000000000E+00  0.30252488873E+02  0.30252488873E+02  0.00000000000E+00 0. -1.
         -1   -1    0    0    0  501 -0.00000000000E+00 -0.00000000000E+00 -0.39373912068E+03  0.39373912068E+03  0.00000000000E+00 0.  1.
         23    2    1    2    0    0 -0.47948159699E+01 -0.46202362416E+01 -0.20823050206E+03  0.24300528793E+03  0.12508913275E+03 0.  0.
         23    2    1    2    0    0  0.47948159699E+01  0.46202362416E+01 -0.15525612975E+03  0.18098632162E+03  0.92775244251E+02 0.  0.
          5    1    3    3  502    0 -0.48773527085E+02  0.28276367763E+02 -0.16035016188E+03  0.17002369463E+03  0.41800000000E+01 0. -1.
         -5    1    3    3    0  502  0.43978711115E+02 -0.32896604005E+02 -0.47880340175E+02  0.72981593307E+02  0.41800000000E+01 0. -1.
        -11    1    4    4    0    0 -0.23618557444E+02  0.29664761654E+02 -0.25203747806E+02  0.45530904265E+02  0.00000000000E+00 0. -1.
         11    1    4    4    0    0  0.28413373414E+02 -0.25044525412E+02 -0.13005238194E+03  0.13545541736E+03  0.00000000000E+00 0.  1.
</event>
<event>
 8    1  0.8619230E-006  0.1032765E+03  0.7561462E-02  0.1273553E+00
         -4   -1    0    0    0  501 -0.00000000000E+00  0.00000000000E+00  0.45434302941E+03  0.45434302941E+03  0.00000000000E+00 0.  1.
          4   -1    0    0  501    0  0.00000000000E+00 -0.00000000000E+00 -0.49745306552E+02  0.49745306552E+02  0.00000000000E+00 0. -1.
         23    2    1    2    0    0 -0.92645996939E+02 -0.60389066469E+01  0.29034726729E+03  0.32949780739E+03  0.12509004879E+03 0.  0.
         23    2    1    2    0    0  0.92645996939E+02  0.60389066469E+01  0.11425045556E+03  0.17459052857E+03  0.93855937100E+02 0.  0.
          5    1    3    3  502    0 -0.31349566113E+02 -0.18124830291E-01  0.25775724868E+03  0.25969032957E+03  0.41800000000E+01 0.  1.
         -5    1    3    3    0  502 -0.61296430826E+02 -0.60207818166E+01  0.32590018608E+02  0.69807477813E+02  0.41800000000E+01 0.  1.
        -11    1    4    4    0    0 -0.10141425288E+02  0.19291914791E+01 -0.92487248988E+01  0.13860346276E+02  0.00000000000E+00 0. -1.
         11    1    4    4    0    0  0.10278742223E+03  0.41097151678E+01  0.12349918046E+03  0.16073018230E+03  0.00000000000E+00 0.  1.
</event>
<event>
 8    1  0.8619230E-006  0.1441979E+03  0.7561462E-02  0.1207789E+00
         -1   -1    0    0    0  501 -0.00000000000E+00  0.00000000000E+00  0.14013891698E+03  0.14013891698E+03  0.00000000000E+00 0.  1.
          1   -1    0    0  501    0  0.00000000000E+00 -0.00000000000E+00 -0.23604847239E+03  0.23604847239E+03  0.00000000000E+00 0. -1.
         23    2    1    2    0    0 -0.73184516197E+02 -0.11825032034E+03 -0.15053554456E+02  0.18765279412E+03  0.12509136648E+03 0.  0.
         23    2    1    2    0    0  0.73184516197E+02  0.11825032034E+03 -0.80856000959E+02  0.18853459525E+03  0.98328475233E+02 0.  0.
          5    1    3    3  502    0 -0.79621377137E+02 -0.10205227856E+03 -0.57409739845E+02  0.14166009278E+03  0.41800000000E+01 0. -1.
         -5    1    3    3    0  502  0.64368609402E+01 -0.16198041778E+02  0.42356185388E+02  0.45992701343E+02  0.41800000000E+01 0. -1.
        -11    1    4    4    0    0  0.24446865665E+02  0.61375789538E+02 -0.91525062105E+02  0.11287813684E+03  0.00000000000E+00 0. -1.
         11    1    4    4    0    0  0.48737650532E+02  0.56874530803E+02  0.10669061146E+02  0.75656458410E+02  0.00000000000E+00 0.  1.
</event>
<event>
 8    1  0.8619230E-006  0.1154566E+03  0.7561462E-02  0.1250786E+00
         -2   -1    0    0    0  501 -0.00000000000E+00  0.00000000000E+00  0.21710709270E+03  0.21710709270E+03  0.00000000000E+00 0.  1.
          2   -1    0    0  501    0  0.00000000000E+00 -0.00000000000E+00 -0.78189220568E+02  0.78189220568E+02  0.00000000000E+00 0. -1.
         23    2    1    2    0    0  0.79180112291E+01 -0.72852861864E+02  0.66683999552E+02  0.15957693434E+03  0.12509119791E+03 0.  0.
         23    2    1    2    0    0 -0.79180112291E+01  0.72852861864E+02  0.72233872580E+02  0.13571937893E+03  0.88497362021E+02 0.  0.
          5    1    3    3  502    0 -0.85475097512E+01 -0.93446181224E+02  0.85420479203E+02  0.12696211788E+03  0.41800000000E+01 0.  1.
         -5    1    3    3    0  502  0.16465520980E+02  0.20593319360E+02 -0.18736479651E+02  0.32614816466E+02  0.41800000000E+01 0.  1.
        -11    1    4    4    0    0  0.26861545597E+02  0.70482687569E+02  0.30549507400E+02  0.81379507747E+02  0.00000000000E+00 0. -1.
         11    1    4    4    0    0 -0.34779556826E+02  0.23701742944E+01  0.41684365181E+02  0.54339871179E+02  0.00000000000E+00 0.  1.
</event>
<event>
 8    1  0.8619230E-006  0.9188961E+02  0.7561462E-02  0.1298339E+00
          3   -1    0    0  501    0  0.00000000000E+00  0.00000000000E+00  0.11714645011E+03  0.11714645011E+03  0.00000000000E+00 0. -1.
         -3   -1    0    0    0  501 -0.00000000000E+00 -0.00000000000E+00 -0.12052431553E+03  0.12052431553E+03  0.00000000000E+00 0.  1.
         23    2    1    2    0    0 -0.21637612969E+02  0.72211483251E+01 -0.35886477333E+02  0.13212162738E+03  0.12509178186E+03 0.  0.
         23    2    1    2    0    0  0.21637612969E+02 -0.72211483251E+01  0.32508611913E+02  0.10554913826E+03  0.97793044026E+02 0.  0.
          5    1    3    3  502    0  0.49944631742E+02 -0.13711803634E+02 -0.90106004369E+01  0.52736544435E+02  0.41800000000E+01 0. -1.
         -5    1    3    3    0  502 -0.71582244711E+02  0.20932951959E+02 -0.26875876897E+02  0.79385082947E+02  0.41800000000E+01 0. -1.
        -11    1    4    4    0    0  0.18929495048E+02 -0.29296564031E+02 -0.25641480791E+02  0.43290876452E+02  0.00000000000E+00 0.  1.
         11    1    4    4    0    0  0.27081179214E+01  0.22075415706E+02  0.58150092704E+02  0.62258261804E+02  0.00000000000E+00 0. -1.
</event>
<event>
 8    1  0.8619230E-006  0.9677252E+02  0.7561462E-02  0.1287233E+00
         -1   -1    0    0    0  501 -0.00000000000E+00  0.00000000000E+00  0.77236156388E+02  0.77236156388E+02  0.00000000000E+00 0.  1.
          1   -1    0    0  501    0  0.00000000000E+00 -0.00000000000E+00 -0.18631962586E+03  0.18631962586E+03  0.00000000000E+00 0. -1.
         23    2    1    2    0    0 -0.54454413158E+01  0.39593365044E+02 -0.26446036429E+02  0.13395633724E+03  0.12509044750E+03 0.  0.
         23    2    1    2    0    0  0.54454413158E+01 -0.39593365044E+02 -0.82637433047E+02  0.12959944502E+03  0.91486520435E+02 0.  0.
          5    1    3    3  502    0  0.93202784894E+01  0.71073458624E+02 -0.53631343677E+02  0.89621970167E+02  0.41800000000E+01 0.  1.
         -5    1    3    3    0  502 -0.14765719805E+02 -0.31480093580E+02  0.27185307248E+02  0.44334367068E+02  0.41800000000E+01 0.  1.
        -11    1    4    4    0    0 -0.37143956897E+01  0.23081910172E+02 -0.56373696198E+02  0.61029213788E+02  0.00000000000E+00 0. -1.
         11    1    4    4    0    0  0.91598370056E+01 -0.62675275216E+02 -0.26263736848E+02  0.68570231228E+02  0.00000000000E+00 0.  1.
</event>
<event>
 8    1  0.8619230E-006  0.1213877E+03  0.7561462E-02  0.1240825E+00
         -1   -1    0    0    0  501 -0.00000000000E+00  0.00000000000E+00  0.16310012330E+02  0.16310012330E+02  0.00000000000E+00 0.  1.
          1   -1    0    0  501    0  0.00000000000E+00 -0.00000000000E+00 -0.10383308166E+04  0.10383308166E+04  0.00000000000E+00 0. -1.
         23    2    1    2    0    0  0.21560099175E+02 -0.69875604581E+02 -0.58204891558E+03  0.59981379143E+03  0.12509279065E+03 0.  0.
         23    2    1    2    0    0 -0.21560099175E+02  0.69875604581E+02 -0.43997188867E+03  0.45482703747E+03  0.89134354814E+02 0.  0.
          5    1    3    3  502    0 -0.45719810822E+02 -0.23236826539E+02 -0.34891925890E+03  0.35269302919E+03  0.41800000000E+01 0.  1.
         -5    1    3    3    0  502  0.67279909997E+02 -0.46638778042E+02 -0.23312965668E+03  0.24712076224E+03  0.41800000000E+01 0.  1.
        -11    1    4    4    0    0  0.14352380022E+02  0.71958257876E+02 -0.35585319792E+03  0.36333934574E+03  0.00000000000E+00 0. -1.
         11    1    4    4    0    0 -0.35912479196E+02 -0.20826532955E+01 -0.84118690744E+02  0.91487691736E+02  0.00000000000E+00 0.  1.
</event>
<event>
 8    1  0.8619230E-006  0.1263659E+03  0.7561462E-02  0.1232950E+00
          1   -1    0    0  501    0  0.00000000000E+00  0.00000000000E+00  0.68600156481E+02  0.68600156481E+02  0.00000000000E+00 0. -1.
         -1   -1    0    0    0  501 -0.00000000000E+00 -0.00000000000E+00 -0.35441055492E+03  0.35441055492E+03  0.00000000000E+00 0.  1.
         23    2    1    2    0    0  0.56158492829E+02  0.93366312412E+02 -0.18908728827E+03  0.25153604420E+03  0.12508131090E+03 0.  0.
         23    2    1    2    0    0 -0.56158492829E+02 -0.93366312412E+02 -0.96723110164E+02  0.17147466720E+03  0.90427633163E+02 0.  0.
          5    1    3    3  502    0  0.54554753712E+02  0.91017436336E+02 -0.59264320578E+02  0.12161466591E+03  0.41800000000E+01 0.  1.
         -5    1    3    3    0  502  0.16037391174E+01  0.23488760764E+01 -0.12982296769E+03  0.12992137830E+03  0.41800000000E+01 0.  1.
        -11    1    4    4    0    0 -0.81002641309E+02 -0.76761659635E+02 -0.73453034634E+02  0.13360063093E+03  0.00000000000E+00 0.  1.
         11    1    4    4    0    0  0.24844148480E+02 -0.16604652777E+02 -0.23270075530E+02  0.37874036261E+02  0.00000000000E+00 0. -1.
</event>
<event>
 8    1  0.8619230E-006  0.9978288E+02  0.7561462E-02  0.1280753E+00
         -2   -1    0    0    0  501 -0.00000000000E+00  0.00000000000E+00  0.22978379493E+03  0.22978379493E+03  0.00000000000E+00 0. -1.
          2   -1    0    0  501    0  0.00000000000E+00 -0.00000000000E+00 -0.71506255106E+02  0.71506255106E+02  0.00000000000E+00 0.  1.
         23    2    1    2    0    0  0.47883675525E+02  0.35767306707E+02  0.11818394913E+03  0.18217428939E+03  0.12509148361E+03 0.  0.
         23    2    1    2    0    0 -0.47883675525E+02 -0.35767306707E+02  0.40093590692E+02  0.11911576065E+03  0.94915340219E+02 0.  0.
          5    1    3    3  502    0  0.78736921770E+02  0.49756567629E+02  0.49696938251E+02  0.10565262393E+03  0.41800000000E+01 0.  1.
         -5    1    3    3    0  502 -0.30853246245E+02 -0.13989260922E+02  0.68487010880E+02  0.76521665457E+02  0.41800000000E+01 0.  1.
        -11    1    4    4    0    0 -0.93833215919E+01 -0.32192028489E+02  0.64988106345E+02  0.73128841018E+02  0.00000000000E+00 0. -1.
         11    1    4    4    0    0 -0.38500353933E+02 -0.35752782173E+01 -0.24894515653E+02  0.45986919628E+02  0.00000000000E+00 0.  1.
</event>
<event>
 8    1  0.8619230E-006  0.1782640E+03  0.7561462E-02  0.1169494E+00
          1   -1    0    0  501    0  0.00000000000E+00  0.00000000000E+00  0.76530094451E+03  0.76530094451E+03  0.00000000000E+00 0. -1.
         -1   -1    0    0    0  501 -0.00000000000E+00 -0.00000000000E+00 -0.48493509590E+02  0.48493509590E+02  0.00000000000E+00 0.  1.
         23    2    1    2    0    0  0.73034407853E+02 -0.13444663322E+03  0.28635799148E+03  0.34793258219E+03  0.12508501330E+03 0.  0.
         23    2    1    2    0    0 -0.73034407853E+02  0.13444663322E+03  0.43044944344E+03  0.46586187191E+03  0.91272331126E+02 0.  0.
          5    1    3    3  502    0  0.59588333919E+02  0.90279151469E+00  0.11001472966E+03  0.12518904790E+03  0.41800000000E+01 0. -1.
         -5    1    3    3    0  502  0.13446073934E+02 -0.13534942473E+03  0.17634326182E+03  0.22274353429E+03  0.41800000000E+01 0. -1.
        -11    1    4    4    0    0 -0.45421463814E+02  0.34562936016E+02  0.67443044423E+02  0.88353099335E+02  0.00000000000E+00 0.  1.
         11    1    4    4    0    0 -0.27612944039E+02  0.99883697199E+02  0.36300639901E+03  0.37750877257E+03  0.00000000000E+00 0. -1.
</event>
<event>
 8    1  0.8619230E-006  0.8607247E+02  0.7561462E-02  0.1312651E+00
          3   -1    0    0  501    0  0.00000000000E+00  0.00000000000E+00  0.10227641035E+03  0.10227641035E+03  0.00000000000E+00 0. -1.
         -3   -1    0    0    0  501 -0.00000000000E+00 -0.00000000000E+00 -0.15519609115E+03  0.15519609115E+03  0.00000000000E+00 0.  1.
         23    2    1    2    0    0 -0.41760517046E+02 -0.22757844894E+02 -0.72663419123E+02  0.15224744838E+03  0.12504980116E+03 0.  0.
         23    2    1    2    0    0  0.41760517046E+02  0.22757844894E+02  0.19743738331E+02  0.10522505312E+03  0.91764025159E+02 0.  0.
          5    1    3    3  502    0  0.68888701222E+01 -0.27233157871E+02 -0.94423911524E+02  0.98602479110E+02  0.41800000000E+01 0.  1.
         -5    1    3    3    0  502 -0.48649387168E+02  0.44753129769E+01  0.21760492401E+02  0.53644969266E+02  0.41800000000E+01 0.  1.
        -11    1    4    4    0    0 -0.24926522687E+02  0.26950817922E+01 -0.13033744628E+02  0.28257273367E+02  0.00000000000E+00 0.  1.
         11    1    4    4    0    0  0.66687039733E+02  0.20062763102E+02  0.32777482959E+02  0.76967779757E+02  0.00000000000E+00 0. -1.
</event>
<event>
 8    1  0.8619230E-006  0.1244717E+03  0.7561462E-02  0.1235897E+00
         -2   -1    0    0    0  501 -0.00000000000E+00  0.00000000000E+00  0.81085438174E+03  0.81085438174E+03  0.00000000000E+00 0.  1.
          2   -1    0    0  501    0  0.00000000000E+00 -0.00000000000E+00 -0.24942543958E+02  0.24942543958E+02  0.00000000000E+00 0. -1.
         23    2    1    2    0    0  0.44489255979E+01  0.87123174627E+02  0.51663798842E+03  0.53867603662E+03  0.12508725294E+03 0.  0.
         23    2    1    2    0    0 -0.44489255979E+01 -0.87123174627E+02  0.26927384935E+03  0.29712088907E+03  0.90344763451E+02 0.  0.
          5    1    3    3  502    0 -0.55395875939E+02  0.44979950759E+02  0.17082593190E+03  0.18517794267E+03  0.41800000000E+01 0.  1.
         -5    1    3    3    0  502  0.59844801537E+02  0.42143223868E+02  0.34581205653E+03  0.35349809395E+03  0.41800000000E+01 0.  1.
        -11    1    4    4    0    0 -0.28443558393E+02 -0.26199108265E+02  0.19190724927E+03  0.19576470982E+03  0.00000000000E+00 0.  1.
         11    1    4    4    0    0  0.23994632796E+02 -0.60924066361E+02  0.77366600084E+02  0.10135617926E+03  0.00000000000E+00 0. -1.
</event>
<event>
 8    1  0.8619230E-006  0.1459696E+03  0.7561462E-02  0.1205515E+00
         -1   -1    0    0    0  501 -0.00000000000E+00  0.00000000000E+00  0.14840385020E+03  0.14840385020E+03  0.00000000000E+00 0.  1.
          1   -1    0    0  501    0  0.00000000000E+00 -0.00000000000E+00 -0.17674543582E+03  0.17674543582E+03  0.00000000000E+00 0. -1.
         23    2    1    2    0    0  0.16524891488E+02  0.11833676130E+03 -0.52960925194E+01  0.17305690064E+03  0.12507590156E+03 0.  0.
         23    2    1    2    0    0 -0.16524891488E+02 -0.11833676130E+03 -0.23045493102E+02  0.15209238538E+03  0.91237809173E+02 0.  0.
          5    1    3    3  502    0  0.60652985961E+02  0.10962723656E+03  0.89887879838E+01  0.12567890202E+03  0.41800000000E+01 0. -1.
         -5    1    3    3    0  502 -0.44128094473E+02  0.87095247405E+01 -0.14284880503E+02  0.47377998628E+02  0.41800000000E+01 0. -1.
        -11    1    4    4    0    0  0.43816617766E+01 -0.43076094718E+02  0.34261732215E+02  0.55214266186E+02  0.00000000000E+00 0.  1.
         11    1    4    4    0    0 -0.20906553265E+02 -0.75260666587E+02 -0.57307225318E+02  0.96878119192E+02  0.00000000000E+00 0. -1.
</event>
<event>
 8    1  0.8619230E-006  0.1726325E+03  0.7561462E-02  0.1175130E+00
         -2   -1    0    0    0  501 -0.00000000000E+00  0.00000000000E+00  0.54094992922E+02  0.54094992922E+02  0.00000000000E+00 0.  1.
          2   -1    0    0  501    0  0.00000000000E+00 -0.00000000000E+00 -0.69524915085E+03  0.69524915085E+03  0.00000000000E+00 0. -1.
         23    2    1    2    0    0  0.25585019519E+02  0.13969168814E+03 -0.19280002845E+03  0.27016252154E+03  0.12509027188E+03 0.  0.
         23    2    1    2    0    0 -0.25585019519E+02 -0.13969168814E+03 -0.44835412948E+03  0.47918162223E+03  0.91789109911E+02 0.  0.
          5    1    3    3  502    0 -0.36902783388E+02  0.10071108325E+03 -0.15134047224E+03  0.18554230959E+03  0.41800000000E+01 0. -1.
         -5    1    3    3    0  502  0.62487802907E+02  0.38980604897E+02 -0.41459556209E+02  0.84620211955E+02  0.41800000000E+01 0. -1.
        -11    1    4    4    0    0 -0.41386283376E+02 -0.24935717701E+02 -0.84570941835E+02  0.97400506527E+02  0.00000000000E+00 0. -1.
         11    1    4    4    0    0  0.15801263857E+02 -0.11475597044E+03 -0.36378318764E+03  0.38178111570E+03  0.00000000000E+00 0.  1.
</event>
<event>
 8    1  0.8619230E-006  0.1300366E+03  0.7561462E-02  0.1227401E+00
          1   -1    0    0  501    0  0.00000000000E+00  0.00000000000E+00  0.72443538576E+02  0.72443538576E+02  0.00000000000E+00 0. -1.
         -1   -1    0    0    0  501 -0.00000000000E+00 -0.00000000000E+00 -0.29784369613E+03  0.29784369613E+03  0.00000000000E+00 0.  1.
         23    2    1    2    0    0 -0.79148775347E+02  0.47026917025E+02 -0.15983519716E+03  0.22287066725E+03  0.12509190425E+03 0.  0.
         23    2    1    2    0    0  0.79148775347E+02 -0.47026917025E+02 -0.65564960399E+02  0.14741656745E+03  0.94640481636E+02 0.  0.
          5    1    3    3  502    0  0.12619716910E+02 -0.31663489793E+02 -0.36802285556E+02  0.50336015565E+02  0.41800000000E+01 0.  1.
         -5    1    3    3    0  502 -0.91768492257E+02  0.78690406818E+02 -0.12303291160E+03  0.17253465169E+03  0.41800000000E+01 0.  1.
        -11    1    4    4    0    0  0.17021218628E+02  0.10585241153E+02 -0.59139914012E+02  0.62444364383E+02  0.00000000000E+00 0.  1.
         11    1    4    4    0    0  0.62127556719E+02 -0.57612158178E+02 -0.64250463864E+01  0.84972203071E+02  0.00000000000E+00 0. -1.
</event>
<event>
 8    1  0.8619230E-006  0.1083292E+03  0.7561462E-02  0.1263696E+00
         -3   -1    0    0    0  501 -0.00000000000E+00  0.00000000000E+00  0.39119776917E+02  0.39119776917E+02  0.00000000000E+00 0.  1.
          3   -1    0    0  501    0  0.00000000000E+00 -0.00000000000E+00 -0.37501811488E+03  0.37501811488E+03  0.00000000000E+00 0. -1.
         23    2    1    2    0    0 -0.13496905721E+02 -0.12949898043E+02 -0.10306632462E+03  0.16315562251E+03  0.12508886267E+03 0.  0.
         23    2    1    2    0    0  0.13496905721E+02  0.12949898043E+02 -0.23283201334E+03  0.25098226929E+03  0.91823127452E+02 0.  0.
          5    1    3    3  502    0 -0.68801792223E+02 -0.82582751134E+01 -0.69098782087E+02  0.97948965318E+02  0.41800000000E+01 0.  1.
         -5    1    3    3    0  502  0.55304886502E+02 -0.46916229294E+01 -0.33967542533E+02  0.65206657194E+02  0.41800000000E+01 0.  1.
        -11    1    4    4    0    0 -0.33906518554E+02  0.25632825429E+02 -0.13500139214E+03  0.14153469405E+03  0.00000000000E+00 0. -1.
         11    1    4    4    0    0  0.47403424276E+02 -0.12682927386E+02 -0.97830621209E+02  0.10944757524E+03  0.00000000000E+00 0.  1.
</event>
<event>
 8    1  0.8619230E-006  0.7269195E+02  0.7561462E-02  0.1351171E+00
         -1   -1    0    0    0  501 -0.00000000000E+00  0.00000000000E+00  0.91391196367E+02  0.91391196367E+02  0.00000000000E+00 0.  1.
          1   -1    0    0  501    0  0.00000000000E+00 -0.00000000000E+00 -0.14519502877E+03  0.14519502877E+03  0.00000000000E+00 0. -1.
         23    2    1    2    0    0 -0.39892030842E+01 -0.39871708628E+02 -0.37176242872E+02  0.13652098519E+03  0.12510091716E+03 0.  0.
         23    2    1    2    0    0  0.39892030842E+01  0.39871708628E+02 -0.16627589532E+02  0.10006523995E+03  0.90171551066E+02 0.  0.
          5    1    3    3  502    0 -0.88187928853E+01  0.86575584181E+01 -0.74080208760E+02  0.75220171202E+02  0.41800000000E+01 0. -1.
         -5    1    3    3    0  502  0.48295898011E+01 -0.48529267046E+02  0.36903965888E+02  0.61300813991E+02  0.41800000000E+01 0. -1.
        -11    1    4    4    0    0 -0.34618665771E+02  0.19661773255E+02 -0.34773533733E+02  0.52860533440E+02  0.00000000000E+00 0. -1.
         11    1    4    4    0    0  0.38607868855E+02  0.20209935373E+02  0.18145944201E+02  0.47204706506E+02  0.00000000000E+00 0.  1.
</event>
<event>
 8    1  0.8619230E-006  0.6995829E+02  0.7561462E-02  0.1360235E+00
         -1   -1    0    0    0  501 -0.00000000000E+00  0.00000000000E+00  0.85200258434E+02  0.85200258434E+02  0.00000000000E+00 0.  1.
          1   -1    0    0  501    0  0.00000000000E+00 -0.00000000000E+00 -0.15680798597E+03  0.15680798597E+03  0.00000000000E+00 0. -1.
         23    2    1    2    0    0 -0.26228552901E+02  0.12100811718E+02 -0.89458297663E+01  0.12869096225E+03  0.12508784619E+03 0.  0.
         23    2    1    2    0    0  0.26228552901E+02 -0.12100811718E+02 -0.62661897772E+02  0.11331728215E+03  0.89888410657E+02 0.  0.
          5    1    3    3  502    0 -0.38142502861E+02 -0.11674352683E+02  0.49876039454E+02  0.64001818307E+02  0.41800000000E+01 0. -1.
         -5    1    3    3    0  502  0.11913949960E+02  0.23775164402E+02 -0.58821869220E+02  0.64689143946E+02  0.41800000000E+01 0. -1.
        -11    1    4    4    0    0 -0.21999818053E+02  0.33346066589E+01  0.10288185901E+02  0.24514452168E+02  0.00000000000E+00 0.  1.
         11    1    4    4    0    0  0.48228370955E+02 -0.15435418377E+02 -0.72950083672E+02  0.88802829984E+02  0.00000000000E+00 0. -1.
</event>
<event>
 8    1  0.8619230E-006  0.2887523E+03  0.7561462E-02  0.1091002E+00
          1   -1    0    0  501    0  0.00000000000E+00  0.00000000000E+00  0.55591959009E+03  0.55591959009E+03  0.00000000000E+00 0. -1.
         -1   -1    0    0    0  501 -0.00000000000E+00 -0.00000000000E+00 -0.17322306469E+03  0.17322306469E+03  0.00000000000E+00 0.  1.
         23    2    1    2    0    0  0.14529644762E+03  0.24615421442E+03  0.13178525380E+03  0.33858338963E+03  0.12477340922E+03 0.  0.
         23    2    1    2    0    0 -0.14529644762E+03 -0.24615421442E+03  0.25091127160E+03  0.39055926515E+03  0.88753131837E+02 0.  0.
          5    1    3    3  502    0  0.11940393174E+03  0.14937851275E+03  0.26356774021E+02  0.19308907510E+03  0.41800000000E+01 0. -1.
         -5    1    3    3    0  502  0.25892515879E+02  0.96775701670E+02  0.10542847978E+03  0.14549431453E+03  0.41800000000E+01 0. -1.
        -11    1    4    4    0    0 -0.52526120025E+02 -0.96873599900E+02  0.42942651448E+02  0.11826901097E+03  0.00000000000E+00 0.  1.
         11    1    4    4    0    0 -0.92770327596E+02 -0.14928061452E+03  0.20796862015E+03  0.27229025418E+03  0.00000000000E+00 0. -1.
</event>
<event>
 8    1  0.8619230E-006  0.5799826E+02  0.7561462E-02  0.1406429E+00
         -1   -1    0    0    0  501 -0.00000000000E+00  0.00000000000E+00  0.48414761563E+03  0.48414761563E+03  0.00000000000E+00 0.  1.
          1   -1    0    0  501    0  0.00000000000E+00 -0.00000000000E+00 -0.21626200273E+02  0.21626200273E+02  0.00000000000E+00 0. -1.
         23    2    1    2    0    0  0.11683855749E+02  0.50039410578E+01  0.28498945270E+03  0.30605280344E+03  0.11085025229E+03 0.  0.
         23    2    1    2    0    0 -0.11683855749E+02 -0.50039410578E+01  0.17753196266E+03  0.19972101246E+03  0.90605370385E+02 0.  0.
          5    1    3    3  502    0 -0.49579199791E+01  0.31430485564E+02  0.17190496245E+02  0.36406619652E+02  0.41800000000E+01 0. -1.
         -5    1    3    3    0  502  0.16641775728E+02 -0.26426544506E+02  0.26779895646E+03  0.26964618379E+03  0.41800000000E+01 0.  1.
        -11    1    4    4    0    0 -0.31730030143E+02 -0.61341932493E+01  0.17669439945E+03  0.17962553810E+03  0.00000000000E+00 0. -1.
         11    1    4    4    0    0  0.20046174393E+02  0.11302521915E+01  0.83756320757E+00  0.20095474365E+02  0.00000000000E+00 0.  1.
</event>
<event>
 8    1  0.8619230E-006  0.1844708E+03  0.7561462E-02  0.1163545E+00
          2   -1    0    0  501    0  0.00000000000E+00  0.00000000000E+00  0.14562377289E+03  0.14562377289E+03  0.00000000000E+00 0. -1.
         -2   -1    0    0    0  501 -0.00000000000E+00 -0.00000000000E+00 -0.31217408776E+03  0.31217408776E+03  0.00000000000E+00 0.  1.
         23    2    1    2    0    0  0.14698383533E+03  0.38061178276E+02 -0.19709363132E+03  0.27847319106E+03  0.12509403458E+03 0.  0.
         23    2    1    2    0    0 -0.14698383533E+03 -0.38061178276E+02  0.30543316457E+02  0.17932466959E+03  0.90396580705E+02 0.  0.
          5    1    3    3  502    0  0.71173432643E+02  0.81844112707E+02 -0.11922638614E+03  0.16123436312E+03  0.41800000000E+01 0. -1.
         -5    1    3    3    0  502  0.75810402692E+02 -0.43782934431E+02 -0.77867245183E+02  0.11723882794E+03  0.41800000000E+01 0. -1.
        -11    1    4    4    0    0 -0.32364480521E+02 -0.47794828659E+02 -0.74051941643E+01  0.58194863575E+02  0.00000000000E+00 0.  1.
         11    1    4    4    0    0 -0.11461935481E+03  0.97336503824E+01  0.37948510621E+02  0.12112980602E+03  0.00000000000E+00 0. -1.
</event>
<event>
 7    1  0.8619230E-006  0.1923078E+03  0.7561462E-02  0.1156396E+00
         -2   -1    0    0    0  501 -0.00000000000E+00  0.00000000000E+00  0.24238948340E+03  0.24238948340E+03  0.00000000000E+00 0.  1.
          2   -1    0    0  501    0  0.00000000000E+00 -0.00000000000E+00 -0.25231467030E+03  0.25231467030E+03  0.00000000000E+00 0. -1.
         23    2    1    2    0    0  0.13644321085E+03  0.10775059148E+03 -0.12019968547E+03  0.23098780419E+03  0.93168994562E+02 0.  0.
          5    1    1    2  502    0 -0.65659906611E+02 -0.11394044084E+03 -0.10583940379E+01  0.13157598562E+03  0.41800000000E+01 0. -1.
         -5    1    1    2    0  502 -0.70783304237E+02  0.61898493608E+01  0.11133289260E+03  0.13214036389E+03  0.41800000000E+01 0.  1.
        -11    1    3    3    0    0  0.12461944523E+02  0.37170848088E+02  0.70338246828E+01  0.39830223431E+02  0.00000000000E+00 0. -1.
         11    1    3    3    0    0  0.12398126633E+03  0.70579743388E+02 -0.12723351015E+03  0.19115758076E+03  0.00000000000E+00 0.  1.
</event>
<event>
 8    1  0.8619230E-006  0.1186726E+03  0.7561462E-02  0.1245303E+00
          3   -1    0    0  501    0  0.00000000000E+00  0.00000000000E+00  0.92693733104E+02  0.92693733104E+02  0.00000000000E+00 0. -1.
         -3   -1    0    0    0  501 -0.00000000000E+00 -0.00000000000E+00 -0.17652470312E+03  0.17652470312E+03  0.00000000000E+00 0.  1.
         23    2    1    2    0    0 -0.30901409541E+02 -0.56170308997E+02 -0.71495885834E+02  0.15769408318E+03  0.12508301826E+03 0.  0.
         23    2    1    2    0    0  0.30901409541E+02  0.56170308997E+02 -0.12335084185E+02  0.11152435304E+03  0.90418616972E+02 0.  0.
          5    1    3    3  502    0 -0.47628534261E+02  0.26687855244E+02 -0.18306916641E+02  0.57735036938E+02  0.41800000000E+01 0. -1.
         -5    1    3    3    0  502  0.16727124720E+02 -0.82858164240E+02 -0.53188969193E+02  0.99959046246E+02  0.41800000000E+01 0. -1.
        -11    1    4    4    0    0  0.11018683681E+02 -0.18034470405E+02  0.19131547554E+02  0.28507360886E+02  0.00000000000E+00 0. -1.
         11    1    4    4    0    0  0.19882725860E+02  0.74204779402E+02 -0.31466631739E+02  0.83016992156E+02  0.00000000000E+00 0.  1.
</event>
<event>
 8    1  0.8619230E-006  0.4407405E+03  0.7561462E-02  0.1030520E+00
          1   -1    0    0  501    0  0.00000000000E+00  0.00000000000E+00  0.24211328072E+04  0.24211328072E+04  0.00000000000E+00 0. -1.
         -1   -1    0    0    0  501 -0.00000000000E+00 -0.00000000000E+00 -0.81946502026E+02  0.81946502026E+02  0.00000000000E+00 0.  1.
         23    2    1    2    0    0  0.42932555787E+03 -0.93588242465E+01  0.10318532424E+04  0.11246211085E+04  0.12507398502E+03 0.  0.
         23    2    1    2    0    0 -0.42932555787E+03  0.93588242465E+01  0.13073330628E+04  0.13784582007E+04  0.81358784053E+02 0.  0.
          5    1    3    3  502    0  0.16402373843E+03 -0.59279062423E+02  0.34479030290E+03  0.38641379295E+03  0.41800000000E+01 0.  1.
         -5    1    3    3    0  502  0.26530181944E+03  0.49920238177E+02  0.68706293946E+03  0.73820731557E+03  0.41800000000E+01 0.  1.
        -11    1    4    4    0    0 -0.34449859833E+03  0.40064927290E+02  0.10442300957E+04  0.11003185791E+04  0.00000000000E+00 0.  1.
         11    1    4    4    0    0 -0.84826959536E+02 -0.30706103043E+02  0.26310296713E+03  0.27813962166E+03  0.00000000000E+00 0. -1.
</event>
<event>
 8    1  0.8619230E-006  0.1056259E+03  0.7561462E-02  0.1268891E+00
         -2   -1    0    0    0  501 -0.00000000000E+00  0.00000000000E+00  0.12209623680E+03  0.12209623680E+03  0.00000000000E+00 0.  1.
          2   -1    0    0  501    0  0.00000000000E+00 -0.00000000000E+00 -0.17248928248E+03  0.17248928248E+03  0.00000000000E+00 0. -1.
         23    2    1    2    0    0  0.27235248868E+02  0.61588206841E+02  0.44195088922E+02  0.14877795723E+03  0.12508720426E+03 0.  0.
         23    2    1    2    0    0 -0.27235248868E+02 -0.61588206841E+02 -0.94588134598E+02  0.14580756205E+03  0.88193332752E+02 0.  0.
          5    1    3    3  502    0 -0.27127878255E+02  0.33326678542E+02 -0.29917402786E+02  0.52527256455E+02  0.41800000000E+01 0.  1.
         -5    1    3    3    0  502  0.54363127123E+02  0.28261528300E+02  0.74112491708E+02  0.96250700774E+02  0.41800000000E+01 0.  1.
        -11    1    4    4    0    0 -0.58748904521E+01 -0.78931286852E+02 -0.50660065225E+02  0.93973956980E+02  0.00000000000E+00 0.  1.
         11    1    4    4    0    0 -0.21360358416E+02  0.17343080011E+02 -0.43928069373E+02  0.51833605072E+02  0.00000000000E+00 0. -1.
</event>
<event>
 7    1  0.8619230E-006  0.1178678E+03  0.7561462E-02  0.1246657E+00
         -2   -1    0    0    0  501 -0.00000000000E+00  0.00000000000E+00  0.30862447663E+03  0.30862447663E+03  0.00000000000E+00 0.  1.
          2   -1    0    0  501    0  0.00000000000E+00 -0.00000000000E+00 -0.13724650654E+03  0.13724650654E+03  0.00000000000E+00 0. -1.
         23    2    1    2    0    0  0.25633983013E+02 -0.86382311716E+02 -0.11933767403E+02  0.12923191399E+03  0.91866576772E+02 0.  0.
          5    1    1    2  502    0  0.13258565000E+02 -0.14153981006E+02 -0.53149878505E+02  0.56731884415E+02  0.41800000000E+01 0. -1.
         -5    1    1    2    0  502 -0.38892548013E+02  0.10053629272E+03  0.23646161600E+03  0.25990718475E+03  0.41800000000E+01 0.  1.
        -11    1    3    3    0    0  0.64437827819E+01 -0.88479602417E+02 -0.38238183800E+02  0.96603939261E+02  0.00000000000E+00 0. -1.
         11    1    3    3    0    0  0.19190200231E+02  0.20972907012E+01  0.26304416398E+02  0.32627974734E+02  0.00000000000E+00 0.  1.
</event>
<event>
 8    1  0.8619230E-006  0.8466980E+02  0.7561462E-02  0.1316298E+00
         -1   -1    0    0    0  501 -0.00000000000E+00  0.00000000000E+00  0.14577773094E+03  0.14577773094E+03  0.00000000000E+00 0.  1.
          1   -1    0    0  501    0  0.00000000000E+00 -0.00000000000E+00 -0.88200947797E+02  0.88200947797E+02  0.00000000000E+00 0. -1.
         23    2    1    2    0    0 -0.29648133039E+01 -0.96085170398E+01  0.66923696082E+02  0.14222538469E+03  0.12509262662E+03 0.  0.
         23    2    1    2    0    0  0.29648133039E+01  0.96085170398E+01 -0.93469129388E+01  0.91753294051E+02  0.90720386188E+02 0.  0.
          5    1    3    3  502    0 -0.39826951245E+02  0.28628757882E+01  0.88752711765E+02  0.97410976532E+02  0.41800000000E+01 0.  1.
         -5    1    3    3    0  502  0.36862137941E+02 -0.12471392828E+02 -0.21829015683E+02  0.44814408155E+02  0.41800000000E+01 0.  1.
        -11    1    4    4    0    0  0.44780739791E+02  0.16399900763E+02  0.25290268988E+01  0.47756333385E+02  0.00000000000E+00 0.  1.
         11    1    4    4    0    0 -0.41815926487E+02 -0.67913837236E+01 -0.11875939838E+02  0.43996960667E+02  0.00000000000E+00 0. -1.
</event>
<event>
 8    1  0.8619230E-006  0.9437149E+02  0.7561462E-02  0.1292598E+00
          2   -1    0    0  501    0  0.00000000000E+00  0.00000000000E+00  0.18154919713E+03  0.18154919713E+03  0.00000000000E+00 0. -1.
         -2   -1    0    0    0  501 -0.00000000000E+00 -0.00000000000E+00 -0.82267721307E+02  0.82267721307E+02  0.00000000000E+00 0.  1.
         23    2    1    2    0    0  0.27233147674E+02 -0.13474614753E+02 -0.24466716685E+00  0.12872879621E+03  0.12509130081E+03 0.  0.
         23    2    1    2    0    0 -0.27233147674E+02  0.13474614753E+02  0.99526142993E+02  0.13508812223E+03  0.86140223198E+02 0.  0.
          5    1    3    3  502    0 -0.28611877717E+02  0.33367579589E+02 -0.26083586279E+02  0.51282168317E+02  0.41800000000E+01 0. -1.
         -5    1    3    3    0  502  0.55845025391E+02 -0.46842194342E+02  0.25838919112E+02  0.77446627897E+02  0.41800000000E+01 0. -1.
        -11    1    4    4    0    0 -0.15432510055E+02  0.39823902613E+02  0.14197481591E+02  0.45007489038E+02  0.00000000000E+00 0.  1.
         11    1    4    4    0    0 -0.11800637619E+02 -0.26349287860E+02  0.85328661402E+02  0.90080633188E+02  0.00000000000E+00 0. -1.
</event>
<event>
 8    1  0.8619230E-006  0.1037224E+03  0.7561462E-02  0.1272657E+00
         -1   -1    0    0    0  501 -0.00000000000E+00  0.00000000000E+00  0.48828791942E+02  0.48828791942E+02  0.00000000000E+00 0.  1.
          1   -1    0    0  501    0  0.00000000000E+00 -0.00000000000E+00 -0.30403809186E+03  0.30403809186E+03  0.00000000000E+00 0. -1.
         23    2    1    2    0    0  0.51532872886E+02  0.18522123783E+02 -0.13017011011E+03  0.18865104808E+03  0.12508498838E+03 0.  0.
         23    2    1    2    0    0 -0.51532872886E+02 -0.18522123783E+02 -0.12503918980E+03  0.16421583572E+03  0.91287105641E+02 0.  0.
          5    1    3    3  502    0  0.62084561736E+02 -0.40715653669E+02 -0.87160248102E+02  0.11457154319E+03  0.41800000000E+01 0. -1.
         -5    1    3    3    0  502 -0.10551688850E+02  0.59237777451E+02 -0.43009862011E+02  0.74079504893E+02  0.41800000000E+01 0. -1.
        -11    1    4    4    0    0 -0.51124875580E+01 -0.25338685711E+02 -0.11280499706E+03  0.11572879453E+03  0.00000000000E+00 0. -1.
         11    1    4    4    0    0 -0.46420385328E+02  0.68165619283E+01 -0.12234192741E+02  0.48487041181E+02  0.00000000000E+00 0.  1.
</event>
<event>
 8    1  0.8619230E-006  0.1728784E+03  0.7561462E-02  0.1174879E+00
          2   -1    0    0  501    0  0.00000000000E+00  0.00000000000E+00  0.30066633302E+03  0.30066633302E+03  0.00000000000E+00 0.  1.
         -2   -1    0    0    0  501 -0.00000000000E+00 -0.00000000000E+00 -0.18201896161E+03  0.18201896161E+03  0.00000000000E+00 0. -1.
         23    2    1    2    0    0 -0.37012775505E+01  0.14778610671E+03 -0.89253652918E+02  0.21323107555E+03  0.12508734640E+03 0.  0.
         23    2    1    2    0    0  0.37012775505E+01 -0.14778610671E+03  0.20790102433E+03  0.26945421908E+03  0.86765819699E+02 0.  0.
          5    1    3    3  502    0 -0.47697937159E+02  0.85134958674E+02 -0.28528807102E+01  0.97717274450E+02  0.41800000000E+01 0. -1.
         -5    1    3    3    0  502  0.43996659609E+02  0.62651148040E+02 -0.86400772208E+02  0.11551380110E+03  0.41800000000E+01 0. -1.
        -11    1    4    4    0    0  0.44101442780E+02 -0.96688629073E+02  0.12969079485E+03  0.16767030302E+03  0.00000000000E+00 0. -1.
         11    1    4    4    0    0 -0.40400165230E+02 -0.51097477641E+02  0.78210229482E+02  0.10178391606E+03  0.00000000000E+00 0.  1.
</event>
<event>
 8    1  0.8619230E-006  0.1697652E+03  0.7561462E-02  0.1178093E+00
         -1   -1    0    0    0  501 -0.00000000000E+00  0.00000000000E+00  0.81888413699E+02  0.81888413699E+02  0.00000000000E+00 0.  1.
          1   -1    0    0  501    0  0.00000000000E+00 -0.00000000000E+00 -0.61283713693E+03  0.61283713693E+03  0.00000000000E+00 0. -1.
         23    2    1    2    0    0  0.11252451316E+03 -0.12030126847E+03 -0.11158000891E+03  0.23501361748E+03  0.12508853168E+03 0.  0.
         23    2    1    2    0    0 -0.11252451316E+03  0.12030126847E+03 -0.41936871433E+03  0.45971193315E+03  0.91273115793E+02 0.  0.
          5    1    3    3  502    0  0.94286105289E+02 -0.11940485457E+03 -0.34995733503E+02  0.15617158099E+03  0.41800000000E+01 0.  1.
         -5    1    3    3    0  502  0.18238407868E+02 -0.89641390291E+00 -0.76584275403E+02  0.78842036494E+02  0.41800000000E+01 0.  1.
        -11    1    4    4    0    0 -0.24526153387E+02  0.50986047022E+02 -0.56549403552E+02  0.79993401184E+02  0.00000000000E+00 0.  1.
         11    1    4    4    0    0 -0.87998359770E+02  0.69315221449E+02 -0.36281931078E+03  0.37971853197E+03  0.00000000000E+00 0. -1.
</event>
<event>
 8    1  0.8619230E-006  0.1423988E+03  0.7561462E-02  0.1210137E+00
         -2   -1    0    0    0  501 -0.00000000000E+00  0.00000000000E+00  0.59145281217E+02  0.59145281217E+02  0.00000000000E+00 0. -1.
          2   -1    0    0  501    0  0.00000000000E+00 -0.00000000000E+00 -0.56594663181E+03  0.56594663181E+03  0.00000000000E+00 0.  1.
         23    2    1    2    0    0  0.20356736895E+02  0.11438175503E+03 -0.11411364881E+03  0.20533136663E+03  0.12506583329E+03 0.  0.
         23    2    1    2    0    0 -0.20356736895E+02 -0.11438175503E+03 -0.39268770179E+03  0.41976054640E+03  0.92182984103E+02 0.  0.
          5    1    3    3  502    0 -0.38929366244E+02  0.91214085167E+02 -0.38655048446E+02  0.10652319024E+03  0.41800000000E+01 0. -1.
         -5    1    3    3    0  502  0.59286103139E+02  0.23167669864E+02 -0.75458600360E+02  0.98808176386E+02  0.41800000000E+01 0. -1.
        -11    1    4    4    0    0  0.10395563281E+02 -0.21016939851E+02 -0.11525248063E+02  0.26126822224E+02  0.00000000000E+00 0. -1.
         11    1    4    4    0    0 -0.30752300176E+02 -0.93364815180E+02 -0.38116245373E+03  0.39363372418E+03  0.00000000000E+00 0.  1.
</event>
<event>
 8    1  0.8619230E-006  0.1533423E+03  0.7561462E-02  0.1196425E+00
         -2   -1    0    0    0  501 -0.00000000000E+00  0.00000000000E+00  0.14465517353E+03  0.14465517353E+03  0.00000000000E+00 0.  1.
          2   -1    0    0  501    0  0.00000000000E+00 -0.00000000000E+00 -0.21091288239E+03  0.21091288239E+03  0.00000000000E+00 0. -1.
         23    2    1    2    0    0 -0.11605618850E+03 -0.25405429009E+01  0.40723267106E+02  0.17544500786E+03  0.12508826105E+03 0.  0.
         23    2    1    2    0    0  0.11605618850E+03  0.25405429009E+01 -0.10698097596E+03  0.18012304806E+03  0.86740359569E+02 0.  0.
          5    1    3    3  502    0 -0.11190914992E+01 -0.41362729259E+02 -0.11726089531E+02  0.43209967753E+02  0.41800000000E+01 0. -1.
         -5    1    3    3    0  502 -0.11493709700E+03  0.38822186358E+02  0.52449356637E+02  0.13223504011E+03  0.41800000000E+01 0. -1.
        -11    1    4    4    0    0  0.55753818073E+02 -0.41104325564E+02 -0.63175805847E+02  0.93750926685E+02  0.00000000000E+00 0. -1.
         11    1    4    4    0    0  0.60302370425E+02  0.43644868465E+02 -0.43805170112E+02  0.86372121375E+02  0.00000000000E+00 0.  1.
</event>
<event>
 8    1  0.1299478E-005  0.2343031E+03  0.7561462E-02  0.1123647E+00
          2   -1    0    0  501    0  0.00000000000E+00  0.00000000000E+00  0.17538899980E+04  0.17538899980E+04  0.00000000000E+00 0.  1.
         -2   -1    0    0    0  501 -0.00000000000E+00 -0.00000000000E+00 -0.37350027009E+02  0.37350027009E+02  0.00000000000E+00 0. -1.
         23    2    1    2    0    0  0.16258641110E+03 -0.15903043306E+03  0.73320007688E+03  0.77778834365E+03  0.12508930838E+03 0.  0.
         23    2    1    2    0    0 -0.16258641110E+03  0.15903043306E+03  0.98333989416E+03  0.10134516814E+04  0.91662115308E+02 0.  0.
          5    1    3    3  502    0  0.15800643766E+03 -0.14813476482E+03  0.50826330657E+03  0.55250249239E+03  0.41800000000E+01 0.  1.
         -5    1    3    3    0  502  0.45799734486E+01 -0.10895668238E+02  0.22493677031E+03  0.22528585126E+03  0.41800000000E+01 0.  1.
        -11    1    4    4    0    0 -0.14896332336E+02  0.59520875644E+02  0.16705091164E+03  0.17796247479E+03  0.00000000000E+00 0.  1.
         11    1    4    4    0    0 -0.14769007877E+03  0.99509557412E+02  0.81628898252E+03  0.83548920661E+03  0.00000000000E+00 0. -1.
</event>
<event>
 8    1  0.8619230E-006  0.4940753E+02  0.7561462E-02  0.1448564E+00
          1   -1    0    0  501    0  0.00000000000E+00  0.00000000000E+00  0.13064340102E+03  0.13064340102E+03  0.00000000000E+00 0. -1.
         -1   -1    0    0    0  501 -0.00000000000E+00 -0.00000000000E+00 -0.88296182368E+02  0.88296182368E+02  0.00000000000E+00 0.  1.
         23    2    1    2    0    0 -0.17125975645E+02 -0.33338143121E+02  0.30412675221E+02  0.13407991379E+03  0.12509101343E+03 0.  0.
         23    2    1    2    0    0  0.17125975645E+02  0.33338143121E+02  0.11934543427E+02  0.84859669590E+02  0.75193080583E+02 0.  0.
          5    1    3    3  502    0  0.41398269053E+01  0.45647609008E+01  0.72828153097E+02  0.73207837644E+02  0.41800000000E+01 0. -1.
         -5    1    3    3    0  502 -0.21265802550E+02 -0.37902904022E+02 -0.42415477876E+02  0.60872076150E+02  0.41800000000E+01 0. -1.
        -11    1    4    4    0    0 -0.75430260808E+01  0.15584109927E+02  0.39939783891E+02  0.43531001159E+02  0.00000000000E+00 0. -1.
         11    1    4    4    0    0  0.24669001726E+02  0.17754033195E+02 -0.28005240464E+02  0.41328668431E+02  0.00000000000E+00 0.  1.
</event>
<event>
 8    1  0.8619230E-006  0.9073593E+02  0.7561462E-02  0.1301079E+00
          1   -1    0    0  501    0  0.00000000000E+00  0.00000000000E+00  0.30675481126E+02  0.30675481126E+02  0.00000000000E+00 0. -1.
         -1   -1    0    0    0  501 -0.00000000000E+00 -0.00000000000E+00 -0.40740273711E+03  0.40740273711E+03  0.00000000000E+00 0.  1.
         23    2    1    2    0    0  0.13453837346E+02  0.26156941177E+02 -0.25060082726E+03  0.28162644989E+03  0.12508993304E+03 0.  0.
         23    2    1    2    0    0 -0.13453837346E+02 -0.26156941177E+02 -0.12612642873E+03  0.15645176835E+03  0.87772937075E+02 0.  0.
          5    1    3    3  502    0  0.29677665643E+02  0.62553736759E+02 -0.22149860642E+03  0.23210523231E+03  0.41800000000E+01 0. -1.
         -5    1    3    3    0  502 -0.16223828297E+02 -0.36396795582E+02 -0.29102220835E+02  0.49521217581E+02  0.41800000000E+01 0. -1.
        -11    1    4    4    0    0  0.26766529577E+02 -0.12725967104E+02 -0.10494967331E+03  0.10905425839E+03  0.00000000000E+00 0.  1.
         11    1    4    4    0    0 -0.40220366923E+02 -0.13430974074E+02 -0.21176755418E+02  0.47397509956E+02  0.00000000000E+00 0. -1.
</event>
<event>
 8    1  0.8619230E-006  0.1298280E+03  0.7561462E-02  0.1227711E+00
          3   -1    0    0  501    0  0.00000000000E+00  0.00000000000E+00  0.10237842136E+03  0.10237842136E+03  0.00000000000E+00 0. -1.
         -3   -1    0    0    0  501 -0.00000000000E+00 -0.00000000000E+00 -0.24591152161E+03  0.24591152161E+03  0.00000000000E+00 0.  1.
         23    2    1    2    0    0 -0.76818674391E+02 -0.82627545878E+01 -0.17121403660E+03  0.22568044814E+03  0.12509211205E+03 0.  0.
         23    2    1    2    0    0  0.76818674391E+02  0.82627545878E+01  0.27680936344E+02  0.12260949483E+03  0.91090461278E+02 0.  0.
          5    1    3    3  502    0  0.33633801029E+02  0.22821766983E+01 -0.57252813817E+02  0.66571750706E+02  0.41800000000E+01 0.  1.
         -5    1    3    3    0  502 -0.11045247542E+03 -0.10544931286E+02 -0.11396122278E+03  0.15910869744E+03  0.41800000000E+01 0.  1.
        -11    1    4    4    0    0 -0.92135106462E+01  0.25321925766E+02 -0.77157799848E+01  0.28028948673E+02  0.00000000000E+00 0.  1.
         11    1    4    4    0    0  0.86032185037E+02 -0.17059171179E+02  0.35396716329E+02  0.94580546152E+02  0.00000000000E+00 0. -1.
</event>
<event>
 8    1  0.8619230E-006  0.1582027E+03  0.7561462E-02  0.1190741E+00
          1   -1    0    0  501    0  0.00000000000E+00  0.00000000000E+00  0.13372838709E+02  0.13372838709E+02  0.00000000000E+00 0. -1.
         -1   -1    0    0    0  501 -0.00000000000E+00 -0.00000000000E+00 -0.19348187831E+04  0.19348187831E+04  0.00000000000E+00 0.  1.
         23    2    1    2    0    0 -0.11320046686E+03 -0.19289305806E+02 -0.11976294571E+04  0.12096087128E+04  0.12510195255E+03 0.  0.
         23    2    1    2    0    0  0.11320046686E+03  0.19289305806E+02 -0.72381648730E+03  0.73858290902E+03  0.91695055484E+02 0.  0.
          5    1    3    3  502    0 -0.14024079296E+03 -0.10396145670E+02 -0.10220857560E+04  0.10317229884E+04  0.41800000000E+01 0.  1.
         -5    1    3    3    0  502  0.27040326100E+02 -0.88931601368E+01 -0.17554370111E+03  0.17788572437E+03  0.41800000000E+01 0.  1.
        -11    1    4    4    0    0  0.11780319941E+03 -0.91310218415E+01 -0.58006446783E+03  0.59197614495E+03  0.00000000000E+00 0. -1.
         11    1    4    4    0    0 -0.46027325523E+01  0.28420327648E+02 -0.14375201947E+03  0.14660676407E+03  0.00000000000E+00 0.  1.
</event>
<event>
 8    1  0.8619230E-006  0.8301372E+02  0.7561462E-02  0.1320710E+00
          1   -1    0    0  501    0  0.00000000000E+00  0.00000000000E+00  0.33916236519E+02  0.33916236519E+02  0.00000000000E+00 0. -1.
         -1   -1    0    0    0  501 -0.00000000000E+00 -0.00000000000E+00 -0.57526673970E+03  0.57526673970E+03  0.00000000000E+00 0.  1.
         23    2    1    2    0    0 -0.55396661418E+02 -0.43262563817E+02 -0.40931203199E+03  0.43373191389E+03  0.12508634645E+03 0.  0.
         23    2    1    2    0    0  0.55396661418E+02  0.43262563817E+02 -0.13203847119E+03  0.17545106233E+03  0.91697752830E+02 0.  0.
          5    1    3    3  502    0  0.10807808312E+02 -0.13106985457E+02 -0.31031643891E+03  0.31080921229E+03  0.41800000000E+01 0.  1.
         -5    1    3    3    0  502 -0.66204469730E+02 -0.30155578361E+02 -0.98995593088E+02  0.12292270160E+03  0.41800000000E+01 0.  1.
        -11    1    4    4    0    0  0.59983663401E+01  0.20339930364E+02 -0.11706801468E+03  0.11897316179E+03  0.00000000000E+00 0.  1.
         11    1    4    4    0    0  0.49398295078E+02  0.22922633453E+02 -0.14970456511E+02  0.56477900538E+02  0.00000000000E+00 0. -1.
</event>
<event>
 8    1  0.8619230E-006  0.1541040E+03  0.7561462E-02  0.1195519E+00
          1   -1    0    0  501    0  0.00000000000E+00  0.00000000000E+00  0.47489412598E+03  0.47489412598E+03  0.00000000000E+00 0. -1.
         -1   -1    0    0    0  501 -0.00000000000E+00 -0.00000000000E+00 -0.52335409318E+02  0.52335409318E+02  0.00000000000E+00 0.  1.
         23    2    1    2    0    0 -0.87332149436E+02 -0.69216809584E+02  0.18966864675E+03  0.25306601526E+03  0.12510132479E+03 0.  0.
         23    2    1    2    0    0  0.87332149436E+02  0.69216809584E+02  0.23289006991E+03  0.27416352004E+03  0.92249552867E+02 0.  0.
          5    1    3    3  502    0 -0.48052885654E+02  0.30261849162E+02  0.42322672572E+02  0.70947447791E+02  0.41800000000E+01 0.  1.
         -5    1    3    3    0  502 -0.39279263783E+02 -0.99478658747E+02  0.14734597418E+03  0.18211856747E+03  0.41800000000E+01 0.  1.
        -11    1    4    4    0    0  0.95322191980E+02  0.23975945110E+02  0.14858462940E+03  0.17815318780E+03  0.00000000000E+00 0.  1.
         11    1    4    4    0    0 -0.79900425434E+01  0.45240864474E+02  0.84305440508E+02  0.96010332243E+02  0.00000000000E+00 0. -1.
</event>
<event>
 8    1  0.8619230E-006  0.1286103E+03  0.7561462E-02  0.1229533E+00
          1   -1    0    0  501    0  0.00000000000E+00  0.00000000000E+00  0.25497552090E+03  0.25497552090E+03  0.00000000000E+00 0. -1.
         -1   -1    0    0    0  501 -0.00000000000E+00 -0.00000000000E+00 -0.81408079178E+02  0.81408079178E+02  0.00000000000E+00 0.  1.
         23    2    1    2    0    0 -0.21916470752E+02 -0.92079915096E+02  0.10325486766E+03  0.18780159715E+03  0.12509528265E+03 0.  0.
         23    2    1    2    0    0  0.21916470752E+02  0.92079915096E+02  0.70312574064E+02  0.14858200293E+03  0.90408578522E+02 0.  0.
          5    1    3    3  502    0 -0.39692053744E+02  0.73715899190E+01  0.70797116931E+02  0.81605781867E+02  0.41800000000E+01 0.  1.
         -5    1    3    3    0  502  0.17775582992E+02 -0.99451505015E+02  0.32457750731E+02  0.10619581528E+03  0.41800000000E+01 0.  1.
        -11    1    4    4    0    0  0.20863552319E+02 -0.24295954838E+01 -0.11171789112E+02  0.23790746553E+02  0.00000000000E+00 0.  1.
         11    1    4    4    0    0  0.10529184335E+01  0.94509510580E+02  0.81484363176E+02  0.12479125638E+03  0.00000000000E+00 0. -1.
</event>
<event>
 8    1  0.8619230E-006  0.9988565E+02  0.7561462E-02  0.1280537E+00
          1   -1    0    0  501    0  0.00000000000E+00  0.00000000000E+00  0.26347428468E+03  0.26347428468E+03  0.00000000000E+00 0. -1.
         -1   -1    0    0    0  501 -0.00000000000E+00 -0.00000000000E+00 -0.57783232905E+02  0.57783232905E+02  0.00000000000E+00 0.  1.
         23    2    1    2    0    0  0.43273465342E+02  0.30730693067E+02  0.81811057249E+02  0.15862451232E+03  0.12510682843E+03 0.  0.
         23    2    1    2    0    0 -0.43273465342E+02 -0.30730693067E+02  0.12387999452E+03  0.16263300526E+03  0.91028968241E+02 0.  0.
          5    1    3    3  502    0 -0.47592124421E+01 -0.25114143020E+02  0.80788697523E+02  0.84839002411E+02  0.41800000000E+01 0. -1.
         -5    1    3    3    0  502  0.48032677784E+02  0.55844836088E+02  0.10223597257E+01  0.73785509907E+02  0.41800000000E+01 0. -1.
        -11    1    4    4    0    0 -0.50897752244E+02 -0.54831863037E+02  0.67165681045E+02  0.10054025611E+03  0.00000000000E+00 0.  1.
         11    1    4    4    0    0  0.76242869015E+01  0.24101169970E+02  0.56714313479E+02  0.62092749159E+02  0.00000000000E+00 0. -1.
</event>
<event>
 8    1  0.8619230E-006  0.1777270E+03  0.7561462E-02  0.1170021E+00
          4   -1    0    0  501    0  0.00000000000E+00  0.00000000000E+00  0.96671903259E+03  0.96671903259E+03  0.00000000000E+00 0.  1.
         -4   -1    0    0    0  501 -0.00000000000E+00 -0.00000000000E+00 -0.68559044210E+02  0.68559044210E+02  0.00000000000E+00 0. -1.
         23    2    1    2    0    0  0.11422551147E+03 -0.12745125364E+03  0.14281701871E+03  0.25560981413E+03  0.12509351190E+03 0.  0.
         23    2    1    2    0    0 -0.11422551147E+03  0.12745125364E+03  0.75534296966E+03  0.77966826267E+03  0.89712365204E+02 0.  0.
          5    1    3    3  502    0  0.47652760268E+02 -0.22396135788E+02 -0.14738745229E+02  0.54836807623E+02  0.41800000000E+01 0. -1.
         -5    1    3    3    0  502  0.66572751197E+02 -0.10505511785E+03  0.15755576394E+03  0.20077300650E+03  0.41800000000E+01 0. -1.
        -11    1    4    4    0    0 -0.11666538301E+03  0.10926285874E+03  0.73538443352E+03  0.75255527967E+03  0.00000000000E+00 0.  1.
         11    1    4    4    0    0  0.24398715413E+01  0.18188394903E+02  0.19958536142E+02  0.27112983001E+02  0.00000000000E+00 0. -1.
</event>
<event>
 8    1  0.8619230E-006  0.1087356E+03  0.7561462E-02  0.1262929E+00
          1   -1    0    0  501    0  0.00000000000E+00  0.00000000000E+00  0.14817379161E+03  0.14817379161E+03  0.00000000000E+00 0. -1.
         -1   -1    0    0    0  501 -0.00000000000E+00 -0.00000000000E+00 -0.14333060216E+03  0.14333060216E+03  0.00000000000E+00 0.  1.
         23    2    1    2    0    0  0.16379700890E+02 -0.94446642543E+02 -0.92991871887E+00  0.15759691096E+03  0.12508980256E+03 0.  0.
         23    2    1    2    0    0 -0.16379700890E+02  0.94446642543E+02  0.57731081770E+01  0.13390748281E+03  0.93324285619E+02 0.  0.
          5    1    3    3  502    0 -0.23988097917E+02 -0.48642761842E+02  0.53059340705E+02  0.75988901540E+02  0.41800000000E+01 0.  1.
         -5    1    3    3    0  502  0.40367798807E+02 -0.45803880701E+02 -0.53989259424E+02  0.81608009417E+02  0.41800000000E+01 0.  1.
        -11    1    4    4    0    0  0.80392144073E+00  0.78281382280E+02 -0.35818523380E+02  0.86090578570E+02  0.00000000000E+00 0.  1.
         11    1    4    4    0    0 -0.17183622331E+02  0.16165260263E+02  0.41591631557E+02  0.47816904243E+02  0.00000000000E+00 0. -1.
</event>
<event>
 8    1  0.8619230E-006  0.1601588E+03  0.7561462E-02  0.1188518E+00
         -2   -1    0    0    0  501 -0.00000000000E+00  0.00000000000E+00  0.98791243640E+02  0.98791243640E+02  0.00000000000E+00 0.  1.
          2   -1    0    0  501    0  0.00000000000E+00 -0.00000000000E+00 -0.31753915281E+03  0.31753915281E+03  0.00000000000E+00 0. -1.
         23    2    1    2    0    0  0.78883026046E+02 -0.11413765580E+03 -0.13884091085E+03  0.23275180156E+03  0.12508663532E+03 0.  0.
         23    2    1    2    0    0 -0.78883026046E+02  0.11413765580E+03 -0.79906998321E+02  0.18357859489E+03  0.89811112059E+02 0.  0.
          5    1    3    3  502    0  0.99942473646E+01 -0.11199941493E+03 -0.58515264186E+02  0.12682768810E+03  0.41800000000E+01 0. -1.
         -5    1    3    3    0  502  0.68888778681E+02 -0.21382408735E+01 -0.80325646661E+02  0.10592411347E+03  0.41800000000E+01 0. -1.
        -11    1    4    4    0    0 -0.61048579901E+02  0.87681992173E+02 -0.10705714038E+02  0.10737631570E+03  0.00000000000E+00 0.  1.
         11    1    4    4    0    0 -0.17834446145E+02  0.26455663630E+02 -0.69201284283E+02  0.76202279190E+02  0.00000000000E+00 0. -1.
</event>
<event>
 8    1  0.8619230E-006  0.1156962E+03  0.7561462E-02  0.1250371E+00
          3   -1    0    0  501    0  0.00000000000E+00  0.00000000000E+00  0.17129329190E+03  0.17129329190E+03  0.00000000000E+00 0. -1.
         -3   -1    0    0    0  501 -0.00000000000E+00 -0.00000000000E+00 -0.80015588616E+02  0.80015588616E+02  0.00000000000E+00 0.  1.
         23    2    1    2    0    0 -0.18138720945E+02 -0.34999063241E+02  0.36943308624E+02  0.13621160288E+03  0.12503937412E+03 0.  0.
         23    2    1    2    0    0  0.18138720945E+02  0.34999063241E+02  0.54334394655E+02  0.11509727763E+03  0.93494434329E+02 0.  0.
          5    1    3    3  502    0 -0.71365181240E+02 -0.28693849487E+02  0.26374758253E+02  0.81421289383E+02  0.41800000000E+01 0.  1.
         -5    1    3    3    0  502  0.53226460296E+02 -0.63052137539E+01  0.10568550371E+02  0.54790313497E+02  0.41800000000E+01 0.  1.
        -11    1    4    4    0    0  0.55942178808E+02  0.26261968290E+02  0.25968547077E+02  0.67034198627E+02  0.00000000000E+00 0.  1.
         11    1    4    4    0    0 -0.37803457864E+02  0.87370949510E+01  0.28365847578E+02  0.48063079005E+02  0.00000000000E+00 0. -1.
</event>
<event>
 8    1  0.8619230E-006  0.1249296E+03  0.7561462E-02  0.1235179E+00
         -1   -1    0    0    0  501 -0.00000000000E+00  0.00000000000E+00  0.34037626157E+02  0.34037626157E+02  0.00000000000E+00 0.  1.
          1   -1    0    0  501    0  0.00000000000E+00 -0.00000000000E+00 -0.68309731847E+03  0.68309731847E+03  0.00000000000E+00 0. -1.
         23    2    1    2    0    0 -0.67989215482E+02 -0.21822030312E+02 -0.14586199170E+03  0.19659775097E+03  0.11079810754E+03 0.  0.
         23    2    1    2    0    0  0.67989215482E+02  0.21822030312E+02 -0.50319770061E+03  0.52053719365E+03  0.11248248598E+03 0.  0.
          5    1    3    3  502    0 -0.18860023423E+02  0.36233648427E+02 -0.12335886678E+02  0.42874517629E+02  0.41800000000E+01 0. -1.
         -5    1    3    3    0  502 -0.49129192059E+02 -0.58055678738E+02 -0.13352610503E+03  0.15372323334E+03  0.41800000000E+01 0.  1.
        -11    1    4    4    0    0  0.83655632183E+02  0.52089764443E+02 -0.35112626629E+03  0.36469338249E+03  0.00000000000E+00 0. -1.
         11    1    4    4    0    0 -0.15666416701E+02 -0.30267734131E+02 -0.15207143432E+03  0.15584381116E+03  0.00000000000E+00 0.  1.
</event>
<event>
 8    1  0.8619230E-006  0.1291112E+03  0.7561462E-02  0.1228780E+00
          1   -1    0    0  501    0  0.00000000000E+00  0.00000000000E+00  0.88978335019E+03  0.88978335019E+03  0.00000000000E+00 0. -1.
         -1   -1    0    0    0  501 -0.00000000000E+00 -0.00000000000E+00 -0.20614506971E+02  0.20614506971E+02  0.00000000000E+00 0.  1.
         23    2    1    2    0    0  0.40483283649E+02  0.69739327979E+02  0.47007477813E+03  0.49307191888E+03  0.12508856874E+03 0.  0.
         23    2    1    2    0    0 -0.40483283649E+02 -0.69739327979E+02  0.39909406509E+03  0.41732593828E+03  0.91555425026E+02 0.  0.
          5    1    3    3  502    0 -0.29291139221E+02  0.63436524303E+02  0.15195091692E+03  0.16729828752E+03  0.41800000000E+01 0. -1.
         -5    1    3    3    0  502  0.69774422870E+02  0.63028036760E+01  0.31812386120E+03  0.32577363136E+03  0.41800000000E+01 0. -1.
        -11    1    4    4    0    0  0.27188424088E+02 -0.15350349754E+02  0.64619020007E+02  0.71766715047E+02  0.00000000000E+00 0.  1.
         11    1    4    4    0    0 -0.67671707737E+02 -0.54388978225E+02  0.33447504508E+03  0.34555922324E+03  0.00000000000E+00 0. -1.
</event>
<event>
 8    1  0.8619230E-006  0.3631628E+03  0.7561462E-02  0.1057339E+00
         -1   -1    0    0    0  501 -0.00000000000E+00  0.00000000000E+00  0.89436998678E+03  0.89436998678E+03  0.00000000000E+00 0.  1.
          1   -1    0    0  501    0  0.00000000000E+00 -0.00000000000E+00 -0.18246418616E+03  0.18246418616E+03  0.00000000000E+00 0. -1.
         23    2    1    2    0    0 -0.26739741751E+03  0.23524302222E+03  0.56811989936E+03  0.68209125974E+03  0.12509040000E+03 0.  0.
         23    2    1    2    0    0  0.26739741751E+03 -0.23524302222E+03  0.14378590126E+03  0.39474291319E+03  0.91142326694E+02 0.  0.
          5    1    3    3  502    0 -0.24517385586E+03  0.16506058009E+03  0.39037026892E+03  0.48965460679E+03  0.41800000000E+01 0.  1.
         -5    1    3    3    0  502 -0.22223561647E+02  0.70182442136E+02  0.17774963044E+03  0.19243665295E+03  0.41800000000E+01 0.  1.
        -11    1    4    4    0    0  0.11419084936E+03 -0.84371432395E+02  0.10418652419E+03  0.17610485656E+03  0.00000000000E+00 0.  1.
         11    1    4    4    0    0  0.15320656815E+03 -0.15087158983E+03  0.39599377076E+02  0.21863805663E+03  0.00000000000E+00 0. -1.
</event>
<event>
 7    1  0.8619230E-006  0.1540124E+03  0.7561462E-02  0.1195627E+00
         -4   -1    0    0    0  501 -0.00000000000E+00  0.00000000000E+00  0.10933408637E+04  0.10933408637E+04  0.00000000000E+00 0.  1.
          4   -1    0    0  501    0  0.00000000000E+00 -0.00000000000E+00 -0.90651169928E+02  0.90651169928E+02  0.00000000000E+00 0. -1.
         23    2    1    2    0    0  0.96813694483E+02 -0.88735074509E+01 -0.14447503283E+02  0.13339517509E+03  0.90188202174E+02 0.  0.
          5    1    1    2  502    0  0.42693434145E+02  0.36460910509E+02  0.57506331810E+02  0.80477188771E+02  0.41800000000E+01 0. -1.
         -5    1    1    2    0  502 -0.13950712863E+03 -0.27587403058E+02  0.95963086528E+03  0.97011966981E+03  0.41800000000E+01 0.  1.
        -11    1    3    3    0    0  0.30892715526E+01 -0.15206834820E+02  0.26667287412E+02  0.30853454294E+02  0.00000000000E+00 0.  1.
         11    1    3    3    0    0  0.93724422931E+02  0.63333273691E+01 -0.41114790695E+02  0.10254172079E+03  0.00000000000E+00 0. -1.
</event>
<event>
 8    1  0.8619230E-006  0.1392389E+03  0.7561462E-02  0.1214357E+00
         -1   -1    0    0    0  501 -0.00000000000E+00  0.00000000000E+00  0.33872911154E+03  0.33872911154E+03  0.00000000000E+00 0.  1.
          1   -1    0    0  501    0  0.00000000000E+00 -0.00000000000E+00 -0.64737892559E+02  0.64737892559E+02  0.00000000000E+00 0. -1.
         23    2    1    2    0    0 -0.65331892435E+02 -0.66319789151E+02  0.19422274069E+03  0.24907248231E+03  0.12509219737E+03 0.  0.
         23    2    1    2    0    0  0.65331892435E+02  0.66319789151E+02  0.79768478291E+02  0.15439452179E+03  0.93851412489E+02 0.  0.
          5    1    3    3  502    0 -0.71572844492E+02  0.11341308487E+02  0.12607864071E+03  0.14548056018E+03  0.41800000000E+01 0. -1.
         -5    1    3    3    0  502  0.62409520568E+01 -0.77661097638E+02  0.68144099975E+02  0.10359192213E+03  0.41800000000E+01 0. -1.
        -11    1    4    4    0    0  0.70913838826E+02  0.10402510143E+02  0.63849040874E+02  0.95987940779E+02  0.00000000000E+00 0.  1.
         11    1    4    4    0    0 -0.55819463911E+01  0.55917279008E+02  0.15919437417E+02  0.58406581007E+02  0.00000000000E+00 0. -1.
</event>
<event>
 8    1  0.8619230E-006  0.7747705E+02  0.7561462E-02  0.1336368E+00
          2   -1    0    0  501    0  0.00000000000E+00  0.00000000000E+00  0.18728875093E+03  0.18728875093E+03  0.00000000000E+00 0. -1.
         -2   -1    0    0    0  501 -0.00000000000E+00 -0.00000000000E+00 -0.68991305347E+02  0.68991305347E+02  0.00000000000E+00 0.  1.
         23    2    1    2    0    0 -0.18603729474E+02  0.12186823952E+02  0.33868327686E+02  0.13148933756E+03  0.12509102624E+03 0.  0.
         23    2    1    2    0    0  0.18603729474E+02 -0.12186823952E+02  0.84429117896E+02  0.12479071871E+03  0.89161819741E+02 0.  0.
          5    1    3    3  502    0  0.35372257038E+02  0.54092661707E+01 -0.30432604777E+02  0.47160073812E+02  0.41800000000E+01 0. -1.
         -5    1    3    3    0  502 -0.53975986512E+02  0.67775577817E+01  0.64300932463E+02  0.84329263752E+02  0.41800000000E+01 0. -1.
        -11    1    4    4    0    0 -0.92696138071E+01 -0.29925311129E+02 -0.28597828652E+01  0.31458358894E+02  0.00000000000E+00 0. -1.
         11    1    4    4    0    0  0.27873343281E+02  0.17738487177E+02  0.87288900761E+02  0.93332359817E+02  0.00000000000E+00 0.  1.
</event>
<event>
 8    1  0.8619230E-006  0.1277169E+03  0.7561462E-02  0.1230883E+00
          2   -1    0    0  501    0  0.00000000000E+00  0.00000000000E+00  0.33596779972E+02  0.33596779972E+02  0.00000000000E+00 0. -1.
         -2   -1    0    0    0  501 -0.00000000000E+00 -0.00000000000E+00 -0.54635565223E+03  0.54635565223E+03  0.00000000000E+00 0.  1.
         23    2    1    2    0    0  0.49167355827E+01  0.75940829691E+02 -0.31983974500E+03  0.35175343762E+03  0.12506731983E+03 0.  0.
         23    2    1    2    0    0 -0.49167355827E+01 -0.75940829691E+02 -0.19291912725E+03  0.22819899458E+03  0.95214534419E+02 0.  0.
          5    1    3    3  502    0 -0.48769742651E+01 -0.32659508572E+02 -0.44440363999E+02  0.55523389041E+02  0.41800000000E+01 0.  1.
         -5    1    3    3    0  502  0.97937098478E+01  0.10860033826E+03 -0.27539938101E+03  0.29623004858E+03  0.41800000000E+01 0.  1.
        -11    1    4    4    0    0  0.22649172469E+02  0.85072475807E+01 -0.12814909386E+02  0.27378461927E+02  0.00000000000E+00 0. -1.
         11    1    4    4    0    0 -0.27565908052E+02 -0.84448077272E+02 -0.18010421787E+03  0.20082053265E+03  0.00000000000E+00 0.  1.
</event>
<event>
 8    1  0.8619230E-006  0.1062810E+03  0.7561462E-02  0.1267616E+00
          2   -1    0    0  501    0  0.00000000000E+00  0.00000000000E+00  0.90858346125E+03  0.90858346125E+03  0.00000000000E+00 0. -1.
         -2   -1    0    0    0  501 -0.00000000000E+00 -0.00000000000E+00 -0.18227563779E+02  0.18227563779E+02  0.00000000000E+00 0.  1.
         23    2    1    2    0    0 -0.47307587832E+02  0.63504618035E+02  0.57021893241E+03  0.58912369176E+03  0.12508496683E+03 0.  0.
         23    2    1    2    0    0  0.47307587832E+02 -0.63504618035E+02  0.32013696506E+03  0.33768733328E+03  0.72623785899E+02 0.  0.
          5    1    3    3  502    0  0.21748339242E+02  0.15789295412E+02  0.38232285621E+03  0.38328909571E+03  0.41800000000E+01 0. -1.
         -5    1    3    3    0  502 -0.69055927074E+02  0.47715322623E+02  0.18789607620E+03  0.20583459605E+03  0.41800000000E+01 0. -1.
        -11    1    4    4    0    0  0.38099454687E+02 -0.96869525978E+00  0.70168630348E+02  0.79850757685E+02  0.00000000000E+00 0.  1.
         11    1    4    4    0    0  0.92081331453E+01 -0.62535922775E+02  0.24996833471E+03  0.25783657559E+03  0.00000000000E+00 0. -1.
</event>
<event>
 8    1  0.8619230E-006  0.1076931E+03  0.7561462E-02  0.1264902E+00
         -2   -1    0    0    0  501 -0.00000000000E+00  0.00000000000E+00  0.36857878160E+03  0.36857878160E+03  0.00000000000E+00 0. -1.
          2   -1    0    0  501    0  0.00000000000E+00 -0.00000000000E+00 -0.35832059012E+02  0.35832059012E+02  0.00000000000E+00 0.  1.
         23    2    1    2    0    0  0.65185080729E+01  0.28829455531E+02  0.23948991331E+03  0.27180041010E+03  0.12508563425E+03 0.  0.
         23    2    1    2    0    0 -0.65185080729E+01 -0.28829455531E+02  0.93256809275E+02  0.13261043052E+03  0.89526897367E+02 0.  0.
          5    1    3    3  502    0  0.60841931184E+02  0.34491138855E+01  0.75330837521E+02  0.96983732958E+02  0.41800000000E+01 0.  1.
         -5    1    3    3    0  502 -0.54323423111E+02  0.25380341645E+02  0.16415907579E+03  0.17481667714E+03  0.41800000000E+01 0.  1.
        -11    1    4    4    0    0  0.22895813592E+02  0.24351337108E+02  0.35758470669E+02  0.48947667192E+02  0.00000000000E+00 0. -1.
         11    1    4    4    0    0 -0.29414321665E+02 -0.53180792639E+02  0.57498338606E+02  0.83662763325E+02  0.00000000000E+00 0.  1.
</event>
<event>
 8    1  0.8619230E-006  0.2742369E+03  0.7561462E-02  0.1098879E+00
         -2   -1    0    0    0  501 -0.00000000000E+00  0.00000000000E+00  0.36183354438E+02  0.36183354438E+02  0.00000000000E+00 0.  1.
          2   -1    0    0  501    0  0.00000000000E+00 -0.00000000000E+00 -0.21791906038E+04  0.21791906038E+04  0.00000000000E+00 0. -1.
         23    2    1    2    0    0 -0.78861414872E+02  0.24115075437E+03 -0.12875526376E+04  0.13182619231E+04  0.12509953711E+03 0.  0.
         23    2    1    2    0    0  0.78861414872E+02 -0.24115075437E+03 -0.85545461175E+03  0.89711203513E+03  0.92922557740E+02 0.  0.
          5    1    3    3  502    0 -0.10723339159E+03  0.22122635398E+03 -0.10671711304E+04  0.10951309483E+04  0.41800000000E+01 0.  1.
         -5    1    3    3    0  502  0.28371976719E+02  0.19924400387E+02 -0.22038150720E+03  0.22313097479E+03  0.41800000000E+01 0.  1.
        -11    1    4    4    0    0  0.85639001155E+02 -0.12615238612E+03 -0.54679617390E+03  0.56765704332E+03  0.00000000000E+00 0. -1.
         11    1    4    4    0    0 -0.67775862830E+01 -0.11499836825E+03 -0.30865843785E+03  0.32945499181E+03  0.00000000000E+00 0.  1.
</event>
<event>
 8    1  0.8619230E-006  0.1801585E+03  0.7561462E-02  0.1167650E+00
          2   -1    0    0  501    0  0.00000000000E+00  0.00000000000E+00  0.41039125260E+03  0.41039125260E+03  0.00000000000E+00 0. -1.
         -2   -1    0    0    0  501 -0.00000000000E+00 -0.00000000000E+00 -0.84982300496E+02  0.84982300496E+02  0.00000000000E+00 0.  1.
         23    2    1    2    0    0 -0.54495957107E+02 -0.14290371285E+03  0.14499694207E+03  0.24155416188E+03  0.11803821171E+03 0.  0.
         23    2    1    2    0    0  0.54495957107E+02  0.14290371285E+03  0.18041201003E+03  0.25381939122E+03  0.92111397273E+02 0.  0.
          5    1    3    3  502    0  0.14735038318E+02 -0.11862539526E+03  0.93595809167E+02  0.15187742969E+03  0.41800000000E+01 0. -1.
         -5    1    3    3    0  502 -0.69230995426E+02 -0.24278317590E+02  0.51401132903E+02  0.89676732190E+02  0.41800000000E+01 0.  1.
        -11    1    4    4    0    0  0.65544319120E+02  0.14168093827E+03  0.13287720419E+03  0.20500218885E+03  0.00000000000E+00 0.  1.
         11    1    4    4    0    0 -0.11048362013E+02  0.12227745759E+01  0.47534805845E+02  0.48817202373E+02  0.00000000000E+00 0. -1.
</event>
<event>
 8    1  0.8619230E-006  0.7677349E+02  0.7561462E-02  0.1338465E+00
          2   -1    0    0  501    0  0.00000000000E+00  0.00000000000E+00  0.15805126545E+03  0.15805126545E+03  0.00000000000E+00 0. -1.
         -2   -1    0    0    0  501 -0.00000000000E+00 -0.00000000000E+00 -0.90778736041E+02  0.90778736041E+02  0.00000000000E+00 0.  1.
         23    2    1    2    0    0  0.47807898351E+02  0.18183548404E+01  0.49249026504E+02  0.14269908241E+03  0.12509460400E+03 0.  0.
         23    2    1    2    0    0 -0.47807898351E+02 -0.18183548404E+01  0.18023502906E+02  0.10613091908E+03  0.93005503971E+02 0.  0.
          5    1    3    3  502    0  0.25972886985E+02 -0.96416620435E+01  0.90345258239E+02  0.94590118890E+02  0.41800000000E+01 0.  1.
         -5    1    3    3    0  502  0.21835011366E+02  0.11460016884E+02 -0.41096231735E+02  0.48108963522E+02  0.41800000000E+01 0.  1.
        -11    1    4    4    0    0 -0.42490658689E+02 -0.42141821770E+02  0.25013891114E+02  0.64862037946E+02  0.00000000000E+00 0. -1.
         11    1    4    4    0    0 -0.53172396621E+01  0.40323466929E+02 -0.69903882077E+01  0.41268881135E+02  0.00000000000E+00 0.  1.
</event>
<event>
 8    1  0.8619230E-006  0.8846345E+02  0.7561462E-02  0.1306616E+00
          3   -1    0    0  501    0  0.00000000000E+00  0.00000000000E+00  0.16305916793E+03  0.16305916793E+03  0.00000000000E+00 0. -1.
         -3   -1    0    0    0  501 -0.00000000000E+00 -0.00000000000E+00 -0.81971499453E+02  0.81971499453E+02  0.00000000000E+00 0.  1.
         23    2    1    2    0    0 -0.12082664920E+02  0.35890461869E+02  0.30968808652E+02  0.13431619011E+03  0.12509059026E+03 0.  0.
         23    2    1    2    0    0  0.12082664920E+02 -0.35890461869E+02  0.50118859824E+02  0.11071447727E+03  0.91168411868E+02 0.  0.
          5    1    3    3  502    0  0.43851192725E+02  0.58738501696E+01  0.50976370641E+02  0.67627597791E+02  0.41800000000E+01 0. -1.
         -5    1    3    3    0  502 -0.55933857645E+02  0.30016611700E+02 -0.20007561989E+02  0.66688592320E+02  0.41800000000E+01 0. -1.
        -11    1    4    4    0    0 -0.20841642949E+02 -0.95237007848E+00 -0.17879929568E+02  0.27476771479E+02  0.00000000000E+00 0.  1.
         11    1    4    4    0    0  0.32924307869E+02 -0.34938091791E+02  0.67998789392E+02  0.83237705791E+02  0.00000000000E+00 0. -1.
</event>
<event>
 8    1  0.8619230E-006  0.1895246E+03  0.7561462E-02  0.1158891E+00
          1   -1    0    0  501    0  0.00000000000E+00  0.00000000000E+00  0.50437256877E+03  0.50437256877E+03  0.00000000000E+00 0. -1.
         -1   -1    0    0    0  501 -0.00000000000E+00 -0.00000000000E+00 -0.86184781360E+02  0.86184781360E+02  0.00000000000E+00 0.  1.
         23    2    1    2    0    0 -0.15316464566E+03  0.60118458728E+02  0.12059220320E+03  0.23929704186E+03  0.12508779719E+03 0.  0.
         23    2    1    2    0    0  0.15316464566E+03 -0.60118458728E+02  0.29759558421E+03  0.35126030827E+03  0.88017240732E+02 0.  0.
          5    1    3    3  502    0 -0.11124091284E+03 -0.21398483238E+02  0.81192481550E+02  0.13943502872E+03  0.41800000000E+01 0.  1.
         -5    1    3    3    0  502 -0.41923732828E+02  0.81516941966E+02  0.39399721651E+02  0.99862013138E+02  0.41800000000E+01 0.  1.
        -11    1    4    4    0    0  0.73587272239E+02 -0.59043085837E+02  0.22318804487E+03  0.24230987597E+03  0.00000000000E+00 0. -1.
         11    1    4    4    0    0  0.79577373425E+02 -0.10753728916E+01  0.74407539339E+02  0.10895043230E+03  0.00000000000E+00 0.  1.
</event>
<event>
 8    1  0.8619230E-006  0.1325060E+03  0.7561462E-02  0.1223784E+00
         -1   -1    0    0    0  501 -0.00000000000E+00  0.00000000000E+00  0.16981616175E+03  0.16981616175E+03  0.00000000000E+00 0.  1.
          1   -1    0    0  501    0  0.00000000000E+00 -0.00000000000E+00 -0.24077699615E+03  0.24077699615E+03  0.00000000000E+00 0. -1.
         23    2    1    2    0    0  0.30988245045E+02 -0.11135683568E+03  0.95521559533E+02  0.18600928329E+03  0.11006574831E+03 0.  0.
         23    2    1    2    0    0 -0.30988245045E+02  0.11135683568E+03 -0.16648239394E+03  0.22458387460E+03  0.96751811639E+02 0.  0.
          5    1    3    3  502    0  0.44159899148E+02 -0.16765913352E+02 -0.45231588827E+01  0.47635322079E+02  0.41800000000E+01 0. -1.
         -5    1    3    3    0  502 -0.13171654103E+02 -0.94590922332E+02  0.10004471842E+03  0.13837396122E+03  0.41800000000E+01 0.  1.
        -11    1    4    4    0    0 -0.16554749050E+02  0.94278170733E+01  0.90494804256E+01  0.21091148543E+02  0.00000000000E+00 0.  1.
         11    1    4    4    0    0 -0.14433495995E+02  0.10192901861E+03 -0.17553187436E+03  0.20349272606E+03  0.00000000000E+00 0. -1.
</event>
<event>
 8    1  0.8619230E-006  0.1445452E+03  0.7561462E-02  0.1207341E+00
          2   -1    0    0  501    0  0.00000000000E+00  0.00000000000E+00  0.54538668961E+03  0.54538668961E+03  0.00000000000E+00 0.  1.
         -2   -1    0    0    0  501 -0.00000000000E+00 -0.00000000000E+00 -0.46304145928E+02  0.46304145928E+02  0.00000000000E+00 0. -1.
         23    2    1    2    0    0  0.10999570051E+03 -0.19689444748E+02  0.20594953212E+03  0.26561512851E+03  0.12509779514E+03 0.  0.
         23    2    1    2    0    0 -0.10999570051E+03  0.19689444748E+02  0.29313301156E+03  0.32607570703E+03  0.88947601878E+02 0.  0.
          5    1    3    3  502    0  0.12357335491E+03  0.17188230826E+02  0.17715082926E+03  0.21671570785E+03  0.41800000000E+01 0.  1.
         -5    1    3    3    0  502 -0.13577654394E+02 -0.36877675574E+02  0.28798702864E+02  0.48899420664E+02  0.41800000000E+01 0.  1.
        -11    1    4    4    0    0 -0.86740531426E+02  0.38428897727E+02  0.27553493218E+03  0.29141070472E+03  0.00000000000E+00 0.  1.
         11    1    4    4    0    0 -0.23255169088E+02 -0.18739452979E+02  0.17598079385E+02  0.34665002312E+02  0.00000000000E+00 0. -1.
</event>
<event>
 8    1  0.8619230E-006  0.1058229E+03  0.7561462E-02  0.1268507E+00
         -2   -1    0    0    0  501 -0.00000000000E+00  0.00000000000E+00  0.21928239944E+03  0.21928239944E+03  0.00000000000E+00 0.  1.
          2   -1    0    0  501    0  0.00000000000E+00 -0.00000000000E+00 -0.83617256313E+02  0.83617256313E+02  0.00000000000E+00 0. -1.
         23    2    1    2    0    0 -0.34972381939E+01  0.71482918059E+02  0.11617091309E+03  0.18691290702E+03  0.12774472793E+03 0.  0.
         23    2    1    2    0    0  0.34972381939E+01 -0.71482918059E+02  0.19494230033E+02  0.11598674873E+03  0.89167609740E+02 0.  0.
          5    1    3    3  502    0 -0.18134729505E+02  0.10097576478E+03  0.11433635894E+03  0.15367253776E+03  0.41800000000E+01 0. -1.
         -5    1    3    3    0  502  0.14637491312E+02 -0.29492846721E+02  0.18345541541E+01  0.33240369260E+02  0.41800000000E+01 0.  1.
        -11    1    4    4    0    0 -0.10822673494E+02 -0.31939725884E+02 -0.34034656615E+02  0.47912777022E+02  0.00000000000E+00 0. -1.
         11    1    4    4    0    0  0.14319911688E+02 -0.39543192175E+02  0.53528886648E+02  0.68073971706E+02  0.00000000000E+00 0.  1.
</event>
<event>
 7    1  0.8619230E-006  0.1139970E+03  0.7561462E-02  0.1253342E+00
          1   -1    0    0  501    0  0.00000000000E+00  0.00000000000E+00  0.96676478427E+03  0.96676478427E+03  0.00000000000E+00 0. -1.
         -1   -1    0    0    0  501 -0.00000000000E+00 -0.00000000000E+00 -0.17955685869E+02  0.17955685869E+02  0.00000000000E+00 0.  1.
         23    2    1    2    0    0 -0.30758977405E+02 -0.29057824796E+02  0.45835481035E+03  0.46937529289E+03  0.91834424519E+02 0.  0.
          5    1    1    2  502    0  0.46179551702E+02 -0.37439034696E+02  0.38547368080E+03  0.39005341083E+03  0.41800000000E+01 0. -1.
         -5    1    1    2    0  502 -0.15420574296E+02  0.66496859492E+02  0.10498060725E+03  0.12529176642E+03  0.41800000000E+01 0.  1.
        -11    1    3    3    0    0  0.31687182432E+02 -0.14183804811E+01  0.17946153552E+03  0.18224305766E+03  0.00000000000E+00 0.  1.
         11    1    3    3    0    0 -0.62446159837E+02 -0.27639444314E+02  0.27889327483E+03  0.28713223523E+03  0.00000000000E+00 0. -1.
</event>
<event>
 8    1  0.8619230E-006  0.2465657E+03  0.7561462E-02  0.1115495E+00
         -1   -1    0    0    0  501 -0.00000000000E+00  0.00000000000E+00  0.97138880884E+02  0.97138880884E+02  0.00000000000E+00 0.  1.
          1   -1    0    0  501    0  0.00000000000E+00 -0.00000000000E+00 -0.77911383259E+03  0.77911383259E+03  0.00000000000E+00 0. -1.
         23    2    1    2    0    0  0.22395914023E+03  0.42667297962E+02 -0.17615506441E+03  0.31409639233E+03  0.12509093550E+03 0.  0.
         23    2    1    2    0    0 -0.22395914023E+03 -0.42667297962E+02 -0.50581988729E+03  0.56215632114E+03  0.90486331630E+02 0.  0.
          5    1    3    3  502    0  0.17165976113E+03  0.75002980822E+02 -0.16849263309E+03  0.25199158821E+03  0.41800000000E+01 0.  1.
         -5    1    3    3    0  502  0.52299379108E+02 -0.32335682860E+02 -0.76624313257E+01  0.62104804121E+02  0.41800000000E+01 0.  1.
        -11    1    4    4    0    0 -0.13914381387E+03  0.17350903951E+02 -0.26314063559E+03  0.29816949694E+03  0.00000000000E+00 0.  1.
         11    1    4    4    0    0 -0.84815326368E+02 -0.60018201913E+02 -0.24267925171E+03  0.26398682421E+03  0.00000000000E+00 0. -1.
</event>
<event>
 8    1  0.1463607E-005  0.2026941E+03  0.7561462E-02  0.1147486E+00
          1   -1    0    0  501    0  0.00000000000E+00  0.00000000000E+00  0.11229770290E+04  0.11229770290E+04  0.00000000000E+00 0. -1.
         -1   -1    0    0    0  501 -0.00000000000E+00 -0.00000000000E+00 -0.40684727167E+02  0.40684727167E+02  0.00000000000E+00 0.  1.
         23    2    1    2    0    0  0.13920964981E+03  0.11823405564E+03  0.48100396611E+03  0.52950080741E+03  0.12509065162E+03 0.  0.
         23    2    1    2    0    0 -0.13920964981E+03 -0.11823405564E+03  0.60128833568E+03  0.63416094871E+03  0.85169406080E+02 0.  0.
          5    1    3    3  502    0  0.15129608609E+03  0.83761315521E+02  0.44744628351E+03  0.47972086954E+03  0.41800000000E+01 0. -1.
         -5    1    3    3    0  502 -0.12086436280E+02  0.34472740117E+02  0.33557682601E+02  0.49779937873E+02  0.41800000000E+01 0. -1.
        -11    1    4    4    0    0 -0.35160351561E+02 -0.75244003546E+02  0.18259787980E+03  0.20059884371E+03  0.00000000000E+00 0. -1.
         11    1    4    4    0    0 -0.10404929825E+03 -0.42990052092E+02  0.41869045588E+03  0.43356210500E+03  0.00000000000E+00 0.  1.
</event>
<event>
 8    1  0.8619230E-006  0.7883725E+02  0.7561462E-02  0.1332384E+00
          1   -1    0    0  501    0  0.00000000000E+00  0.00000000000E+00  0.51133343392E+03  0.51133343392E+03  0.00000000000E+00 0. -1.
         -1   -1    0    0    0  501 -0.00000000000E+00 -0.00000000000E+00 -0.27132295150E+02  0.27132295150E+02  0.00000000000E+00 0.  1.
         23    2    1    2    0    0 -0.21928355933E+02 -0.38747847096E+02  0.24679679790E+03  0.28024730949E+03  0.12509055350E+03 0.  0.
         23    2    1    2    0    0  0.21928355933E+02  0.38747847096E+02  0.23740434087E+03  0.25821841958E+03  0.91289006449E+02 0.  0.
          5    1    3    3  502    0 -0.13082567998E+02 -0.43671039136E+02  0.14974750447E+02  0.48166677232E+02  0.41800000000E+01 0.  1.
         -5    1    3    3    0  502 -0.88457879351E+01  0.49231920396E+01  0.23182204745E+03  0.23208063225E+03  0.41800000000E+01 0.  1.
        -11    1    4    4    0    0  0.34434774444E+02  0.64048999120E+02  0.15752672422E+03  0.17350128767E+03  0.00000000000E+00 0. -1.
         11    1    4    4    0    0 -0.12506418511E+02 -0.25301152024E+02  0.79877616654E+02  0.84717131915E+02  0.00000000000E+00 0.  1.
</event>
<event>
 8    1  0.8619230E-006  0.9913251E+02  0.7561462E-02  0.1282131E+00
         -1   -1    0    0    0  501 -0.00000000000E+00  0.00000000000E+00  0.20641691583E+02  0.20641691583E+02  0.00000000000E+00 0.  1.
          1   -1    0    0  501    0  0.00000000000E+00 -0.00000000000E+00 -0.74830539599E+03  0.74830539599E+03  0.00000000000E+00 0. -1.
         23    2    1    2    0    0  0.35494524156E+00 -0.51684142876E+02 -0.33342508929E+03  0.36058418327E+03  0.12718996206E+03 0.  0.
         23    2    1    2    0    0 -0.35494524156E+00  0.51684142876E+02 -0.39423861512E+03  0.40836290430E+03  0.93084903972E+02 0.  0.
          5    1    3    3  502    0 -0.21386305078E+02  0.12014255771E+02 -0.25883799144E+03  0.26003133388E+03  0.41800000000E+01 0. -1.
         -5    1    3    3    0  502  0.21741250319E+02 -0.63698398647E+02 -0.74587097851E+02  0.10055284939E+03  0.41800000000E+01 0.  1.
        -11    1    4    4    0    0 -0.42074190756E+02  0.35143360825E+01 -0.13764799947E+03  0.14397763661E+03  0.00000000000E+00 0.  1.
         11    1    4    4    0    0  0.41719245514E+02  0.48169806793E+02 -0.25659061565E+03  0.26438526769E+03  0.00000000000E+00 0. -1.
</event>
<event>
 8    1  0.8619230E-006  0.7417063E+02  0.7561462E-02  0.1346459E+00
          2   -1    0    0  501    0  0.00000000000E+00  0.00000000000E+00  0.59152380887E+03  0.59152380887E+03  0.00000000000E+00 0. -1.
         -2   -1    0    0    0  501 -0.00000000000E+00 -0.00000000000E+00 -0.24770001154E+02  0.24770001154E+02  0.00000000000E+00 0.  1.
         23    2    1    2    0    0  0.53330000843E+02 -0.66159004497E+01  0.33939438447E+03  0.36568301730E+03  0.12509061435E+03 0.  0.
         23    2    1    2    0    0 -0.53330000843E+02  0.66159004497E+01  0.22735942324E+03  0.25061079273E+03  0.90695109927E+02 0.  0.
          5    1    3    3  502    0  0.19334919529E+01  0.21526949379E+02  0.28427849230E+03  0.28512958725E+03  0.41800000000E+01 0. -1.
         -5    1    3    3    0  502  0.51396508891E+02 -0.28142849829E+02  0.55115892177E+02  0.80553430052E+02  0.41800000000E+01 0. -1.
        -11    1    4    4    0    0 -0.19838887253E+02 -0.17384697955E+02  0.82167898883E+01  0.27628333400E+02  0.00000000000E+00 0.  1.
         11    1    4    4    0    0 -0.33491113591E+02  0.24000598405E+02  0.21914263335E+03  0.22298245933E+03  0.00000000000E+00 0. -1.
</event>
<event>
 8    1  0.8619230E-006  0.8382275E+02  0.7561462E-02  0.1318540E+00
          1   -1    0    0  501    0  0.00000000000E+00  0.00000000000E+00  0.54451777728E+03  0.54451777728E+03  0.00000000000E+00 0. -1.
         -1   -1    0    0    0  501 -0.00000000000E+00 -0.00000000000E+00 -0.26525378199E+02  0.26525378199E+02  0.00000000000E+00 0.  1.
         23    2    1    2    0    0  0.19007409668E+02  0.12165472516E+02  0.39925472488E+03  0.41900290076E+03  0.12509922127E+03 0.  0.
         23    2    1    2    0    0 -0.19007409668E+02 -0.12165472516E+02  0.11873767420E+03  0.15204025472E+03  0.92240573697E+02 0.  0.
          5    1    3    3  502    0  0.27471014131E+02 -0.38639274472E+02  0.63825427167E+02  0.79616629557E+02  0.41800000000E+01 0.  1.
         -5    1    3    3    0  502 -0.84636044625E+01  0.50804746988E+02  0.33542929771E+03  0.33938627120E+03  0.41800000000E+01 0.  1.
        -11    1    4    4    0    0 -0.17543704660E+02  0.25352919836E+02  0.10896441971E+03  0.11324220450E+03  0.00000000000E+00 0. -1.
         11    1    4    4    0    0 -0.14637050081E+01 -0.37518392351E+02  0.97732544851E+01  0.38798050212E+02  0.00000000000E+00 0.  1.
</event>
<event>
 8    1  0.8619230E-006  0.1062199E+03  0.7561462E-02  0.1267735E+00
          1   -1    0    0  501    0  0.00000000000E+00  0.00000000000E+00  0.57796025184E+02  0.57796025184E+02  0.00000000000E+00 0. -1.
         -1   -1    0    0    0  501 -0.00000000000E+00 -0.00000000000E+00 -0.34236119074E+03  0.34236119074E+03  0.00000000000E+00 0.  1.
         23    2    1    2    0    0  0.73206922812E+02  0.16492667354E+02 -0.22074947314E+03  0.26459245410E+03  0.12509026841E+03 0.  0.
         23    2    1    2    0    0 -0.73206922812E+02 -0.16492667354E+02 -0.63815692413E+02  0.13556476182E+03  0.93134850758E+02 0.  0.
          5    1    3    3  502    0 -0.10975953727E+02 -0.24543525389E+02 -0.28192596902E+01  0.27354649037E+02  0.41800000000E+01 0.  1.
         -5    1    3    3    0  502  0.84182876538E+02  0.41036192742E+02 -0.21793021345E+03  0.23723780507E+03  0.41800000000E+01 0.  1.
        -11    1    4    4    0    0 -0.45437512275E+02 -0.35646011360E+02  0.59642812435E+01  0.58058404201E+02  0.00000000000E+00 0. -1.
         11    1    4    4    0    0 -0.27769410537E+02  0.19153344006E+02 -0.69779973656E+02  0.77506357621E+02  0.00000000000E+00 0.  1.
</event>
<event>
 8    1  0.8619230E-006  0.9884650E+02  0.7561462E-02  0.1282740E+00
          3   -1    0    0  501    0  0.00000000000E+00  0.00000000000E+00  0.96491732135E+02  0.96491732135E+02  0.00000000000E+00 0. -1.
         -3   -1    0    0    0  501 -0.00000000000E+00 -0.00000000000E+00 -0.30759490224E+03  0.30759490224E+03  0.00000000000E+00 0.  1.
         23    2    1    2    0    0  0.39633060235E+02 -0.65219946047E+02 -0.23957292933E+03  0.28083346602E+03  0.12509127204E+03 0.  0.
         23    2    1    2    0    0 -0.39633060235E+02  0.65219946047E+02  0.28469759232E+02  0.12325316835E+03  0.92500786444E+02 0.  0.
          5    1    3    3  502    0  0.52151331089E+02 -0.46123926724E+02 -0.24684396794E+03  0.25650846937E+03  0.41800000000E+01 0. -1.
         -5    1    3    3    0  502 -0.12518270853E+02 -0.19096019324E+02  0.72710386106E+01  0.24324996642E+02  0.41800000000E+01 0. -1.
        -11    1    4    4    0    0  0.96718929837E+01  0.53082134713E+02  0.44570944197E+02  0.69984481181E+02  0.00000000000E+00 0. -1.
         11    1    4    4    0    0 -0.49304953219E+02  0.12137811334E+02 -0.16101184965E+02  0.53268687173E+02  0.00000000000E+00 0.  1.
</event>
<event>
 8    1  0.8619230E-006  0.1015062E+03  0.7561462E-02  0.1277160E+00
          1   -1    0    0  501    0  0.00000000000E+00  0.00000000000E+00  0.81203350401E+02  0.81203350401E+02  0.00000000000E+00 0. -1.
         -1   -1    0    0    0  501 -0.00000000000E+00 -0.00000000000E+00 -0.19351253460E+03  0.19351253460E+03  0.00000000000E+00 0.  1.
         23    2    1    2    0    0  0.26929548314E+02  0.45049470192E+01 -0.12043200639E+03  0.17577018263E+03  0.12508314763E+03 0.  0.
         23    2    1    2    0    0 -0.26929548314E+02 -0.45049470192E+01  0.81228221848E+01  0.98945702372E+02  0.94756406947E+02 0.  0.
          5    1    3    3  502    0  0.14296671188E+02  0.56806553175E+02 -0.20509739910E+02  0.62205314258E+02  0.41800000000E+01 0. -1.
         -5    1    3    3    0  502  0.12632877126E+02 -0.52301606156E+02 -0.99922266475E+02  0.11356486837E+03  0.41800000000E+01 0. -1.
        -11    1    4    4    0    0 -0.58193967872E+02  0.26150969042E+01 -0.14097349714E+02  0.59934229765E+02  0.00000000000E+00 0.  1.
         11    1    4    4    0    0  0.31264419558E+02 -0.71200439234E+01  0.22220171899E+02  0.39011472607E+02  0.00000000000E+00 0. -1.
</event>
<event>
 8    1  0.8619230E-006  0.1054091E+03  0.7561462E-02  0.1269316E+00
         -3   -1    0    0    0  501 -0.00000000000E+00  0.00000000000E+00  0.26023621038E+03  0.26023621038E+03  0.00000000000E+00 0.  1.
          3   -1    0    0  501    0  0.00000000000E+00 -0.00000000000E+00 -0.62116437419E+02  0.62116437419E+02  0.00000000000E+00 0. -1.
         23    2    1    2    0    0 -0.47984424942E+02  0.40465634908E+02  0.14141090057E+03  0.19896220918E+03  0.12509574428E+03 0.  0.
         23    2    1    2    0    0  0.47984424942E+02 -0.40465634908E+02  0.56708872389E+02  0.12339043862E+03  0.89829457801E+02 0.  0.
          5    1    3    3  502    0 -0.78896158543E+01 -0.36097502477E+02  0.92208208846E+02  0.99423849765E+02  0.41800000000E+01 0. -1.
         -5    1    3    3    0  502 -0.40094809088E+02  0.76563137385E+02  0.49202691723E+02  0.99538359414E+02  0.41800000000E+01 0. -1.
        -11    1    4    4    0    0  0.23323247290E+02  0.14080225935E+02 -0.14093769326E+02  0.30673456935E+02  0.00000000000E+00 0. -1.
         11    1    4    4    0    0  0.24661177652E+02 -0.54545860842E+02  0.70802641715E+02  0.92716981681E+02  0.00000000000E+00 0.  1.
</event>
<event>
 8    1  0.8619230E-006  0.9380064E+02  0.7561462E-02  0.1293900E+00
          1   -1    0    0  501    0  0.00000000000E+00  0.00000000000E+00  0.64745626299E+03  0.64745626299E+03  0.00000000000E+00 0. -1.
         -1   -1    0    0    0  501 -0.00000000000E+00 -0.00000000000E+00 -0.22874392617E+02  0.22874392617E+02  0.00000000000E+00 0.  1.
         23    2    1    2    0    0  0.31279610712E+02  0.43623662714E+02  0.32524581142E+03  0.35257817567E+03  0.12508035064E+03 0.  0.
         23    2    1    2    0    0 -0.31279610712E+02 -0.43623662714E+02  0.29933605895E+03  0.31775247994E+03  0.92103877889E+02 0.  0.
          5    1    3    3  502    0  0.13989574840E+02  0.58475090072E+02  0.32379868814E+03  0.32936014817E+03  0.41800000000E+01 0.  1.
         -5    1    3    3    0  502  0.17290035872E+02 -0.14851427359E+02  0.14471232807E+01  0.23218027497E+02  0.41800000000E+01 0.  1.
        -11    1    4    4    0    0 -0.62611738341E+02 -0.23274277612E+02  0.15752088185E+03  0.17109865574E+03  0.00000000000E+00 0.  1.
         11    1    4    4    0    0  0.31332127629E+02 -0.20349385102E+02  0.14181517711E+03  0.14665382420E+03  0.00000000000E+00 0. -1.
</event>
<event>
 8    1  0.8619230E-006  0.1419647E+03  0.7561462E-02  0.1210710E+00
         -2   -1    0    0    0  501 -0.00000000000E+00  0.00000000000E+00  0.50800390053E+02  0.50800390053E+02  0.00000000000E+00 0.  1.
          2   -1    0    0  501    0  0.00000000000E+00 -0.00000000000E+00 -0.43670576989E+03  0.43670576989E+03  0.00000000000E+00 0. -1.
         23    2    1    2    0    0  0.52431021041E+02  0.85618652191E+02 -0.23879208931E+03  0.28766595182E+03  0.12510184791E+03 0.  0.
         23    2    1    2    0    0 -0.52431021041E+02 -0.85618652191E+02 -0.14711329053E+03  0.19984020813E+03  0.90632350530E+02 0.  0.
          5    1    3    3  502    0 -0.40616691340E+02  0.30269483435E+02 -0.60300578238E+02  0.78864373317E+02  0.41800000000E+01 0.  1.
         -5    1    3    3    0  502  0.93047712382E+02  0.55349168756E+02 -0.17849151107E+03  0.20880157850E+03  0.41800000000E+01 0. -1.
        -11    1    4    4    0    0 -0.16506116758E+02  0.12215304487E+02 -0.12547157799E+01  0.20572794313E+02  0.00000000000E+00 0. -1.
         11    1    4    4    0    0 -0.35924904283E+02 -0.97833956677E+02 -0.14585857475E+03  0.17926741381E+03  0.00000000000E+00 0.  1.
</event>
<event>
 7    1  0.8619230E-006  0.1341880E+03  0.7561462E-02  0.1221371E+00
         -1   -1    0    0    0  501 -0.00000000000E+00  0.00000000000E+00  0.29530892600E+03  0.29530892600E+03  0.00000000000E+00 0.  1.
          1   -1    0    0  501    0  0.00000000000E+00 -0.00000000000E+00 -0.95569354023E+02  0.95569354023E+02  0.00000000000E+00 0. -1.
         23    2    1    2    0    0 -0.10569152471E+02 -0.72368959558E+02 -0.14549712999E+02  0.11802595340E+03  0.91484743191E+02 0.  0.
          5    1    1    2  502    0  0.10410901544E+02  0.11704890669E+03  0.18519544619E+03  0.21937105351E+03  0.41800000000E+01 0. -1.
         -5    1    1    2    0  502  0.15825092761E+00 -0.44679947127E+02  0.29093838790E+02  0.53481273116E+02  0.41800000000E+01 0.  1.
        -11    1    3    3    0    0  0.48892715931E+01  0.15729036296E+02  0.16530519039E+02  0.23335929791E+02  0.00000000000E+00 0. -1.
         11    1    3    3    0    0 -0.15458424064E+02 -0.88097995854E+02 -0.31080232038E+02  0.94690023612E+02  0.00000000000E+00 0.  1.
</event>
<event>
 8    1  0.8619230E-006  0.1197615E+03  0.7561462E-02  0.1243491E+00
         -1   -1    0    0    0  501 -0.00000000000E+00  0.00000000000E+00  0.79585213663E+02  0.79585213663E+02  0.00000000000E+00 0.  1.
          1   -1    0    0  501    0  0.00000000000E+00 -0.00000000000E+00 -0.31591412092E+03  0.31591412092E+03  0.00000000000E+00 0. -1.
         23    2    1    2    0    0  0.13355314692E+02  0.92740220493E+02 -0.41659003293E+02  0.16174796951E+03  0.12509124732E+03 0.  0.
         23    2    1    2    0    0 -0.13355314692E+02 -0.92740220493E+02 -0.19466990397E+03  0.23375136508E+03  0.89242457598E+02 0.  0.
          5    1    3    3  502    0  0.51393802859E+02  0.71327647130E+01 -0.43682977111E+02  0.67954942381E+02  0.41800000000E+01 0.  1.
         -5    1    3    3    0  502 -0.38038488167E+02  0.85607455781E+02  0.20239738173E+01  0.93793027125E+02  0.41800000000E+01 0.  1.
        -11    1    4    4    0    0 -0.90868073481E+01 -0.62320835641E+02 -0.36846744734E+02  0.72966699393E+02  0.00000000000E+00 0.  1.
         11    1    4    4    0    0 -0.42685073441E+01 -0.30419384853E+02 -0.15782315923E+03  0.16078466569E+03  0.00000000000E+00 0. -1.
</event>
<event>
 8    1  0.8619230E-006  0.1158673E+03  0.7561462E-02  0.1250075E+00
         -3   -1    0    0    0  501 -0.00000000000E+00  0.00000000000E+00  0.32296930722E+03  0.32296930722E+03  0.00000000000E+00 0.  1.
          3   -1    0    0  501    0  0.00000000000E+00 -0.00000000000E+00 -0.62354853122E+02  0.62354853122E+02  0.00000000000E+00 0. -1.
         23    2    1    2    0    0 -0.22289946519E+02  0.85134566793E+02  0.17319501762E+03  0.23106302964E+03  0.12509545699E+03 0.  0.
         23    2    1    2    0    0  0.22289946519E+02 -0.85134566793E+02  0.87419436480E+02  0.15426113070E+03  0.91703884285E+02 0.  0.
          5    1    3    3  502    0  0.20624507456E+02  0.74658845361E+02  0.16965938768E+03  0.18655051254E+03  0.41800000000E+01 0. -1.
         -5    1    3    3    0  502 -0.42914453975E+02  0.10475721432E+02  0.35356299326E+01  0.44512517099E+02  0.41800000000E+01 0. -1.
        -11    1    4    4    0    0 -0.23309257964E+02 -0.34706096976E+02 -0.20895244763E+01  0.41859297494E+02  0.00000000000E+00 0. -1.
         11    1    4    4    0    0  0.45599204483E+02 -0.50428469816E+02  0.89508960956E+02  0.11240183321E+03  0.00000000000E+00 0.  1.
</event>
<event>
 8    1  0.8619230E-006  0.1126018E+03  0.7561462E-02  0.1255826E+00
         -1   -1    0    0    0  501 -0.00000000000E+00  0.00000000000E+00  0.12404442960E+03  0.12404442960E+03  0.00000000000E+00 0.  1.
          1   -1    0    0  501    0  0.00000000000E+00 -0.00000000000E+00 -0.16117763473E+03  0.16117763473E+03  0.00000000000E+00 0. -1.
         23    2    1    2    0    0  0.52498434281E+02 -0.48465602140E+02  0.39610169054E+02  0.14940461835E+03  0.12509106402E+03 0.  0.
         23    2    1    2    0    0 -0.52498434281E+02  0.48465602140E+02 -0.76743374182E+02  0.13581744599E+03  0.86323999913E+02 0.  0.
          5    1    3    3  502    0 -0.71132173995E+00  0.29888958574E+02 -0.21095444439E+02  0.36828603005E+02  0.41800000000E+01 0. -1.
         -5    1    3    3    0  502  0.53209756021E+02 -0.78354560713E+02  0.60705613493E+02  0.11257601534E+03  0.41800000000E+01 0. -1.
        -11    1    4    4    0    0 -0.13336864263E+02  0.58321079361E+02 -0.74256170101E+02  0.95358266785E+02  0.00000000000E+00 0.  1.
         11    1    4    4    0    0 -0.39161570019E+02 -0.98554772218E+01 -0.24872040816E+01  0.40459179203E+02  0.00000000000E+00 0. -1.
</event>
<event>
 8    1  0.8619230E-006  0.1347870E+03  0.7561462E-02  0.1220521E+00
          1   -1    0    0  501    0  0.00000000000E+00  0.00000000000E+00  0.21909110563E+03  0.21909110563E+03  0.00000000000E+00 0. -1.
         -1   -1    0    0    0  501 -0.00000000000E+00 -0.00000000000E+00 -0.11017330053E+03  0.11017330053E+03  0.00000000000E+00 0.  1.
         23    2    1    2    0    0 -0.59663224693E+02 -0.94452011753E+02  0.79788903442E+02  0.18572839497E+03  0.12509150522E+03 0.  0.
         23    2    1    2    0    0  0.59663224693E+02  0.94452011753E+02  0.29128901653E+02  0.14353601120E+03  0.85283120804E+02 0.  0.
          5    1    3    3  502    0 -0.55827507384E+02 -0.62788288763E+01 -0.12774305743E+02  0.57764950965E+02  0.41800000000E+01 0. -1.
         -5    1    3    3    0  502 -0.38357173092E+01 -0.88173182877E+02  0.92563209185E+02  0.12796344400E+03  0.41800000000E+01 0. -1.
        -11    1    4    4    0    0  0.37929005863E+02  0.12251902230E+02 -0.20774842475E+02  0.44947888426E+02  0.00000000000E+00 0.  1.
         11    1    4    4    0    0  0.21734218830E+02  0.82200109523E+02  0.49903744128E+02  0.98588122772E+02  0.00000000000E+00 0. -1.
</event>
<event>
 8    1  0.8619230E-006  0.1487447E+03  0.7561462E-02  0.1202024E+00
          1   -1    0    0  501    0  0.00000000000E+00  0.00000000000E+00  0.31460468745E+03  0.31460468745E+03  0.00000000000E+00 0. -1.
         -1   -1    0    0    0  501 -0.00000000000E+00 -0.00000000000E+00 -0.75782307527E+02  0.75782307527E+02  0.00000000000E+00 0.  1.
         23    2    1    2    0    0  0.30292474187E+02 -0.10504214411E+03  0.11549554670E+03  0.20233145460E+03  0.12508920890E+03 0.  0.
         23    2    1    2    0    0 -0.30292474187E+02  0.10504214411E+03  0.12332683322E+03  0.18805554037E+03  0.90575341244E+02 0.  0.
          5    1    3    3  502    0 -0.33633670300E+02  0.38607959158E+01  0.49867888371E+01  0.34474193042E+02  0.41800000000E+01 0. -1.
         -5    1    3    3    0  502  0.63926144487E+02 -0.10890294002E+03  0.11050875786E+03  0.16785726156E+03  0.41800000000E+01 0. -1.
        -11    1    4    4    0    0 -0.35716561747E+02  0.41105893136E+01  0.56209973919E+02  0.66724290146E+02  0.00000000000E+00 0. -1.
         11    1    4    4    0    0  0.54240875601E+01  0.10093155479E+03  0.67116859299E+02  0.12133125022E+03  0.00000000000E+00 0.  1.
</event>
<event>
 8    1  0.8619230E-006  0.1237580E+03  0.7561462E-02  0.1237023E+00
          1   -1    0    0  501    0  0.00000000000E+00  0.00000000000E+00  0.40772437237E+03  0.40772437237E+03  0.00000000000E+00 0. -1.
         -1   -1    0    0    0  501 -0.00000000000E+00 -0.00000000000E+00 -0.45981282051E+02  0.45981282051E+02  0.00000000000E+00 0.  1.
         23    2    1    2    0    0 -0.35921015001E+02  0.57870165794E+02  0.13974690826E+03  0.19953939342E+03  0.12508995064E+03 0.  0.
         23    2    1    2    0    0  0.35921015001E+02 -0.57870165794E+02  0.22199618206E+03  0.25416626100E+03  0.10333880188E+03 0.  0.
          5    1    3    3  502    0 -0.25732189092E+02 -0.37641334355E+02  0.53068449644E+02  0.70091000529E+02  0.41800000000E+01 0. -1.
         -5    1    3    3    0  502 -0.10188825909E+02  0.95511500149E+02  0.86678458614E+02  0.12944839289E+03  0.41800000000E+01 0. -1.
        -11    1    4    4    0    0  0.29638198942E+02  0.14462972090E+02  0.17863840070E+02  0.37506228553E+02  0.00000000000E+00 0.  1.
         11    1    4    4    0    0  0.62828160587E+01 -0.72333137884E+02  0.20413234199E+03  0.21666003245E+03  0.00000000000E+00 0. -1.
</event>
<event>
 8    1  0.8619230E-006  0.7945338E+02  0.7561462E-02  0.1330610E+00
         -1   -1    0    0    0  501 -0.00000000000E+00  0.00000000000E+00  0.76677519791E+02  0.76677519791E+02  0.00000000000E+00 0.  1.
          1   -1    0    0  501    0  0.00000000000E+00 -0.00000000000E+00 -0.26627588834E+03  0.26627588834E+03  0.00000000000E+00 0. -1.
         23    2    1    2    0    0  0.18691472049E+02  0.24405568360E+01  0.58146571308E+01  0.12663745439E+03  0.12509159513E+03 0.  0.
         23    2    1    2    0    0 -0.18691472049E+02 -0.24405568360E+01 -0.19541302568E+03  0.21631595375E+03  0.90835091202E+02 0.  0.
          5    1    3    3  502    0 -0.26481399783E+02  0.23174841269E+02  0.49128966686E+02  0.60576113856E+02  0.41800000000E+01 0.  1.
         -5    1    3    3    0  502  0.45172871832E+02 -0.20734284433E+02 -0.43314309555E+02  0.66061340531E+02  0.41800000000E+01 0.  1.
        -11    1    4    4    0    0  0.27054769550E+02  0.41500568582E+01 -0.14644445544E+03  0.14898040830E+03  0.00000000000E+00 0. -1.
         11    1    4    4    0    0 -0.45746241599E+02 -0.65906136942E+01 -0.48968570242E+02  0.67335545448E+02  0.00000000000E+00 0.  1.
</event>
<event>
 8    1  0.8662020E-006  0.3326564E+03  0.7561462E-02  0.1069968E+00
          2   -1    0    0  501    0  0.00000000000E+00  0.00000000000E+00  0.11520481064E+04  0.11520481064E+04  0.00000000000E+00 0. -1.
         -2   -1    0    0    0  501 -0.00000000000E+00 -0.00000000000E+00 -0.11435269242E+03  0.11435269242E+03  0.00000000000E+00 0.  1.
         23    2    1    2    0    0  0.17553383421E-01 -0.32210092247E+03  0.30505686293E+03  0.46093033592E+03  0.12509228750E+03 0.  0.
         23    2    1    2    0    0 -0.17553383421E-01  0.32210092247E+03  0.73263855106E+03  0.80547046291E+03  0.90963814499E+02 0.  0.
          5    1    3    3  502    0  0.19058981105E+02 -0.39007991019E+01  0.46101516808E+02  0.50212381405E+02  0.41800000000E+01 0.  1.
         -5    1    3    3    0  502 -0.19041427722E+02 -0.31820012337E+03  0.25895534612E+03  0.41071795452E+03  0.41800000000E+01 0.  1.
        -11    1    4    4    0    0 -0.25647256485E+02  0.10876667629E+03  0.17249831230E+03  0.20553257499E+03  0.00000000000E+00 0.  1.
         11    1    4    4    0    0  0.25629703101E+02  0.21333424618E+03  0.56014023877E+03  0.59993788792E+03  0.00000000000E+00 0. -1.
</event>
<event>
 8    1  0.8619230E-006  0.1496404E+03  0.7561462E-02  0.1200916E+00
         -2   -1    0    0    0  501 -0.00000000000E+00  0.00000000000E+00  0.30187269747E+02  0.30187269747E+02  0.00000000000E+00 0.  1.
          2   -1    0    0  501    0  0.00000000000E+00 -0.00000000000E+00 -0.11262064187E+04  0.11262064187E+04  0.00000000000E+00 0. -1.
         23    2    1    2    0    0 -0.13036803652E+03  0.71319559084E+02 -0.56823019790E+03  0.60051309078E+03  0.12509240562E+03 0.  0.
         23    2    1    2    0    0  0.13036803652E+03 -0.71319559084E+02 -0.52778895105E+03  0.55588059766E+03  0.91431709780E+02 0.  0.
          5    1    3    3  502    0 -0.10816514370E+03  0.56425343904E+02 -0.55861197401E+03  0.57179395559E+03  0.41800000000E+01 0.  1.
         -5    1    3    3    0  502 -0.22202892819E+02  0.14894215180E+02 -0.96182238936E+01  0.28719135193E+02  0.41800000000E+01 0.  1.
        -11    1    4    4    0    0  0.11085913069E+03 -0.51152347347E+02 -0.50553125268E+03  0.52006553138E+03  0.00000000000E+00 0. -1.
         11    1    4    4    0    0  0.19508905823E+02 -0.20167211737E+02 -0.22257698365E+02  0.35815066273E+02  0.00000000000E+00 0.  1.
</event>
<event>
 8    1  0.8619230E-006  0.6732420E+02  0.7561462E-02  0.1369436E+00
         -1   -1    0    0    0  501 -0.00000000000E+00  0.00000000000E+00  0.29048606594E+03  0.29048606594E+03  0.00000000000E+00 0.  1.
          1   -1    0    0  501    0  0.00000000000E+00 -0.00000000000E+00 -0.60335367770E+02  0.60335367770E+02  0.00000000000E+00 0. -1.
         23    2    1    2    0    0 -0.21377346318E+02 -0.37608582789E+02  0.21055150893E+03  0.24869885388E+03  0.12509110909E+03 0.  0.
         23    2    1    2    0    0  0.21377346318E+02  0.37608582789E+02  0.19599189246E+02  0.10212257983E+03  0.90407392718E+02 0.  0.
          5    1    3    3  502    0 -0.96369042365E+01  0.73214727956E+01  0.20061784338E+03  0.20102603158E+03  0.41800000000E+01 0. -1.
         -5    1    3    3    0  502 -0.11740442082E+02 -0.44930055585E+02  0.99336655417E+01  0.47672822302E+02  0.41800000000E+01 0. -1.
        -11    1    4    4    0    0  0.39687725230E+02  0.81245034922E+01 -0.23463040207E+02  0.46814926537E+02  0.00000000000E+00 0. -1.
         11    1    4    4    0    0 -0.18310378912E+02  0.29484079297E+02  0.43062229453E+02  0.55307653298E+02  0.00000000000E+00 0.  1.
</event>
<event>
 8    1  0.8619230E-006  0.9737512E+02  0.7561462E-02  0.1285915E+00
          1   -1    0    0  501    0  0.00000000000E+00  0.00000000000E+00  0.42758913808E+03  0.42758913808E+03  0.00000000000E+00 0. -1.
         -1   -1    0    0    0  501 -0.00000000000E+00 -0.00000000000E+00 -0.35950465636E+02  0.35950465636E+02  0.00000000000E+00 0.  1.
         23    2    1    2    0    0  0.49828979501E+02 -0.36349138102E+02  0.21579350491E+03  0.25694101562E+03  0.12509061400E+03 0.  0.
         23    2    1    2    0    0 -0.49828979501E+02  0.36349138102E+02  0.17584516754E+03  0.20659858809E+03  0.89203512351E+02 0.  0.
          5    1    3    3  502    0  0.76085107943E+01 -0.43087122403E+02  0.79022380696E+01  0.44657668098E+02  0.41800000000E+01 0. -1.
         -5    1    3    3    0  502  0.42220468707E+02  0.67379843011E+01  0.20789126684E+03  0.21228334753E+03  0.41800000000E+01 0. -1.
        -11    1    4    4    0    0 -0.57798286824E+02  0.59742430940E+02  0.14424097595E+03  0.16647900516E+03  0.00000000000E+00 0. -1.
         11    1    4    4    0    0  0.79693073229E+01 -0.23393292838E+02  0.31604191586E+02  0.40119582934E+02  0.00000000000E+00 0.  1.
</event>
<event>
 8    1  0.8619230E-006  0.1166363E+03  0.7561462E-02  0.1248752E+00
         -2   -1    0    0    0  501 -0.00000000000E+00  0.00000000000E+00  0.26490119291E+02  0.26490119291E+02  0.00000000000E+00 0.  1.
          2   -1    0    0  501    0  0.00000000000E+00 -0.00000000000E+00 -0.61929840440E+03  0.61929840440E+03  0.00000000000E+00 0. -1.
         23    2    1    2    0    0 -0.41115983970E+02 -0.22205323593E+02 -0.20340983946E+03  0.24332463095E+03  0.12509081783E+03 0.  0.
         23    2    1    2    0    0  0.41115983970E+02  0.22205323593E+02 -0.38939844566E+03  0.40246389275E+03  0.90346195002E+02 0.  0.
          5    1    3    3  502    0  0.74138345063E+01 -0.65873342459E+02 -0.83136071689E+02  0.10641118834E+03  0.41800000000E+01 0. -1.
         -5    1    3    3    0  502 -0.48529818477E+02  0.43668018866E+02 -0.12027376777E+03  0.13691344260E+03  0.41800000000E+01 0. -1.
        -11    1    4    4    0    0  0.65689233458E+02  0.34233795075E+02 -0.27057657777E+03  0.28053290815E+03  0.00000000000E+00 0. -1.
         11    1    4    4    0    0 -0.24573249488E+02 -0.12028471482E+02 -0.11882186788E+03  0.12193098459E+03  0.00000000000E+00 0.  1.
</event>
<event>
 8    1  0.8619230E-006  0.1100713E+03  0.7561462E-02  0.1260438E+00
          1   -1    0    0  501    0  0.00000000000E+00  0.00000000000E+00  0.73597653589E+03  0.73597653589E+03  0.00000000000E+00 0. -1.
         -1   -1    0    0    0  501 -0.00000000000E+00 -0.00000000000E+00 -0.19855030051E+02  0.19855030051E+02  0.00000000000E+00 0.  1.
         23    2    1    2    0    0 -0.48470931784E+02 -0.11380695271E+02  0.32709550827E+03  0.35360728158E+03  0.12477053582E+03 0.  0.
         23    2    1    2    0    0  0.48470931784E+02  0.11380695271E+02  0.38902599757E+03  0.40222428436E+03  0.89242348059E+02 0.  0.
          5    1    3    3  502    0 -0.35707276245E+02 -0.63311049897E+02  0.24460949429E+03  0.25521476390E+03  0.41800000000E+01 0. -1.
         -5    1    3    3    0  502 -0.12763655539E+02  0.51930354626E+02  0.82486013979E+02  0.98392517685E+02  0.41800000000E+01 0. -1.
        -11    1    4    4    0    0  0.55179471674E+02 -0.22181668563E+02  0.31635976472E+03  0.32190107370E+03  0.00000000000E+00 0. -1.
         11    1    4    4    0    0 -0.67085398900E+01  0.33562363834E+02  0.72666232846E+02  0.80323210653E+02  0.00000000000E+00 0.  1.
</event>
<event>
 7    1  0.8619230E-006  0.1132483E+03  0.7561462E-02  0.1254670E+00
          1   -1    0    0  501    0  0.00000000000E+00  0.00000000000E+00  0.17049617833E+02  0.17049617833E+02  0.00000000000E+00 0. -1.
         -1   -1    0    0    0  501 -0.00000000000E+00 -0.00000000000E+00 -0.85381305728E+03  0.85381305728E+03  0.00000000000E+00 0.  1.
         23    2    1    2    0    0 -0.44295630258E+02  0.24978009624E+02 -0.35684859951E+03  0.37084326462E+03  0.87165360792E+02 0.  0.
          5    1    1    2  502    0 -0.33698082797E+02 -0.32807477537E+02 -0.83659995868E+02  0.96064346535E+02  0.41800000000E+01 0. -1.
         -5    1    1    2    0  502  0.77993713055E+02  0.78294679132E+01 -0.39625484407E+03  0.40395506396E+03  0.41800000000E+01 0.  1.
        -11    1    3    3    0    0  0.25497626761E+02 -0.28301326534E+01 -0.82816988027E+02  0.86699435564E+02  0.00000000000E+00 0.  1.
         11    1    3    3    0    0 -0.69793257019E+02  0.27808142277E+02 -0.27403161148E+03  0.28414382906E+03  0.00000000000E+00 0. -1.
</event>
<event>
 8    1  0.8619230E-006  0.1396038E+03  0.7561462E-02  0.1213863E+00
         -1   -1    0    0    0  501 -0.00000000000E+00  0.00000000000E+00  0.20775325789E+03  0.20775325789E+03  0.00000000000E+00 0.  1.
          1   -1    0    0  501    0  0.00000000000E+00 -0.00000000000E+00 -0.13869194695E+03  0.13869194695E+03  0.00000000000E+00 0. -1.
         23    2    1    2    0    0 -0.10366086344E+03 -0.22957648093E+02  0.11289153909E+03  0.19916638151E+03  0.12510043850E+03 0.  0.
         23    2    1    2    0    0  0.10366086344E+03  0.22957648093E+02 -0.43830228151E+02  0.14727882333E+03  0.92180988754E+02 0.  0.
          5    1    3    3  502    0 -0.11997034656E+03 -0.41368336364E+02  0.59474125436E+02  0.14021008275E+03  0.41800000000E+01 0.  1.
         -5    1    3    3    0  502  0.16309483129E+02  0.18410688271E+02  0.53417413652E+02  0.58956298762E+02  0.41800000000E+01 0.  1.
        -11    1    4    4    0    0 -0.10735931452E+02  0.80551842890E+00  0.13622196099E+02  0.17362986801E+02  0.00000000000E+00 0.  1.
         11    1    4    4    0    0  0.11439679489E+03  0.22152129664E+02 -0.57452424250E+02  0.12991583653E+03  0.00000000000E+00 0. -1.
</event>
<event>
 8    1  0.8619230E-006  0.1069644E+03  0.7561462E-02  0.1266297E+00
          1   -1    0    0  501    0  0.00000000000E+00  0.00000000000E+00  0.23663768126E+02  0.23663768126E+02  0.00000000000E+00 0. -1.
         -1   -1    0    0    0  501 -0.00000000000E+00 -0.00000000000E+00 -0.67983651741E+03  0.67983651741E+03  0.00000000000E+00 0.  1.
         23    2    1    2    0    0  0.46358517086E+02  0.20996325707E+02 -0.48109159538E+03  0.49968683092E+03  0.12509135878E+03 0.  0.
         23    2    1    2    0    0 -0.46358517086E+02 -0.20996325707E+02 -0.17508115390E+03  0.20381345462E+03  0.91085432610E+02 0.  0.
          5    1    3    3  502    0  0.68497805754E+02  0.57700737886E+02 -0.36539177970E+03  0.37623124487E+03  0.41800000000E+01 0.  1.
         -5    1    3    3    0  502 -0.22139288668E+02 -0.36704412179E+02 -0.11569981569E+03  0.12345558605E+03  0.41800000000E+01 0.  1.
        -11    1    4    4    0    0 -0.45391531687E+02 -0.41004575619E+02 -0.17321081207E+03  0.18369472444E+03  0.00000000000E+00 0.  1.
         11    1    4    4    0    0 -0.96698539890E+00  0.20008249912E+02 -0.18703418282E+01  0.20118730175E+02  0.00000000000E+00 0. -1.
</event>
<event>
 8    1  0.8619230E-006  0.1317592E+03  0.7561462E-02  0.1224868E+00
         -2   -1    0    0    0  501 -0.00000000000E+00  0.00000000000E+00  0.22503102998E+02  0.22503102998E+02  0.00000000000E+00 0.  1.
          2   -1    0    0  501    0  0.00000000000E+00 -0.00000000000E+00 -0.87323174766E+03  0.87323174766E+03  0.00000000000E+00 0. -1.
         23    2    1    2    0    0 -0.12155218157E+02  0.87167718570E+02 -0.43367235131E+03  0.45985364662E+03  0.12509079713E+03 0.  0.
         23    2    1    2    0    0  0.12155218157E+02 -0.87167718570E+02 -0.41705629335E+03  0.43588120404E+03  0.91162008112E+02 0.  0.
          5    1    3    3  502    0 -0.56642744398E+02  0.35331966541E+01 -0.13542627019E+03  0.14689666786E+03  0.41800000000E+01 0. -1.
         -5    1    3    3    0  502  0.44487526240E+02  0.83634521916E+02 -0.29824608112E+03  0.31295697876E+03  0.41800000000E+01 0. -1.
        -11    1    4    4    0    0 -0.25313297820E+01 -0.95075371526E+02 -0.40299184638E+03  0.41406299297E+03  0.00000000000E+00 0. -1.
         11    1    4    4    0    0  0.14686547939E+02  0.79076529556E+01 -0.14064446976E+02  0.21818211072E+02  0.00000000000E+00 0.  1.
</event>
<event>
 7    1  0.8619230E-006  0.2187853E+03  0.7561462E-02  0.1134792E+00
         -1   -1    0    0    0  501 -0.00000000000E+00  0.00000000000E+00  0.14739108441E+03  0.14739108441E+03  0.00000000000E+00 0.  1.
          1   -1    0    0  501    0  0.00000000000E+00 -0.00000000000E+00 -0.45721823171E+03  0.45721823171E+03  0.00000000000E+00 0. -1.
         23    2    1    2    0    0 -0.10282150441E+03  0.93064580238E+02 -0.26335706675E+02  0.18860504687E+03  0.12508003995E+03 0.  0.
          5    1    3    3  502    0 -0.58721133014E+02 -0.89149821077E+01  0.26896097334E+02  0.65333917839E+02  0.41800000000E+01 0.  1.
         -5    1    3    3    0  502 -0.44100371397E+02  0.10197956235E+03 -0.53231804010E+02  0.12327112903E+03  0.41800000000E+01 0.  1.
        -11    1    1    2    0    0 -0.62624199976E+02  0.20816460586E+02  0.30685019627E+01  0.66064598373E+02  0.00000000000E+00 0.  1.
         11    1    1    2    0    0  0.16544570439E+03 -0.11388104082E+03 -0.28655994259E+03  0.34993967088E+03  0.00000000000E+00 0. -1.
</event>
<event>
 7    1  0.8619230E-006  0.9828182E+02  0.7561462E-02  0.1283951E+00
          2   -1    0    0  501    0  0.00000000000E+00  0.00000000000E+00  0.38284064803E+03  0.38284064803E+03  0.00000000000E+00 0. -1.
         -2   -1    0    0    0  501 -0.00000000000E+00 -0.00000000000E+00 -0.30365332638E+02  0.30365332638E+02  0.00000000000E+00 0.  1.
         23    2    1    2    0    0 -0.44171812507E+02  0.34356873140E+02  0.16526835228E+03  0.21469220236E+03  0.12509024636E+03 0.  0.
          5    1    3    3  502    0 -0.14818078868E+02  0.78400361649E+02  0.72930224206E+02  0.10817801149E+03  0.41800000000E+01 0. -1.
         -5    1    3    3    0  502 -0.29353733639E+02 -0.44043488509E+02  0.92338128077E+02  0.10651419086E+03  0.41800000000E+01 0. -1.
        -11    1    1    2    0    0  0.10681108482E+02 -0.27342509661E+02  0.11377629114E+03  0.11750209930E+03  0.00000000000E+00 0.  1.
         11    1    1    2    0    0  0.33490704025E+02 -0.70143634787E+01  0.73430671965E+02  0.81011679012E+02  0.00000000000E+00 0. -1.
</event>
<event>
 8    1  0.8619230E-006  0.7507359E+02  0.7561462E-02  0.1343643E+00
         -1   -1    0    0    0  501 -0.00000000000E+00  0.00000000000E+00  0.88463199426E+02  0.88463199426E+02  0.00000000000E+00 0.  1.
          1   -1    0    0  501    0  0.00000000000E+00 -0.00000000000E+00 -0.15932304118E+03  0.15932304118E+03  0.00000000000E+00 0. -1.
         23    2    1    2    0    0  0.16261791877E+01  0.48288093136E+02 -0.41590714728E+02  0.14041785379E+03  0.12511195672E+03 0.  0.
         23    2    1    2    0    0 -0.16261791877E+01 -0.48288093136E+02 -0.29269127030E+02  0.10736838681E+03  0.91306649773E+02 0.  0.
          5    1    3    3  502    0  0.38078540972E+01  0.29150611351E+02 -0.86456485201E+02  0.91413643010E+02  0.41800000000E+01 0. -1.
         -5    1    3    3    0  502 -0.21816749095E+01  0.19137481784E+02  0.44865770474E+02  0.49004210785E+02  0.41800000000E+01 0. -1.
        -11    1    4    4    0    0  0.10584453073E+02 -0.72690209631E+02 -0.31635304914E+02  0.79979308199E+02  0.00000000000E+00 0.  1.
         11    1    4    4    0    0 -0.12210632261E+02  0.24402116495E+02  0.23661778838E+01  0.27389078616E+02  0.00000000000E+00 0. -1.
</event>
<event>
 8    1  0.8619230E-006  0.9694766E+02  0.7561462E-02  0.1286849E+00
         -2   -1    0    0    0  501 -0.00000000000E+00  0.00000000000E+00  0.11282336416E+03  0.11282336416E+03  0.00000000000E+00 0.  1.
          2   -1    0    0  501    0  0.00000000000E+00 -0.00000000000E+00 -0.17099614702E+03  0.17099614702E+03  0.00000000000E+00 0. -1.
         23    2    1    2    0    0 -0.84870412032E+02  0.79988385215E+01 -0.61336920898E+01  0.15149944293E+03  0.12508993074E+03 0.  0.
         23    2    1    2    0    0  0.84870412032E+02 -0.79988385215E+01 -0.52039090771E+02  0.13232006825E+03  0.86796113033E+02 0.  0.
          5    1    3    3  502    0 -0.25448996301E+02 -0.21464244569E+02 -0.58130100142E+02  0.67118895627E+02  0.41800000000E+01 0. -1.
         -5    1    3    3    0  502 -0.59421415731E+02  0.29463083090E+02  0.51996408052E+02  0.84380547302E+02  0.41800000000E+01 0. -1.
        -11    1    4    4    0    0  0.52985545179E+02  0.14414271158E+02  0.13062772448E+02  0.56443557958E+02  0.00000000000E+00 0.  1.
         11    1    4    4    0    0  0.31884866853E+02 -0.22413109679E+02 -0.65101863219E+02  0.75876510293E+02  0.00000000000E+00 0. -1.
</event>
<event>
 7    1  0.8619230E-006  0.1149669E+03  0.7561462E-02  0.1251639E+00
          2   -1    0    0  501    0  0.00000000000E+00  0.00000000000E+00  0.39374050056E+02  0.39374050056E+02  0.00000000000E+00 0. -1.
         -2   -1    0    0    0  501 -0.00000000000E+00 -0.00000000000E+00 -0.38828213773E+03  0.38828213773E+03  0.00000000000E+00 0.  1.
         23    2    1    2    0    0  0.32552094916E+02  0.14790566726E+02 -0.10340114845E+03  0.14343568251E+03  0.92755580797E+02 0.  0.
          5    1    1    2  502    0  0.42106106757E+02 -0.38629927624E+02 -0.60858620337E+02  0.83584924501E+02  0.41800000000E+01 0. -1.
         -5    1    1    2    0  502 -0.74658201672E+02  0.23839360899E+02 -0.18464831889E+03  0.20063558078E+03  0.41800000000E+01 0.  1.
        -11    1    3    3    0    0  0.61458631153E+02  0.20308996575E+02 -0.47584313387E+02  0.80336078854E+02  0.00000000000E+00 0. -1.
         11    1    3    3    0    0 -0.28906536237E+02 -0.55184298488E+01 -0.55816835060E+02  0.63099603654E+02  0.00000000000E+00 0.  1.
</event>
<event>
 8    1  0.8619230E-006  0.1398995E+03  0.7561462E-02  0.1213464E+00
          1   -1    0    0  501    0  0.00000000000E+00  0.00000000000E+00  0.41362868146E+02  0.41362868146E+02  0.00000000000E+00 0. -1.
         -1   -1    0    0    0  501 -0.00000000000E+00 -0.00000000000E+00 -0.69374041217E+03  0.69374041217E+03  0.00000000000E+00 0.  1.
         23    2    1    2    0    0  0.10728023064E+03 -0.66771980305E+02 -0.41399284261E+03  0.45056037429E+03  0.12508809658E+03 0.  0.
         23    2    1    2    0    0 -0.10728023064E+03  0.66771980305E+02 -0.23838470141E+03  0.28454290603E+03  0.90387246131E+02 0.  0.
          5    1    3    3  502    0  0.49488335209E+02 -0.23006483170E+01 -0.31533941657E+03  0.31923472297E+03  0.41800000000E+01 0.  1.
         -5    1    3    3    0  502  0.57791895429E+02 -0.64471331988E+02 -0.98653426042E+02  0.13132565132E+03  0.41800000000E+01 0.  1.
        -11    1    4    4    0    0 -0.10134943129E+02  0.41915605147E+02 -0.12963201634E+03  0.13661659740E+03  0.00000000000E+00 0. -1.
         11    1    4    4    0    0 -0.97145287509E+02  0.24856375159E+02 -0.10875268508E+03  0.14792630862E+03  0.00000000000E+00 0.  1.
</event>
<event>
 8    1  0.8619230E-006  0.1915504E+03  0.7561462E-02  0.1157070E+00
          1   -1    0    0  501    0  0.00000000000E+00  0.00000000000E+00  0.35368290054E+03  0.35368290054E+03  0.00000000000E+00 0. -1.
         -1   -1    0    0    0  501 -0.00000000000E+00 -0.00000000000E+00 -0.11558482914E+03  0.11558482914E+03  0.00000000000E+00 0.  1.
         23    2    1    2    0    0 -0.16585465339E+03  0.37987416744E+02  0.12755415588E+03  0.24671311276E+03  0.12508592024E+03 0.  0.
         23    2    1    2    0    0  0.16585465339E+03 -0.37987416744E+02  0.11054391552E+03  0.22255461692E+03  0.91431889261E+02 0.  0.
          5    1    3    3  502    0 -0.12951232639E+03 -0.99408298134E+01  0.13327259192E+03  0.18614864743E+03  0.41800000000E+01 0. -1.
         -5    1    3    3    0  502 -0.36342327000E+02  0.47928246558E+02 -0.57184360362E+01  0.60564465329E+02  0.41800000000E+01 0. -1.
        -11    1    4    4    0    0  0.36629364489E+02 -0.51193190517E+02  0.30203750365E+02  0.69819192449E+02  0.00000000000E+00 0.  1.
         11    1    4    4    0    0  0.12922528890E+03  0.13205773773E+02  0.80340165152E+02  0.15273542447E+03  0.00000000000E+00 0. -1.
</event>
<event>
 8    1  0.8619230E-006  0.7056257E+02  0.7561462E-02  0.1358190E+00
          2   -1    0    0  501    0  0.00000000000E+00  0.00000000000E+00  0.98681643635E+02  0.98681643635E+02  0.00000000000E+00 0. -1.
         -2   -1    0    0    0  501 -0.00000000000E+00 -0.00000000000E+00 -0.13682814965E+03  0.13682814965E+03  0.00000000000E+00 0.  1.
         23    2    1    2    0    0 -0.28912511162E+02  0.25105538138E+02 -0.14671406847E+02  0.13163659101E+03  0.12508685209E+03 0.  0.
         23    2    1    2    0    0  0.28912511162E+02 -0.25105538138E+02 -0.23475099172E+02  0.10387320228E+03  0.93660773670E+02 0.  0.
          5    1    3    3  502    0 -0.38358143815E+01  0.29393285658E+01 -0.68128838383E+02  0.68427802418E+02  0.41800000000E+01 0.  1.
         -5    1    3    3    0  502 -0.25076696781E+02  0.22166209572E+02  0.53457431536E+02  0.63208788588E+02  0.41800000000E+01 0.  1.
        -11    1    4    4    0    0  0.20728429952E+02  0.34821014502E+02 -0.63969957956E+01  0.41025509314E+02  0.00000000000E+00 0. -1.
         11    1    4    4    0    0  0.81840812098E+01 -0.59926552640E+02 -0.17078103376E+02  0.62847692969E+02  0.00000000000E+00 0.  1.
</event>
<event>
 8    1  0.8619230E-006  0.2051886E+03  0.7561462E-02  0.1145434E+00
          1   -1    0    0  501    0  0.00000000000E+00  0.00000000000E+00  0.49948976169E+03  0.49948976169E+03  0.00000000000E+00 0. -1.
         -1   -1    0    0    0  501 -0.00000000000E+00 -0.00000000000E+00 -0.10544777155E+03  0.10544777155E+03  0.00000000000E+00 0.  1.
         23    2    1    2    0    0  0.11205733506E+03 -0.16992971297E+03  0.23579645491E+03  0.33178188622E+03  0.11422039304E+03 0.  0.
         23    2    1    2    0    0 -0.11205733506E+03  0.16992971297E+03  0.15824553523E+03  0.27315564702E+03  0.90218647701E+02 0.  0.
          5    1    3    3  502    0  0.10205496604E+03 -0.16532743122E+03  0.24783455141E+03  0.31494096729E+03  0.41800000000E+01 0. -1.
         -5    1    3    3    0  502  0.10002369012E+02 -0.46022817513E+01 -0.12038096496E+02  0.16840918930E+02  0.41800000000E+01 0.  1.
        -11    1    4    4    0    0 -0.97731947490E+02  0.15718837718E+03  0.16945471844E+03  0.25094744685E+03  0.00000000000E+00 0.  1.
         11    1    4    4    0    0 -0.14325387566E+02  0.12741335788E+02 -0.11209183212E+02  0.22208200172E+02  0.00000000000E+00 0. -1.
</event>
<event>
 8    1  0.8619230E-006  0.2145433E+03  0.7561462E-02  0.1138018E+00
          2   -1    0    0  501    0  0.00000000000E+00  0.00000000000E+00  0.56862823768E+03  0.56862823768E+03  0.00000000000E+00 0. -1.
         -2   -1    0    0    0  501 -0.00000000000E+00 -0.00000000000E+00 -0.84828113822E+02  0.84828113822E+02  0.00000000000E+00 0.  1.
         23    2    1    2    0    0 -0.11089480407E+03 -0.14827578735E+03  0.18257016261E+03  0.28855434725E+03  0.12509348648E+03 0.  0.
         23    2    1    2    0    0  0.11089480407E+03  0.14827578735E+03  0.30122996125E+03  0.36490200425E+03  0.90169931079E+02 0.  0.
          5    1    3    3  502    0 -0.13664542468E+03 -0.14062430637E+03  0.15687129058E+03  0.25114386681E+03  0.41800000000E+01 0.  1.
         -5    1    3    3    0  502  0.25750620613E+02 -0.76514809741E+01  0.25698872027E+02  0.37410480437E+02  0.41800000000E+01 0.  1.
        -11    1    4    4    0    0  0.63692227996E+02  0.16490697604E+02  0.10332765198E+03  0.12249590474E+03  0.00000000000E+00 0. -1.
         11    1    4    4    0    0  0.47202576070E+02  0.13178508974E+03  0.19790230927E+03  0.24240609951E+03  0.00000000000E+00 0.  1.
</event>
<event>
 7    1  0.8619230E-006  0.1044224E+03  0.7561462E-02  0.1271262E+00
         -2   -1    0    0    0  501 -0.00000000000E+00  0.00000000000E+00  0.62521123966E+02  0.62521123966E+02  0.00000000000E+00 0.  1.
          2   -1    0    0  501    0  0.00000000000E+00 -0.00000000000E+00 -0.35648722179E+03  0.35648722179E+03  0.00000000000E+00 0. -1.
         23    2    1    2    0    0  0.75331649285E+02  0.13446838240E+02 -0.15585951322E+03  0.19623152287E+03  0.91427281854E+02 0.  0.
          5    1    1    2  502    0 -0.46746420901E+02  0.17398539033E+02 -0.16517324655E+03  0.17259087694E+03  0.41800000000E+01 0. -1.
         -5    1    1    2    0  502 -0.28585228384E+02 -0.30845377273E+02  0.27066661944E+02  0.50185945938E+02  0.41800000000E+01 0.  1.
        -11    1    3    3    0    0  0.41217691858E+02  0.51145547941E+02 -0.10799815838E+03  0.12640556716E+03  0.00000000000E+00 0.  1.
         11    1    3    3    0    0  0.34113957427E+02 -0.37698709701E+02 -0.47861354839E+02  0.69825955714E+02  0.00000000000E+00 0. -1.
</event>
<event>
 8    1  0.8619230E-006  0.1561166E+03  0.7561462E-02  0.1193152E+00
          2   -1    0    0  501    0  0.00000000000E+00  0.00000000000E+00  0.54710397604E+03  0.54710397604E+03  0.00000000000E+00 0.  1.
         -2   -1    0    0    0  501 -0.00000000000E+00 -0.00000000000E+00 -0.65232087834E+02  0.65232087834E+02  0.00000000000E+00 0. -1.
         23    2    1    2    0    0  0.11161562806E+03 -0.51643849514E+01  0.81571021882E+02  0.18651075122E+03  0.12509080466E+03 0.  0.
         23    2    1    2    0    0 -0.11161562806E+03  0.51643849514E+01  0.40030086632E+03  0.42582531266E+03  0.92745318051E+02 0.  0.
          5    1    3    3  502    0  0.62424340888E+01 -0.51372120118E+02  0.17742621050E+02  0.54866526320E+02  0.41800000000E+01 0. -1.
         -5    1    3    3    0  502  0.10537319397E+03  0.46207735167E+02  0.63828400833E+02  0.13164422490E+03  0.41800000000E+01 0. -1.
        -11    1    4    4    0    0 -0.30358726540E+02 -0.41544066158E+02  0.14619100345E+03  0.15498184151E+03  0.00000000000E+00 0.  1.
         11    1    4    4    0    0 -0.81256901517E+02  0.46708451109E+02  0.25410986288E+03  0.27084347114E+03  0.00000000000E+00 0. -1.
</event>
<event>
 8    1  0.8619230E-006  0.8776496E+02  0.7561462E-02  0.1308356E+00
         -1   -1    0    0    0  501 -0.00000000000E+00  0.00000000000E+00  0.52506294011E+02  0.52506294011E+02  0.00000000000E+00 0.  1.
          1   -1    0    0  501    0  0.00000000000E+00 -0.00000000000E+00 -0.40790299370E+03  0.40790299370E+03  0.00000000000E+00 0. -1.
         23    2    1    2    0    0  0.38273530978E+02 -0.75731872348E+02 -0.11533075971E+03  0.19012853475E+03  0.12508995134E+03 0.  0.
         23    2    1    2    0    0 -0.38273530978E+02  0.75731872348E+02 -0.24006593997E+03  0.27028075296E+03  0.90663389651E+02 0.  0.
          5    1    3    3  502    0 -0.45001021159E+01 -0.10850938408E+02  0.25973110469E+02  0.28810912010E+02  0.41800000000E+01 0. -1.
         -5    1    3    3    0  502  0.42773633094E+02 -0.64880933941E+02 -0.14130387018E+03  0.16131762274E+03  0.41800000000E+01 0. -1.
        -11    1    4    4    0    0 -0.14345407769E+02  0.37318971034E+02 -0.18346336649E+02  0.43989594128E+02  0.00000000000E+00 0.  1.
         11    1    4    4    0    0 -0.23928123208E+02  0.38412901314E+02 -0.22171960332E+03  0.22629115883E+03  0.00000000000E+00 0. -1.
</event>
<event>
 8    1  0.8619230E-006  0.1565680E+03  0.7561462E-02  0.1192627E+00
         -2   -1    0    0    0  501 -0.00000000000E+00  0.00000000000E+00  0.41645482441E+02  0.41645482441E+02  0.00000000000E+00 0.  1.
          2   -1    0    0  501    0  0.00000000000E+00 -0.00000000000E+00 -0.79339043808E+03  0.79339043808E+03  0.00000000000E+00 0. -1.
         23    2    1    2    0    0  0.17612277286E+02 -0.13728341735E+03 -0.29388984299E+03  0.34810041924E+03  0.12508290481E+03 0.  0.
         23    2    1    2    0    0 -0.17612277286E+02  0.13728341735E+03 -0.45785511265E+03  0.48693550128E+03  0.91202791807E+02 0.  0.
          5    1    3    3  502    0  0.33078316255E+02 -0.45468986622E+02 -0.21732414706E+02  0.60426600101E+02  0.41800000000E+01 0.  1.
         -5    1    3    3    0  502 -0.15466038969E+02 -0.91814430726E+02 -0.27215742828E+03  0.28767381914E+03  0.41800000000E+01 0.  1.
        -11    1    4    4    0    0  0.34029923943E+02  0.76920301755E+02 -0.27485376065E+03  0.28743583334E+03  0.00000000000E+00 0. -1.
         11    1    4    4    0    0 -0.51642201229E+02  0.60363115593E+02 -0.18300135200E+03  0.19949966793E+03  0.00000000000E+00 0.  1.
</event>
<event>
 8    1  0.8619230E-006  0.8394630E+02  0.7561462E-02  0.1318211E+00
          1   -1    0    0  501    0  0.00000000000E+00  0.00000000000E+00  0.19362087614E+03  0.19362087614E+03  0.00000000000E+00 0. -1.
         -1   -1    0    0    0  501 -0.00000000000E+00 -0.00000000000E+00 -0.63051139143E+02  0.63051139143E+02  0.00000000000E+00 0.  1.
         23    2    1    2    0    0 -0.12151696615E+02 -0.18544055437E+02  0.69272703010E+02  0.14469885894E+03  0.12508999430E+03 0.  0.
         23    2    1    2    0    0  0.12151696615E+02  0.18544055437E+02  0.61297033988E+02  0.11197315634E+03  0.91044580522E+02 0.  0.
          5    1    3    3  502    0  0.40651692103E+02  0.31869148337E+02  0.41814443607E+02  0.66589209191E+02  0.41800000000E+01 0. -1.
         -5    1    3    3    0  502 -0.52803388718E+02 -0.50413203774E+02  0.27458259403E+02  0.78109649752E+02  0.41800000000E+01 0. -1.
        -11    1    4    4    0    0 -0.53745625689E+01 -0.88911363142E+01 -0.21022669677E+02  0.23449751984E+02  0.00000000000E+00 0.  1.
         11    1    4    4    0    0  0.17526259184E+02  0.27435191751E+02  0.82319703665E+02  0.88523404357E+02  0.00000000000E+00 0. -1.
</event>
<event>
 8    1  0.8619230E-006  0.1212508E+03  0.7561462E-02  0.1241048E+00
          2   -1    0    0  501    0  0.00000000000E+00  0.00000000000E+00  0.26905165702E+03  0.26905165702E+03  0.00000000000E+00 0. -1.
         -2   -1    0    0    0  501 -0.00000000000E+00 -0.00000000000E+00 -0.78445948638E+02  0.78445948638E+02  0.00000000000E+00 0.  1.
         23    2    1    2    0    0 -0.38974944162E+02 -0.81695882052E+02  0.63670646311E+02  0.16701723073E+03  0.12509013047E+03 0.  0.
         23    2    1    2    0    0  0.38974944162E+02  0.81695882052E+02  0.12693506207E+03  0.18048037493E+03  0.90925201873E+02 0.  0.
          5    1    3    3  502    0  0.48406824123E+01  0.19974869449E+02 -0.19379121161E+02  0.28556091341E+02  0.41800000000E+01 0. -1.
         -5    1    3    3    0  502 -0.43815626574E+02 -0.10167075150E+03  0.83049767471E+02  0.13846113939E+03  0.41800000000E+01 0. -1.
        -11    1    4    4    0    0  0.36172479560E+02  0.80728966467E+01  0.41595072469E+01  0.37295059168E+02  0.00000000000E+00 0.  1.
         11    1    4    4    0    0  0.28024646016E+01  0.73622985405E+02  0.12277555483E+03  0.14318531577E+03  0.00000000000E+00 0. -1.
</event>
<event>
 8    1  0.8619230E-006  0.9807717E+02  0.7561462E-02  0.1284392E+00
          2   -1    0    0  501    0  0.00000000000E+00  0.00000000000E+00  0.54954415881E+02  0.54954415881E+02  0.00000000000E+00 0. -1.
         -2   -1    0    0    0  501 -0.00000000000E+00 -0.00000000000E+00 -0.29882562349E+03  0.29882562349E+03  0.00000000000E+00 0.  1.
         23    2    1    2    0    0  0.54748581713E+02 -0.85304654453E+01 -0.19058389194E+03  0.23460444125E+03  0.12508736126E+03 0.  0.
         23    2    1    2    0    0 -0.54748581713E+02  0.85304654453E+01 -0.53287315667E+02  0.11917559812E+03  0.91066509409E+02 0.  0.
          5    1    3    3  502    0  0.36819809395E+02 -0.42865991005E+02 -0.20723601545E+02  0.60333503211E+02  0.41800000000E+01 0.  1.
         -5    1    3    3    0  502  0.17928772318E+02  0.34335525559E+02 -0.16986029039E+03  0.17427093804E+03  0.41800000000E+01 0.  1.
        -11    1    4    4    0    0 -0.48329602399E+02 -0.32991737121E+02 -0.50109715965E+02  0.77040176664E+02  0.00000000000E+00 0.  1.
         11    1    4    4    0    0 -0.64189793139E+01  0.41522202566E+02 -0.31775997023E+01  0.42135421456E+02  0.00000000000E+00 0. -1.
</event>
<event>
 8    1  0.8619230E-006  0.1393654E+03  0.7561462E-02  0.1214185E+00
         -1   -1    0    0    0  501 -0.00000000000E+00  0.00000000000E+00  0.19326319108E+03  0.19326319108E+03  0.00000000000E+00 0.  1.
          1   -1    0    0  501    0  0.00000000000E+00 -0.00000000000E+00 -0.15237932073E+03  0.15237932073E+03  0.00000000000E+00 0. -1.
         23    2    1    2    0    0 -0.71955918564E+02 -0.55001648014E+02  0.11938811127E+03  0.19520488229E+03  0.12509432224E+03 0.  0.
         23    2    1    2    0    0  0.71955918564E+02  0.55001648014E+02 -0.78504240918E+02  0.15043762952E+03  0.90916054868E+02 0.  0.
          5    1    3    3  502    0 -0.99144468959E+02 -0.91898654071E+01  0.89671817525E+02  0.13406187605E+03  0.41800000000E+01 0. -1.
         -5    1    3    3    0  502  0.27188550395E+02 -0.45811782607E+02  0.29716293745E+02  0.61143006241E+02  0.41800000000E+01 0. -1.
        -11    1    4    4    0    0  0.10326620352E+02  0.62686166887E+02 -0.55004513883E+02  0.84033869091E+02  0.00000000000E+00 0.  1.
         11    1    4    4    0    0  0.61629298211E+02 -0.76845188730E+01 -0.23499727034E+02  0.66403760428E+02  0.00000000000E+00 0. -1.
</event>
<event>
 8    1  0.8619230E-006  0.2013791E+03  0.7561462E-02  0.1148581E+00
          1   -1    0    0  501    0  0.00000000000E+00  0.00000000000E+00  0.27848416217E+03  0.27848416217E+03  0.00000000000E+00 0. -1.
         -1   -1    0    0    0  501 -0.00000000000E+00 -0.00000000000E+00 -0.20484953183E+03  0.20484953183E+03  0.00000000000E+00 0.  1.
         23    2    1    2    0    0 -0.10764130960E+03 -0.15069190745E+03 -0.67309905490E+02  0.23339400639E+03  0.12508971315E+03 0.  0.
         23    2    1    2    0    0  0.10764130960E+03  0.15069190745E+03  0.14094453584E+03  0.24993968761E+03  0.91158009840E+02 0.  0.
          5    1    3    3  502    0 -0.65474318514E+02 -0.16070277568E+03 -0.30204087270E+02  0.17618747908E+03  0.41800000000E+01 0.  1.
         -5    1    3    3    0  502 -0.42166991090E+02  0.10010868234E+02 -0.37105818221E+02  0.57206527305E+02  0.41800000000E+01 0.  1.
        -11    1    4    4    0    0  0.28974728625E+02  0.50892131927E+02  0.10097025290E+03  0.11672418756E+03  0.00000000000E+00 0.  1.
         11    1    4    4    0    0  0.78666580979E+02  0.99799775524E+02  0.39974282932E+02  0.13321550005E+03  0.00000000000E+00 0. -1.
</event>
<event>
 8    1  0.8619230E-006  0.2074443E+03  0.7561462E-02  0.1143606E+00
          2   -1    0    0  501    0  0.00000000000E+00  0.00000000000E+00  0.26409790610E+03  0.26409790610E+03  0.00000000000E+00 0. -1.
         -2   -1    0    0    0  501 -0.00000000000E+00 -0.00000000000E+00 -0.18948095008E+03  0.18948095008E+03  0.00000000000E+00 0.  1.
         23    2    1    2    0    0 -0.11812428664E+03 -0.15441771075E+03  0.51396828485E+02  0.23682414392E+03  0.12508343087E+03 0.  0.
         23    2    1    2    0    0  0.11812428664E+03  0.15441771075E+03  0.23220127530E+02  0.21675471226E+03  0.92979860604E+02 0.  0.
          5    1    3    3  502    0 -0.67050384690E+02 -0.12039661858E+03 -0.23549643042E+02  0.13986835932E+03  0.41800000000E+01 0. -1.
         -5    1    3    3    0  502 -0.51073901946E+02 -0.34021092171E+02  0.74946471527E+02  0.96955784597E+02  0.41800000000E+01 0. -1.
        -11    1    4    4    0    0  0.63699495041E+02  0.14432119305E+02  0.69218522652E+01  0.65679705960E+02  0.00000000000E+00 0.  1.
         11    1    4    4    0    0  0.54424791595E+02  0.13998559144E+03  0.16298275265E+02  0.15107500630E+03  0.00000000000E+00 0. -1.
</event>
<event>
 8    1  0.8619230E-006  0.1119903E+03  0.7561462E-02  0.1256928E+00
         -2   -1    0    0    0  501 -0.00000000000E+00  0.00000000000E+00  0.16093979119E+03  0.16093979119E+03  0.00000000000E+00 0.  1.
          2   -1    0    0  501    0  0.00000000000E+00 -0.00000000000E+00 -0.13877445068E+03  0.13877445068E+03  0.00000000000E+00 0. -1.
         23    2    1    2    0    0 -0.85954963855E+02 -0.38519916718E+02 -0.31880293926E+02  0.15980738072E+03  0.12509998400E+03 0.  0.
         23    2    1    2    0    0  0.85954963855E+02  0.38519916718E+02  0.54045634437E+02  0.13990686115E+03  0.88209746624E+02 0.  0.
          5    1    3    3  502    0 -0.48204665685E+02 -0.16351994377E+02  0.47056624906E+02  0.69446928380E+02  0.41800000000E+01 0.  1.
         -5    1    3    3    0  502 -0.37750298170E+02 -0.22167922340E+02 -0.78936918832E+02  0.90360452342E+02  0.41800000000E+01 0.  1.
        -11    1    4    4    0    0  0.30274863781E+02 -0.28650316591E+02  0.14705463601E+02  0.44200211283E+02  0.00000000000E+00 0.  1.
         11    1    4    4    0    0  0.55680100074E+02  0.67170233309E+02  0.39340170836E+02  0.95706649865E+02  0.00000000000E+00 0. -1.
</event>
<event>
 8    1  0.8619230E-006  0.1212526E+03  0.7561462E-02  0.1241045E+00
          1   -1    0    0  501    0  0.00000000000E+00  0.00000000000E+00  0.28962753428E+02  0.28962753428E+02  0.00000000000E+00 0. -1.
         -1   -1    0    0    0  501 -0.00000000000E+00 -0.00000000000E+00 -0.60833665402E+03  0.60833665402E+03  0.00000000000E+00 0.  1.
         23    2    1    2    0    0 -0.21326483267E+01  0.62420255146E+02 -0.42279175548E+03  0.44531015626E+03  0.12508968912E+03 0.  0.
         23    2    1    2    0    0  0.21326483267E+01 -0.62420255146E+02 -0.15658214511E+03  0.19198925119E+03  0.91875284830E+02 0.  0.
          5    1    3    3  502    0 -0.63424892394E+02  0.33804852673E+02 -0.22374384196E+03  0.23504098420E+03  0.41800000000E+01 0. -1.
         -5    1    3    3    0  502  0.61292244067E+02  0.28615402472E+02 -0.19904791353E+03  0.21026917206E+03  0.41800000000E+01 0. -1.
        -11    1    4    4    0    0 -0.38606684830E+02 -0.42414900476E+02 -0.49783134897E+02  0.75946431227E+02  0.00000000000E+00 0. -1.
         11    1    4    4    0    0  0.40739333157E+02 -0.20005354669E+02 -0.10679901022E+03  0.11604281996E+03  0.00000000000E+00 0.  1.
</event>
<event>
 8    1  0.8619230E-006  0.1126372E+03  0.7561462E-02  0.1255763E+00
         -1   -1    0    0    0  501 -0.00000000000E+00  0.00000000000E+00  0.64580302624E+02  0.64580302624E+02  0.00000000000E+00 0.  1.
          1   -1    0    0  501    0  0.00000000000E+00 -0.00000000000E+00 -0.20166020318E+03  0.20166020318E+03  0.00000000000E+00 0. -1.
         23    2    1    2    0    0  0.25922367106E+02  0.23977336611E+02 -0.61338061207E+02  0.14373605536E+03  0.12510321367E+03 0.  0.
         23    2    1    2    0    0 -0.25922367106E+02 -0.23977336611E+02 -0.75741839346E+02  0.12250445044E+03  0.89574730602E+02 0.  0.
          5    1    3    3  502    0  0.10285121513E+02  0.75180125164E+02 -0.31146639378E+02  0.82130508879E+02  0.41800000000E+01 0.  1.
         -5    1    3    3    0  502  0.15637245593E+02 -0.51202788554E+02 -0.30191421829E+02  0.61605546483E+02  0.41800000000E+01 0.  1.
        -11    1    4    4    0    0  0.29878661146E+02 -0.26192353609E+02 -0.24287182271E+02  0.46568669749E+02  0.00000000000E+00 0. -1.
         11    1    4    4    0    0 -0.55801028252E+02  0.22150169989E+01 -0.51454657075E+02  0.75935780690E+02  0.00000000000E+00 0.  1.
</event>
<event>
 8    1  0.8619230E-006  0.1091659E+03  0.7561462E-02  0.1262122E+00
          2   -1    0    0  501    0  0.00000000000E+00  0.00000000000E+00  0.11845040433E+03  0.11845040433E+03  0.00000000000E+00 0. -1.
         -2   -1    0    0    0  501 -0.00000000000E+00 -0.00000000000E+00 -0.17055609751E+03  0.17055609751E+03  0.00000000000E+00 0.  1.
         23    2    1    2    0    0 -0.55346424252E+02  0.11295449323E+00 -0.94146610430E+02  0.16605768050E+03  0.12509328344E+03 0.  0.
         23    2    1    2    0    0  0.55346424252E+02 -0.11295449323E+00  0.42040917250E+02  0.12294882134E+03  0.10141861027E+03 0.  0.
          5    1    3    3  502    0 -0.54554624053E+02 -0.53349511984E+02 -0.29147416500E+02  0.81788885083E+02  0.41800000000E+01 0. -1.
         -5    1    3    3    0  502 -0.79180019968E+00  0.53462466478E+02 -0.64999193930E+02  0.84268795416E+02  0.41800000000E+01 0. -1.
        -11    1    4    4    0    0  0.71428913832E+02  0.44403680720E+01 -0.62576084130E+01  0.71839851495E+02  0.00000000000E+00 0.  1.
         11    1    4    4    0    0 -0.16082489579E+02 -0.45533225653E+01  0.48298525663E+02  0.51108969846E+02  0.00000000000E+00 0. -1.
</event>
<event>
 8    1  0.8619230E-006  0.1308512E+03  0.7561462E-02  0.1226198E+00
          4   -1    0    0  501    0  0.00000000000E+00  0.00000000000E+00  0.52605119013E+03  0.52605119013E+03  0.00000000000E+00 0. -1.
         -4   -1    0    0    0  501 -0.00000000000E+00 -0.00000000000E+00 -0.64705368588E+02  0.64705368588E+02  0.00000000000E+00 0.  1.
         23    2    1    2    0    0 -0.35357365906E+02 -0.92810795154E+02  0.67001836338E+02  0.17320706042E+03  0.12508977850E+03 0.  0.
         23    2    1    2    0    0  0.35357365906E+02  0.92810795154E+02  0.39434398520E+03  0.41754949830E+03  0.94743959392E+02 0.  0.
          5    1    3    3  502    0  0.31279128026E+02 -0.74004907992E+02  0.65633129345E+02  0.10382817693E+03  0.41800000000E+01 0. -1.
         -5    1    3    3    0  502 -0.66636493932E+02 -0.18805887162E+02  0.13687069924E+01  0.69378883490E+02  0.41800000000E+01 0. -1.
        -11    1    4    4    0    0  0.48658625409E+02  0.78409096797E+02  0.38486532461E+03  0.39577388288E+03  0.00000000000E+00 0. -1.
         11    1    4    4    0    0 -0.13301259503E+02  0.14401698357E+02  0.94786605945E+01  0.21775615413E+02  0.00000000000E+00 0.  1.
</event>
<event>
 8    1  0.8619230E-006  0.1218076E+03  0.7561462E-02  0.1240145E+00
          2   -1    0    0  501    0  0.00000000000E+00  0.00000000000E+00  0.48042128910E+03  0.48042128910E+03  0.00000000000E+00 0. -1.
         -2   -1    0    0    0  501 -0.00000000000E+00 -0.00000000000E+00 -0.57282778837E+02  0.57282778837E+02  0.00000000000E+00 0.  1.
         23    2    1    2    0    0  0.11831935318E+03  0.59458727448E+01  0.13602931401E+03  0.21951643470E+03  0.12509463655E+03 0.  0.
         23    2    1    2    0    0 -0.11831935318E+03 -0.59458727448E+01  0.28710919626E+03  0.31818763324E+03  0.69114807604E+02 0.  0.
          5    1    3    3  502    0  0.29131732408E+02  0.27957082807E+01 -0.22766786243E+02  0.37313171585E+02  0.41800000000E+01 0.  1.
         -5    1    3    3    0  502  0.89187620774E+02  0.31501644641E+01  0.15879610025E+03  0.18220326311E+03  0.41800000000E+01 0.  1.
        -11    1    4    4    0    0 -0.64403408741E+02 -0.22645296641E+02  0.22077841083E+03  0.23109243866E+03  0.00000000000E+00 0. -1.
         11    1    4    4    0    0 -0.53915944441E+02  0.16699423896E+02  0.66330785437E+02  0.87095194587E+02  0.00000000000E+00 0.  1.
</event>
<event>
 8    1  0.8619230E-006  0.1255305E+03  0.7561462E-02  0.1234242E+00
         -3   -1    0    0    0  501 -0.00000000000E+00  0.00000000000E+00  0.12241077951E+03  0.12241077951E+03  0.00000000000E+00 0.  1.
          3   -1    0    0  501    0  0.00000000000E+00 -0.00000000000E+00 -0.16176178502E+03  0.16176178502E+03  0.00000000000E+00 0. -1.
         23    2    1    2    0    0  0.68226397729E+02 -0.23404541574E+01  0.34724360780E+02  0.14843920132E+03  0.12715382882E+03 0.  0.
         23    2    1    2    0    0 -0.68226397729E+02  0.23404541574E+01 -0.74075366284E+02  0.13573336321E+03  0.90972891161E+02 0.  0.
          5    1    3    3  502    0  0.10684263080E+01  0.55441235593E+02  0.14555138611E+02  0.57482141565E+02  0.41800000000E+01 0. -1.
         -5    1    3    3    0  502  0.67157971421E+02 -0.57781689751E+02  0.20169222169E+02  0.90957059752E+02  0.41800000000E+01 0.  1.
        -11    1    4    4    0    0 -0.86001269845E+02  0.11494472389E+02 -0.76395783105E+02  0.11560560967E+03  0.00000000000E+00 0. -1.
         11    1    4    4    0    0  0.17774872116E+02 -0.91540182318E+01  0.23204168214E+01  0.20127753544E+02  0.00000000000E+00 0.  1.
</event>
<event>
 7    1  0.8619230E-006  0.1256494E+03  0.7561462E-02  0.1234058E+00
         -2   -1    0    0    0  501 -0.00000000000E+00  0.00000000000E+00  0.31588385853E+02  0.31588385853E+02  0.00000000000E+00 0.  1.
          2   -1    0    0  501    0  0.00000000000E+00 -0.00000000000E+00 -0.62351437861E+03  0.62351437861E+03  0.00000000000E+00 0. -1.
         23    2    1    2    0    0 -0.44579326322E+02 -0.50700536066E+02 -0.29741654847E+03  0.31718642306E+03  0.87136461814E+02 0.  0.
          5    1    1    2  502    0 -0.55311239343E+02  0.21235888255E+02 -0.82328059885E+02  0.10151688526E+03  0.41800000000E+01 0. -1.
         -5    1    1    2    0  502  0.99890565665E+02  0.29464647811E+02 -0.21218138441E+03  0.23639945615E+03  0.41800000000E+01 0.  1.
        -11    1    3    3    0    0  0.12793937322E+02 -0.31964175825E+01 -0.30411400720E+01  0.13533308926E+02  0.00000000000E+00 0.  1.
         11    1    3    3    0    0 -0.57373263644E+02 -0.47504118483E+02 -0.29437540840E+03  0.30365311413E+03  0.00000000000E+00 0. -1.
</event>
<event>
 8    1  0.8619230E-006  0.1448630E+03  0.7561462E-02  0.1206931E+00
          1   -1    0    0  501    0  0.00000000000E+00  0.00000000000E+00  0.55785264020E+03  0.55785264020E+03  0.00000000000E+00 0. -1.
         -1   -1    0    0    0  501 -0.00000000000E+00 -0.00000000000E+00 -0.58221741431E+02  0.58221741431E+02  0.00000000000E+00 0.  1.
         23    2    1    2    0    0 -0.88181234391E+02  0.80904613344E+02  0.12829797248E+03  0.21547448417E+03  0.12508955603E+03 0.  0.
         23    2    1    2    0    0  0.88181234391E+02 -0.80904613344E+02  0.37133292629E+03  0.40059989747E+03  0.90943109356E+02 0.  0.
          5    1    3    3  502    0  0.97740474704E+01  0.24186623995E+02  0.93231495522E+02  0.96902574483E+02  0.41800000000E+01 0. -1.
         -5    1    3    3    0  502 -0.97955281862E+02  0.56717989349E+02  0.35066476956E+02  0.11857190969E+03  0.41800000000E+01 0. -1.
        -11    1    4    4    0    0  0.72860020262E+02 -0.10114371360E+03  0.31705589642E+03  0.34068031174E+03  0.00000000000E+00 0. -1.
         11    1    4    4    0    0  0.15321214129E+02  0.20239100252E+02  0.54277029871E+02  0.59919585722E+02  0.00000000000E+00 0.  1.
</event>
<event>
 8    1  0.8941936E-006  0.1947598E+03  0.7561462E-02  0.1154237E+00
          2   -1    0    0  501    0  0.00000000000E+00  0.00000000000E+00  0.92390804234E+02  0.92390804234E+02  0.00000000000E+00 0. -1.
         -2   -1    0    0    0  501 -0.00000000000E+00 -0.00000000000E+00 -0.45874408543E+03  0.45874408543E+03  0.00000000000E+00 0.  1.
         23    2    1    2    0    0  0.16726286641E+03 -0.13309880361E+02 -0.27261561922E+03  0.34368684895E+03  0.12508938765E+03 0.  0.
         23    2    1    2    0    0 -0.16726286641E+03  0.13309880361E+02 -0.93737661977E+02  0.20744804072E+03  0.78063569792E+02 0.  0.
          5    1    3    3  502    0 -0.13548337846E+02  0.15927979196E+02 -0.56356739351E+02  0.60256223330E+02  0.41800000000E+01 0. -1.
         -5    1    3    3    0  502  0.18081120426E+03 -0.29237859557E+02 -0.21625887987E+03  0.28343062562E+03  0.41800000000E+01 0. -1.
        -11    1    4    4    0    0 -0.34721773911E+02  0.36562328701E+02 -0.28187142108E+02  0.57766083854E+02  0.00000000000E+00 0.  1.
         11    1    4    4    0    0 -0.13254109250E+03 -0.23252448340E+02 -0.65550519869E+02  0.14968195686E+03  0.00000000000E+00 0. -1.
</event>
<event>
 8    1  0.8619230E-006  0.1658604E+03  0.7561462E-02  0.1182235E+00
          2   -1    0    0  501    0  0.00000000000E+00  0.00000000000E+00  0.29932798745E+03  0.29932798745E+03  0.00000000000E+00 0. -1.
         -2   -1    0    0    0  501 -0.00000000000E+00 -0.00000000000E+00 -0.10156548177E+03  0.10156548177E+03  0.00000000000E+00 0.  1.
         23    2    1    2    0    0  0.30581815897E+02  0.13147505730E+03  0.81439494976E+02  0.20124856094E+03  0.12509058231E+03 0.  0.
         23    2    1    2    0    0 -0.30581815897E+02 -0.13147505730E+03  0.11632301070E+03  0.19964490827E+03  0.90033929306E+02 0.  0.
          5    1    3    3  502    0 -0.48385529938E+02  0.39051369954E+02  0.30387597920E+02  0.69332874670E+02  0.41800000000E+01 0. -1.
         -5    1    3    3    0  502  0.78967345835E+02  0.92423687343E+02  0.51051897056E+02  0.13191568627E+03  0.41800000000E+01 0. -1.
        -11    1    4    4    0    0 -0.17159629685E+01 -0.11401876232E+03  0.48542390541E+02  0.12393379833E+03  0.00000000000E+00 0.  1.
         11    1    4    4    0    0 -0.28865852928E+02 -0.17456294982E+02  0.67780620161E+02  0.75711109946E+02  0.00000000000E+00 0. -1.
</event>
<event>
 8    1  0.8619230E-006  0.2182428E+03  0.7561462E-02  0.1135200E+00
          1   -1    0    0  501    0  0.00000000000E+00  0.00000000000E+00  0.10432491377E+04  0.10432491377E+04  0.00000000000E+00 0. -1.
         -1   -1    0    0    0  501 -0.00000000000E+00 -0.00000000000E+00 -0.57683644687E+02  0.57683644687E+02  0.00000000000E+00 0.  1.
         23    2    1    2    0    0  0.94217749741E+02 -0.18213070595E+03  0.33060478913E+03  0.40865140053E+03  0.12509141516E+03 0.  0.
         23    2    1    2    0    0 -0.94217749741E+02  0.18213070595E+03  0.65496070383E+03  0.69228138181E+03  0.90727116183E+02 0.  0.
          5    1    3    3  502    0  0.19449732673E+02 -0.14408532814E+03  0.14726303352E+03  0.20698489637E+03  0.41800000000E+01 0.  1.
         -5    1    3    3    0  502  0.74768017068E+02 -0.38045377811E+02  0.18334175561E+03  0.20166650416E+03  0.41800000000E+01 0.  1.
        -11    1    4    4    0    0 -0.70918751035E+02  0.10692266684E+03  0.26468510586E+03  0.29414304547E+03  0.00000000000E+00 0.  1.
         11    1    4    4    0    0 -0.23298998705E+02  0.75208039106E+02  0.39027559797E+03  0.39813833634E+03  0.00000000000E+00 0. -1.
</event>
<event>
 8    1  0.8619230E-006  0.2592369E+03  0.7561462E-02  0.1107603E+00
          2   -1    0    0  501    0  0.00000000000E+00  0.00000000000E+00  0.63438148656E+03  0.63438148656E+03  0.00000000000E+00 0. -1.
         -2   -1    0    0    0  501 -0.00000000000E+00 -0.00000000000E+00 -0.15290155149E+03  0.15290155149E+03  0.00000000000E+00 0.  1.
         23    2    1    2    0    0 -0.16875974536E+03  0.19345762513E+03  0.71688052495E+02  0.29443645868E+03  0.12509175415E+03 0.  0.
         23    2    1    2    0    0  0.16875974536E+03 -0.19345762513E+03  0.40979188258E+03  0.49284657938E+03  0.95198001034E+02 0.  0.
          5    1    3    3  502    0 -0.68893349973E+02  0.10144309270E+03  0.96791109652E+02  0.15627855270E+03  0.41800000000E+01 0. -1.
         -5    1    3    3    0  502 -0.99866395385E+02  0.92014532433E+02 -0.25103057157E+02  0.13815790598E+03  0.41800000000E+01 0. -1.
        -11    1    4    4    0    0  0.88517667367E+02 -0.70815531794E+02  0.10440601512E+03  0.15411305257E+03  0.00000000000E+00 0.  1.
         11    1    4    4    0    0  0.80242077991E+02 -0.12264209333E+03  0.30538586746E+03  0.33873352681E+03  0.00000000000E+00 0. -1.
</event>
<event>
 8    1  0.8619230E-006  0.1155593E+03  0.7561462E-02  0.1250608E+00
         -4   -1    0    0    0  501 -0.00000000000E+00  0.00000000000E+00  0.53012276557E+03  0.53012276557E+03  0.00000000000E+00 0.  1.
          4   -1    0    0  501    0  0.00000000000E+00 -0.00000000000E+00 -0.40885415239E+02  0.40885415239E+02  0.00000000000E+00 0. -1.
         23    2    1    2    0    0  0.35377635446E+02 -0.78762786524E+02  0.36473618015E+03  0.39514064456E+03  0.12509394165E+03 0.  0.
         23    2    1    2    0    0 -0.35377635446E+02  0.78762786524E+02  0.12450117018E+03  0.17586753626E+03  0.89295550291E+02 0.  0.
          5    1    3    3  502    0  0.45557187673E+02 -0.10323750829E+02  0.35857374459E+02  0.59036098135E+02  0.41800000000E+01 0. -1.
         -5    1    3    3    0  502 -0.10179552227E+02 -0.68439035695E+02  0.32887880569E+03  0.33610454642E+03  0.41800000000E+01 0. -1.
        -11    1    4    4    0    0 -0.59455006814E+02  0.58871163834E+02  0.56279621546E+02  0.10083703470E+03  0.00000000000E+00 0.  1.
         11    1    4    4    0    0  0.24077371368E+02  0.19891622690E+02  0.68221548633E+02  0.75030501552E+02  0.00000000000E+00 0. -1.
</event>
<event>
 8    1  0.8619230E-006  0.7873625E+02  0.7561462E-02  0.1332676E+00
          4   -1    0    0  501    0  0.00000000000E+00  0.00000000000E+00  0.22220590087E+02  0.22220590087E+02  0.00000000000E+00 0. -1.
         -4   -1    0    0    0  501 -0.00000000000E+00 -0.00000000000E+00 -0.14534328222E+04  0.14534328222E+04  0.00000000000E+00 0.  1.
         23    2    1    2    0    0  0.24607077366E+02 -0.30927856792E+02 -0.13251322241E+04  0.13303109207E+04  0.11040694547E+03 0.  0.
         23    2    1    2    0    0 -0.24607077366E+02  0.30927856792E+02 -0.10608000794E+03  0.14534249159E+03  0.91156081499E+02 0.  0.
          5    1    3    3  502    0  0.87683371541E+01 -0.49825394546E+02 -0.26132932714E+03  0.26621409298E+03  0.41800000000E+01 0. -1.
         -5    1    3    3    0  502  0.15838740212E+02  0.18897537754E+02 -0.10638028970E+04  0.10640968277E+04  0.41800000000E+01 0.  1.
        -11    1    4    4    0    0  0.25505143911E+02  0.10741593157E+02 -0.81345598052E+02  0.85924388342E+02  0.00000000000E+00 0.  1.
         11    1    4    4    0    0 -0.50112221277E+02  0.20186263634E+02 -0.24734409886E+02  0.59418103245E+02  0.00000000000E+00 0. -1.
</event>
<event>
 8    1  0.8619230E-006  0.1421860E+03  0.7561462E-02  0.1210417E+00
         -2   -1    0    0    0  501 -0.00000000000E+00  0.00000000000E+00  0.12462808269E+03  0.12462808269E+03  0.00000000000E+00 0.  1.
          2   -1    0    0  501    0  0.00000000000E+00 -0.00000000000E+00 -0.19722430060E+03  0.19722430060E+03  0.00000000000E+00 0. -1.
         23    2    1    2    0    0 -0.85857181212E+02 -0.42241227391E+02  0.24745362702E+02  0.15942608327E+03  0.12509422926E+03 0.  0.
         23    2    1    2    0    0  0.85857181212E+02  0.42241227391E+02 -0.97341580612E+02  0.16242630002E+03  0.88040574531E+02 0.  0.
          5    1    3    3  502    0 -0.11595936168E+03 -0.49392318593E+02  0.22715536107E+02  0.12813915357E+03  0.41800000000E+01 0.  1.
         -5    1    3    3    0  502  0.30102180466E+02  0.71510912024E+01  0.20298265948E+01  0.31286929703E+02  0.41800000000E+01 0.  1.
        -11    1    4    4    0    0  0.32636463842E+02 -0.25126043025E+02 -0.16086262981E+02  0.44217922462E+02  0.00000000000E+00 0.  1.
         11    1    4    4    0    0  0.53220717370E+02  0.67367270415E+02 -0.81255317632E+02  0.11820837755E+03  0.00000000000E+00 0. -1.
</event>
<event>
 8    1  0.8619230E-006  0.1463178E+03  0.7561462E-02  0.1205072E+00
          2   -1    0    0  501    0  0.00000000000E+00  0.00000000000E+00  0.33643989646E+03  0.33643989646E+03  0.00000000000E+00 0. -1.
         -2   -1    0    0    0  501 -0.00000000000E+00 -0.00000000000E+00 -0.10182086423E+03  0.10182086423E+03  0.00000000000E+00 0.  1.
         23    2    1    2    0    0 -0.10847469102E+03 -0.77537768040E+02  0.45409966585E+02  0.18839010147E+03  0.12509956516E+03 0.  0.
         23    2    1    2    0    0  0.10847469102E+03  0.77537768040E+02  0.18920906565E+03  0.24987065922E+03  0.94108510506E+02 0.  0.
          5    1    3    3  502    0 -0.18454532677E+02 -0.39391131763E+02  0.74437624343E+02  0.86317225139E+02  0.41800000000E+01 0.  1.
         -5    1    3    3    0  502 -0.90020158348E+02 -0.38146636277E+02 -0.29027657758E+02  0.10207287633E+03  0.41800000000E+01 0.  1.
        -11    1    4    4    0    0  0.53449330149E+01  0.41483910919E+02  0.10146145288E+03  0.10974474746E+03  0.00000000000E+00 0. -1.
         11    1    4    4    0    0  0.10312975801E+03  0.36053857121E+02  0.87747612770E+02  0.14012591176E+03  0.00000000000E+00 0.  1.
</event>
<event>
 8    1  0.8619230E-006  0.1124055E+03  0.7561462E-02  0.1256179E+00
          1   -1    0    0  501    0  0.00000000000E+00  0.00000000000E+00  0.82995348266E+02  0.82995348266E+02  0.00000000000E+00 0. -1.
         -1   -1    0    0    0  501 -0.00000000000E+00 -0.00000000000E+00 -0.18128368696E+03  0.18128368696E+03  0.00000000000E+00 0.  1.
         23    2    1    2    0    0  0.61632403344E+02  0.65354037101E+01 -0.62959981732E+02  0.15314247051E+03  0.12508953726E+03 0.  0.
         23    2    1    2    0    0 -0.61632403344E+02 -0.65354037101E+01 -0.35328356963E+02  0.11113656471E+03  0.85217243367E+02 0.  0.
          5    1    3    3  502    0  0.22520181177E+00 -0.48802080019E+02  0.27637294578E+00  0.48982063166E+02  0.41800000000E+01 0. -1.
         -5    1    3    3    0  502  0.61407201533E+02  0.55337483729E+02 -0.63236354678E+02  0.10416040735E+03  0.41800000000E+01 0. -1.
        -11    1    4    4    0    0  0.75535116662E+01 -0.21054683200E+02  0.12651981416E+02  0.25698790962E+02  0.00000000000E+00 0. -1.
         11    1    4    4    0    0 -0.69185915011E+02  0.14519279490E+02 -0.47980338379E+02  0.85437773752E+02  0.00000000000E+00 0.  1.
</event>
<event>
 8    1  0.8619230E-006  0.9409980E+02  0.7561462E-02  0.1293217E+00
         -1   -1    0    0    0  501 -0.00000000000E+00  0.00000000000E+00  0.54643480261E+02  0.54643480261E+02  0.00000000000E+00 0.  1.
          1   -1    0    0  501    0  0.00000000000E+00 -0.00000000000E+00 -0.24621541489E+03  0.24621541489E+03  0.00000000000E+00 0. -1.
         23    2    1    2    0    0  0.20023131833E+02  0.31713037432E+01 -0.71299007596E+02  0.14540180157E+03  0.12508857838E+03 0.  0.
         23    2    1    2    0    0 -0.20023131833E+02 -0.31713037432E+01 -0.12027292703E+03  0.15545709358E+03  0.96386451283E+02 0.  0.
          5    1    3    3  502    0  0.53547912068E+02 -0.20082232694E+02 -0.84673063933E+02  0.10226277481E+03  0.41800000000E+01 0.  1.
         -5    1    3    3    0  502 -0.33524780236E+02  0.23253536437E+02  0.13374056337E+02  0.43139026758E+02  0.41800000000E+01 0.  1.
        -11    1    4    4    0    0  0.23014114674E+02  0.28337068703E+02 -0.19374952932E+02  0.41328292223E+02  0.00000000000E+00 0.  1.
         11    1    4    4    0    0 -0.43037246507E+02 -0.31508372446E+02 -0.10089797410E+03  0.11412880136E+03  0.00000000000E+00 0. -1.
</event>
<event>
 8    1  0.8619230E-006  0.9949846E+02  0.7561462E-02  0.1281354E+00
          3   -1    0    0  501    0  0.00000000000E+00  0.00000000000E+00  0.50719668324E+03  0.50719668324E+03  0.00000000000E+00 0. -1.
         -3   -1    0    0    0  501 -0.00000000000E+00 -0.00000000000E+00 -0.26385500067E+02  0.26385500067E+02  0.00000000000E+00 0.  1.
         23    2    1    2    0    0  0.23413038910E+02  0.96231284178E+01  0.19944988716E+03  0.23678806127E+03  0.12509018139E+03 0.  0.
         23    2    1    2    0    0 -0.23413038910E+02 -0.96231284178E+01  0.28136129602E+03  0.29679412204E+03  0.91004378959E+02 0.  0.
          5    1    3    3  502    0 -0.21568531078E+02  0.48312034922E+02  0.15105984897E+03  0.16011185035E+03  0.41800000000E+01 0.  1.
         -5    1    3    3    0  502  0.44981569988E+02 -0.38688906504E+02  0.48390038185E+02  0.76676210917E+02  0.41800000000E+01 0.  1.
        -11    1    4    4    0    0 -0.72876361597E+00 -0.44682212481E+02  0.20446138898E+03  0.20928805697E+03  0.00000000000E+00 0. -1.
         11    1    4    4    0    0 -0.22684275294E+02  0.35059084064E+02  0.76899907042E+02  0.87506065070E+02  0.00000000000E+00 0.  1.
</event>
<event>
 8    1  0.8619230E-006  0.1397037E+03  0.7561462E-02  0.1213728E+00
         -1   -1    0    0    0  501 -0.00000000000E+00  0.00000000000E+00  0.16936894357E+03  0.16936894357E+03  0.00000000000E+00 0.  1.
          1   -1    0    0  501    0  0.00000000000E+00 -0.00000000000E+00 -0.11835727688E+03  0.11835727688E+03  0.00000000000E+00 0. -1.
         23    2    1    2    0    0  0.80973787744E+02 -0.47490942195E+02  0.43228162934E+02  0.15626803062E+03  0.11721296614E+03 0.  0.
         23    2    1    2    0    0 -0.80973787744E+02  0.47490942195E+02  0.77835037568E+01  0.13145818982E+03  0.91698030779E+02 0.  0.
          5    1    3    3  502    0 -0.24388906209E+02  0.12485407709E+02  0.15776046499E+02  0.31891381201E+02  0.41800000000E+01 0. -1.
         -5    1    3    3    0  502  0.10536269395E+03 -0.59976349905E+02  0.27452116434E+02  0.12437664942E+03  0.41800000000E+01 0.  1.
        -11    1    4    4    0    0 -0.78571397468E+02 -0.41542875570E+01 -0.26027510084E+01  0.78724182549E+02  0.00000000000E+00 0. -1.
         11    1    4    4    0    0 -0.24023902759E+01  0.51645229752E+02  0.10386254765E+02  0.52734007275E+02  0.00000000000E+00 0.  1.
</event>
<event>
 8    1  0.8619230E-006  0.1122715E+03  0.7561462E-02  0.1256420E+00
         -2   -1    0    0    0  501 -0.00000000000E+00  0.00000000000E+00  0.10732676812E+03  0.10732676812E+03  0.00000000000E+00 0.  1.
          2   -1    0    0  501    0  0.00000000000E+00 -0.00000000000E+00 -0.15106670311E+03  0.15106670311E+03  0.00000000000E+00 0. -1.
         23    2    1    2    0    0  0.52119894514E+02 -0.26429683679E+02  0.65421578432E+01  0.13822640757E+03  0.12509487734E+03 0.  0.
         23    2    1    2    0    0 -0.52119894514E+02  0.26429683679E+02 -0.50282092829E+02  0.12016706366E+03  0.92178211883E+02 0.  0.
          5    1    3    3  502    0 -0.31654034298E+02 -0.41684023302E+02  0.69959771086E+01  0.52971235418E+02  0.41800000000E+01 0. -1.
         -5    1    3    3    0  502  0.83773928812E+02  0.15254339623E+02 -0.45381926535E+00  0.85255172148E+02  0.41800000000E+01 0. -1.
        -11    1    4    4    0    0 -0.67373489175E+02  0.22483841114E+02 -0.66683616875E+02  0.97423892934E+02  0.00000000000E+00 0. -1.
         11    1    4    4    0    0  0.15253594661E+02  0.39458425657E+01  0.16401524046E+02  0.22743170726E+02  0.00000000000E+00 0.  1.
</event>
<event>
 8    1  0.8619230E-006  0.1191772E+03  0.7561462E-02  0.1244461E+00
         -1   -1    0    0    0  501 -0.00000000000E+00  0.00000000000E+00  0.11557052744E+03  0.11557052744E+03  0.00000000000E+00 0.  1.
          1   -1    0    0  501    0  0.00000000000E+00 -0.00000000000E+00 -0.37315024142E+03  0.37315024142E+03  0.00000000000E+00 0. -1.
         23    2    1    2    0    0  0.67848902430E+02 -0.51027130528E+02  0.48318171108E+02  0.15871232600E+03  0.12509082762E+03 0.  0.
         23    2    1    2    0    0 -0.67848902430E+02  0.51027130528E+02 -0.30589788509E+03  0.33000844287E+03  0.90137753761E+02 0.  0.
          5    1    3    3  502    0 -0.17049261138E+02 -0.14888113544E+02 -0.29861503910E+02  0.37702984577E+02  0.41800000000E+01 0. -1.
         -5    1    3    3    0  502  0.84898163569E+02 -0.36139016984E+02  0.78179675017E+02  0.12100934142E+03  0.41800000000E+01 0. -1.
        -11    1    4    4    0    0 -0.56452081650E+02 -0.13007716273E+02 -0.12495565563E+03  0.13773145639E+03  0.00000000000E+00 0.  1.
         11    1    4    4    0    0 -0.11396820780E+02  0.64034846801E+02 -0.18094222945E+03  0.19227698648E+03  0.00000000000E+00 0. -1.
</event>
<event>
 8    1  0.8619230E-006  0.1339190E+03  0.7561462E-02  0.1221754E+00
         -2   -1    0    0    0  501 -0.00000000000E+00  0.00000000000E+00  0.46965521455E+02  0.46965521455E+02  0.00000000000E+00 0.  1.
          2   -1    0    0  501    0  0.00000000000E+00 -0.00000000000E+00 -0.59894297806E+03  0.59894297806E+03  0.00000000000E+00 0. -1.
         23    2    1    2    0    0 -0.83562371222E+02 -0.14187179404E+02 -0.11104384955E+03  0.18751698304E+03  0.12509171220E+03 0.  0.
         23    2    1    2    0    0  0.83562371222E+02  0.14187179404E+02 -0.44093360706E+03  0.45839151648E+03  0.92284292295E+02 0.  0.
          5    1    3    3  502    0 -0.10475067834E+03 -0.38987329820E+02 -0.60352752204E+02  0.12709305095E+03  0.41800000000E+01 0. -1.
         -5    1    3    3    0  502  0.21188307122E+02  0.24800150416E+02 -0.50691097349E+02  0.60423932095E+02  0.41800000000E+01 0. -1.
        -11    1    4    4    0    0 -0.19057785960E+02  0.67358921105E+01 -0.10966052083E+03  0.11150785298E+03  0.00000000000E+00 0.  1.
         11    1    4    4    0    0  0.10262015718E+03  0.74512872936E+01 -0.33127308623E+03  0.34688366350E+03  0.00000000000E+00 0. -1.
</event>
<event>
 7    1  0.8619230E-006  0.9225919E+02  0.7561462E-02  0.1297471E+00
          3   -1    0    0  501    0  0.00000000000E+00  0.00000000000E+00  0.44221484307E+02  0.44221484307E+02  0.00000000000E+00 0. -1.
         -3   -1    0    0    0  501 -0.00000000000E+00 -0.00000000000E+00 -0.73976046632E+03  0.73976046632E+03  0.00000000000E+00 0.  1.
         23    2    1    2    0    0 -0.21172912679E+02  0.21376866461E+02 -0.24471980808E+02  0.98045236628E+02  0.90048475444E+02 0.  0.
          5    1    1    2  502    0  0.39576546539E+02  0.52412341780E+02 -0.29984252882E+03  0.30697943106E+03  0.41800000000E+01 0. -1.
         -5    1    1    2    0  502 -0.18403633860E+02 -0.73789208241E+02 -0.37122447239E+03  0.37895728294E+03  0.41800000000E+01 0.  1.
        -11    1    3    3    0    0  0.74678127402E+01  0.79689342498E+01 -0.53810815167E+02  0.54907886220E+02  0.00000000000E+00 0.  1.
         11    1    3    3    0    0 -0.28640725419E+02  0.13407932211E+02  0.29338834359E+02  0.43137350409E+02  0.00000000000E+00 0. -1.
</event>
<event>
 8    1  0.8619230E-006  0.1658108E+03  0.7561462E-02  0.1182288E+00
          1   -1    0    0  501    0  0.00000000000E+00  0.00000000000E+00  0.18474384762E+02  0.18474384762E+02  0.00000000000E+00 0. -1.
         -1   -1    0    0    0  501 -0.00000000000E+00 -0.00000000000E+00 -0.20800792000E+04  0.20800792000E+04  0.00000000000E+00 0.  1.
         23    2    1    2    0    0  0.90444563286E+02  0.73079577955E+02 -0.15819204262E+04  0.15911137359E+04  0.12509932862E+03 0.  0.
         23    2    1    2    0    0 -0.90444563286E+02 -0.73079577955E+02 -0.47968438910E+03  0.50743984892E+03  0.11780171213E+03 0.  0.
          5    1    3    3  502    0  0.46904654300E+02 -0.32003174991E+02 -0.51226144449E+03  0.51541586095E+03  0.41800000000E+01 0. -1.
         -5    1    3    3    0  502  0.43539908986E+02  0.10508275295E+03 -0.10696589817E+04  0.10756978749E+04  0.41800000000E+01 0. -1.
        -11    1    4    4    0    0  0.56590969352E+01 -0.64090476388E+02 -0.25316516179E+03  0.26121296615E+03  0.00000000000E+00 0.  1.
         11    1    4    4    0    0 -0.96103660221E+02 -0.89891015665E+01 -0.22651922731E+03  0.24622688276E+03  0.00000000000E+00 0. -1.
</event>
<event>
 8    1  0.8619230E-006  0.1095463E+03  0.7561462E-02  0.1261412E+00
          2   -1    0    0  501    0  0.00000000000E+00  0.00000000000E+00  0.66928611858E+03  0.66928611858E+03  0.00000000000E+00 0. -1.
         -2   -1    0    0    0  501 -0.00000000000E+00 -0.00000000000E+00 -0.23845388262E+02  0.23845388262E+02  0.00000000000E+00 0.  1.
         23    2    1    2    0    0 -0.44668267615E+02 -0.26924376626E+01  0.24365773092E+03  0.27752494659E+03  0.12509397582E+03 0.  0.
         23    2    1    2    0    0  0.44668267615E+02  0.26924376626E+01  0.40178299940E+03  0.41560656026E+03  0.96419557002E+02 0.  0.
          5    1    3    3  502    0 -0.35401664504E+02  0.51310628183E+02  0.63132594691E+02  0.88821480097E+02  0.41800000000E+01 0. -1.
         -5    1    3    3    0  502 -0.92666031108E+01 -0.54003065845E+02  0.18052513623E+03  0.18870346649E+03  0.41800000000E+01 0. -1.
        -11    1    4    4    0    0  0.66746021384E+02  0.24048569956E+02  0.21742670645E+03  0.22870884933E+03  0.00000000000E+00 0.  1.
         11    1    4    4    0    0 -0.22077753769E+02 -0.21356132294E+02  0.18435629295E+03  0.18689771092E+03  0.00000000000E+00 0. -1.
</event>
<event>
 8    1  0.8619230E-006  0.7162441E+02  0.7561462E-02  0.1354655E+00
          2   -1    0    0  501    0  0.00000000000E+00  0.00000000000E+00  0.87489231575E+02  0.87489231575E+02  0.00000000000E+00 0. -1.
         -2   -1    0    0    0  501 -0.00000000000E+00 -0.00000000000E+00 -0.14895462080E+03  0.14895462080E+03  0.00000000000E+00 0.  1.
         23    2    1    2    0    0  0.31949769324E+02  0.11392634475E+02 -0.45884210192E+02  0.13749041248E+03  0.12509065871E+03 0.  0.
         23    2    1    2    0    0 -0.31949769324E+02 -0.11392634475E+02 -0.15581179035E+02  0.98953439901E+02  0.91642949800E+02 0.  0.
          5    1    3    3  502    0  0.27811289984E+02 -0.25617564104E+02 -0.78870661805E+02  0.87565867408E+02  0.41800000000E+01 0.  1.
         -5    1    3    3    0  502  0.41384793403E+01  0.37010198580E+02  0.32986451613E+02  0.49924545068E+02  0.41800000000E+01 0.  1.
        -11    1    4    4    0    0  0.60577858587E+01 -0.26237918842E+02  0.28278231538E+02  0.39048476712E+02  0.00000000000E+00 0. -1.
         11    1    4    4    0    0 -0.38007555183E+02  0.14845284366E+02 -0.43859410572E+02  0.59904963189E+02  0.00000000000E+00 0.  1.
</event>
<event>
 7    1  0.8619230E-006  0.1006526E+03  0.7561462E-02  0.1278930E+00
          1   -1    0    0  501    0  0.00000000000E+00  0.00000000000E+00  0.31073954460E+03  0.31073954460E+03  0.00000000000E+00 0. -1.
         -1   -1    0    0    0  501 -0.00000000000E+00 -0.00000000000E+00 -0.63036360940E+03  0.63036360940E+03  0.00000000000E+00 0.  1.
         23    2    1    2    0    0  0.39018305217E+02  0.83583053662E+02  0.26004020257E+03  0.29082287727E+03  0.91915635175E+02 0.  0.
          5    1    1    2  502    0 -0.41567738421E+02 -0.53026999975E+02  0.22491658899E+01  0.67544583432E+02  0.41800000000E+01 0. -1.
         -5    1    1    2    0  502  0.25494332041E+01 -0.30556053686E+02 -0.58191343326E+03  0.58273569329E+03  0.41800000000E+01 0.  1.
        -11    1    3    3    0    0  0.49318396935E+02  0.64831944250E+02  0.25651783984E+03  0.26914101774E+03  0.00000000000E+00 0. -1.
         11    1    3    3    0    0 -0.10300091718E+02  0.18751109412E+02  0.35223627274E+01  0.21681859532E+02  0.00000000000E+00 0.  1.
</event>
<event>
 8    1  0.8619230E-006  0.1256609E+03  0.7561462E-02  0.1234040E+00
         -2   -1    0    0    0  501 -0.00000000000E+00  0.00000000000E+00  0.92045462011E+02  0.92045462011E+02  0.00000000000E+00 0. -1.
          2   -1    0    0  501    0  0.00000000000E+00 -0.00000000000E+00 -0.33739670253E+03  0.33739670253E+03  0.00000000000E+00 0.  1.
         23    2    1    2    0    0  0.53776645570E+02 -0.39385334635E+02  0.21851656107E+02  0.13827992273E+03  0.11916673177E+03 0.  0.
         23    2    1    2    0    0 -0.53776645570E+02  0.39385334635E+02 -0.26720289663E+03  0.29116224182E+03  0.94524763425E+02 0.  0.
          5    1    3    3  502    0  0.89698613201E+02 -0.43490169598E+02  0.11462067810E+02  0.10042951489E+03  0.41800000000E+01 0. -1.
         -5    1    3    3    0  502 -0.35921967631E+02  0.41048349629E+01  0.10389588297E+02  0.37850407839E+02  0.41800000000E+01 0.  1.
        -11    1    4    4    0    0 -0.28278298592E+02  0.69889845178E+02 -0.16156882013E+03  0.17829396027E+03  0.00000000000E+00 0. -1.
         11    1    4    4    0    0 -0.25498346978E+02 -0.30504510543E+02 -0.10563407649E+03  0.11286828154E+03  0.00000000000E+00 0.  1.
</event>
<event>
 8    1  0.8619230E-006  0.1208425E+03  0.7561462E-02  0.1241714E+00
          1   -1    0    0  501    0  0.00000000000E+00  0.00000000000E+00  0.68307532315E+03  0.68307532315E+03  0.00000000000E+00 0. -1.
         -1   -1    0    0    0  501 -0.00000000000E+00 -0.00000000000E+00 -0.24506484498E+02  0.24506484498E+02  0.00000000000E+00 0.  1.
         23    2    1    2    0    0 -0.63753879087E+02 -0.10902392061E+02  0.29111517209E+03  0.32338843651E+03  0.12509443711E+03 0.  0.
         23    2    1    2    0    0  0.63753879087E+02  0.10902392061E+02  0.36745366656E+03  0.38419337114E+03  0.91645676968E+02 0.  0.
          5    1    3    3  502    0 -0.81358633246E+01  0.47812819374E+02  0.17622537929E+03  0.18282536660E+03  0.41800000000E+01 0. -1.
         -5    1    3    3    0  502 -0.55618015762E+02 -0.58715211435E+02  0.11488979280E+03  0.14056306991E+03  0.41800000000E+01 0. -1.
        -11    1    4    4    0    0  0.23907048591E+02  0.50483026482E+02  0.19313542649E+03  0.20105067993E+03  0.00000000000E+00 0.  1.
         11    1    4    4    0    0  0.39846830495E+02 -0.39580634420E+02  0.17431824007E+03  0.18314269120E+03  0.00000000000E+00 0. -1.
</event>
<event>
 8    1  0.8619230E-006  0.9595966E+02  0.7561462E-02  0.1289029E+00
          1   -1    0    0  501    0  0.00000000000E+00  0.00000000000E+00  0.17159219127E+03  0.17159219127E+03  0.00000000000E+00 0. -1.
         -1   -1    0    0    0  501 -0.00000000000E+00 -0.00000000000E+00 -0.96390827903E+02  0.96390827903E+02  0.00000000000E+00 0.  1.
         23    2    1    2    0    0  0.17642105759E+02 -0.63564975436E+02  0.27604497753E+02  0.14408638417E+03  0.12508847992E+03 0.  0.
         23    2    1    2    0    0 -0.17642105759E+02  0.63564975436E+02  0.47596865614E+02  0.12389663501E+03  0.93451402087E+02 0.  0.
          5    1    3    3  502    0 -0.30287293265E+02 -0.33032950856E+02 -0.36766379674E+02  0.58118284988E+02  0.41800000000E+01 0.  1.
         -5    1    3    3    0  502  0.47929399024E+02 -0.30532024580E+02  0.64370877427E+02  0.85968099179E+02  0.41800000000E+01 0.  1.
        -11    1    4    4    0    0  0.76565235527E+01  0.64165985851E+02  0.66182735062E+02  0.92498921688E+02  0.00000000000E+00 0. -1.
         11    1    4    4    0    0 -0.25298629312E+02 -0.60101041508E+00 -0.18585869448E+02  0.31397713320E+02  0.00000000000E+00 0.  1.
</event>
<event>
 8    1  0.8619230E-006  0.1665494E+03  0.7561462E-02  0.1181495E+00
          1   -1    0    0  501    0  0.00000000000E+00  0.00000000000E+00  0.15650745568E+03  0.15650745568E+03  0.00000000000E+00 0. -1.
         -1   -1    0    0    0  501 -0.00000000000E+00 -0.00000000000E+00 -0.19068835693E+03  0.19068835693E+03  0.00000000000E+00 0.  1.
         23    2    1    2    0    0  0.13190048685E+03  0.54515144013E+01 -0.41253610532E+02  0.18662267940E+03  0.12529447970E+03 0.  0.
         23    2    1    2    0    0 -0.13190048685E+03 -0.54515144013E+01  0.70727092735E+01  0.16057313321E+03  0.91138633154E+02 0.  0.
          5    1    3    3  502    0  0.94947868763E+02  0.56813759074E+02 -0.51962545293E+02  0.12231303903E+03  0.41800000000E+01 0.  1.
         -5    1    3    3    0  502  0.36952618085E+02 -0.51362244672E+02  0.10708934760E+02  0.64309640372E+02  0.41800000000E+01 0.  1.
        -11    1    4    4    0    0 -0.99089888379E+02  0.36591215550E+02 -0.55269220643E+01  0.10577461842E+03  0.00000000000E+00 0.  1.
         11    1    4    4    0    0 -0.32810598469E+02 -0.42042729951E+02  0.12599631338E+02  0.54798514793E+02  0.00000000000E+00 0. -1.
</event>
<event>
 8    1  0.8619230E-006  0.1940709E+03  0.7561462E-02  0.1154840E+00
          1   -1    0    0  501    0  0.00000000000E+00  0.00000000000E+00  0.91027739976E+02  0.91027739976E+02  0.00000000000E+00 0. -1.
         -1   -1    0    0    0  501 -0.00000000000E+00 -0.00000000000E+00 -0.47272831887E+03  0.47272831887E+03  0.00000000000E+00 0.  1.
         23    2    1    2    0    0  0.16212943974E+03  0.60771437776E+02 -0.15112736241E+03  0.26166104613E+03  0.12509156850E+03 0.  0.
         23    2    1    2    0    0 -0.16212943974E+03 -0.60771437776E+02 -0.23057321648E+03  0.30209501272E+03  0.90101418804E+02 0.  0.
          5    1    3    3  502    0  0.10076501177E+03 -0.26123969308E+02 -0.96485888006E+02  0.14199664909E+03  0.41800000000E+01 0. -1.
         -5    1    3    3    0  502  0.61364427973E+02  0.86895407084E+02 -0.54641474408E+02  0.11966439704E+03  0.41800000000E+01 0. -1.
        -11    1    4    4    0    0 -0.22331311170E+02 -0.24343301484E+02 -0.38517845627E+01  0.33258382853E+02  0.00000000000E+00 0. -1.
         11    1    4    4    0    0 -0.13979812857E+03 -0.36428136292E+02 -0.22672143192E+03  0.26883662987E+03  0.00000000000E+00 0.  1.
</event>
<event>
 7    1  0.8619230E-006  0.7337940E+02  0.7561462E-02  0.1348964E+00
         -1   -1    0    0    0  501 -0.00000000000E+00  0.00000000000E+00  0.23072541107E+02  0.23072541107E+02  0.00000000000E+00 0.  1.
          1   -1    0    0  501    0  0.00000000000E+00 -0.00000000000E+00 -0.43970369660E+03  0.43970369660E+03  0.00000000000E+00 0. -1.
         23    2    1    2    0    0  0.29837244315E+02 -0.31258117687E+02 -0.24431110561E+03  0.27785621578E+03  0.12509528070E+03 0.  0.
          5    1    3    3  502    0  0.35181323392E+02 -0.54174693438E+02 -0.24553580856E+03  0.25392504526E+03  0.41800000000E+01 0. -1.
         -5    1    3    3    0  502 -0.53440790770E+01  0.22916575750E+02  0.12247029474E+01  0.23931170523E+02  0.41800000000E+01 0. -1.
        -11    1    1    2    0    0 -0.23458044159E+02 -0.26662699552E+01 -0.28466371345E+02  0.36982740958E+02  0.00000000000E+00 0.  1.
         11    1    1    2    0    0 -0.63792001567E+01  0.33924387642E+02 -0.14385367854E+03  0.14793728097E+03  0.00000000000E+00 0. -1.
</event>
<event>
 8    1  0.8619230E-006  0.9149949E+02  0.7561462E-02  0.1299261E+00
         -1   -1    0    0    0  501 -0.00000000000E+00  0.00000000000E+00  0.19255747430E+03  0.19255747430E+03  0.00000000000E+00 0.  1.
          1   -1    0    0  501    0  0.00000000000E+00 -0.00000000000E+00 -0.68000428815E+02  0.68000428815E+02  0.00000000000E+00 0. -1.
         23    2    1    2    0    0 -0.14714264736E+02 -0.20071521227E+02  0.99247797639E+02  0.16160550999E+03  0.12508732938E+03 0.  0.
         23    2    1    2    0    0  0.14714264736E+02  0.20071521227E+02  0.25309247850E+02  0.98952393126E+02  0.92366890862E+02 0.  0.
          5    1    3    3  502    0  0.51467507533E+02  0.37888739810E+01  0.19873399428E+02  0.55458852337E+02  0.41800000000E+01 0. -1.
         -5    1    3    3    0  502 -0.66181772269E+02 -0.23860395208E+02  0.79374398212E+02  0.10614665766E+03  0.41800000000E+01 0. -1.
        -11    1    4    4    0    0 -0.20898870699E+02  0.25387044545E+01 -0.26398422553E+02  0.33765137792E+02  0.00000000000E+00 0. -1.
         11    1    4    4    0    0  0.35613135435E+02  0.17532816773E+02  0.51707670403E+02  0.65187255334E+02  0.00000000000E+00 0.  1.
</event>
<event>
 8    1  0.8619230E-006  0.1010485E+03  0.7561462E-02  0.1278106E+00
          2   -1    0    0  501    0  0.00000000000E+00  0.00000000000E+00  0.66978569285E+02  0.66978569285E+02  0.00000000000E+00 0. -1.
         -2   -1    0    0    0  501 -0.00000000000E+00 -0.00000000000E+00 -0.21008566358E+03  0.21008566358E+03  0.00000000000E+00 0.  1.
         23    2    1    2    0    0  0.17818781136E+02  0.87308281121E+00 -0.13347560061E+03  0.18379798778E+03  0.12509073953E+03 0.  0.
         23    2    1    2    0    0 -0.17818781136E+02 -0.87308281121E+00 -0.96314936835E+01  0.93266245090E+02  0.91036012477E+02 0.  0.
          5    1    3    3  502    0  0.63638989951E+02  0.36899634819E+01 -0.30117163517E+02  0.70626148208E+02  0.41800000000E+01 0.  1.
         -5    1    3    3    0  502 -0.45820208814E+02 -0.28168806707E+01 -0.10335843710E+03  0.11317183957E+03  0.41800000000E+01 0.  1.
        -11    1    4    4    0    0  0.36593880953E+02  0.66312374071E+01  0.15077698030E+01  0.37220408414E+02  0.00000000000E+00 0. -1.
         11    1    4    4    0    0 -0.54412662089E+02 -0.75043202183E+01 -0.11139263486E+02  0.56045836675E+02  0.00000000000E+00 0.  1.
</event>
<event>
 8    1  0.8619230E-006  0.1210623E+03  0.7561462E-02  0.1241355E+00
         -2   -1    0    0    0  501 -0.00000000000E+00  0.00000000000E+00  0.22977053242E+03  0.22977053242E+03  0.00000000000E+00 0. -1.
          2   -1    0    0  501    0  0.00000000000E+00 -0.00000000000E+00 -0.96238027605E+02  0.96238027605E+02  0.00000000000E+00 0.  1.
         23    2    1    2    0    0 -0.81345534236E+02 -0.52728033003E+02  0.36939261842E+02  0.16207387569E+03  0.12452345446E+03 0.  0.
         23    2    1    2    0    0  0.81345534236E+02  0.52728033003E+02  0.96593242975E+02  0.16393468434E+03  0.90260648881E+02 0.  0.
          5    1    3    3  502    0 -0.38077575855E+02  0.16689956131E+02  0.63461023023E+02  0.75981775853E+02  0.41800000000E+01 0.  1.
         -5    1    3    3    0  502 -0.43267958381E+02 -0.69417989134E+02 -0.26521761180E+02  0.86092099835E+02  0.41800000000E+01 0.  1.
        -11    1    4    4    0    0  0.51693175944E+02 -0.65969179194E+01  0.71737918092E+01  0.52603869194E+02  0.00000000000E+00 0.  1.
         11    1    4    4    0    0  0.29652358292E+02  0.59324950923E+02  0.89419451166E+02  0.11133081515E+03  0.00000000000E+00 0. -1.
</event>
<event>
 7    1  0.8619230E-006  0.1283578E+03  0.7561462E-02  0.1229913E+00
         -2   -1    0    0    0  501 -0.00000000000E+00  0.00000000000E+00  0.45658284749E+03  0.45658284749E+03  0.00000000000E+00 0.  1.
          2   -1    0    0  501    0  0.00000000000E+00 -0.00000000000E+00 -0.41387101688E+02  0.41387101688E+02  0.00000000000E+00 0. -1.
         23    2    1    2    0    0  0.34028828672E+02 -0.10869637227E+02  0.14169583857E+03  0.17218424600E+03  0.91069169918E+02 0.  0.
          5    1    1    2  502    0 -0.41961353151E+02  0.82219151619E+02  0.91261745742E+02  0.12987271725E+03  0.41800000000E+01 0. -1.
         -5    1    1    2    0  502  0.79325244793E+01 -0.71349514392E+02  0.18223816149E+03  0.19591298592E+03  0.41800000000E+01 0.  1.
        -11    1    3    3    0    0 -0.28117065049E+02  0.42688152079E+01  0.20211016340E+02  0.34889501454E+02  0.00000000000E+00 0. -1.
         11    1    3    3    0    0  0.62145893721E+02 -0.15138452435E+02  0.12148482223E+03  0.13729474455E+03  0.00000000000E+00 0.  1.
</event>
<event>
 8    1  0.8619230E-006  0.1424406E+03  0.7561462E-02  0.1210082E+00
          2   -1    0    0  501    0  0.00000000000E+00  0.00000000000E+00  0.48078866316E+02  0.48078866316E+02  0.00000000000E+00 0. -1.
         -2   -1    0    0    0  501 -0.00000000000E+00 -0.00000000000E+00 -0.68318637030E+03  0.68318637030E+03  0.00000000000E+00 0.  1.
         23    2    1    2    0    0  0.84908751951E+02  0.81117471539E+02 -0.51159834564E+03  0.53960170351E+03  0.12509033065E+03 0.  0.
         23    2    1    2    0    0 -0.84908751951E+02 -0.81117471539E+02 -0.12350915834E+03  0.19166353311E+03  0.87697533493E+02 0.  0.
          5    1    3    3  502    0 -0.11164777804E+02  0.36174800601E+02 -0.36374626301E+02  0.52667393143E+02  0.41800000000E+01 0.  1.
         -5    1    3    3    0  502  0.96073529755E+02  0.44942670938E+02 -0.47522371934E+03  0.48693431037E+03  0.41800000000E+01 0.  1.
        -11    1    4    4    0    0  0.84333075744E+01  0.79763418715E+01 -0.30402573039E+02  0.32543189052E+02  0.00000000000E+00 0.  1.
         11    1    4    4    0    0 -0.93342059525E+02 -0.89093813410E+02 -0.93106585306E+02  0.15912034405E+03  0.00000000000E+00 0. -1.
</event>
<event>
 7    1  0.8619230E-006  0.1713099E+03  0.7561462E-02  0.1176489E+00
          4   -1    0    0  501    0  0.00000000000E+00  0.00000000000E+00  0.14564004408E+03  0.14564004408E+03  0.00000000000E+00 0. -1.
         -4   -1    0    0    0  501 -0.00000000000E+00 -0.00000000000E+00 -0.34631851911E+03  0.34631851911E+03  0.00000000000E+00 0.  1.
         23    2    1    2    0    0  0.60308977687E+02  0.67647632395E+02  0.67686156572E+02  0.14741786402E+03  0.94536955117E+02 0.  0.
          5    1    1    2  502    0  0.81960842123E+01 -0.12402860824E+03 -0.18363746949E+03  0.22178923342E+03  0.41800000000E+01 0. -1.
         -5    1    1    2    0  502 -0.68505061899E+02  0.56380975846E+02 -0.84727162111E+02  0.12275146575E+03  0.41800000000E+01 0.  1.
        -11    1    3    3    0    0  0.72281196014E+02  0.12944419244E+02  0.27156948402E+02  0.78291948074E+02  0.00000000000E+00 0. -1.
         11    1    3    3    0    0 -0.11972218326E+02  0.54703213150E+02  0.40529208171E+02  0.69125915947E+02  0.00000000000E+00 0.  1.
</event>
<event>
 8    1  0.8619230E-006  0.1234693E+03  0.7561462E-02  0.1237481E+00
         -1   -1    0    0    0  501 -0.00000000000E+00  0.00000000000E+00  0.80516482083E+02  0.80516482083E+02  0.00000000000E+00 0.  1.
          1   -1    0    0  501    0  0.00000000000E+00 -0.00000000000E+00 -0.20283110225E+03  0.20283110225E+03  0.00000000000E+00 0. -1.
         23    2    1    2    0    0  0.65127761710E+02 -0.91637620866E+01 -0.59400939953E+02  0.15330042893E+03  0.12508776903E+03 0.  0.
         23    2    1    2    0    0 -0.65127761710E+02  0.91637620866E+01 -0.62913680218E+02  0.13004715541E+03  0.92889889599E+02 0.  0.
          5    1    3    3  502    0  0.83929088471E+02 -0.42965528746E+02 -0.17256456985E+02  0.95944704178E+02  0.41800000000E+01 0. -1.
         -5    1    3    3    0  502 -0.18801326761E+02  0.33801766660E+02 -0.42144482969E+02  0.57355724753E+02  0.41800000000E+01 0. -1.
        -11    1    4    4    0    0 -0.85235400286E+02 -0.10071108296E+02 -0.44483701067E+02  0.96671093637E+02  0.00000000000E+00 0.  1.
         11    1    4    4    0    0  0.20107638576E+02  0.19234870383E+02 -0.18429979151E+02  0.33376061770E+02  0.00000000000E+00 0. -1.
</event>
<event>
 8    1  0.8619230E-006  0.1268246E+03  0.7561462E-02  0.1232245E+00
          2   -1    0    0  501    0  0.00000000000E+00  0.00000000000E+00  0.56480093924E+03  0.56480093924E+03  0.00000000000E+00 0. -1.
         -2   -1    0    0    0  501 -0.00000000000E+00 -0.00000000000E+00 -0.32914500178E+02  0.32914500178E+02  0.00000000000E+00 0.  1.
         23    2    1    2    0    0  0.77443878969E+02 -0.26135892598E+02  0.29100694937E+03  0.32712658170E+03  0.12508443790E+03 0.  0.
         23    2    1    2    0    0 -0.77443878969E+02  0.26135892598E+02  0.24087948969E+03  0.27058885771E+03  0.92275468533E+02 0.  0.
          5    1    3    3  502    0  0.22824444871E+01 -0.58464217893E+02  0.69444384399E+02  0.90902526099E+02  0.41800000000E+01 0. -1.
         -5    1    3    3    0  502  0.75161434482E+02  0.32328325296E+02  0.22156256497E+03  0.23622405561E+03  0.41800000000E+01 0. -1.
        -11    1    4    4    0    0  0.15975164875E+02  0.81382005598E+01  0.92318610130E+01  0.20165898415E+02  0.00000000000E+00 0.  1.
         11    1    4    4    0    0 -0.93419043844E+02  0.17997692038E+02  0.23164762868E+03  0.25042295930E+03  0.00000000000E+00 0. -1.
</event>
<event>
 8    1  0.8619230E-006  0.1204060E+03  0.7561462E-02  0.1242429E+00
          2   -1    0    0  501    0  0.00000000000E+00  0.00000000000E+00  0.31135083096E+03  0.31135083096E+03  0.00000000000E+00 0. -1.
         -2   -1    0    0    0  501 -0.00000000000E+00 -0.00000000000E+00 -0.64767209861E+02  0.64767209861E+02  0.00000000000E+00 0.  1.
         23    2    1    2    0    0 -0.64278578611E+02  0.28336031548E+01  0.50804485893E+02  0.14953880084E+03  0.12506395242E+03 0.  0.
         23    2    1    2    0    0  0.64278578611E+02 -0.28336031548E+01  0.19577913521E+03  0.22657923998E+03  0.94174928893E+02 0.  0.
          5    1    3    3  502    0  0.32263443147E+02 -0.21232129346E+02  0.26929397044E+01  0.38941718048E+02  0.41800000000E+01 0.  1.
         -5    1    3    3    0  502 -0.96542021758E+02  0.24065732501E+02  0.48111546188E+02  0.11059708279E+03  0.41800000000E+01 0.  1.
        -11    1    4    4    0    0  0.82563175957E+02 -0.90715410297E+01  0.10558763396E+03  0.13434180037E+03  0.00000000000E+00 0.  1.
         11    1    4    4    0    0 -0.18284597346E+02  0.62379378749E+01  0.90191501245E+02  0.92237439610E+02  0.00000000000E+00 0. -1.
</event>
<event>
 8    1  0.8619230E-006  0.1065109E+03  0.7561462E-02  0.1267171E+00
         -1   -1    0    0    0  501 -0.00000000000E+00  0.00000000000E+00  0.33675546149E+03  0.33675546149E+03  0.00000000000E+00 0.  1.
          1   -1    0    0  501    0  0.00000000000E+00 -0.00000000000E+00 -0.58313544663E+02  0.58313544663E+02  0.00000000000E+00 0. -1.
         23    2    1    2    0    0 -0.30302029199E+02 -0.45322050501E+02  0.25139258407E+03  0.28603845353E+03  0.12508982507E+03 0.  0.
         23    2    1    2    0    0  0.30302029199E+02  0.45322050501E+02  0.27049332757E+02  0.10903055263E+03  0.90463770473E+02 0.  0.
          5    1    3    3  502    0  0.43582598251E+02 -0.41549970084E+02  0.13747152443E+03  0.15013905326E+03  0.41800000000E+01 0.  1.
         -5    1    3    3    0  502 -0.73884627450E+02 -0.37720804173E+01  0.11392105965E+03  0.13589940028E+03  0.41800000000E+01 0.  1.
        -11    1    4    4    0    0  0.25395414633E+02 -0.67366543493E+01  0.46361480803E+02  0.53288802749E+02  0.00000000000E+00 0.  1.
         11    1    4    4    0    0  0.49066145656E+01  0.52058704851E+02 -0.19312148046E+02  0.55741749877E+02  0.00000000000E+00 0. -1.
</event>
<event>
 8    1  0.8619230E-006  0.9763250E+02  0.7561462E-02  0.1285355E+00
         -1   -1    0    0    0  501 -0.00000000000E+00  0.00000000000E+00  0.34368633204E+02  0.34368633204E+02  0.00000000000E+00 0.  1.
          1   -1    0    0  501    0  0.00000000000E+00 -0.00000000000E+00 -0.45984113705E+03  0.45984113705E+03  0.00000000000E+00 0. -1.
         23    2    1    2    0    0  0.39419134195E+02 -0.24717516417E+02 -0.22435036246E+03  0.26104707059E+03  0.12509062383E+03 0.  0.
         23    2    1    2    0    0 -0.39419134195E+02  0.24717516417E+02 -0.20112214139E+03  0.23316269966E+03  0.10839697874E+03 0.  0.
          5    1    3    3  502    0  0.17270403113E+01  0.24764363730E+02  0.29555141261E+01  0.25346870476E+02  0.41800000000E+01 0. -1.
         -5    1    3    3    0  502  0.37692093884E+02 -0.49481880147E+02 -0.22730587658E+03  0.23570020011E+03  0.41800000000E+01 0. -1.
        -11    1    4    4    0    0 -0.68273794374E+00  0.57194535893E+02 -0.15311261373E+03  0.16344770892E+03  0.00000000000E+00 0.  1.
         11    1    4    4    0    0 -0.38736396251E+02 -0.32477019477E+02 -0.48009527655E+02  0.69714990743E+02  0.00000000000E+00 0. -1.
</event>
<event>
 8    1  0.8619230E-006  0.1384245E+03  0.7561462E-02  0.1215465E+00
         -2   -1    0    0    0  501 -0.00000000000E+00  0.00000000000E+00  0.10641372506E+03  0.10641372506E+03  0.00000000000E+00 0.  1.
          2   -1    0    0  501    0  0.00000000000E+00 -0.00000000000E+00 -0.57169191868E+03  0.57169191868E+03  0.00000000000E+00 0. -1.
         23    2    1    2    0    0  0.10201735528E+03  0.77980534565E+02  0.73451598698E+01  0.17941695463E+03  0.12509191694E+03 0.  0.
         23    2    1    2    0    0 -0.10201735528E+03 -0.77980534565E+02 -0.47262335349E+03  0.49868868912E+03  0.93963130252E+02 0.  0.
          5    1    3    3  502    0  0.44523486108E+02  0.52211708763E+01  0.58192107631E+02  0.73575778834E+02  0.41800000000E+01 0.  1.
         -5    1    3    3    0  502  0.57493869168E+02  0.72759363689E+02 -0.50846947761E+02  0.10584117579E+03  0.41800000000E+01 0.  1.
        -11    1    4    4    0    0 -0.27622141920E+02 -0.54305991680E+02 -0.93421157059E+02  0.11153311635E+03  0.00000000000E+00 0.  1.
         11    1    4    4    0    0 -0.74395213357E+02 -0.23674542885E+02 -0.37920219643E+03  0.38715557277E+03  0.00000000000E+00 0. -1.
</event>
<event>
 8    1  0.8619230E-006  0.1032284E+03  0.7561462E-02  0.1273650E+00
         -2   -1    0    0    0  501 -0.00000000000E+00  0.00000000000E+00  0.13435997047E+03  0.13435997047E+03  0.00000000000E+00 0.  1.
          2   -1    0    0  501    0  0.00000000000E+00 -0.00000000000E+00 -0.30946330726E+03  0.30946330726E+03  0.00000000000E+00 0. -1.
         23    2    1    2    0    0  0.64462495600E+02  0.33837411928E+02  0.78718248291E+02  0.16475521301E+03  0.12508930336E+03 0.  0.
         23    2    1    2    0    0 -0.64462495600E+02 -0.33837411928E+02 -0.25382158507E+03  0.27906806472E+03  0.90295093521E+02 0.  0.
          5    1    3    3  502    0  0.46110919688E+02 -0.11097139692E+02 -0.22321386592E+02  0.52584029165E+02  0.41800000000E+01 0.  1.
         -5    1    3    3    0  502  0.18351575912E+02  0.44934551619E+02  0.10103963488E+03  0.11217118384E+03  0.41800000000E+01 0.  1.
        -11    1    4    4    0    0  0.15733527114E+02 -0.24874720772E+02 -0.11294220950E+03  0.11671434486E+03  0.00000000000E+00 0. -1.
         11    1    4    4    0    0 -0.80196022714E+02 -0.89626911558E+01 -0.14087937557E+03  0.16235371986E+03  0.00000000000E+00 0.  1.
</event>
<event>
 8    1  0.8619230E-006  0.1150134E+03  0.7561462E-02  0.1251558E+00
         -2   -1    0    0    0  501 -0.00000000000E+00  0.00000000000E+00  0.70852130568E+02  0.70852130568E+02  0.00000000000E+00 0. -1.
          2   -1    0    0  501    0  0.00000000000E+00 -0.00000000000E+00 -0.24524156426E+03  0.24524156426E+03  0.00000000000E+00 0.  1.
         23    2    1    2    0    0 -0.17789756821E+01  0.71716669587E+02 -0.71417723525E+02  0.16091749006E+03  0.12508997531E+03 0.  0.
         23    2    1    2    0    0  0.17789756821E+01 -0.71716669587E+02 -0.10297171017E+03  0.15517620477E+03  0.91269030778E+02 0.  0.
          5    1    3    3  502    0 -0.11997521558E+02  0.10268389059E+03 -0.29393170051E+02  0.10756092579E+03  0.41800000000E+01 0.  1.
         -5    1    3    3    0  502  0.10218545876E+02 -0.30967221005E+02 -0.42024553474E+02  0.53356564276E+02  0.41800000000E+01 0.  1.
        -11    1    4    4    0    0 -0.28666039013E+02 -0.25656351613E+02 -0.90834233678E+02  0.98645061603E+02  0.00000000000E+00 0.  1.
         11    1    4    4    0    0  0.30445014695E+02 -0.46060317974E+02 -0.12137476491E+02  0.56531143162E+02  0.00000000000E+00 0. -1.
</event>
<event>
 8    1  0.8619230E-006  0.9218793E+02  0.7561462E-02  0.1297638E+00
          2   -1    0    0  501    0  0.00000000000E+00  0.00000000000E+00  0.79530822365E+03  0.79530822365E+03  0.00000000000E+00 0. -1.
         -2   -1    0    0    0  501 -0.00000000000E+00 -0.00000000000E+00 -0.17682549772E+02  0.17682549772E+02  0.00000000000E+00 0.  1.
         23    2    1    2    0    0 -0.19516550020E+02 -0.31014763280E+02  0.29680977720E+03  0.32220576407E+03  0.11990704439E+03 0.  0.
         23    2    1    2    0    0  0.19516550020E+02  0.31014763280E+02  0.48081589668E+03  0.49078500935E+03  0.91341051216E+02 0.  0.
          5    1    3    3  502    0  0.43108246464E+01 -0.53219428001E+02  0.28045207378E+03  0.28552010230E+03  0.41800000000E+01 0. -1.
         -5    1    3    3    0  502 -0.23827374666E+02  0.22204664720E+02  0.16357703415E+02  0.36685661774E+02  0.41800000000E+01 0.  1.
        -11    1    4    4    0    0 -0.34534904879E+02 -0.20902025913E+01  0.14834886687E+03  0.15232995406E+03  0.00000000000E+00 0.  1.
         11    1    4    4    0    0  0.54051454899E+02  0.33104965872E+02  0.33246702981E+03  0.33845505529E+03  0.00000000000E+00 0. -1.
</event>
<event>
 8    1  0.8619230E-006  0.9268135E+02  0.7561462E-02  0.1296485E+00
         -3   -1    0    0    0  501 -0.00000000000E+00  0.00000000000E+00  0.10847612465E+03  0.10847612465E+03  0.00000000000E+00 0.  1.
          3   -1    0    0  501    0  0.00000000000E+00 -0.00000000000E+00 -0.17457185954E+03  0.17457185954E+03  0.00000000000E+00 0. -1.
         23    2    1    2    0    0  0.26629846183E+02  0.62726207599E+01  0.46348677487E+02  0.13617599368E+03  0.12508879594E+03 0.  0.
         23    2    1    2    0    0 -0.26629846183E+02 -0.62726207599E+01 -0.11244441238E+03  0.14687199051E+03  0.90438604818E+02 0.  0.
          5    1    3    3  502    0 -0.33686786995E+02 -0.20337932744E+02  0.56872419976E+02  0.69284743489E+02  0.41800000000E+01 0.  1.
         -5    1    3    3    0  502  0.60316633179E+02  0.26610553504E+02 -0.10523742489E+02  0.66891250188E+02  0.41800000000E+01 0.  1.
        -11    1    4    4    0    0  0.24006068555E+02  0.10762638937E+02 -0.80352176427E+02  0.84549381908E+02  0.00000000000E+00 0. -1.
         11    1    4    4    0    0 -0.50635914739E+02 -0.17035259697E+02 -0.32092235955E+02  0.62322608602E+02  0.00000000000E+00 0.  1.
</event>
<event>
 8    1  0.8619230E-006  0.9485886E+02  0.7561462E-02  0.1291494E+00
         -4   -1    0    0    0  501 -0.00000000000E+00  0.00000000000E+00  0.10983352283E+04  0.10983352283E+04  0.00000000000E+00 0.  1.
          4   -1    0    0  501    0  0.00000000000E+00 -0.00000000000E+00 -0.12542858350E+02  0.12542858350E+02  0.00000000000E+00 0. -1.
         23    2    1    2    0    0 -0.15864967886E+02  0.90858349007E+01  0.82806304047E+03  0.83765772714E+03  0.12509124362E+03 0.  0.
         23    2    1    2    0    0  0.15864967886E+02 -0.90858349007E+01  0.25772932949E+03  0.27322035953E+03  0.88829657092E+02 0.  0.
          5    1    3    3  502    0  0.31191631797E+02 -0.39308108354E+02  0.21220145657E+03  0.21809396105E+03  0.41800000000E+01 0.  1.
         -5    1    3    3    0  502 -0.47056599683E+02  0.48393943255E+02  0.61586158391E+03  0.61956376609E+03  0.41800000000E+01 0.  1.
        -11    1    4    4    0    0  0.29125136798E+02 -0.33230702324E+02  0.22973440381E+03  0.23394539847E+03  0.00000000000E+00 0.  1.
         11    1    4    4    0    0 -0.13260168912E+02  0.24144867424E+02  0.27994925684E+02  0.39274961063E+02  0.00000000000E+00 0. -1.
</event>
<event>
 8    1  0.8619230E-006  0.1413310E+03  0.7561462E-02  0.1211549E+00
         -4   -1    0    0    0  501 -0.00000000000E+00  0.00000000000E+00  0.47720222934E+03  0.47720222934E+03  0.00000000000E+00 0.  1.
          4   -1    0    0  501    0  0.00000000000E+00 -0.00000000000E+00 -0.47912542060E+02  0.47912542060E+02  0.00000000000E+00 0. -1.
         23    2    1    2    0    0 -0.77185722879E+02 -0.68078928958E+02  0.27179859453E+03  0.31641100514E+03  0.12509625014E+03 0.  0.
         23    2    1    2    0    0  0.77185722879E+02  0.68078928958E+02  0.15749109275E+03  0.20870376626E+03  0.90340696106E+02 0.  0.
          5    1    3    3  502    0 -0.42786188356E+02  0.22655122336E+02  0.16520681602E+03  0.17220533366E+03  0.41800000000E+01 0.  1.
         -5    1    3    3    0  502 -0.34399534523E+02 -0.90734051294E+02  0.10659177852E+03  0.14420567148E+03  0.41800000000E+01 0.  1.
        -11    1    4    4    0    0 -0.19958528027E+02  0.34274593592E+01  0.22820495559E+02  0.30510085812E+02  0.00000000000E+00 0.  1.
         11    1    4    4    0    0  0.97144250907E+02  0.64651469599E+02  0.13467059719E+03  0.17819368045E+03  0.00000000000E+00 0. -1.
</event>
<event>
 7    1  0.8619230E-006  0.1124439E+03  0.7561462E-02  0.1256110E+00
         -2   -1    0    0    0  501 -0.00000000000E+00  0.00000000000E+00  0.47688492300E+02  0.47688492300E+02  0.00000000000E+00 0.  1.
          2   -1    0    0  501    0  0.00000000000E+00 -0.00000000000E+00 -0.35478492463E+03  0.35478492463E+03  0.00000000000E+00 0. -1.
         23    2    1    2    0    0 -0.13885481910E+02  0.30037262425E+02 -0.16618592678E+03  0.19165419391E+03  0.89546211766E+02 0.  0.
          5    1    1    2  502    0  0.67567357825E+02 -0.40305549622E+02 -0.13416915421E+03  0.15559151492E+03  0.41800000000E+01 0. -1.
         -5    1    1    2    0  502 -0.53681875915E+02  0.10268287198E+02 -0.67413513381E+01  0.55227708097E+02  0.41800000000E+01 0.  1.
        -11    1    3    3    0    0 -0.27801006873E+02  0.55610267253E+02 -0.84301119061E+02  0.10474768008E+03  0.00000000000E+00 0.  1.
         11    1    3    3    0    0  0.13915524963E+02 -0.25573004828E+02 -0.81884807723E+02  0.86906513834E+02  0.00000000000E+00 0. -1.
</event>
<event>
 8    1  0.8619230E-006  0.1063829E+03  0.7561462E-02  0.1267419E+00
         -2   -1    0    0    0  501 -0.00000000000E+00  0.00000000000E+00  0.17012895593E+03  0.17012895593E+03  0.00000000000E+00 0.  1.
          2   -1    0    0  501    0  0.00000000000E+00 -0.00000000000E+00 -0.16860229711E+03  0.16860229711E+03  0.00000000000E+00 0. -1.
         23    2    1    2    0    0  0.67186960803E+02 -0.19332632442E+02  0.11009660466E+03  0.18071377247E+03  0.12509343237E+03 0.  0.
         23    2    1    2    0    0 -0.67186960803E+02  0.19332632442E+02 -0.10856994583E+03  0.15801748057E+03  0.91072787634E+02 0.  0.
          5    1    3    3  502    0  0.80201682732E+02 -0.59613510795E+02  0.68557609912E+02  0.12125880941E+03  0.41800000000E+01 0. -1.
         -5    1    3    3    0  502 -0.13014721928E+02  0.40280878354E+02  0.41538994749E+02  0.59454963061E+02  0.41800000000E+01 0. -1.
        -11    1    4    4    0    0 -0.14242795069E+02  0.69018841794E+01  0.15746545819E+02  0.22325924882E+02  0.00000000000E+00 0.  1.
         11    1    4    4    0    0 -0.52944165734E+02  0.12430748262E+02 -0.12431649165E+03  0.13569155569E+03  0.00000000000E+00 0. -1.
</event>
<event>
 8    1  0.8619230E-006  0.1595250E+03  0.7561462E-02  0.1189234E+00
         -1   -1    0    0    0  501 -0.00000000000E+00  0.00000000000E+00  0.42519613546E+03  0.42519613546E+03  0.00000000000E+00 0.  1.
          1   -1    0    0  501    0  0.00000000000E+00 -0.00000000000E+00 -0.97534154963E+02  0.97534154963E+02  0.00000000000E+00 0. -1.
         23    2    1    2    0    0  0.12000851896E+03 -0.50461726984E+02  0.31203625581E+03  0.36051182651E+03  0.12511483366E+03 0.  0.
         23    2    1    2    0    0 -0.12000851896E+03  0.50461726984E+02  0.15625724689E+02  0.16221846392E+03  0.95510398654E+02 0.  0.
          5    1    3    3  502    0  0.59417926693E+02 -0.80513548127E+02  0.11684780829E+03  0.15389543251E+03  0.41800000000E+01 0. -1.
         -5    1    3    3    0  502  0.60590592263E+02  0.30051821143E+02  0.19518844752E+03  0.20661639400E+03  0.41800000000E+01 0. -1.
        -11    1    4    4    0    0 -0.68757716801E+02 -0.12569922689E+02  0.35772541738E+02  0.78519432744E+02  0.00000000000E+00 0.  1.
         11    1    4    4    0    0 -0.51250802154E+02  0.63031649673E+02 -0.20146817048E+02  0.83699031172E+02  0.00000000000E+00 0. -1.
</event>
<event>
 8    1  0.8619230E-006  0.5787571E+02  0.7561462E-02  0.1406969E+00
          2   -1    0    0  501    0  0.00000000000E+00  0.00000000000E+00  0.43026891824E+02  0.43026891824E+02  0.00000000000E+00 0. -1.
         -2   -1    0    0    0  501 -0.00000000000E+00 -0.00000000000E+00 -0.30595208307E+03  0.30595208307E+03  0.00000000000E+00 0.  1.
         23    2    1    2    0    0  0.32444352769E+02 -0.46857585169E+01 -0.17952686807E+03  0.22125083466E+03  0.12508974027E+03 0.  0.
         23    2    1    2    0    0 -0.32444352769E+02  0.46857585169E+01 -0.83398323180E+02  0.12772814024E+03  0.91019806305E+02 0.  0.
          5    1    3    3  502    0  0.10225134787E+02  0.14821526690E+02  0.15394093372E+02  0.24055800664E+02  0.41800000000E+01 0. -1.
         -5    1    3    3    0  502  0.22219217982E+02 -0.19507285207E+02 -0.19492096144E+03  0.19719503400E+03  0.41800000000E+01 0. -1.
        -11    1    4    4    0    0 -0.48047632785E+02  0.12930648478E+02 -0.81279950559E+01  0.50416673730E+02  0.00000000000E+00 0. -1.
         11    1    4    4    0    0  0.15603280016E+02 -0.82448899610E+01 -0.75270328124E+02  0.77311466508E+02  0.00000000000E+00 0.  1.
</event>
<event>
 8    1  0.8619230E-006  0.1118337E+03  0.7561462E-02  0.1257211E+00
          2   -1    0    0  501    0  0.00000000000E+00  0.00000000000E+00  0.50142979478E+03  0.50142979478E+03  0.00000000000E+00 0. -1.
         -2   -1    0    0    0  501 -0.00000000000E+00 -0.00000000000E+00 -0.33109973874E+02  0.33109973874E+02  0.00000000000E+00 0.  1.
         23    2    1    2    0    0  0.37118096468E+02  0.30980906602E+02  0.15688005095E+03  0.20638901307E+03  0.12508998629E+03 0.  0.
         23    2    1    2    0    0 -0.37118096468E+02 -0.30980906602E+02  0.31143976996E+03  0.32815075559E+03  0.91381718212E+02 0.  0.
          5    1    3    3  502    0  0.74163678898E+02  0.29226849438E+01  0.13658925271E+03  0.15550848759E+03  0.41800000000E+01 0.  1.
         -5    1    3    3    0  502 -0.37045582430E+02  0.28058221658E+02  0.20290798240E+02  0.50880525483E+02  0.41800000000E+01 0.  1.
        -11    1    4    4    0    0 -0.54502052936E+02 -0.52043486367E+02  0.24464456494E+03  0.25598820559E+03  0.00000000000E+00 0. -1.
         11    1    4    4    0    0  0.17383956468E+02  0.21062579765E+02  0.66795205012E+02  0.72162549993E+02  0.00000000000E+00 0.  1.
</event>
<event>
 8    1  0.8619230E-006  0.1257606E+03  0.7561462E-02  0.1233885E+00
         -2   -1    0    0    0  501 -0.00000000000E+00  0.00000000000E+00  0.73882901079E+02  0.73882901079E+02  0.00000000000E+00 0.  1.
          2   -1    0    0  501    0  0.00000000000E+00 -0.00000000000E+00 -0.30125386214E+03  0.30125386214E+03  0.00000000000E+00 0. -1.
         23    2    1    2    0    0  0.93389764623E+01 -0.10317456438E+03 -0.91465658481E+02  0.18640156468E+03  0.12508944567E+03 0.  0.
         23    2    1    2    0    0 -0.93389764623E+01  0.10317456438E+03 -0.13590530258E+03  0.18873519854E+03  0.80115645678E+02 0.  0.
          5    1    3    3  502    0 -0.11997452235E+02 -0.10503616119E+03 -0.11365596228E+03  0.15527937461E+03  0.41800000000E+01 0.  1.
         -5    1    3    3    0  502  0.21336428697E+02  0.18615968127E+01  0.22190303798E+02  0.31122190072E+02  0.41800000000E+01 0.  1.
        -11    1    4    4    0    0 -0.26413657036E+02  0.10350287543E+03 -0.89741155982E+02  0.13951344587E+03  0.00000000000E+00 0.  1.
         11    1    4    4    0    0  0.17074680574E+02 -0.32831105696E+00 -0.46164146598E+02  0.49221752670E+02  0.00000000000E+00 0. -1.
</event>
<event>
 8    1  0.8619230E-006  0.2340138E+03  0.7561462E-02  0.1123846E+00
          2   -1    0    0  501    0  0.00000000000E+00  0.00000000000E+00  0.13295707450E+04  0.13295707450E+04  0.00000000000E+00 0. -1.
         -2   -1    0    0    0  501 -0.00000000000E+00 -0.00000000000E+00 -0.77770097492E+02  0.77770097492E+02  0.00000000000E+00 0.  1.
         23    2    1    2    0    0 -0.14119232062E+03 -0.16216721494E+03  0.17214290723E+03  0.30251235827E+03  0.12508824642E+03 0.  0.
         23    2    1    2    0    0  0.14119232062E+03  0.16216721494E+03  0.10796577403E+04  0.11048284842E+04  0.93550341543E+02 0.  0.
          5    1    3    3  502    0 -0.14532436354E+03 -0.11178048949E+03  0.86022869652E+02  0.20256222494E+03  0.41800000000E+01 0.  1.
         -5    1    3    3    0  502  0.41320429190E+01 -0.50386725448E+02  0.86120037582E+02  0.99950133333E+02  0.41800000000E+01 0.  1.
        -11    1    4    4    0    0  0.10989857484E+03  0.56231429793E+02  0.60838476338E+03  0.62078312700E+03  0.00000000000E+00 0.  1.
         11    1    4    4    0    0  0.31293745785E+02  0.10593578514E+03  0.47127297691E+03  0.48404535724E+03  0.00000000000E+00 0. -1.
</event>
<event>
 8    1  0.8619230E-006  0.1123653E+03  0.7561462E-02  0.1256251E+00
          2   -1    0    0  501    0  0.00000000000E+00  0.00000000000E+00  0.36104003839E+03  0.36104003839E+03  0.00000000000E+00 0. -1.
         -2   -1    0    0    0  501 -0.00000000000E+00 -0.00000000000E+00 -0.43659769171E+02  0.43659769171E+02  0.00000000000E+00 0.  1.
         23    2    1    2    0    0  0.15375404707E+02 -0.32123253055E+02  0.93680080001E+02  0.16028476738E+03  0.12508774044E+03 0.  0.
         23    2    1    2    0    0 -0.15375404707E+02  0.32123253055E+02  0.22370018922E+03  0.24441504018E+03  0.91807574608E+02 0.  0.
          5    1    3    3  502    0 -0.11306289361E+02  0.43962285557E+02  0.52907887911E+02  0.69837180167E+02  0.41800000000E+01 0. -1.
         -5    1    3    3    0  502  0.26681694068E+02 -0.76085538612E+02  0.40772192090E+02  0.90447587210E+02  0.41800000000E+01 0. -1.
        -11    1    4    4    0    0  0.29785330974E+02 -0.14820770900E+02  0.79841046874E+02  0.86495167247E+02  0.00000000000E+00 0. -1.
         11    1    4    4    0    0 -0.45160735681E+02  0.46944023954E+02  0.14385914234E+03  0.15791987294E+03  0.00000000000E+00 0.  1.
</event>
<event>
 8    1  0.8619230E-006  0.9534923E+02  0.7561462E-02  0.1290391E+00
         -3   -1    0    0    0  501 -0.00000000000E+00  0.00000000000E+00  0.76438091642E+02  0.76438091642E+02  0.00000000000E+00 0.  1.
          3   -1    0    0  501    0  0.00000000000E+00 -0.00000000000E+00 -0.23362025121E+03  0.23362025121E+03  0.00000000000E+00 0. -1.
         23    2    1    2    0    0  0.71261783627E+02  0.14022575514E+02 -0.53839716771E+02  0.15434256489E+03  0.12509211728E+03 0.  0.
         23    2    1    2    0    0 -0.71261783627E+02 -0.14022575514E+02 -0.10334244280E+03  0.15571577797E+03  0.91065188705E+02 0.  0.
          5    1    3    3  502    0 -0.39865250118E+01 -0.19396270360E+02  0.30370190191E+02  0.36495596142E+02  0.41800000000E+01 0. -1.
         -5    1    3    3    0  502  0.75248308639E+02  0.33418845874E+02 -0.84209906961E+02  0.11784696875E+03  0.41800000000E+01 0. -1.
        -11    1    4    4    0    0 -0.25881862682E+02 -0.30262407705E+02 -0.99725717388E+02  0.10738204154E+03  0.00000000000E+00 0. -1.
         11    1    4    4    0    0 -0.45379920945E+02  0.16239832191E+02 -0.36167254125E+01  0.48333736430E+02  0.00000000000E+00 0.  1.
</event>
<event>
 8    1  0.8619230E-006  0.1113581E+03  0.7561462E-02  0.1258075E+00
         -1   -1    0    0    0  501 -0.00000000000E+00  0.00000000000E+00  0.80182214490E+03  0.80182214490E+03  0.00000000000E+00 0. -1.
          1   -1    0    0  501    0  0.00000000000E+00 -0.00000000000E+00 -0.25001537441E+02  0.25001537441E+02  0.00000000000E+00 0.  1.
         23    2    1    2    0    0  0.87570246217E+02 -0.27564370510E+02  0.42532638881E+03  0.45274591771E+03  0.12509191196E+03 0.  0.
         23    2    1    2    0    0 -0.87570246217E+02  0.27564370510E+02  0.35149421865E+03  0.37407776463E+03  0.89205637184E+02 0.  0.
          5    1    3    3  502    0  0.27579888587E+02 -0.21003217488E+02  0.36718813711E+03  0.36884466355E+03  0.41800000000E+01 0.  1.
         -5    1    3    3    0  502  0.59990357630E+02 -0.65611530218E+01  0.58138251706E+02  0.83901254156E+02  0.41800000000E+01 0.  1.
        -11    1    4    4    0    0 -0.67208849523E+02  0.59279954059E+02  0.22876905345E+03  0.24569579204E+03  0.00000000000E+00 0.  1.
         11    1    4    4    0    0 -0.20361396694E+02 -0.31715583548E+02  0.12272516519E+03  0.12838197259E+03  0.00000000000E+00 0. -1.
</event>
<event>
 8    1  0.8619230E-006  0.9743237E+02  0.7561462E-02  0.1285790E+00
         -1   -1    0    0    0  501 -0.00000000000E+00  0.00000000000E+00  0.10240793496E+03  0.10240793496E+03  0.00000000000E+00 0.  1.
          1   -1    0    0  501    0  0.00000000000E+00 -0.00000000000E+00 -0.15011479631E+03  0.15011479631E+03  0.00000000000E+00 0. -1.
         23    2    1    2    0    0  0.20962602716E+02 -0.30121158408E+02  0.20880484983E+02  0.13201765613E+03  0.12508377985E+03 0.  0.
         23    2    1    2    0    0 -0.20962602716E+02  0.30121158408E+02 -0.68587346331E+02  0.12050507514E+03  0.92035504897E+02 0.  0.
          5    1    3    3  502    0 -0.39228055343E+02 -0.51162474483E+02  0.21579473425E+02  0.68114500619E+02  0.41800000000E+01 0. -1.
         -5    1    3    3    0  502  0.60190658059E+02  0.21041316075E+02 -0.69898844164E+00  0.63903155513E+02  0.41800000000E+01 0. -1.
        -11    1    4    4    0    0  0.86535205004E+01 -0.12045424464E+02 -0.67348392893E+02  0.68962175813E+02  0.00000000000E+00 0. -1.
         11    1    4    4    0    0 -0.29616123216E+02  0.42166582873E+02 -0.12389534372E+01  0.51542899328E+02  0.00000000000E+00 0.  1.
</event>
<event>
 8    1  0.8619230E-006  0.9757900E+02  0.7561462E-02  0.1285471E+00
         -1   -1    0    0    0  501 -0.00000000000E+00  0.00000000000E+00  0.62842197617E+02  0.62842197617E+02  0.00000000000E+00 0.  1.
          1   -1    0    0  501    0  0.00000000000E+00 -0.00000000000E+00 -0.30977375048E+03  0.30977375048E+03  0.00000000000E+00 0. -1.
         23    2    1    2    0    0 -0.21708697634E+02 -0.26680015411E+01 -0.86461575997E+01  0.11698139706E+03  0.11459278088E+03 0.  0.
         23    2    1    2    0    0  0.21708697634E+02  0.26680015411E+01 -0.23828539527E+03  0.25563455104E+03  0.89948364660E+02 0.  0.
          5    1    3    3  502    0  0.23538444035E+02 -0.38101057025E+02 -0.31584349979E+02  0.54961736304E+02  0.41800000000E+01 0. -1.
         -5    1    3    3    0  502 -0.45247141670E+02  0.35433055484E+02  0.22938192379E+02  0.62019660752E+02  0.41800000000E+01 0.  1.
        -11    1    4    4    0    0 -0.28811793417E+02 -0.22080119765E+02 -0.95590034457E+02  0.10225021182E+03  0.00000000000E+00 0.  1.
         11    1    4    4    0    0  0.50520491051E+02  0.24748121306E+02 -0.14269536081E+03  0.15338433923E+03  0.00000000000E+00 0. -1.
</event>
<event>
 8    1  0.8619230E-006  0.1369083E+03  0.7561462E-02  0.1217551E+00
         -1   -1    0    0    0  501 -0.00000000000E+00  0.00000000000E+00  0.16629627210E+03  0.16629627210E+03  0.00000000000E+00 0.  1.
          1   -1    0    0  501    0  0.00000000000E+00 -0.00000000000E+00 -0.16430741711E+03  0.16430741711E+03  0.00000000000E+00 0. -1.
         23    2    1    2    0    0  0.23966612740E+02  0.11018391978E+03  0.53448239386E+02  0.17669035867E+03  0.12509146194E+03 0.  0.
         23    2    1    2    0    0 -0.23966612740E+02 -0.11018391978E+03 -0.51459384396E+02  0.15391333054E+03  0.91248837651E+02 0.  0.
          5    1    3    3  502    0 -0.84802545778E+01  0.11903072893E+03  0.75607261197E+01  0.11964474968E+03  0.41800000000E+01 0.  1.
         -5    1    3    3    0  502  0.32446867318E+02 -0.88468091514E+01  0.45887513266E+02  0.57045608987E+02  0.41800000000E+01 0.  1.
        -11    1    4    4    0    0 -0.22984950137E+02 -0.20401813383E+02 -0.56142209817E+02  0.64003825239E+02  0.00000000000E+00 0. -1.
         11    1    4    4    0    0 -0.98166260312E+00 -0.89782106395E+02  0.46828254205E+01  0.89909505304E+02  0.00000000000E+00 0.  1.
</event>
<event>
 8    1  0.8619230E-006  0.7863508E+02  0.7561462E-02  0.1332970E+00
         -1   -1    0    0    0  501 -0.00000000000E+00  0.00000000000E+00  0.53912432090E+02  0.53912432090E+02  0.00000000000E+00 0.  1.
          1   -1    0    0  501    0  0.00000000000E+00 -0.00000000000E+00 -0.28647682804E+03  0.28647682804E+03  0.00000000000E+00 0. -1.
         23    2    1    2    0    0 -0.22913050601E+02 -0.53882193024E+02 -0.11257599411E+03  0.17815628412E+03  0.12505202321E+03 0.  0.
         23    2    1    2    0    0  0.22913050601E+02  0.53882193024E+02 -0.11998840184E+03  0.16223297601E+03  0.92163025752E+02 0.  0.
          5    1    3    3  502    0 -0.42931531416E+02 -0.34671731795E+02 -0.13260030075E+03  0.14368562049E+03  0.41800000000E+01 0. -1.
         -5    1    3    3    0  502  0.20018480815E+02 -0.19210461229E+02  0.20024306642E+02  0.34470663633E+02  0.41800000000E+01 0. -1.
        -11    1    4    4    0    0  0.19503070219E+02 -0.37437862046E+00 -0.10364665570E+03  0.10546629388E+03  0.00000000000E+00 0. -1.
         11    1    4    4    0    0  0.34099803815E+01  0.54256571645E+02 -0.16341746138E+02  0.56766682127E+02  0.00000000000E+00 0.  1.
</event>
<event>
 8    1  0.8619230E-006  0.5829388E+02  0.7561462E-02  0.1405134E+00
          1   -1    0    0  501    0  0.00000000000E+00  0.00000000000E+00  0.12598391113E+03  0.12598391113E+03  0.00000000000E+00 0. -1.
         -1   -1    0    0    0  501 -0.00000000000E+00 -0.00000000000E+00 -0.11026270054E+03  0.11026270054E+03  0.00000000000E+00 0.  1.
         23    2    1    2    0    0 -0.23956797919E+01 -0.16736089277E+02 -0.43870920715E+02  0.13363737738E+03  0.12509378475E+03 0.  0.
         23    2    1    2    0    0  0.23956797919E+01  0.16736089277E+02  0.59592131305E+02  0.10260923429E+03  0.81802181406E+02 0.  0.
          5    1    3    3  502    0 -0.15077495158E+02 -0.46238076086E+02 -0.74497560818E+02  0.89065422630E+02  0.41800000000E+01 0.  1.
         -5    1    3    3    0  502  0.12681815366E+02  0.29501986809E+02  0.30626640103E+02  0.44571954755E+02  0.41800000000E+01 0.  1.
        -11    1    4    4    0    0 -0.14393917590E+02  0.78018478893E+01 -0.17052711181E+02  0.23639979964E+02  0.00000000000E+00 0.  1.
         11    1    4    4    0    0  0.16789597382E+02  0.89342413878E+01  0.76644842486E+02  0.78969254328E+02  0.00000000000E+00 0. -1.
</event>
<event>
 8    1  0.8619230E-006  0.1722456E+03  0.7561462E-02  0.1175526E+00
         -2   -1    0    0    0  501 -0.00000000000E+00  0.00000000000E+00  0.24090679550E+03  0.24090679550E+03  0.00000000000E+00 0.  1.
          2   -1    0    0  501    0  0.00000000000E+00 -0.00000000000E+00 -0.14788639875E+03  0.14788639875E+03  0.00000000000E+00 0. -1.
         23    2    1    2    0    0 -0.10100670538E+03 -0.90895706768E+02  0.12032937153E+03  0.22043276202E+03  0.12508821238E+03 0.  0.
         23    2    1    2    0    0  0.10100670538E+03  0.90895706768E+02 -0.27308974788E+02  0.16836043223E+03  0.95577565342E+02 0.  0.
          5    1    3    3  502    0 -0.12473995991E+03 -0.44729886143E+02  0.88249023491E+02  0.15926764537E+03  0.41800000000E+01 0.  1.
         -5    1    3    3    0  502  0.23733254532E+02 -0.46165820625E+02  0.32080348042E+02  0.61165116652E+02  0.41800000000E+01 0.  1.
        -11    1    4    4    0    0  0.10882437269E+03  0.52828638593E+02 -0.40108572930E+02  0.12744530894E+03  0.00000000000E+00 0.  1.
         11    1    4    4    0    0 -0.78176673119E+01  0.38067068175E+02  0.12799598141E+02  0.40915123295E+02  0.00000000000E+00 0. -1.
</event>
<event>
 8    1  0.8619230E-006  0.3876701E+03  0.7561462E-02  0.1048135E+00
          2   -1    0    0  501    0  0.00000000000E+00  0.00000000000E+00  0.14976736979E+03  0.14976736979E+03  0.00000000000E+00 0.  1.
         -2   -1    0    0    0  501 -0.00000000000E+00 -0.00000000000E+00 -0.10385012324E+04  0.10385012324E+04  0.00000000000E+00 0. -1.
         23    2    1    2    0    0 -0.69450770691E+02 -0.37303174253E+03 -0.42375788940E+03  0.58240175986E+03  0.12507985677E+03 0.  0.
         23    2    1    2    0    0  0.69450770691E+02  0.37303174253E+03 -0.46497597321E+03  0.60586684235E+03  0.83041462585E+02 0.  0.
          5    1    3    3  502    0 -0.75321707990E+02 -0.13052929075E+03 -0.21347771808E+03  0.26134548773E+03  0.41800000000E+01 0. -1.
         -5    1    3    3    0  502  0.58709372983E+01 -0.24250245178E+03 -0.21028017132E+03  0.32105627213E+03  0.41800000000E+01 0. -1.
        -11    1    4    4    0    0  0.22929553699E+02  0.23894238588E+03 -0.23703258355E+03  0.33734800113E+03  0.00000000000E+00 0.  1.
         11    1    4    4    0    0  0.46521216992E+02  0.13408935664E+03 -0.22794338967E+03  0.26851884122E+03  0.00000000000E+00 0. -1.
</event>
<event>
 7    1  0.8619230E-006  0.1934623E+03  0.7561462E-02  0.1155375E+00
         -2   -1    0    0    0  501 -0.00000000000E+00  0.00000000000E+00  0.42308587415E+03  0.42308587415E+03  0.00000000000E+00 0.  1.
          2   -1    0    0  501    0  0.00000000000E+00 -0.00000000000E+00 -0.11942422137E+03  0.11942422137E+03  0.00000000000E+00 0. -1.
         23    2    1    2    0    0 -0.72823453223E+02 -0.53628269939E+02  0.11010247222E+03  0.17152539653E+03  0.95494296110E+02 0.  0.
          5    1    1    2  502    0  0.55018186418E+02 -0.94589282150E+02 -0.19065613871E+02  0.11115351172E+03  0.41800000000E+01 0. -1.
         -5    1    1    2    0  502  0.17805266805E+02  0.14821755209E+03  0.21262479443E+03  0.25983118728E+03  0.41800000000E+01 0.  1.
        -11    1    3    3    0    0 -0.72015952737E+02  0.23871074080E+01  0.80946465490E+02  0.10837124160E+03  0.00000000000E+00 0.  1.
         11    1    3    3    0    0 -0.80750048563E+00 -0.56015377347E+02  0.29156006726E+02  0.63154154927E+02  0.00000000000E+00 0. -1.
</event>
<event>
 8    1  0.8619230E-006  0.1535157E+03  0.7561462E-02  0.1196218E+00
          2   -1    0    0  501    0  0.00000000000E+00  0.00000000000E+00  0.17046138284E+03  0.17046138284E+03  0.00000000000E+00 0. -1.
         -2   -1    0    0    0  501 -0.00000000000E+00 -0.00000000000E+00 -0.23433626523E+03  0.23433626523E+03  0.00000000000E+00 0.  1.
         23    2    1    2    0    0 -0.77629140795E+02 -0.97520943862E+02 -0.15059298005E+03  0.23208278575E+03  0.12509019069E+03 0.  0.
         23    2    1    2    0    0  0.77629140795E+02  0.97520943862E+02  0.86718097667E+02  0.17271486232E+03  0.82302959907E+02 0.  0.
          5    1    3    3  502    0 -0.11157522743E+03 -0.82484868236E+02 -0.12493496065E+03  0.18675920769E+03  0.41800000000E+01 0. -1.
         -5    1    3    3    0  502  0.33946086639E+02 -0.15036075626E+02 -0.25658019408E+02  0.45323578061E+02  0.41800000000E+01 0. -1.
        -11    1    4    4    0    0  0.77877708638E+02  0.74317575443E+02  0.99183272142E+02  0.14637404481E+03  0.00000000000E+00 0. -1.
         11    1    4    4    0    0 -0.24856784315E+00  0.23203368419E+02 -0.12465174475E+02  0.26340817501E+02  0.00000000000E+00 0.  1.
</event>
<event>
 8    1  0.8619230E-006  0.2326653E+03  0.7561462E-02  0.1124778E+00
         -1   -1    0    0    0  501 -0.00000000000E+00  0.00000000000E+00  0.80176209649E+02  0.80176209649E+02  0.00000000000E+00 0.  1.
          1   -1    0    0  501    0  0.00000000000E+00 -0.00000000000E+00 -0.80098059978E+03  0.80098059978E+03  0.00000000000E+00 0. -1.
         23    2    1    2    0    0 -0.21747697330E+02  0.21864596571E+03 -0.25743431077E+03  0.36083167706E+03  0.12509218260E+03 0.  0.
         23    2    1    2    0    0  0.21747697330E+02 -0.21864596571E+03 -0.46337007937E+03  0.52032513237E+03  0.88019272122E+02 0.  0.
          5    1    3    3  502    0  0.39826880889E+02  0.11783472000E+03 -0.81102861766E+02  0.14854746132E+03  0.41800000000E+01 0.  1.
         -5    1    3    3    0  502 -0.61574578220E+02  0.10081124572E+03 -0.17633144900E+03  0.21228421574E+03  0.41800000000E+01 0.  1.
        -11    1    4    4    0    0 -0.77494414098E+01 -0.10422671164E+03 -0.30719399656E+03  0.32448638304E+03  0.00000000000E+00 0. -1.
         11    1    4    4    0    0  0.29497138740E+02 -0.11441925407E+03 -0.15617608281E+03  0.19583874933E+03  0.00000000000E+00 0.  1.
</event>
<event>
 7    1  0.8619230E-006  0.1187066E+03  0.7561462E-02  0.1245246E+00
          2   -1    0    0  501    0  0.00000000000E+00  0.00000000000E+00  0.43541318382E+03  0.43541318382E+03  0.00000000000E+00 0. -1.
         -2   -1    0    0    0  501 -0.00000000000E+00 -0.00000000000E+00 -0.46817150157E+02  0.46817150157E+02  0.00000000000E+00 0.  1.
         23    2    1    2    0    0  0.32014791308E+02  0.20471692128E+02  0.16045857211E+03  0.20696434606E+03  0.12507297924E+03 0.  0.
          5    1    3    3  502    0  0.50290356793E+02 -0.79441656212E+01  0.16490098004E+03  0.17263266021E+03  0.41800000000E+01 0.  1.
         -5    1    3    3    0  502 -0.18275565485E+02  0.28415857749E+02 -0.44424079278E+01  0.34331685854E+02  0.41800000000E+01 0.  1.
        -11    1    1    2    0    0  0.29843017298E+02  0.50178056760E+02  0.10815223797E+03  0.12290382272E+03  0.00000000000E+00 0. -1.
         11    1    1    2    0    0 -0.61857808606E+02 -0.70649748888E+02  0.11998522358E+03  0.15236216519E+03  0.00000000000E+00 0.  1.
</event>
<event>
 7    1  0.8619230E-006  0.1365222E+03  0.7561462E-02  0.1218087E+00
          2   -1    0    0  501    0  0.00000000000E+00  0.00000000000E+00  0.16519511072E+03  0.16519511072E+03  0.00000000000E+00 0. -1.
         -2   -1    0    0    0  501 -0.00000000000E+00 -0.00000000000E+00 -0.12986458612E+03  0.12986458612E+03  0.00000000000E+00 0.  1.
         23    2    1    2    0    0  0.18358979260E+02  0.26081568253E+02  0.62129558955E+02  0.11511805618E+03  0.91513848357E+02 0.  0.
          5    1    1    2  502    0 -0.49686670518E+02  0.64436863686E+02 -0.19561599639E+02  0.83791426824E+02  0.41800000000E+01 0. -1.
         -5    1    1    2    0  502  0.31327691258E+02 -0.90518431939E+02 -0.72374347195E+01  0.96150213840E+02  0.41800000000E+01 0.  1.
        -11    1    3    3    0    0 -0.36577119102E+02  0.15594509101E+02  0.34932225727E+02  0.52927636922E+02  0.00000000000E+00 0.  1.
         11    1    3    3    0    0  0.54936098362E+02  0.10487059152E+02  0.27197333228E+02  0.62190419259E+02  0.00000000000E+00 0. -1.
</event>
<event>
 8    1  0.8619230E-006  0.1012991E+03  0.7561462E-02  0.1277588E+00
          1   -1    0    0  501    0  0.00000000000E+00  0.00000000000E+00  0.12803263816E+03  0.12803263816E+03  0.00000000000E+00 0. -1.
         -1   -1    0    0    0  501 -0.00000000000E+00 -0.00000000000E+00 -0.18810428967E+03  0.18810428967E+03  0.00000000000E+00 0.  1.
         23    2    1    2    0    0 -0.23774290317E+02 -0.63722652483E+02 -0.12217583731E+03  0.18761530786E+03  0.12508707048E+03 0.  0.
         23    2    1    2    0    0  0.23774290317E+02  0.63722652483E+02  0.62104185799E+02  0.12852161996E+03  0.89638627748E+02 0.  0.
          5    1    3    3  502    0 -0.15096665122E+02  0.32540461947E+02 -0.62947539353E+01  0.36659068300E+02  0.41800000000E+01 0. -1.
         -5    1    3    3    0  502 -0.86776251949E+01 -0.96263114430E+02 -0.11588108337E+03  0.15095623956E+03  0.41800000000E+01 0. -1.
        -11    1    4    4    0    0  0.12469010816E+02  0.51920024194E+02  0.85006583726E+02  0.10038567836E+03  0.00000000000E+00 0. -1.
         11    1    4    4    0    0  0.11305279501E+02  0.11802628290E+02 -0.22902397926E+02  0.28135941604E+02  0.00000000000E+00 0.  1.
</event>
<event>
 8    1  0.8619230E-006  0.1068860E+03  0.7561462E-02  0.1266448E+00
         -2   -1    0    0    0  501 -0.00000000000E+00  0.00000000000E+00  0.10051472886E+03  0.10051472886E+03  0.00000000000E+00 0.  1.
          2   -1    0    0  501    0  0.00000000000E+00 -0.00000000000E+00 -0.14189385590E+03  0.14189385590E+03  0.00000000000E+00 0. -1.
         23    2    1    2    0    0  0.52559932959E+02  0.20883692626E+02 -0.16364292282E+02  0.13825299316E+03  0.12508966738E+03 0.  0.
         23    2    1    2    0    0 -0.52559932959E+02 -0.20883692626E+02 -0.25014834766E+02  0.10415559161E+03  0.83809129181E+02 0.  0.
          5    1    3    3  502    0  0.82970224191E+02  0.27802645990E+02  0.20311975476E+02  0.89928271272E+02  0.41800000000E+01 0.  1.
         -5    1    3    3    0  502 -0.30410291232E+02 -0.69189533641E+01 -0.36676267758E+02  0.48324721883E+02  0.41800000000E+01 0.  1.
        -11    1    4    4    0    0  0.18832765623E+02  0.37032454023E+01  0.91681233881E+01  0.21270674037E+02  0.00000000000E+00 0.  1.
         11    1    4    4    0    0 -0.71392698582E+02 -0.24586938029E+02 -0.34182958154E+02  0.82884917570E+02  0.00000000000E+00 0. -1.
</event>
<event>
 8    1  0.8619230E-006  0.1142189E+03  0.7561462E-02  0.1252951E+00
          1   -1    0    0  501    0  0.00000000000E+00  0.00000000000E+00  0.14782817134E+03  0.14782817134E+03  0.00000000000E+00 0. -1.
         -1   -1    0    0    0  501 -0.00000000000E+00 -0.00000000000E+00 -0.11025444718E+03  0.11025444718E+03  0.00000000000E+00 0.  1.
         23    2    1    2    0    0 -0.30981461528E+02 -0.44656172865E+02 -0.20075826876E+02  0.13786167599E+03  0.12509507644E+03 0.  0.
         23    2    1    2    0    0  0.30981461528E+02  0.44656172865E+02  0.57649551033E+02  0.12022094253E+03  0.90418911487E+02 0.  0.
          5    1    3    3  502    0 -0.40703020498E+02  0.31475575611E+02 -0.31015214858E+02  0.60223448011E+02  0.41800000000E+01 0. -1.
         -5    1    3    3    0  502  0.97215589700E+01 -0.76131748475E+02  0.10939387982E+02  0.77638227982E+02  0.41800000000E+01 0. -1.
        -11    1    4    4    0    0  0.36113456234E+02  0.67491691344E+02  0.59195645160E+02  0.96764841382E+02  0.00000000000E+00 0.  1.
         11    1    4    4    0    0 -0.51319947064E+01 -0.22835518479E+02 -0.15460941274E+01  0.23456101145E+02  0.00000000000E+00 0. -1.
</event>
<event>
 8    1  0.8619230E-006  0.1081429E+03  0.7561462E-02  0.1264048E+00
         -1   -1    0    0    0  501 -0.00000000000E+00  0.00000000000E+00  0.20197311082E+03  0.20197311082E+03  0.00000000000E+00 0.  1.
          1   -1    0    0  501    0  0.00000000000E+00 -0.00000000000E+00 -0.82757294377E+02  0.82757294377E+02  0.00000000000E+00 0. -1.
         23    2    1    2    0    0 -0.48667214700E+02 -0.64450364502E+02  0.91362468559E+02  0.17468974982E+03  0.12508821192E+03 0.  0.
         23    2    1    2    0    0  0.48667214700E+02  0.64450364502E+02  0.27853347888E+02  0.11004065538E+03  0.69359855657E+02 0.  0.
          5    1    3    3  502    0  0.13176185940E+02 -0.49298008252E+02  0.97967022714E+02  0.11053920315E+03  0.41800000000E+01 0.  1.
         -5    1    3    3    0  502 -0.61843400640E+02 -0.15152356250E+02 -0.66045541548E+01  0.64150546671E+02  0.41800000000E+01 0.  1.
        -11    1    4    4    0    0  0.53595737114E+02  0.21024329201E+02 -0.11576281607E+01  0.57583552844E+02  0.00000000000E+00 0. -1.
         11    1    4    4    0    0 -0.49285224144E+01  0.43426035301E+02  0.29010976049E+02  0.52457102536E+02  0.00000000000E+00 0.  1.
</event>
<event>
 8    1  0.8619230E-006  0.1429138E+03  0.7561462E-02  0.1209461E+00
         -2   -1    0    0    0  501 -0.00000000000E+00  0.00000000000E+00  0.44677185432E+02  0.44677185432E+02  0.00000000000E+00 0.  1.
          2   -1    0    0  501    0  0.00000000000E+00 -0.00000000000E+00 -0.56436482544E+03  0.56436482544E+03  0.00000000000E+00 0. -1.
         23    2    1    2    0    0  0.56402140290E+02  0.93569169044E+02 -0.35796530255E+03  0.39461690647E+03  0.12508778605E+03 0.  0.
         23    2    1    2    0    0 -0.56402140290E+02 -0.93569169044E+02 -0.16172233746E+03  0.21442510440E+03  0.88812274709E+02 0.  0.
          5    1    3    3  502    0  0.37897656101E+02 -0.21634346836E+02 -0.57797734512E+02  0.72541903860E+02  0.41800000000E+01 0. -1.
         -5    1    3    3    0  502  0.18504484189E+02  0.11520351588E+03 -0.30016756804E+03  0.32207500261E+03  0.41800000000E+01 0. -1.
        -11    1    4    4    0    0 -0.61976358131E+02 -0.45603544120E+02 -0.14347101158E+03  0.16280259017E+03  0.00000000000E+00 0. -1.
         11    1    4    4    0    0  0.55742178407E+01 -0.47965624924E+02 -0.18251325881E+02  0.51622514229E+02  0.00000000000E+00 0.  1.
</event>
<event>
 7    1  0.8619230E-006  0.1033692E+03  0.7561462E-02  0.1273366E+00
          3   -1    0    0  501    0  0.00000000000E+00  0.00000000000E+00  0.36127732019E+03  0.36127732019E+03  0.00000000000E+00 0. -1.
         -3   -1    0    0    0  501 -0.00000000000E+00 -0.00000000000E+00 -0.36142038148E+02  0.36142038148E+02  0.00000000000E+00 0.  1.
         23    2    1    2    0    0 -0.33725440756E+02  0.60255060311E+02  0.20348892742E+03  0.24864601126E+03  0.12509603387E+03 0.  0.
          5    1    3    3  502    0 -0.40713833198E+02  0.91327662945E+02  0.18801405357E+03  0.21299088002E+03  0.41800000000E+01 0.  1.
         -5    1    3    3    0  502  0.69883924422E+01 -0.31072602634E+02  0.15474873848E+02  0.35655131243E+02  0.41800000000E+01 0.  1.
        -11    1    1    2    0    0  0.15530754576E+01 -0.31042284240E+02  0.16918575065E+02  0.35387478527E+02  0.00000000000E+00 0.  1.
         11    1    1    2    0    0  0.32172365298E+02 -0.29212776071E+02  0.10472777956E+03  0.11338586854E+03  0.00000000000E+00 0. -1.
</event>
<event>
 8    1  0.8619230E-006  0.8334312E+02  0.7561462E-02  0.1319823E+00
          3   -1    0    0  501    0  0.00000000000E+00  0.00000000000E+00  0.73575698691E+02  0.73575698691E+02  0.00000000000E+00 0. -1.
         -3   -1    0    0    0  501 -0.00000000000E+00 -0.00000000000E+00 -0.19828410478E+03  0.19828410478E+03  0.00000000000E+00 0.  1.
         23    2    1    2    0    0 -0.46088131590E+02 -0.29855107058E+02 -0.61705882632E+02  0.14990335689E+03  0.12509179496E+03 0.  0.
         23    2    1    2    0    0  0.46088131590E+02  0.29855107058E+02 -0.63002523462E+02  0.12195644658E+03  0.88817867626E+02 0.  0.
          5    1    3    3  502    0 -0.20893770387E+02  0.20468239665E+01 -0.94882026081E+02  0.97266697294E+02  0.41800000000E+01 0.  1.
         -5    1    3    3    0  502 -0.25194361203E+02 -0.31901931025E+02  0.33176143449E+02  0.52636659598E+02  0.41800000000E+01 0.  1.
        -11    1    4    4    0    0 -0.25105907861E+02 -0.42678052132E+01 -0.14748993339E+02  0.29428788207E+02  0.00000000000E+00 0. -1.
         11    1    4    4    0    0  0.71194039450E+02  0.34122912271E+02 -0.48253530123E+02  0.92527658375E+02  0.00000000000E+00 0.  1.
</event>
<event>
 8    1  0.8619230E-006  0.1842591E+03  0.7561462E-02  0.1163744E+00
          2   -1    0    0  501    0  0.00000000000E+00  0.00000000000E+00  0.45225163445E+03  0.45225163445E+03  0.00000000000E+00 0. -1.
         -2   -1    0    0    0  501 -0.00000000000E+00 -0.00000000000E+00 -0.13763090462E+03  0.13763090462E+03  0.00000000000E+00 0.  1.
         23    2    1    2    0    0  0.11220785656E+03 -0.13802340788E+03  0.75883928923E+00  0.21746577089E+03  0.12509884683E+03 0.  0.
         23    2    1    2    0    0 -0.11220785656E+03  0.13802340788E+03  0.31386189055E+03  0.37241676818E+03  0.92433212023E+02 0.  0.
          5    1    3    3  502    0 -0.71844580646E+01 -0.22288199567E+02  0.40025653096E+02  0.46560773011E+02  0.41800000000E+01 0.  1.
         -5    1    3    3    0  502  0.11939231463E+03 -0.11573520831E+03 -0.39266813807E+02  0.17090499788E+03  0.41800000000E+01 0.  1.
        -11    1    4    4    0    0 -0.16733551013E+02  0.13590175233E+02  0.90626274755E-02  0.21557009869E+02  0.00000000000E+00 0.  1.
         11    1    4    4    0    0 -0.95474305549E+02  0.12443323264E+03  0.31385282792E+03  0.35085975831E+03  0.00000000000E+00 0. -1.
</event>
<event>
 8    1  0.8619230E-006  0.8254644E+02  0.7561462E-02  0.1321976E+00
         -4   -1    0    0    0  501 -0.00000000000E+00  0.00000000000E+00  0.25823890607E+03  0.25823890607E+03  0.00000000000E+00 0. -1.
          4   -1    0    0  501    0  0.00000000000E+00 -0.00000000000E+00 -0.82726023282E+02  0.82726023282E+02  0.00000000000E+00 0.  1.
         23    2    1    2    0    0 -0.72841448737E+02  0.13434370980E+02  0.16927782935E+03  0.22312359759E+03  0.12507116898E+03 0.  0.
         23    2    1    2    0    0  0.72841448737E+02 -0.13434370980E+02  0.62350534359E+01  0.11784133177E+03  0.91440388252E+02 0.  0.
          5    1    3    3  502    0 -0.76358047197E+02  0.22126055206E+02  0.32542563616E+02  0.86003514680E+02  0.41800000000E+01 0. -1.
         -5    1    3    3    0  502  0.35165984596E+01 -0.86916842258E+01  0.13673526574E+03  0.13712008291E+03  0.41800000000E+01 0. -1.
        -11    1    4    4    0    0  0.48206855810E+02 -0.15129835868E+02  0.47762249123E+02  0.69527299111E+02  0.00000000000E+00 0. -1.
         11    1    4    4    0    0  0.24634592928E+02  0.16954648872E+01 -0.41527195687E+02  0.48314032657E+02  0.00000000000E+00 0.  1.
</event>
<event>
 8    1  0.8619230E-006  0.1555644E+03  0.7561462E-02  0.1193798E+00
          2   -1    0    0  501    0  0.00000000000E+00  0.00000000000E+00  0.31591280097E+02  0.31591280097E+02  0.00000000000E+00 0.  1.
         -2   -1    0    0    0  501 -0.00000000000E+00 -0.00000000000E+00 -0.86708976732E+03  0.86708976732E+03  0.00000000000E+00 0. -1.
         23    2    1    2    0    0  0.11376089637E+03  0.49868656564E+02 -0.41286726186E+03  0.44892710113E+03  0.12509093400E+03 0.  0.
         23    2    1    2    0    0 -0.11376089637E+03 -0.49868656564E+02 -0.42263122537E+03  0.44975394629E+03  0.90736073832E+02 0.  0.
          5    1    3    3  502    0  0.10338326248E+03 -0.77032847538E+01 -0.33949411393E+03  0.35499459904E+03  0.41800000000E+01 0.  1.
         -5    1    3    3    0  502  0.10377633889E+02  0.57571941318E+02 -0.73373147929E+02  0.93932502092E+02  0.41800000000E+01 0.  1.
        -11    1    4    4    0    0  0.64355410197E+00  0.16467609985E+02 -0.95355254165E+02  0.96768904289E+02  0.00000000000E+00 0.  1.
         11    1    4    4    0    0 -0.11440445047E+03 -0.66336266549E+02 -0.32727597120E+03  0.35298504200E+03  0.00000000000E+00 0. -1.
</event>
<event>
 8    1  0.8619230E-006  0.2342504E+03  0.7561462E-02  0.1123683E+00
          1   -1    0    0  501    0  0.00000000000E+00  0.00000000000E+00  0.12440394692E+04  0.12440394692E+04  0.00000000000E+00 0. -1.
         -1   -1    0    0    0  501 -0.00000000000E+00 -0.00000000000E+00 -0.71342779592E+02  0.71342779592E+02  0.00000000000E+00 0.  1.
         23    2    1    2    0    0 -0.10720403044E+03 -0.18349942687E+03  0.20568308079E+03  0.32111947128E+03  0.12508973300E+03 0.  0.
         23    2    1    2    0    0  0.10720403044E+03  0.18349942687E+03  0.96701360885E+03  0.99426277755E+03  0.90985753348E+02 0.  0.
          5    1    3    3  502    0 -0.36602586307E+02  0.11960851926E+02  0.31535560501E+02  0.49947725467E+02  0.41800000000E+01 0. -1.
         -5    1    3    3    0  502 -0.70601444134E+02 -0.19546027880E+03  0.17414752029E+03  0.27117174581E+03  0.41800000000E+01 0. -1.
        -11    1    4    4    0    0  0.57258364547E+02  0.39690562899E+02  0.18755453330E+03  0.20007639555E+03  0.00000000000E+00 0.  1.
         11    1    4    4    0    0  0.49945665894E+02  0.14380886398E+03  0.77945907555E+03  0.79418638200E+03  0.00000000000E+00 0. -1.
</event>
<event>
 8    1  0.8619230E-006  0.9385974E+02  0.7561462E-02  0.1293765E+00
         -1   -1    0    0    0  501 -0.00000000000E+00  0.00000000000E+00  0.39386467293E+03  0.39386467293E+03  0.00000000000E+00 0.  1.
          1   -1    0    0  501    0  0.00000000000E+00 -0.00000000000E+00 -0.50612323671E+02  0.50612323671E+02  0.00000000000E+00 0. -1.
         23    2    1    2    0    0 -0.45758620000E+02 -0.32362939207E+02  0.29378064025E+03  0.32418447504E+03  0.12508916073E+03 0.  0.
         23    2    1    2    0    0  0.45758620000E+02  0.32362939207E+02  0.49471709007E+02  0.12029252156E+03  0.94242398168E+02 0.  0.
          5    1    3    3  502    0  0.23921991746E+02  0.14574387464E+02  0.18251627886E+03  0.18470067382E+03  0.41800000000E+01 0. -1.
         -5    1    3    3    0  502 -0.69680611746E+02 -0.46937326671E+02  0.11126436139E+03  0.13948380123E+03  0.41800000000E+01 0. -1.
        -11    1    4    4    0    0  0.21324435847E+02 -0.12118868767E+02  0.63137074991E+02  0.67733955907E+02  0.00000000000E+00 0.  1.
         11    1    4    4    0    0  0.24434184153E+02  0.44481807974E+02 -0.13665365985E+02  0.52558565652E+02  0.00000000000E+00 0. -1.
</event>
<event>
 8    1  0.8619230E-006  0.1041652E+03  0.7561462E-02  0.1271773E+00
          2   -1    0    0  501    0  0.00000000000E+00  0.00000000000E+00  0.30986193718E+03  0.30986193718E+03  0.00000000000E+00 0. -1.
         -2   -1    0    0    0  501 -0.00000000000E+00 -0.00000000000E+00 -0.44520465089E+02  0.44520465089E+02  0.00000000000E+00 0.  1.
         23    2    1    2    0    0 -0.11433301861E+02 -0.60130167211E+01  0.92874903296E+02  0.15633495627E+03  0.12509194270E+03 0.  0.
         23    2    1    2    0    0  0.11433301861E+02  0.60130167211E+01  0.17246656880E+03  0.19804744601E+03  0.96494542614E+02 0.  0.
          5    1    3    3  502    0 -0.51981150542E+02 -0.45191615698E+02  0.55561584276E+02  0.88593928620E+02  0.41800000000E+01 0.  1.
         -5    1    3    3    0  502  0.40547848681E+02  0.39178598977E+02  0.37313319020E+02  0.67741027648E+02  0.41800000000E+01 0.  1.
        -11    1    4    4    0    0  0.16883553893E+02  0.42585399633E+02  0.40994401322E+02  0.61474479206E+02  0.00000000000E+00 0.  1.
         11    1    4    4    0    0 -0.54502520324E+01 -0.36572382912E+02  0.13147216748E+03  0.13657296680E+03  0.00000000000E+00 0. -1.
</event>
<event>
 8    1  0.8619230E-006  0.7838548E+02  0.7561462E-02  0.1333697E+00
         -2   -1    0    0    0  501 -0.00000000000E+00  0.00000000000E+00  0.19677698906E+02  0.19677698906E+02  0.00000000000E+00 0.  1.
          2   -1    0    0  501    0  0.00000000000E+00 -0.00000000000E+00 -0.65611719035E+03  0.65611719035E+03  0.00000000000E+00 0. -1.
         23    2    1    2    0    0 -0.18476047913E+02 -0.14984649544E+02 -0.34967900082E+03  0.37214047772E+03  0.12508887830E+03 0.  0.
         23    2    1    2    0    0  0.18476047913E+02  0.14984649544E+02 -0.28676049062E+03  0.30365441153E+03  0.96997518495E+02 0.  0.
          5    1    3    3  502    0 -0.33271156933E+02  0.16452353472E+02 -0.32977003275E+03  0.33187858731E+03  0.41800000000E+01 0.  1.
         -5    1    3    3    0  502  0.14795109020E+02 -0.31437003016E+02 -0.19908968076E+02  0.40261890410E+02  0.41800000000E+01 0.  1.
        -11    1    4    4    0    0  0.44778138626E+02 -0.12391173824E+02 -0.72873253692E+02  0.86424151666E+02  0.00000000000E+00 0. -1.
         11    1    4    4    0    0 -0.26302090713E+02  0.27375823368E+02 -0.21388723693E+03  0.21723025987E+03  0.00000000000E+00 0.  1.
</event>
<event>
 8    1  0.8619230E-006  0.1178978E+03  0.7561462E-02  0.1246606E+00
         -1   -1    0    0    0  501 -0.00000000000E+00  0.00000000000E+00  0.41646052451E+02  0.41646052451E+02  0.00000000000E+00 0.  1.
          1   -1    0    0  501    0  0.00000000000E+00 -0.00000000000E+00 -0.61468741417E+03  0.61468741417E+03  0.00000000000E+00 0. -1.
         23    2    1    2    0    0  0.76516481839E+02  0.60257791204E+01 -0.12462425314E+03  0.19253622529E+03  0.12509161272E+03 0.  0.
         23    2    1    2    0    0 -0.76516481839E+02 -0.60257791204E+01 -0.44841710858E+03  0.46379724133E+03  0.90215828936E+02 0.  0.
          5    1    3    3  502    0  0.25612401202E+02 -0.41083555926E+02 -0.11176605938E+03  0.12187279472E+03  0.41800000000E+01 0.  1.
         -5    1    3    3    0  502  0.50904080637E+02  0.47109335047E+02 -0.12858193762E+02  0.70663430577E+02  0.41800000000E+01 0.  1.
        -11    1    4    4    0    0  0.91108888693E+01 -0.27892800600E+02 -0.90873753057E+02  0.95493746475E+02  0.00000000000E+00 0.  1.
         11    1    4    4    0    0 -0.85627370708E+02  0.21867021480E+02 -0.35754335552E+03  0.36830349485E+03  0.00000000000E+00 0. -1.
</event>
<event>
 8    1  0.8619230E-006  0.1742317E+03  0.7561462E-02  0.1173505E+00
          1   -1    0    0  501    0  0.00000000000E+00  0.00000000000E+00  0.36232526443E+03  0.36232526443E+03  0.00000000000E+00 0. -1.
         -1   -1    0    0    0  501 -0.00000000000E+00 -0.00000000000E+00 -0.11185565049E+03  0.11185565049E+03  0.00000000000E+00 0.  1.
         23    2    1    2    0    0  0.50155425863E+02  0.15847889393E+03  0.95564280313E+02  0.22893568831E+03  0.12509153107E+03 0.  0.
         23    2    1    2    0    0 -0.50155425863E+02 -0.15847889393E+03  0.15490533362E+03  0.24524522660E+03  0.92295353197E+02 0.  0.
          5    1    3    3  502    0  0.15155087238E+02  0.23720413828E+02 -0.30037690057E+02  0.41377166714E+02  0.41800000000E+01 0. -1.
         -5    1    3    3    0  502  0.35000338625E+02  0.13475848010E+03  0.12560197037E+03  0.18755852160E+03  0.41800000000E+01 0. -1.
        -11    1    4    4    0    0 -0.32446866668E+02 -0.14311149401E+02  0.66059073854E+02  0.74976058793E+02  0.00000000000E+00 0. -1.
         11    1    4    4    0    0 -0.17708559195E+02 -0.14416774453E+03  0.88846259769E+02  0.17026916781E+03  0.00000000000E+00 0.  1.
</event>
<event>
 8    1  0.8619230E-006  0.2340959E+03  0.7561462E-02  0.1123790E+00
          3   -1    0    0  501    0  0.00000000000E+00  0.00000000000E+00  0.47364944913E+03  0.47364944913E+03  0.00000000000E+00 0. -1.
         -3   -1    0    0    0  501 -0.00000000000E+00 -0.00000000000E+00 -0.13500059536E+03  0.13500059536E+03  0.00000000000E+00 0.  1.
         23    2    1    2    0    0  0.83416131092E+02  0.21201522892E+03  0.19176498313E+03  0.32300102554E+03  0.12508855074E+03 0.  0.
         23    2    1    2    0    0 -0.83416131092E+02 -0.21201522892E+03  0.14688387065E+03  0.28564901895E+03  0.90065433723E+02 0.  0.
          5    1    3    3  502    0  0.90866458124E+00  0.10446977640E+03  0.23995677592E+02  0.10727546222E+03  0.41800000000E+01 0.  1.
         -5    1    3    3    0  502  0.82507466511E+02  0.10754545252E+03  0.16776930554E+03  0.21572556332E+03  0.41800000000E+01 0.  1.
        -11    1    4    4    0    0 -0.70487380786E+02 -0.18738548050E+03  0.15865208494E+03  0.25544524503E+03  0.00000000000E+00 0.  1.
         11    1    4    4    0    0 -0.12928750306E+02 -0.24629748414E+02 -0.11768214291E+02  0.30203773920E+02  0.00000000000E+00 0. -1.
</event>
<event>
 8    1  0.8619230E-006  0.2487554E+03  0.7561462E-02  0.1114094E+00
          1   -1    0    0  501    0  0.00000000000E+00  0.00000000000E+00  0.85153626487E+03  0.85153626487E+03  0.00000000000E+00 0. -1.
         -1   -1    0    0    0  501 -0.00000000000E+00 -0.00000000000E+00 -0.78950024345E+02  0.78950024345E+02  0.00000000000E+00 0.  1.
         23    2    1    2    0    0 -0.10971388013E+03 -0.20637254630E+03  0.45003579097E+03  0.52230873519E+03  0.12508972118E+03 0.  0.
         23    2    1    2    0    0  0.10971388013E+03  0.20637254630E+03  0.32255044956E+03  0.40817755402E+03  0.89125528011E+02 0.  0.
          5    1    3    3  502    0 -0.25377814871E+01  0.72226242359E+01  0.88377898236E+02  0.88807274096E+02  0.41800000000E+01 0. -1.
         -5    1    3    3    0  502 -0.10717609864E+03 -0.21359517053E+03  0.36165789273E+03  0.43350146109E+03  0.41800000000E+01 0. -1.
        -11    1    4    4    0    0  0.49570656144E+02  0.17511292219E+03  0.22500638378E+03  0.28939533204E+03  0.00000000000E+00 0.  1.
         11    1    4    4    0    0  0.60143223982E+02  0.31259624111E+02  0.97544065777E+02  0.11878222198E+03  0.00000000000E+00 0. -1.
</event>
<event>
 8    1  0.8619230E-006  0.1047256E+03  0.7561462E-02  0.1270661E+00
          1   -1    0    0  501    0  0.00000000000E+00  0.00000000000E+00  0.16725079417E+03  0.16725079417E+03  0.00000000000E+00 0. -1.
         -1   -1    0    0    0  501 -0.00000000000E+00 -0.00000000000E+00 -0.69826677101E+02  0.69826677101E+02  0.00000000000E+00 0.  1.
         23    2    1    2    0    0 -0.19100656506E+01  0.13282538239E+02  0.54357330218E+02  0.13705011415E+03  0.12509172741E+03 0.  0.
         23    2    1    2    0    0  0.19100656506E+01 -0.13282538239E+02  0.43066786855E+02  0.10002735713E+03  0.89278496127E+02 0.  0.
          5    1    3    3  502    0  0.35309687521E+02 -0.40520443710E+02  0.46184362159E+02  0.70986957248E+02  0.41800000000E+01 0. -1.
         -5    1    3    3    0  502 -0.37219753172E+02  0.53802981949E+02  0.81729680587E+01  0.66063156901E+02  0.41800000000E+01 0. -1.
        -11    1    4    4    0    0  0.34345681519E+01  0.38263947377E+02  0.22400570913E+02  0.44471468432E+02  0.00000000000E+00 0.  1.
         11    1    4    4    0    0 -0.15245025013E+01 -0.51546485616E+02  0.20666215942E+02  0.55555888694E+02  0.00000000000E+00 0. -1.
</event>
<event>
 8    1  0.8619230E-006  0.9967550E+02  0.7561462E-02  0.1280980E+00
         -1   -1    0    0    0  501 -0.00000000000E+00  0.00000000000E+00  0.12559296778E+04  0.12559296778E+04  0.00000000000E+00 0.  1.
          1   -1    0    0  501    0  0.00000000000E+00 -0.00000000000E+00 -0.14193580724E+02  0.14193580724E+02  0.00000000000E+00 0. -1.
         23    2    1    2    0    0 -0.43029292810E+02 -0.48045232640E+02  0.87549009202E+03  0.88673052436E+03  0.12509299414E+03 0.  0.
         23    2    1    2    0    0  0.43029292810E+02  0.48045232640E+02  0.36624600501E+03  0.38339273412E+03  0.93241557103E+02 0.  0.
          5    1    3    3  502    0 -0.47225733921E+02 -0.59298485645E+02  0.25384441229E+03  0.26495478557E+03  0.41800000000E+01 0.  1.
         -5    1    3    3    0  502  0.41964411111E+01  0.11253253005E+02  0.62164567973E+03  0.62177573879E+03  0.41800000000E+01 0.  1.
        -11    1    4    4    0    0  0.39848986782E+02 -0.18610944573E+02  0.18769461020E+03  0.19277856651E+03  0.00000000000E+00 0.  1.
         11    1    4    4    0    0  0.31803060280E+01  0.66656177213E+02  0.17855139481E+03  0.19061416762E+03  0.00000000000E+00 0. -1.
</event>
<event>
 8    1  0.8619230E-006  0.2131799E+03  0.7561462E-02  0.1139072E+00
          1   -1    0    0  501    0  0.00000000000E+00  0.00000000000E+00  0.28471117173E+03  0.28471117173E+03  0.00000000000E+00 0. -1.
         -1   -1    0    0    0  501 -0.00000000000E+00 -0.00000000000E+00 -0.19180968219E+03  0.19180968219E+03  0.00000000000E+00 0.  1.
         23    2    1    2    0    0 -0.18606736302E+03 -0.90125727698E+02  0.48502131871E+02  0.24646275853E+03  0.12509086367E+03 0.  0.
         23    2    1    2    0    0  0.18606736302E+03  0.90125727698E+02  0.44399357663E+02  0.23005809539E+03  0.90618507584E+02 0.  0.
          5    1    3    3  502    0 -0.14292693355E+03 -0.10080311017E+03 -0.71819115662E+01  0.17509548140E+03  0.41800000000E+01 0. -1.
         -5    1    3    3    0  502 -0.43140429472E+02  0.10677382474E+02  0.55684043437E+02  0.71367277130E+02  0.41800000000E+01 0. -1.
        -11    1    4    4    0    0  0.96853013161E+02  0.45028315036E+02 -0.23307578234E+02  0.10932199466E+03  0.00000000000E+00 0.  1.
         11    1    4    4    0    0  0.89214349860E+02  0.45097412662E+02  0.67706935897E+02  0.12073610073E+03  0.00000000000E+00 0. -1.
</event>
<event>
 8    1  0.8619230E-006  0.2269386E+03  0.7561462E-02  0.1128813E+00
          2   -1    0    0  501    0  0.00000000000E+00  0.00000000000E+00  0.25680609768E+03  0.25680609768E+03  0.00000000000E+00 0. -1.
         -2   -1    0    0    0  501 -0.00000000000E+00 -0.00000000000E+00 -0.23293445611E+03  0.23293445611E+03  0.00000000000E+00 0.  1.
         23    2    1    2    0    0 -0.20849671441E+03 -0.24249269612E+02 -0.49240399539E+02  0.24925997175E+03  0.12508800731E+03 0.  0.
         23    2    1    2    0    0  0.20849671441E+03  0.24249269612E+02  0.73112041108E+02  0.24048058204E+03  0.91796692678E+02 0.  0.
          5    1    3    3  502    0 -0.11869545541E+03 -0.75262015429E+02 -0.35205490151E+02  0.14494785627E+03  0.41800000000E+01 0. -1.
         -5    1    3    3    0  502 -0.89801259001E+02  0.51012745817E+02 -0.14034909388E+02  0.10431211548E+03  0.41800000000E+01 0. -1.
        -11    1    4    4    0    0  0.49761333876E+02  0.52354096147E+01 -0.21778560350E+02  0.54570189242E+02  0.00000000000E+00 0.  1.
         11    1    4    4    0    0  0.15873538053E+03  0.19013859997E+02  0.94890601457E+02  0.18591039279E+03  0.00000000000E+00 0. -1.
</event>
<event>
 8    1  0.8619230E-006  0.1118248E+03  0.7561462E-02  0.1257228E+00
         -3   -1    0    0    0  501 -0.00000000000E+00  0.00000000000E+00  0.11746663422E+03  0.11746663422E+03  0.00000000000E+00 0.  1.
          3   -1    0    0  501    0  0.00000000000E+00 -0.00000000000E+00 -0.14194617619E+03  0.14194617619E+03  0.00000000000E+00 0. -1.
         23    2    1    2    0    0 -0.27212208053E+02 -0.50058017295E+02  0.27210462585E+02  0.14011564684E+03  0.12508267607E+03 0.  0.
         23    2    1    2    0    0  0.27212208053E+02  0.50058017295E+02 -0.51690004559E+02  0.11929716357E+03  0.91179204325E+02 0.  0.
          5    1    3    3  502    0 -0.56263582847E+02  0.10215197452E+02  0.42481248795E+02  0.71358740971E+02  0.41800000000E+01 0. -1.
         -5    1    3    3    0  502  0.29051374794E+02 -0.60273214747E+02 -0.15270786210E+02  0.68756905870E+02  0.41800000000E+01 0. -1.
        -11    1    4    4    0    0  0.50202926844E+02  0.56318530141E+02 -0.17208623798E+02  0.77383767251E+02  0.00000000000E+00 0.  1.
         11    1    4    4    0    0 -0.22990718791E+02 -0.62605128461E+01 -0.34481380760E+02  0.41913396316E+02  0.00000000000E+00 0. -1.
</event>
<event>
 8    1  0.8619230E-006  0.1180692E+03  0.7561462E-02  0.1246317E+00
          2   -1    0    0  501    0  0.00000000000E+00  0.00000000000E+00  0.61072547846E+03  0.61072547846E+03  0.00000000000E+00 0.  1.
         -2   -1    0    0    0  501 -0.00000000000E+00 -0.00000000000E+00 -0.33004370586E+02  0.33004370586E+02  0.00000000000E+00 0. -1.
         23    2    1    2    0    0  0.85899555699E+02  0.23209250862E+02  0.27170988334E+03  0.31207420771E+03  0.12508655970E+03 0.  0.
         23    2    1    2    0    0 -0.85899555699E+02 -0.23209250862E+02  0.30601122453E+03  0.33165564134E+03  0.91843300757E+02 0.  0.
          5    1    3    3  502    0  0.10576378058E+03  0.13546442628E+02  0.12813541765E+03  0.16675023552E+03  0.41800000000E+01 0.  1.
         -5    1    3    3    0  502 -0.19864224885E+02  0.96628082331E+01  0.14357446569E+03  0.14532397219E+03  0.41800000000E+01 0.  1.
        -11    1    4    4    0    0 -0.68589990677E+02  0.10176460203E+02  0.27282976419E+03  0.28150351222E+03  0.00000000000E+00 0.  1.
         11    1    4    4    0    0 -0.17309565021E+02 -0.33385711064E+02  0.33181460348E+02  0.50152129120E+02  0.00000000000E+00 0. -1.
</event>
<event>
 8    1  0.8619230E-006  0.1435267E+03  0.7561462E-02  0.1208661E+00
         -4   -1    0    0    0  501 -0.00000000000E+00  0.00000000000E+00  0.11788640345E+03  0.11788640345E+03  0.00000000000E+00 0. -1.
          4   -1    0    0  501    0  0.00000000000E+00 -0.00000000000E+00 -0.20273093827E+03  0.20273093827E+03  0.00000000000E+00 0.  1.
         23    2    1    2    0    0 -0.77810093803E+02  0.77807560668E+02 -0.45852167351E+02  0.17273651200E+03  0.12500821626E+03 0.  0.
         23    2    1    2    0    0  0.77810093803E+02 -0.77807560668E+02 -0.38992367470E+02  0.14788082972E+03  0.90773938348E+02 0.  0.
          5    1    3    3  502    0  0.11062533368E+02 -0.15577182931E+02  0.19950903805E+02  0.27938132279E+02  0.41800000000E+01 0.  1.
         -5    1    3    3    0  502 -0.88872627172E+02  0.93384743599E+02 -0.65803071156E+02  0.14479837973E+03  0.41800000000E+01 0.  1.
        -11    1    4    4    0    0 -0.13473919015E+02 -0.35364841798E+02 -0.27025038094E+02  0.46503453775E+02  0.00000000000E+00 0.  1.
         11    1    4    4    0    0  0.91284012818E+02 -0.42442718870E+02 -0.11967329376E+02  0.10137737595E+03  0.00000000000E+00 0. -1.
</event>
<event>
 8    1  0.8619230E-006  0.1123274E+03  0.7561462E-02  0.1256320E+00
          2   -1    0    0  501    0  0.00000000000E+00  0.00000000000E+00  0.56613257803E+03  0.56613257803E+03  0.00000000000E+00 0. -1.
         -2   -1    0    0    0  501 -0.00000000000E+00 -0.00000000000E+00 -0.28290086485E+02  0.28290086485E+02  0.00000000000E+00 0.  1.
         23    2    1    2    0    0  0.56658151248E+02  0.29815063595E+02  0.28208710999E+03  0.31514882415E+03  0.12508620874E+03 0.  0.
         23    2    1    2    0    0 -0.56658151248E+02 -0.29815063595E+02  0.25575538155E+03  0.27927384037E+03  0.92108515361E+02 0.  0.
          5    1    3    3  502    0 -0.31209369033E+02  0.61352426711E+01  0.20298686638E+02  0.37962810714E+02  0.41800000000E+01 0.  1.
         -5    1    3    3    0  502  0.87867520281E+02  0.23679820924E+02  0.26178842336E+03  0.27718601343E+03  0.41800000000E+01 0.  1.
        -11    1    4    4    0    0 -0.32751024979E+02  0.25309403463E+02  0.49917775273E+02  0.64845815818E+02  0.00000000000E+00 0. -1.
         11    1    4    4    0    0 -0.23907126269E+02 -0.55124467058E+02  0.20583760627E+03  0.21442802455E+03  0.00000000000E+00 0.  1.
</event>
<event>
 7    1  0.8619230E-006  0.2405676E+03  0.7561462E-02  0.1119415E+00
          1   -1    0    0  501    0  0.00000000000E+00  0.00000000000E+00  0.43293509645E+03  0.43293509645E+03  0.00000000000E+00 0. -1.
         -1   -1    0    0    0  501 -0.00000000000E+00 -0.00000000000E+00 -0.16823292562E+03  0.16823292562E+03  0.00000000000E+00 0.  1.
         23    2    1    2    0    0  0.77953171817E+02 -0.40922239166E+02  0.85188788277E+02  0.15235406886E+03  0.90572103855E+02 0.  0.
          5    1    1    2  502    0 -0.21122470160E+03  0.90438456701E+02  0.20057432741E+03  0.30502872362E+03  0.41800000000E+01 0. -1.
         -5    1    1    2    0  502  0.13327152978E+03 -0.49516217535E+02 -0.21060944856E+02  0.14378522959E+03  0.41800000000E+01 0.  1.
        -11    1    3    3    0    0  0.29668224236E+02  0.16594442621E+02  0.66931470242E+02  0.75069306404E+02  0.00000000000E+00 0.  1.
         11    1    3    3    0    0  0.48284947581E+02 -0.57516681787E+02  0.18257318036E+02  0.77284762461E+02  0.00000000000E+00 0. -1.
</event>
<event>
 8    1  0.8619230E-006  0.1200348E+03  0.7561462E-02  0.1243040E+00
          1   -1    0    0  501    0  0.00000000000E+00  0.00000000000E+00  0.22928130702E+02  0.22928130702E+02  0.00000000000E+00 0. -1.
         -1   -1    0    0    0  501 -0.00000000000E+00 -0.00000000000E+00 -0.75247888595E+03  0.75247888595E+03  0.00000000000E+00 0.  1.
         23    2    1    2    0    0 -0.16412397775E+02  0.67683703159E+02 -0.52562443916E+03  0.54204938473E+03  0.11263229541E+03 0.  0.
         23    2    1    2    0    0  0.16412397775E+02 -0.67683703159E+02 -0.20392631609E+03  0.23335763192E+03  0.89551055320E+02 0.  0.
          5    1    3    3  502    0 -0.61238667148E+02  0.24755898773E+02 -0.20411710360E+03  0.21457934025E+03  0.41800000000E+01 0. -1.
         -5    1    3    3    0  502  0.44826269373E+02  0.42927804387E+02 -0.32150733556E+03  0.32747004448E+03  0.41800000000E+01 0.  1.
        -11    1    4    4    0    0  0.56971703940E+01  0.21301199869E+02 -0.25691777602E+02  0.33856554797E+02  0.00000000000E+00 0. -1.
         11    1    4    4    0    0  0.10715227381E+02 -0.88984903029E+02 -0.17823453848E+03  0.19950107712E+03  0.00000000000E+00 0.  1.
</event>
<event>
 8    1  0.8619230E-006  0.1143824E+03  0.7561462E-02  0.1252663E+00
         -2   -1    0    0    0  501 -0.00000000000E+00  0.00000000000E+00  0.89028293450E+02  0.89028293450E+02  0.00000000000E+00 0.  1.
          2   -1    0    0  501    0  0.00000000000E+00 -0.00000000000E+00 -0.22524895678E+03  0.22524895678E+03  0.00000000000E+00 0. -1.
         23    2    1    2    0    0 -0.63408602235E+02  0.62080295716E+02 -0.86233614017E+02  0.17595225685E+03  0.12509335135E+03 0.  0.
         23    2    1    2    0    0  0.63408602235E+02 -0.62080295716E+02 -0.49987049315E+02  0.13832499338E+03  0.93597461190E+02 0.  0.
          5    1    3    3  502    0 -0.41607208642E+02  0.96784401347E+01 -0.10706611208E+03  0.11534928162E+03  0.41800000000E+01 0. -1.
         -5    1    3    3    0  502 -0.21801393592E+02  0.52401855581E+02  0.20832498065E+02  0.60602975229E+02  0.41800000000E+01 0. -1.
        -11    1    4    4    0    0  0.84178447010E+01  0.24756515311E+02 -0.86902055498E+01  0.27554760609E+02  0.00000000000E+00 0.  1.
         11    1    4    4    0    0  0.54990757534E+02 -0.86836811027E+02 -0.41296843765E+02  0.11077023277E+03  0.00000000000E+00 0. -1.
</event>
<event>
 8    1  0.8619230E-006  0.1186934E+03  0.7561462E-02  0.1245268E+00
          1   -1    0    0  501    0  0.00000000000E+00  0.00000000000E+00  0.52212425147E+03  0.52212425147E+03  0.00000000000E+00 0. -1.
         -1   -1    0    0    0  501 -0.00000000000E+00 -0.00000000000E+00 -0.54520614683E+02  0.54520614683E+02  0.00000000000E+00 0.  1.
         23    2    1    2    0    0  0.90657366106E+02  0.82089036493E+01  0.10694456714E+03  0.18807207310E+03  0.12509124714E+03 0.  0.
         23    2    1    2    0    0 -0.90657366106E+02 -0.82089036493E+01  0.36065906964E+03  0.38857279305E+03  0.11237306997E+03 0.  0.
          5    1    3    3  502    0  0.71790190543E+02 -0.34014443227E+02  0.94830710162E+01  0.80113761878E+02  0.41800000000E+01 0. -1.
         -5    1    3    3    0  502  0.18867175563E+02  0.42223346877E+02  0.97461496128E+02  0.10795831123E+03  0.41800000000E+01 0. -1.
        -11    1    4    4    0    0 -0.73979127608E+02 -0.33415700206E+02  0.34521505032E+03  0.35463072527E+03  0.00000000000E+00 0. -1.
         11    1    4    4    0    0 -0.16678238498E+02  0.25206796557E+02  0.15444019325E+02  0.33942067777E+02  0.00000000000E+00 0.  1.
</event>
<event>
 8    1  0.8619230E-006  0.8012376E+02  0.7561462E-02  0.1328701E+00
         -1   -1    0    0    0  501 -0.00000000000E+00  0.00000000000E+00  0.43949268306E+03  0.43949268306E+03  0.00000000000E+00 0.  1.
          1   -1    0    0  501    0  0.00000000000E+00 -0.00000000000E+00 -0.29072178629E+02  0.29072178629E+02  0.00000000000E+00 0. -1.
         23    2    1    2    0    0 -0.11601550813E+02  0.42483230452E+01  0.28508007609E+03  0.31156222444E+03  0.12509086972E+03 0.  0.
         23    2    1    2    0    0  0.11601550813E+02 -0.42483230452E+01  0.12534042834E+03  0.15700263725E+03  0.93738790771E+02 0.  0.
          5    1    3    3  502    0  0.32745186262E+02  0.41389677922E+02  0.21066844729E+03  0.21721882917E+03  0.41800000000E+01 0.  1.
         -5    1    3    3    0  502 -0.44346737075E+02 -0.37141354877E+02  0.74411628797E+02  0.94343395273E+02  0.41800000000E+01 0.  1.
        -11    1    4    4    0    0  0.17850138961E+02 -0.23246972322E+02  0.13254332160E+03  0.13574528089E+03  0.00000000000E+00 0.  1.
         11    1    4    4    0    0 -0.62485881480E+01  0.18998649277E+02 -0.72028932533E+01  0.21257356360E+02  0.00000000000E+00 0. -1.
</event>
<event>
 8    1  0.8619230E-006  0.1195966E+03  0.7561462E-02  0.1243764E+00
          1   -1    0    0  501    0  0.00000000000E+00  0.00000000000E+00  0.40570124187E+02  0.40570124187E+02  0.00000000000E+00 0. -1.
         -1   -1    0    0    0  501 -0.00000000000E+00 -0.00000000000E+00 -0.50629304148E+03  0.50629304148E+03  0.00000000000E+00 0.  1.
         23    2    1    2    0    0  0.74239193138E+02  0.57425839886E+02 -0.26476297200E+03  0.30749803955E+03  0.12508568305E+03 0.  0.
         23    2    1    2    0    0 -0.74239193138E+02 -0.57425839886E+02 -0.20095994529E+03  0.23936512611E+03  0.90008772363E+02 0.  0.
          5    1    3    3  502    0 -0.94444581535E+01 -0.27145106084E+01 -0.16045440182E+03  0.16080937106E+03  0.41800000000E+01 0. -1.
         -5    1    3    3    0  502  0.83683651291E+02  0.60140350495E+02 -0.10430857018E+03  0.14668866849E+03  0.41800000000E+01 0. -1.
        -11    1    4    4    0    0 -0.83707406847E+02 -0.70358286316E+02 -0.19212390554E+03  0.22106291750E+03  0.00000000000E+00 0.  1.
         11    1    4    4    0    0  0.94682137097E+01  0.12932446430E+02 -0.88360397536E+01  0.18302208611E+02  0.00000000000E+00 0. -1.
</event>
<event>
 8    1  0.8619230E-006  0.1004165E+03  0.7561462E-02  0.1279423E+00
         -3   -1    0    0    0  501 -0.00000000000E+00  0.00000000000E+00  0.13816024274E+03  0.13816024274E+03  0.00000000000E+00 0. -1.
          3   -1    0    0  501    0  0.00000000000E+00 -0.00000000000E+00 -0.14526960143E+03  0.14526960143E+03  0.00000000000E+00 0.  1.
         23    2    1    2    0    0  0.56249773810E+02  0.54217999558E+02  0.43608240069E+02  0.15379923411E+03  0.12509555261E+03 0.  0.
         23    2    1    2    0    0 -0.56249773810E+02 -0.54217999558E+02 -0.50717598762E+02  0.12963061006E+03  0.90156484575E+02 0.  0.
          5    1    3    3  502    0  0.18747260005E+02  0.34303815537E+02 -0.42379620762E+02  0.57807578864E+02  0.41800000000E+01 0.  1.
         -5    1    3    3    0  502  0.37502513805E+02  0.19914184021E+02  0.85987860831E+02  0.95991655248E+02  0.41800000000E+01 0.  1.
        -11    1    4    4    0    0 -0.68472522651E+02 -0.70639956728E+02 -0.46100505370E+02  0.10864504793E+03  0.00000000000E+00 0.  1.
         11    1    4    4    0    0  0.12222748840E+02  0.16421957170E+02 -0.46170933929E+01  0.20985562130E+02  0.00000000000E+00 0. -1.
</event>
<event>
 8    1  0.8619230E-006  0.1046673E+03  0.7561462E-02  0.1270776E+00
          1   -1    0    0  501    0  0.00000000000E+00  0.00000000000E+00  0.20679995382E+03  0.20679995382E+03  0.00000000000E+00 0. -1.
         -1   -1    0    0    0  501 -0.00000000000E+00 -0.00000000000E+00 -0.58844388854E+02  0.58844388854E+02  0.00000000000E+00 0.  1.
         23    2    1    2    0    0 -0.20568239429E+01 -0.84948806436E+01  0.63578264720E+02  0.14059248553E+03  0.12509059805E+03 0.  0.
         23    2    1    2    0    0  0.20568239429E+01  0.84948806436E+01  0.84377300241E+02  0.12505185714E+03  0.91880599997E+02 0.  0.
          5    1    3    3  502    0  0.57406787491E+02  0.19652664058E+01  0.74894227217E+01  0.58077236287E+02  0.41800000000E+01 0. -1.
         -5    1    3    3    0  502 -0.59463611434E+02 -0.10460147049E+02  0.56088841999E+02  0.82515249244E+02  0.41800000000E+01 0. -1.
        -11    1    4    4    0    0 -0.44115076153E+02 -0.80322284715E+00  0.31337250845E+02  0.54118466362E+02  0.00000000000E+00 0. -1.
         11    1    4    4    0    0  0.46171900096E+02  0.92981034908E+01  0.53040049396E+02  0.70933390775E+02  0.00000000000E+00 0.  1.
</event>
<event>
 8    1  0.8619230E-006  0.9604212E+02  0.7561462E-02  0.1288846E+00
         -1   -1    0    0    0  501 -0.00000000000E+00  0.00000000000E+00  0.77051112159E+02  0.77051112159E+02  0.00000000000E+00 0.  1.
          1   -1    0    0  501    0  0.00000000000E+00 -0.00000000000E+00 -0.17833528568E+03  0.17833528568E+03  0.00000000000E+00 0. -1.
         23    2    1    2    0    0  0.31493900234E+02 -0.14194437461E+01 -0.21635303409E+02  0.13080267139E+03  0.12508945565E+03 0.  0.
         23    2    1    2    0    0 -0.31493900234E+02  0.14194437461E+01 -0.79648870115E+02  0.12458372646E+03  0.90461493545E+02 0.  0.
          5    1    3    3  502    0 -0.20274339457E+02 -0.50563119032E+02 -0.23018327838E+02  0.59287381989E+02  0.41800000000E+01 0. -1.
         -5    1    3    3    0  502  0.51768239691E+02  0.49143675286E+02  0.13830244285E+01  0.71515289399E+02  0.41800000000E+01 0. -1.
        -11    1    4    4    0    0 -0.42506034381E+02 -0.15932969992E+02 -0.90570955951E+02  0.10131002198E+03  0.00000000000E+00 0. -1.
         11    1    4    4    0    0  0.11012134147E+02  0.17352413738E+02  0.10922085836E+02  0.23273704476E+02  0.00000000000E+00 0.  1.
</event>
<event>
 8    1  0.8619230E-006  0.8656774E+02  0.7561462E-02  0.1311383E+00
          2   -1    0    0  501    0  0.00000000000E+00  0.00000000000E+00  0.18214455640E+03  0.18214455640E+03  0.00000000000E+00 0. -1.
         -2   -1    0    0    0  501 -0.00000000000E+00 -0.00000000000E+00 -0.13558102900E+03  0.13558102900E+03  0.00000000000E+00 0.  1.
         23    2    1    2    0    0  0.17184132400E+02 -0.12470376240E+02 -0.87200714067E+02  0.15394415988E+03  0.12507611737E+03 0.  0.
         23    2    1    2    0    0 -0.17184132400E+02  0.12470376240E+02  0.13376424147E+03  0.16378142552E+03  0.92090598656E+02 0.  0.
          5    1    3    3  502    0 -0.13653450529E+02 -0.41114689612E+02  0.12799900510E+02  0.45366774916E+02  0.41800000000E+01 0.  1.
         -5    1    3    3    0  502  0.30837582929E+02  0.28644313373E+02 -0.10000061458E+03  0.10857738496E+03  0.41800000000E+01 0.  1.
        -11    1    4    4    0    0  0.15843000704E+02  0.40822335825E+02  0.98383914176E+02  0.10768871037E+03  0.00000000000E+00 0. -1.
         11    1    4    4    0    0 -0.33027133104E+02 -0.28351959586E+02  0.35380327290E+02  0.56092715147E+02  0.00000000000E+00 0.  1.
</event>
<event>
 8    1  0.8619230E-006  0.1328518E+03  0.7561462E-02  0.1223285E+00
         -1   -1    0    0    0  501 -0.00000000000E+00  0.00000000000E+00  0.13679080624E+03  0.13679080624E+03  0.00000000000E+00 0.  1.
          1   -1    0    0  501    0  0.00000000000E+00 -0.00000000000E+00 -0.19870041450E+03  0.19870041450E+03  0.00000000000E+00 0. -1.
         23    2    1    2    0    0  0.11694692091E+03  0.14042465957E+01  0.84518794195E+01  0.17145482869E+03  0.12508704887E+03 0.  0.
         23    2    1    2    0    0 -0.11694692091E+03 -0.14042465957E+01 -0.70361487681E+02  0.16403639205E+03  0.90987058134E+02 0.  0.
          5    1    3    3  502    0  0.11517915176E+02  0.14907745917E+02 -0.47495989742E+02  0.51266409079E+02  0.41800000000E+01 0. -1.
         -5    1    3    3    0  502  0.10542900574E+03 -0.13503499321E+02  0.55947869161E+02  0.12018841961E+03  0.41800000000E+01 0. -1.
        -11    1    4    4    0    0 -0.79510483038E+02  0.35850665069E+02 -0.68985835490E+02  0.11120356378E+03  0.00000000000E+00 0. -1.
         11    1    4    4    0    0 -0.37436437875E+02 -0.37254911665E+02 -0.13756521909E+01  0.52832828269E+02  0.00000000000E+00 0.  1.
</event>
<event>
 8    1  0.8619230E-006  0.9687377E+02  0.7561462E-02  0.1287011E+00
         -1   -1    0    0    0  501 -0.00000000000E+00  0.00000000000E+00  0.98633980205E+02  0.98633980205E+02  0.00000000000E+00 0.  1.
          1   -1    0    0  501    0  0.00000000000E+00 -0.00000000000E+00 -0.17490097879E+03  0.17490097879E+03  0.00000000000E+00 0. -1.
         23    2    1    2    0    0 -0.25714608702E+02  0.63348952840E+02 -0.11269060854E+02  0.14299941544E+03  0.12509000823E+03 0.  0.
         23    2    1    2    0    0  0.25714608702E+02 -0.63348952840E+02 -0.64997937731E+02  0.13053554355E+03  0.90224527120E+02 0.  0.
          5    1    3    3  502    0 -0.40523028356E+02  0.47820636529E+02 -0.61688547914E+02  0.88044752535E+02  0.41800000000E+01 0. -1.
         -5    1    3    3    0  502  0.14808419654E+02  0.15528316311E+02  0.50419487060E+02  0.54954662910E+02  0.41800000000E+01 0. -1.
        -11    1    4    4    0    0  0.26453259602E+02 -0.84171670131E+02 -0.65185885052E+02  0.10969888152E+03  0.00000000000E+00 0. -1.
         11    1    4    4    0    0 -0.73865089974E+00  0.20822717290E+02  0.18794732107E+00  0.20836662033E+02  0.00000000000E+00 0.  1.
</event>
<event>
 8    1  0.8619230E-006  0.1215848E+03  0.7561462E-02  0.1240505E+00
         -3   -1    0    0    0  501 -0.00000000000E+00  0.00000000000E+00  0.27081357847E+03  0.27081357847E+03  0.00000000000E+00 0.  1.
          3   -1    0    0  501    0  0.00000000000E+00 -0.00000000000E+00 -0.70989587106E+02  0.70989587106E+02  0.00000000000E+00 0. -1.
         23    2    1    2    0    0 -0.11951335513E+02  0.60124256944E+02  0.18361708210E+03  0.23048835817E+03  0.12510751264E+03 0.  0.
         23    2    1    2    0    0  0.11951335513E+02 -0.60124256944E+02  0.16206909264E+02  0.11131480741E+03  0.91490774106E+02 0.  0.
          5    1    3    3  502    0 -0.31844758490E+02 -0.28263470087E+02  0.30554824369E+02  0.52573587255E+02  0.41800000000E+01 0.  1.
         -5    1    3    3    0  502  0.19893422976E+02  0.88387727031E+02  0.15306225773E+03  0.17791477091E+03  0.41800000000E+01 0.  1.
        -11    1    4    4    0    0  0.34288548616E+02  0.10306059986E+02  0.99607796165E+01  0.37163645800E+02  0.00000000000E+00 0.  1.
         11    1    4    4    0    0 -0.22337213102E+02 -0.70430316930E+02  0.62461296471E+01  0.74151161607E+02  0.00000000000E+00 0. -1.
</event>
<event>
 8    1  0.8619230E-006  0.1092233E+03  0.7561462E-02  0.1262015E+00
         -1   -1    0    0    0  501 -0.00000000000E+00  0.00000000000E+00  0.34025605587E+03  0.34025605587E+03  0.00000000000E+00 0.  1.
          1   -1    0    0  501    0  0.00000000000E+00 -0.00000000000E+00 -0.70576775536E+02  0.70576775536E+02  0.00000000000E+00 0. -1.
         23    2    1    2    0    0 -0.22588795857E+02 -0.99079660067E+01  0.28449720621E+03  0.31176012417E+03  0.12508914099E+03 0.  0.
         23    2    1    2    0    0  0.22588795857E+02  0.99079660067E+01 -0.14817925871E+02  0.99072707238E+02  0.94801945674E+02 0.  0.
          5    1    3    3  502    0  0.38291185862E+01  0.53989367026E+02  0.87851810035E+02  0.10327113260E+03  0.41800000000E+01 0.  1.
         -5    1    3    3    0  502 -0.26417914444E+02 -0.63897333033E+02  0.19664539617E+03  0.20848899157E+03  0.41800000000E+01 0.  1.
        -11    1    4    4    0    0  0.18403099090E+02 -0.40407940329E+02  0.53123323918E+01  0.44717967007E+02  0.00000000000E+00 0. -1.
         11    1    4    4    0    0  0.41856967675E+01  0.50315906336E+02 -0.20130258263E+02  0.54354740231E+02  0.00000000000E+00 0.  1.
</event>
<event>
 8    1  0.8619230E-006  0.1119029E+03  0.7561462E-02  0.1257086E+00
          1   -1    0    0  501    0  0.00000000000E+00  0.00000000000E+00  0.93337170541E+02  0.93337170541E+02  0.00000000000E+00 0. -1.
         -1   -1    0    0    0  501 -0.00000000000E+00 -0.00000000000E+00 -0.18370856149E+03  0.18370856149E+03  0.00000000000E+00 0.  1.
         23    2    1    2    0    0  0.20361839076E+02  0.68944023578E+02 -0.65753585207E+02  0.15855398297E+03  0.12509176100E+03 0.  0.
         23    2    1    2    0    0 -0.20361839076E+02 -0.68944023578E+02 -0.24617805746E+02  0.11849174906E+03  0.90919609318E+02 0.  0.
          5    1    3    3  502    0 -0.21695020908E+02  0.91936227245E+02 -0.32160105391E+02  0.99873362770E+02  0.41800000000E+01 0. -1.
         -5    1    3    3    0  502  0.42056859984E+02 -0.22992203667E+02 -0.33593479816E+02  0.58680620202E+02  0.41800000000E+01 0. -1.
        -11    1    4    4    0    0 -0.10552472366E+01 -0.59741811863E+02  0.24762265570E+02  0.64678956605E+02  0.00000000000E+00 0. -1.
         11    1    4    4    0    0 -0.19306591840E+02 -0.92022117154E+01 -0.49380071316E+02  0.53812792458E+02  0.00000000000E+00 0.  1.
</event>
<event>
 8    1  0.8619230E-006  0.1186331E+03  0.7561462E-02  0.1245369E+00
          1   -1    0    0  501    0  0.00000000000E+00  0.00000000000E+00  0.46823672277E+02  0.46823672277E+02  0.00000000000E+00 0. -1.
         -1   -1    0    0    0  501 -0.00000000000E+00 -0.00000000000E+00 -0.33982288515E+03  0.33982288515E+03  0.00000000000E+00 0.  1.
         23    2    1    2    0    0  0.43367477384E+02 -0.29216144343E+02 -0.22395454093E+03  0.25959085421E+03  0.12040537363E+03 0.  0.
         23    2    1    2    0    0 -0.43367477384E+02  0.29216144343E+02 -0.69044671939E+02  0.12705570322E+03  0.92960549764E+02 0.  0.
          5    1    3    3  502    0 -0.42036230250E+02 -0.83957309036E+01 -0.80362223637E+02  0.91176161023E+02  0.41800000000E+01 0. -1.
         -5    1    3    3    0  502  0.85403707634E+02 -0.20820413440E+02 -0.14359231730E+03  0.16841469318E+03  0.41800000000E+01 0.  1.
        -11    1    4    4    0    0  0.29355243501E+02  0.75543939315E+01 -0.25202124959E+02  0.39420125458E+02  0.00000000000E+00 0.  1.
         11    1    4    4    0    0 -0.72722720885E+02  0.21661750412E+02 -0.43842546980E+02  0.87635577761E+02  0.00000000000E+00 0. -1.
</event>
<event>
 8    1  0.8619230E-006  0.3221174E+03  0.7561462E-02  0.1074679E+00
         -4   -1    0    0    0  501 -0.00000000000E+00  0.00000000000E+00  0.12812923690E+04  0.12812923690E+04  0.00000000000E+00 0. -1.
          4   -1    0    0  501    0  0.00000000000E+00 -0.00000000000E+00 -0.10033994171E+03  0.10033994171E+03  0.00000000000E+00 0.  1.
         23    2    1    2    0    0 -0.67060833251E+02 -0.30961189844E+03  0.84658408738E+03  0.91253399064E+03  0.12512787082E+03 0.  0.
         23    2    1    2    0    0  0.67060833251E+02  0.30961189844E+03  0.33436833990E+03  0.46909832007E+03  0.88850234377E+02 0.  0.
          5    1    3    3  502    0 -0.16550835131E+02 -0.14080379328E+03  0.54566594178E+03  0.56379821812E+03  0.41800000000E+01 0.  1.
         -5    1    3    3    0  502 -0.50509998120E+02 -0.16880810516E+03  0.30091814560E+03  0.34873577252E+03  0.41800000000E+01 0.  1.
        -11    1    4    4    0    0 -0.16316920099E+01  0.17512935781E+03  0.14852008900E+03  0.22963268762E+03  0.00000000000E+00 0. -1.
         11    1    4    4    0    0  0.68692525261E+02  0.13448254063E+03  0.18584825090E+03  0.23946563245E+03  0.00000000000E+00 0.  1.
</event>
<event>
 8    1  0.8619230E-006  0.1057130E+03  0.7561462E-02  0.1268721E+00
          3   -1    0    0  501    0  0.00000000000E+00  0.00000000000E+00  0.17411792095E+02  0.17411792095E+02  0.00000000000E+00 0. -1.
         -3   -1    0    0    0  501 -0.00000000000E+00 -0.00000000000E+00 -0.70625778942E+03  0.70625778942E+03  0.00000000000E+00 0.  1.
         23    2    1    2    0    0 -0.14604662930E+02  0.14011927644E+02 -0.43417917194E+03  0.45229268353E+03  0.12508991941E+03 0.  0.
         23    2    1    2    0    0  0.14604662930E+02 -0.14011927644E+02 -0.25466682538E+03  0.27137689798E+03  0.91545608906E+02 0.  0.
          5    1    3    3  502    0 -0.30643362544E+02  0.61180510143E+02 -0.32584836331E+03  0.33298152916E+03  0.41800000000E+01 0.  1.
         -5    1    3    3    0  502  0.16038699614E+02 -0.47168582499E+02 -0.10833080863E+03  0.11931115438E+03  0.41800000000E+01 0.  1.
        -11    1    4    4    0    0 -0.17879752965E+02 -0.44728381652E+02 -0.11346409442E+03  0.12326562543E+03  0.00000000000E+00 0.  1.
         11    1    4    4    0    0  0.32484415895E+02  0.30716454008E+02 -0.14120273097E+03  0.14811127255E+03  0.00000000000E+00 0. -1.
</event>
<event>
 8    1  0.8619230E-006  0.1541550E+03  0.7561462E-02  0.1195458E+00
         -1   -1    0    0    0  501 -0.00000000000E+00  0.00000000000E+00  0.35376168052E+02  0.35376168052E+02  0.00000000000E+00 0.  1.
          1   -1    0    0  501    0  0.00000000000E+00 -0.00000000000E+00 -0.80530062068E+03  0.80530062068E+03  0.00000000000E+00 0. -1.
         23    2    1    2    0    0  0.59491952717E+02 -0.11461780356E+03 -0.41246158737E+03  0.44994454982E+03  0.12509597725E+03 0.  0.
         23    2    1    2    0    0 -0.59491952717E+02  0.11461780356E+03 -0.35746286526E+03  0.39073223892E+03  0.90639114944E+02 0.  0.
          5    1    3    3  502    0 -0.38188584640E+02 -0.34221762043E+02 -0.14946114839E+03  0.15806835316E+03  0.41800000000E+01 0.  1.
         -5    1    3    3    0  502  0.97680537357E+02 -0.80396041512E+02 -0.26300043898E+03  0.29187619665E+03  0.41800000000E+01 0.  1.
        -11    1    4    4    0    0 -0.34066685355E+02  0.47050291166E+02 -0.55787098360E+02  0.80538619888E+02  0.00000000000E+00 0.  1.
         11    1    4    4    0    0 -0.25425267362E+02  0.67567512389E+02 -0.30167576690E+03  0.31019361903E+03  0.00000000000E+00 0. -1.
</event>
<event>
 8    1  0.8619230E-006  0.1047348E+03  0.7561462E-02  0.1270643E+00
         -2   -1    0    0    0  501 -0.00000000000E+00  0.00000000000E+00  0.23927289121E+02  0.23927289121E+02  0.00000000000E+00 0.  1.
          2   -1    0    0  501    0  0.00000000000E+00 -0.00000000000E+00 -0.63643779311E+03  0.63643779311E+03  0.00000000000E+00 0. -1.
         23    2    1    2    0    0  0.55130796120E+02  0.12063445757E+02 -0.31042057570E+03  0.33940148703E+03  0.12508998431E+03 0.  0.
         23    2    1    2    0    0 -0.55130796120E+02 -0.12063445757E+02 -0.30208992829E+03  0.32096359521E+03  0.92597911793E+02 0.  0.
          5    1    3    3  502    0  0.62608486289E+02 -0.24680815889E+02 -0.74497084754E+02  0.10048011378E+03  0.41800000000E+01 0.  1.
         -5    1    3    3    0  502 -0.74776901689E+01  0.36744261646E+02 -0.23592349094E+03  0.23892137325E+03  0.41800000000E+01 0.  1.
        -11    1    4    4    0    0 -0.25421501133E+02  0.38223503204E+02 -0.17785738941E+03  0.18368598173E+03  0.00000000000E+00 0.  1.
         11    1    4    4    0    0 -0.29709294986E+02 -0.50286948962E+02 -0.12423253889E+03  0.13727761348E+03  0.00000000000E+00 0. -1.
</event>
<event>
 8    1  0.8619230E-006  0.7062550E+02  0.7561462E-02  0.1357979E+00
          2   -1    0    0  501    0  0.00000000000E+00  0.00000000000E+00  0.10325424242E+03  0.10325424242E+03  0.00000000000E+00 0. -1.
         -2   -1    0    0    0  501 -0.00000000000E+00 -0.00000000000E+00 -0.12528246609E+03  0.12528246609E+03  0.00000000000E+00 0.  1.
         23    2    1    2    0    0  0.94655449509E+01 -0.24700411152E+02 -0.51005637368E+02  0.12921006733E+03  0.11573227555E+03 0.  0.
         23    2    1    2    0    0 -0.94655449509E+01  0.24700411152E+02  0.28977413704E+02  0.99326641180E+02  0.91249023506E+02 0.  0.
          5    1    3    3  502    0 -0.96493969815E+01  0.10056302934E+02  0.33083012162E+02  0.36141363900E+02  0.41800000000E+01 0. -1.
         -5    1    3    3    0  502  0.19114941932E+02 -0.34756714086E+02 -0.84088649530E+02  0.93068703434E+02  0.41800000000E+01 0.  1.
        -11    1    4    4    0    0 -0.40087593331E+02 -0.92019891214E+01 -0.62959842966E+01  0.41609267731E+02  0.00000000000E+00 0.  1.
         11    1    4    4    0    0  0.30622048380E+02  0.33902400274E+02  0.35273398000E+02  0.57717373448E+02  0.00000000000E+00 0. -1.
</event>
<event>
 8    1  0.8619230E-006  0.1426889E+03  0.7561462E-02  0.1209756E+00
         -2   -1    0    0    0  501 -0.00000000000E+00  0.00000000000E+00  0.79611802482E+02  0.79611802482E+02  0.00000000000E+00 0.  1.
          2   -1    0    0  501    0  0.00000000000E+00 -0.00000000000E+00 -0.33478679147E+03  0.33478679147E+03  0.00000000000E+00 0. -1.
         23    2    1    2    0    0 -0.61477138882E+02  0.10524325386E+03 -0.14038222559E+03  0.22407818160E+03  0.12509308982E+03 0.  0.
         23    2    1    2    0    0  0.61477138882E+02 -0.10524325386E+03 -0.11479276339E+03  0.19032041234E+03  0.90492539688E+02 0.  0.
          5    1    3    3  502    0 -0.57413401363E+02 -0.52063565910E+00 -0.89868147814E+02  0.10672547076E+03  0.41800000000E+01 0.  1.
         -5    1    3    3    0  502 -0.40637375194E+01  0.10576388952E+03 -0.50514077776E+02  0.11735271084E+03  0.41800000000E+01 0.  1.
        -11    1    4    4    0    0  0.31532294304E+02 -0.54716411383E+02 -0.20372630011E+01  0.63184821748E+02  0.00000000000E+00 0.  1.
         11    1    4    4    0    0  0.29944844579E+02 -0.50526842475E+02 -0.11275550039E+03  0.12713559060E+03  0.00000000000E+00 0. -1.
</event>
<event>
 8    1  0.8619230E-006  0.1882870E+03  0.7561462E-02  0.1160015E+00
          1   -1    0    0  501    0  0.00000000000E+00  0.00000000000E+00  0.12139290106E+04  0.12139290106E+04  0.00000000000E+00 0. -1.
         -1   -1    0    0    0  501 -0.00000000000E+00 -0.00000000000E+00 -0.32280841714E+02  0.32280841714E+02  0.00000000000E+00 0.  1.
         23    2    1    2    0    0 -0.13753163737E+03  0.93777386026E+02  0.61645723583E+03  0.65067387436E+03  0.12509123777E+03 0.  0.
         23    2    1    2    0    0  0.13753163737E+03 -0.93777386026E+02  0.56519093308E+03  0.59553597797E+03  0.86678491070E+02 0.  0.
          5    1    3    3  502    0 -0.82896707614E+02  0.33737714927E+00  0.40122724611E+03  0.40972277625E+03  0.41800000000E+01 0. -1.
         -5    1    3    3    0  502 -0.54634929759E+02  0.93440008877E+02  0.21522998972E+03  0.24095109812E+03  0.41800000000E+01 0. -1.
        -11    1    4    4    0    0  0.17635528251E+02 -0.57262949725E+02  0.23009694468E+03  0.23777018572E+03  0.00000000000E+00 0.  1.
         11    1    4    4    0    0  0.11989610912E+03 -0.36514436301E+02  0.33509398840E+03  0.35776579225E+03  0.00000000000E+00 0. -1.
</event>
<event>
 7    1  0.8619230E-006  0.8948811E+02  0.7561462E-02  0.1304096E+00
         -2   -1    0    0    0  501 -0.00000000000E+00  0.00000000000E+00  0.64571812700E+02  0.64571812700E+02  0.00000000000E+00 0.  1.
          2   -1    0    0  501    0  0.00000000000E+00 -0.00000000000E+00 -0.28474854806E+03  0.28474854806E+03  0.00000000000E+00 0. -1.
         23    2    1    2    0    0 -0.38298485174E+02 -0.42004729536E+02 -0.14965531400E+03  0.19101354846E+03  0.10420312574E+03 0.  0.
          5    1    1    2  502    0  0.25458748472E+02  0.78268930658E+02 -0.54408288385E+01  0.82590849363E+02  0.41800000000E+01 0. -1.
         -5    1    1    2    0  502  0.12839736702E+02 -0.36264201122E+02 -0.65080592513E+02  0.75715962936E+02  0.41800000000E+01 0.  1.
        -11    1    3    3    0    0 -0.95696249694E+01 -0.18183823649E+02  0.12878307262E+02  0.24250360049E+02  0.00000000000E+00 0.  1.
         11    1    3    3    0    0 -0.28728860204E+02 -0.23820905887E+02 -0.16253362127E+03  0.16676318841E+03  0.00000000000E+00 0. -1.
</event>
<event>
 8    1  0.8619230E-006  0.8706178E+02  0.7561462E-02  0.1310127E+00
         -2   -1    0    0    0  501 -0.00000000000E+00  0.00000000000E+00  0.32262711009E+03  0.32262711009E+03  0.00000000000E+00 0.  1.
          2   -1    0    0  501    0  0.00000000000E+00 -0.00000000000E+00 -0.50420182877E+02  0.50420182877E+02  0.00000000000E+00 0. -1.
         23    2    1    2    0    0  0.14392059919E+02  0.60626198278E+02  0.18408093145E+03  0.23111871255E+03  0.12508957855E+03 0.  0.
         23    2    1    2    0    0 -0.14392059919E+02 -0.60626198278E+02  0.88125995766E+02  0.14192858041E+03  0.92167583795E+02 0.  0.
          5    1    3    3  502    0 -0.36653875702E+02  0.16368462769E+02  0.62501678131E+01  0.40840790579E+02  0.41800000000E+01 0. -1.
         -5    1    3    3    0  502  0.51045935621E+02  0.44257735509E+02  0.17783076363E+03  0.19027792197E+03  0.41800000000E+01 0. -1.
        -11    1    4    4    0    0 -0.18871477925E+02 -0.32404735721E+02 -0.10747261216E+02  0.39009014341E+02  0.00000000000E+00 0. -1.
         11    1    4    4    0    0  0.44794180061E+01 -0.28221462556E+02  0.98873256982E+02  0.10291956607E+03  0.00000000000E+00 0.  1.
</event>
<event>
 8    1  0.2235914E-005  0.2225942E+03  0.7561462E-02  0.1131964E+00
         -1   -1    0    0    0  501 -0.00000000000E+00  0.00000000000E+00  0.19611223135E+03  0.19611223135E+03  0.00000000000E+00 0.  1.
          1   -1    0    0  501    0  0.00000000000E+00 -0.00000000000E+00 -0.31038311111E+03  0.31038311111E+03  0.00000000000E+00 0. -1.
         23    2    1    2    0    0 -0.49204006442E+02  0.20508644905E+03  0.10185071090E+02  0.24542298876E+03  0.12508885604E+03 0.  0.
         23    2    1    2    0    0  0.49204006442E+02 -0.20508644905E+03 -0.12445595085E+03  0.26107235370E+03  0.90487592123E+02 0.  0.
          5    1    3    3  502    0 -0.61511544426E+02  0.16052187718E+03  0.55362113965E+02  0.18064711239E+03  0.41800000000E+01 0.  1.
         -5    1    3    3    0  502  0.12307537984E+02  0.44564571868E+02 -0.45177042875E+02  0.64775876373E+02  0.41800000000E+01 0.  1.
        -11    1    4    4    0    0 -0.19395516915E+02 -0.96068690241E+02 -0.73708242987E+02  0.12263068297E+03  0.00000000000E+00 0.  1.
         11    1    4    4    0    0  0.68599523357E+02 -0.10901775881E+03 -0.50747707867E+02  0.13844167073E+03  0.00000000000E+00 0. -1.
</event>
<event>
 8    1  0.8619230E-006  0.1332044E+03  0.7561462E-02  0.1222777E+00
         -2   -1    0    0    0  501 -0.00000000000E+00  0.00000000000E+00  0.59917696899E+02  0.59917696899E+02  0.00000000000E+00 0.  1.
          2   -1    0    0  501    0  0.00000000000E+00 -0.00000000000E+00 -0.31471955429E+03  0.31471955429E+03  0.00000000000E+00 0. -1.
         23    2    1    2    0    0  0.72727622774E+02  0.39474657312E+02 -0.10914838382E+03  0.18606242941E+03  0.12592975130E+03 0.  0.
         23    2    1    2    0    0 -0.72727622774E+02 -0.39474657312E+02 -0.14565347358E+03  0.18857482179E+03  0.86590838787E+02 0.  0.
          5    1    3    3  502    0  0.85900057872E+02  0.72621247033E+02 -0.68257541285E+02  0.13164053253E+03  0.41800000000E+01 0. -1.
         -5    1    3    3    0  502 -0.13172435098E+02 -0.33146589721E+02 -0.40890842530E+02  0.54421896874E+02  0.41800000000E+01 0.  1.
        -11    1    4    4    0    0 -0.46450299827E+02  0.21764211306E+02 -0.47322214550E+02  0.69790423682E+02  0.00000000000E+00 0.  1.
         11    1    4    4    0    0 -0.26277322947E+02 -0.61238868617E+02 -0.98331259030E+02  0.11878439811E+03  0.00000000000E+00 0. -1.
</event>
<event>
 8    1  0.8619230E-006  0.1809989E+03  0.7561462E-02  0.1166840E+00
          2   -1    0    0  501    0  0.00000000000E+00  0.00000000000E+00  0.11295155491E+04  0.11295155491E+04  0.00000000000E+00 0. -1.
         -2   -1    0    0    0  501 -0.00000000000E+00 -0.00000000000E+00 -0.42705234325E+02  0.42705234325E+02  0.00000000000E+00 0.  1.
         23    2    1    2    0    0  0.10996025659E+03  0.11486861358E+03  0.28782598383E+03  0.35181749054E+03  0.12508274568E+03 0.  0.
         23    2    1    2    0    0 -0.10996025659E+03 -0.11486861358E+03  0.79898433095E+03  0.82040329289E+03  0.96951253041E+02 0.  0.
          5    1    3    3  502    0  0.65905745770E+02  0.10462745860E+02  0.36690428906E+02  0.76267269190E+02  0.41800000000E+01 0.  1.
         -5    1    3    3    0  502  0.44054510822E+02  0.10440586772E+03  0.25113555493E+03  0.27555022135E+03  0.41800000000E+01 0.  1.
        -11    1    4    4    0    0 -0.37224927717E+02 -0.10106896081E+03  0.38181015543E+03  0.39671100927E+03  0.00000000000E+00 0. -1.
         11    1    4    4    0    0 -0.72735328874E+02 -0.13799652774E+02  0.41717417552E+03  0.42369228363E+03  0.00000000000E+00 0.  1.
</event>
<event>
 8    1  0.8619230E-006  0.1078916E+03  0.7561462E-02  0.1264525E+00
         -4   -1    0    0    0  501 -0.00000000000E+00  0.00000000000E+00  0.77974968550E+02  0.77974968550E+02  0.00000000000E+00 0. -1.
          4   -1    0    0  501    0  0.00000000000E+00 -0.00000000000E+00 -0.17690714686E+03  0.17690714686E+03  0.00000000000E+00 0.  1.
         23    2    1    2    0    0 -0.42419370855E+02 -0.32037287535E+01 -0.46413943931E+02  0.14003862435E+03  0.12508755020E+03 0.  0.
         23    2    1    2    0    0  0.42419370855E+02  0.32037287535E+01 -0.52518234375E+02  0.11484349106E+03  0.92850393618E+02 0.  0.
          5    1    3    3  502    0 -0.72120878798E+02 -0.39960820495E+02 -0.41329855228E+02  0.92325065212E+02  0.41800000000E+01 0. -1.
         -5    1    3    3    0  502  0.29701507943E+02  0.36757091741E+02 -0.50840887032E+01  0.47713559135E+02  0.41800000000E+01 0. -1.
        -11    1    4    4    0    0  0.20534293289E+02  0.38857165031E+02  0.44396867880E+01  0.44172924896E+02  0.00000000000E+00 0. -1.
         11    1    4    4    0    0  0.21885077567E+02 -0.35653436278E+02 -0.56957921163E+02  0.70670566162E+02  0.00000000000E+00 0.  1.
</event>
<event>
 8    1  0.8619230E-006  0.1531995E+03  0.7561462E-02  0.1196596E+00
         -2   -1    0    0    0  501 -0.00000000000E+00  0.00000000000E+00  0.19229540702E+02  0.19229540702E+02  0.00000000000E+00 0.  1.
          2   -1    0    0  501    0  0.00000000000E+00 -0.00000000000E+00 -0.16143350796E+04  0.16143350796E+04  0.00000000000E+00 0. -1.
         23    2    1    2    0    0 -0.10029468169E+03  0.94968337269E+02 -0.83534498266E+03  0.85587821847E+03  0.12509307145E+03 0.  0.
         23    2    1    2    0    0  0.10029468169E+03 -0.94968337269E+02 -0.75976055628E+03  0.77768640188E+03  0.92097929040E+02 0.  0.
          5    1    3    3  502    0 -0.36225425008E+02  0.62101533961E+02 -0.14626120586E+03  0.16302973556E+03  0.41800000000E+01 0. -1.
         -5    1    3    3    0  502 -0.64069256679E+02  0.32866803308E+02 -0.68908377680E+03  0.69284848290E+03  0.41800000000E+01 0. -1.
        -11    1    4    4    0    0 -0.58879400383E+01 -0.44142996661E+02 -0.14235764719E+03  0.14916089201E+03  0.00000000000E+00 0.  1.
         11    1    4    4    0    0  0.10618262173E+03 -0.50825340608E+02 -0.61740290909E+03  0.62852550987E+03  0.00000000000E+00 0. -1.
</event>
<event>
 8    1  0.8619230E-006  0.1326390E+03  0.7561462E-02  0.1223592E+00
         -2   -1    0    0    0  501 -0.00000000000E+00  0.00000000000E+00  0.57749019949E+02  0.57749019949E+02  0.00000000000E+00 0.  1.
          2   -1    0    0  501    0  0.00000000000E+00 -0.00000000000E+00 -0.39662026703E+03  0.39662026703E+03  0.00000000000E+00 0. -1.
         23    2    1    2    0    0  0.50808643754E+02 -0.87293217715E+02 -0.12505669576E+03  0.20368681931E+03  0.12509004385E+03 0.  0.
         23    2    1    2    0    0 -0.50808643754E+02  0.87293217715E+02 -0.21381455133E+03  0.25068246767E+03  0.83207049570E+02 0.  0.
          5    1    3    3  502    0  0.53447309059E+02  0.11632155922E+02 -0.17758063630E+02  0.57660585506E+02  0.41800000000E+01 0.  1.
         -5    1    3    3    0  502 -0.26386653046E+01 -0.98925373637E+02 -0.10729863213E+03  0.14602623381E+03  0.41800000000E+01 0.  1.
        -11    1    4    4    0    0 -0.59849459148E+02  0.78933067504E+02 -0.21649459422E+03  0.23808044067E+03  0.00000000000E+00 0. -1.
         11    1    4    4    0    0  0.90408153937E+01  0.83601502111E+01  0.26800428890E+01  0.12602026997E+02  0.00000000000E+00 0.  1.
</event>
<event>
 8    1  0.8619230E-006  0.1157269E+03  0.7561462E-02  0.1250317E+00
         -1   -1    0    0    0  501 -0.00000000000E+00  0.00000000000E+00  0.13079964366E+03  0.13079964366E+03  0.00000000000E+00 0.  1.
          1   -1    0    0  501    0  0.00000000000E+00 -0.00000000000E+00 -0.23164126484E+03  0.23164126484E+03  0.00000000000E+00 0. -1.
         23    2    1    2    0    0 -0.73619182174E+02 -0.80894975428E+02  0.23533730290E+02  0.16783445630E+03  0.12510310638E+03 0.  0.
         23    2    1    2    0    0  0.73619182174E+02  0.80894975428E+02 -0.12437535148E+03  0.19460645220E+03  0.10216977121E+03 0.  0.
          5    1    3    3  502    0 -0.29060775037E+02 -0.47827599273E+02 -0.50311762934E+02  0.75370775421E+02  0.41800000000E+01 0.  1.
         -5    1    3    3    0  502 -0.44558407138E+02 -0.33067376154E+02  0.73845493224E+02  0.92463680880E+02  0.41800000000E+01 0.  1.
        -11    1    4    4    0    0  0.36628795727E+02  0.73277055627E+02 -0.21032281200E+02  0.84578675860E+02  0.00000000000E+00 0.  1.
         11    1    4    4    0    0  0.36990386448E+02  0.76179198010E+01 -0.10334307028E+03  0.11002777634E+03  0.00000000000E+00 0. -1.
</event>
<event>
 8    1  0.8619230E-006  0.9976594E+02  0.7561462E-02  0.1280789E+00
         -2   -1    0    0    0  501 -0.00000000000E+00  0.00000000000E+00  0.13391857848E+03  0.13391857848E+03  0.00000000000E+00 0.  1.
          2   -1    0    0  501    0  0.00000000000E+00 -0.00000000000E+00 -0.12807386317E+03  0.12807386317E+03  0.00000000000E+00 0. -1.
         23    2    1    2    0    0 -0.38322877038E+02 -0.35121817515E+02  0.67200761823E+02  0.14023550992E+03  0.11157002681E+03 0.  0.
         23    2    1    2    0    0  0.38322877038E+02  0.35121817515E+02 -0.61356046516E+02  0.12175693173E+03  0.91422103517E+02 0.  0.
          5    1    3    3  502    0 -0.55762507667E+02 -0.52862716129E+02  0.98455238022E+01  0.77577901214E+02  0.41800000000E+01 0. -1.
         -5    1    3    3    0  502  0.17439630629E+02  0.17740898614E+02  0.57355238021E+02  0.62657608705E+02  0.41800000000E+01 0.  1.
        -11    1    4    4    0    0  0.26738990779E+02 -0.24712514202E+02 -0.46442447974E+02  0.59013413389E+02  0.00000000000E+00 0. -1.
         11    1    4    4    0    0  0.11583886259E+02  0.59834331717E+02 -0.14913598542E+02  0.62743518346E+02  0.00000000000E+00 0.  1.
</event>
<event>
 8    1  0.8619230E-006  0.9307447E+02  0.7561462E-02  0.1295573E+00
         -1   -1    0    0    0  501 -0.00000000000E+00  0.00000000000E+00  0.25915964115E+02  0.25915964115E+02  0.00000000000E+00 0.  1.
          1   -1    0    0  501    0  0.00000000000E+00 -0.00000000000E+00 -0.43070901813E+03  0.43070901813E+03  0.00000000000E+00 0. -1.
         23    2    1    2    0    0  0.50085336351E+01  0.82141820331E+01 -0.22392278038E+03  0.25667371432E+03  0.12508967125E+03 0.  0.
         23    2    1    2    0    0 -0.50085336351E+01 -0.82141820331E+01 -0.18087027363E+03  0.19995126792E+03  0.84698851613E+02 0.  0.
          5    1    3    3  502    0 -0.54594030159E+02 -0.62863364970E+01 -0.15399550446E+03  0.16356073474E+03  0.41800000000E+01 0.  1.
         -5    1    3    3    0  502  0.59602563794E+02  0.14500518530E+02 -0.69927275925E+02  0.93112979582E+02  0.41800000000E+01 0.  1.
        -11    1    4    4    0    0  0.13777805891E+02 -0.34553762007E+02 -0.15233897403E+03  0.15681502930E+03  0.00000000000E+00 0. -1.
         11    1    4    4    0    0 -0.18786339526E+02  0.26339579974E+02 -0.28531299600E+02  0.43136238627E+02  0.00000000000E+00 0.  1.
</event>
<event>
 8    1  0.8619230E-006  0.9234484E+02  0.7561462E-02  0.1297271E+00
         -1   -1    0    0    0  501 -0.00000000000E+00  0.00000000000E+00  0.39008509646E+03  0.39008509646E+03  0.00000000000E+00 0.  1.
          1   -1    0    0  501    0  0.00000000000E+00 -0.00000000000E+00 -0.46799140068E+02  0.46799140068E+02  0.00000000000E+00 0. -1.
         23    2    1    2    0    0 -0.36417837240E+00 -0.29905846671E+02  0.30946638290E+03  0.33512566539E+03  0.12508108237E+03 0.  0.
         23    2    1    2    0    0  0.36417837240E+00  0.29905846671E+02  0.33819573490E+02  0.10175857113E+03  0.91195125733E+02 0.  0.
          5    1    3    3  502    0 -0.16373289262E+02  0.28164050066E+02  0.24346883101E+03  0.24567426074E+03  0.41800000000E+01 0. -1.
         -5    1    3    3    0  502  0.16009110889E+02 -0.58069896737E+02  0.65997551891E+02  0.89451404651E+02  0.41800000000E+01 0. -1.
        -11    1    4    4    0    0 -0.42294302273E+02  0.64536755326E+01  0.53484747310E+00  0.42787194281E+02  0.00000000000E+00 0. -1.
         11    1    4    4    0    0  0.42658480645E+02  0.23452171138E+02  0.33284726017E+02  0.58971376854E+02  0.00000000000E+00 0.  1.
</event>
<event>
 8    1  0.8619230E-006  0.9583183E+02  0.7561462E-02  0.1289314E+00
         -2   -1    0    0    0  501 -0.00000000000E+00  0.00000000000E+00  0.12700311118E+03  0.12700311118E+03  0.00000000000E+00 0.  1.
          2   -1    0    0  501    0  0.00000000000E+00 -0.00000000000E+00 -0.14043590939E+03  0.14043590939E+03  0.00000000000E+00 0. -1.
         23    2    1    2    0    0 -0.55760717111E+02 -0.53242247613E+02  0.41817930995E+00  0.14693579074E+03  0.12508380080E+03 0.  0.
         23    2    1    2    0    0  0.55760717111E+02  0.53242247613E+02 -0.13850977514E+02  0.12050322984E+03  0.91570652065E+02 0.  0.
          5    1    3    3  502    0 -0.22812648813E+02 -0.33125521569E+02  0.62066990160E+02  0.74077667300E+02  0.41800000000E+01 0.  1.
         -5    1    3    3    0  502 -0.32948068298E+02 -0.20116726043E+02 -0.61648810850E+02  0.72858123435E+02  0.41800000000E+01 0.  1.
        -11    1    4    4    0    0  0.58231612377E+02 -0.86007556636E+00  0.13570529776E+02  0.59798157901E+02  0.00000000000E+00 0.  1.
         11    1    4    4    0    0 -0.24708952655E+01  0.54102323179E+02 -0.27421507290E+02  0.60705071937E+02  0.00000000000E+00 0. -1.
</event>
<event>
 8    1  0.8619230E-006  0.2276109E+03  0.7561462E-02  0.1128333E+00
         -3   -1    0    0    0  501 -0.00000000000E+00  0.00000000000E+00  0.28393037060E+03  0.28393037060E+03  0.00000000000E+00 0.  1.
          3   -1    0    0  501    0  0.00000000000E+00 -0.00000000000E+00 -0.20948385030E+03  0.20948385030E+03  0.00000000000E+00 0. -1.
         23    2    1    2    0    0  0.17431170813E+03 -0.98065012105E+02  0.12287495334E+03  0.26598310489E+03  0.12508972676E+03 0.  0.
         23    2    1    2    0    0 -0.17431170813E+03  0.98065012105E+02 -0.48428433050E+02  0.22743111601E+03  0.96841526276E+02 0.  0.
          5    1    3    3  502    0  0.18767048619E+03 -0.62883387167E+02  0.10543846405E+03  0.22429728904E+03  0.41800000000E+01 0.  1.
         -5    1    3    3    0  502 -0.13358778063E+02 -0.35181624938E+02  0.17436489294E+02  0.41685815855E+02  0.41800000000E+01 0.  1.
        -11    1    4    4    0    0 -0.17835044505E+03  0.70902661462E+02 -0.54066738425E+02  0.19939729401E+03  0.00000000000E+00 0.  1.
         11    1    4    4    0    0  0.40387369277E+01  0.27162350643E+02  0.56383053752E+01  0.28033822000E+02  0.00000000000E+00 0. -1.
</event>
<event>
 8    1  0.8619230E-006  0.6868267E+02  0.7561462E-02  0.1364631E+00
         -2   -1    0    0    0  501 -0.00000000000E+00  0.00000000000E+00  0.80650210292E+02  0.80650210292E+02  0.00000000000E+00 0. -1.
          2   -1    0    0  501    0  0.00000000000E+00 -0.00000000000E+00 -0.16583132967E+03  0.16583132967E+03  0.00000000000E+00 0.  1.
         23    2    1    2    0    0  0.16695694375E+02  0.21499608039E+02 -0.16367608534E+02  0.12905873278E+03  0.12508908242E+03 0.  0.
         23    2    1    2    0    0 -0.16695694375E+02 -0.21499608039E+02 -0.68813510842E+02  0.11742280718E+03  0.91169276706E+02 0.  0.
          5    1    3    3  502    0  0.17800607602E+02 -0.22055669059E+01 -0.68870404498E+02  0.71290470416E+02  0.41800000000E+01 0. -1.
         -5    1    3    3    0  502 -0.11049132273E+01  0.23705174945E+02  0.52502795964E+02  0.57768262363E+02  0.41800000000E+01 0. -1.
        -11    1    4    4    0    0 -0.45498413782E+02 -0.40031555094E+02 -0.39471442531E+02  0.72323065721E+02  0.00000000000E+00 0.  1.
         11    1    4    4    0    0  0.28802719407E+02  0.18531947055E+02 -0.29342068311E+02  0.45099741459E+02  0.00000000000E+00 0. -1.
</event>
<event>
 8    1  0.8619230E-006  0.1815785E+03  0.7561462E-02  0.1166284E+00
          2   -1    0    0  501    0  0.00000000000E+00  0.00000000000E+00  0.12542856191E+03  0.12542856191E+03  0.00000000000E+00 0.  1.
         -2   -1    0    0    0  501 -0.00000000000E+00 -0.00000000000E+00 -0.30354207865E+03  0.30354207865E+03  0.00000000000E+00 0. -1.
         23    2    1    2    0    0  0.10483110873E+03 -0.10518779281E+03 -0.16508094074E+03  0.25486029218E+03  0.12509203979E+03 0.  0.
         23    2    1    2    0    0 -0.10483110873E+03  0.10518779281E+03 -0.13032575997E+02  0.17411034839E+03  0.89947386101E+02 0.  0.
          5    1    3    3  502    0  0.56604966846E+02 -0.12557422311E+03 -0.14072992676E+03  0.19696546008E+03  0.41800000000E+01 0. -1.
         -5    1    3    3    0  502  0.48226141880E+02  0.20386430300E+02 -0.24351013982E+02  0.57894832092E+02  0.41800000000E+01 0. -1.
        -11    1    4    4    0    0 -0.11897894270E+03  0.78265578564E+02 -0.17061174228E+02  0.14343142354E+03  0.00000000000E+00 0.  1.
         11    1    4    4    0    0  0.14147833974E+02  0.26922214243E+02  0.40285982305E+01  0.30678924844E+02  0.00000000000E+00 0. -1.
</event>
<event>
 6    1  0.8619230E-006  0.1558680E+03  0.7561462E-02  0.1193442E+00
         -3   -1    0    0    0  501 -0.00000000000E+00  0.00000000000E+00  0.19927891214E+03  0.19927891214E+03  0.00000000000E+00 0.  1.
          3   -1    0    0  501    0  0.00000000000E+00 -0.00000000000E+00 -0.20515536446E+03  0.20515536446E+03  0.00000000000E+00 0. -1.
          5    1    1    2  502    0  0.15602009407E+02 -0.62017711901E+02 -0.54918869902E+02  0.84398897850E+02  0.41800000000E+01 0. -1.
         -5    1    1    2    0  502  0.60826196280E+02 -0.39471221166E+02  0.79755222925E+02  0.10787108713E+03  0.41800000000E+01 0.  1.
        -11    1    1    2    0    0  0.26436915989E+02 -0.50604477813E+01  0.39868458177E+02  0.48104185017E+02  0.00000000000E+00 0.  1.
         11    1    1    2    0    0 -0.10286512168E+03  0.10654938085E+03 -0.70581263520E+02  0.16406010660E+03  0.00000000000E+00 0. -1.
</event>
<event>
 8    1  0.8619230E-006  0.8776969E+02  0.7561462E-02  0.1308344E+00
         -2   -1    0    0    0  501 -0.00000000000E+00  0.00000000000E+00  0.83545625744E+02  0.83545625744E+02  0.00000000000E+00 0.  1.
          2   -1    0    0  501    0  0.00000000000E+00 -0.00000000000E+00 -0.21158356225E+03  0.21158356225E+03  0.00000000000E+00 0. -1.
         23    2    1    2    0    0 -0.58033331867E+02  0.40250645226E+02 -0.38754272841E+02  0.14878331403E+03  0.12508636545E+03 0.  0.
         23    2    1    2    0    0  0.58033331867E+02 -0.40250645226E+02 -0.89283663662E+02  0.14634587396E+03  0.91964994322E+02 0.  0.
          5    1    3    3  502    0 -0.34560074138E+02 -0.55469496926E-01  0.42538144256E+02  0.54966971155E+02  0.41800000000E+01 0.  1.
         -5    1    3    3    0  502 -0.23473257729E+02  0.40306114723E+02 -0.81292417097E+02  0.93816342872E+02  0.41800000000E+01 0.  1.
        -11    1    4    4    0    0  0.70211155066E+02 -0.41656564543E+02 -0.10067186437E+03  0.12961365646E+03  0.00000000000E+00 0. -1.
         11    1    4    4    0    0 -0.12177823200E+02  0.14059193170E+01  0.11388200712E+02  0.16732217500E+02  0.00000000000E+00 0.  1.
</event>
<event>
 8    1  0.8619230E-006  0.8843914E+02  0.7561462E-02  0.1306676E+00
          1   -1    0    0  501    0  0.00000000000E+00  0.00000000000E+00  0.28375829664E+03  0.28375829664E+03  0.00000000000E+00 0. -1.
         -1   -1    0    0    0  501 -0.00000000000E+00 -0.00000000000E+00 -0.46149484007E+02  0.46149484007E+02  0.00000000000E+00 0.  1.
         23    2    1    2    0    0 -0.35824595167E+02  0.25457636667E+02  0.13458034797E+03  0.18927841324E+03  0.12563023033E+03 0.  0.
         23    2    1    2    0    0  0.35824595167E+02 -0.25457636667E+02  0.10302846466E+03  0.14062936741E+03  0.85030944747E+02 0.  0.
          5    1    3    3  502    0 -0.61612627111E+02 -0.20446887579E+02  0.11653715090E+03  0.13346374403E+03  0.41800000000E+01 0. -1.
         -5    1    3    3    0  502  0.25788031944E+02  0.45904524246E+02  0.18043197075E+02  0.55814669205E+02  0.41800000000E+01 0. -1.
        -11    1    4    4    0    0  0.17372903894E+02  0.92645503957E+01 -0.91852530279E+01  0.21725988054E+02  0.00000000000E+00 0.  1.
         11    1    4    4    0    0  0.18451691273E+02 -0.34722187063E+02  0.11221371768E+03  0.11890337935E+03  0.00000000000E+00 0. -1.
</event>
<event>
 8    1  0.8619230E-006  0.1206698E+03  0.7561462E-02  0.1241996E+00
         -1   -1    0    0    0  501 -0.00000000000E+00  0.00000000000E+00  0.80038475651E+02  0.80038475651E+02  0.00000000000E+00 0.  1.
          1   -1    0    0  501    0  0.00000000000E+00 -0.00000000000E+00 -0.35729073370E+03  0.35729073370E+03  0.00000000000E+00 0. -1.
         23    2    1    2    0    0  0.10255174412E+03  0.31283316336E+02 -0.58189852465E+02  0.17619016626E+03  0.12712753302E+03 0.  0.
         23    2    1    2    0    0 -0.10255174412E+03 -0.31283316336E+02 -0.21906240559E+03  0.26113904310E+03  0.93326074523E+02 0.  0.
          5    1    3    3  502    0  0.49888428884E+02  0.38187683768E+01 -0.94100620191E+02  0.10665757099E+03  0.41800000000E+01 0. -1.
         -5    1    3    3    0  502  0.52663315236E+02  0.27464547959E+02  0.35910767726E+02  0.69532595269E+02  0.41800000000E+01 0.  1.
        -11    1    4    4    0    0 -0.11105005659E+03 -0.13484471192E+02 -0.21285726439E+03  0.24046239006E+03  0.00000000000E+00 0. -1.
         11    1    4    4    0    0  0.84983124750E+01 -0.17798845144E+02 -0.62051411995E+01  0.20676653034E+02  0.00000000000E+00 0.  1.
</event>
<event>
 8    1  0.8619230E-006  0.1052099E+03  0.7561462E-02  0.1269707E+00
          2   -1    0    0  501    0  0.00000000000E+00  0.00000000000E+00  0.23912564225E+03  0.23912564225E+03  0.00000000000E+00 0. -1.
         -2   -1    0    0    0  501 -0.00000000000E+00 -0.00000000000E+00 -0.51535227955E+02  0.51535227955E+02  0.00000000000E+00 0.  1.
         23    2    1    2    0    0  0.25976076698E+01  0.63234288016E+01  0.79505588478E+02  0.14837669452E+03  0.12509105308E+03 0.  0.
         23    2    1    2    0    0 -0.25976076698E+01 -0.63234288016E+01  0.10808482582E+03  0.14228417568E+03  0.92280679238E+02 0.  0.
          5    1    3    3  502    0 -0.43356393260E+02  0.41571821091E+02  0.64843061064E+02  0.88487785109E+02  0.41800000000E+01 0. -1.
         -5    1    3    3    0  502  0.45954000930E+02 -0.35248392289E+02  0.14662527414E+02  0.59888909412E+02  0.41800000000E+01 0. -1.
        -11    1    4    4    0    0  0.36693401976E+02 -0.29005984264E+02  0.48320247420E+02  0.67250272732E+02  0.00000000000E+00 0.  1.
         11    1    4    4    0    0 -0.39291009646E+02  0.22682555462E+02  0.59764578396E+02  0.75033902951E+02  0.00000000000E+00 0. -1.
</event>
<event>
 8    1  0.8619230E-006  0.9718621E+02  0.7561462E-02  0.1286327E+00
         -2   -1    0    0    0  501 -0.00000000000E+00  0.00000000000E+00  0.40274473402E+03  0.40274473402E+03  0.00000000000E+00 0.  1.
          2   -1    0    0  501    0  0.00000000000E+00 -0.00000000000E+00 -0.38685877760E+02  0.38685877760E+02  0.00000000000E+00 0. -1.
         23    2    1    2    0    0  0.91790271629E+01 -0.57422634124E+02  0.24187386623E+03  0.27844468348E+03  0.12508741400E+03 0.  0.
         23    2    1    2    0    0 -0.91790271629E+01  0.57422634124E+02  0.12218499002E+03  0.16298592830E+03  0.90849477640E+02 0.  0.
          5    1    3    3  502    0 -0.44924571082E+02 -0.57744664591E+01  0.16479808467E+03  0.17096035406E+03  0.41800000000E+01 0. -1.
         -5    1    3    3    0  502  0.54103598245E+02 -0.51648167665E+02  0.77075781561E+02  0.10748432941E+03  0.41800000000E+01 0. -1.
        -11    1    4    4    0    0  0.18703098963E+02  0.24656370390E+02  0.11534175666E+03  0.11942136886E+03  0.00000000000E+00 0.  1.
         11    1    4    4    0    0 -0.27882126126E+02  0.32766263734E+02  0.68432333673E+01  0.43564559441E+02  0.00000000000E+00 0. -1.
</event>
<event>
 8    1  0.8619230E-006  0.2995563E+03  0.7561462E-02  0.1085463E+00
         -2   -1    0    0    0  501 -0.00000000000E+00  0.00000000000E+00  0.16573221166E+03  0.16573221166E+03  0.00000000000E+00 0.  1.
          2   -1    0    0  501    0  0.00000000000E+00 -0.00000000000E+00 -0.77295260710E+03  0.77295260710E+03  0.00000000000E+00 0. -1.
         23    2    1    2    0    0 -0.22338990795E+03 -0.19186727773E+03 -0.83036766269E+02  0.33054343382E+03  0.12509098229E+03 0.  0.
         23    2    1    2    0    0  0.22338990795E+03  0.19186727773E+03 -0.52418362917E+03  0.60814138494E+03  0.91385796252E+02 0.  0.
          5    1    3    3  502    0 -0.44733273009E+02 -0.36735571676E+01 -0.52549768647E+02  0.69235188461E+02  0.41800000000E+01 0.  1.
         -5    1    3    3    0  502 -0.17865663494E+03 -0.18819372056E+03 -0.30486997622E+02  0.26130824536E+03  0.41800000000E+01 0.  1.
        -11    1    4    4    0    0  0.95663058540E+02  0.79211291911E+02 -0.13565390665E+03  0.18392344039E+03  0.00000000000E+00 0.  1.
         11    1    4    4    0    0  0.12772684941E+03  0.11265598582E+03 -0.38852972252E+03  0.42421794456E+03  0.00000000000E+00 0. -1.
</event>
<event>
 8    1  0.8619230E-006  0.2376533E+03  0.7561462E-02  0.1121366E+00
         -2   -1    0    0    0  501 -0.00000000000E+00  0.00000000000E+00  0.80052127540E+02  0.80052127540E+02  0.00000000000E+00 0.  1.
          2   -1    0    0  501    0  0.00000000000E+00 -0.00000000000E+00 -0.79097390336E+03  0.79097390336E+03  0.00000000000E+00 0. -1.
         23    2    1    2    0    0  0.16945871362E+03 -0.14916510830E+03 -0.33067884757E+03  0.41947575886E+03  0.12507968215E+03 0.  0.
         23    2    1    2    0    0 -0.16945871362E+03  0.14916510830E+03 -0.38024292825E+03  0.45155027204E+03  0.91359063789E+02 0.  0.
          5    1    3    3  502    0  0.17723888416E+03 -0.14724124191E+03 -0.25680335430E+03  0.34504933061E+03  0.41800000000E+01 0. -1.
         -5    1    3    3    0  502 -0.77801705433E+01 -0.19238663934E+01 -0.73875493274E+02  0.74426428250E+02  0.41800000000E+01 0. -1.
        -11    1    4    4    0    0 -0.81138166915E+02  0.27922887609E+02 -0.87153427544E+02  0.12230621291E+03  0.00000000000E+00 0.  1.
         11    1    4    4    0    0 -0.88320546704E+02  0.12124222070E+03 -0.29308950071E+03  0.32924405913E+03  0.00000000000E+00 0. -1.
</event>
<event>
 8    1  0.8619230E-006  0.8704501E+02  0.7561462E-02  0.1310170E+00
          4   -1    0    0  501    0  0.00000000000E+00  0.00000000000E+00  0.19278964358E+03  0.19278964358E+03  0.00000000000E+00 0.  1.
         -4   -1    0    0    0  501 -0.00000000000E+00 -0.00000000000E+00 -0.11862500394E+03  0.11862500394E+03  0.00000000000E+00 0. -1.
         23    2    1    2    0    0 -0.87318476745E+01 -0.51500615634E+02 -0.52625218298E+02  0.14541624569E+03  0.12509161576E+03 0.  0.
         23    2    1    2    0    0  0.87318476745E+01  0.51500615634E+02  0.12678985794E+03  0.16599840182E+03  0.93548077250E+02 0.  0.
          5    1    3    3  502    0 -0.25570080307E+02 -0.60983587046E+01  0.35741925232E+02  0.44564297426E+02  0.41800000000E+01 0.  1.
         -5    1    3    3    0  502  0.16838232633E+02 -0.45402256929E+02 -0.88367143530E+02  0.10085194826E+03  0.41800000000E+01 0.  1.
        -11    1    4    4    0    0 -0.12245742309E+00 -0.23423024009E+02  0.62954204868E+02  0.67170566174E+02  0.00000000000E+00 0.  1.
         11    1    4    4    0    0  0.88543050976E+01  0.74923639643E+02  0.63835653070E+02  0.98827835649E+02  0.00000000000E+00 0. -1.
</event>
<event>
 7    1  0.8619230E-006  0.1294650E+03  0.7561462E-02  0.1228252E+00
         -2   -1    0    0    0  501 -0.00000000000E+00  0.00000000000E+00  0.45142626500E+02  0.45142626500E+02  0.00000000000E+00 0.  1.
          2   -1    0    0  501    0  0.00000000000E+00 -0.00000000000E+00 -0.74739810903E+03  0.74739810903E+03  0.00000000000E+00 0. -1.
         23    2    1    2    0    0  0.56455988710E+02  0.13170602619E+01 -0.28746218877E+03  0.30690098859E+03  0.91458698436E+02 0.  0.
          5    1    1    2  502    0 -0.42198177261E+02  0.70398829424E+02 -0.40319825390E+03  0.41148874309E+03  0.41800000000E+01 0. -1.
         -5    1    1    2    0  502 -0.14257811448E+02 -0.71715889686E+02 -0.11595039861E+02  0.74151003837E+02  0.41800000000E+01 0.  1.
        -11    1    3    3    0    0  0.81995761678E+01  0.40515444468E+02 -0.76315391899E+02  0.86791551032E+02  0.00000000000E+00 0. -1.
         11    1    3    3    0    0  0.48256412542E+02 -0.39198384206E+02 -0.21114679687E+03  0.22010943756E+03  0.00000000000E+00 0.  1.
</event>
<event>
 8    1  0.8619230E-006  0.8619763E+02  0.7561462E-02  0.1312330E+00
          2   -1    0    0  501    0  0.00000000000E+00  0.00000000000E+00  0.35151524187E+02  0.35151524187E+02  0.00000000000E+00 0. -1.
         -2   -1    0    0    0  501 -0.00000000000E+00 -0.00000000000E+00 -0.39450610209E+03  0.39450610209E+03  0.00000000000E+00 0.  1.
         23    2    1    2    0    0 -0.31097872226E+02 -0.13528347286E+02 -0.23695483639E+03  0.27008469909E+03  0.12509219143E+03 0.  0.
         23    2    1    2    0    0  0.31097872226E+02  0.13528347286E+02 -0.12239974151E+03  0.15957292719E+03  0.96600872309E+02 0.  0.
          5    1    3    3  502    0 -0.61523338434E+02  0.48861668161E-01 -0.22675627711E+03  0.23499150020E+03  0.41800000000E+01 0.  1.
         -5    1    3    3    0  502  0.30425466208E+02 -0.13577208954E+02 -0.10198559283E+02  0.35093198891E+02  0.41800000000E+01 0.  1.
        -11    1    4    4    0    0  0.37196708899E+02 -0.20574407602E+02 -0.11703597634E+03  0.12451634897E+03  0.00000000000E+00 0.  1.
         11    1    4    4    0    0 -0.60988366721E+01  0.34102754888E+02 -0.53637651698E+01  0.35056578220E+02  0.00000000000E+00 0. -1.
</event>
<event>
 8    1  0.8619230E-006  0.1632272E+03  0.7561462E-02  0.1185101E+00
          1   -1    0    0  501    0  0.00000000000E+00  0.00000000000E+00  0.39091064472E+02  0.39091064472E+02  0.00000000000E+00 0. -1.
         -1   -1    0    0    0  501 -0.00000000000E+00 -0.00000000000E+00 -0.88087148789E+03  0.88087148789E+03  0.00000000000E+00 0.  1.
         23    2    1    2    0    0  0.51986483253E+02 -0.11830410034E+03 -0.63907286930E+03  0.66389761478E+03  0.12508979189E+03 0.  0.
         23    2    1    2    0    0 -0.51986483253E+02  0.11830410034E+03 -0.20270755412E+03  0.25606493759E+03  0.88206831742E+02 0.  0.
          5    1    3    3  502    0  0.69657984024E+02 -0.13071319762E+03 -0.60821250946E+03  0.62600168037E+03  0.41800000000E+01 0. -1.
         -5    1    3    3    0  502 -0.17671500771E+02  0.12409097279E+02 -0.30860359840E+02  0.37895934403E+02  0.41800000000E+01 0. -1.
        -11    1    4    4    0    0 -0.34158663792E+02 -0.24278657881E+01 -0.49499892324E+02  0.60190931081E+02  0.00000000000E+00 0. -1.
         11    1    4    4    0    0 -0.17827819461E+02  0.12073196613E+03 -0.15320766180E+03  0.19587400651E+03  0.00000000000E+00 0.  1.
</event>
<event>
 8    1  0.8619230E-006  0.1054147E+03  0.7561462E-02  0.1269305E+00
          1   -1    0    0  501    0  0.00000000000E+00  0.00000000000E+00  0.72012570686E+02  0.72012570686E+02  0.00000000000E+00 0. -1.
         -1   -1    0    0    0  501 -0.00000000000E+00 -0.00000000000E+00 -0.29961121906E+03  0.29961121906E+03  0.00000000000E+00 0.  1.
         23    2    1    2    0    0  0.53753612184E+02 -0.95699514763E+01 -0.22778117257E+03  0.26554290400E+03  0.12509091292E+03 0.  0.
         23    2    1    2    0    0 -0.53753612184E+02  0.95699514763E+01  0.18252419545E+00  0.10608088574E+03  0.90951009951E+02 0.  0.
          5    1    3    3  502    0 -0.39906740343E+02  0.79882573721E+00 -0.48408973147E+02  0.62881532492E+02  0.41800000000E+01 0.  1.
         -5    1    3    3    0  502  0.93660352527E+02 -0.10368777214E+02 -0.17937219942E+03  0.20266137151E+03  0.41800000000E+01 0.  1.
        -11    1    4    4    0    0 -0.13905073883E+02  0.28907861380E+02 -0.36483754360E+02  0.48580653160E+02  0.00000000000E+00 0.  1.
         11    1    4    4    0    0 -0.39848538301E+02 -0.19337909904E+02  0.36666278555E+02  0.57500232584E+02  0.00000000000E+00 0. -1.
</event>
<event>
 8    1  0.8619230E-006  0.2213492E+03  0.7561462E-02  0.1132881E+00
         -1   -1    0    0    0  501 -0.00000000000E+00  0.00000000000E+00  0.12724702869E+03  0.12724702869E+03  0.00000000000E+00 0.  1.
          1   -1    0    0  501    0  0.00000000000E+00 -0.00000000000E+00 -0.41582662679E+03  0.41582662679E+03  0.00000000000E+00 0. -1.
         23    2    1    2    0    0 -0.64631003865E+02  0.19085171609E+03 -0.11946237639E+03  0.26555554854E+03  0.12508775237E+03 0.  0.
         23    2    1    2    0    0  0.64631003865E+02 -0.19085171609E+03 -0.16911722171E+03  0.27751810694E+03  0.88397515822E+02 0.  0.
          5    1    3    3  502    0  0.31249955722E+02  0.91070093965E+02 -0.67587862268E+02  0.11771114337E+03  0.41800000000E+01 0.  1.
         -5    1    3    3    0  502 -0.95880959587E+02  0.99781622123E+02 -0.51874514119E+02  0.14784440517E+03  0.41800000000E+01 0.  1.
        -11    1    4    4    0    0  0.73124005721E+02 -0.16069240405E+03 -0.10311156734E+03  0.20445333025E+03  0.00000000000E+00 0.  1.
         11    1    4    4    0    0 -0.84930018559E+01 -0.30159312040E+02 -0.66005654367E+02  0.73064776683E+02  0.00000000000E+00 0. -1.
</event>
<event>
 8    1  0.8619230E-006  0.1177682E+03  0.7561462E-02  0.1246825E+00
          4   -1    0    0  501    0  0.00000000000E+00  0.00000000000E+00  0.78512901012E+02  0.78512901012E+02  0.00000000000E+00 0. -1.
         -4   -1    0    0    0  501 -0.00000000000E+00 -0.00000000000E+00 -0.35705826597E+03  0.35705826597E+03  0.00000000000E+00 0.  1.
         23    2    1    2    0    0 -0.10047666224E+02 -0.71401553063E+02 -0.28449611712E+03  0.31903831700E+03  0.12509304412E+03 0.  0.
         23    2    1    2    0    0  0.10047666224E+02  0.71401553063E+02  0.59507521521E+01  0.11653284998E+03  0.91352921670E+02 0.  0.
          5    1    3    3  502    0  0.52528469683E+02 -0.61331173372E+02 -0.16100421087E+03  0.18016820273E+03  0.41800000000E+01 0.  1.
         -5    1    3    3    0  502 -0.62576135907E+02 -0.10070379691E+02 -0.12349190624E+03  0.13887011428E+03  0.41800000000E+01 0.  1.
        -11    1    4    4    0    0 -0.10813091583E+02 -0.50337617708E+01  0.31178934601E+02  0.33382445536E+02  0.00000000000E+00 0. -1.
         11    1    4    4    0    0  0.20860757807E+02  0.76435314834E+02 -0.25228182448E+02  0.83150404447E+02  0.00000000000E+00 0.  1.
</event>
<event>
 8    1  0.8619230E-006  0.1011737E+03  0.7561462E-02  0.1277847E+00
          1   -1    0    0  501    0  0.00000000000E+00  0.00000000000E+00  0.10635681389E+03  0.10635681389E+03  0.00000000000E+00 0. -1.
         -1   -1    0    0    0  501 -0.00000000000E+00 -0.00000000000E+00 -0.29217212069E+03  0.29217212069E+03  0.00000000000E+00 0.  1.
         23    2    1    2    0    0  0.95617803084E+01  0.83163709027E+02 -0.22407279248E+03  0.26328293073E+03  0.11000752311E+03 0.  0.
         23    2    1    2    0    0 -0.95617803084E+01 -0.83163709027E+02  0.38257485676E+02  0.13524600385E+03  0.99097004025E+02 0.  0.
          5    1    3    3  502    0  0.28569376115E+02  0.85272174459E+02 -0.88288278521E+02  0.12609458955E+03  0.41800000000E+01 0. -1.
         -5    1    3    3    0  502 -0.19007595807E+02 -0.21084654325E+01 -0.13578451396E+03  0.13718834118E+03  0.41800000000E+01 0.  1.
        -11    1    4    4    0    0 -0.25268120788E+02 -0.54007781289E+02 -0.24359691529E+02  0.64410503330E+02  0.00000000000E+00 0.  1.
         11    1    4    4    0    0  0.15706340479E+02 -0.29155927738E+02  0.62617177205E+02  0.70835500525E+02  0.00000000000E+00 0. -1.
</event>
<event>
 8    1  0.8619230E-006  0.1013184E+03  0.7561462E-02  0.1277548E+00
          3   -1    0    0  501    0  0.00000000000E+00  0.00000000000E+00  0.11410382151E+03  0.11410382151E+03  0.00000000000E+00 0. -1.
         -3   -1    0    0    0  501 -0.00000000000E+00 -0.00000000000E+00 -0.10675253534E+03  0.10675253534E+03  0.00000000000E+00 0.  1.
         23    2    1    2    0    0 -0.28688361284E+01  0.33306193803E+02 -0.21680028815E+02  0.13128396370E+03  0.12509165724E+03 0.  0.
         23    2    1    2    0    0  0.28688361284E+01 -0.33306193803E+02  0.29031314984E+02  0.89572393149E+02  0.77864392365E+02 0.  0.
          5    1    3    3  502    0 -0.84127302133E+01 -0.43501327821E+02  0.13516450915E+02  0.46511357722E+02  0.41800000000E+01 0. -1.
         -5    1    3    3    0  502  0.55438940848E+01  0.76807521624E+02 -0.35196479730E+02  0.84772605982E+02  0.41800000000E+01 0. -1.
        -11    1    4    4    0    0  0.35328701374E+02 -0.11892245136E+01 -0.20903505773E+00  0.35349329434E+02  0.00000000000E+00 0.  1.
         11    1    4    4    0    0 -0.32459865246E+02 -0.32116969289E+02  0.29240350042E+02  0.54223063715E+02  0.00000000000E+00 0. -1.
</event>
<event>
 8    1  0.8619230E-006  0.1252537E+03  0.7561462E-02  0.1234673E+00
         -1   -1    0    0    0  501 -0.00000000000E+00  0.00000000000E+00  0.11140380604E+03  0.11140380604E+03  0.00000000000E+00 0.  1.
          1   -1    0    0  501    0  0.00000000000E+00 -0.00000000000E+00 -0.33653397039E+03  0.33653397039E+03  0.00000000000E+00 0. -1.
         23    2    1    2    0    0  0.90592907033E+02 -0.84117968013E+02 -0.66484792155E+00  0.17587188602E+03  0.12509025111E+03 0.  0.
         23    2    1    2    0    0 -0.90592907033E+02  0.84117968013E+02 -0.22446531643E+03  0.27206589041E+03  0.91390716696E+02 0.  0.
          5    1    3    3  502    0  0.71222629815E+02 -0.61477084338E+02  0.57529532641E+02  0.11035947817E+03  0.41800000000E+01 0. -1.
         -5    1    3    3    0  502  0.19370277218E+02 -0.22640883675E+02 -0.58194380562E+02  0.65512407849E+02  0.41800000000E+01 0. -1.
        -11    1    4    4    0    0 -0.48752226318E+02  0.27930424158E+02 -0.26599307775E+02  0.62164389635E+02  0.00000000000E+00 0.  1.
         11    1    4    4    0    0 -0.41840680714E+02  0.56187543855E+02 -0.19786600865E+03  0.20990150077E+03  0.00000000000E+00 0. -1.
</event>
<event>
 8    1  0.8619230E-006  0.9745959E+02  0.7561462E-02  0.1285731E+00
          1   -1    0    0  501    0  0.00000000000E+00  0.00000000000E+00  0.67145274701E+03  0.67145274701E+03  0.00000000000E+00 0. -1.
         -1   -1    0    0    0  501 -0.00000000000E+00 -0.00000000000E+00 -0.26222277005E+02  0.26222277005E+02  0.00000000000E+00 0.  1.
         23    2    1    2    0    0  0.53988455848E+00  0.62831629802E+02  0.24398449755E+03  0.28129197043E+03  0.12509449389E+03 0.  0.
         23    2    1    2    0    0 -0.53988455848E+00 -0.62831629802E+02  0.40124597245E+03  0.41638305359E+03  0.91806381729E+02 0.  0.
          5    1    3    3  502    0  0.28534194862E+02  0.27566324946E+02  0.23075332930E+03  0.23417658707E+03  0.41800000000E+01 0. -1.
         -5    1    3    3    0  502 -0.27994310303E+02  0.35265304855E+02  0.13231168253E+02  0.47115383361E+02  0.41800000000E+01 0. -1.
        -11    1    4    4    0    0  0.26478196520E+02  0.12860092773E+02  0.13969571093E+03  0.14276333048E+03  0.00000000000E+00 0. -1.
         11    1    4    4    0    0 -0.27018081078E+02 -0.75691722574E+02  0.26155026152E+03  0.27361972311E+03  0.00000000000E+00 0.  1.
</event>
<event>
 8    1  0.8619230E-006  0.7362717E+02  0.7561462E-02  0.1348176E+00
         -2   -1    0    0    0  501 -0.00000000000E+00  0.00000000000E+00  0.23380704630E+02  0.23380704630E+02  0.00000000000E+00 0.  1.
          2   -1    0    0  501    0  0.00000000000E+00 -0.00000000000E+00 -0.47433323186E+03  0.47433323186E+03  0.00000000000E+00 0. -1.
         23    2    1    2    0    0 -0.82484867600E+01 -0.29069716164E+02 -0.25624172893E+03  0.28674051981E+03  0.12508883294E+03 0.  0.
         23    2    1    2    0    0  0.82484867600E+01  0.29069716164E+02 -0.19471079830E+03  0.21097341668E+03  0.75394970910E+02 0.  0.
          5    1    3    3  502    0 -0.33566794524E+02 -0.17253117229E+02 -0.25567958319E+03  0.25848389004E+03  0.41800000000E+01 0. -1.
         -5    1    3    3    0  502  0.25318307764E+02 -0.11816598935E+02 -0.56214573999E+00  0.28256629775E+02  0.41800000000E+01 0. -1.
        -11    1    4    4    0    0 -0.33499265886E+02  0.88711292008E+01 -0.90540124227E+02  0.96945406509E+02  0.00000000000E+00 0.  1.
         11    1    4    4    0    0  0.41747752646E+02  0.20198586963E+02 -0.10417067407E+03  0.11402801017E+03  0.00000000000E+00 0. -1.
</event>
<event>
 8    1  0.8619230E-006  0.9739214E+02  0.7561462E-02  0.1285877E+00
          1   -1    0    0  501    0  0.00000000000E+00  0.00000000000E+00  0.54499378556E+02  0.54499378556E+02  0.00000000000E+00 0. -1.
         -1   -1    0    0    0  501 -0.00000000000E+00 -0.00000000000E+00 -0.42141097416E+03  0.42141097416E+03  0.00000000000E+00 0.  1.
         23    2    1    2    0    0  0.14522117222E+02 -0.16850435438E+02 -0.35979270088E+03  0.38156781223E+03  0.12509347967E+03 0.  0.
         23    2    1    2    0    0 -0.14522117222E+02  0.16850435438E+02 -0.71188947221E+01  0.94342540490E+02  0.91405728600E+02 0.  0.
          5    1    3    3  502    0  0.63808581176E+02  0.16616138206E+02 -0.21562226188E+03  0.22551732372E+03  0.41800000000E+01 0. -1.
         -5    1    3    3    0  502 -0.49286463954E+02 -0.33466573644E+02 -0.14417043900E+03  0.15605048850E+03  0.41800000000E+01 0. -1.
        -11    1    4    4    0    0  0.20263995837E+02 -0.12217110318E+02  0.28246192209E+02  0.36847451555E+02  0.00000000000E+00 0. -1.
         11    1    4    4    0    0 -0.34786113059E+02  0.29067545756E+02 -0.35365086931E+02  0.57495088935E+02  0.00000000000E+00 0.  1.
</event>
<event>
 8    1  0.8619230E-006  0.1106082E+03  0.7561462E-02  0.1259448E+00
          1   -1    0    0  501    0  0.00000000000E+00  0.00000000000E+00  0.31970341274E+03  0.31970341274E+03  0.00000000000E+00 0. -1.
         -1   -1    0    0    0  501 -0.00000000000E+00 -0.00000000000E+00 -0.57901371803E+03  0.57901371803E+03  0.00000000000E+00 0.  1.
         23    2    1    2    0    0  0.22315880739E+02  0.17809914949E+02 -0.56422769194E+03  0.57845573253E+03  0.12426968470E+03 0.  0.
         23    2    1    2    0    0 -0.22315880739E+02 -0.17809914949E+02  0.30491738666E+03  0.32026139823E+03  0.93688627430E+02 0.  0.
          5    1    3    3  502    0  0.26626172304E+02 -0.49998492671E+02 -0.31593525676E+03  0.32100056260E+03  0.41800000000E+01 0. -1.
         -5    1    3    3    0  502 -0.43102915656E+01  0.67808407620E+02 -0.24829243518E+03  0.25745516993E+03  0.41800000000E+01 0.  1.
        -11    1    4    4    0    0 -0.30223463641E+02 -0.52600067492E+02  0.16284489129E+03  0.17377768405E+03  0.00000000000E+00 0.  1.
         11    1    4    4    0    0  0.79075829022E+01  0.34790152543E+02  0.14207249537E+03  0.14648371418E+03  0.00000000000E+00 0. -1.
</event>
<event>
 8    1  0.8619230E-006  0.9993220E+02  0.7561462E-02  0.1280439E+00
          1   -1    0    0  501    0  0.00000000000E+00  0.00000000000E+00  0.57681748123E+03  0.57681748123E+03  0.00000000000E+00 0. -1.
         -1   -1    0    0    0  501 -0.00000000000E+00 -0.00000000000E+00 -0.44521761275E+02  0.44521761275E+02  0.00000000000E+00 0.  1.
         23    2    1    2    0    0 -0.49487620295E+02 -0.52863623045E+02  0.10783351944E+03  0.18032956374E+03  0.12508835453E+03 0.  0.
         23    2    1    2    0    0  0.49487620295E+02  0.52863623045E+02  0.42446220052E+03  0.44100967876E+03  0.95277436436E+02 0.  0.
          5    1    3    3  502    0 -0.40572422076E+02 -0.17468909756E+02  0.13003965267E+03  0.13740112047E+03  0.41800000000E+01 0.  1.
         -5    1    3    3    0  502 -0.89151982187E+01 -0.35394713290E+02 -0.22206133230E+02  0.42928443265E+02  0.41800000000E+01 0.  1.
        -11    1    4    4    0    0 -0.23558155464E+01  0.65379661538E+02  0.20640046208E+03  0.21652067051E+03  0.00000000000E+00 0.  1.
         11    1    4    4    0    0  0.51843435841E+02 -0.12516038492E+02  0.21806173843E+03  0.22448900825E+03  0.00000000000E+00 0. -1.
</event>
<event>
 8    1  0.8619230E-006  0.1149683E+03  0.7561462E-02  0.1251636E+00
         -1   -1    0    0    0  501 -0.00000000000E+00  0.00000000000E+00  0.43411846282E+02  0.43411846282E+02  0.00000000000E+00 0.  1.
          1   -1    0    0  501    0  0.00000000000E+00 -0.00000000000E+00 -0.33282998800E+03  0.33282998800E+03  0.00000000000E+00 0. -1.
         23    2    1    2    0    0  0.60323078475E+01 -0.52888605530E+02 -0.16695360052E+03  0.21529986781E+03  0.12508770931E+03 0.  0.
         23    2    1    2    0    0 -0.60323078475E+01  0.52888605530E+02 -0.12246454120E+03  0.16094196647E+03  0.89839631503E+02 0.  0.
          5    1    3    3  502    0  0.20869770729E+02 -0.86374844627E+02 -0.15073117224E+03  0.17502434059E+03  0.41800000000E+01 0.  1.
         -5    1    3    3    0  502 -0.14837462882E+02  0.33486239097E+02 -0.16222428286E+02  0.40275527224E+02  0.41800000000E+01 0.  1.
        -11    1    4    4    0    0 -0.21515778003E+02 -0.20134563934E+02 -0.40421392130E+02  0.50022178178E+02  0.00000000000E+00 0.  1.
         11    1    4    4    0    0  0.15483470156E+02  0.73023169464E+02 -0.82043149069E+02  0.11091978830E+03  0.00000000000E+00 0. -1.
</event>
<event>
 8    1  0.8619230E-006  0.9994993E+02  0.7561462E-02  0.1280401E+00
          1   -1    0    0  501    0  0.00000000000E+00  0.00000000000E+00  0.10207003712E+03  0.10207003712E+03  0.00000000000E+00 0. -1.
         -1   -1    0    0    0  501 -0.00000000000E+00 -0.00000000000E+00 -0.11936779685E+03  0.11936779685E+03  0.00000000000E+00 0.  1.
         23    2    1    2    0    0 -0.12887125932E+01  0.50871904947E+01 -0.35849282791E+02  0.13023186170E+03  0.12509047301E+03 0.  0.
         23    2    1    2    0    0  0.12887125932E+01 -0.50871904947E+01  0.18551523067E+02  0.91205972272E+02  0.89144994714E+02 0.  0.
          5    1    3    3  502    0 -0.49384994765E+02 -0.36228232286E+02 -0.13368635504E+02  0.62829573751E+02  0.41800000000E+01 0. -1.
         -5    1    3    3    0  502  0.48096282172E+02  0.41315422781E+02 -0.22480647287E+02  0.67402287949E+02  0.41800000000E+01 0. -1.
        -11    1    4    4    0    0 -0.30260608872E+02 -0.23609873593E+02 -0.15341843523E+02  0.41334038552E+02  0.00000000000E+00 0.  1.
         11    1    4    4    0    0  0.31549321465E+02  0.18522683099E+02  0.33893366590E+02  0.49871933719E+02  0.00000000000E+00 0. -1.
</event>
<event>
 8    1  0.8619230E-006  0.2375737E+03  0.7561462E-02  0.1121420E+00
          3   -1    0    0  501    0  0.00000000000E+00  0.00000000000E+00  0.39250583357E+03  0.39250583357E+03  0.00000000000E+00 0. -1.
         -3   -1    0    0    0  501 -0.00000000000E+00 -0.00000000000E+00 -0.16353776014E+03  0.16353776014E+03  0.00000000000E+00 0.  1.
         23    2    1    2    0    0 -0.22190265541E+03  0.53479483150E+02  0.11018128974E+03  0.28263999635E+03  0.12507840473E+03 0.  0.
         23    2    1    2    0    0  0.22190265541E+03 -0.53479483150E+02  0.11878678370E+03  0.27340359736E+03  0.92403373704E+02 0.  0.
          5    1    3    3  502    0 -0.69133050680E+02  0.35901221324E+02 -0.20646475287E+02  0.80697123435E+02  0.41800000000E+01 0. -1.
         -5    1    3    3    0  502 -0.15276960473E+03  0.17578261825E+02  0.13082776502E+03  0.20194287291E+03  0.41800000000E+01 0. -1.
        -11    1    4    4    0    0  0.14274509529E+03  0.81560937429E+01  0.48785355972E+02  0.15107182084E+03  0.00000000000E+00 0.  1.
         11    1    4    4    0    0  0.79157560125E+02 -0.61635576893E+02  0.70001427728E+02  0.12233177653E+03  0.00000000000E+00 0. -1.
</event>
<event>
 8    1  0.8619230E-006  0.3024921E+03  0.7561462E-02  0.1084001E+00
          1   -1    0    0  501    0  0.00000000000E+00  0.00000000000E+00  0.88712099779E+02  0.88712099779E+02  0.00000000000E+00 0. -1.
         -1   -1    0    0    0  501 -0.00000000000E+00 -0.00000000000E+00 -0.11478440786E+04  0.11478440786E+04  0.00000000000E+00 0.  1.
         23    2    1    2    0    0 -0.18518290095E+03 -0.21888220710E+03 -0.37106200156E+03  0.48532080806E+03  0.12508856999E+03 0.  0.
         23    2    1    2    0    0  0.18518290095E+03  0.21888220710E+03 -0.68806997726E+03  0.75123537032E+03  0.93338955546E+02 0.  0.
          5    1    3    3  502    0 -0.14304437953E+03 -0.22790766271E+03 -0.31079809715E+03  0.41111619626E+03  0.41800000000E+01 0. -1.
         -5    1    3    3    0  502 -0.42138521429E+02  0.90254556100E+01 -0.60263904405E+02  0.74204611793E+02  0.41800000000E+01 0. -1.
        -11    1    4    4    0    0  0.11780342100E+03  0.17897417516E+03 -0.57560994555E+03  0.61419558024E+03  0.00000000000E+00 0. -1.
         11    1    4    4    0    0  0.67379479956E+02  0.39908031940E+02 -0.11246003171E+03  0.13703979008E+03  0.00000000000E+00 0.  1.
</event>
<event>
 8    1  0.8619230E-006  0.9576029E+02  0.7561462E-02  0.1289473E+00
         -1   -1    0    0    0  501 -0.00000000000E+00  0.00000000000E+00  0.82969611979E+02  0.82969611979E+02  0.00000000000E+00 0.  1.
          1   -1    0    0  501    0  0.00000000000E+00 -0.00000000000E+00 -0.13862636823E+03  0.13862636823E+03  0.00000000000E+00 0. -1.
         23    2    1    2    0    0 -0.96947597244E+00 -0.38962338318E+01 -0.42309695938E+02  0.13212192155E+03  0.12509984518E+03 0.  0.
         23    2    1    2    0    0  0.96947597244E+00  0.38962338318E+01 -0.13347060308E+02  0.89474058651E+02  0.88381800338E+02 0.  0.
          5    1    3    3  502    0 -0.42678452229E+02  0.29260275223E+02  0.14722004166E+02  0.53961317603E+02  0.41800000000E+01 0. -1.
         -5    1    3    3    0  502  0.41708976257E+02 -0.33156509055E+02 -0.57031700104E+02  0.78160603951E+02  0.41800000000E+01 0. -1.
        -11    1    4    4    0    0 -0.30408154410E+02  0.31923452219E+02  0.33373350546E+01  0.44214256315E+02  0.00000000000E+00 0. -1.
         11    1    4    4    0    0  0.31377630382E+02 -0.28027218387E+02 -0.16684395363E+02  0.45259802337E+02  0.00000000000E+00 0.  1.
</event>
<event>
 8    1  0.8619230E-006  0.1120093E+03  0.7561462E-02  0.1256894E+00
          2   -1    0    0  501    0  0.00000000000E+00  0.00000000000E+00  0.88713647306E+03  0.88713647306E+03  0.00000000000E+00 0. -1.
         -2   -1    0    0    0  501 -0.00000000000E+00 -0.00000000000E+00 -0.15801744157E+02  0.15801744157E+02  0.00000000000E+00 0.  1.
         23    2    1    2    0    0 -0.16502742971E+02 -0.32242801012E+02  0.37387635830E+03  0.39590800108E+03  0.12509066824E+03 0.  0.
         23    2    1    2    0    0  0.16502742971E+02  0.32242801012E+02  0.49745837059E+03  0.50703021613E+03  0.91120090275E+02 0.  0.
          5    1    3    3  502    0 -0.48280073868E+02 -0.65132646051E+02  0.27781309201E+03  0.28943188077E+03  0.41800000000E+01 0.  1.
         -5    1    3    3    0  502  0.31777330897E+02  0.32889845038E+02  0.96063266294E+02  0.10647612031E+03  0.41800000000E+01 0.  1.
        -11    1    4    4    0    0 -0.36783787211E+02  0.51803746592E+01  0.15446078169E+03  0.15886477382E+03  0.00000000000E+00 0. -1.
         11    1    4    4    0    0  0.53286530182E+02  0.27062426353E+02  0.34299758891E+03  0.34816544231E+03  0.00000000000E+00 0.  1.
</event>
<event>
 8    1  0.8619230E-006  0.1255072E+03  0.7561462E-02  0.1234279E+00
          2   -1    0    0  501    0  0.00000000000E+00  0.00000000000E+00  0.40041439990E+03  0.40041439990E+03  0.00000000000E+00 0. -1.
         -2   -1    0    0    0  501 -0.00000000000E+00 -0.00000000000E+00 -0.44938819255E+02  0.44938819255E+02  0.00000000000E+00 0.  1.
         23    2    1    2    0    0  0.47467186617E+02  0.62399913604E+02  0.18516113098E+03  0.23681017952E+03  0.12509010224E+03 0.  0.
         23    2    1    2    0    0 -0.47467186617E+02 -0.62399913604E+02  0.17031444966E+03  0.20854303963E+03  0.91303365711E+02 0.  0.
          5    1    3    3  502    0  0.77033544335E+01 -0.30956319314E+02  0.97434455616E+02  0.10260887348E+03  0.41800000000E+01 0. -1.
         -5    1    3    3    0  502  0.39763832183E+02  0.93356232917E+02  0.87726675363E+02  0.13420130605E+03  0.41800000000E+01 0. -1.
        -11    1    4    4    0    0  0.27635264276E+01 -0.66802931803E+02  0.11964715148E+03  0.13706097050E+03  0.00000000000E+00 0. -1.
         11    1    4    4    0    0 -0.50230713044E+02  0.44030181993E+01  0.50667298179E+02  0.71482069129E+02  0.00000000000E+00 0.  1.
</event>
<event>
 8    1  0.8619230E-006  0.1022455E+03  0.7561462E-02  0.1275644E+00
         -1   -1    0    0    0  501 -0.00000000000E+00  0.00000000000E+00  0.67290180502E+02  0.67290180502E+02  0.00000000000E+00 0.  1.
          1   -1    0    0  501    0  0.00000000000E+00 -0.00000000000E+00 -0.27916418681E+03  0.27916418681E+03  0.00000000000E+00 0. -1.
         23    2    1    2    0    0  0.31566795804E+02  0.49290127957E+02 -0.36567441403E+02  0.14286426755E+03  0.12508813637E+03 0.  0.
         23    2    1    2    0    0 -0.31566795804E+02 -0.49290127957E+02 -0.17530656490E+03  0.20359009976E+03  0.85384762758E+02 0.  0.
          5    1    3    3  502    0  0.15315040459E+02  0.90914491334E+02 -0.16722633250E+02  0.93792931832E+02  0.41800000000E+01 0.  1.
         -5    1    3    3    0  502  0.16251755345E+02 -0.41624363377E+02 -0.19844808154E+02  0.49071335716E+02  0.41800000000E+01 0.  1.
        -11    1    4    4    0    0 -0.13786708191E+02  0.11543332398E+01  0.56127711378E+01  0.14930137569E+02  0.00000000000E+00 0.  1.
         11    1    4    4    0    0 -0.17780087613E+02 -0.50444461197E+02 -0.18091933604E+03  0.18865996219E+03  0.00000000000E+00 0. -1.
</event>
<event>
 8    1  0.8619230E-006  0.1132921E+03  0.7561462E-02  0.1254592E+00
         -2   -1    0    0    0  501 -0.00000000000E+00  0.00000000000E+00  0.62013396997E+02  0.62013396997E+02  0.00000000000E+00 0. -1.
          2   -1    0    0  501    0  0.00000000000E+00 -0.00000000000E+00 -0.35130825530E+03  0.35130825530E+03  0.00000000000E+00 0.  1.
         23    2    1    2    0    0 -0.33217384039E+02 -0.92901705701E+02 -0.13853867849E+03  0.21112852732E+03  0.12509263801E+03 0.  0.
         23    2    1    2    0    0  0.33217384039E+02  0.92901705701E+02 -0.15075617981E+03  0.20219312498E+03  0.91763350603E+02 0.  0.
          5    1    3    3  502    0 -0.56663508113E+01 -0.40715660718E+02  0.17029137645E+02  0.44691570661E+02  0.41800000000E+01 0. -1.
         -5    1    3    3    0  502 -0.27551033228E+02 -0.52186044983E+02 -0.15556781614E+03  0.16643695666E+03  0.41800000000E+01 0. -1.
        -11    1    4    4    0    0 -0.24007206271E+02  0.11548203734E+02 -0.72886164469E+01  0.27619393406E+02  0.00000000000E+00 0. -1.
         11    1    4    4    0    0  0.57224590310E+02  0.81353501967E+02 -0.14346756337E+03  0.17457373158E+03  0.00000000000E+00 0.  1.
</event>
<event>
 8    1  0.8619230E-006  0.1310701E+03  0.7561462E-02  0.1225877E+00
         -2   -1    0    0    0  501 -0.00000000000E+00  0.00000000000E+00  0.48746855001E+02  0.48746855001E+02  0.00000000000E+00 0.  1.
          2   -1    0    0  501    0  0.00000000000E+00 -0.00000000000E+00 -0.43386095054E+03  0.43386095054E+03  0.00000000000E+00 0. -1.
         23    2    1    2    0    0 -0.52157983449E+02  0.65481040155E+02 -0.12952746886E+03  0.19857060790E+03  0.12507877229E+03 0.  0.
         23    2    1    2    0    0  0.52157983449E+02 -0.65481040155E+02 -0.25558662668E+03  0.28403719764E+03  0.91347600117E+02 0.  0.
          5    1    3    3  502    0 -0.57176919185E+02  0.93645247277E+02 -0.12933613362E+03  0.16965830450E+03  0.41800000000E+01 0.  1.
         -5    1    3    3    0  502  0.50189357362E+01 -0.28164207122E+02 -0.19133523158E+00  0.28912303400E+02  0.41800000000E+01 0.  1.
        -11    1    4    4    0    0  0.34189342404E+02  0.17581003412E+02 -0.68435983998E+02  0.78495138198E+02  0.00000000000E+00 0. -1.
         11    1    4    4    0    0  0.17968641045E+02 -0.83062043567E+02 -0.18715064269E+03  0.20554205944E+03  0.00000000000E+00 0.  1.
</event>
<event>
 8    1  0.8619230E-006  0.1533265E+03  0.7561462E-02  0.1196444E+00
          1   -1    0    0  501    0  0.00000000000E+00  0.00000000000E+00  0.47792676648E+03  0.47792676648E+03  0.00000000000E+00 0.  1.
         -1   -1    0    0    0  501 -0.00000000000E+00 -0.00000000000E+00 -0.61187029381E+02  0.61187029381E+02  0.00000000000E+00 0. -1.
         23    2    1    2    0    0  0.12962188829E+03  0.26778748222E+02  0.23171690111E+03  0.29480475928E+03  0.12529241221E+03 0.  0.
         23    2    1    2    0    0 -0.12962188829E+03 -0.26778748222E+02  0.18502283599E+03  0.24430903658E+03  0.89075924005E+02 0.  0.
          5    1    3    3  502    0  0.10539402256E+02 -0.16779668418E+02 -0.94163562083E+01  0.22333303302E+02  0.41800000000E+01 0.  1.
         -5    1    3    3    0  502  0.11908248603E+03  0.43558416639E+02  0.24113325732E+03  0.27247145598E+03  0.41800000000E+01 0.  1.
        -11    1    4    4    0    0 -0.71655700231E+02 -0.59350771539E+02  0.10906633338E+03  0.14336149599E+03  0.00000000000E+00 0. -1.
         11    1    4    4    0    0 -0.57966188054E+02  0.32572023318E+02  0.75956502611E+02  0.10094754058E+03  0.00000000000E+00 0.  1.
</event>
<event>
 6    1  0.1052126E-005  0.1149952E+03  0.7561462E-02  0.1251589E+00
          2   -1    0    0  501    0  0.00000000000E+00  0.00000000000E+00  0.10275213335E+04  0.10275213335E+04  0.00000000000E+00 0. -1.
         -2   -1    0    0    0  501 -0.00000000000E+00 -0.00000000000E+00 -0.17397945004E+02  0.17397945004E+02  0.00000000000E+00 0.  1.
          5    1    1    2  502    0  0.86456765194E+02  0.14684464591E+02  0.64883524315E+03  0.65474808202E+03  0.41800000000E+01 0. -1.
         -5    1    1    2    0  502 -0.87997385396E+02 -0.53393026120E+02  0.21121093260E+03  0.23499337337E+03  0.41800000000E+01 0.  1.
        -11    1    1    2    0    0 -0.22557507128E+01  0.12855778268E+02  0.58992890755E+02  0.60419538278E+02  0.00000000000E+00 0.  1.
         11    1    1    2    0    0  0.37963709154E+01  0.25852783261E+02  0.91084321943E+02  0.94758284800E+02  0.00000000000E+00 0. -1.
</event>
<event>
 8    1  0.8619230E-006  0.3221062E+03  0.7561462E-02  0.1074684E+00
          2   -1    0    0  501    0  0.00000000000E+00  0.00000000000E+00  0.10592648313E+04  0.10592648313E+04  0.00000000000E+00 0. -1.
         -2   -1    0    0    0  501 -0.00000000000E+00 -0.00000000000E+00 -0.10432193775E+03  0.10432193775E+03  0.00000000000E+00 0.  1.
         23    2    1    2    0    0  0.30874673260E+03  0.23392051770E+01  0.58166808506E+03  0.67031009206E+03  0.12509133290E+03 0.  0.
         23    2    1    2    0    0 -0.30874673260E+03 -0.23392051770E+01  0.37327480850E+03  0.49327667699E+03  0.93047195718E+02 0.  0.
          5    1    3    3  502    0  0.21540431299E+03 -0.56462551940E+02  0.39175681137E+03  0.45064166417E+03  0.41800000000E+01 0. -1.
         -5    1    3    3    0  502  0.93342419610E+02  0.58801757117E+02  0.18991127369E+03  0.21966842789E+03  0.41800000000E+01 0. -1.
        -11    1    4    4    0    0 -0.22094319671E+03 -0.18866524887E+02  0.20135036909E+03  0.29952264199E+03  0.00000000000E+00 0.  1.
         11    1    4    4    0    0 -0.87803535892E+02  0.16527319710E+02  0.17192443941E+03  0.19375403500E+03  0.00000000000E+00 0. -1.
</event>
<event>
 8    1  0.8619230E-006  0.9096228E+02  0.7561462E-02  0.1300538E+00
          1   -1    0    0  501    0  0.00000000000E+00  0.00000000000E+00  0.15844662317E+03  0.15844662317E+03  0.00000000000E+00 0. -1.
         -1   -1    0    0    0  501 -0.00000000000E+00 -0.00000000000E+00 -0.93045402361E+02  0.93045402361E+02  0.00000000000E+00 0.  1.
         23    2    1    2    0    0  0.30360858266E+01 -0.30853082990E+02 -0.52790375661E+01  0.12898797791E+03  0.12509556212E+03 0.  0.
         23    2    1    2    0    0 -0.30360858266E+01  0.30853082990E+02  0.70680258371E+02  0.12250404761E+03  0.95133654461E+02 0.  0.
          5    1    3    3  502    0  0.24288426219E+02 -0.49457114935E+02  0.44936296066E+02  0.71222727904E+02  0.41800000000E+01 0.  1.
         -5    1    3    3    0  502 -0.21252340393E+02  0.18604031945E+02 -0.50215333632E+02  0.57765250009E+02  0.41800000000E+01 0.  1.
        -11    1    4    4    0    0  0.43160916448E+02  0.28769468444E+02  0.49282901751E+02  0.71549643103E+02  0.00000000000E+00 0.  1.
         11    1    4    4    0    0 -0.46197002274E+02  0.20836145451E+01  0.21397356620E+02  0.50954404511E+02  0.00000000000E+00 0. -1.
</event>
<event>
 8    1  0.8619230E-006  0.1236271E+03  0.7561462E-02  0.1237231E+00
          2   -1    0    0  501    0  0.00000000000E+00  0.00000000000E+00  0.61596179239E+03  0.61596179239E+03  0.00000000000E+00 0. -1.
         -2   -1    0    0    0  501 -0.00000000000E+00 -0.00000000000E+00 -0.45944607426E+02  0.45944607426E+02  0.00000000000E+00 0.  1.
         23    2    1    2    0    0  0.11094994566E+03  0.24493443743E+02  0.16610979850E+03  0.23695847968E+03  0.12508811577E+03 0.  0.
         23    2    1    2    0    0 -0.11094994566E+03 -0.24493443743E+02  0.40390738646E+03  0.42494792013E+03  0.67303333936E+02 0.  0.
          5    1    3    3  502    0  0.29986658825E+01  0.24720155798E+02  0.11446402988E+03  0.11721588901E+03  0.41800000000E+01 0. -1.
         -5    1    3    3    0  502  0.10795127978E+03 -0.22671205477E+00  0.51645768620E+02  0.11974259067E+03  0.41800000000E+01 0. -1.
        -11    1    4    4    0    0 -0.10608488528E+02 -0.51117237978E+01  0.43911420303E+01  0.12567890728E+02  0.00000000000E+00 0.  1.
         11    1    4    4    0    0 -0.10034145713E+03 -0.19381719946E+02  0.39951624443E+03  0.41238002941E+03  0.00000000000E+00 0. -1.
</event>
<event>
 8    1  0.8619230E-006  0.1030075E+03  0.7561462E-02  0.1274096E+00
          1   -1    0    0  501    0  0.00000000000E+00  0.00000000000E+00  0.89427263881E+02  0.89427263881E+02  0.00000000000E+00 0. -1.
         -1   -1    0    0    0  501 -0.00000000000E+00 -0.00000000000E+00 -0.16708003074E+03  0.16708003074E+03  0.00000000000E+00 0.  1.
         23    2    1    2    0    0 -0.36900115827E+02  0.36707068903E+02 -0.84793354461E+02  0.15165480912E+03  0.11445628298E+03 0.  0.
         23    2    1    2    0    0  0.36900115827E+02 -0.36707068903E+02  0.71405875978E+01  0.10485248550E+03  0.90741546543E+02 0.  0.
          5    1    3    3  502    0 -0.65300771404E+02  0.14727964984E+02 -0.92920180743E+02  0.11459815046E+03  0.41800000000E+01 0. -1.
         -5    1    3    3    0  502  0.28400655577E+02  0.21979103919E+02  0.81268262825E+01  0.37056658669E+02  0.41800000000E+01 0.  1.
        -11    1    4    4    0    0  0.64748719787E+02 -0.37696476755E+02 -0.35479840040E+01  0.75006728127E+02  0.00000000000E+00 0.  1.
         11    1    4    4    0    0 -0.27848603959E+02  0.98940785249E+00  0.10688571602E+02  0.29845757375E+02  0.00000000000E+00 0. -1.
</event>
<event>
 8    1  0.8619230E-006  0.1171887E+03  0.7561462E-02  0.1247808E+00
          1   -1    0    0  501    0  0.00000000000E+00  0.00000000000E+00  0.33132343790E+03  0.33132343790E+03  0.00000000000E+00 0. -1.
         -1   -1    0    0    0  501 -0.00000000000E+00 -0.00000000000E+00 -0.59819868902E+02  0.59819868902E+02  0.00000000000E+00 0.  1.
         23    2    1    2    0    0 -0.76936827971E+02 -0.25997750917E+02  0.95490949010E+02  0.17709516041E+03  0.12509602691E+03 0.  0.
         23    2    1    2    0    0  0.76936827971E+02  0.25997750917E+02  0.17601261999E+03  0.21404814639E+03  0.90779997937E+02 0.  0.
          5    1    3    3  502    0 -0.43415570971E+02  0.49696924004E+02  0.38681859757E+02  0.76605840068E+02  0.41800000000E+01 0. -1.
         -5    1    3    3    0  502 -0.33521257000E+02 -0.75694674920E+02  0.56809089252E+02  0.10048932035E+03  0.41800000000E+01 0. -1.
        -11    1    4    4    0    0  0.25308044695E+02  0.22082142992E+02  0.15428220475E+03  0.15789590516E+03  0.00000000000E+00 0. -1.
         11    1    4    4    0    0  0.51628783276E+02  0.39156079248E+01  0.21730415240E+02  0.56152241224E+02  0.00000000000E+00 0.  1.
</event>
<event>
 8    1  0.8619230E-006  0.1091632E+03  0.7561462E-02  0.1262127E+00
          2   -1    0    0  501    0  0.00000000000E+00  0.00000000000E+00  0.16192486487E+03  0.16192486487E+03  0.00000000000E+00 0. -1.
         -2   -1    0    0    0  501 -0.00000000000E+00 -0.00000000000E+00 -0.80062140080E+02  0.80062140080E+02  0.00000000000E+00 0.  1.
         23    2    1    2    0    0 -0.31370236960E+02  0.44098526888E+01  0.28879251501E+02  0.13222901020E+03  0.12508781477E+03 0.  0.
         23    2    1    2    0    0  0.31370236960E+02 -0.44098526888E+01  0.52983473285E+02  0.10975799474E+03  0.90752577929E+02 0.  0.
          5    1    3    3  502    0  0.41843159997E+02  0.24744581294E+02 -0.47651789168E+01  0.49023705206E+02  0.41800000000E+01 0.  1.
         -5    1    3    3    0  502 -0.73213396958E+02 -0.20334728606E+02  0.33644430417E+02  0.83205304997E+02  0.41800000000E+01 0.  1.
        -11    1    4    4    0    0  0.15280723921E+02  0.41799300875E+02  0.12433224789E+02  0.46208951036E+02  0.00000000000E+00 0.  1.
         11    1    4    4    0    0  0.16089513039E+02 -0.46209153564E+02  0.40550248496E+02  0.63549043706E+02  0.00000000000E+00 0. -1.
</event>
<event>
 8    1  0.8619230E-006  0.1073400E+03  0.7561462E-02  0.1265577E+00
          1   -1    0    0  501    0  0.00000000000E+00  0.00000000000E+00  0.21177449258E+02  0.21177449258E+02  0.00000000000E+00 0. -1.
         -1   -1    0    0    0  501 -0.00000000000E+00 -0.00000000000E+00 -0.81829704422E+03  0.81829704422E+03  0.00000000000E+00 0.  1.
         23    2    1    2    0    0 -0.97040893126E+01 -0.28067205513E+02 -0.65382731975E+03  0.66634857683E+03  0.12509326284E+03 0.  0.
         23    2    1    2    0    0  0.97040893126E+01  0.28067205513E+02 -0.14329227520E+03  0.17312591665E+03  0.92509294166E+02 0.  0.
          5    1    3    3  502    0 -0.71260592458E+01  0.48063853026E+02 -0.33439753787E+03  0.33793505355E+03  0.41800000000E+01 0.  1.
         -5    1    3    3    0  502 -0.25780300668E+01 -0.76131058539E+02 -0.31942978189E+03  0.32841352328E+03  0.41800000000E+01 0.  1.
        -11    1    4    4    0    0 -0.37688112672E+02  0.13678240841E+02 -0.31957557084E+02  0.51271566818E+02  0.00000000000E+00 0. -1.
         11    1    4    4    0    0  0.47392201984E+02  0.14388964672E+02 -0.11133471812E+03  0.12185434983E+03  0.00000000000E+00 0.  1.
</event>
<event>
 8    1  0.8619230E-006  0.1028459E+03  0.7561462E-02  0.1274423E+00
          4   -1    0    0  501    0  0.00000000000E+00  0.00000000000E+00  0.10891792791E+02  0.10891792791E+02  0.00000000000E+00 0. -1.
         -4   -1    0    0    0  501 -0.00000000000E+00 -0.00000000000E+00 -0.14639669846E+04  0.14639669846E+04  0.00000000000E+00 0.  1.
         23    2    1    2    0    0 -0.33615168495E+02  0.11571173833E+02 -0.11290867752E+04  0.11365522912E+04  0.12510113212E+03 0.  0.
         23    2    1    2    0    0  0.33615168495E+02 -0.11571173833E+02 -0.32398841668E+03  0.33830648619E+03  0.90658219898E+02 0.  0.
          5    1    3    3  502    0 -0.68794692874E+02  0.20299635655E+02 -0.99497738634E+03  0.99756817146E+03  0.41800000000E+01 0. -1.
         -5    1    3    3    0  502  0.35179524378E+02 -0.87284618226E+01 -0.13410938882E+03  0.13898411978E+03  0.41800000000E+01 0. -1.
        -11    1    4    4    0    0 -0.31123872824E+02  0.20821600069E+01 -0.10040093366E+03  0.10513504806E+03  0.00000000000E+00 0.  1.
         11    1    4    4    0    0  0.64739041320E+02 -0.13653333840E+02 -0.22358748302E+03  0.23317143813E+03  0.00000000000E+00 0. -1.
</event>
<event>
 8    1  0.8619230E-006  0.2837536E+03  0.7561462E-02  0.1093656E+00
         -2   -1    0    0    0  501 -0.00000000000E+00  0.00000000000E+00  0.12029764067E+03  0.12029764067E+03  0.00000000000E+00 0. -1.
          2   -1    0    0  501    0  0.00000000000E+00 -0.00000000000E+00 -0.75386055600E+03  0.75386055600E+03  0.00000000000E+00 0.  1.
         23    2    1    2    0    0 -0.70888907282E+02 -0.26334128869E+03 -0.22796887628E+03  0.37681596098E+03  0.12508632377E+03 0.  0.
         23    2    1    2    0    0  0.70888907282E+02  0.26334128869E+03 -0.40559403905E+03  0.49734223569E+03  0.92026644963E+02 0.  0.
          5    1    3    3  502    0 -0.23117839621E+02 -0.17027383587E+02 -0.80924527357E+02  0.85968702610E+02  0.41800000000E+01 0. -1.
         -5    1    3    3    0  502 -0.47771067662E+02 -0.24631390510E+03 -0.14704434892E+03  0.29084725837E+03  0.41800000000E+01 0. -1.
        -11    1    4    4    0    0 -0.11845871814E+02  0.13062978077E+03 -0.17431813884E+03  0.21815425238E+03  0.00000000000E+00 0.  1.
         11    1    4    4    0    0  0.82734779096E+02  0.13271150792E+03 -0.23127590021E+03  0.27918798331E+03  0.00000000000E+00 0. -1.
</event>
<event>
 8    1  0.8619230E-006  0.1930839E+03  0.7561462E-02  0.1155709E+00
          1   -1    0    0  501    0  0.00000000000E+00  0.00000000000E+00  0.14150639793E+03  0.14150639793E+03  0.00000000000E+00 0. -1.
         -1   -1    0    0    0  501 -0.00000000000E+00 -0.00000000000E+00 -0.73923358852E+03  0.73923358852E+03  0.00000000000E+00 0.  1.
         23    2    1    2    0    0 -0.14881948668E+03 -0.79223360161E+02 -0.65222743414E+03  0.68259244363E+03  0.11003743840E+03 0.  0.
         23    2    1    2    0    0  0.14881948668E+03  0.79223360161E+02  0.54500243553E+02  0.19814754282E+03  0.88705083105E+02 0.  0.
          5    1    3    3  502    0 -0.55266895393E+02 -0.86321524177E+02 -0.26559667225E+03  0.28471898422E+03  0.41800000000E+01 0. -1.
         -5    1    3    3    0  502 -0.93552591284E+02  0.70981640164E+01 -0.38663076189E+03  0.39787345942E+03  0.41800000000E+01 0.  1.
        -11    1    4    4    0    0 -0.71028186544E+01  0.22754581347E+02  0.85092485203E+00  0.23852569636E+02  0.00000000000E+00 0.  1.
         11    1    4    4    0    0  0.15592230533E+03  0.56468778813E+02  0.53649318701E+02  0.17429497318E+03  0.00000000000E+00 0. -1.
</event>
<event>
 8    1  0.8619230E-006  0.5827063E+02  0.7561462E-02  0.1405236E+00
          2   -1    0    0  501    0  0.00000000000E+00  0.00000000000E+00  0.94510127839E+02  0.94510127839E+02  0.00000000000E+00 0. -1.
         -2   -1    0    0    0  501 -0.00000000000E+00 -0.00000000000E+00 -0.14426188749E+03  0.14426188749E+03  0.00000000000E+00 0.  1.
         23    2    1    2    0    0 -0.62785899487E+01  0.15296945001E+01 -0.68814005336E+02  0.14290594963E+03  0.12507990427E+03 0.  0.
         23    2    1    2    0    0  0.62785899487E+01 -0.15296945001E+01  0.19062245688E+02  0.95866065700E+02  0.93729252025E+02 0.  0.
          5    1    3    3  502    0  0.79257464282E+01  0.30839118756E+02  0.26788891391E+02  0.41820877610E+02  0.41800000000E+01 0.  1.
         -5    1    3    3    0  502 -0.14204336377E+02 -0.29309424256E+02 -0.95602896727E+02  0.10108507202E+03  0.41800000000E+01 0.  1.
        -11    1    4    4    0    0  0.28906706556E+02  0.45436814679E-01 -0.30094292778E+02  0.41728481954E+02  0.00000000000E+00 0.  1.
         11    1    4    4    0    0 -0.22628116608E+02 -0.15751313147E+01  0.49156538466E+02  0.54137583745E+02  0.00000000000E+00 0. -1.
</event>
<event>
 8    1  0.8619230E-006  0.1467876E+03  0.7561462E-02  0.1204477E+00
         -2   -1    0    0    0  501 -0.00000000000E+00  0.00000000000E+00  0.35617974191E+03  0.35617974191E+03  0.00000000000E+00 0.  1.
          2   -1    0    0  501    0  0.00000000000E+00 -0.00000000000E+00 -0.61063599784E+02  0.61063599784E+02  0.00000000000E+00 0. -1.
         23    2    1    2    0    0  0.10031994652E+03  0.99421147657E+01  0.17950743506E+03  0.24090055408E+03  0.12508885002E+03 0.  0.
         23    2    1    2    0    0 -0.10031994652E+03 -0.99421147657E+01  0.11560870706E+03  0.17634278761E+03  0.86996944073E+02 0.  0.
          5    1    3    3  502    0  0.10880378382E+03  0.49713170312E+02  0.13046762101E+03  0.17705630519E+03  0.41800000000E+01 0. -1.
         -5    1    3    3    0  502 -0.84838373004E+01 -0.39771055547E+02  0.49039814049E+02  0.63844248892E+02  0.41800000000E+01 0. -1.
        -11    1    4    4    0    0 -0.11504987546E+03  0.31382718737E+00  0.10286528031E+03  0.15433028940E+03  0.00000000000E+00 0. -1.
         11    1    4    4    0    0  0.14729928948E+02 -0.10255941953E+02  0.12743426749E+02  0.22012498211E+02  0.00000000000E+00 0.  1.
</event>
<event>
 8    1  0.8619230E-006  0.1173960E+03  0.7561462E-02  0.1247456E+00
          1   -1    0    0  501    0  0.00000000000E+00  0.00000000000E+00  0.18168763856E+03  0.18168763856E+03  0.00000000000E+00 0. -1.
         -1   -1    0    0    0  501 -0.00000000000E+00 -0.00000000000E+00 -0.91031857282E+02  0.91031857282E+02  0.00000000000E+00 0.  1.
         23    2    1    2    0    0 -0.61295418990E+02 -0.93742437017E+01  0.16370592202E+02  0.14057165659E+03  0.12508952600E+03 0.  0.
         23    2    1    2    0    0  0.61295418990E+02  0.93742437017E+01  0.74285189075E+02  0.13214783925E+03  0.89998651478E+02 0.  0.
          5    1    3    3  502    0 -0.33734783270E+02 -0.67020069293E+02  0.33067540707E+01  0.75220557780E+02  0.41800000000E+01 0.  1.
         -5    1    3    3    0  502 -0.27560635720E+02  0.57645825592E+02  0.13063838131E+02  0.65351098814E+02  0.41800000000E+01 0.  1.
        -11    1    4    4    0    0  0.77387112230E+02  0.14479320573E+02  0.81920453722E+02  0.11361943760E+03  0.00000000000E+00 0. -1.
         11    1    4    4    0    0 -0.16091693240E+02 -0.51050768716E+01 -0.76352646474E+01  0.18528401643E+02  0.00000000000E+00 0.  1.
</event>
<event>
 8    1  0.8619230E-006  0.1588711E+03  0.7561462E-02  0.1189977E+00
         -2   -1    0    0    0  501 -0.00000000000E+00  0.00000000000E+00  0.23848409780E+03  0.23848409780E+03  0.00000000000E+00 0.  1.
          2   -1    0    0  501    0  0.00000000000E+00 -0.00000000000E+00 -0.11021745469E+03  0.11021745469E+03  0.00000000000E+00 0. -1.
         23    2    1    2    0    0 -0.83571146729E+02 -0.78916844152E+02  0.91282805150E+02  0.19286199645E+03  0.12510473333E+03 0.  0.
         23    2    1    2    0    0  0.83571146729E+02  0.78916844152E+02  0.36983837964E+02  0.15583955604E+03  0.98519836078E+02 0.  0.
          5    1    3    3  502    0 -0.11565864798E+03 -0.60508318912E+02  0.57894083271E+02  0.14285439016E+03  0.41800000000E+01 0.  1.
         -5    1    3    3    0  502  0.32087501252E+02 -0.18408525241E+02  0.33388721879E+02  0.50007606290E+02  0.41800000000E+01 0.  1.
        -11    1    4    4    0    0  0.28460822002E+02 -0.21298337791E+02  0.18208664489E+02  0.39939867854E+02  0.00000000000E+00 0. -1.
         11    1    4    4    0    0  0.55110324728E+02  0.10021518194E+03  0.18775173475E+02  0.11589968819E+03  0.00000000000E+00 0.  1.
</event>
<event>
 8    1  0.8619230E-006  0.1078007E+03  0.7561462E-02  0.1264698E+00
          2   -1    0    0  501    0  0.00000000000E+00  0.00000000000E+00  0.41840753007E+03  0.41840753007E+03  0.00000000000E+00 0. -1.
         -2   -1    0    0    0  501 -0.00000000000E+00 -0.00000000000E+00 -0.34033865068E+02  0.34033865068E+02  0.00000000000E+00 0.  1.
         23    2    1    2    0    0 -0.15575828867E+02 -0.37930660687E+02  0.17468153098E+03  0.21873116979E+03  0.12509334877E+03 0.  0.
         23    2    1    2    0    0  0.15575828867E+02  0.37930660687E+02  0.20969213402E+03  0.23371022534E+03  0.94701303563E+02 0.  0.
          5    1    3    3  502    0 -0.24569130496E+02 -0.73526402735E+02  0.59633993669E+02  0.97895146322E+02  0.41800000000E+01 0. -1.
         -5    1    3    3    0  502  0.89933016293E+01  0.35595742048E+02  0.11504753731E+03  0.12083602347E+03  0.41800000000E+01 0. -1.
        -11    1    4    4    0    0 -0.21405916506E+02 -0.21934041958E+02  0.43282234861E+02  0.53034586004E+02  0.00000000000E+00 0.  1.
         11    1    4    4    0    0  0.36981745373E+02  0.59864702645E+02  0.16640989915E+03  0.18067563934E+03  0.00000000000E+00 0. -1.
</event>
<event>
 8    1  0.8619230E-006  0.1524791E+03  0.7561462E-02  0.1197459E+00
          1   -1    0    0  501    0  0.00000000000E+00  0.00000000000E+00  0.77530270682E+02  0.77530270682E+02  0.00000000000E+00 0. -1.
         -1   -1    0    0    0  501 -0.00000000000E+00 -0.00000000000E+00 -0.30029555601E+03  0.30029555601E+03  0.00000000000E+00 0.  1.
         23    2    1    2    0    0  0.24083249365E+02  0.10367519616E+03 -0.12335059087E+03  0.20540544361E+03  0.12508988287E+03 0.  0.
         23    2    1    2    0    0 -0.24083249365E+02 -0.10367519616E+03 -0.99414694451E+02  0.17242038308E+03  0.92287365483E+02 0.  0.
          5    1    3    3  502    0  0.70578059278E+02  0.29742022774E+02 -0.61280422005E+02  0.98176437557E+02  0.41800000000E+01 0. -1.
         -5    1    3    3    0  502 -0.46494809913E+02  0.73933173389E+02 -0.62070168868E+02  0.10722900605E+03  0.41800000000E+01 0. -1.
        -11    1    4    4    0    0  0.31184505718E+02 -0.68610570961E+02 -0.55636760434E+02  0.93676747147E+02  0.00000000000E+00 0. -1.
         11    1    4    4    0    0 -0.55267755083E+02 -0.35064625202E+02 -0.43777934017E+02  0.78743635929E+02  0.00000000000E+00 0.  1.
</event>
<event>
 8    1  0.8619230E-006  0.9207560E+02  0.7561462E-02  0.1297902E+00
         -3   -1    0    0    0  501 -0.00000000000E+00  0.00000000000E+00  0.62144945766E+02  0.62144945766E+02  0.00000000000E+00 0.  1.
          3   -1    0    0  501    0  0.00000000000E+00 -0.00000000000E+00 -0.20856992291E+03  0.20856992291E+03  0.00000000000E+00 0. -1.
         23    2    1    2    0    0  0.49197896476E+01  0.12583610313E+02 -0.45631516048E+02  0.13387694371E+03  0.12513292621E+03 0.  0.
         23    2    1    2    0    0 -0.49197896476E+01 -0.12583610313E+02 -0.10079346110E+03  0.13683792496E+03  0.91557328106E+02 0.  0.
          5    1    3    3  502    0 -0.45365015371E+02 -0.15028265584E+02  0.15039509240E+02  0.50274174526E+02  0.41800000000E+01 0. -1.
         -5    1    3    3    0  502  0.50284805019E+02  0.27611875896E+02 -0.60671025287E+02  0.83602769187E+02  0.41800000000E+01 0. -1.
        -11    1    4    4    0    0 -0.28727898636E+02  0.22341018094E+02 -0.11700723891E+02  0.38227217910E+02  0.00000000000E+00 0.  1.
         11    1    4    4    0    0  0.23808108988E+02 -0.34924628407E+02 -0.89092737205E+02  0.98610707054E+02  0.00000000000E+00 0. -1.
</event>
<event>
 8    1  0.8619230E-006  0.1339523E+03  0.7561462E-02  0.1221706E+00
         -2   -1    0    0    0  501 -0.00000000000E+00  0.00000000000E+00  0.90319657805E+02  0.90319657805E+02  0.00000000000E+00 0.  1.
          2   -1    0    0  501    0  0.00000000000E+00 -0.00000000000E+00 -0.21817419805E+03  0.21817419805E+03  0.00000000000E+00 0. -1.
         23    2    1    2    0    0 -0.55094150712E+02 -0.70377309000E+02 -0.69197413341E+02  0.16858789992E+03  0.12508104141E+03 0.  0.
         23    2    1    2    0    0  0.55094150712E+02  0.70377309000E+02 -0.58657126908E+02  0.13990595594E+03  0.90247919127E+02 0.  0.
          5    1    3    3  502    0 -0.20673920277E+02  0.28992824482E+02  0.95958973081E+01  0.37115340443E+02  0.41800000000E+01 0. -1.
         -5    1    3    3    0  502 -0.34420230435E+02 -0.99370133481E+02 -0.78793310649E+02  0.13147255947E+03  0.41800000000E+01 0. -1.
        -11    1    4    4    0    0  0.70801486536E+02  0.19324943254E+02 -0.29960210373E+02  0.79271168359E+02  0.00000000000E+00 0.  1.
         11    1    4    4    0    0 -0.15707335823E+02  0.51052365745E+02 -0.28696916536E+02  0.60634787585E+02  0.00000000000E+00 0. -1.
</event>
<event>
 8    1  0.8619230E-006  0.5623769E+02  0.7561462E-02  0.1414335E+00
          1   -1    0    0  501    0  0.00000000000E+00  0.00000000000E+00  0.79254095560E+02  0.79254095560E+02  0.00000000000E+00 0. -1.
         -1   -1    0    0    0  501 -0.00000000000E+00 -0.00000000000E+00 -0.15380592177E+03  0.15380592177E+03  0.00000000000E+00 0.  1.
         23    2    1    2    0    0  0.66028292065E+01 -0.67129825617E+01 -0.65786562420E+02  0.14166021120E+03  0.12510428511E+03 0.  0.
         23    2    1    2    0    0 -0.66028292065E+01  0.67129825617E+01 -0.87652637898E+01  0.91399806130E+02  0.90489962001E+02 0.  0.
          5    1    3    3  502    0  0.19769877541E+02 -0.12376754689E+02  0.33623894109E+02  0.41134787828E+02  0.41800000000E+01 0. -1.
         -5    1    3    3    0  502 -0.13167048335E+02  0.56637721276E+01 -0.99410456529E+02  0.10052542337E+03  0.41800000000E+01 0. -1.
        -11    1    4    4    0    0 -0.89715667141E+01  0.39738354183E+02  0.21916245596E+02  0.46259567913E+02  0.00000000000E+00 0. -1.
         11    1    4    4    0    0  0.23687375077E+01 -0.33025371621E+02 -0.30681509386E+02  0.45140238217E+02  0.00000000000E+00 0.  1.
</event>
<event>
 8    1  0.8619230E-006  0.9909469E+02  0.7561462E-02  0.1282211E+00
          3   -1    0    0  501    0  0.00000000000E+00  0.00000000000E+00  0.23683030434E+03  0.23683030434E+03  0.00000000000E+00 0. -1.
         -3   -1    0    0    0  501 -0.00000000000E+00 -0.00000000000E+00 -0.63738040586E+02  0.63738040586E+02  0.00000000000E+00 0.  1.
         23    2    1    2    0    0 -0.12191749211E+02 -0.54688499452E+02  0.75277381153E+02  0.15637791178E+03  0.12509155230E+03 0.  0.
         23    2    1    2    0    0  0.12191749211E+02  0.54688499452E+02  0.97814882601E+02  0.14419043315E+03  0.89909171013E+02 0.  0.
          5    1    3    3  502    0 -0.45812102927E+02 -0.59999849035E+02  0.21810102132E+01  0.75637027073E+02  0.41800000000E+01 0.  1.
         -5    1    3    3    0  502  0.33620353716E+02  0.53113495838E+01  0.73096370940E+02  0.80740884705E+02  0.41800000000E+01 0.  1.
        -11    1    4    4    0    0  0.13359502786E+01 -0.16361640531E+02  0.61518001792E+02  0.63670657202E+02  0.00000000000E+00 0. -1.
         11    1    4    4    0    0  0.10855798932E+02  0.71050139983E+02  0.36296880809E+02  0.80519775946E+02  0.00000000000E+00 0.  1.
</event>
<event>
 8    1  0.8619230E-006  0.6324835E+02  0.7561462E-02  0.1384684E+00
          3   -1    0    0  501    0  0.00000000000E+00  0.00000000000E+00  0.12175256882E+03  0.12175256882E+03  0.00000000000E+00 0. -1.
         -3   -1    0    0    0  501 -0.00000000000E+00 -0.00000000000E+00 -0.37646618560E+03  0.37646618560E+03  0.00000000000E+00 0.  1.
         23    2    1    2    0    0  0.25112829628E+02 -0.53681483360E-01 -0.34633706395E+03  0.36909009133E+03  0.12508987394E+03 0.  0.
         23    2    1    2    0    0 -0.25112829628E+02  0.53681483360E-01  0.91623447167E+02  0.12912866309E+03  0.87456837739E+02 0.  0.
          5    1    3    3  502    0  0.32103187378E+02 -0.11845815935E+02 -0.35199726586E+03  0.35368133336E+03  0.41800000000E+01 0.  1.
         -5    1    3    3    0  502 -0.69903577497E+01  0.11792134452E+02  0.56602019156E+01  0.15408757968E+02  0.41800000000E+01 0.  1.
        -11    1    4    4    0    0  0.22719895488E+02 -0.15374010146E+02  0.68532044598E+02  0.73818662787E+02  0.00000000000E+00 0. -1.
         11    1    4    4    0    0 -0.47832725116E+02  0.15427691630E+02  0.23091402569E+02  0.55310000304E+02  0.00000000000E+00 0.  1.
</event>
<event>
 8    1  0.8619230E-006  0.1480491E+03  0.7561462E-02  0.1202891E+00
          2   -1    0    0  501    0  0.00000000000E+00  0.00000000000E+00  0.28733421964E+03  0.28733421964E+03  0.00000000000E+00 0. -1.
         -2   -1    0    0    0  501 -0.00000000000E+00 -0.00000000000E+00 -0.81332339181E+02  0.81332339181E+02  0.00000000000E+00 0.  1.
         23    2    1    2    0    0 -0.66975590637E+02  0.83566478365E+02  0.13002030051E+03  0.20981669725E+03  0.12509469154E+03 0.  0.
         23    2    1    2    0    0  0.66975590637E+02 -0.83566478365E+02  0.75981579951E+02  0.15884986157E+03  0.89392348570E+02 0.  0.
          5    1    3    3  502    0  0.33691271170E+02  0.81600206106E+00  0.21597751423E+02  0.40245532410E+02  0.41800000000E+01 0. -1.
         -5    1    3    3    0  502 -0.10066686181E+03  0.82750476304E+02  0.10842254909E+03  0.16957116484E+03  0.41800000000E+01 0. -1.
        -11    1    4    4    0    0  0.23392902744E+02 -0.84992303790E+02  0.24726039050E+02  0.91554883045E+02  0.00000000000E+00 0.  1.
         11    1    4    4    0    0  0.43582687893E+02  0.14258254256E+01  0.51255540901E+02  0.67294978529E+02  0.00000000000E+00 0. -1.
</event>
<event>
 7    1  0.8619230E-006  0.1220440E+03  0.7561462E-02  0.1239763E+00
          3   -1    0    0  501    0  0.00000000000E+00  0.00000000000E+00  0.51835384049E+02  0.51835384049E+02  0.00000000000E+00 0. -1.
         -3   -1    0    0    0  501 -0.00000000000E+00 -0.00000000000E+00 -0.35193338527E+03  0.35193338527E+03  0.00000000000E+00 0.  1.
         23    2    1    2    0    0  0.35566603162E+01  0.76652783478E+02 -0.11330551392E+03  0.16269297042E+03  0.87991841046E+02 0.  0.
          5    1    1    2  502    0  0.63405053284E+02 -0.29750370961E+02 -0.94704695984E+02  0.11786321392E+03  0.41800000000E+01 0. -1.
         -5    1    1    2    0  502 -0.66961713601E+02 -0.46902412517E+02 -0.92087791318E+02  0.12321258498E+03  0.41800000000E+01 0.  1.
        -11    1    3    3    0    0 -0.23702254010E+02  0.37280588043E+02 -0.52332631802E+01  0.44486246566E+02  0.00000000000E+00 0. -1.
         11    1    3    3    0    0  0.27258914326E+02  0.39372195435E+02 -0.10807225074E+03  0.11820672385E+03  0.00000000000E+00 0.  1.
</event>
<event>
 7    1  0.8619230E-006  0.1135914E+03  0.7561462E-02  0.1254060E+00
         -1   -1    0    0    0  501 -0.00000000000E+00  0.00000000000E+00  0.39246449177E+02  0.39246449177E+02  0.00000000000E+00 0.  1.
          1   -1    0    0  501    0  0.00000000000E+00 -0.00000000000E+00 -0.44373250526E+03  0.44373250526E+03  0.00000000000E+00 0. -1.
         23    2    1    2    0    0  0.33851150379E+02  0.21390125402E+02 -0.17973213031E+03  0.20527055112E+03  0.90713409392E+02 0.  0.
          5    1    1    2  502    0  0.61985893027E+02  0.75678212789E+01 -0.95088794805E+02  0.11383705087E+03  0.41800000000E+01 0. -1.
         -5    1    1    2    0  502 -0.95837043406E+02 -0.28957946681E+02 -0.12966513096E+03  0.16387135245E+03  0.41800000000E+01 0.  1.
        -11    1    3    3    0    0  0.30566264345E+02 -0.10511384993E+02 -0.11966471927E+02  0.34467117385E+02  0.00000000000E+00 0.  1.
         11    1    3    3    0    0  0.32848860340E+01  0.31901510395E+02 -0.16776565839E+03  0.17080343373E+03  0.00000000000E+00 0. -1.
</event>
<event>
 8    1  0.8619230E-006  0.1041755E+03  0.7561462E-02  0.1271753E+00
         -2   -1    0    0    0  501 -0.00000000000E+00  0.00000000000E+00  0.25492220651E+03  0.25492220651E+03  0.00000000000E+00 0.  1.
          2   -1    0    0  501    0  0.00000000000E+00 -0.00000000000E+00 -0.10369618484E+03  0.10369618484E+03  0.00000000000E+00 0. -1.
         23    2    1    2    0    0 -0.26677274197E+02 -0.52332199744E+02  0.18992869155E+03  0.23487530415E+03  0.12507263704E+03 0.  0.
         23    2    1    2    0    0  0.26677274197E+02  0.52332199744E+02 -0.38702669877E+02  0.12374308721E+03  0.10180431665E+03 0.  0.
          5    1    3    3  502    0  0.19159826448E+02  0.31890274884E+02  0.83807239572E+02  0.91788966583E+02  0.41800000000E+01 0.  1.
         -5    1    3    3    0  502 -0.45837100645E+02 -0.84222474628E+02  0.10612145198E+03  0.14308633756E+03  0.41800000000E+01 0.  1.
        -11    1    4    4    0    0  0.79652458616E+01 -0.82863207822E+01  0.28859502579E+02  0.31064113425E+02  0.00000000000E+00 0.  1.
         11    1    4    4    0    0  0.18712028336E+02  0.60618520526E+02 -0.67562172457E+02  0.92678973787E+02  0.00000000000E+00 0. -1.
</event>
<event>
 8    1  0.8619230E-006  0.2315336E+03  0.7561462E-02  0.1125565E+00
          1   -1    0    0  501    0  0.00000000000E+00  0.00000000000E+00  0.13121014140E+04  0.13121014140E+04  0.00000000000E+00 0. -1.
         -1   -1    0    0    0  501 -0.00000000000E+00 -0.00000000000E+00 -0.43015187091E+02  0.43015187091E+02  0.00000000000E+00 0.  1.
         23    2    1    2    0    0 -0.10232910829E+03  0.18139526974E+03  0.56557567047E+03  0.61554704256E+03  0.12508729870E+03 0.  0.
         23    2    1    2    0    0  0.10232910829E+03 -0.18139526974E+03  0.70351055641E+03  0.73956955850E+03  0.93062014736E+02 0.  0.
          5    1    3    3  502    0 -0.45022029555E+02 -0.71379449652E+01  0.11267855506E+03  0.12162180139E+03  0.41800000000E+01 0.  1.
         -5    1    3    3    0  502 -0.57307078733E+02  0.18853321471E+03  0.45289711541E+03  0.49392524117E+03  0.41800000000E+01 0.  1.
        -11    1    4    4    0    0  0.85275756527E+02 -0.78525792301E+02  0.27264589181E+03  0.29626683417E+03  0.00000000000E+00 0.  1.
         11    1    4    4    0    0  0.17053351761E+02 -0.10286947744E+03  0.43086466460E+03  0.44330272433E+03  0.00000000000E+00 0. -1.
</event>
<event>
 8    1  0.8619230E-006  0.8833673E+02  0.7561462E-02  0.1306930E+00
          1   -1    0    0  501    0  0.00000000000E+00  0.00000000000E+00  0.43646293398E+03  0.43646293398E+03  0.00000000000E+00 0. -1.
         -1   -1    0    0    0  501 -0.00000000000E+00 -0.00000000000E+00 -0.33977732185E+02  0.33977732185E+02  0.00000000000E+00 0.  1.
         23    2    1    2    0    0 -0.43463895833E+01  0.50713268253E+02  0.17801642282E+03  0.22344630206E+03  0.12509067285E+03 0.  0.
         23    2    1    2    0    0  0.43463895833E+01 -0.50713268253E+02  0.22446877898E+03  0.24699436410E+03  0.89606118560E+02 0.  0.
          5    1    3    3  502    0  0.50406677876E+02  0.24086813010E+02  0.30459377060E+02  0.63767184243E+02  0.41800000000E+01 0. -1.
         -5    1    3    3    0  502 -0.54753067459E+02  0.26626455243E+02  0.14755704576E+03  0.15967911782E+03  0.41800000000E+01 0. -1.
        -11    1    4    4    0    0 -0.12205366816E+02 -0.10364810048E+02 -0.22047602241E+01  0.16163577391E+02  0.00000000000E+00 0.  1.
         11    1    4    4    0    0  0.16551756400E+02 -0.40348458205E+02  0.22667353920E+03  0.23083078671E+03  0.00000000000E+00 0. -1.
</event>
<event>
 8    1  0.8619230E-006  0.2565974E+03  0.7561462E-02  0.1109205E+00
         -1   -1    0    0    0  501 -0.00000000000E+00  0.00000000000E+00  0.14896157752E+03  0.14896157752E+03  0.00000000000E+00 0.  1.
          1   -1    0    0  501    0  0.00000000000E+00 -0.00000000000E+00 -0.55860414471E+03  0.55860414471E+03  0.00000000000E+00 0. -1.
         23    2    1    2    0    0 -0.11096957943E+03 -0.21867948718E+03 -0.78995232059E+02  0.28639526201E+03  0.12508810392E+03 0.  0.
         23    2    1    2    0    0  0.11096957943E+03  0.21867948718E+03 -0.33064733514E+03  0.42117046022E+03  0.89005228262E+02 0.  0.
          5    1    3    3  502    0 -0.87520804887E+02 -0.10453415549E+03  0.14183343905E+02  0.13713468050E+03  0.41800000000E+01 0. -1.
         -5    1    3    3    0  502 -0.23448774541E+02 -0.11414533169E+03 -0.93178575965E+02  0.14926058151E+03  0.41800000000E+01 0. -1.
        -11    1    4    4    0    0  0.15086986446E+02 -0.57442716360E+01 -0.28698937535E+02  0.32927842813E+02  0.00000000000E+00 0.  1.
         11    1    4    4    0    0  0.95882592981E+02  0.22442375881E+03 -0.30194839760E+03  0.38824261741E+03  0.00000000000E+00 0. -1.
</event>
<event>
 8    1  0.8619230E-006  0.1571965E+03  0.7561462E-02  0.1191899E+00
          1   -1    0    0  501    0  0.00000000000E+00  0.00000000000E+00  0.14092094341E+04  0.14092094341E+04  0.00000000000E+00 0. -1.
         -1   -1    0    0    0  501 -0.00000000000E+00 -0.00000000000E+00 -0.22678842219E+02  0.22678842219E+02  0.00000000000E+00 0.  1.
         23    2    1    2    0    0 -0.55096344005E+02 -0.13107913550E+03  0.59461295853E+03  0.62300310018E+03  0.11979543188E+03 0.  0.
         23    2    1    2    0    0  0.55096344005E+02  0.13107913550E+03  0.79191763333E+03  0.80888517612E+03  0.83332726309E+02 0.  0.
          5    1    3    3  502    0 -0.90877116883E+00 -0.60937635255E+02  0.44409586478E+03  0.44827762689E+03  0.41800000000E+01 0. -1.
         -5    1    3    3    0  502 -0.54187572836E+02 -0.70141500245E+02  0.15051709375E+03  0.17472547330E+03  0.41800000000E+01 0.  1.
        -11    1    4    4    0    0  0.26822949260E+01  0.10675547689E+03  0.53418274676E+03  0.54475235978E+03  0.00000000000E+00 0. -1.
         11    1    4    4    0    0  0.52414049079E+02  0.24323658612E+02  0.25773488657E+03  0.26413281634E+03  0.00000000000E+00 0.  1.
</event>
<event>
 8    1  0.8619230E-006  0.1104058E+03  0.7561462E-02  0.1259820E+00
          1   -1    0    0  501    0  0.00000000000E+00  0.00000000000E+00  0.18454919824E+03  0.18454919824E+03  0.00000000000E+00 0. -1.
         -1   -1    0    0    0  501 -0.00000000000E+00 -0.00000000000E+00 -0.74764199873E+02  0.74764199873E+02  0.00000000000E+00 0.  1.
         23    2    1    2    0    0 -0.38689450794E+02 -0.86355498175E+01  0.78381889982E+02  0.15285240749E+03  0.12509473001E+03 0.  0.
         23    2    1    2    0    0  0.38689450794E+02  0.86355498175E+01  0.31403108386E+02  0.10646099062E+03  0.93682127348E+02 0.  0.
          5    1    3    3  502    0 -0.30203597466E+02  0.50920857032E+02  0.75541763278E+01  0.59830836203E+02  0.41800000000E+01 0. -1.
         -5    1    3    3    0  502 -0.84858533276E+01 -0.59556406849E+02  0.70827713654E+02  0.93021571288E+02  0.41800000000E+01 0. -1.
        -11    1    4    4    0    0 -0.22966592219E+01 -0.38571411279E+02  0.17494501063E+02  0.42415633664E+02  0.00000000000E+00 0. -1.
         11    1    4    4    0    0  0.40986110016E+02  0.47206961097E+02  0.13908607323E+02  0.64045356958E+02  0.00000000000E+00 0.  1.
</event>
<event>
 8    1  0.8619230E-006  0.1061135E+03  0.7561462E-02  0.1267941E+00
         -1   -1    0    0    0  501 -0.00000000000E+00  0.00000000000E+00  0.36600593584E+03  0.36600593584E+03  0.00000000000E+00 0.  1.
          1   -1    0    0  501    0  0.00000000000E+00 -0.00000000000E+00 -0.36894213685E+02  0.36894213685E+02  0.00000000000E+00 0. -1.
         23    2    1    2    0    0 -0.30200437063E+02 -0.89587624072E+01  0.23282798167E+03  0.26617594361E+03  0.12509371722E+03 0.  0.
         23    2    1    2    0    0  0.30200437063E+02  0.89587624072E+01  0.96283740483E+02  0.13672420591E+03  0.91818429402E+02 0.  0.
          5    1    3    3  502    0 -0.76447494153E+02  0.12854826651E+01  0.17692402176E+03  0.19278343732E+03  0.41800000000E+01 0.  1.
         -5    1    3    3    0  502  0.46247057090E+02 -0.10244245072E+02  0.55903959905E+02  0.73392506291E+02  0.41800000000E+01 0.  1.
        -11    1    4    4    0    0  0.54783262088E+01  0.44484814046E+02  0.77532240035E+02  0.89555340341E+02  0.00000000000E+00 0.  1.
         11    1    4    4    0    0  0.24722110854E+02 -0.35526051638E+02  0.18751500448E+02  0.47168865570E+02  0.00000000000E+00 0. -1.
</event>
<event>
 8    1  0.8619230E-006  0.2680875E+03  0.7561462E-02  0.1102379E+00
         -2   -1    0    0    0  501 -0.00000000000E+00  0.00000000000E+00  0.31524320914E+03  0.31524320914E+03  0.00000000000E+00 0.  1.
          2   -1    0    0  501    0  0.00000000000E+00 -0.00000000000E+00 -0.28376598140E+03  0.28376598140E+03  0.00000000000E+00 0. -1.
         23    2    1    2    0    0 -0.24273267179E+03 -0.90647475174E+02  0.11886076808E+03  0.31130503021E+03  0.12508726928E+03 0.  0.
         23    2    1    2    0    0  0.24273267179E+03  0.90647475174E+02 -0.87383540339E+02  0.28770416033E+03  0.89452143830E+02 0.  0.
          5    1    3    3  502    0 -0.10784618213E+01 -0.22302136698E+02  0.43501533736E+02  0.49075495092E+02  0.41800000000E+01 0. -1.
         -5    1    3    3    0  502 -0.24165420997E+03 -0.68345338476E+02  0.75359234343E+02  0.26222953512E+03  0.41800000000E+01 0. -1.
        -11    1    4    4    0    0  0.11429174971E+03  0.64430234375E+02 -0.85499133419E+02  0.15660128022E+03  0.00000000000E+00 0. -1.
         11    1    4    4    0    0  0.12844092209E+03  0.26217240799E+02 -0.18844069200E+01  0.13110288010E+03  0.00000000000E+00 0.  1.
</event>
<event>
 8    1  0.8619230E-006  0.1246442E+03  0.7561462E-02  0.1235626E+00
         -2   -1    0    0    0  501 -0.00000000000E+00  0.00000000000E+00  0.75818704305E+02  0.75818704305E+02  0.00000000000E+00 0.  1.
          2   -1    0    0  501    0  0.00000000000E+00 -0.00000000000E+00 -0.39933480994E+03  0.39933480994E+03  0.00000000000E+00 0. -1.
         23    2    1    2    0    0 -0.23791807285E+00 -0.11779583292E+03 -0.77633605992E+02  0.18854769121E+03  0.12508932897E+03 0.  0.
         23    2    1    2    0    0  0.23791807285E+00  0.11779583292E+03 -0.24588249964E+03  0.28660582303E+03  0.88367297722E+02 0.  0.
          5    1    3    3  502    0 -0.24301004657E+02 -0.89539025202E+02  0.98810791418E+01  0.93396381013E+02  0.41800000000E+01 0.  1.
         -5    1    3    3    0  502  0.24063086584E+02 -0.28256807722E+02 -0.87514685134E+02  0.95151310199E+02  0.41800000000E+01 0.  1.
        -11    1    4    4    0    0 -0.71531759758E+01  0.90689156747E+02 -0.89136753376E+02  0.12736189336E+03  0.00000000000E+00 0.  1.
         11    1    4    4    0    0  0.73910940486E+01  0.27106676177E+02 -0.15674574627E+03  0.15924392967E+03  0.00000000000E+00 0. -1.
</event>
<event>
 8    1  0.8619230E-006  0.1105102E+03  0.7561462E-02  0.1259628E+00
         -2   -1    0    0    0  501 -0.00000000000E+00  0.00000000000E+00  0.64571868994E+02  0.64571868994E+02  0.00000000000E+00 0.  1.
          2   -1    0    0  501    0  0.00000000000E+00 -0.00000000000E+00 -0.20640262958E+03  0.20640262958E+03  0.00000000000E+00 0. -1.
         23    2    1    2    0    0  0.35432631568E+02 -0.53085636991E+01 -0.51987090582E+02  0.14011932913E+03  0.12508843503E+03 0.  0.
         23    2    1    2    0    0 -0.35432631568E+02  0.53085636991E+01 -0.89843670005E+02  0.13085516945E+03  0.88133637750E+02 0.  0.
          5    1    3    3  502    0 -0.42694636448E+02 -0.24332751775E+02 -0.24236687344E+02  0.54952745189E+02  0.41800000000E+01 0.  1.
         -5    1    3    3    0  502  0.78127268016E+02  0.19024188076E+02 -0.27750403238E+02  0.85166583937E+02  0.41800000000E+01 0.  1.
        -11    1    4    4    0    0 -0.59973180462E+02  0.19214142300E+02 -0.43278590142E+02  0.76413362730E+02  0.00000000000E+00 0. -1.
         11    1    4    4    0    0  0.24540548893E+02 -0.13905578600E+02 -0.46565079863E+02  0.54441806719E+02  0.00000000000E+00 0.  1.
</event>
<event>
 8    1  0.8619230E-006  0.9974258E+02  0.7561462E-02  0.1280838E+00
          2   -1    0    0  501    0  0.00000000000E+00  0.00000000000E+00  0.48570411334E+02  0.48570411334E+02  0.00000000000E+00 0.  1.
         -2   -1    0    0    0  501 -0.00000000000E+00 -0.00000000000E+00 -0.26692043791E+03  0.26692043791E+03  0.00000000000E+00 0. -1.
         23    2    1    2    0    0  0.30945663256E+02  0.14046160706E+02 -0.14863205326E+03  0.19720804453E+03  0.12507836289E+03 0.  0.
         23    2    1    2    0    0 -0.30945663256E+02 -0.14046160706E+02 -0.69717973311E+02  0.11828280471E+03  0.89304520510E+02 0.  0.
          5    1    3    3  502    0  0.53068228639E+02  0.43940475568E+02 -0.34639175805E+02  0.77229186093E+02  0.41800000000E+01 0. -1.
         -5    1    3    3    0  502 -0.22122565383E+02 -0.29894314862E+02 -0.11399287746E+03  0.11997885843E+03  0.41800000000E+01 0. -1.
        -11    1    4    4    0    0 -0.28101237532E+02  0.34449382244E+02 -0.19924738747E+02  0.48717909458E+02  0.00000000000E+00 0.  1.
         11    1    4    4    0    0 -0.28444257248E+01 -0.48495542950E+02 -0.49793234563E+02  0.69564895256E+02  0.00000000000E+00 0. -1.
</event>
<event>
 8    1  0.8619230E-006  0.8444817E+02  0.7561462E-02  0.1316882E+00
         -4   -1    0    0    0  501 -0.00000000000E+00  0.00000000000E+00  0.11828519175E+03  0.11828519175E+03  0.00000000000E+00 0.  1.
          4   -1    0    0  501    0  0.00000000000E+00 -0.00000000000E+00 -0.22039432731E+03  0.22039432731E+03  0.00000000000E+00 0. -1.
         23    2    1    2    0    0 -0.31327345777E+02  0.65621388971E+00  0.65032367292E+02  0.14441545652E+03  0.12507910327E+03 0.  0.
         23    2    1    2    0    0  0.31327345777E+02 -0.65621388971E+00 -0.16714150285E+03  0.19426406253E+03  0.93917042157E+02 0.  0.
          5    1    3    3  502    0  0.28623663726E+02  0.18217389775E+02 -0.19396429998E+02  0.39304978208E+02  0.41800000000E+01 0.  1.
         -5    1    3    3    0  502 -0.59951009503E+02 -0.17561175885E+02  0.84428797290E+02  0.10511047831E+03  0.41800000000E+01 0.  1.
        -11    1    4    4    0    0  0.46014919399E+02 -0.17967400341E+02 -0.35880263755E+02  0.61054022058E+02  0.00000000000E+00 0.  1.
         11    1    4    4    0    0 -0.14687573621E+02  0.17311186452E+02 -0.13126123909E+03  0.13321004048E+03  0.00000000000E+00 0. -1.
</event>
<event>
 8    1  0.8619230E-006  0.9402297E+02  0.7561462E-02  0.1293392E+00
         -1   -1    0    0    0  501 -0.00000000000E+00  0.00000000000E+00  0.88825532617E+02  0.88825532617E+02  0.00000000000E+00 0.  1.
          1   -1    0    0  501    0  0.00000000000E+00 -0.00000000000E+00 -0.14506644479E+03  0.14506644479E+03  0.00000000000E+00 0. -1.
         23    2    1    2    0    0  0.54083785535E+01 -0.23898495933E+02 -0.73885349541E+01  0.12768394140E+03  0.12509280466E+03 0.  0.
         23    2    1    2    0    0 -0.54083785535E+01  0.23898495933E+02 -0.48852377221E+02  0.10620803601E+03  0.91067027437E+02 0.  0.
          5    1    3    3  502    0 -0.47033298415E+02  0.23851610205E+02  0.11569173667E+02  0.54151164793E+02  0.41800000000E+01 0. -1.
         -5    1    3    3    0  502  0.52441676968E+02 -0.47750106138E+02 -0.18957708622E+02  0.73532776608E+02  0.41800000000E+01 0. -1.
        -11    1    4    4    0    0 -0.94451401051E+01  0.43281030569E+02  0.88750321459E+01  0.45179912287E+02  0.00000000000E+00 0.  1.
         11    1    4    4    0    0  0.40367615516E+01 -0.19382534635E+02 -0.57727409366E+02  0.61028123721E+02  0.00000000000E+00 0. -1.
</event>
<event>
 8    1  0.8619230E-006  0.1186705E+03  0.7561462E-02  0.1245307E+00
         -2   -1    0    0    0  501 -0.00000000000E+00  0.00000000000E+00  0.46949230947E+02  0.46949230947E+02  0.00000000000E+00 0.  1.
          2   -1    0    0  501    0  0.00000000000E+00 -0.00000000000E+00 -0.47764177157E+03  0.47764177157E+03  0.00000000000E+00 0. -1.
         23    2    1    2    0    0 -0.21810199875E+01 -0.98807272652E+02 -0.18336879713E+03  0.24297680954E+03  0.12508389280E+03 0.  0.
         23    2    1    2    0    0  0.21810199875E+01  0.98807272652E+02 -0.24732374350E+03  0.28161419298E+03  0.91487078932E+02 0.  0.
          5    1    3    3  502    0 -0.27883144656E+02  0.72433370041E+01 -0.10395326624E+03  0.10795225634E+03  0.41800000000E+01 0. -1.
         -5    1    3    3    0  502  0.25702124669E+02 -0.10605060966E+03 -0.79415530886E+02  0.13502455320E+03  0.41800000000E+01 0. -1.
        -11    1    4    4    0    0  0.44080638123E+01  0.66555590052E+02 -0.54602947367E+02  0.86200692891E+02  0.00000000000E+00 0.  1.
         11    1    4    4    0    0 -0.22270438248E+01  0.32251682600E+02 -0.19272079613E+03  0.19541350009E+03  0.00000000000E+00 0. -1.
</event>
<event>
 8    1  0.8619230E-006  0.6105545E+02  0.7561462E-02  0.1393455E+00
         -1   -1    0    0    0  501 -0.00000000000E+00  0.00000000000E+00  0.57544922010E+02  0.57544922010E+02  0.00000000000E+00 0.  1.
          1   -1    0    0  501    0  0.00000000000E+00 -0.00000000000E+00 -0.22216890713E+03  0.22216890713E+03  0.00000000000E+00 0. -1.
         23    2    1    2    0    0 -0.10084934901E+02  0.61358043525E+01 -0.61850275512E+02  0.14004120871E+03  0.12508688799E+03 0.  0.
         23    2    1    2    0    0  0.10084934901E+02 -0.61358043525E+01 -0.10277370960E+03  0.13967262043E+03  0.93843761141E+02 0.  0.
          5    1    3    3  502    0 -0.17889259729E+02  0.27310497648E+01  0.36648844557E+02  0.41086426637E+02  0.41800000000E+01 0.  1.
         -5    1    3    3    0  502  0.78043248277E+01  0.34047545877E+01 -0.98499120069E+02  0.98954782068E+02  0.41800000000E+01 0.  1.
        -11    1    4    4    0    0 -0.32542953986E+02 -0.30796960433E+02 -0.41606761886E+02  0.61144249612E+02  0.00000000000E+00 0.  1.
         11    1    4    4    0    0  0.42627888887E+02  0.24661156080E+02 -0.61166947719E+02  0.78528370818E+02  0.00000000000E+00 0. -1.
</event>
<event>
 7    1  0.8619230E-006  0.2725038E+03  0.7561462E-02  0.1099855E+00
         -1   -1    0    0    0  501 -0.00000000000E+00  0.00000000000E+00  0.48430376013E+02  0.48430376013E+02  0.00000000000E+00 0.  1.
          1   -1    0    0  501    0  0.00000000000E+00 -0.00000000000E+00 -0.16448450890E+04  0.16448450890E+04  0.00000000000E+00 0. -1.
         23    2    1    2    0    0  0.34003977540E+02 -0.40151114787E+02 -0.51655779767E+03  0.52769743485E+03  0.94150103069E+02 0.  0.
          5    1    1    2  502    0  0.36889792760E+02  0.23136136233E+03 -0.55141179869E+03  0.59913385894E+03  0.41800000000E+01 0. -1.
         -5    1    1    2    0  502 -0.70893770300E+02 -0.19121024754E+03 -0.52844511665E+03  0.56644417125E+03  0.41800000000E+01 0.  1.
        -11    1    3    3    0    0  0.66190777296E+02 -0.21938288015E+02 -0.37233741861E+03  0.37881085093E+03  0.00000000000E+00 0.  1.
         11    1    3    3    0    0 -0.32186799756E+02 -0.18212826773E+02 -0.14422037905E+03  0.14888658392E+03  0.00000000000E+00 0. -1.
</event>
<event>
 7    1  0.8619230E-006  0.1687296E+03  0.7561462E-02  0.1179179E+00
         -4   -1    0    0    0  501 -0.00000000000E+00  0.00000000000E+00  0.15863964264E+03  0.15863964264E+03  0.00000000000E+00 0. -1.
          4   -1    0    0  501    0  0.00000000000E+00 -0.00000000000E+00 -0.78578769377E+03  0.78578769377E+03  0.00000000000E+00 0.  1.
         23    2    1    2    0    0  0.45992292302E+02 -0.47347025082E+02 -0.23805123079E+03  0.25779791345E+03  0.73718002987E+02 0.  0.
          5    1    1    2  502    0 -0.10603506246E+03 -0.56060441431E+02 -0.50558884086E+03  0.51963810096E+03  0.41800000000E+01 0.  1.
         -5    1    1    2    0  502  0.60042770159E+02  0.10340746651E+03  0.11649202052E+03  0.16699132200E+03  0.41800000000E+01 0. -1.
        -11    1    3    3    0    0  0.12729962851E+02  0.19409327950E+02 -0.74741238280E+02  0.78262549570E+02  0.00000000000E+00 0.  1.
         11    1    3    3    0    0  0.33262329451E+02 -0.66756353031E+02 -0.16330999251E+03  0.17953536388E+03  0.00000000000E+00 0. -1.
</event>
<event>
 8    1  0.8619230E-006  0.1088483E+03  0.7561462E-02  0.1262718E+00
          1   -1    0    0  501    0  0.00000000000E+00  0.00000000000E+00  0.21006496929E+03  0.21006496929E+03  0.00000000000E+00 0. -1.
         -1   -1    0    0    0  501 -0.00000000000E+00 -0.00000000000E+00 -0.63926058210E+02  0.63926058210E+02  0.00000000000E+00 0.  1.
         23    2    1    2    0    0  0.29520057792E+02 -0.14367773856E+02  0.54967961958E+02  0.14051051476E+03  0.12507542196E+03 0.  0.
         23    2    1    2    0    0 -0.29520057792E+02  0.14367773856E+02  0.91170949119E+02  0.13348051274E+03  0.91798902937E+02 0.  0.
          5    1    3    3  502    0  0.77425625203E+02 -0.22052895678E+02  0.33968166134E+02  0.87477804935E+02  0.41800000000E+01 0. -1.
         -5    1    3    3    0  502 -0.47905567411E+02  0.76851218226E+01  0.20999795824E+02  0.53032709822E+02  0.41800000000E+01 0. -1.
        -11    1    4    4    0    0  0.28825073084E+02  0.60054502347E+01  0.59928094420E+02  0.66770702944E+02  0.00000000000E+00 0. -1.
         11    1    4    4    0    0 -0.58345130876E+02  0.83623236210E+01  0.31242854699E+02  0.66709809796E+02  0.00000000000E+00 0.  1.
</event>
<event>
 8    1  0.8619230E-006  0.1486873E+03  0.7561462E-02  0.1202095E+00
         -1   -1    0    0    0  501 -0.00000000000E+00  0.00000000000E+00  0.60256976808E+02  0.60256976808E+02  0.00000000000E+00 0.  1.
          1   -1    0    0  501    0  0.00000000000E+00 -0.00000000000E+00 -0.47988041425E+03  0.47988041425E+03  0.00000000000E+00 0. -1.
         23    2    1    2    0    0 -0.11902888183E+03  0.48591539469E+02 -0.19103666762E+03  0.26204895350E+03  0.12508250572E+03 0.  0.
         23    2    1    2    0    0  0.11902888183E+03 -0.48591539469E+02 -0.22858676982E+03  0.27808843756E+03  0.92478404771E+02 0.  0.
          5    1    3    3  502    0 -0.12108443463E+03  0.73712799468E+02 -0.11740266798E+03  0.18410832671E+03  0.41800000000E+01 0. -1.
         -5    1    3    3    0  502  0.20555527989E+01 -0.25121259999E+02 -0.73633999639E+02  0.77940626788E+02  0.41800000000E+01 0. -1.
        -11    1    4    4    0    0  0.28411104283E+02 -0.20839065152E+02 -0.15260067268E+03  0.15661552536E+03  0.00000000000E+00 0. -1.
         11    1    4    4    0    0  0.90617777549E+02 -0.27752474317E+02 -0.75986097145E+02  0.12147291220E+03  0.00000000000E+00 0.  1.
</event>
<event>
 8    1  0.8619230E-006  0.1905275E+03  0.7561462E-02  0.1157986E+00
         -4   -1    0    0    0  501 -0.00000000000E+00  0.00000000000E+00  0.38449179239E+03  0.38449179239E+03  0.00000000000E+00 0. -1.
          4   -1    0    0  501    0  0.00000000000E+00 -0.00000000000E+00 -0.12328281573E+03  0.12328281573E+03  0.00000000000E+00 0.  1.
         23    2    1    2    0    0  0.17242016215E+03 -0.16120770906E+02  0.22073933093E+03  0.30718388236E+03  0.12508994281E+03 0.  0.
         23    2    1    2    0    0 -0.17242016215E+03  0.16120770906E+02  0.40469645722E+02  0.20059072576E+03  0.92791462247E+02 0.  0.
          5    1    3    3  502    0  0.12901418075E+03  0.24841460284E+02  0.79069250613E+02  0.15339874763E+03  0.41800000000E+01 0.  1.
         -5    1    3    3    0  502  0.43405981396E+02 -0.40962231190E+02  0.14167008032E+03  0.15378513473E+03  0.41800000000E+01 0.  1.
        -11    1    4    4    0    0 -0.12308571278E+03  0.46797233880E+02  0.51616721253E+02  0.14143676927E+03  0.00000000000E+00 0. -1.
         11    1    4    4    0    0 -0.49334449366E+02 -0.30676462975E+02 -0.11147075531E+02  0.59153956485E+02  0.00000000000E+00 0.  1.
</event>
<event>
 8    1  0.8619230E-006  0.1072339E+03  0.7561462E-02  0.1265780E+00
         -2   -1    0    0    0  501 -0.00000000000E+00  0.00000000000E+00  0.13266133035E+03  0.13266133035E+03  0.00000000000E+00 0.  1.
          2   -1    0    0  501    0  0.00000000000E+00 -0.00000000000E+00 -0.24727821664E+03  0.24727821664E+03  0.00000000000E+00 0. -1.
         23    2    1    2    0    0  0.50834425841E+02  0.28946622138E+02  0.80268241974E+02  0.15972753197E+03  0.12509135867E+03 0.  0.
         23    2    1    2    0    0 -0.50834425841E+02 -0.28946622138E+02 -0.19488512827E+03  0.22021201502E+03  0.84208506433E+02 0.  0.
          5    1    3    3  502    0 -0.60791140247E+01  0.68137284360E+02  0.45452450295E+02  0.82237721181E+02  0.41800000000E+01 0.  1.
         -5    1    3    3    0  502  0.56913539865E+02 -0.39190662222E+02  0.34815791679E+02  0.77489810786E+02  0.41800000000E+01 0.  1.
        -11    1    4    4    0    0  0.37728405408E+01  0.92992700483E+01  0.37299950783E+01  0.10706241752E+02  0.00000000000E+00 0.  1.
         11    1    4    4    0    0 -0.54607266381E+02 -0.38245892186E+02 -0.19861512335E+03  0.20950577327E+03  0.00000000000E+00 0. -1.
</event>
<event>
 8    1  0.8619230E-006  0.1068223E+03  0.7561462E-02  0.1266570E+00
         -1   -1    0    0    0  501 -0.00000000000E+00  0.00000000000E+00  0.76802635458E+02  0.76802635458E+02  0.00000000000E+00 0.  1.
          1   -1    0    0  501    0  0.00000000000E+00 -0.00000000000E+00 -0.19932516225E+03  0.19932516225E+03  0.00000000000E+00 0. -1.
         23    2    1    2    0    0 -0.23083268814E+02  0.63422622502E+02 -0.86308535197E+02  0.16628899191E+03  0.12509036429E+03 0.  0.
         23    2    1    2    0    0  0.23083268814E+02 -0.63422622502E+02 -0.36213991593E+02  0.10983880580E+03  0.78726385207E+02 0.  0.
          5    1    3    3  502    0 -0.34058955620E+02 -0.26991081959E+02 -0.54268764643E+02  0.69649854121E+02  0.41800000000E+01 0.  1.
         -5    1    3    3    0  502  0.10975686806E+02  0.90413704460E+02 -0.32039770554E+02  0.96639137787E+02  0.41800000000E+01 0.  1.
        -11    1    4    4    0    0  0.34927936525E+02 -0.46463989732E+02 -0.56359381753E+02  0.80964455185E+02  0.00000000000E+00 0. -1.
         11    1    4    4    0    0 -0.11844667711E+02 -0.16958632769E+02  0.20145390161E+02  0.28874350613E+02  0.00000000000E+00 0.  1.
</event>
<event>
 8    1  0.8619230E-006  0.1274499E+03  0.7561462E-02  0.1231289E+00
         -2   -1    0    0    0  501 -0.00000000000E+00  0.00000000000E+00  0.80154625296E+03  0.80154625296E+03  0.00000000000E+00 0.  1.
          2   -1    0    0  501    0  0.00000000000E+00 -0.00000000000E+00 -0.27243793049E+02  0.27243793049E+02  0.00000000000E+00 0. -1.
         23    2    1    2    0    0  0.87034031641E+02 -0.22303360925E+02  0.54833321596E+03  0.56955181096E+03  0.12509031566E+03 0.  0.
         23    2    1    2    0    0 -0.87034031641E+02  0.22303360925E+02  0.22596924396E+03  0.25923823506E+03  0.89833182777E+02 0.  0.
          5    1    3    3  502    0 -0.23034757516E+01 -0.54837423331E+02  0.26519248669E+03  0.27084493053E+03  0.41800000000E+01 0. -1.
         -5    1    3    3    0  502  0.89337507393E+02  0.32534062406E+02  0.28314072927E+03  0.29870688043E+03  0.41800000000E+01 0. -1.
        -11    1    4    4    0    0 -0.64689713383E+02 -0.99485315340E+01  0.20406082253E+03  0.21430014370E+03  0.00000000000E+00 0.  1.
         11    1    4    4    0    0 -0.22344318258E+02  0.32251892459E+02  0.21908421432E+02  0.44938091362E+02  0.00000000000E+00 0. -1.
</event>
<event>
 8    1  0.8619230E-006  0.8521281E+02  0.7561462E-02  0.1314877E+00
          1   -1    0    0  501    0  0.00000000000E+00  0.00000000000E+00  0.14320263171E+03  0.14320263171E+03  0.00000000000E+00 0. -1.
         -1   -1    0    0    0  501 -0.00000000000E+00 -0.00000000000E+00 -0.12217572910E+03  0.12217572910E+03  0.00000000000E+00 0.  1.
         23    2    1    2    0    0 -0.66491036875E+02 -0.35900464950E+02  0.24983600880E+01  0.14616237370E+03  0.12508915346E+03 0.  0.
         23    2    1    2    0    0  0.66491036875E+02  0.35900464950E+02  0.18528542521E+02  0.11921598712E+03  0.90328529976E+02 0.  0.
          5    1    3    3  502    0 -0.15050658550E+02 -0.22358352853E+02  0.61098595513E+02  0.66909857560E+02  0.41800000000E+01 0. -1.
         -5    1    3    3    0  502 -0.51440378326E+02 -0.13542112096E+02 -0.58600235425E+02  0.79252516138E+02  0.41800000000E+01 0. -1.
        -11    1    4    4    0    0  0.66252502165E+02  0.13777384484E+02 -0.23570543171E+02  0.71657385325E+02  0.00000000000E+00 0.  1.
         11    1    4    4    0    0  0.23853471066E+00  0.22123080466E+02  0.42099085692E+02  0.47558601790E+02  0.00000000000E+00 0. -1.
</event>
<event>
 8    1  0.8619230E-006  0.1177716E+03  0.7561462E-02  0.1246819E+00
         -1   -1    0    0    0  501 -0.00000000000E+00  0.00000000000E+00  0.73917602233E+03  0.73917602233E+03  0.00000000000E+00 0.  1.
          1   -1    0    0  501    0  0.00000000000E+00 -0.00000000000E+00 -0.30049249084E+02  0.30049249084E+02  0.00000000000E+00 0. -1.
         23    2    1    2    0    0  0.55074040606E+02 -0.76619831698E+02  0.49166101832E+03  0.51602447021E+03  0.12508776264E+03 0.  0.
         23    2    1    2    0    0 -0.55074040606E+02  0.76619831698E+02  0.21746575493E+03  0.25320080120E+03  0.88969335206E+02 0.  0.
          5    1    3    3  502    0  0.40471351361E+02 -0.84194096432E+02  0.17085956614E+03  0.19477433069E+03  0.41800000000E+01 0.  1.
         -5    1    3    3    0  502  0.14602689246E+02  0.75742647344E+01  0.32080145218E+03  0.32125013951E+03  0.41800000000E+01 0.  1.
        -11    1    4    4    0    0  0.93966303871E+01  0.56858119321E+02  0.13423236614E+03  0.14608035636E+03  0.00000000000E+00 0. -1.
         11    1    4    4    0    0 -0.64470670993E+02  0.19761712376E+02  0.83233388785E+02  0.10712044484E+03  0.00000000000E+00 0.  1.
</event>
<event>
 8    1  0.8619230E-006  0.7170284E+02  0.7561462E-02  0.1354396E+00
         -1   -1    0    0    0  501 -0.00000000000E+00  0.00000000000E+00  0.21026736220E+03  0.21026736220E+03  0.00000000000E+00 0.  1.
          1   -1    0    0  501    0  0.00000000000E+00 -0.00000000000E+00 -0.73362232869E+02  0.73362232869E+02  0.00000000000E+00 0. -1.
         23    2    1    2    0    0  0.45170911893E+02 -0.30019590791E+02  0.11381607549E+03  0.17760550239E+03  0.12509207939E+03 0.  0.
         23    2    1    2    0    0 -0.45170911893E+02  0.30019590791E+02  0.23089053843E+02  0.10602409268E+03  0.88127275623E+02 0.  0.
          5    1    3    3  502    0  0.26321312086E+02  0.14733616056E+01 -0.23404501178E+02  0.35499652671E+02  0.41800000000E+01 0.  1.
         -5    1    3    3    0  502  0.18849599807E+02 -0.31492952397E+02  0.13722057667E+03  0.14210584972E+03  0.41800000000E+01 0.  1.
        -11    1    4    4    0    0 -0.21759993363E+02 -0.16757780159E+02  0.42185865253E+02  0.50338531307E+02  0.00000000000E+00 0.  1.
         11    1    4    4    0    0 -0.23410918530E+02  0.46777370949E+02 -0.19096811411E+02  0.55685561373E+02  0.00000000000E+00 0. -1.
</event>
<event>
 8    1  0.8619230E-006  0.1903095E+03  0.7561462E-02  0.1158182E+00
         -2   -1    0    0    0  501 -0.00000000000E+00  0.00000000000E+00  0.11617334378E+03  0.11617334378E+03  0.00000000000E+00 0. -1.
          2   -1    0    0  501    0  0.00000000000E+00 -0.00000000000E+00 -0.38983494870E+03  0.38983494870E+03  0.00000000000E+00 0.  1.
         23    2    1    2    0    0 -0.28415812858E+02 -0.17854875885E+03 -0.10691510001E+03  0.24447031463E+03  0.12509108049E+03 0.  0.
         23    2    1    2    0    0  0.28415812858E+02  0.17854875885E+03 -0.16674650491E+03  0.26153797786E+03  0.88941549672E+02 0.  0.
          5    1    3    3  502    0  0.41134047609E+01 -0.66997204964E+02  0.22100228946E+02  0.70791511434E+02  0.41800000000E+01 0. -1.
         -5    1    3    3    0  502 -0.32529217619E+02 -0.11155155388E+03 -0.12901532896E+03  0.17367880319E+03  0.41800000000E+01 0. -1.
        -11    1    4    4    0    0 -0.16527695302E+02  0.42118229836E+01 -0.14321046350E+01  0.17115930840E+02  0.00000000000E+00 0.  1.
         11    1    4    4    0    0  0.44943508160E+02  0.17433693586E+03 -0.16531440027E+03  0.24442204702E+03  0.00000000000E+00 0. -1.
</event>
<event>
 8    1  0.8619230E-006  0.1104049E+03  0.7561462E-02  0.1259822E+00
         -1   -1    0    0    0  501 -0.00000000000E+00  0.00000000000E+00  0.33504379822E+02  0.33504379822E+02  0.00000000000E+00 0.  1.
          1   -1    0    0  501    0  0.00000000000E+00 -0.00000000000E+00 -0.46909133127E+03  0.46909133127E+03  0.00000000000E+00 0. -1.
         23    2    1    2    0    0 -0.34072197296E+02  0.34559915414E+02 -0.16097846605E+03  0.20956359960E+03  0.12509010099E+03 0.  0.
         23    2    1    2    0    0  0.34072197296E+02 -0.34559915414E+02 -0.27460848540E+03  0.29303211149E+03  0.90014975024E+02 0.  0.
          5    1    3    3  502    0 -0.79908719392E+02  0.29018968950E+02 -0.83255822209E+02  0.11906514320E+03  0.41800000000E+01 0.  1.
         -5    1    3    3    0  502  0.45836522096E+02  0.55409464634E+01 -0.77722643838E+02  0.90498456400E+02  0.41800000000E+01 0.  1.
        -11    1    4    4    0    0  0.83218265021E+01 -0.55514235274E+02 -0.94707919393E+02  0.11009392858E+03  0.00000000000E+00 0.  1.
         11    1    4    4    0    0  0.25750370794E+02  0.20954319860E+02 -0.17990056601E+03  0.18293818291E+03  0.00000000000E+00 0. -1.
</event>
<event>
 7    1  0.8619230E-006  0.1429623E+03  0.7561462E-02  0.1209398E+00
         -1   -1    0    0    0  501 -0.00000000000E+00  0.00000000000E+00  0.43848113060E+02  0.43848113060E+02  0.00000000000E+00 0.  1.
          1   -1    0    0  501    0  0.00000000000E+00 -0.00000000000E+00 -0.76476008833E+03  0.76476008833E+03  0.00000000000E+00 0. -1.
         23    2    1    2    0    0 -0.60372140861E+02  0.36665837102E+02 -0.12197523891E+03  0.18845356328E+03  0.12509039773E+03 0.  0.
          5    1    3    3  502    0  0.28037332573E+02  0.21919055901E+02 -0.83423930046E+02  0.90794061114E+02  0.41800000000E+01 0. -1.
         -5    1    3    3    0  502 -0.88409473434E+02  0.14746781202E+02 -0.38551308862E+02  0.97659502167E+02  0.41800000000E+01 0. -1.
        -11    1    1    2    0    0 -0.43925149701E+02  0.11612082801E+02 -0.19175478910E+03  0.19706384343E+03  0.00000000000E+00 0. -1.
         11    1    1    2    0    0  0.10429729056E+03 -0.48277919904E+02 -0.40718194726E+03  0.42309079468E+03  0.00000000000E+00 0.  1.
</event>
<event>
 8    1  0.8619230E-006  0.1568898E+03  0.7561462E-02  0.1192254E+00
         -1   -1    0    0    0  501 -0.00000000000E+00  0.00000000000E+00  0.57923597136E+02  0.57923597136E+02  0.00000000000E+00 0.  1.
          1   -1    0    0  501    0  0.00000000000E+00 -0.00000000000E+00 -0.54261847347E+03  0.54261847347E+03  0.00000000000E+00 0. -1.
         23    2    1    2    0    0  0.96729095497E+02  0.99520828568E+02 -0.25189099725E+03  0.31362026208E+03  0.12509069133E+03 0.  0.
         23    2    1    2    0    0 -0.96729095497E+02 -0.99520828568E+02 -0.23280387909E+03  0.28692180853E+03  0.94157128556E+02 0.  0.
          5    1    3    3  502    0 -0.13353037662E+02  0.53399521736E+02 -0.13784023457E+03  0.14848304686E+03  0.41800000000E+01 0. -1.
         -5    1    3    3    0  502  0.11008213316E+03  0.46121306832E+02 -0.11405076268E+03  0.16513721522E+03  0.41800000000E+01 0. -1.
        -11    1    4    4    0    0 -0.98443598184E+01 -0.14965334245E+02  0.61762255688E+01  0.18947781178E+02  0.00000000000E+00 0.  1.
         11    1    4    4    0    0 -0.86884735678E+02 -0.84555494323E+02 -0.23898010466E+03  0.26797402735E+03  0.00000000000E+00 0. -1.
</event>
<event>
 8    1  0.8619230E-006  0.8673884E+02  0.7561462E-02  0.1310947E+00
         -1   -1    0    0    0  501 -0.00000000000E+00  0.00000000000E+00  0.26500084070E+03  0.26500084070E+03  0.00000000000E+00 0.  1.
          1   -1    0    0  501    0  0.00000000000E+00 -0.00000000000E+00 -0.49693884313E+02  0.49693884313E+02  0.00000000000E+00 0. -1.
         23    2    1    2    0    0  0.16720682616E+02 -0.59947118624E+01  0.17072534073E+03  0.21239241950E+03  0.12509148691E+03 0.  0.
         23    2    1    2    0    0 -0.16720682616E+02  0.59947118624E+01  0.44581615660E+02  0.10230230551E+03  0.90347791678E+02 0.  0.
          5    1    3    3  502    0 -0.12171924925E+02  0.37188038433E+02  0.15199160629E+03  0.15700326985E+03  0.41800000000E+01 0.  1.
         -5    1    3    3    0  502  0.28892607541E+02 -0.43182750296E+02  0.18733734436E+02  0.55389149655E+02  0.41800000000E+01 0.  1.
        -11    1    4    4    0    0 -0.49223471015E+02  0.50830345922E+01  0.30814194822E+01  0.49581069830E+02  0.00000000000E+00 0. -1.
         11    1    4    4    0    0  0.32502788400E+02  0.91167727020E+00  0.41500196178E+02  0.52721235683E+02  0.00000000000E+00 0.  1.
</event>
<event>
 8    1  0.8619230E-006  0.1621503E+03  0.7561462E-02  0.1186290E+00
         -3   -1    0    0    0  501 -0.00000000000E+00  0.00000000000E+00  0.92098163600E+03  0.92098163600E+03  0.00000000000E+00 0.  1.
          3   -1    0    0  501    0  0.00000000000E+00 -0.00000000000E+00 -0.38643401464E+02  0.38643401464E+02  0.00000000000E+00 0. -1.
         23    2    1    2    0    0  0.13347792562E+03 -0.32068966031E+02  0.65767424114E+03  0.68339383745E+03  0.12508778674E+03 0.  0.
         23    2    1    2    0    0 -0.13347792562E+03  0.32068966031E+02  0.22466399339E+03  0.27623120001E+03  0.83576256930E+02 0.  0.
          5    1    3    3  502    0  0.13454105416E+03  0.14311964715E+02  0.54303850441E+03  0.55965562381E+03  0.41800000000E+01 0. -1.
         -5    1    3    3    0  502 -0.10631285392E+01 -0.46380930746E+02  0.11463573673E+03  0.12373821364E+03  0.41800000000E+01 0. -1.
        -11    1    4    4    0    0 -0.64267786567E+02  0.34811914626E+02  0.50611347924E+02  0.88902903940E+02  0.00000000000E+00 0. -1.
         11    1    4    4    0    0 -0.69210139054E+02 -0.27429485948E+01  0.17405264547E+03  0.18732829607E+03  0.00000000000E+00 0.  1.
</event>
<event>
 8    1  0.8619230E-006  0.1190145E+03  0.7561462E-02  0.1244732E+00
         -2   -1    0    0    0  501 -0.00000000000E+00  0.00000000000E+00  0.20579474500E+03  0.20579474500E+03  0.00000000000E+00 0.  1.
          2   -1    0    0  501    0  0.00000000000E+00 -0.00000000000E+00 -0.78865125933E+02  0.78865125933E+02  0.00000000000E+00 0. -1.
         23    2    1    2    0    0 -0.60790429550E+02 -0.37108642061E+01  0.10129735901E+03  0.17209789128E+03  0.12508909786E+03 0.  0.
         23    2    1    2    0    0  0.60790429550E+02  0.37108642061E+01  0.25632260059E+02  0.11256197965E+03  0.91125954965E+02 0.  0.
          5    1    3    3  502    0  0.28237124625E+02 -0.33321764356E+02  0.43704769356E+02  0.61929431221E+02  0.41800000000E+01 0.  1.
         -5    1    3    3    0  502 -0.89027554175E+02  0.29610900150E+02  0.57592589650E+02  0.11016846006E+03  0.41800000000E+01 0.  1.
        -11    1    4    4    0    0  0.80149359845E+02  0.75382723046E+01  0.36761724742E+00  0.80503916522E+02  0.00000000000E+00 0. -1.
         11    1    4    4    0    0 -0.19358930295E+02 -0.38274080985E+01  0.25264642812E+02  0.32058063125E+02  0.00000000000E+00 0.  1.
</event>
<event>
 8    1  0.8619230E-006  0.7417117E+02  0.7561462E-02  0.1346457E+00
          4   -1    0    0  501    0  0.00000000000E+00  0.00000000000E+00  0.24873909016E+03  0.24873909016E+03  0.00000000000E+00 0. -1.
         -4   -1    0    0    0  501 -0.00000000000E+00 -0.00000000000E+00 -0.54797839371E+02  0.54797839371E+02  0.00000000000E+00 0.  1.
         23    2    1    2    0    0  0.87275566112E+01  0.43535983783E+02  0.83781886743E+02  0.15506383012E+03  0.12269406969E+03 0.  0.
         23    2    1    2    0    0 -0.87275566112E+01 -0.43535983783E+02  0.11015936404E+03  0.14847309941E+03  0.89093342249E+02 0.  0.
          5    1    3    3  502    0  0.16094319994E+02  0.20474941452E+02  0.11348926438E+03  0.11651410169E+03  0.41800000000E+01 0. -1.
         -5    1    3    3    0  502 -0.73667633827E+01  0.23061042331E+02 -0.29707377635E+02  0.38549728431E+02  0.41800000000E+01 0.  1.
        -11    1    4    4    0    0  0.38350894686E+02 -0.10111980091E+02  0.30216065567E+02  0.49860343791E+02  0.00000000000E+00 0.  1.
         11    1    4    4    0    0 -0.47078451297E+02 -0.33424003692E+02  0.79943298474E+02  0.98612755616E+02  0.00000000000E+00 0. -1.
</event>
<event>
 8    1  0.8619230E-006  0.1130247E+03  0.7561462E-02  0.1255069E+00
          1   -1    0    0  501    0  0.00000000000E+00  0.00000000000E+00  0.18563768012E+03  0.18563768012E+03  0.00000000000E+00 0. -1.
         -1   -1    0    0    0  501 -0.00000000000E+00 -0.00000000000E+00 -0.10283803892E+03  0.10283803892E+03  0.00000000000E+00 0.  1.
         23    2    1    2    0    0  0.77916013721E+02  0.27450718742E+02  0.25214767696E+02  0.15201183404E+03  0.12508943211E+03 0.  0.
         23    2    1    2    0    0 -0.77916013721E+02 -0.27450718742E+02  0.57584873502E+02  0.13646388500E+03  0.92097378350E+02 0.  0.
          5    1    3    3  502    0  0.78146993721E+02  0.82687018751E-01 -0.35006208703E+02  0.85731362479E+02  0.41800000000E+01 0.  1.
         -5    1    3    3    0  502 -0.23098000016E+00  0.27368031723E+02  0.60220976399E+02  0.66280471563E+02  0.41800000000E+01 0.  1.
        -11    1    4    4    0    0 -0.80163292392E+02 -0.51935426618E+02  0.31402337850E+02  0.10054625208E+03  0.00000000000E+00 0.  1.
         11    1    4    4    0    0  0.22472786712E+01  0.24484707876E+02  0.26182535652E+02  0.35917632917E+02  0.00000000000E+00 0. -1.
</event>
<event>
 8    1  0.8619230E-006  0.1893908E+03  0.7561462E-02  0.1159012E+00
         -2   -1    0    0    0  501 -0.00000000000E+00  0.00000000000E+00  0.21223841733E+04  0.21223841733E+04  0.00000000000E+00 0. -1.
          2   -1    0    0  501    0  0.00000000000E+00 -0.00000000000E+00 -0.24290720369E+02  0.24290720369E+02  0.00000000000E+00 0.  1.
         23    2    1    2    0    0 -0.18181328968E+03  0.28689218143E+01  0.14701240082E+04  0.14865988740E+04  0.12508920631E+03 0.  0.
         23    2    1    2    0    0  0.18181328968E+03 -0.28689218143E+01  0.62796944470E+03  0.66007601968E+03  0.91051772464E+02 0.  0.
          5    1    3    3  502    0 -0.15016704137E+01  0.13049635245E+02  0.47571080834E+03  0.47591048903E+03  0.41800000000E+01 0.  1.
         -5    1    3    3    0  502 -0.18031161927E+03 -0.10180713431E+02  0.99441319986E+03  0.10106883849E+04  0.41800000000E+01 0.  1.
        -11    1    4    4    0    0  0.16002707566E+03 -0.12530914045E+02  0.60845911333E+03  0.62927591830E+03  0.00000000000E+00 0. -1.
         11    1    4    4    0    0  0.21786214026E+02  0.96619922304E+01  0.19510331364E+02  0.30800101386E+02  0.00000000000E+00 0.  1.
</event>
<event>
 8    1  0.8619230E-006  0.9656005E+02  0.7561462E-02  0.1287701E+00
          2   -1    0    0  501    0  0.00000000000E+00  0.00000000000E+00  0.42281403288E+03  0.42281403288E+03  0.00000000000E+00 0.  1.
         -2   -1    0    0    0  501 -0.00000000000E+00 -0.00000000000E+00 -0.33623255904E+02  0.33623255904E+02  0.00000000000E+00 0. -1.
         23    2    1    2    0    0  0.43435220414E+02 -0.18139533466E+02  0.24767408778E+03  0.28143592791E+03  0.12509223284E+03 0.  0.
         23    2    1    2    0    0 -0.43435220414E+02  0.18139533466E+02  0.14151668920E+03  0.17500136087E+03  0.91557861149E+02 0.  0.
          5    1    3    3  502    0  0.82364442294E+02  0.54497629411E+00  0.11264346797E+03  0.13960738387E+03  0.41800000000E+01 0.  1.
         -5    1    3    3    0  502 -0.38929221880E+02 -0.18684509760E+02  0.13503061981E+03  0.14182854405E+03  0.41800000000E+01 0.  1.
        -11    1    4    4    0    0 -0.17524347170E+02  0.33022270107E+02  0.14019220902E+03  0.14509110427E+03  0.00000000000E+00 0.  1.
         11    1    4    4    0    0 -0.25910873244E+02 -0.14882736641E+02  0.13244801717E+01  0.29910256600E+02  0.00000000000E+00 0. -1.
</event>
<event>
 8    1  0.8619230E-006  0.1363098E+03  0.7561462E-02  0.1218382E+00
          1   -1    0    0  501    0  0.00000000000E+00  0.00000000000E+00  0.51470756883E+03  0.51470756883E+03  0.00000000000E+00 0. -1.
         -1   -1    0    0    0  501 -0.00000000000E+00 -0.00000000000E+00 -0.61056370192E+02  0.61056370192E+02  0.00000000000E+00 0.  1.
         23    2    1    2    0    0  0.80645924270E+02 -0.41188214256E+02  0.67232055709E+02  0.16842765808E+03  0.12508993802E+03 0.  0.
         23    2    1    2    0    0 -0.80645924270E+02  0.41188214256E+02  0.38641914293E+03  0.40733628095E+03  0.91667102376E+02 0.  0.
          5    1    3    3  502    0  0.42210601359E+02  0.38577948450E+02  0.54077052527E+02  0.78814928685E+02  0.41800000000E+01 0.  1.
         -5    1    3    3    0  502  0.38435322911E+02 -0.79766162705E+02  0.13155003181E+02  0.89612729390E+02  0.41800000000E+01 0.  1.
        -11    1    4    4    0    0  0.35286396411E+01  0.42312318175E+02  0.96172342805E+02  0.10512803188E+03  0.00000000000E+00 0.  1.
         11    1    4    4    0    0 -0.84174563911E+02 -0.11241039195E+01  0.29024680013E+03  0.30220824907E+03  0.00000000000E+00 0. -1.
</event>
<event>
 8    1  0.8619230E-006  0.1087781E+03  0.7561462E-02  0.1262849E+00
         -1   -1    0    0    0  501 -0.00000000000E+00  0.00000000000E+00  0.93158312303E+02  0.93158312303E+02  0.00000000000E+00 0.  1.
          1   -1    0    0  501    0  0.00000000000E+00 -0.00000000000E+00 -0.14937792891E+03  0.14937792891E+03  0.00000000000E+00 0. -1.
         23    2    1    2    0    0  0.20500239409E+02 -0.10295840104E+02  0.97660036018E+01  0.12755033296E+03  0.12508976166E+03 0.  0.
         23    2    1    2    0    0 -0.20500239409E+02  0.10295840104E+02 -0.65985620211E+02  0.11498590825E+03  0.91331226222E+02 0.  0.
          5    1    3    3  502    0  0.11848708025E+02  0.56702672943E+02 -0.49379989421E+01  0.58287573583E+02  0.41800000000E+01 0. -1.
         -5    1    3    3    0  502  0.86515313837E+01 -0.66998513047E+02  0.14704002544E+02  0.69262759377E+02  0.41800000000E+01 0. -1.
        -11    1    4    4    0    0  0.33047782467E+02 -0.10002131792E+02 -0.37675717508E+02  0.51104385879E+02  0.00000000000E+00 0.  1.
         11    1    4    4    0    0 -0.53548021876E+02  0.20297971896E+02 -0.28309902703E+02  0.63881522375E+02  0.00000000000E+00 0. -1.
</event>
<event>
 8    1  0.8619230E-006  0.1952922E+03  0.7561462E-02  0.1153773E+00
          2   -1    0    0  501    0  0.00000000000E+00  0.00000000000E+00  0.20554704422E+04  0.20554704422E+04  0.00000000000E+00 0. -1.
         -2   -1    0    0    0  501 -0.00000000000E+00 -0.00000000000E+00 -0.22096060246E+02  0.22096060246E+02  0.00000000000E+00 0.  1.
         23    2    1    2    0    0 -0.10990246097E+03  0.14534024769E+03  0.10254424159E+04  0.10489908470E+04  0.12508920945E+03 0.  0.
         23    2    1    2    0    0  0.10990246097E+03 -0.14534024769E+03  0.10079319661E+04  0.10285756554E+04  0.94014318971E+02 0.  0.
          5    1    3    3  502    0 -0.52725476558E+02  0.36509537969E+02  0.66579087150E+03  0.66888555016E+03  0.41800000000E+01 0.  1.
         -5    1    3    3    0  502 -0.57176984412E+02  0.10883070973E+03  0.35965154436E+03  0.38010529684E+03  0.41800000000E+01 0.  1.
        -11    1    4    4    0    0 -0.14303839061E+02 -0.32461242663E+02  0.13045810105E+03  0.13519485277E+03  0.00000000000E+00 0.  1.
         11    1    4    4    0    0  0.12420630003E+03 -0.11287900503E+03  0.87747386503E+03  0.89338080266E+03  0.00000000000E+00 0. -1.
</event>
<event>
 8    1  0.8619230E-006  0.1192363E+03  0.7561462E-02  0.1244362E+00
         -1   -1    0    0    0  501 -0.00000000000E+00  0.00000000000E+00  0.76058667081E+02  0.76058667081E+02  0.00000000000E+00 0.  1.
          1   -1    0    0  501    0  0.00000000000E+00 -0.00000000000E+00 -0.30907231367E+03  0.30907231367E+03  0.00000000000E+00 0. -1.
         23    2    1    2    0    0  0.18251388231E+02 -0.60104974980E+02 -0.11893689407E+02  0.14048098617E+03  0.12509087272E+03 0.  0.
         23    2    1    2    0    0 -0.18251388231E+02  0.60104974980E+02 -0.22111995719E+03  0.24464999458E+03  0.83748810105E+02 0.  0.
          5    1    3    3  502    0  0.69456780772E+02 -0.31933818152E+02 -0.24813423321E+02  0.80481000950E+02  0.41800000000E+01 0. -1.
         -5    1    3    3    0  502 -0.51205392541E+02 -0.28171156829E+02  0.12919733914E+02  0.59999985223E+02  0.41800000000E+01 0. -1.
        -11    1    4    4    0    0 -0.26807077405E+02  0.78543977229E+02 -0.19166564223E+03  0.20886238094E+03  0.00000000000E+00 0.  1.
         11    1    4    4    0    0  0.85556891738E+01 -0.18439002249E+02 -0.29454314951E+02  0.35787613645E+02  0.00000000000E+00 0. -1.
</event>
<event>
 8    1  0.8619230E-006  0.1120655E+03  0.7561462E-02  0.1256792E+00
          3   -1    0    0  501    0  0.00000000000E+00  0.00000000000E+00  0.78351418690E+03  0.78351418690E+03  0.00000000000E+00 0. -1.
         -3   -1    0    0    0  501 -0.00000000000E+00 -0.00000000000E+00 -0.23144225492E+02  0.23144225492E+02  0.00000000000E+00 0.  1.
         23    2    1    2    0    0 -0.39055373372E+02  0.36610153026E+02  0.23855294809E+03  0.27462751950E+03  0.12508852838E+03 0.  0.
         23    2    1    2    0    0  0.39055373372E+02 -0.36610153026E+02  0.52181701331E+03  0.53203089289E+03  0.88872099709E+02 0.  0.
          5    1    3    3  502    0  0.36561098696E+02  0.26665202049E+02  0.35448302137E+02  0.57635071463E+02  0.41800000000E+01 0.  1.
         -5    1    3    3    0  502 -0.75616472068E+02  0.99449509774E+01  0.20310464596E+03  0.21699244804E+03  0.41800000000E+01 0.  1.
        -11    1    4    4    0    0  0.55693844954E+02 -0.54464800983E+02  0.43146697856E+03  0.43844266729E+03  0.00000000000E+00 0. -1.
         11    1    4    4    0    0 -0.16638471582E+02  0.17854647957E+02  0.90350034750E+02  0.93588225593E+02  0.00000000000E+00 0.  1.
</event>
<event>
 8    1  0.8619230E-006  0.9102596E+02  0.7561462E-02  0.1300386E+00
          1   -1    0    0  501    0  0.00000000000E+00  0.00000000000E+00  0.10268170421E+03  0.10268170421E+03  0.00000000000E+00 0. -1.
         -1   -1    0    0    0  501 -0.00000000000E+00 -0.00000000000E+00 -0.15332335706E+03  0.15332335706E+03  0.00000000000E+00 0.  1.
         23    2    1    2    0    0  0.15097840989E+02  0.18921104658E+02 -0.95366710519E+02  0.15397654740E+03  0.11843992009E+03 0.  0.
         23    2    1    2    0    0 -0.15097840989E+02 -0.18921104658E+02  0.44725057670E+02  0.10202851388E+03  0.88450742542E+02 0.  0.
          5    1    3    3  502    0  0.27497951880E+02 -0.37339460388E+02 -0.82602111398E+02  0.94820640512E+02  0.41800000000E+01 0. -1.
         -5    1    3    3    0  502 -0.12400110891E+02  0.56260565046E+02 -0.12764599121E+02  0.59155906891E+02  0.41800000000E+01 0.  1.
        -11    1    4    4    0    0 -0.45196366091E+02 -0.13278601674E+02  0.52397208754E+02  0.70459209869E+02  0.00000000000E+00 0. -1.
         11    1    4    4    0    0  0.30098525102E+02 -0.56425029845E+01 -0.76721510845E+01  0.31569304007E+02  0.00000000000E+00 0.  1.
</event>
<event>
 8    1  0.8619230E-006  0.9302471E+02  0.7561462E-02  0.1295688E+00
          2   -1    0    0  501    0  0.00000000000E+00  0.00000000000E+00  0.76084623695E+02  0.76084623695E+02  0.00000000000E+00 0. -1.
         -2   -1    0    0    0  501 -0.00000000000E+00 -0.00000000000E+00 -0.18581220609E+03  0.18581220609E+03  0.00000000000E+00 0.  1.
         23    2    1    2    0    0  0.34859854526E+02  0.26670933528E+02 -0.55507772815E+02  0.14371969025E+03  0.12509072056E+03 0.  0.
         23    2    1    2    0    0 -0.34859854526E+02 -0.26670933528E+02 -0.54219809576E+02  0.11817713953E+03  0.95391301516E+02 0.  0.
          5    1    3    3  502    0  0.61287308732E+02  0.26067885352E+02 -0.82229714239E+02  0.10590026989E+03  0.41800000000E+01 0.  1.
         -5    1    3    3    0  502 -0.26427454206E+02  0.60304817643E+00  0.26721941424E+02  0.37819420361E+02  0.41800000000E+01 0.  1.
        -11    1    4    4    0    0  0.23818141312E+02 -0.24004877323E+02  0.56722679085E+01  0.34288665971E+02  0.00000000000E+00 0. -1.
         11    1    4    4    0    0 -0.58677995837E+02 -0.26660562051E+01 -0.59892077485E+02  0.83888473562E+02  0.00000000000E+00 0.  1.
</event>
<event>
 8    1  0.8619230E-006  0.8850291E+02  0.7561462E-02  0.1306518E+00
          2   -1    0    0  501    0  0.00000000000E+00  0.00000000000E+00  0.20837674692E+03  0.20837674692E+03  0.00000000000E+00 0. -1.
         -2   -1    0    0    0  501 -0.00000000000E+00 -0.00000000000E+00 -0.86247796726E+02  0.86247796726E+02  0.00000000000E+00 0.  1.
         23    2    1    2    0    0 -0.50090064863E+02 -0.46152681301E+02  0.21936669359E+02  0.14410807260E+03  0.12508730765E+03 0.  0.
         23    2    1    2    0    0  0.50090064863E+02  0.46152681301E+02  0.10019228084E+03  0.15051647105E+03  0.89317581297E+02 0.  0.
          5    1    3    3  502    0 -0.25612234470E+02 -0.65201190977E+02  0.61743502392E+02  0.93471462741E+02  0.41800000000E+01 0.  1.
         -5    1    3    3    0  502 -0.24477830393E+02  0.19048509676E+02 -0.39806833033E+02  0.50636609857E+02  0.41800000000E+01 0.  1.
        -11    1    4    4    0    0  0.15318699291E+02  0.36289244265E+02  0.10674789290E+03  0.11378349808E+03  0.00000000000E+00 0. -1.
         11    1    4    4    0    0  0.34771365572E+02  0.98634370359E+01 -0.65556120579E+01  0.36732972972E+02  0.00000000000E+00 0.  1.
</event>
<event>
 8    1  0.8619230E-006  0.1275402E+03  0.7561462E-02  0.1231152E+00
          1   -1    0    0  501    0  0.00000000000E+00  0.00000000000E+00  0.63809478051E+02  0.63809478051E+02  0.00000000000E+00 0. -1.
         -1   -1    0    0    0  501 -0.00000000000E+00 -0.00000000000E+00 -0.26514418442E+03  0.26514418442E+03  0.00000000000E+00 0.  1.
         23    2    1    2    0    0 -0.19623442563E+02  0.67068137850E+02 -0.13427800059E+03  0.19636981698E+03  0.12508920403E+03 0.  0.
         23    2    1    2    0    0  0.19623442563E+02 -0.67068137850E+02 -0.67056705781E+02  0.13258384550E+03  0.90546450424E+02 0.  0.
          5    1    3    3  502    0 -0.69611261013E+02  0.19192271827E+02 -0.53834813543E+02  0.90165018199E+02  0.41800000000E+01 0.  1.
         -5    1    3    3    0  502  0.49987818450E+02  0.47875866023E+02 -0.80443187048E+02  0.10620479878E+03  0.41800000000E+01 0.  1.
        -11    1    4    4    0    0 -0.11359730025E+02  0.18887018532E+02 -0.65345506404E+01  0.22988329372E+02  0.00000000000E+00 0.  1.
         11    1    4    4    0    0  0.30983172588E+02 -0.85955156382E+02 -0.60522155140E+02  0.10959551613E+03  0.00000000000E+00 0. -1.
</event>
<event>
 8    1  0.8619230E-006  0.1397961E+03  0.7561462E-02  0.1213604E+00
         -2   -1    0    0    0  501 -0.00000000000E+00  0.00000000000E+00  0.46700907289E+02  0.46700907289E+02  0.00000000000E+00 0.  1.
          2   -1    0    0  501    0  0.00000000000E+00 -0.00000000000E+00 -0.52771472909E+03  0.52771472909E+03  0.00000000000E+00 0. -1.
         23    2    1    2    0    0 -0.10501556431E+03 -0.39000937283E+02 -0.24727305122E+03  0.29889943092E+03  0.12509023177E+03 0.  0.
         23    2    1    2    0    0  0.10501556431E+03  0.39000937283E+02 -0.23374077057E+03  0.27551620546E+03  0.93408189080E+02 0.  0.
          5    1    3    3  502    0  0.47338815210E+01 -0.55048851526E+02 -0.64183125835E+02  0.84792285796E+02  0.41800000000E+01 0.  1.
         -5    1    3    3    0  502 -0.10974944583E+03  0.16047914243E+02 -0.18308992539E+03  0.21410714512E+03  0.41800000000E+01 0.  1.
        -11    1    4    4    0    0  0.20431306294E+02  0.14736111466E+02  0.60043489105E+00  0.25198249544E+02  0.00000000000E+00 0.  1.
         11    1    4    4    0    0  0.84584258016E+02  0.24264825817E+02 -0.23434120547E+03  0.25031795592E+03  0.00000000000E+00 0. -1.
</event>
<event>
 8    1  0.8619230E-006  0.1321725E+03  0.7561462E-02  0.1224267E+00
          1   -1    0    0  501    0  0.00000000000E+00  0.00000000000E+00  0.71500021947E+02  0.71500021947E+02  0.00000000000E+00 0. -1.
         -1   -1    0    0    0  501 -0.00000000000E+00 -0.00000000000E+00 -0.41678466375E+03  0.41678466375E+03  0.00000000000E+00 0.  1.
         23    2    1    2    0    0  0.54937871220E+02 -0.45475096752E+02 -0.33429915999E+03  0.36399260347E+03  0.12509409617E+03 0.  0.
         23    2    1    2    0    0 -0.54937871220E+02  0.45475096752E+02 -0.10985481819E+02  0.12429208223E+03  0.10120121923E+03 0.  0.
          5    1    3    3  502    0 -0.38620056091E+02 -0.15830648953E+01 -0.11796011403E+03  0.12420175413E+03  0.41800000000E+01 0.  1.
         -5    1    3    3    0  502  0.93557927311E+02 -0.43892031857E+02 -0.21633904596E+03  0.23979084935E+03  0.41800000000E+01 0.  1.
        -11    1    4    4    0    0 -0.80784178498E+02  0.51100036721E+02  0.15793688239E+00  0.95589341417E+02  0.00000000000E+00 0.  1.
         11    1    4    4    0    0  0.25846307278E+02 -0.56249399686E+01 -0.11143418701E+02  0.28702740809E+02  0.00000000000E+00 0. -1.
</event>
<event>
 8    1  0.8619230E-006  0.2234844E+03  0.7561462E-02  0.1131312E+00
         -2   -1    0    0    0  501 -0.00000000000E+00  0.00000000000E+00  0.28121509647E+02  0.28121509647E+02  0.00000000000E+00 0.  1.
          2   -1    0    0  501    0  0.00000000000E+00 -0.00000000000E+00 -0.18237059683E+04  0.18237059683E+04  0.00000000000E+00 0. -1.
         23    2    1    2    0    0 -0.19434983411E+03 -0.36552048480E+02 -0.83532956850E+03  0.86748544720E+03  0.12509037866E+03 0.  0.
         23    2    1    2    0    0  0.19434983411E+03  0.36552048480E+02 -0.96025489018E+03  0.98434203077E+03  0.87931047749E+02 0.  0.
          5    1    3    3  502    0 -0.20728774608E+03 -0.16518979258E+02 -0.70991548840E+03  0.73975574308E+03  0.41800000000E+01 0.  1.
         -5    1    3    3    0  502  0.12937911963E+02 -0.20033069222E+02 -0.12541408010E+03  0.12772970412E+03  0.41800000000E+01 0.  1.
        -11    1    4    4    0    0  0.52521656109E+02  0.49732135018E+02 -0.26832051037E+03  0.27789873318E+03  0.00000000000E+00 0.  1.
         11    1    4    4    0    0  0.14182817800E+03 -0.13180086538E+02 -0.69193437981E+03  0.70644329759E+03  0.00000000000E+00 0. -1.
</event>
<event>
 8    1  0.8619230E-006  0.1317060E+03  0.7561462E-02  0.1224946E+00
          2   -1    0    0  501    0  0.00000000000E+00  0.00000000000E+00  0.65346145148E+03  0.65346145148E+03  0.00000000000E+00 0. -1.
         -2   -1    0    0    0  501 -0.00000000000E+00 -0.00000000000E+00 -0.38207090665E+02  0.38207090665E+02  0.00000000000E+00 0.  1.
         23    2    1    2    0    0  0.65328022728E+02 -0.67535289575E+02  0.18677883372E+03  0.24364742412E+03  0.12509583792E+03 0.  0.
         23    2    1    2    0    0 -0.65328022728E+02  0.67535289575E+02  0.42847552710E+03  0.44802111803E+03  0.91120134895E+02 0.  0.
          5    1    3    3  502    0  0.99130906956E+02 -0.34445090870E+02  0.10161415229E+03  0.14613798050E+03  0.41800000000E+01 0.  1.
         -5    1    3    3    0  502 -0.33802884228E+02 -0.33090198705E+02  0.85164681429E+02  0.97509443621E+02  0.41800000000E+01 0.  1.
        -11    1    4    4    0    0 -0.33255001101E+02 -0.30214722920E+01  0.41035163598E+02  0.52904716657E+02  0.00000000000E+00 0.  1.
         11    1    4    4    0    0 -0.32073021628E+02  0.70556761867E+02  0.38744036350E+03  0.39511640137E+03  0.00000000000E+00 0. -1.
</event>
<event>
 8    1  0.8619230E-006  0.1398073E+03  0.7561462E-02  0.1213589E+00
         -2   -1    0    0    0  501 -0.00000000000E+00  0.00000000000E+00  0.90261707037E+02  0.90261707037E+02  0.00000000000E+00 0.  1.
          2   -1    0    0  501    0  0.00000000000E+00 -0.00000000000E+00 -0.25741802253E+03  0.25741802253E+03  0.00000000000E+00 0. -1.
         23    2    1    2    0    0  0.90230275375E+02  0.50256981172E+02 -0.56074946660E+02  0.17163528968E+03  0.12508799410E+03 0.  0.
         23    2    1    2    0    0 -0.90230275375E+02 -0.50256981172E+02 -0.11108136883E+03  0.17604443989E+03  0.89360548135E+02 0.  0.
          5    1    3    3  502    0  0.68523817039E+02  0.90304764458E+02 -0.24500004187E+02  0.11605251652E+03  0.41800000000E+01 0. -1.
         -5    1    3    3    0  502  0.21706458337E+02 -0.40047783286E+02 -0.31574942473E+02  0.55582773157E+02  0.41800000000E+01 0. -1.
        -11    1    4    4    0    0 -0.45159953097E+02  0.89359807353E+01 -0.47644270594E+01  0.46281452879E+02  0.00000000000E+00 0.  1.
         11    1    4    4    0    0 -0.45070322279E+02 -0.59192961908E+02 -0.10631694177E+03  0.12976298701E+03  0.00000000000E+00 0. -1.
</event>
<event>
 8    1  0.8619230E-006  0.1063507E+03  0.7561462E-02  0.1267481E+00
         -1   -1    0    0    0  501 -0.00000000000E+00  0.00000000000E+00  0.12160108254E+04  0.12160108254E+04  0.00000000000E+00 0.  1.
          1   -1    0    0  501    0  0.00000000000E+00 -0.00000000000E+00 -0.14487757875E+02  0.14487757875E+02  0.00000000000E+00 0. -1.
         23    2    1    2    0    0  0.27662685331E+02 -0.49950120932E+02  0.93320722406E+03  0.94328345360E+03  0.12509081527E+03 0.  0.
         23    2    1    2    0    0 -0.27662685331E+02  0.49950120932E+02  0.26831584348E+03  0.28721512969E+03  0.85081726110E+02 0.  0.
          5    1    3    3  502    0  0.41230179878E+02 -0.75902343804E+02  0.85982844479E+03  0.86416637310E+03  0.41800000000E+01 0. -1.
         -5    1    3    3    0  502 -0.13567494547E+02  0.25952222872E+02  0.73378779273E+02  0.79117080506E+02  0.41800000000E+01 0. -1.
        -11    1    4    4    0    0  0.29447834268E+01 -0.20037828756E+02  0.10476532988E+03  0.10670501710E+03  0.00000000000E+00 0.  1.
         11    1    4    4    0    0 -0.30607468758E+02  0.69987949688E+02  0.16355051361E+03  0.18051011259E+03  0.00000000000E+00 0. -1.
</event>
<event>
 8    1  0.8619230E-006  0.1248041E+03  0.7561462E-02  0.1235376E+00
         -2   -1    0    0    0  501 -0.00000000000E+00  0.00000000000E+00  0.10958718611E+03  0.10958718611E+03  0.00000000000E+00 0.  1.
          2   -1    0    0  501    0  0.00000000000E+00 -0.00000000000E+00 -0.16288249347E+03  0.16288249347E+03  0.00000000000E+00 0. -1.
         23    2    1    2    0    0  0.54769809728E+02  0.53258851108E+02 -0.36220398540E+02  0.15098207688E+03  0.12508969978E+03 0.  0.
         23    2    1    2    0    0 -0.54769809728E+02 -0.53258851108E+02 -0.17074908817E+02  0.12148760270E+03  0.92905585516E+02 0.  0.
          5    1    3    3  502    0  0.58236248862E+02 -0.21140585183E+02  0.10478216263E+02  0.62973410575E+02  0.41800000000E+01 0. -1.
         -5    1    3    3    0  502 -0.34664391344E+01  0.74399436291E+02 -0.46698614803E+02  0.88008666308E+02  0.41800000000E+01 0. -1.
        -11    1    4    4    0    0  0.21511022833E+01 -0.55892217742E+02  0.12462532463E+02  0.57305165217E+02  0.00000000000E+00 0.  1.
         11    1    4    4    0    0 -0.56920912011E+02  0.26333666344E+01 -0.29537441281E+02  0.64182437484E+02  0.00000000000E+00 0. -1.
</event>
<event>
 8    1  0.8619230E-006  0.1006454E+03  0.7561462E-02  0.1278945E+00
         -2   -1    0    0    0  501 -0.00000000000E+00  0.00000000000E+00  0.96329825574E+03  0.96329825574E+03  0.00000000000E+00 0.  1.
          2   -1    0    0  501    0  0.00000000000E+00 -0.00000000000E+00 -0.16190776555E+02  0.16190776555E+02  0.00000000000E+00 0. -1.
         23    2    1    2    0    0 -0.52216649869E+02  0.21277467151E+02  0.63555799619E+03  0.65020023339E+03  0.12508824026E+03 0.  0.
         23    2    1    2    0    0  0.52216649869E+02 -0.21277467151E+02  0.31154948300E+03  0.32928879890E+03  0.90491566436E+02 0.  0.
          5    1    3    3  502    0  0.13262736517E+02  0.29234508842E+02  0.42272730475E+02  0.53244838519E+02  0.41800000000E+01 0. -1.
         -5    1    3    3    0  502 -0.65479386385E+02 -0.79570416908E+01  0.59328526571E+03  0.59695539487E+03  0.41800000000E+01 0. -1.
        -11    1    4    4    0    0 -0.24071772008E+02 -0.81532586086E+01  0.12053319573E+03  0.12318350988E+03  0.00000000000E+00 0.  1.
         11    1    4    4    0    0  0.76288421877E+02 -0.13124208543E+02  0.19101628727E+03  0.20610528903E+03  0.00000000000E+00 0. -1.
</event>
<event>
 8    1  0.8619230E-006  0.1228238E+03  0.7561462E-02  0.1238510E+00
         -1   -1    0    0    0  501 -0.00000000000E+00  0.00000000000E+00  0.13701393972E+03  0.13701393972E+03  0.00000000000E+00 0.  1.
          1   -1    0    0  501    0  0.00000000000E+00 -0.00000000000E+00 -0.15975223599E+03  0.15975223599E+03  0.00000000000E+00 0. -1.
         23    2    1    2    0    0 -0.20374551950E+02 -0.87816159859E+02  0.27683664032E+02  0.15665456485E+03  0.12508983625E+03 0.  0.
         23    2    1    2    0    0  0.20374551950E+02  0.87816159859E+02 -0.50421960307E+02  0.14011161086E+03  0.94668311051E+02 0.  0.
          5    1    3    3  502    0 -0.58187730670E+02 -0.97670280276E+02  0.28743731757E+02  0.11734125517E+03  0.41800000000E+01 0.  1.
         -5    1    3    3    0  502  0.37813178719E+02  0.98541204169E+01 -0.10600677250E+01  0.39313309675E+02  0.41800000000E+01 0.  1.
        -11    1    4    4    0    0 -0.41578291133E+01  0.20931442444E+02  0.27318034203E+02  0.34665369152E+02  0.00000000000E+00 0.  1.
         11    1    4    4    0    0  0.24532381064E+02  0.66884717414E+02 -0.77739994509E+02  0.10544624171E+03  0.00000000000E+00 0. -1.
</event>
<event>
 8    1  0.8619230E-006  0.9159377E+02  0.7561462E-02  0.1299037E+00
         -2   -1    0    0    0  501 -0.00000000000E+00  0.00000000000E+00  0.16605069599E+03  0.16605069599E+03  0.00000000000E+00 0.  1.
          2   -1    0    0  501    0  0.00000000000E+00 -0.00000000000E+00 -0.11714942269E+03  0.11714942269E+03  0.00000000000E+00 0. -1.
         23    2    1    2    0    0 -0.17673517370E+02  0.22942463369E+02  0.10969373820E+03  0.16884269465E+03  0.12504570962E+03 0.  0.
         23    2    1    2    0    0  0.17673517370E+02 -0.22942463369E+02 -0.60792464907E+02  0.11435742403E+03  0.92429361139E+02 0.  0.
          5    1    3    3  502    0  0.13616920481E+02  0.47530207894E+02  0.11797135989E+03  0.12798146483E+03  0.41800000000E+01 0.  1.
         -5    1    3    3    0  502 -0.31290437851E+02 -0.24587744525E+02 -0.82776216871E+01  0.40861229821E+02  0.41800000000E+01 0.  1.
        -11    1    4    4    0    0  0.53802031939E+02 -0.19644133310E+02 -0.22303082918E+02  0.61465259472E+02  0.00000000000E+00 0.  1.
         11    1    4    4    0    0 -0.36128514570E+02 -0.32983300588E+01 -0.38489381989E+02  0.52892164562E+02  0.00000000000E+00 0. -1.
</event>
<event>
 8    1  0.8619230E-006  0.8166053E+02  0.7561462E-02  0.1324404E+00
          4   -1    0    0  501    0  0.00000000000E+00  0.00000000000E+00  0.85910184007E+02  0.85910184007E+02  0.00000000000E+00 0.  1.
         -4   -1    0    0    0  501 -0.00000000000E+00 -0.00000000000E+00 -0.16828830339E+03  0.16828830339E+03  0.00000000000E+00 0. -1.
         23    2    1    2    0    0  0.44788468358E+02 -0.25223173271E+02 -0.43300353441E+02  0.14200227164E+03  0.12509000430E+03 0.  0.
         23    2    1    2    0    0 -0.44788468358E+02  0.25223173271E+02 -0.39077765945E+02  0.11219621576E+03  0.91753494057E+02 0.  0.
          5    1    3    3  502    0  0.22796751958E+02  0.96122901412E+01 -0.81738891752E+02  0.85503256350E+02  0.41800000000E+01 0. -1.
         -5    1    3    3    0  502  0.21991716400E+02 -0.34835463412E+02  0.38438538312E+02  0.56499015292E+02  0.41800000000E+01 0. -1.
        -11    1    4    4    0    0 -0.12218231108E+02  0.52769214877E+02  0.26574177097E+00  0.54165910210E+02  0.00000000000E+00 0.  1.
         11    1    4    4    0    0 -0.32570237250E+02 -0.27546041606E+02 -0.39343507716E+02  0.58030305549E+02  0.00000000000E+00 0. -1.
</event>
<event>
 8    1  0.8619230E-006  0.2324063E+03  0.7561462E-02  0.1124958E+00
         -1   -1    0    0    0  501 -0.00000000000E+00  0.00000000000E+00  0.56335367855E+03  0.56335367855E+03  0.00000000000E+00 0.  1.
          1   -1    0    0  501    0  0.00000000000E+00 -0.00000000000E+00 -0.15651449974E+03  0.15651449974E+03  0.00000000000E+00 0. -1.
         23    2    1    2    0    0 -0.10533990405E+03  0.19929073519E+03  0.40127217281E+03  0.47694818254E+03  0.12508764782E+03 0.  0.
         23    2    1    2    0    0  0.10533990405E+03 -0.19929073519E+03  0.55670059971E+01  0.24291999575E+03  0.90365038926E+02 0.  0.
          5    1    3    3  502    0 -0.23197103050E+01  0.47006453439E+01  0.11778740867E+03  0.11797806222E+03  0.41800000000E+01 0. -1.
         -5    1    3    3    0  502 -0.10302019375E+03  0.19459008985E+03  0.28348476414E+03  0.35897012033E+03  0.41800000000E+01 0. -1.
        -11    1    4    4    0    0  0.67906441466E+02 -0.50939108311E+02  0.25474958909E+02  0.88628726040E+02  0.00000000000E+00 0.  1.
         11    1    4    4    0    0  0.37433462589E+02 -0.14835162688E+03 -0.19907952912E+02  0.15429126971E+03  0.00000000000E+00 0. -1.
</event>
<event>
 8    1  0.8619230E-006  0.1043267E+03  0.7561462E-02  0.1271452E+00
         -2   -1    0    0    0  501 -0.00000000000E+00  0.00000000000E+00  0.22668010409E+02  0.22668010409E+02  0.00000000000E+00 0.  1.
          2   -1    0    0  501    0  0.00000000000E+00 -0.00000000000E+00 -0.63653348668E+03  0.63653348668E+03  0.00000000000E+00 0. -1.
         23    2    1    2    0    0  0.24824295695E+02 -0.27693031549E+02 -0.27507480521E+03  0.30446673072E+03  0.12510272581E+03 0.  0.
         23    2    1    2    0    0 -0.24824295695E+02  0.27693031549E+02 -0.33879067107E+03  0.35473476637E+03  0.98358965098E+02 0.  0.
          5    1    3    3  502    0 -0.38699457068E+02  0.19693010898E+02 -0.15106202349E+03  0.15723444278E+03  0.41800000000E+01 0.  1.
         -5    1    3    3    0  502  0.63523752763E+02 -0.47386042447E+02 -0.12401278172E+03  0.14723228794E+03  0.41800000000E+01 0.  1.
        -11    1    4    4    0    0 -0.48402570099E+02  0.36371463796E+02 -0.31272356667E+03  0.31853056576E+03  0.00000000000E+00 0. -1.
         11    1    4    4    0    0  0.23578274404E+02 -0.86784322470E+01 -0.26067104392E+02  0.36204200606E+02  0.00000000000E+00 0.  1.
</event>
<event>
 8    1  0.8619230E-006  0.1136102E+03  0.7561462E-02  0.1254027E+00
          2   -1    0    0  501    0  0.00000000000E+00  0.00000000000E+00  0.47875459197E+03  0.47875459197E+03  0.00000000000E+00 0. -1.
         -2   -1    0    0    0  501 -0.00000000000E+00 -0.00000000000E+00 -0.58360136855E+02  0.58360136855E+02  0.00000000000E+00 0.  1.
         23    2    1    2    0    0  0.56262811948E+02 -0.50645432258E+02  0.62600816636E+02  0.15904841835E+03  0.12508826211E+03 0.  0.
         23    2    1    2    0    0 -0.56262811948E+02  0.50645432258E+02  0.35779363847E+03  0.37806631047E+03  0.95850840193E+02 0.  0.
          5    1    3    3  502    0 -0.23077458877E+02  0.47079086711E+01 -0.20456865265E+02  0.31475216421E+02  0.41800000000E+01 0.  1.
         -5    1    3    3    0  502  0.79340270825E+02 -0.55353340929E+02  0.83057681902E+02  0.12757320193E+03  0.41800000000E+01 0.  1.
        -11    1    4    4    0    0 -0.60624381886E+02  0.52365851102E+01  0.29025646394E+03  0.29656626977E+03  0.00000000000E+00 0. -1.
         11    1    4    4    0    0  0.43615699381E+01  0.45408847148E+02  0.67537174533E+02  0.81500040709E+02  0.00000000000E+00 0.  1.
</event>
<event>
 8    1  0.8619230E-006  0.1132070E+03  0.7561462E-02  0.1254744E+00
          1   -1    0    0  501    0  0.00000000000E+00  0.00000000000E+00  0.24612708006E+02  0.24612708006E+02  0.00000000000E+00 0. -1.
         -1   -1    0    0    0  501 -0.00000000000E+00 -0.00000000000E+00 -0.74461031787E+03  0.74461031787E+03  0.00000000000E+00 0.  1.
         23    2    1    2    0    0  0.48419773908E+02 -0.52698744417E+02 -0.50195763054E+03  0.52223588468E+03  0.12508886533E+03 0.  0.
         23    2    1    2    0    0 -0.48419773908E+02  0.52698744417E+02 -0.21803997933E+03  0.24698714119E+03  0.91321318211E+02 0.  0.
          5    1    3    3  502    0  0.68385391124E+02 -0.77706332455E+02 -0.29244032058E+03  0.31024772252E+03  0.41800000000E+01 0. -1.
         -5    1    3    3    0  502 -0.19965617216E+02  0.25007588038E+02 -0.20951730995E+03  0.21198816217E+03  0.41800000000E+01 0. -1.
        -11    1    4    4    0    0 -0.18355262859E+02  0.57266001354E+02 -0.20545759226E+03  0.21407739909E+03  0.00000000000E+00 0.  1.
         11    1    4    4    0    0 -0.30064511049E+02 -0.45672569379E+01 -0.12582387069E+02  0.32909742097E+02  0.00000000000E+00 0. -1.
</event>
<event>
 8    1  0.8619230E-006  0.1118342E+03  0.7561462E-02  0.1257210E+00
          2   -1    0    0  501    0  0.00000000000E+00  0.00000000000E+00  0.60857634469E+02  0.60857634469E+02  0.00000000000E+00 0. -1.
         -2   -1    0    0    0  501 -0.00000000000E+00 -0.00000000000E+00 -0.38561095683E+03  0.38561095683E+03  0.00000000000E+00 0.  1.
         23    2    1    2    0    0 -0.17969587127E+02 -0.71621447628E+02 -0.28956692346E+03  0.32396207143E+03  0.12509949138E+03 0.  0.
         23    2    1    2    0    0  0.17969587127E+02  0.71621447628E+02 -0.35186398905E+02  0.12250651987E+03  0.91198831791E+02 0.  0.
          5    1    3    3  502    0  0.49757636795E+02 -0.49292329468E+02 -0.17971179593E+03  0.19292319238E+03  0.41800000000E+01 0. -1.
         -5    1    3    3    0  502 -0.67727223922E+02 -0.22329118160E+02 -0.10985512753E+03  0.13103887905E+03  0.41800000000E+01 0. -1.
        -11    1    4    4    0    0 -0.10193192100E+02  0.31050853556E+02 -0.59176222332E+02  0.67600902074E+02  0.00000000000E+00 0.  1.
         11    1    4    4    0    0  0.28162779227E+02  0.40570594072E+02  0.23989823427E+02  0.54905617792E+02  0.00000000000E+00 0. -1.
</event>
<event>
 8    1  0.1159761E-005  0.2924258E+03  0.7561462E-02  0.1089089E+00
          2   -1    0    0  501    0  0.00000000000E+00  0.00000000000E+00  0.12392028949E+04  0.12392028949E+04  0.00000000000E+00 0. -1.
         -2   -1    0    0    0  501 -0.00000000000E+00 -0.00000000000E+00 -0.78743960549E+02  0.78743960549E+02  0.00000000000E+00 0.  1.
         23    2    1    2    0    0  0.11518371714E+03 -0.26269094291E+03  0.46361256022E+03  0.55933729787E+03  0.12509111327E+03 0.  0.
         23    2    1    2    0    0 -0.11518371714E+03  0.26269094291E+03  0.69684637418E+03  0.75860955762E+03  0.87291302698E+02 0.  0.
          5    1    3    3  502    0  0.23228030468E+01  0.40665829723E+01 -0.52645396701E+01  0.81926972971E+01  0.41800000000E+01 0. -1.
         -5    1    3    3    0  502  0.11286091409E+03 -0.26675752588E+03  0.46887709989E+03  0.55114460058E+03  0.41800000000E+01 0. -1.
        -11    1    4    4    0    0 -0.68851164779E+02  0.19556117892E+03  0.58135926382E+03  0.61722220571E+03  0.00000000000E+00 0.  1.
         11    1    4    4    0    0 -0.46332552359E+02  0.67129763990E+02  0.11548711036E+03  0.14138735191E+03  0.00000000000E+00 0. -1.
</event>
<event>
 8    1  0.8619230E-006  0.8989774E+02  0.7561462E-02  0.1303100E+00
          1   -1    0    0  501    0  0.00000000000E+00  0.00000000000E+00  0.32988371316E+03  0.32988371316E+03  0.00000000000E+00 0. -1.
         -1   -1    0    0    0  501 -0.00000000000E+00 -0.00000000000E+00 -0.36949590358E+02  0.36949590358E+02  0.00000000000E+00 0.  1.
         23    2    1    2    0    0 -0.31047767033E+02 -0.16912664254E+02  0.20048333758E+03  0.23900507656E+03  0.12521923145E+03 0.  0.
         23    2    1    2    0    0  0.31047767033E+02  0.16912664254E+02  0.92450785218E+02  0.12782822695E+03  0.80888230718E+02 0.  0.
          5    1    3    3  502    0 -0.34013259178E+02  0.44585110553E+02  0.45997495431E+02  0.72649679070E+02  0.41800000000E+01 0. -1.
         -5    1    3    3    0  502  0.29654921451E+01 -0.61497774807E+02  0.15448584215E+03  0.16635539749E+03  0.41800000000E+01 0. -1.
        -11    1    4    4    0    0  0.42367538237E+02  0.23805836729E+02  0.10098135410E+03  0.11206676597E+03  0.00000000000E+00 0. -1.
         11    1    4    4    0    0 -0.11319771204E+02 -0.68931724753E+01 -0.85305688836E+01  0.15761460984E+02  0.00000000000E+00 0.  1.
</event>
<event>
 8    1  0.8619230E-006  0.1210220E+03  0.7561462E-02  0.1241420E+00
         -2   -1    0    0    0  501 -0.00000000000E+00  0.00000000000E+00  0.18435348618E+02  0.18435348618E+02  0.00000000000E+00 0.  1.
          2   -1    0    0  501    0  0.00000000000E+00 -0.00000000000E+00 -0.10906624278E+04  0.10906624278E+04  0.00000000000E+00 0. -1.
         23    2    1    2    0    0  0.88687037532E+02  0.86515792744E+00 -0.59466527178E+03  0.61411847208E+03  0.12509425710E+03 0.  0.
         23    2    1    2    0    0 -0.88687037532E+02 -0.86515792744E+00 -0.47756180741E+03  0.49497930435E+03  0.95252783231E+02 0.  0.
          5    1    3    3  502    0  0.75685023304E+02  0.29119692031E+02 -0.17108441097E+03  0.18937668097E+03  0.41800000000E+01 0. -1.
         -5    1    3    3    0  502  0.13002014228E+02 -0.28254534104E+02 -0.42358086081E+03  0.42474179111E+03  0.41800000000E+01 0. -1.
        -11    1    4    4    0    0 -0.99764015574E-01  0.34189526353E+02 -0.10483462776E+03  0.11026891150E+03  0.00000000000E+00 0.  1.
         11    1    4    4    0    0 -0.88587273517E+02 -0.35054684281E+02 -0.37272717965E+03  0.38471039285E+03  0.00000000000E+00 0. -1.
</event>
<event>
 7    1  0.8619230E-006  0.1310893E+03  0.7561462E-02  0.1225848E+00
          2   -1    0    0  501    0  0.00000000000E+00  0.00000000000E+00  0.52690367176E+02  0.52690367176E+02  0.00000000000E+00 0. -1.
         -2   -1    0    0    0  501 -0.00000000000E+00 -0.00000000000E+00 -0.47305264054E+03  0.47305264054E+03  0.00000000000E+00 0.  1.
         23    2    1    2    0    0  0.23904873422E+02  0.81554619614E+01 -0.96776026091E+02  0.13527390614E+03  0.91079503315E+02 0.  0.
          5    1    1    2  502    0 -0.96511079432E+02 -0.20679399732E+02 -0.57427475596E+02  0.11426903946E+03  0.41800000000E+01 0. -1.
         -5    1    1    2    0  502  0.72606206011E+02  0.12523937770E+02 -0.26615877168E+03  0.27620006211E+03  0.41800000000E+01 0.  1.
        -11    1    3    3    0    0 -0.30516828361E+02 -0.10170815515E+02 -0.56896473276E+02  0.65360010501E+02  0.00000000000E+00 0. -1.
         11    1    3    3    0    0  0.54421701783E+02  0.18326277476E+02 -0.39879552815E+02  0.69913895642E+02  0.00000000000E+00 0.  1.
</event>
<event>
 8    1  0.8619230E-006  0.1143586E+03  0.7561462E-02  0.1252705E+00
          2   -1    0    0  501    0  0.00000000000E+00  0.00000000000E+00  0.30589534366E+03  0.30589534366E+03  0.00000000000E+00 0. -1.
         -2   -1    0    0    0  501 -0.00000000000E+00 -0.00000000000E+00 -0.54391133400E+02  0.54391133400E+02  0.00000000000E+00 0.  1.
         23    2    1    2    0    0 -0.24899518019E+02 -0.69756230184E+01  0.58138811216E+02  0.14031816650E+03  0.12506166945E+03 0.  0.
         23    2    1    2    0    0  0.24899518019E+02  0.69756230184E+01  0.19336539905E+03  0.21996831056E+03  0.10162300325E+03 0.  0.
          5    1    3    3  502    0 -0.53177911257E+02 -0.50801734070E+02  0.45174763271E+02  0.86411446388E+02  0.41800000000E+01 0.  1.
         -5    1    3    3    0  502  0.28278393238E+02  0.43826111052E+02  0.12964047945E+02  0.53906720111E+02  0.41800000000E+01 0.  1.
        -11    1    4    4    0    0 -0.38395051768E+02  0.88726518820E+01  0.96560733734E+02  0.10429227800E+03  0.00000000000E+00 0.  1.
         11    1    4    4    0    0  0.63294569787E+02 -0.18970288636E+01  0.96804665312E+02  0.11567603256E+03  0.00000000000E+00 0. -1.
</event>
<event>
 8    1  0.8619230E-006  0.4735642E+02  0.7561462E-02  0.1460145E+00
         -2   -1    0    0    0  501 -0.00000000000E+00  0.00000000000E+00  0.49109217952E+03  0.49109217952E+03  0.00000000000E+00 0.  1.
          2   -1    0    0  501    0  0.00000000000E+00 -0.00000000000E+00 -0.21223045573E+02  0.21223045573E+02  0.00000000000E+00 0. -1.
         23    2    1    2    0    0 -0.53834591102E+01 -0.53081238849E+00  0.28065138660E+03  0.30222523461E+03  0.11200726870E+03 0.  0.
         23    2    1    2    0    0  0.53834591102E+01  0.53081238849E+00  0.18921774736E+03  0.21008999049E+03  0.91132786615E+02 0.  0.
          5    1    3    3  502    0 -0.44554534071E+01 -0.13234241531E+02 -0.56332021760E+01  0.15626950461E+02  0.41800000000E+01 0. -1.
         -5    1    3    3    0  502 -0.92800570318E+00  0.12703429142E+02  0.28628458877E+03  0.28659828414E+03  0.41800000000E+01 0.  1.
        -11    1    4    4    0    0  0.31983286628E+02  0.16207242680E+02  0.16996008829E+03  0.17370099870E+03  0.00000000000E+00 0. -1.
         11    1    4    4    0    0 -0.26599827517E+02 -0.15676430292E+02  0.19257659066E+02  0.36388991788E+02  0.00000000000E+00 0.  1.
</event>
<event>
 8    1  0.8619230E-006  0.1245210E+03  0.7561462E-02  0.1235820E+00
         -2   -1    0    0    0  501 -0.00000000000E+00  0.00000000000E+00  0.22621117340E+02  0.22621117340E+02  0.00000000000E+00 0. -1.
          2   -1    0    0  501    0  0.00000000000E+00 -0.00000000000E+00 -0.82691638088E+03  0.82691638088E+03  0.00000000000E+00 0.  1.
         23    2    1    2    0    0  0.14408770629E+02 -0.80291757220E+02 -0.49870778182E+03  0.52058829975E+03  0.12509335410E+03 0.  0.
         23    2    1    2    0    0 -0.14408770629E+02  0.80291757220E+02 -0.30558748172E+03  0.32894919847E+03  0.90385215835E+02 0.  0.
          5    1    3    3  502    0  0.43228044850E+02 -0.16855175522E+01 -0.60845220161E+02  0.74773779143E+02  0.41800000000E+01 0. -1.
         -5    1    3    3    0  502 -0.28819274221E+02 -0.78606239668E+02 -0.43786256166E+03  0.44581452061E+03  0.41800000000E+01 0. -1.
        -11    1    4    4    0    0 -0.20291911949E+02 -0.15653050242E+02 -0.63910645619E+02  0.68857463617E+02  0.00000000000E+00 0.  1.
         11    1    4    4    0    0  0.58831413202E+01  0.95944807462E+02 -0.24167683610E+03  0.26009173485E+03  0.00000000000E+00 0. -1.
</event>
<event>
 8    1  0.8619230E-006  0.1412506E+03  0.7561462E-02  0.1211656E+00
          1   -1    0    0  501    0  0.00000000000E+00  0.00000000000E+00  0.98988254666E+02  0.98988254666E+02  0.00000000000E+00 0. -1.
         -1   -1    0    0    0  501 -0.00000000000E+00 -0.00000000000E+00 -0.28953888142E+03  0.28953888142E+03  0.00000000000E+00 0.  1.
         23    2    1    2    0    0  0.12550731712E+03  0.17414241923E+02 -0.13101496898E+03  0.22105946053E+03  0.12508805106E+03 0.  0.
         23    2    1    2    0    0 -0.12550731712E+03 -0.17414241923E+02 -0.59535657774E+02  0.16746767556E+03  0.91899865819E+02 0.  0.
          5    1    3    3  502    0  0.87994815428E+01 -0.28636312970E+02  0.10379662345E+02  0.31979354064E+02  0.41800000000E+01 0. -1.
         -5    1    3    3    0  502  0.11670783558E+03  0.46050554893E+02 -0.14139463132E+03  0.18908010646E+03  0.41800000000E+01 0. -1.
        -11    1    4    4    0    0 -0.74080373469E+02 -0.11038429304E+02 -0.81938291462E+02  0.11101185640E+03  0.00000000000E+00 0.  1.
         11    1    4    4    0    0 -0.51426943656E+02 -0.63758126196E+01  0.22402633688E+02  0.56455819156E+02  0.00000000000E+00 0. -1.
</event>
<event>
 8    1  0.8619230E-006  0.1500526E+03  0.7561462E-02  0.1200408E+00
          1   -1    0    0  501    0  0.00000000000E+00  0.00000000000E+00  0.22703442289E+03  0.22703442289E+03  0.00000000000E+00 0. -1.
         -1   -1    0    0    0  501 -0.00000000000E+00 -0.00000000000E+00 -0.14905242987E+03  0.14905242987E+03  0.00000000000E+00 0.  1.
         23    2    1    2    0    0  0.53638884298E+02  0.95593018247E+02 -0.59977182496E+02  0.17681001983E+03  0.12509742461E+03 0.  0.
         23    2    1    2    0    0 -0.53638884298E+02 -0.95593018247E+02  0.13795917552E+03  0.19927683294E+03  0.93077209817E+02 0.  0.
          5    1    3    3  502    0 -0.38624263936E+02  0.30177928790E+02 -0.10359964182E+01  0.49204540840E+02  0.41800000000E+01 0. -1.
         -5    1    3    3    0  502  0.92263148234E+02  0.65415089457E+02 -0.58941186078E+02  0.12760547899E+03  0.41800000000E+01 0. -1.
        -11    1    4    4    0    0  0.83589704375E+01 -0.70268184011E+02  0.42098261920E+02  0.82339259941E+02  0.00000000000E+00 0.  1.
         11    1    4    4    0    0 -0.61997854736E+02 -0.25324834236E+02  0.95860913604E+02  0.11693757300E+03  0.00000000000E+00 0. -1.
</event>
<event>
 8    1  0.8619230E-006  0.1206590E+03  0.7561462E-02  0.1242014E+00
         -2   -1    0    0    0  501 -0.00000000000E+00  0.00000000000E+00  0.27640771303E+02  0.27640771303E+02  0.00000000000E+00 0.  1.
          2   -1    0    0  501    0  0.00000000000E+00 -0.00000000000E+00 -0.74924823665E+03  0.74924823665E+03  0.00000000000E+00 0. -1.
         23    2    1    2    0    0 -0.22300533059E+02  0.89973238777E+02 -0.42982581113E+03  0.45715448863E+03  0.12508997198E+03 0.  0.
         23    2    1    2    0    0  0.22300533059E+02 -0.89973238777E+02 -0.29178165421E+03  0.31973451932E+03  0.92201581541E+02 0.  0.
          5    1    3    3  502    0 -0.14868990755E+02  0.11272043546E+03 -0.41089762638E+03  0.42635820061E+03  0.41800000000E+01 0. -1.
         -5    1    3    3    0  502 -0.74315423047E+01 -0.22747196688E+02 -0.18928184749E+02  0.30796288025E+02  0.41800000000E+01 0. -1.
        -11    1    4    4    0    0  0.35615911909E+02 -0.52137562280E+02 -0.69649064931E+02  0.94009631567E+02  0.00000000000E+00 0.  1.
         11    1    4    4    0    0 -0.13315378849E+02 -0.37835676497E+02 -0.22213258928E+03  0.22572488775E+03  0.00000000000E+00 0. -1.
</event>
<event>
 8    1  0.8619230E-006  0.1281977E+03  0.7561462E-02  0.1230155E+00
         -2   -1    0    0    0  501 -0.00000000000E+00  0.00000000000E+00  0.40384945508E+02  0.40384945508E+02  0.00000000000E+00 0. -1.
          2   -1    0    0  501    0  0.00000000000E+00 -0.00000000000E+00 -0.46975124981E+03  0.46975124981E+03  0.00000000000E+00 0.  1.
         23    2    1    2    0    0  0.48389014053E+02 -0.63919219623E+02 -0.19101397296E+03  0.24198573271E+03  0.12507435251E+03 0.  0.
         23    2    1    2    0    0 -0.48389014053E+02  0.63919219623E+02 -0.23835233135E+03  0.26815046261E+03  0.93089598874E+02 0.  0.
          5    1    3    3  502    0  0.64672364118E+02 -0.93855038024E+02 -0.14177181040E+03  0.18195604268E+03  0.41800000000E+01 0. -1.
         -5    1    3    3    0  502 -0.16283350064E+02  0.29935818401E+02 -0.49242162559E+02  0.60029690039E+02  0.41800000000E+01 0. -1.
        -11    1    4    4    0    0  0.19108113011E+02  0.18879254933E+02 -0.15564202651E+02  0.31044977917E+02  0.00000000000E+00 0. -1.
         11    1    4    4    0    0 -0.67497127065E+02  0.45039964690E+02 -0.22278812870E+03  0.23710548469E+03  0.00000000000E+00 0.  1.
</event>
<event>
 8    1  0.8619230E-006  0.1077245E+03  0.7561462E-02  0.1264843E+00
          2   -1    0    0  501    0  0.00000000000E+00  0.00000000000E+00  0.31742817467E+03  0.31742817467E+03  0.00000000000E+00 0. -1.
         -2   -1    0    0    0  501 -0.00000000000E+00 -0.00000000000E+00 -0.53852120473E+02  0.53852120473E+02  0.00000000000E+00 0.  1.
         23    2    1    2    0    0 -0.28561672889E+02 -0.22856454379E+02  0.56902726780E+02  0.14221079616E+03  0.12509118100E+03 0.  0.
         23    2    1    2    0    0  0.28561672889E+02  0.22856454379E+02  0.20667332742E+03  0.22906949898E+03  0.91764832233E+02 0.  0.
          5    1    3    3  502    0 -0.49580120329E+02 -0.64108439576E+02  0.49723499198E+02  0.95173416085E+02  0.41800000000E+01 0. -1.
         -5    1    3    3    0  502  0.21018447439E+02  0.41251985198E+02  0.71792275820E+01  0.47037380074E+02  0.41800000000E+01 0. -1.
        -11    1    4    4    0    0 -0.11679242832E+02 -0.23610809504E+02  0.21632445486E+02  0.34085740952E+02  0.00000000000E+00 0.  1.
         11    1    4    4    0    0  0.40240915721E+02  0.46467263883E+02  0.18504088193E+03  0.19498375803E+03  0.00000000000E+00 0. -1.
</event>
<event>
 8    1  0.8619230E-006  0.1567885E+03  0.7561462E-02  0.1192371E+00
         -1   -1    0    0    0  501 -0.00000000000E+00  0.00000000000E+00  0.34080768570E+02  0.34080768570E+02  0.00000000000E+00 0.  1.
          1   -1    0    0  501    0  0.00000000000E+00 -0.00000000000E+00 -0.76293836511E+03  0.76293836511E+03  0.00000000000E+00 0. -1.
         23    2    1    2    0    0 -0.10442769026E+03 -0.57003625465E+02 -0.36539372231E+03  0.40412306124E+03  0.12509324728E+03 0.  0.
         23    2    1    2    0    0  0.10442769026E+03  0.57003625465E+02 -0.36346387423E+03  0.39289607244E+03  0.90037659103E+02 0.  0.
          5    1    3    3  502    0 -0.92024902497E+02 -0.91775883158E+02 -0.23544093075E+03  0.26896337981E+03  0.41800000000E+01 0.  1.
         -5    1    3    3    0  502 -0.12402787765E+02  0.34772257693E+02 -0.12995279156E+03  0.13515968143E+03  0.41800000000E+01 0.  1.
        -11    1    4    4    0    0  0.85576156390E+02 -0.80956387669E+00 -0.17389305931E+03  0.19381106783E+03  0.00000000000E+00 0.  1.
         11    1    4    4    0    0  0.18851533872E+02  0.57813189342E+02 -0.18957081492E+03  0.19908500461E+03  0.00000000000E+00 0. -1.
</event>
<event>
 8    1  0.8619230E-006  0.1035204E+03  0.7561462E-02  0.1273063E+00
          1   -1    0    0  501    0  0.00000000000E+00  0.00000000000E+00  0.24838962519E+03  0.24838962519E+03  0.00000000000E+00 0. -1.
         -1   -1    0    0    0  501 -0.00000000000E+00 -0.00000000000E+00 -0.60144180690E+02  0.60144180690E+02  0.00000000000E+00 0.  1.
         23    2    1    2    0    0 -0.52283595662E+02 -0.17953174519E+02  0.91900544848E+02  0.16477063213E+03  0.12509100775E+03 0.  0.
         23    2    1    2    0    0  0.52283595662E+02  0.17953174519E+02  0.96344899655E+02  0.14376317375E+03  0.91266749623E+02 0.  0.
          5    1    3    3  502    0 -0.51930224109E+02  0.24868892357E+02 -0.57952506241E+01  0.58019542508E+02  0.41800000000E+01 0.  1.
         -5    1    3    3    0  502 -0.35337155301E+00 -0.42822066877E+02  0.97695795472E+02  0.10675108962E+03  0.41800000000E+01 0.  1.
        -11    1    4    4    0    0  0.39545759932E+02 -0.34393728552E+02  0.41153366230E+02  0.66636290746E+02  0.00000000000E+00 0.  1.
         11    1    4    4    0    0  0.12737835729E+02  0.52346903071E+02  0.55191533425E+02  0.77126883005E+02  0.00000000000E+00 0. -1.
</event>
<event>
 8    1  0.8619230E-006  0.9428118E+02  0.7561462E-02  0.1292803E+00
          4   -1    0    0  501    0  0.00000000000E+00  0.00000000000E+00  0.26699220106E+02  0.26699220106E+02  0.00000000000E+00 0. -1.
         -4   -1    0    0    0  501 -0.00000000000E+00 -0.00000000000E+00 -0.47638468562E+03  0.47638468562E+03  0.00000000000E+00 0.  1.
         23    2    1    2    0    0 -0.11113258249E+02  0.23123219639E+02 -0.23136345721E+03  0.26426234011E+03  0.12508935715E+03 0.  0.
         23    2    1    2    0    0  0.11113258249E+02 -0.23123219639E+02 -0.21832200830E+03  0.23882156561E+03  0.93343736252E+02 0.  0.
          5    1    3    3  502    0  0.30675271639E+02 -0.40487445045E+02 -0.10436324640E+03  0.11614372603E+03  0.41800000000E+01 0.  1.
         -5    1    3    3    0  502 -0.41788529888E+02  0.63610664684E+02 -0.12700021081E+03  0.14811861408E+03  0.41800000000E+01 0.  1.
        -11    1    4    4    0    0  0.16248446125E+02 -0.40295152274E+02 -0.21648782197E+03  0.22080463845E+03  0.00000000000E+00 0.  1.
         11    1    4    4    0    0 -0.51351878757E+01  0.17171932635E+02 -0.18341863297E+01  0.18016927164E+02  0.00000000000E+00 0. -1.
</event>
<event>
 8    1  0.8619230E-006  0.1068360E+03  0.7561462E-02  0.1266544E+00
          1   -1    0    0  501    0  0.00000000000E+00  0.00000000000E+00  0.63231503253E+02  0.63231503253E+02  0.00000000000E+00 0. -1.
         -1   -1    0    0    0  501 -0.00000000000E+00 -0.00000000000E+00 -0.26852473382E+03  0.26852473382E+03  0.00000000000E+00 0.  1.
         23    2    1    2    0    0 -0.21035288393E+02  0.35474926807E+02 -0.19076381909E+03  0.23181693915E+03  0.12508918745E+03 0.  0.
         23    2    1    2    0    0  0.21035288393E+02 -0.35474926807E+02 -0.14529411476E+02  0.99939297917E+02  0.89865486592E+02 0.  0.
          5    1    3    3  502    0  0.25435678942E+02  0.69372001327E+02 -0.10456462540E+03  0.12810418267E+03  0.41800000000E+01 0.  1.
         -5    1    3    3    0  502 -0.46470967335E+02 -0.33897074520E+02 -0.86199193684E+02  0.10371275649E+03  0.41800000000E+01 0.  1.
        -11    1    4    4    0    0  0.14278205008E+02 -0.57349165185E+02  0.16516913163E+02  0.61364503632E+02  0.00000000000E+00 0. -1.
         11    1    4    4    0    0  0.67570833845E+01  0.21874238378E+02 -0.31046324639E+02  0.38574794284E+02  0.00000000000E+00 0.  1.
</event>
<event>
 8    1  0.8619230E-006  0.1347415E+03  0.7561462E-02  0.1220585E+00
         -1   -1    0    0    0  501 -0.00000000000E+00  0.00000000000E+00  0.26247555714E+03  0.26247555714E+03  0.00000000000E+00 0.  1.
          1   -1    0    0  501    0  0.00000000000E+00 -0.00000000000E+00 -0.14728070467E+03  0.14728070467E+03  0.00000000000E+00 0. -1.
         23    2    1    2    0    0 -0.10068927596E+03 -0.17547526517E+02  0.19279612650E+03  0.25152376391E+03  0.12509041305E+03 0.  0.
         23    2    1    2    0    0  0.10068927596E+03  0.17547526517E+02 -0.77601274035E+02  0.15823249790E+03  0.92570619950E+02 0.  0.
          5    1    3    3  502    0 -0.36948266824E+01  0.44804103749E+02  0.42143455389E+02  0.61762469908E+02  0.41800000000E+01 0.  1.
         -5    1    3    3    0  502 -0.96994449279E+02 -0.62351630266E+02  0.15065267111E+03  0.18976129400E+03  0.41800000000E+01 0.  1.
        -11    1    4    4    0    0  0.12340750640E+02 -0.10556205849E+02 -0.62157892261E+02  0.64244308531E+02  0.00000000000E+00 0. -1.
         11    1    4    4    0    0  0.88348525321E+02  0.28103732366E+02 -0.15443381773E+02  0.93988189364E+02  0.00000000000E+00 0.  1.
</event>
<event>
 8    1  0.8619230E-006  0.9919076E+02  0.7561462E-02  0.1282007E+00
         -1   -1    0    0    0  501 -0.00000000000E+00  0.00000000000E+00  0.43296437150E+02  0.43296437150E+02  0.00000000000E+00 0.  1.
          1   -1    0    0  501    0  0.00000000000E+00 -0.00000000000E+00 -0.39244598077E+03  0.39244598077E+03  0.00000000000E+00 0. -1.
         23    2    1    2    0    0  0.63897969035E+02  0.95199866030E+01 -0.13747112796E+03  0.19676988364E+03  0.12508595243E+03 0.  0.
         23    2    1    2    0    0 -0.63897969035E+02 -0.95199866030E+01 -0.21167841567E+03  0.23897253428E+03  0.90147323256E+02 0.  0.
          5    1    3    3  502    0 -0.17762537523E+02  0.38275466832E+02 -0.11633409534E+02  0.43969622671E+02  0.41800000000E+01 0. -1.
         -5    1    3    3    0  502  0.81660506559E+02 -0.28755480229E+02 -0.12583771842E+03  0.15280026097E+03  0.41800000000E+01 0. -1.
        -11    1    4    4    0    0 -0.44570364321E+02  0.53859282579E+01 -0.20973647725E+03  0.21448756488E+03  0.00000000000E+00 0. -1.
         11    1    4    4    0    0 -0.19327604715E+02 -0.14905914861E+02 -0.19419384178E+01  0.24484969403E+02  0.00000000000E+00 0.  1.
</event>
<event>
 8    1  0.8619230E-006  0.1452868E+03  0.7561462E-02  0.1206387E+00
          2   -1    0    0  501    0  0.00000000000E+00  0.00000000000E+00  0.58785456724E+03  0.58785456724E+03  0.00000000000E+00 0. -1.
         -2   -1    0    0    0  501 -0.00000000000E+00 -0.00000000000E+00 -0.52402153365E+02  0.52402153365E+02  0.00000000000E+00 0.  1.
         23    2    1    2    0    0  0.69814845861E+02 -0.68475560785E+02  0.10665261899E+03  0.19128013574E+03  0.12510113534E+03 0.  0.
         23    2    1    2    0    0 -0.69814845861E+02  0.68475560785E+02  0.42879979489E+03  0.44897658486E+03  0.90264580723E+02 0.  0.
          5    1    3    3  502    0 -0.33599831556E+02 -0.37986140054E+02  0.33502831018E+02  0.60924605892E+02  0.41800000000E+01 0.  1.
         -5    1    3    3    0  502  0.10341467742E+03 -0.30489420730E+02  0.73149787967E+02  0.13035552985E+03  0.41800000000E+01 0.  1.
        -11    1    4    4    0    0 -0.46252091947E+02  0.89156617746E+02  0.29797112999E+03  0.31444387862E+03  0.00000000000E+00 0.  1.
         11    1    4    4    0    0 -0.23562753914E+02 -0.20681056961E+02  0.13082866490E+03  0.13453270624E+03  0.00000000000E+00 0. -1.
</event>
<event>
 8    1  0.9077067E-006  0.2208806E+03  0.7561462E-02  0.1133228E+00
          2   -1    0    0  501    0  0.00000000000E+00  0.00000000000E+00  0.72970321192E+03  0.72970321192E+03  0.00000000000E+00 0. -1.
         -2   -1    0    0    0  501 -0.00000000000E+00 -0.00000000000E+00 -0.82739044635E+02  0.82739044635E+02  0.00000000000E+00 0.  1.
         23    2    1    2    0    0  0.12732112384E+03  0.16137419274E+03  0.20291930787E+03  0.31476302459E+03  0.12508883836E+03 0.  0.
         23    2    1    2    0    0 -0.12732112384E+03 -0.16137419274E+03  0.44404485941E+03  0.49767923197E+03  0.90865186427E+02 0.  0.
          5    1    3    3  502    0  0.95108484329E+02  0.17265752603E+03  0.19903408137E+03  0.28015760392E+03  0.41800000000E+01 0. -1.
         -5    1    3    3    0  502  0.32212639511E+02 -0.11283333293E+02  0.38852264985E+01  0.34605420666E+02  0.41800000000E+01 0. -1.
        -11    1    4    4    0    0 -0.31908604909E+02 -0.75013803219E+02  0.92368347447E+02  0.12319554112E+03  0.00000000000E+00 0. -1.
         11    1    4    4    0    0 -0.95412518931E+02 -0.86360389518E+02  0.35167651196E+03  0.37448369085E+03  0.00000000000E+00 0.  1.
</event>
<event>
 8    1  0.8619230E-006  0.1667897E+03  0.7561462E-02  0.1181238E+00
          2   -1    0    0  501    0  0.00000000000E+00  0.00000000000E+00  0.81713382950E+02  0.81713382950E+02  0.00000000000E+00 0. -1.
         -2   -1    0    0    0  501 -0.00000000000E+00 -0.00000000000E+00 -0.36026166811E+03  0.36026166811E+03  0.00000000000E+00 0.  1.
         23    2    1    2    0    0  0.75157381932E+02  0.10836804070E+03 -0.16519074460E+03  0.24561734380E+03  0.12509049992E+03 0.  0.
         23    2    1    2    0    0 -0.75157381932E+02 -0.10836804070E+03 -0.11335754057E+03  0.19635770726E+03  0.91181976803E+02 0.  0.
          5    1    3    3  502    0 -0.30969801599E+02  0.38552698158E+02 -0.22387666554E+02  0.54443724708E+02  0.41800000000E+01 0.  1.
         -5    1    3    3    0  502  0.10612718353E+03  0.69815342542E+02 -0.14280307804E+03  0.19117361909E+03  0.41800000000E+01 0.  1.
        -11    1    4    4    0    0 -0.18999833357E+02 -0.97899218752E+02 -0.91028242540E+02  0.13502367066E+03  0.00000000000E+00 0.  1.
         11    1    4    4    0    0 -0.56157548575E+02 -0.10468821949E+02 -0.22329298025E+02  0.61334036597E+02  0.00000000000E+00 0. -1.
</event>
<event>
 8    1  0.8619230E-006  0.1292468E+03  0.7561462E-02  0.1228578E+00
          2   -1    0    0  501    0  0.00000000000E+00  0.00000000000E+00  0.20271253325E+03  0.20271253325E+03  0.00000000000E+00 0. -1.
         -2   -1    0    0    0  501 -0.00000000000E+00 -0.00000000000E+00 -0.89377696562E+02  0.89377696562E+02  0.00000000000E+00 0.  1.
         23    2    1    2    0    0 -0.77478974116E+02  0.25588438365E+02  0.33002019140E+02  0.14576622847E+03  0.11619337540E+03 0.  0.
         23    2    1    2    0    0  0.77478974116E+02 -0.25588438365E+02  0.80332817546E+02  0.14632400135E+03  0.91102097598E+02 0.  0.
          5    1    3    3  502    0 -0.10278149093E+03  0.27792363937E+01  0.40583457615E+02  0.11061757755E+03  0.41800000000E+01 0. -1.
         -5    1    3    3    0  502  0.25302516811E+02  0.22809201971E+02 -0.75814384746E+01  0.35148650911E+02  0.41800000000E+01 0.  1.
        -11    1    4    4    0    0  0.84976252529E+02  0.93917608345E+01  0.65022666502E+02  0.10741096697E+03  0.00000000000E+00 0.  1.
         11    1    4    4    0    0 -0.74972784127E+01 -0.34980199200E+02  0.15310151044E+02  0.38913034380E+02  0.00000000000E+00 0. -1.
</event>
<event>
 8    1  0.8619230E-006  0.1331502E+03  0.7561462E-02  0.1222855E+00
          1   -1    0    0  501    0  0.00000000000E+00  0.00000000000E+00  0.74881671599E+02  0.74881671599E+02  0.00000000000E+00 0. -1.
         -1   -1    0    0    0  501 -0.00000000000E+00 -0.00000000000E+00 -0.31529820638E+03  0.31529820638E+03  0.00000000000E+00 0.  1.
         23    2    1    2    0    0  0.57282934737E+02  0.53690727595E+02 -0.22168513585E+03  0.26637601625E+03  0.12509138153E+03 0.  0.
         23    2    1    2    0    0 -0.57282934737E+02 -0.53690727595E+02 -0.18731398935E+02  0.12380386173E+03  0.93874927602E+02 0.  0.
          5    1    3    3  502    0 -0.22477347891E+01  0.79755897702E+02 -0.96645533968E+02  0.12539492480E+03  0.41800000000E+01 0.  1.
         -5    1    3    3    0  502  0.59530669526E+02 -0.26065170107E+02 -0.12503960188E+03  0.14098109145E+03  0.41800000000E+01 0.  1.
        -11    1    4    4    0    0 -0.55527343501E+02 -0.78641813640E+02 -0.21491487658E+02  0.98639265866E+02  0.00000000000E+00 0.  1.
         11    1    4    4    0    0 -0.17555912366E+01  0.24951086045E+02  0.27600887230E+01  0.25164595868E+02  0.00000000000E+00 0. -1.
</event>
<event>
 8    1  0.8619230E-006  0.1302009E+03  0.7561462E-02  0.1227158E+00
          1   -1    0    0  501    0  0.00000000000E+00  0.00000000000E+00  0.25948387072E+03  0.25948387072E+03  0.00000000000E+00 0. -1.
         -1   -1    0    0    0  501 -0.00000000000E+00 -0.00000000000E+00 -0.67277281910E+02  0.67277281910E+02  0.00000000000E+00 0.  1.
         23    2    1    2    0    0  0.35605999856E+02 -0.40912039757E+02  0.80449425240E+02  0.15830601824E+03  0.12508838142E+03 0.  0.
         23    2    1    2    0    0 -0.35605999856E+02  0.40912039757E+02  0.11175716357E+03  0.16845513439E+03  0.11377999152E+03 0.  0.
          5    1    3    3  502    0  0.71437776411E+02 -0.61794695682E+02  0.58724033825E+02  0.11130105508E+03  0.41800000000E+01 0. -1.
         -5    1    3    3    0  502 -0.35831776556E+02  0.20882655925E+02  0.21725391415E+02  0.47004963161E+02  0.41800000000E+01 0. -1.
        -11    1    4    4    0    0 -0.10512985924E+02 -0.39009952676E+02  0.50529892353E+02  0.64695975934E+02  0.00000000000E+00 0.  1.
         11    1    4    4    0    0 -0.25093013932E+02  0.79921992433E+02  0.61227271212E+02  0.10375915845E+03  0.00000000000E+00 0. -1.
</event>
<event>
 8    1  0.8619230E-006  0.1105511E+03  0.7561462E-02  0.1259553E+00
         -2   -1    0    0    0  501 -0.00000000000E+00  0.00000000000E+00  0.26368362065E+02  0.26368362065E+02  0.00000000000E+00 0. -1.
          2   -1    0    0  501    0  0.00000000000E+00 -0.00000000000E+00 -0.56621648392E+03  0.56621648392E+03  0.00000000000E+00 0.  1.
         23    2    1    2    0    0 -0.91145209405E+01 -0.58921799186E+02 -0.31728140291E+03  0.34622225116E+03  0.12508999021E+03 0.  0.
         23    2    1    2    0    0  0.91145209405E+01  0.58921799186E+02 -0.22256671894E+03  0.24636259483E+03  0.87199374077E+02 0.  0.
          5    1    3    3  502    0 -0.35283484841E+02  0.17215573316E+02 -0.35360818106E+02  0.53001510585E+02  0.41800000000E+01 0.  1.
         -5    1    3    3    0  502  0.26168963900E+02 -0.76137372502E+02 -0.28192058481E+03  0.29322074057E+03  0.41800000000E+01 0.  1.
        -11    1    4    4    0    0 -0.34735868780E+02  0.40726316402E+02 -0.15339300176E+03  0.16246423119E+03  0.00000000000E+00 0.  1.
         11    1    4    4    0    0  0.43850389720E+02  0.18195482783E+02 -0.69173717176E+02  0.83898363633E+02  0.00000000000E+00 0. -1.
</event>
<event>
 8    1  0.8619230E-006  0.2486304E+03  0.7561462E-02  0.1114173E+00
          2   -1    0    0  501    0  0.00000000000E+00  0.00000000000E+00  0.30368425540E+03  0.30368425540E+03  0.00000000000E+00 0.  1.
         -2   -1    0    0    0  501 -0.00000000000E+00 -0.00000000000E+00 -0.24684365542E+03  0.24684365542E+03  0.00000000000E+00 0. -1.
         23    2    1    2    0    0 -0.22645547976E+03  0.37973145853E+02 -0.71647021369E+02  0.27111839455E+03  0.12509134292E+03 0.  0.
         23    2    1    2    0    0  0.22645547976E+03 -0.37973145853E+02  0.12848762135E+03  0.27940951626E+03  0.94003004313E+02 0.  0.
          5    1    3    3  502    0 -0.21583659473E+03  0.69055851216E+02 -0.51740596367E+02  0.23248377991E+03  0.41800000000E+01 0. -1.
         -5    1    3    3    0  502 -0.10618885036E+02 -0.31082705363E+02 -0.19906425002E+02  0.38634614641E+02  0.41800000000E+01 0. -1.
        -11    1    4    4    0    0  0.14811068466E+03 -0.53780607741E+02  0.45088176794E+02  0.16389652945E+03  0.00000000000E+00 0. -1.
         11    1    4    4    0    0  0.78344795098E+02  0.15807461888E+02  0.83399444551E+02  0.11551298681E+03  0.00000000000E+00 0.  1.
</event>
<event>
 8    1  0.8619230E-006  0.2448272E+03  0.7561462E-02  0.1116618E+00
         -1   -1    0    0    0  501 -0.00000000000E+00  0.00000000000E+00  0.22871806650E+03  0.22871806650E+03  0.00000000000E+00 0.  1.
          1   -1    0    0  501    0  0.00000000000E+00 -0.00000000000E+00 -0.30787224702E+03  0.30787224702E+03  0.00000000000E+00 0. -1.
         23    2    1    2    0    0 -0.21165732350E+03 -0.10162139690E+03  0.95392193217E+01  0.26620452031E+03  0.12509244192E+03 0.  0.
         23    2    1    2    0    0  0.21165732350E+03  0.10162139690E+03 -0.88693399844E+02  0.27038579321E+03  0.10057945662E+03 0.  0.
          5    1    3    3  502    0 -0.16722507820E+03 -0.79778286294E+02  0.60575314174E+02  0.19497600578E+03  0.41800000000E+01 0. -1.
         -5    1    3    3    0  502 -0.44432245307E+02 -0.21843110605E+02 -0.51036094852E+02  0.71228514527E+02  0.41800000000E+01 0. -1.
        -11    1    4    4    0    0  0.67052524488E+02 -0.15186674484E+02 -0.14658063318E+02  0.70296052110E+02  0.00000000000E+00 0.  1.
         11    1    4    4    0    0  0.14460479902E+03  0.11680807138E+03 -0.74035336526E+02  0.20008974110E+03  0.00000000000E+00 0. -1.
</event>
<event>
 8    1  0.8619230E-006  0.8415259E+02  0.7561462E-02  0.1317664E+00
         -1   -1    0    0    0  501 -0.00000000000E+00  0.00000000000E+00  0.11292195509E+03  0.11292195509E+03  0.00000000000E+00 0.  1.
          1   -1    0    0  501    0  0.00000000000E+00 -0.00000000000E+00 -0.12257284632E+03  0.12257284632E+03  0.00000000000E+00 0. -1.
         23    2    1    2    0    0  0.25396139377E+02 -0.36174171231E+02 -0.13927913546E+02  0.13337502010E+03  0.12506548146E+03 0.  0.
         23    2    1    2    0    0 -0.25396139377E+02  0.36174171231E+02  0.42770223128E+01  0.10211978131E+03  0.91959894820E+02 0.  0.
          5    1    3    3  502    0  0.12575602421E+02 -0.52757817875E+02 -0.60967504763E+02  0.81707050859E+02  0.41800000000E+01 0.  1.
         -5    1    3    3    0  502  0.12820536956E+02  0.16583646643E+02  0.47039591217E+02  0.51667969243E+02  0.41800000000E+01 0.  1.
        -11    1    4    4    0    0 -0.40469245596E+02  0.55083969328E+02  0.22368538542E+02  0.71919086705E+02  0.00000000000E+00 0.  1.
         11    1    4    4    0    0  0.15073106218E+02 -0.18909798097E+02 -0.18091516229E+02  0.30200694604E+02  0.00000000000E+00 0. -1.
</event>
<event>
 8    1  0.1582448E-005  0.2016711E+03  0.7561462E-02  0.1148337E+00
         -2   -1    0    0    0  501 -0.00000000000E+00  0.00000000000E+00  0.80764713032E+02  0.80764713032E+02  0.00000000000E+00 0.  1.
          2   -1    0    0  501    0  0.00000000000E+00 -0.00000000000E+00 -0.57069670328E+03  0.57069670328E+03  0.00000000000E+00 0. -1.
         23    2    1    2    0    0 -0.11193078344E+03  0.14462631459E+03 -0.21513138645E+03  0.30882722332E+03  0.12508984480E+03 0.  0.
         23    2    1    2    0    0  0.11193078344E+03 -0.14462631459E+03 -0.27480060380E+03  0.34263419300E+03  0.91856122324E+02 0.  0.
          5    1    3    3  502    0 -0.18099607446E+02  0.11023467451E+03 -0.67771843537E+02  0.13072786402E+03  0.41800000000E+01 0.  1.
         -5    1    3    3    0  502 -0.93831175994E+02  0.34391640080E+02 -0.14735954291E+03  0.17809935930E+03  0.41800000000E+01 0.  1.
        -11    1    4    4    0    0  0.23810776916E+02 -0.76578596172E+02 -0.17748886747E+03  0.19476532690E+03  0.00000000000E+00 0. -1.
         11    1    4    4    0    0  0.88120006524E+02 -0.68047718418E+02 -0.97311736335E+02  0.14786886609E+03  0.00000000000E+00 0.  1.
</event>
<event>
 8    1  0.8619230E-006  0.7148784E+02  0.7561462E-02  0.1355105E+00
          1   -1    0    0  501    0  0.00000000000E+00  0.00000000000E+00  0.89432317532E+02  0.89432317532E+02  0.00000000000E+00 0. -1.
         -1   -1    0    0    0  501 -0.00000000000E+00 -0.00000000000E+00 -0.17358657611E+03  0.17358657611E+03  0.00000000000E+00 0.  1.
         23    2    1    2    0    0 -0.82209461045E+01 -0.32681064785E+02 -0.56795856277E+02  0.14145259247E+03  0.12508969052E+03 0.  0.
         23    2    1    2    0    0  0.82209461045E+01  0.32681064785E+02 -0.27358402301E+02  0.12156630118E+03  0.11355283992E+03 0.  0.
          5    1    3    3  502    0  0.23606665452E+02  0.99946663356E+01  0.29914763959E+02  0.39617338523E+02  0.41800000000E+01 0.  1.
         -5    1    3    3    0  502 -0.31827611556E+02 -0.42675731120E+02 -0.86710620236E+02  0.10183525394E+03  0.41800000000E+01 0.  1.
        -11    1    4    4    0    0  0.29166266867E+02  0.61662334305E+01 -0.64681029510E+02  0.71220285987E+02  0.00000000000E+00 0.  1.
         11    1    4    4    0    0 -0.20945320762E+02  0.26514831354E+02  0.37322627209E+02  0.50346015188E+02  0.00000000000E+00 0. -1.
</event>
<event>
 8    1  0.8619230E-006  0.1768093E+03  0.7561462E-02  0.1170927E+00
         -2   -1    0    0    0  501 -0.00000000000E+00  0.00000000000E+00  0.52786715452E+02  0.52786715452E+02  0.00000000000E+00 0.  1.
          2   -1    0    0  501    0  0.00000000000E+00 -0.00000000000E+00 -0.76043931304E+03  0.76043931304E+03  0.00000000000E+00 0. -1.
         23    2    1    2    0    0  0.16406873944E+03 -0.18377333257E+02 -0.31200541261E+03  0.37450105513E+03  0.12508950856E+03 0.  0.
         23    2    1    2    0    0 -0.16406873944E+03  0.18377333257E+02 -0.39564718498E+03  0.43872497337E+03  0.93202090294E+02 0.  0.
          5    1    3    3  502    0  0.11812094325E+03 -0.48996941669E+01 -0.30343253829E+03  0.32567674453E+03  0.41800000000E+01 0. -1.
         -5    1    3    3    0  502  0.45947796196E+02 -0.13477639090E+02 -0.85728743184E+01  0.48824310592E+02  0.41800000000E+01 0. -1.
        -11    1    4    4    0    0  0.21999348384E+01  0.20853533083E+02 -0.70073884030E+02  0.73144095992E+02  0.00000000000E+00 0.  1.
         11    1    4    4    0    0 -0.16626867428E+03 -0.24761998267E+01 -0.32557330095E+03  0.36558087738E+03  0.00000000000E+00 0. -1.
</event>
<event>
 8    1  0.8619230E-006  0.1178150E+03  0.7561462E-02  0.1246746E+00
          2   -1    0    0  501    0  0.00000000000E+00  0.00000000000E+00  0.15892605158E+03  0.15892605158E+03  0.00000000000E+00 0. -1.
         -2   -1    0    0    0  501 -0.00000000000E+00 -0.00000000000E+00 -0.11227423297E+03  0.11227423297E+03  0.00000000000E+00 0.  1.
         23    2    1    2    0    0  0.54031312092E+02 -0.11351230474E+02 -0.32132145633E+02  0.14051359932E+03  0.12515336068E+03 0.  0.
         23    2    1    2    0    0 -0.54031312092E+02  0.11351230474E+02  0.78783964238E+02  0.13068668523E+03  0.88452606265E+02 0.  0.
          5    1    3    3  502    0  0.75277134541E+02  0.36199875848E+02 -0.11862388939E+02  0.84470507679E+02  0.41800000000E+01 0. -1.
         -5    1    3    3    0  502 -0.21245822449E+02 -0.47551106321E+02 -0.20269756694E+02  0.56043091638E+02  0.41800000000E+01 0. -1.
        -11    1    4    4    0    0 -0.55267098748E+01 -0.33338819126E+02  0.96629971718E+01  0.35148184833E+02  0.00000000000E+00 0.  1.
         11    1    4    4    0    0 -0.48504602217E+02  0.44690049600E+02  0.69120967067E+02  0.95538500395E+02  0.00000000000E+00 0. -1.
</event>
<event>
 8    1  0.8619230E-006  0.1082041E+03  0.7561462E-02  0.1263932E+00
          1   -1    0    0  501    0  0.00000000000E+00  0.00000000000E+00  0.63353296655E+03  0.63353296655E+03  0.00000000000E+00 0. -1.
         -1   -1    0    0    0  501 -0.00000000000E+00 -0.00000000000E+00 -0.24691731264E+02  0.24691731264E+02  0.00000000000E+00 0.  1.
         23    2    1    2    0    0 -0.55738967899E+02 -0.26695690817E+02  0.36060257317E+03  0.38665178359E+03  0.12508354621E+03 0.  0.
         23    2    1    2    0    0  0.55738967899E+02  0.26695690817E+02  0.24823866212E+03  0.27157291422E+03  0.91158773118E+02 0.  0.
          5    1    3    3  502    0 -0.53939643730E+02  0.25983898029E+02  0.30121520764E+03  0.30713632451E+03  0.41800000000E+01 0. -1.
         -5    1    3    3    0  502 -0.17993241688E+01 -0.52679588846E+02  0.59387365526E+02  0.79515459079E+02  0.41800000000E+01 0. -1.
        -11    1    4    4    0    0 -0.43761866688E+01  0.41397260481E+02  0.14823291094E+03  0.15396713958E+03  0.00000000000E+00 0. -1.
         11    1    4    4    0    0  0.60115154568E+02 -0.14701569665E+02  0.10000575118E+03  0.11760577464E+03  0.00000000000E+00 0.  1.
</event>
<event>
 8    1  0.8619230E-006  0.9424817E+02  0.7561462E-02  0.1292878E+00
          1   -1    0    0  501    0  0.00000000000E+00  0.00000000000E+00  0.39717692848E+02  0.39717692848E+02  0.00000000000E+00 0.  1.
         -1   -1    0    0    0  501 -0.00000000000E+00 -0.00000000000E+00 -0.35416242045E+03  0.35416242045E+03  0.00000000000E+00 0. -1.
         23    2    1    2    0    0 -0.20445262833E+02 -0.37951086012E+02 -0.22379376066E+03  0.25998009011E+03  0.12509079199E+03 0.  0.
         23    2    1    2    0    0  0.20445262833E+02  0.37951086012E+02 -0.90650966937E+02  0.13390002318E+03  0.88618986114E+02 0.  0.
          5    1    3    3  502    0  0.36894737805E+02  0.26694674355E+02 -0.73490931851E+02  0.86557592278E+02  0.41800000000E+01 0.  1.
         -5    1    3    3    0  502 -0.57340000638E+02 -0.64645760367E+02 -0.15030282881E+03  0.17342249783E+03  0.41800000000E+01 0.  1.
        -11    1    4    4    0    0  0.27332051957E+02  0.12808608280E+02  0.85168956754E+01  0.31363019979E+02  0.00000000000E+00 0.  1.
         11    1    4    4    0    0 -0.68867891236E+01  0.25142477732E+02 -0.99167862612E+02  0.10253700320E+03  0.00000000000E+00 0. -1.
</event>
<event>
 8    1  0.8619230E-006  0.1148876E+03  0.7561462E-02  0.1251777E+00
         -2   -1    0    0    0  501 -0.00000000000E+00  0.00000000000E+00  0.27273165190E+02  0.27273165190E+02  0.00000000000E+00 0.  1.
          2   -1    0    0  501    0  0.00000000000E+00 -0.00000000000E+00 -0.63877802901E+03  0.63877802901E+03  0.00000000000E+00 0. -1.
         23    2    1    2    0    0 -0.28767371813E+02 -0.67392949331E+02 -0.30158938843E+03  0.33462331298E+03  0.12508889270E+03 0.  0.
         23    2    1    2    0    0  0.28767371813E+02  0.67392949331E+02 -0.30991547539E+03  0.33142788122E+03  0.91801237798E+02 0.  0.
          5    1    3    3  502    0 -0.50755877970E+02 -0.77913997343E+02 -0.29455240290E+03  0.30890992309E+03  0.41800000000E+01 0. -1.
         -5    1    3    3    0  502  0.21988506158E+02  0.10521048012E+02 -0.70369855293E+01  0.25713389890E+02  0.41800000000E+01 0. -1.
        -11    1    4    4    0    0  0.56558668052E+02  0.61498762984E+02 -0.26854110914E+03  0.28123888081E+03  0.00000000000E+00 0. -1.
         11    1    4    4    0    0 -0.27791296240E+02  0.58941863470E+01 -0.41374366248E+02  0.50189000407E+02  0.00000000000E+00 0.  1.
</event>
<event>
 8    1  0.8619230E-006  0.1454995E+03  0.7561462E-02  0.1206115E+00
         -3   -1    0    0    0  501 -0.00000000000E+00  0.00000000000E+00  0.26265053042E+03  0.26265053042E+03  0.00000000000E+00 0.  1.
          3   -1    0    0  501    0  0.00000000000E+00 -0.00000000000E+00 -0.10004517043E+03  0.10004517043E+03  0.00000000000E+00 0. -1.
         23    2    1    2    0    0  0.75483184543E+02  0.76879704713E+02  0.28558046854E+02  0.16754431061E+03  0.12508930343E+03 0.  0.
         23    2    1    2    0    0 -0.75483184543E+02 -0.76879704713E+02  0.13404731314E+03  0.19515139023E+03  0.92234390575E+02 0.  0.
          5    1    3    3  502    0  0.10941775381E+03  0.70581442395E+02  0.24246269693E+02  0.13251165554E+03  0.41800000000E+01 0. -1.
         -5    1    3    3    0  502 -0.33934569265E+02  0.62982623172E+01  0.43117771617E+01  0.35032655077E+02  0.41800000000E+01 0. -1.
        -11    1    4    4    0    0 -0.57655812400E+01  0.11812659595E+02 -0.67149286946E+01  0.14760458025E+02  0.00000000000E+00 0. -1.
         11    1    4    4    0    0 -0.69717603303E+02 -0.88692364308E+02  0.14076224183E+03  0.18039093221E+03  0.00000000000E+00 0.  1.
</event>
<event>
 8    1  0.8619230E-006  0.1099623E+03  0.7561462E-02  0.1260640E+00
         -1   -1    0    0    0  501 -0.00000000000E+00  0.00000000000E+00  0.43283110255E+03  0.43283110255E+03  0.00000000000E+00 0. -1.
          1   -1    0    0  501    0  0.00000000000E+00 -0.00000000000E+00 -0.29785618695E+02  0.29785618695E+02  0.00000000000E+00 0.  1.
         23    2    1    2    0    0  0.24471968097E+02  0.25682838682E+02  0.23103356459E+03  0.26510961833E+03  0.12509243118E+03 0.  0.
         23    2    1    2    0    0 -0.24471968097E+02 -0.25682838682E+02  0.17201191926E+03  0.19750710291E+03  0.90346388455E+02 0.  0.
          5    1    3    3  502    0  0.68755309512E+02  0.43106440321E+02  0.12921689008E+03  0.15264316187E+03  0.41800000000E+01 0.  1.
         -5    1    3    3    0  502 -0.44283341416E+02 -0.17423601638E+02  0.10181667451E+03  0.11246645646E+03  0.41800000000E+01 0.  1.
        -11    1    4    4    0    0  0.32035012760E+01 -0.52358628514E+02  0.13191274613E+03  0.14196006830E+03  0.00000000000E+00 0. -1.
         11    1    4    4    0    0 -0.27675469372E+02  0.26675789831E+02  0.40099173128E+02  0.55547034607E+02  0.00000000000E+00 0.  1.
</event>
<event>
 8    1  0.8619230E-006  0.7407815E+02  0.7561462E-02  0.1346750E+00
         -2   -1    0    0    0  501 -0.00000000000E+00  0.00000000000E+00  0.75652381796E+02  0.75652381796E+02  0.00000000000E+00 0.  1.
          2   -1    0    0  501    0  0.00000000000E+00 -0.00000000000E+00 -0.15636886786E+03  0.15636886786E+03  0.00000000000E+00 0. -1.
         23    2    1    2    0    0 -0.71196745579E+01 -0.24616122279E+01 -0.37897922419E+02  0.13092231426E+03  0.12509056938E+03 0.  0.
         23    2    1    2    0    0  0.71196745579E+01  0.24616122279E+01 -0.42818563643E+02  0.10109893539E+03  0.91273304116E+02 0.  0.
          5    1    3    3  502    0  0.44191047950E+02  0.19292682660E+02 -0.54239080524E+02  0.72693923950E+02  0.41800000000E+01 0. -1.
         -5    1    3    3    0  502 -0.51310722508E+02 -0.21754294888E+02  0.16341158105E+02  0.58228390314E+02  0.41800000000E+01 0. -1.
        -11    1    4    4    0    0  0.23134915638E+02 -0.82937653134E+01 -0.66300296236E+02  0.70708840647E+02  0.00000000000E+00 0. -1.
         11    1    4    4    0    0 -0.16015241080E+02  0.10755377541E+02  0.23481732594E+02  0.30390094743E+02  0.00000000000E+00 0.  1.
</event>
<event>
 8    1  0.8619230E-006  0.2381106E+03  0.7561462E-02  0.1121058E+00
         -2   -1    0    0    0  501 -0.00000000000E+00  0.00000000000E+00  0.12062984382E+03  0.12062984382E+03  0.00000000000E+00 0.  1.
          2   -1    0    0  501    0  0.00000000000E+00 -0.00000000000E+00 -0.63424955052E+03  0.63424955052E+03  0.00000000000E+00 0. -1.
         23    2    1    2    0    0  0.14008034427E+03  0.17164959758E+03 -0.96769581369E+02  0.27220716068E+03  0.12508516797E+03 0.  0.
         23    2    1    2    0    0 -0.14008034427E+03 -0.17164959758E+03 -0.41685012533E+03  0.48267223366E+03  0.10060999437E+03 0.  0.
          5    1    3    3  502    0  0.46941245639E+02  0.15176772092E+03 -0.55510991618E+02  0.16833260007E+03  0.41800000000E+01 0. -1.
         -5    1    3    3    0  502  0.93139098632E+02  0.19881876654E+02 -0.41258589751E+02  0.10387456061E+03  0.41800000000E+01 0. -1.
        -11    1    4    4    0    0 -0.97730194146E+02 -0.10951795030E+03 -0.35885033509E+03  0.38770985966E+03  0.00000000000E+00 0. -1.
         11    1    4    4    0    0 -0.42350150124E+02 -0.62131647275E+02 -0.57999790242E+02  0.94962374006E+02  0.00000000000E+00 0.  1.
</event>
<event>
 8    1  0.8619230E-006  0.1985538E+03  0.7561462E-02  0.1150965E+00
         -2   -1    0    0    0  501 -0.00000000000E+00  0.00000000000E+00  0.88029402683E+02  0.88029402683E+02  0.00000000000E+00 0.  1.
          2   -1    0    0  501    0  0.00000000000E+00 -0.00000000000E+00 -0.53863932860E+03  0.53863932860E+03  0.00000000000E+00 0. -1.
         23    2    1    2    0    0 -0.12913318022E+03  0.10535096946E+03 -0.10792435302E+03  0.23466725196E+03  0.12508736215E+03 0.  0.
         23    2    1    2    0    0  0.12913318022E+03 -0.10535096946E+03 -0.34268557290E+03  0.39200147932E+03  0.91964954848E+02 0.  0.
          5    1    3    3  502    0 -0.72486648048E+02  0.12795657460E+03 -0.79878366716E+02  0.16740736244E+03  0.41800000000E+01 0.  1.
         -5    1    3    3    0  502 -0.56646532168E+02 -0.22605605148E+02 -0.28045986301E+02  0.67259889521E+02  0.41800000000E+01 0.  1.
        -11    1    4    4    0    0 -0.14408880527E+01 -0.44970847285E+02 -0.62105047530E+02  0.76690874246E+02  0.00000000000E+00 0.  1.
         11    1    4    4    0    0  0.13057406827E+03 -0.60380122170E+02 -0.28058052537E+03  0.31531060508E+03  0.00000000000E+00 0. -1.
</event>
<event>
 8    1  0.8619230E-006  0.7220902E+02  0.7561462E-02  0.1352738E+00
         -1   -1    0    0    0  501 -0.00000000000E+00  0.00000000000E+00  0.20510824885E+03  0.20510824885E+03  0.00000000000E+00 0.  1.
          1   -1    0    0  501    0  0.00000000000E+00 -0.00000000000E+00 -0.15512740421E+03  0.15512740421E+03  0.00000000000E+00 0. -1.
         23    2    1    2    0    0 -0.17346953354E+02 -0.15754551015E+02  0.16902486179E+03  0.20777301361E+03  0.11853733004E+03 0.  0.
         23    2    1    2    0    0  0.17346953354E+02  0.15754551015E+02 -0.11904401715E+03  0.15246263944E+03  0.92326896078E+02 0.  0.
          5    1    3    3  502    0  0.19619244406E+02  0.21231693962E+02 -0.16128414993E+01  0.29253602124E+02  0.41800000000E+01 0. -1.
         -5    1    3    3    0  502 -0.36966197760E+02 -0.36986244976E+02  0.17063770329E+03  0.17851941149E+03  0.41800000000E+01 0.  1.
        -11    1    4    4    0    0  0.21378680441E+02  0.36128977798E+02 -0.12416610456E+03  0.13107086837E+03  0.00000000000E+00 0. -1.
         11    1    4    4    0    0 -0.40317270863E+01 -0.20374426784E+02  0.51220874147E+01  0.21391771071E+02  0.00000000000E+00 0.  1.
</event>
<event>
 8    1  0.8619230E-006  0.1349229E+03  0.7561462E-02  0.1220329E+00
          2   -1    0    0  501    0  0.00000000000E+00  0.00000000000E+00  0.66634385396E+03  0.66634385396E+03  0.00000000000E+00 0. -1.
         -2   -1    0    0    0  501 -0.00000000000E+00 -0.00000000000E+00 -0.32314593767E+02  0.32314593767E+02  0.00000000000E+00 0.  1.
         23    2    1    2    0    0  0.97574331945E+02  0.12044052782E+02  0.32805504992E+03  0.36460063157E+03  0.12509074827E+03 0.  0.
         23    2    1    2    0    0 -0.97574331945E+02 -0.12044052782E+02  0.30597421027E+03  0.33405781615E+03  0.91151509697E+02 0.  0.
          5    1    3    3  502    0 -0.11235001159E+02  0.24536496176E+02  0.17049362631E+03  0.17266677129E+03  0.41800000000E+01 0.  1.
         -5    1    3    3    0  502  0.10880933310E+03 -0.12492443395E+02  0.15756142361E+03  0.19193386028E+03  0.41800000000E+01 0.  1.
        -11    1    4    4    0    0  0.41948110168E+01 -0.29397802687E+02  0.87910902703E+02  0.92790915808E+02  0.00000000000E+00 0. -1.
         11    1    4    4    0    0 -0.10176914296E+03  0.17353749906E+02  0.21806330757E+03  0.24126690035E+03  0.00000000000E+00 0.  1.
</event>
<event>
 8    1  0.8619230E-006  0.7520890E+02  0.7561462E-02  0.1343225E+00
          2   -1    0    0  501    0  0.00000000000E+00  0.00000000000E+00  0.12629227428E+03  0.12629227428E+03  0.00000000000E+00 0. -1.
         -2   -1    0    0    0  501 -0.00000000000E+00 -0.00000000000E+00 -0.10439467475E+03  0.10439467475E+03  0.00000000000E+00 0.  1.
         23    2    1    2    0    0 -0.31907717904E+02 -0.15764725512E+02 -0.88248889051E+00  0.13005889027E+03  0.12509159492E+03 0.  0.
         23    2    1    2    0    0  0.31907717904E+02  0.15764725512E+02  0.22780088415E+02  0.10062805876E+03  0.91326035441E+02 0.  0.
          5    1    3    3  502    0 -0.16474079695E+01  0.29033526542E+02  0.48509890137E+02  0.56712798006E+02  0.41800000000E+01 0.  1.
         -5    1    3    3    0  502 -0.30260309935E+02 -0.44798252054E+02 -0.49392379028E+02  0.73346092265E+02  0.41800000000E+01 0.  1.
        -11    1    4    4    0    0  0.20148762830E+00 -0.19438662274E+02 -0.26107788095E+02  0.32550250191E+02  0.00000000000E+00 0.  1.
         11    1    4    4    0    0  0.31706230276E+02  0.35203387787E+02  0.48887876510E+02  0.68077808569E+02  0.00000000000E+00 0. -1.
</event>
<event>
 8    1  0.8619230E-006  0.1456281E+03  0.7561462E-02  0.1205950E+00
         -1   -1    0    0    0  501 -0.00000000000E+00  0.00000000000E+00  0.99234762979E+02  0.99234762979E+02  0.00000000000E+00 0.  1.
          1   -1    0    0  501    0  0.00000000000E+00 -0.00000000000E+00 -0.31118308505E+03  0.31118308505E+03  0.00000000000E+00 0. -1.
         23    2    1    2    0    0 -0.58157748227E+02 -0.10030527027E+03 -0.24646764238E+02  0.17233248059E+03  0.12509016731E+03 0.  0.
         23    2    1    2    0    0  0.58157748227E+02  0.10030527027E+03 -0.18730155783E+03  0.23808536744E+03  0.90328830939E+02 0.  0.
          5    1    3    3  502    0 -0.26572193941E+02 -0.11104617337E+03  0.20458103037E+02  0.11607471943E+03  0.41800000000E+01 0.  1.
         -5    1    3    3    0  502 -0.31585554287E+02  0.10740903101E+02 -0.45104867275E+02  0.56257761162E+02  0.41800000000E+01 0.  1.
        -11    1    4    4    0    0  0.44915858190E+02  0.28296150637E+01 -0.36072417055E+02  0.57677207895E+02  0.00000000000E+00 0. -1.
         11    1    4    4    0    0  0.13241890037E+02  0.97475655204E+02 -0.15122914078E+03  0.18040815954E+03  0.00000000000E+00 0.  1.
</event>
<event>
 8    1  0.8619230E-006  0.1259819E+03  0.7561462E-02  0.1233543E+00
         -1   -1    0    0    0  501 -0.00000000000E+00  0.00000000000E+00  0.22485891426E+03  0.22485891426E+03  0.00000000000E+00 0.  1.
          1   -1    0    0  501    0  0.00000000000E+00 -0.00000000000E+00 -0.12943689752E+03  0.12943689752E+03  0.00000000000E+00 0. -1.
         23    2    1    2    0    0 -0.81023915314E+02 -0.77467459848E+02  0.11892005331E+03  0.20580502725E+03  0.12509055910E+03 0.  0.
         23    2    1    2    0    0  0.81023915314E+02  0.77467459848E+02 -0.23498036571E+02  0.14849078453E+03  0.94505413486E+02 0.  0.
          5    1    3    3  502    0 -0.57810594837E+02 -0.59887734687E+02  0.14450610969E+03  0.16681754637E+03  0.41800000000E+01 0.  1.
         -5    1    3    3    0  502 -0.23213320477E+02 -0.17579725161E+02 -0.25586056380E+02  0.38987480880E+02  0.41800000000E+01 0.  1.
        -11    1    4    4    0    0  0.50694492059E+02  0.92403117155E+02 -0.37541882546E+02  0.11188235129E+03  0.00000000000E+00 0.  1.
         11    1    4    4    0    0  0.30329423255E+02 -0.14935657308E+02  0.14043845975E+02  0.36608433235E+02  0.00000000000E+00 0. -1.
</event>
<event>
 8    1  0.8619230E-006  0.5148453E+02  0.7561462E-02  0.1437495E+00
          3   -1    0    0  501    0  0.00000000000E+00  0.00000000000E+00  0.44156592725E+02  0.44156592725E+02  0.00000000000E+00 0. -1.
         -3   -1    0    0    0  501 -0.00000000000E+00 -0.00000000000E+00 -0.29713948406E+03  0.29713948406E+03  0.00000000000E+00 0.  1.
         23    2    1    2    0    0  0.42808397979E+02 -0.15084610806E+02 -0.13294783974E+03  0.18810333008E+03  0.12509048835E+03 0.  0.
         23    2    1    2    0    0 -0.42808397979E+02  0.15084610806E+02 -0.12003505159E+03  0.15319274670E+03  0.83663012199E+02 0.  0.
          5    1    3    3  502    0  0.11907287322E+02 -0.21658382494E+02  0.19877003178E+02  0.31991196898E+02  0.41800000000E+01 0.  1.
         -5    1    3    3    0  502  0.30901110657E+02  0.65737716877E+01 -0.15282484292E+03  0.15611213319E+03  0.41800000000E+01 0.  1.
        -11    1    4    4    0    0 -0.24524028233E+02  0.45823467170E+01 -0.12818226912E+03  0.13058759504E+03  0.00000000000E+00 0.  1.
         11    1    4    4    0    0 -0.18284369746E+02  0.10502264089E+02  0.81472175291E+01  0.22605151658E+02  0.00000000000E+00 0. -1.
</event>
<event>
 8    1  0.8619230E-006  0.1378768E+03  0.7561462E-02  0.1216215E+00
         -1   -1    0    0    0  501 -0.00000000000E+00  0.00000000000E+00  0.10423579938E+03  0.10423579938E+03  0.00000000000E+00 0.  1.
          1   -1    0    0  501    0  0.00000000000E+00 -0.00000000000E+00 -0.26060492484E+03  0.26060492484E+03  0.00000000000E+00 0. -1.
         23    2    1    2    0    0  0.30249475930E+02 -0.10250313884E+03 -0.14526560516E+02  0.16516569721E+03  0.12508701895E+03 0.  0.
         23    2    1    2    0    0 -0.30249475930E+02  0.10250313884E+03 -0.14184256495E+03  0.19967502701E+03  0.91262691804E+02 0.  0.
          5    1    3    3  502    0  0.74095061274E+02 -0.30987281712E+02 -0.10160147840E+02  0.81061647758E+02  0.41800000000E+01 0. -1.
         -5    1    3    3    0  502 -0.43845585344E+02 -0.71515857126E+02 -0.43664126759E+01  0.84104049453E+02  0.41800000000E+01 0. -1.
        -11    1    4    4    0    0 -0.30138839254E+02  0.46973679888E+02 -0.13195443402E+03  0.14327194035E+03  0.00000000000E+00 0. -1.
         11    1    4    4    0    0 -0.11063667588E+00  0.55529458951E+02 -0.98881309271E+01  0.56403086662E+02  0.00000000000E+00 0.  1.
</event>
<event>
 8    1  0.8619230E-006  0.1484610E+03  0.7561462E-02  0.1202377E+00
         -1   -1    0    0    0  501 -0.00000000000E+00  0.00000000000E+00  0.29324641386E+02  0.29324641386E+02  0.00000000000E+00 0.  1.
          1   -1    0    0  501    0  0.00000000000E+00 -0.00000000000E+00 -0.93987758053E+03  0.93987758053E+03  0.00000000000E+00 0. -1.
         23    2    1    2    0    0 -0.23037241642E+02  0.12276186989E+03 -0.48378230563E+03  0.51506972319E+03  0.12510119628E+03 0.  0.
         23    2    1    2    0    0  0.23037241642E+02 -0.12276186989E+03 -0.42677063351E+03  0.45413249872E+03  0.92206082031E+02 0.  0.
          5    1    3    3  502    0 -0.27997931487E+02  0.93671610737E+01 -0.28155393489E+03  0.28312844881E+03  0.41800000000E+01 0.  1.
         -5    1    3    3    0  502  0.49606898457E+01  0.11339470881E+03 -0.20222837074E+03  0.23194127438E+03  0.41800000000E+01 0.  1.
        -11    1    4    4    0    0 -0.34556851896E+02 -0.48239593322E+02 -0.13310695798E+03  0.14573502200E+03  0.00000000000E+00 0. -1.
         11    1    4    4    0    0  0.57594093537E+02 -0.74522276564E+02 -0.29366367553E+03  0.30839747671E+03  0.00000000000E+00 0.  1.
</event>
<event>
 8    1  0.8619230E-006  0.1753870E+03  0.7561462E-02  0.1172344E+00
         -1   -1    0    0    0  501 -0.00000000000E+00  0.00000000000E+00  0.65959229999E+03  0.65959229999E+03  0.00000000000E+00 0.  1.
          1   -1    0    0  501    0  0.00000000000E+00 -0.00000000000E+00 -0.60065209305E+02  0.60065209305E+02  0.00000000000E+00 0. -1.
         23    2    1    2    0    0  0.14739502986E+03 -0.67142733898E+02  0.37902889654E+03  0.43074520904E+03  0.12508033081E+03 0.  0.
         23    2    1    2    0    0 -0.14739502986E+03  0.67142733898E+02  0.22049819414E+03  0.28891230026E+03  0.92830070973E+02 0.  0.
          5    1    3    3  502    0  0.39376395382E+02 -0.30816756871E+02  0.19957548831E+02  0.53999529375E+02  0.41800000000E+01 0.  1.
         -5    1    3    3    0  502  0.10801863447E+03 -0.36325977026E+02  0.35907134771E+03  0.37674567966E+03  0.41800000000E+01 0.  1.
        -11    1    4    4    0    0 -0.16747647680E+02  0.52483588477E+02  0.70010805285E+02  0.89087168655E+02  0.00000000000E+00 0.  1.
         11    1    4    4    0    0 -0.13064738217E+03  0.14659145421E+02  0.15048738886E+03  0.19982513160E+03  0.00000000000E+00 0. -1.
</event>
<event>
 8    1  0.8619230E-006  0.1024288E+03  0.7561462E-02  0.1275270E+00
         -1   -1    0    0    0  501 -0.00000000000E+00  0.00000000000E+00  0.65967785864E+02  0.65967785864E+02  0.00000000000E+00 0.  1.
          1   -1    0    0  501    0  0.00000000000E+00 -0.00000000000E+00 -0.23283868115E+03  0.23283868115E+03  0.00000000000E+00 0. -1.
         23    2    1    2    0    0  0.49133418470E+02 -0.81767830689E+01 -0.65381652837E+02  0.14968044406E+03  0.12509405347E+03 0.  0.
         23    2    1    2    0    0 -0.49133418470E+02  0.81767830689E+01 -0.10148924245E+03  0.14912602295E+03  0.97249944973E+02 0.  0.
          5    1    3    3  502    0 -0.15074607955E+02  0.47170203028E+02 -0.26584894088E+02  0.56360454685E+02  0.41800000000E+01 0.  1.
         -5    1    3    3    0  502  0.64208026425E+02 -0.55346986097E+02 -0.38796758749E+02  0.93319989374E+02  0.41800000000E+01 0.  1.
        -11    1    4    4    0    0 -0.24758819950E+02 -0.20861397252E+02 -0.10610437522E+03  0.11093392403E+03  0.00000000000E+00 0. -1.
         11    1    4    4    0    0 -0.24374598521E+02  0.29038180321E+02  0.46151327718E+01  0.38192098920E+02  0.00000000000E+00 0.  1.
</event>
<event>
 8    1  0.8619230E-006  0.8709555E+02  0.7561462E-02  0.1310042E+00
         -1   -1    0    0    0  501 -0.00000000000E+00  0.00000000000E+00  0.29102341438E+03  0.29102341438E+03  0.00000000000E+00 0.  1.
          1   -1    0    0  501    0  0.00000000000E+00 -0.00000000000E+00 -0.61111832478E+02  0.61111832478E+02  0.00000000000E+00 0. -1.
         23    2    1    2    0    0 -0.48644341390E+02  0.26386727870E+02  0.19949378024E+03  0.24188420491E+03  0.12509064264E+03 0.  0.
         23    2    1    2    0    0  0.48644341390E+02 -0.26386727870E+02  0.30417801670E+02  0.11025104195E+03  0.90374322878E+02 0.  0.
          5    1    3    3  502    0 -0.56489439108E+02 -0.24338585292E+02  0.38101859508E+02  0.72475151347E+02  0.41800000000E+01 0.  1.
         -5    1    3    3    0  502  0.78450977187E+01  0.50725313162E+02  0.16139192073E+03  0.16940905357E+03  0.41800000000E+01 0.  1.
        -11    1    4    4    0    0  0.23848210143E+02  0.12881652061E+01  0.58818223562E+02  0.63482122834E+02  0.00000000000E+00 0.  1.
         11    1    4    4    0    0  0.24796131247E+02 -0.27674893076E+02 -0.28400421892E+02  0.46768919115E+02  0.00000000000E+00 0. -1.
</event>
<event>
 8    1  0.8619230E-006  0.8028240E+02  0.7561462E-02  0.1328252E+00
         -2   -1    0    0    0  501 -0.00000000000E+00  0.00000000000E+00  0.43702643899E+02  0.43702643899E+02  0.00000000000E+00 0.  1.
          2   -1    0    0  501    0  0.00000000000E+00 -0.00000000000E+00 -0.37098434241E+03  0.37098434241E+03  0.00000000000E+00 0. -1.
         23    2    1    2    0    0  0.21891100579E+02  0.18866611292E+02 -0.11918843490E+03  0.17518179169E+03  0.12509039859E+03 0.  0.
         23    2    1    2    0    0 -0.21891100579E+02 -0.18866611292E+02 -0.20809326360E+03  0.23950519461E+03  0.11499896775E+03 0.  0.
          5    1    3    3  502    0 -0.29259400050E+02  0.16800558056E+02  0.10590125942E+02  0.35608909135E+02  0.41800000000E+01 0.  1.
         -5    1    3    3    0  502  0.51150500629E+02  0.20660532358E+01 -0.12977856084E+03  0.13957288256E+03  0.41800000000E+01 0.  1.
        -11    1    4    4    0    0 -0.37774680571E+02 -0.35760222444E+02 -0.20989781225E+03  0.21624710770E+03  0.00000000000E+00 0. -1.
         11    1    4    4    0    0  0.15883579992E+02  0.16893611152E+02  0.18045486422E+01  0.23258086915E+02  0.00000000000E+00 0.  1.
</event>
<event>
 8    1  0.8619230E-006  0.1192649E+03  0.7561462E-02  0.1244315E+00
          2   -1    0    0  501    0  0.00000000000E+00  0.00000000000E+00  0.68451231143E+03  0.68451231143E+03  0.00000000000E+00 0. -1.
         -2   -1    0    0    0  501 -0.00000000000E+00 -0.00000000000E+00 -0.29192529554E+02  0.29192529554E+02  0.00000000000E+00 0.  1.
         23    2    1    2    0    0 -0.82367292020E+02 -0.28300507792E+02  0.30355000604E+03  0.33966717192E+03  0.12508353999E+03 0.  0.
         23    2    1    2    0    0  0.82367292020E+02  0.28300507792E+02  0.35176977583E+03  0.37403766906E+03  0.92611625363E+02 0.  0.
          5    1    3    3  502    0 -0.41831176322E+01 -0.32711092523E+02  0.22922047632E+03  0.23161824888E+03  0.41800000000E+01 0. -1.
         -5    1    3    3    0  502 -0.78184174387E+02  0.44105847318E+01  0.74329529716E+02  0.10804892304E+03  0.41800000000E+01 0. -1.
        -11    1    4    4    0    0  0.55624670335E+02  0.62360733884E+02  0.22008284615E+03  0.23541330517E+03  0.00000000000E+00 0.  1.
         11    1    4    4    0    0  0.26742621684E+02 -0.34060226092E+02  0.13168692968E+03  0.13862436390E+03  0.00000000000E+00 0. -1.
</event>
<event>
 8    1  0.8619230E-006  0.1559331E+03  0.7561462E-02  0.1193366E+00
         -1   -1    0    0    0  501 -0.00000000000E+00  0.00000000000E+00  0.19994486684E+03  0.19994486684E+03  0.00000000000E+00 0.  1.
          1   -1    0    0  501    0  0.00000000000E+00 -0.00000000000E+00 -0.16880749205E+03  0.16880749205E+03  0.00000000000E+00 0. -1.
         23    2    1    2    0    0  0.14124150094E+03 -0.51052583881E+01  0.59934950787E+02  0.19802915321E+03  0.12509245360E+03 0.  0.
         23    2    1    2    0    0 -0.14124150094E+03  0.51052583881E+01 -0.28797576002E+02  0.17072320568E+03  0.91333933035E+02 0.  0.
          5    1    3    3  502    0  0.99029186719E+02 -0.44593268853E+02  0.81860915454E+02  0.13606623875E+03  0.41800000000E+01 0.  1.
         -5    1    3    3    0  502  0.42212314217E+02  0.39488010465E+02 -0.21925964667E+02  0.61962914462E+02  0.41800000000E+01 0.  1.
        -11    1    4    4    0    0 -0.10350519157E+03 -0.11215752446E+02  0.20936179063E+02  0.10619529829E+03  0.00000000000E+00 0.  1.
         11    1    4    4    0    0 -0.37736309366E+02  0.16321010834E+02 -0.49733755065E+02  0.64527907389E+02  0.00000000000E+00 0. -1.
</event>
<event>
 8    1  0.8619230E-006  0.1023104E+03  0.7561462E-02  0.1275511E+00
          1   -1    0    0  501    0  0.00000000000E+00  0.00000000000E+00  0.17632956259E+03  0.17632956259E+03  0.00000000000E+00 0. -1.
         -1   -1    0    0    0  501 -0.00000000000E+00 -0.00000000000E+00 -0.75766134877E+02  0.75766134877E+02  0.00000000000E+00 0.  1.
         23    2    1    2    0    0  0.30627563491E+02 -0.35679128579E+02  0.54866663653E+02  0.14446043472E+03  0.12508964209E+03 0.  0.
         23    2    1    2    0    0 -0.30627563491E+02  0.35679128579E+02  0.45696764055E+02  0.10763526274E+03  0.85358700079E+02 0.  0.
          5    1    3    3  502    0  0.26385623988E+01 -0.65731234795E+02  0.73881037924E+02  0.99012309355E+02  0.41800000000E+01 0.  1.
         -5    1    3    3    0  502  0.27989001093E+02  0.30052106216E+02 -0.19014374271E+02  0.45448125364E+02  0.41800000000E+01 0.  1.
        -11    1    4    4    0    0 -0.42392160119E+02 -0.15328114951E+02  0.19841651015E+02  0.49251776237E+02  0.00000000000E+00 0.  1.
         11    1    4    4    0    0  0.11764596627E+02  0.51007243530E+02  0.25855113040E+02  0.58383486507E+02  0.00000000000E+00 0. -1.
</event>
<event>
 8    1  0.8619230E-006  0.1419598E+03  0.7561462E-02  0.1210716E+00
         -3   -1    0    0    0  501 -0.00000000000E+00  0.00000000000E+00  0.22051538917E+04  0.22051538917E+04  0.00000000000E+00 0.  1.
          3   -1    0    0  501    0  0.00000000000E+00 -0.00000000000E+00 -0.11541747539E+02  0.11541747539E+02  0.00000000000E+00 0. -1.
         23    2    1    2    0    0 -0.71838729501E+02  0.69655924680E+02  0.15975994152E+04  0.16056099986E+04  0.12508727101E+03 0.  0.
         23    2    1    2    0    0  0.71838729501E+02 -0.69655924680E+02  0.59601272904E+03  0.61108564069E+03  0.90452950048E+02 0.  0.
          5    1    3    3  502    0  0.15179400007E+02  0.59245497571E+02  0.38594995020E+03  0.39078802391E+03  0.41800000000E+01 0.  1.
         -5    1    3    3    0  502 -0.87018129508E+02  0.10410427109E+02  0.12116494650E+04  0.12148219747E+04  0.41800000000E+01 0.  1.
        -11    1    4    4    0    0  0.60236621029E+02 -0.91847468339E+02  0.48782783546E+03  0.50004040337E+03  0.00000000000E+00 0.  1.
         11    1    4    4    0    0  0.11602108473E+02  0.22191543659E+02  0.10818489358E+03  0.11104523732E+03  0.00000000000E+00 0. -1.
</event>
<event>
 7    1  0.8619230E-006  0.9082006E+02  0.7561462E-02  0.1300878E+00
         -1   -1    0    0    0  501 -0.00000000000E+00  0.00000000000E+00  0.29424373548E+03  0.29424373548E+03  0.00000000000E+00 0.  1.
          1   -1    0    0  501    0  0.00000000000E+00 -0.00000000000E+00 -0.31756156741E+02  0.31756156741E+02  0.00000000000E+00 0. -1.
         23    2    1    2    0    0 -0.34165013711E+02  0.44368651675E+02  0.18407700607E+03  0.22481302431E+03  0.11627865807E+03 0.  0.
          5    1    3    3  502    0 -0.59814423761E+02 -0.69422134021E+01  0.48133677923E+02  0.77202868905E+02  0.41800000000E+01 0. -1.
         -5    1    3    3    0  502  0.25649410050E+02  0.51310865077E+02  0.13594332815E+03  0.14761015541E+03  0.41800000000E+01 0.  1.
        -11    1    1    2    0    0  0.13598626778E+02  0.13158871192E+01  0.20180992888E+02  0.24370611053E+02  0.00000000000E+00 0. -1.
         11    1    1    2    0    0  0.20566386933E+02 -0.45684538794E+02  0.58229579778E+02  0.76816256856E+02  0.00000000000E+00 0.  1.
</event>
<event>
 8    1  0.8619230E-006  0.1360146E+03  0.7561462E-02  0.1218795E+00
          3   -1    0    0  501    0  0.00000000000E+00  0.00000000000E+00  0.12134633904E+03  0.12134633904E+03  0.00000000000E+00 0. -1.
         -3   -1    0    0    0  501 -0.00000000000E+00 -0.00000000000E+00 -0.19046355776E+03  0.19046355776E+03  0.00000000000E+00 0.  1.
         23    2    1    2    0    0  0.76030480472E+02 -0.72884292887E+02 -0.68176942240E+02  0.17716702809E+03  0.12508919329E+03 0.  0.
         23    2    1    2    0    0 -0.76030480472E+02  0.72884292887E+02 -0.94027647199E+00  0.13464286871E+03  0.83875287564E+02 0.  0.
          5    1    3    3  502    0  0.34647230932E+02 -0.94769235691E+02 -0.79843876667E+02  0.12874065281E+03  0.41800000000E+01 0.  1.
         -5    1    3    3    0  502  0.41383249540E+02  0.21884942803E+02  0.11666934427E+02  0.48426375282E+02  0.41800000000E+01 0.  1.
        -11    1    4    4    0    0  0.11697996913E+02  0.35666565725E+01  0.17473283039E+02  0.21327911080E+02  0.00000000000E+00 0. -1.
         11    1    4    4    0    0 -0.87728477385E+02  0.69317636315E+02 -0.18413559511E+02  0.11331495763E+03  0.00000000000E+00 0.  1.
</event>
<event>
 8    1  0.8619230E-006  0.2616500E+03  0.7561462E-02  0.1106156E+00
         -2   -1    0    0    0  501 -0.00000000000E+00  0.00000000000E+00  0.99970258432E+02  0.99970258432E+02  0.00000000000E+00 0.  1.
          2   -1    0    0  501    0  0.00000000000E+00 -0.00000000000E+00 -0.83900160866E+03  0.83900160866E+03  0.00000000000E+00 0. -1.
         23    2    1    2    0    0 -0.75435671235E+02  0.22900814434E+03 -0.18487489471E+03  0.32855965649E+03  0.12504979212E+03 0.  0.
         23    2    1    2    0    0  0.75435671235E+02 -0.22900814434E+03 -0.55415645552E+03  0.61041221060E+03  0.85897724008E+02 0.  0.
          5    1    3    3  502    0  0.10418591330E+02  0.15809016290E+03 -0.90341344489E+02  0.18242828063E+03  0.41800000000E+01 0. -1.
         -5    1    3    3    0  502 -0.85854262565E+02  0.70917981444E+02 -0.94533550225E+02  0.14613137586E+03  0.41800000000E+01 0. -1.
        -11    1    4    4    0    0  0.68094691045E+01 -0.14383719765E+03 -0.35700262473E+03  0.38494984396E+03  0.00000000000E+00 0.  1.
         11    1    4    4    0    0  0.68626202131E+02 -0.85170946689E+02 -0.19715383079E+03  0.22546236664E+03  0.00000000000E+00 0. -1.
</event>
<event>
 8    1  0.8619230E-006  0.2343781E+03  0.7561462E-02  0.1123596E+00
          1   -1    0    0  501    0  0.00000000000E+00  0.00000000000E+00  0.11662352594E+04  0.11662352594E+04  0.00000000000E+00 0. -1.
         -1   -1    0    0    0  501 -0.00000000000E+00 -0.00000000000E+00 -0.64539724111E+02  0.64539724111E+02  0.00000000000E+00 0.  1.
         23    2    1    2    0    0  0.19228388089E+03 -0.12345430003E+03  0.32572752148E+03  0.41708370684E+03  0.12508535171E+03 0.  0.
         23    2    1    2    0    0 -0.19228388089E+03  0.12345430003E+03  0.77596801381E+03  0.81369127667E+03  0.88051577125E+02 0.  0.
          5    1    3    3  502    0  0.39173322604E+02 -0.52569402722E+02  0.21402762909E+02  0.69091547721E+02  0.41800000000E+01 0. -1.
         -5    1    3    3    0  502  0.15311055829E+03 -0.70884897305E+02  0.30432475857E+03  0.34799215912E+03  0.41800000000E+01 0. -1.
        -11    1    4    4    0    0 -0.45862878238E+02  0.57897060319E+02  0.14603780270E+03  0.16365363733E+03  0.00000000000E+00 0.  1.
         11    1    4    4    0    0 -0.14642100266E+03  0.65557239708E+02  0.62993021110E+03  0.65003763934E+03  0.00000000000E+00 0. -1.
</event>
<event>
 8    1  0.8619230E-006  0.1056159E+03  0.7561462E-02  0.1268911E+00
          2   -1    0    0  501    0  0.00000000000E+00  0.00000000000E+00  0.54502081142E+03  0.54502081142E+03  0.00000000000E+00 0. -1.
         -2   -1    0    0    0  501 -0.00000000000E+00 -0.00000000000E+00 -0.29959705868E+02  0.29959705868E+02  0.00000000000E+00 0.  1.
         23    2    1    2    0    0  0.48700284840E+02  0.28127365195E+02  0.19573460348E+03  0.23900379672E+03  0.12509162015E+03 0.  0.
         23    2    1    2    0    0 -0.48700284840E+02 -0.28127365195E+02  0.31932650208E+03  0.33597672057E+03  0.88023152759E+02 0.  0.
          5    1    3    3  502    0  0.16591715469E+02  0.62970809971E+02  0.40863680455E+02  0.76992991311E+02  0.41800000000E+01 0.  1.
         -5    1    3    3    0  502  0.32108569371E+02 -0.34843444776E+02  0.15487092302E+03  0.16201080541E+03  0.41800000000E+01 0.  1.
        -11    1    4    4    0    0 -0.41802436499E+02 -0.55896675969E+02  0.27072373030E+03  0.27957685925E+03  0.00000000000E+00 0. -1.
         11    1    4    4    0    0 -0.68978483406E+01  0.27769310774E+02  0.48602771778E+02  0.56399861322E+02  0.00000000000E+00 0.  1.
</event>
<event>
 8    1  0.8619230E-006  0.1054911E+03  0.7561462E-02  0.1269155E+00
         -2   -1    0    0    0  501 -0.00000000000E+00  0.00000000000E+00  0.36268195179E+02  0.36268195179E+02  0.00000000000E+00 0.  1.
          2   -1    0    0  501    0  0.00000000000E+00 -0.00000000000E+00 -0.32871371190E+03  0.32871371190E+03  0.00000000000E+00 0. -1.
         23    2    1    2    0    0 -0.17254308729E+02 -0.16545317465E+00 -0.17291469149E+03  0.21411364078E+03  0.12508965620E+03 0.  0.
         23    2    1    2    0    0  0.17254308729E+02  0.16545317465E+00 -0.11953082523E+03  0.15086826630E+03  0.90420556581E+02 0.  0.
          5    1    3    3  502    0  0.20266188483E+01 -0.61549646655E+02 -0.80941755701E+02  0.10179148493E+03  0.41800000000E+01 0. -1.
         -5    1    3    3    0  502 -0.19280927577E+02  0.61384193481E+02 -0.91972935793E+02  0.11232215586E+03  0.41800000000E+01 0. -1.
        -11    1    4    4    0    0  0.48157461713E+02  0.15084755360E+02 -0.40492529732E+02  0.64701900490E+02  0.00000000000E+00 0.  1.
         11    1    4    4    0    0 -0.30903152984E+02 -0.14919302185E+02 -0.79038295499E+02  0.86166365813E+02  0.00000000000E+00 0. -1.
</event>
<event>
 8    1  0.8619230E-006  0.8935371E+02  0.7561462E-02  0.1304424E+00
          1   -1    0    0  501    0  0.00000000000E+00  0.00000000000E+00  0.39140144667E+03  0.39140144667E+03  0.00000000000E+00 0. -1.
         -1   -1    0    0    0  501 -0.00000000000E+00 -0.00000000000E+00 -0.34996540322E+02  0.34996540322E+02  0.00000000000E+00 0.  1.
         23    2    1    2    0    0  0.22341302538E+02 -0.40757525157E+02  0.12041245853E+03  0.17023186391E+03  0.11099287214E+03 0.  0.
         23    2    1    2    0    0 -0.22341302538E+02  0.40757525157E+02  0.23599244782E+03  0.25616612308E+03  0.88138172946E+02 0.  0.
          5    1    3    3  502    0  0.45067588803E+01  0.27634490330E+02  0.87852831125E+02  0.92301507399E+02  0.41800000000E+01 0. -1.
         -5    1    3    3    0  502  0.17834543658E+02 -0.68392015487E+02  0.32559627405E+02  0.77930356515E+02  0.41800000000E+01 0.  1.
        -11    1    4    4    0    0  0.22130213488E+02  0.22385617266E+02  0.17822844346E+03  0.18098685109E+03  0.00000000000E+00 0. -1.
         11    1    4    4    0    0 -0.44471516027E+02  0.18371907891E+02  0.57764004356E+02  0.75179271987E+02  0.00000000000E+00 0.  1.
</event>
<event>
 8    1  0.8619230E-006  0.1076508E+03  0.7561462E-02  0.1264983E+00
          2   -1    0    0  501    0  0.00000000000E+00  0.00000000000E+00  0.55310150220E+03  0.55310150220E+03  0.00000000000E+00 0. -1.
         -2   -1    0    0    0  501 -0.00000000000E+00 -0.00000000000E+00 -0.32339927123E+02  0.32339927123E+02  0.00000000000E+00 0.  1.
         23    2    1    2    0    0  0.27530386012E+02  0.57201242592E+02  0.20131668617E+03  0.24536706124E+03  0.12508669913E+03 0.  0.
         23    2    1    2    0    0 -0.27530386012E+02 -0.57201242592E+02  0.31944488890E+03  0.34007436809E+03  0.97855170914E+02 0.  0.
          5    1    3    3  502    0  0.70426499255E+02  0.94592511521E+01  0.13710942740E+03  0.15448571685E+03  0.41800000000E+01 0.  1.
         -5    1    3    3    0  502 -0.42896113242E+02  0.47741991440E+02  0.64207258776E+02  0.90881344386E+02  0.41800000000E+01 0.  1.
        -11    1    4    4    0    0 -0.35936949362E+01 -0.55702237482E+02  0.30885242153E+03  0.31385581433E+03  0.00000000000E+00 0. -1.
         11    1    4    4    0    0 -0.23936691076E+02 -0.14990051097E+01  0.10592467373E+02  0.26218553755E+02  0.00000000000E+00 0.  1.
</event>
<event>
 8    1  0.8619230E-006  0.9977597E+02  0.7561462E-02  0.1280768E+00
         -1   -1    0    0    0  501 -0.00000000000E+00  0.00000000000E+00  0.12132714724E+03  0.12132714724E+03  0.00000000000E+00 0.  1.
          1   -1    0    0  501    0  0.00000000000E+00 -0.00000000000E+00 -0.33362183620E+03  0.33362183620E+03  0.00000000000E+00 0. -1.
         23    2    1    2    0    0 -0.85902290972E+01  0.38560574122E+02  0.82265849062E+02  0.14411105335E+03  0.11153302589E+03 0.  0.
         23    2    1    2    0    0  0.85902290972E+01 -0.38560574122E+02 -0.29456053802E+03  0.31083793009E+03  0.91069195160E+02 0.  0.
          5    1    3    3  502    0 -0.53497997703E+02  0.37013449160E+02  0.21956674471E+02  0.68786620289E+02  0.41800000000E+01 0. -1.
         -5    1    3    3    0  502  0.44907768606E+02  0.15471249626E+01  0.60309174591E+02  0.75324433065E+02  0.41800000000E+01 0.  1.
        -11    1    4    4    0    0  0.27231559292E+02  0.15995838012E+02 -0.17820834821E+03  0.18098519283E+03  0.00000000000E+00 0.  1.
         11    1    4    4    0    0 -0.18641330195E+02 -0.54556412134E+02 -0.11635218982E+03  0.12985273725E+03  0.00000000000E+00 0. -1.
</event>
<event>
 8    1  0.8619230E-006  0.1116524E+03  0.7561462E-02  0.1257540E+00
         -1   -1    0    0    0  501 -0.00000000000E+00  0.00000000000E+00  0.56680817407E+02  0.56680817407E+02  0.00000000000E+00 0.  1.
          1   -1    0    0  501    0  0.00000000000E+00 -0.00000000000E+00 -0.23844990098E+03  0.23844990098E+03  0.00000000000E+00 0. -1.
         23    2    1    2    0    0 -0.58729629114E+02 -0.19004510021E+02 -0.90565336914E+02  0.16631398743E+03  0.12509165211E+03 0.  0.
         23    2    1    2    0    0  0.58729629114E+02  0.19004510021E+02 -0.91203746656E+02  0.12881673095E+03  0.66822795756E+02 0.  0.
          5    1    3    3  502    0 -0.43582262984E+02 -0.69775133477E+02 -0.35234097090E+02  0.89592951153E+02  0.41800000000E+01 0.  1.
         -5    1    3    3    0  502 -0.15147366129E+02  0.50770623456E+02 -0.55331239825E+02  0.76721036276E+02  0.41800000000E+01 0.  1.
        -11    1    4    4    0    0  0.25219873484E+02 -0.22943659047E+02 -0.52623980170E+02  0.62703562881E+02  0.00000000000E+00 0. -1.
         11    1    4    4    0    0  0.33509755630E+02  0.41948169069E+02 -0.38579766486E+02  0.66113168073E+02  0.00000000000E+00 0.  1.
</event>
<event>
 8    1  0.8619230E-006  0.9854048E+02  0.7561462E-02  0.1283395E+00
          1   -1    0    0  501    0  0.00000000000E+00  0.00000000000E+00  0.91430132830E+02  0.91430132830E+02  0.00000000000E+00 0. -1.
         -1   -1    0    0    0  501 -0.00000000000E+00 -0.00000000000E+00 -0.13452059780E+03  0.13452059780E+03  0.00000000000E+00 0.  1.
         23    2    1    2    0    0 -0.49646288253E+01  0.10905243166E+02 -0.38078145253E+02  0.13132403004E+03  0.12510988711E+03 0.  0.
         23    2    1    2    0    0  0.49646288253E+01 -0.10905243166E+02 -0.50123197213E+01  0.94626700594E+02  0.93731090084E+02 0.  0.
          5    1    3    3  502    0 -0.47528254130E+02  0.38094264764E+02  0.95267549447E+01  0.61792713230E+02  0.41800000000E+01 0.  1.
         -5    1    3    3    0  502  0.42563625305E+02 -0.27189021598E+02 -0.47604900197E+02  0.69531316810E+02  0.41800000000E+01 0.  1.
        -11    1    4    4    0    0 -0.32421858700E+02  0.18905496964E+02 -0.22445877508E+02  0.43731134837E+02  0.00000000000E+00 0.  1.
         11    1    4    4    0    0  0.37386487525E+02 -0.29810740130E+02  0.17433557786E+02  0.50895565757E+02  0.00000000000E+00 0. -1.
</event>
<event>
 8    1  0.8619230E-006  0.9338597E+02  0.7561462E-02  0.1294853E+00
          3   -1    0    0  501    0  0.00000000000E+00  0.00000000000E+00  0.80602992075E+02  0.80602992075E+02  0.00000000000E+00 0. -1.
         -3   -1    0    0    0  501 -0.00000000000E+00 -0.00000000000E+00 -0.19899789533E+03  0.19899789533E+03  0.00000000000E+00 0.  1.
         23    2    1    2    0    0  0.59291226986E+02  0.41125847917E+02 -0.98308892255E+02  0.16433225237E+03  0.11015292056E+03 0.  0.
         23    2    1    2    0    0 -0.59291226986E+02 -0.41125847917E+02 -0.20086011003E+02  0.11526863504E+03  0.87616353618E+02 0.  0.
          5    1    3    3  502    0  0.84580671990E+01 -0.67660950748E+01  0.22161697077E+02  0.25018636266E+02  0.41800000000E+01 0. -1.
         -5    1    3    3    0  502  0.50833159787E+02  0.47891942992E+02 -0.12047058933E+03  0.13931361610E+03  0.41800000000E+01 0.  1.
        -11    1    4    4    0    0 -0.32638081768E+02 -0.62845106243E+02  0.74685385039E+01  0.71207659894E+02  0.00000000000E+00 0. -1.
         11    1    4    4    0    0 -0.26653145218E+02  0.21719258326E+02 -0.27554549507E+02  0.44060975145E+02  0.00000000000E+00 0.  1.
</event>
<event>
 8    1  0.8619230E-006  0.1368085E+03  0.7561462E-02  0.1217689E+00
          2   -1    0    0  501    0  0.00000000000E+00  0.00000000000E+00  0.21825955419E+03  0.21825955419E+03  0.00000000000E+00 0. -1.
         -2   -1    0    0    0  501 -0.00000000000E+00 -0.00000000000E+00 -0.13928434862E+03  0.13928434862E+03  0.00000000000E+00 0.  1.
         23    2    1    2    0    0 -0.99497309194E+02  0.30250008048E+01 -0.54443373388E+02  0.16887576448E+03  0.12508428261E+03 0.  0.
         23    2    1    2    0    0  0.99497309194E+02 -0.30250008048E+01  0.13341857895E+03  0.18866813833E+03  0.88804752371E+02 0.  0.
          5    1    3    3  502    0 -0.22214433857E+02 -0.56985333181E+02 -0.28233226093E+02  0.67493679148E+02  0.41800000000E+01 0. -1.
         -5    1    3    3    0  502 -0.77282875337E+02  0.60010333986E+02 -0.26210147295E+02  0.10138208533E+03  0.41800000000E+01 0. -1.
        -11    1    4    4    0    0  0.62871267147E+02  0.25608354561E+02  0.12380286439E+03  0.14119395627E+03  0.00000000000E+00 0. -1.
         11    1    4    4    0    0  0.36626042048E+02 -0.28633355366E+02  0.96157145625E+01  0.47474182059E+02  0.00000000000E+00 0.  1.
</event>
<event>
 8    1  0.8619230E-006  0.8681102E+02  0.7561462E-02  0.1310763E+00
          1   -1    0    0  501    0  0.00000000000E+00  0.00000000000E+00  0.12447343732E+03  0.12447343732E+03  0.00000000000E+00 0. -1.
         -1   -1    0    0    0  501 -0.00000000000E+00 -0.00000000000E+00 -0.10830821774E+03  0.10830821774E+03  0.00000000000E+00 0.  1.
         23    2    1    2    0    0  0.92603325944E+01  0.32924947623E+02 -0.73260895264E+01  0.12988689926E+03  0.12508848498E+03 0.  0.
         23    2    1    2    0    0 -0.92603325944E+01 -0.32924947623E+02  0.23491309109E+02  0.10289475580E+03  0.94157757154E+02 0.  0.
          5    1    3    3  502    0 -0.29852630082E+02  0.72041086668E+01  0.48097972310E+02  0.57218581290E+02  0.41800000000E+01 0. -1.
         -5    1    3    3    0  502  0.39112962676E+02  0.25720838957E+02 -0.55424061836E+02  0.72668317969E+02  0.41800000000E+01 0. -1.
        -11    1    4    4    0    0 -0.43257723631E+02  0.63099100800E+01 -0.44438467818E+01  0.43940794180E+02  0.00000000000E+00 0.  1.
         11    1    4    4    0    0  0.33997391037E+02 -0.39234857703E+02  0.27935155891E+02  0.58953961622E+02  0.00000000000E+00 0. -1.
</event>
<event>
 8    1  0.8619230E-006  0.1047770E+03  0.7561462E-02  0.1270560E+00
         -2   -1    0    0    0  501 -0.00000000000E+00  0.00000000000E+00  0.78900883591E+02  0.78900883591E+02  0.00000000000E+00 0.  1.
          2   -1    0    0  501    0  0.00000000000E+00 -0.00000000000E+00 -0.22891294940E+03  0.22891294940E+03  0.00000000000E+00 0. -1.
         23    2    1    2    0    0  0.54525235000E+02  0.22716774415E+02 -0.22384640113E+02  0.14006195501E+03  0.12500890383E+03 0.  0.
         23    2    1    2    0    0 -0.54525235000E+02 -0.22716774415E+02 -0.12762742569E+03  0.16775187797E+03  0.91448781752E+02 0.  0.
          5    1    3    3  502    0 -0.37659971725E+02 -0.47278978552E+01  0.81813692980E+01  0.39051679760E+02  0.41800000000E+01 0.  1.
         -5    1    3    3    0  502  0.92185206726E+02  0.27444672270E+02 -0.30566009411E+02  0.10101027525E+03  0.41800000000E+01 0.  1.
        -11    1    4    4    0    0  0.24738542695E+01 -0.17703136565E+02  0.87172001267E+01  0.19887447731E+02  0.00000000000E+00 0.  1.
         11    1    4    4    0    0 -0.56999089270E+02 -0.50136378500E+01 -0.13634462582E+03  0.14786443024E+03  0.00000000000E+00 0. -1.
</event>
<event>
 8    1  0.8619230E-006  0.9905300E+02  0.7561462E-02  0.1282300E+00
         -1   -1    0    0    0  501 -0.00000000000E+00  0.00000000000E+00  0.29947196127E+02  0.29947196127E+02  0.00000000000E+00 0.  1.
          1   -1    0    0  501    0  0.00000000000E+00 -0.00000000000E+00 -0.52113058253E+03  0.52113058253E+03  0.00000000000E+00 0. -1.
         23    2    1    2    0    0 -0.60958779983E+02 -0.10412408438E+02 -0.22834408703E+03  0.26392254733E+03  0.11700298203E+03 0.  0.
         23    2    1    2    0    0  0.60958779983E+02  0.10412408438E+02 -0.26283929938E+03  0.28715523133E+03  0.97720205051E+02 0.  0.
          5    1    3    3  502    0 -0.13459355675E+02 -0.28960021911E+02 -0.20529687267E+03  0.20780788112E+03  0.41800000000E+01 0. -1.
         -5    1    3    3    0  502 -0.47499424307E+02  0.18547613474E+02 -0.23047214356E+02  0.56114666217E+02  0.41800000000E+01 0.  1.
        -11    1    4    4    0    0 -0.11630161056E+02  0.35950670002E+02 -0.70356837233E+02  0.79861103582E+02  0.00000000000E+00 0.  1.
         11    1    4    4    0    0  0.72588941039E+02 -0.25538261565E+02 -0.19248246214E+03  0.20729412774E+03  0.00000000000E+00 0. -1.
</event>
<event>
 8    1  0.8619230E-006  0.2193608E+03  0.7561462E-02  0.1134360E+00
          2   -1    0    0  501    0  0.00000000000E+00  0.00000000000E+00  0.17491065809E+03  0.17491065809E+03  0.00000000000E+00 0. -1.
         -2   -1    0    0    0  501 -0.00000000000E+00 -0.00000000000E+00 -0.34475252834E+03  0.34475252834E+03  0.00000000000E+00 0.  1.
         23    2    1    2    0    0 -0.72710547084E+02  0.19374847170E+03 -0.16597734060E+03  0.29329338080E+03  0.12508891113E+03 0.  0.
         23    2    1    2    0    0  0.72710547084E+02 -0.19374847170E+03 -0.38645296553E+01  0.22636980563E+03  0.91668208049E+02 0.  0.
          5    1    3    3  502    0  0.71270734999E+00  0.62357482293E+02  0.82200077547E+01  0.63039705561E+02  0.41800000000E+01 0. -1.
         -5    1    3    3    0  502 -0.73423254434E+02  0.13139098941E+03 -0.17419734835E+03  0.23025367524E+03  0.41800000000E+01 0. -1.
        -11    1    4    4    0    0 -0.20603634942E+02 -0.21701696999E+02  0.54862250330E+01  0.30423216309E+02  0.00000000000E+00 0.  1.
         11    1    4    4    0    0  0.93314182026E+02 -0.17204677470E+03 -0.93507546882E+01  0.19594658932E+03  0.00000000000E+00 0. -1.
</event>
<event>
 8    1  0.8619230E-006  0.2282992E+03  0.7561462E-02  0.1127843E+00
          3   -1    0    0  501    0  0.00000000000E+00  0.00000000000E+00  0.26628388972E+03  0.26628388972E+03  0.00000000000E+00 0. -1.
         -3   -1    0    0    0  501 -0.00000000000E+00 -0.00000000000E+00 -0.20217303292E+03  0.20217303292E+03  0.00000000000E+00 0.  1.
         23    2    1    2    0    0  0.16728424027E+03  0.11886727288E+03  0.17094824773E+02  0.24094425253E+03  0.12509378157E+03 0.  0.
         23    2    1    2    0    0 -0.16728424027E+03 -0.11886727288E+03  0.47016032021E+02  0.22751267011E+03  0.86244200883E+02 0.  0.
          5    1    3    3  502    0 -0.38411442122E+01  0.53744579398E+02 -0.12376225255E+02  0.55442560863E+02  0.41800000000E+01 0. -1.
         -5    1    3    3    0  502  0.17112538449E+03  0.65122693487E+02  0.29471050027E+02  0.18550169167E+03  0.41800000000E+01 0. -1.
        -11    1    4    4    0    0 -0.10395809973E+03 -0.26265296108E+02  0.42184008220E+02  0.11522431527E+03  0.00000000000E+00 0.  1.
         11    1    4    4    0    0 -0.63326140542E+02 -0.92601976776E+02  0.48320238012E+01  0.11228835484E+03  0.00000000000E+00 0. -1.
</event>
<event>
 8    1  0.8619230E-006  0.1274988E+03  0.7561462E-02  0.1231215E+00
         -2   -1    0    0    0  501 -0.00000000000E+00  0.00000000000E+00  0.20219897811E+03  0.20219897811E+03  0.00000000000E+00 0.  1.
          2   -1    0    0  501    0  0.00000000000E+00 -0.00000000000E+00 -0.86753661439E+02  0.86753661439E+02  0.00000000000E+00 0. -1.
         23    2    1    2    0    0 -0.10283623608E+02  0.72941651032E+02  0.82938361318E+02  0.16718719049E+03  0.12508616037E+03 0.  0.
         23    2    1    2    0    0  0.10283623608E+02 -0.72941651032E+02  0.32506955356E+02  0.12176544906E+03  0.91344868867E+02 0.  0.
          5    1    3    3  502    0 -0.44519743733E+02 -0.12965056104E+02  0.62470436156E+01  0.46974442155E+02  0.41800000000E+01 0. -1.
         -5    1    3    3    0  502  0.34236120125E+02  0.85906707136E+02  0.76691317703E+02  0.12021274834E+03  0.41800000000E+01 0. -1.
        -11    1    4    4    0    0  0.44495734707E+02 -0.68053612683E+02  0.31480969552E+02  0.87190687864E+02  0.00000000000E+00 0. -1.
         11    1    4    4    0    0 -0.34212111100E+02 -0.48880383495E+01  0.10259858039E+01  0.34574761195E+02  0.00000000000E+00 0.  1.
</event>
<event>
 8    1  0.8619230E-006  0.3337752E+03  0.7561462E-02  0.1069479E+00
          1   -1    0    0  501    0  0.00000000000E+00  0.00000000000E+00  0.85142860334E+03  0.85142860334E+03  0.00000000000E+00 0. -1.
         -1   -1    0    0    0  501 -0.00000000000E+00 -0.00000000000E+00 -0.14570796873E+03  0.14570796873E+03  0.00000000000E+00 0.  1.
         23    2    1    2    0    0 -0.61577832968E+02 -0.31380514350E+03  0.21883283450E+03  0.40718690815E+03  0.12509145102E+03 0.  0.
         23    2    1    2    0    0  0.61577832968E+02  0.31380514350E+03  0.48688780011E+03  0.58994966391E+03  0.93356191325E+02 0.  0.
          5    1    3    3  502    0  0.13661638580E+02  0.12570024338E+01 -0.28851357679E+01  0.14629314140E+02  0.41800000000E+01 0. -1.
         -5    1    3    3    0  502 -0.75239471548E+02 -0.31506214593E+03  0.22171797027E+03  0.39255759401E+03  0.41800000000E+01 0. -1.
        -11    1    4    4    0    0 -0.18990156230E+02  0.66809654312E+02  0.14279503500E+03  0.15879098830E+03  0.00000000000E+00 0. -1.
         11    1    4    4    0    0  0.80567989197E+02  0.24699548918E+03  0.34409276511E+03  0.43115867562E+03  0.00000000000E+00 0.  1.
</event>
<event>
 8    1  0.8619230E-006  0.1569069E+03  0.7561462E-02  0.1192234E+00
         -2   -1    0    0    0  501 -0.00000000000E+00  0.00000000000E+00  0.10009931581E+03  0.10009931581E+03  0.00000000000E+00 0.  1.
          2   -1    0    0  501    0  0.00000000000E+00 -0.00000000000E+00 -0.29944396148E+03  0.29944396148E+03  0.00000000000E+00 0. -1.
         23    2    1    2    0    0 -0.89525797335E+02 -0.85228185513E+02 -0.50008192807E+02  0.18283477227E+03  0.12509605353E+03 0.  0.
         23    2    1    2    0    0  0.89525797335E+02  0.85228185513E+02 -0.14933645287E+03  0.21670850502E+03  0.96863243797E+02 0.  0.
          5    1    3    3  502    0 -0.39782339160E+02  0.27383656589E+02 -0.32629109365E+02  0.58434838369E+02  0.41800000000E+01 0. -1.
         -5    1    3    3    0  502 -0.49743458174E+02 -0.11261184210E+03 -0.17379083442E+02  0.12439993390E+03  0.41800000000E+01 0. -1.
        -11    1    4    4    0    0  0.60521179145E+02  0.97543936010E+01 -0.11193443728E+03  0.12762162657E+03  0.00000000000E+00 0. -1.
         11    1    4    4    0    0  0.29004618189E+02  0.75473791912E+02 -0.37402015589E+02  0.89086878450E+02  0.00000000000E+00 0.  1.
</event>
<event>
 8    1  0.8619230E-006  0.1019080E+03  0.7561462E-02  0.1276334E+00
          2   -1    0    0  501    0  0.00000000000E+00  0.00000000000E+00  0.47040501478E+03  0.47040501478E+03  0.00000000000E+00 0. -1.
         -2   -1    0    0    0  501 -0.00000000000E+00 -0.00000000000E+00 -0.31098225703E+02  0.31098225703E+02  0.00000000000E+00 0.  1.
         23    2    1    2    0    0  0.41414163511E+02  0.26173175518E+02  0.18344716089E+03  0.22737794879E+03  0.12509077784E+03 0.  0.
         23    2    1    2    0    0 -0.41414163511E+02 -0.26173175518E+02  0.25585962819E+03  0.27412529170E+03  0.85325014830E+02 0.  0.
          5    1    3    3  502    0 -0.22854528439E+02  0.40114839114E+02  0.14237009834E+03  0.14972724231E+03  0.41800000000E+01 0.  1.
         -5    1    3    3    0  502  0.64268691950E+02 -0.13941663596E+02  0.41077062545E+02  0.77650706475E+02  0.41800000000E+01 0.  1.
        -11    1    4    4    0    0 -0.62668908826E+02 -0.72179386067E+01  0.12283957461E+03  0.13809073779E+03  0.00000000000E+00 0.  1.
         11    1    4    4    0    0  0.21254745315E+02 -0.18955236911E+02  0.13302005358E+03  0.13603455391E+03  0.00000000000E+00 0. -1.
</event>
<event>
 8    1  0.8619230E-006  0.1003675E+03  0.7561462E-02  0.1279525E+00
          1   -1    0    0  501    0  0.00000000000E+00  0.00000000000E+00  0.75638027186E+03  0.75638027186E+03  0.00000000000E+00 0. -1.
         -1   -1    0    0    0  501 -0.00000000000E+00 -0.00000000000E+00 -0.16521677950E+02  0.16521677950E+02  0.00000000000E+00 0.  1.
         23    2    1    2    0    0  0.24757952216E+02 -0.17916440263E+02  0.44551082791E+03  0.46374729799E+03  0.12509078134E+03 0.  0.
         23    2    1    2    0    0 -0.24757952216E+02  0.17916440263E+02  0.29434776600E+03  0.30915465182E+03  0.89454101995E+02 0.  0.
          5    1    3    3  502    0 -0.36013218696E+02 -0.30176754408E+02  0.32252324881E+03  0.32595445518E+03  0.41800000000E+01 0.  1.
         -5    1    3    3    0  502  0.60771170912E+02  0.12260314145E+02  0.12298757910E+03  0.13779284281E+03  0.41800000000E+01 0.  1.
        -11    1    4    4    0    0 -0.35238504244E+02 -0.27574851524E+02  0.18352330431E+03  0.18889925316E+03  0.00000000000E+00 0. -1.
         11    1    4    4    0    0  0.10480552028E+02  0.45491291787E+02  0.11082446169E+03  0.12025539867E+03  0.00000000000E+00 0.  1.
</event>
<event>
 8    1  0.8619230E-006  0.8729600E+02  0.7561462E-02  0.1309535E+00
          1   -1    0    0  501    0  0.00000000000E+00  0.00000000000E+00  0.33297701545E+02  0.33297701545E+02  0.00000000000E+00 0. -1.
         -1   -1    0    0    0  501 -0.00000000000E+00 -0.00000000000E+00 -0.47006781717E+03  0.47006781717E+03  0.00000000000E+00 0.  1.
         23    2    1    2    0    0  0.19767765799E+02 -0.13830327983E+02 -0.37197834177E+03  0.38967611668E+03  0.11356736605E+03 0.  0.
         23    2    1    2    0    0 -0.19767765799E+02  0.13830327983E+02 -0.64791773858E+02  0.11368940203E+03  0.90251114332E+02 0.  0.
          5    1    3    3  502    0 -0.47322119635E+02 -0.50943448506E+01 -0.13563957551E+03  0.14380856095E+03  0.41800000000E+01 0. -1.
         -5    1    3    3    0  502  0.67089885434E+02 -0.87359831323E+01 -0.23633876625E+03  0.24586755573E+03  0.41800000000E+01 0.  1.
        -11    1    4    4    0    0 -0.27194492033E+02  0.30449197083E+02 -0.80100920008E+02  0.89904679445E+02  0.00000000000E+00 0.  1.
         11    1    4    4    0    0  0.74267262338E+01 -0.16618869101E+02  0.15309146151E+02  0.23784722588E+02  0.00000000000E+00 0. -1.
</event>
<event>
 8    1  0.8619230E-006  0.9396052E+02  0.7561462E-02  0.1293535E+00
         -2   -1    0    0    0  501 -0.00000000000E+00  0.00000000000E+00  0.44175004860E+02  0.44175004860E+02  0.00000000000E+00 0.  1.
          2   -1    0    0  501    0  0.00000000000E+00 -0.00000000000E+00 -0.25721570430E+03  0.25721570430E+03  0.00000000000E+00 0. -1.
         23    2    1    2    0    0  0.87968426884E+01  0.12689567936E+02 -0.77040257234E+02  0.13613218719E+03  0.11116816801E+03 0.  0.
         23    2    1    2    0    0 -0.87968426884E+01 -0.12689567936E+02 -0.13600044221E+03  0.16525852197E+03  0.92605881171E+02 0.  0.
          5    1    3    3  502    0  0.53397275396E+02  0.17941392145E+02 -0.70843273419E+02  0.90605763396E+02  0.41800000000E+01 0. -1.
         -5    1    3    3    0  502 -0.44600432708E+02 -0.52518242090E+01 -0.61969838144E+01  0.45526423796E+02  0.41800000000E+01 0.  1.
        -11    1    4    4    0    0  0.36795939654E+02  0.55781192611E+01 -0.92280819684E+02  0.99502795293E+02  0.00000000000E+00 0. -1.
         11    1    4    4    0    0 -0.45592782343E+02 -0.18267687197E+02 -0.43719622525E+02  0.65755726678E+02  0.00000000000E+00 0.  1.
</event>
<event>
 8    1  0.8619230E-006  0.1206401E+03  0.7561462E-02  0.1242045E+00
          1   -1    0    0  501    0  0.00000000000E+00  0.00000000000E+00  0.14681689682E+04  0.14681689682E+04  0.00000000000E+00 0. -1.
         -1   -1    0    0    0  501 -0.00000000000E+00 -0.00000000000E+00 -0.14657074050E+02  0.14657074050E+02  0.00000000000E+00 0.  1.
         23    2    1    2    0    0 -0.57905216899E+02  0.73648483556E+02  0.95128124996E+03  0.96403600330E+03  0.12510909584E+03 0.  0.
         23    2    1    2    0    0  0.57905216899E+02 -0.73648483556E+02  0.50223064419E+03  0.51879003895E+03  0.90168571432E+02 0.  0.
          5    1    3    3  502    0 -0.52990400936E+02  0.14901542310E+02  0.13831884151E+03  0.14892821382E+03  0.41800000000E+01 0. -1.
         -5    1    3    3    0  502 -0.49148159629E+01  0.58746941246E+02  0.81296240845E+03  0.81510778948E+03  0.41800000000E+01 0. -1.
        -11    1    4    4    0    0  0.51114626632E+02 -0.93190201888E+02  0.45460982202E+03  0.46686958464E+03  0.00000000000E+00 0.  1.
         11    1    4    4    0    0  0.67905902672E+01  0.19541718332E+02  0.47620822170E+02  0.51920454309E+02  0.00000000000E+00 0. -1.
</event>
<event>
 7    1  0.8619230E-006  0.8434224E+02  0.7561462E-02  0.1317162E+00
          2   -1    0    0  501    0  0.00000000000E+00  0.00000000000E+00  0.31089569570E+03  0.31089569570E+03  0.00000000000E+00 0. -1.
         -2   -1    0    0    0  501 -0.00000000000E+00 -0.00000000000E+00 -0.52215321105E+02  0.52215321105E+02  0.00000000000E+00 0.  1.
         23    2    1    2    0    0 -0.14812733241E+02  0.40467864131E+02  0.11334481322E+03  0.15167728404E+03  0.91114689900E+02 0.  0.
          5    1    1    2  502    0 -0.19689889594E+02 -0.18959493091E+02  0.16413331445E+03  0.16644630198E+03  0.41800000000E+01 0. -1.
         -5    1    1    2    0  502  0.34502622836E+02 -0.21508371040E+02 -0.18797753082E+02  0.44987430781E+02  0.41800000000E+01 0.  1.
        -11    1    3    3    0    0 -0.34798610343E+02  0.61803219521E+02  0.72254677125E+02  0.10124880044E+03  0.00000000000E+00 0.  1.
         11    1    3    3    0    0  0.19985877101E+02 -0.21335355391E+02  0.41090136094E+02  0.50428483592E+02  0.00000000000E+00 0. -1.
</event>
<event>
 8    1  0.8619230E-006  0.1140342E+03  0.7561462E-02  0.1253276E+00
          2   -1    0    0  501    0  0.00000000000E+00  0.00000000000E+00  0.15036401421E+03  0.15036401421E+03  0.00000000000E+00 0. -1.
         -2   -1    0    0    0  501 -0.00000000000E+00 -0.00000000000E+00 -0.13026229338E+03  0.13026229338E+03  0.00000000000E+00 0.  1.
         23    2    1    2    0    0  0.64099523719E+02 -0.55828268298E+02  0.57440748311E+01  0.15134747068E+03  0.12509003958E+03 0.  0.
         23    2    1    2    0    0 -0.64099523719E+02  0.55828268298E+02  0.14357646000E+02  0.12927883691E+03  0.96339665731E+02 0.  0.
          5    1    3    3  502    0  0.69712332945E+02 -0.68585601783E+02  0.46284227171E+02  0.10827509511E+03  0.41800000000E+01 0. -1.
         -5    1    3    3    0  502 -0.56128092261E+01  0.12757333485E+02 -0.40540152340E+02  0.43072375565E+02  0.41800000000E+01 0. -1.
        -11    1    4    4    0    0  0.10241534078E+02  0.37765720551E+02 -0.21655395692E+02  0.44722419787E+02  0.00000000000E+00 0.  1.
         11    1    4    4    0    0 -0.74341057797E+02  0.18062547747E+02  0.36013041692E+02  0.84556417128E+02  0.00000000000E+00 0. -1.
</event>
<event>
 8    1  0.8619230E-006  0.9702110E+02  0.7561462E-02  0.1286688E+00
         -2   -1    0    0    0  501 -0.00000000000E+00  0.00000000000E+00  0.50558135256E+02  0.50558135256E+02  0.00000000000E+00 0. -1.
          2   -1    0    0  501    0  0.00000000000E+00 -0.00000000000E+00 -0.36980286574E+03  0.36980286574E+03  0.00000000000E+00 0.  1.
         23    2    1    2    0    0 -0.38585236856E+01 -0.14308407322E+02 -0.47498950662E+02  0.13462370753E+03  0.12509106119E+03 0.  0.
         23    2    1    2    0    0  0.38585236856E+01  0.14308407322E+02 -0.27174577982E+03  0.28573729346E+03  0.87065568978E+02 0.  0.
          5    1    3    3  502    0 -0.56901726250E+02 -0.84627498378E+01 -0.56038547493E+02  0.80419001425E+02  0.41800000000E+01 0. -1.
         -5    1    3    3    0  502  0.53043202565E+02 -0.58456574838E+01  0.85395968307E+01  0.54204706104E+02  0.41800000000E+01 0. -1.
        -11    1    4    4    0    0  0.34259915255E+02  0.32652679688E+02 -0.20203764437E+03  0.20750698549E+03  0.00000000000E+00 0.  1.
         11    1    4    4    0    0 -0.30401391570E+02 -0.18344272367E+02 -0.69708135444E+02  0.78230307970E+02  0.00000000000E+00 0. -1.
</event>
<event>
 8    1  0.8619230E-006  0.1965772E+03  0.7561462E-02  0.1152659E+00
         -4   -1    0    0    0  501 -0.00000000000E+00  0.00000000000E+00  0.81936046471E+03  0.81936046471E+03  0.00000000000E+00 0.  1.
          4   -1    0    0  501    0  0.00000000000E+00 -0.00000000000E+00 -0.57340058459E+02  0.57340058459E+02  0.00000000000E+00 0. -1.
         23    2    1    2    0    0 -0.10573232707E+02 -0.18285928701E+03  0.47245234373E+03  0.52192666677E+03  0.12508763446E+03 0.  0.
         23    2    1    2    0    0  0.10573232707E+02  0.18285928701E+03  0.28956806252E+03  0.35477385640E+03  0.92008229288E+02 0.  0.
          5    1    3    3  502    0  0.42723242011E+01 -0.16281436871E+03  0.25233949650E+03  0.30036555280E+03  0.41800000000E+01 0. -1.
         -5    1    3    3    0  502 -0.14845556908E+02 -0.20044918297E+02  0.22011284722E+03  0.22156111397E+03  0.41800000000E+01 0. -1.
        -11    1    4    4    0    0 -0.39324269833E+02  0.54367547467E+02  0.97964688187E+02  0.11874050929E+03  0.00000000000E+00 0.  1.
         11    1    4    4    0    0  0.49897502539E+02  0.12849173954E+03  0.19160337433E+03  0.23603334711E+03  0.00000000000E+00 0. -1.
</event>
<event>
 8    1  0.8619230E-006  0.1927347E+03  0.7561462E-02  0.1156018E+00
         -3   -1    0    0    0  501 -0.00000000000E+00  0.00000000000E+00  0.17956905074E+03  0.17956905074E+03  0.00000000000E+00 0.  1.
          3   -1    0    0  501    0  0.00000000000E+00 -0.00000000000E+00 -0.28611217727E+03  0.28611217727E+03  0.00000000000E+00 0. -1.
         23    2    1    2    0    0  0.16769758109E+03  0.39880588622E+02  0.46210436997E+02  0.21793720257E+03  0.12509308424E+03 0.  0.
         23    2    1    2    0    0 -0.16769758109E+03 -0.39880588622E+02 -0.15275356353E+03  0.24774402544E+03  0.91271632615E+02 0.  0.
          5    1    3    3  502    0  0.17702720548E+03  0.36386179668E+02  0.68378797981E+02  0.19327627367E+03  0.41800000000E+01 0.  1.
         -5    1    3    3    0  502 -0.93296243930E+01  0.34944089539E+01 -0.22168360985E+02  0.24660928896E+02  0.41800000000E+01 0.  1.
        -11    1    4    4    0    0 -0.15325082290E+03 -0.63755481259E+02 -0.12060465303E+03  0.20517324007E+03  0.00000000000E+00 0.  1.
         11    1    4    4    0    0 -0.14446758186E+02  0.23874892637E+02 -0.32148910500E+02  0.42570785368E+02  0.00000000000E+00 0. -1.
</event>
<event>
 8    1  0.8619230E-006  0.1150775E+03  0.7561462E-02  0.1251446E+00
         -2   -1    0    0    0  501 -0.00000000000E+00  0.00000000000E+00  0.94386142154E+03  0.94386142154E+03  0.00000000000E+00 0.  1.
          2   -1    0    0  501    0  0.00000000000E+00 -0.00000000000E+00 -0.20250405746E+02  0.20250405746E+02  0.00000000000E+00 0. -1.
         23    2    1    2    0    0  0.26448728551E+02 -0.32092139683E+02  0.76709783828E+03  0.77834210246E+03  0.12509154363E+03 0.  0.
         23    2    1    2    0    0 -0.26448728551E+02  0.32092139683E+02  0.15651317751E+03  0.18576972483E+03  0.91019642147E+02 0.  0.
          5    1    3    3  502    0 -0.19882618719E+02  0.40274974372E+02  0.30275042345E+03  0.30609260590E+03  0.41800000000E+01 0. -1.
         -5    1    3    3    0  502  0.46331347270E+02 -0.72367114055E+02  0.46434741483E+03  0.47224949656E+03  0.41800000000E+01 0. -1.
        -11    1    4    4    0    0  0.72171520266E+01 -0.28662557467E+02  0.35050779613E+02  0.45849608890E+02  0.00000000000E+00 0. -1.
         11    1    4    4    0    0 -0.33665880577E+02  0.60754697150E+02  0.12146239790E+03  0.13992011594E+03  0.00000000000E+00 0.  1.
</event>
<event>
 8    1  0.8619230E-006  0.6168223E+02  0.7561462E-02  0.1390905E+00
          1   -1    0    0  501    0  0.00000000000E+00  0.00000000000E+00  0.57930644109E+03  0.57930644109E+03  0.00000000000E+00 0. -1.
         -1   -1    0    0    0  501 -0.00000000000E+00 -0.00000000000E+00 -0.26340095768E+02  0.26340095768E+02  0.00000000000E+00 0.  1.
         23    2    1    2    0    0  0.32190266051E+02 -0.29306227120E+02  0.17367891903E+03  0.21841772285E+03  0.12508743567E+03 0.  0.
         23    2    1    2    0    0 -0.32190266051E+02  0.29306227120E+02  0.37928742629E+03  0.38722881401E+03  0.64746694750E+02 0.  0.
          5    1    3    3  502    0  0.20396851181E+02 -0.51258629152E+01 -0.16025675628E+02  0.26769398351E+02  0.41800000000E+01 0. -1.
         -5    1    3    3    0  502  0.11793414870E+02 -0.24180364205E+02  0.18970459466E+03  0.19164832450E+03  0.41800000000E+01 0. -1.
        -11    1    4    4    0    0 -0.23410050593E+02  0.48353630594E+02  0.31660463547E+03  0.32113019052E+03  0.00000000000E+00 0. -1.
         11    1    4    4    0    0 -0.87802154580E+01 -0.19047403474E+02  0.62682790821E+02  0.66098623494E+02  0.00000000000E+00 0.  1.
</event>
<event>
 8    1  0.8619230E-006  0.1322646E+03  0.7561462E-02  0.1224134E+00
          2   -1    0    0  501    0  0.00000000000E+00  0.00000000000E+00  0.89005280257E+03  0.89005280257E+03  0.00000000000E+00 0. -1.
         -2   -1    0    0    0  501 -0.00000000000E+00 -0.00000000000E+00 -0.29655290572E+02  0.29655290572E+02  0.00000000000E+00 0.  1.
         23    2    1    2    0    0 -0.79140475014E+02 -0.86008926920E+02  0.37428918517E+03  0.41158303001E+03  0.12508975241E+03 0.  0.
         23    2    1    2    0    0  0.79140475014E+02  0.86008926920E+02  0.48610832682E+03  0.50812506313E+03  0.90713968497E+02 0.  0.
          5    1    3    3  502    0 -0.46941807223E+02 -0.18561287206E+02  0.30629985142E+03  0.31045954008E+03  0.41800000000E+01 0. -1.
         -5    1    3    3    0  502 -0.32198667791E+02 -0.67447639714E+02  0.67989333750E+02  0.10112348992E+03  0.41800000000E+01 0. -1.
        -11    1    4    4    0    0  0.81578142715E+02  0.36361273793E+02  0.22043860395E+03  0.23784514650E+03  0.00000000000E+00 0.  1.
         11    1    4    4    0    0 -0.24376677009E+01  0.49647653127E+02  0.26566972287E+03  0.27027991663E+03  0.00000000000E+00 0. -1.
</event>
<event>
 8    1  0.8619230E-006  0.6362511E+02  0.7561462E-02  0.1383219E+00
         -1   -1    0    0    0  501 -0.00000000000E+00  0.00000000000E+00  0.13507757731E+03  0.13507757731E+03  0.00000000000E+00 0.  1.
          1   -1    0    0  501    0  0.00000000000E+00 -0.00000000000E+00 -0.95323842327E+02  0.95323842327E+02  0.00000000000E+00 0. -1.
         23    2    1    2    0    0  0.17461933213E+02  0.23610597033E+02  0.42194298195E+02  0.13523591386E+03  0.12508402853E+03 0.  0.
         23    2    1    2    0    0 -0.17461933213E+02 -0.23610597033E+02 -0.24405632099E+01  0.95165505779E+02  0.90488329290E+02 0.  0.
          5    1    3    3  502    0  0.41296840994E+02  0.88379957069E+00  0.76786110000E+02  0.87291404312E+02  0.41800000000E+01 0.  1.
         -5    1    3    3    0  502 -0.23834907781E+02  0.22726797463E+02 -0.34591811805E+02  0.47944509548E+02  0.41800000000E+01 0.  1.
        -11    1    4    4    0    0  0.14221489756E+02 -0.12578893397E+02  0.38084905035E+02  0.42555132728E+02  0.00000000000E+00 0.  1.
         11    1    4    4    0    0 -0.31683422969E+02 -0.11031703637E+02 -0.40525468245E+02  0.52610373052E+02  0.00000000000E+00 0. -1.
</event>
<event>
 8    1  0.8619230E-006  0.1986308E+03  0.7561462E-02  0.1150899E+00
          1   -1    0    0  501    0  0.00000000000E+00  0.00000000000E+00  0.33044449372E+03  0.33044449372E+03  0.00000000000E+00 0. -1.
         -1   -1    0    0    0  501 -0.00000000000E+00 -0.00000000000E+00 -0.17947477101E+03  0.17947477101E+03  0.00000000000E+00 0.  1.
         23    2    1    2    0    0  0.17151237031E+03 -0.94580387126E+02  0.17761011105E+03  0.29250353707E+03  0.12510405611E+03 0.  0.
         23    2    1    2    0    0 -0.17151237031E+03  0.94580387126E+02 -0.26640388333E+02  0.21741572766E+03  0.90542506842E+02 0.  0.
          5    1    3    3  502    0  0.39973939630E+02 -0.20307658461E+02  0.12438849624E+03  0.13228865121E+03  0.41800000000E+01 0.  1.
         -5    1    3    3    0  502  0.13153843068E+03 -0.74272728664E+02  0.53221614806E+02  0.16021488586E+03  0.41800000000E+01 0.  1.
        -11    1    4    4    0    0 -0.96733970703E+02  0.27272680673E+02 -0.52704215062E+02  0.11348565762E+03  0.00000000000E+00 0.  1.
         11    1    4    4    0    0 -0.74778399606E+02  0.67307706452E+02  0.26063826729E+02  0.10393007004E+03  0.00000000000E+00 0. -1.
</event>
<event>
 8    1  0.8619230E-006  0.1212672E+03  0.7561462E-02  0.1241021E+00
          1   -1    0    0  501    0  0.00000000000E+00  0.00000000000E+00  0.40999774126E+02  0.40999774126E+02  0.00000000000E+00 0. -1.
         -1   -1    0    0    0  501 -0.00000000000E+00 -0.00000000000E+00 -0.47716639209E+03  0.47716639209E+03  0.00000000000E+00 0.  1.
         23    2    1    2    0    0 -0.43708767662E+02  0.65651287029E+02 -0.28581914230E+03  0.32180906922E+03  0.12509175461E+03 0.  0.
         23    2    1    2    0    0  0.43708767662E+02 -0.65651287029E+02 -0.15034747566E+03  0.19635709699E+03  0.98646835941E+02 0.  0.
          5    1    3    3  502    0 -0.39191272730E+02  0.92746931508E+02 -0.13507224038E+03  0.16852279277E+03  0.41800000000E+01 0. -1.
         -5    1    3    3    0  502 -0.45174949319E+01 -0.27095644479E+02 -0.15074690192E+03  0.15328627645E+03  0.41800000000E+01 0. -1.
        -11    1    4    4    0    0  0.79398640864E+01  0.19803358215E+02 -0.71793253323E+02  0.74896499658E+02  0.00000000000E+00 0.  1.
         11    1    4    4    0    0  0.35768903576E+02 -0.85454645245E+02 -0.78554222338E+02  0.12146059733E+03  0.00000000000E+00 0. -1.
</event>
<event>
 8    1  0.8619230E-006  0.1213848E+03  0.7561462E-02  0.1240830E+00
          1   -1    0    0  501    0  0.00000000000E+00  0.00000000000E+00  0.18599197888E+03  0.18599197888E+03  0.00000000000E+00 0. -1.
         -1   -1    0    0    0  501 -0.00000000000E+00 -0.00000000000E+00 -0.87721103656E+02  0.87721103656E+02  0.00000000000E+00 0.  1.
         23    2    1    2    0    0  0.72211973190E+01  0.63558683971E+02  0.32960399334E+02  0.14430984369E+03  0.12508833304E+03 0.  0.
         23    2    1    2    0    0 -0.72211973190E+01 -0.63558683971E+02  0.65310475885E+02  0.12940323884E+03  0.91585413482E+02 0.  0.
          5    1    3    3  502    0  0.57269905850E+02  0.64962553718E+02  0.50844668697E+01  0.86852171562E+02  0.41800000000E+01 0.  1.
         -5    1    3    3    0  502 -0.50048708531E+02 -0.14038697472E+01  0.27875932464E+02  0.57457672130E+02  0.41800000000E+01 0.  1.
        -11    1    4    4    0    0 -0.22566394604E+02 -0.80125114358E+02  0.32044893193E+02  0.89197260586E+02  0.00000000000E+00 0.  1.
         11    1    4    4    0    0  0.15345197285E+02  0.16566430386E+02  0.33265582692E+02  0.40205978253E+02  0.00000000000E+00 0. -1.
</event>
<event>
 8    1  0.8619230E-006  0.1168155E+03  0.7561462E-02  0.1248445E+00
          2   -1    0    0  501    0  0.00000000000E+00  0.00000000000E+00  0.20547366018E+02  0.20547366018E+02  0.00000000000E+00 0. -1.
         -2   -1    0    0    0  501 -0.00000000000E+00 -0.00000000000E+00 -0.95944667952E+03  0.95944667952E+03  0.00000000000E+00 0.  1.
         23    2    1    2    0    0  0.69938976598E+01  0.53432684457E+02 -0.75923112331E+03  0.77135156575E+03  0.12508946000E+03 0.  0.
         23    2    1    2    0    0 -0.69938976598E+01 -0.53432684457E+02 -0.17966819019E+03  0.20864247979E+03  0.91362242935E+02 0.  0.
          5    1    3    3  502    0  0.13365390057E+02  0.90304598154E+02 -0.63494917264E+03  0.64149160426E+03  0.41800000000E+01 0. -1.
         -5    1    3    3    0  502 -0.63714923976E+01 -0.36871913697E+02 -0.12428195067E+03  0.12985996149E+03  0.41800000000E+01 0. -1.
        -11    1    4    4    0    0 -0.28349850027E+02  0.15583888906E+02 -0.72579839354E+02  0.79463228419E+02  0.00000000000E+00 0.  1.
         11    1    4    4    0    0  0.21355952368E+02 -0.69016573363E+02 -0.10708835084E+03  0.12917925137E+03  0.00000000000E+00 0. -1.
</event>
<event>
 7    1  0.8619230E-006  0.2674083E+03  0.7561462E-02  0.1102772E+00
         -1   -1    0    0    0  501 -0.00000000000E+00  0.00000000000E+00  0.36645428597E+03  0.36645428597E+03  0.00000000000E+00 0.  1.
          1   -1    0    0  501    0  0.00000000000E+00 -0.00000000000E+00 -0.24434049186E+03  0.24434049186E+03  0.00000000000E+00 0. -1.
         23    2    1    2    0    0  0.18521970617E+03  0.12834459824E+03 -0.63014454839E+02  0.25090212732E+03  0.90566994652E+02 0.  0.
          5    1    1    2  502    0  0.10141423981E+01  0.47652240778E+02  0.83646703773E+01  0.48571644469E+02  0.41800000000E+01 0. -1.
         -5    1    1    2    0  502 -0.18623384857E+03 -0.17599683902E+03  0.17676357857E+03  0.31132100605E+03  0.41800000000E+01 0.  1.
        -11    1    3    3    0    0  0.57636874902E+02  0.13858367087E+02  0.17084606115E+02  0.61692361382E+02  0.00000000000E+00 0.  1.
         11    1    3    3    0    0  0.12758283127E+03  0.11448623115E+03 -0.80099060955E+02  0.18920976593E+03  0.00000000000E+00 0. -1.
</event>
<event>
 8    1  0.8619230E-006  0.1129695E+03  0.7561462E-02  0.1255168E+00
          1   -1    0    0  501    0  0.00000000000E+00  0.00000000000E+00  0.34862947481E+03  0.34862947481E+03  0.00000000000E+00 0. -1.
         -1   -1    0    0    0  501 -0.00000000000E+00 -0.00000000000E+00 -0.40584781099E+02  0.40584781099E+02  0.00000000000E+00 0.  1.
         23    2    1    2    0    0 -0.50622435279E+02  0.76118366476E+01  0.16901128765E+03  0.21641058409E+03  0.12509258388E+03 0.  0.
         23    2    1    2    0    0  0.50622435279E+02 -0.76118366476E+01  0.13903340607E+03  0.17280367182E+03  0.88939586139E+02 0.  0.
          5    1    3    3  502    0 -0.28806539553E+02  0.63962691975E+02  0.11743604072E+03  0.13685663573E+03  0.41800000000E+01 0. -1.
         -5    1    3    3    0  502 -0.21815895726E+02 -0.56350855327E+02  0.51575246933E+02  0.79553948354E+02  0.41800000000E+01 0. -1.
        -11    1    4    4    0    0  0.12972198998E+02  0.35535326404E+02  0.25425402105E+02  0.45579473907E+02  0.00000000000E+00 0. -1.
         11    1    4    4    0    0  0.37650236281E+02 -0.43147163051E+02  0.11360800396E+03  0.12722419792E+03  0.00000000000E+00 0.  1.
</event>
<event>
 8    1  0.8619230E-006  0.1591412E+03  0.7561462E-02  0.1189670E+00
         -2   -1    0    0    0  501 -0.00000000000E+00  0.00000000000E+00  0.49819857352E+03  0.49819857352E+03  0.00000000000E+00 0. -1.
          2   -1    0    0  501    0  0.00000000000E+00 -0.00000000000E+00 -0.81443550765E+02  0.81443550765E+02  0.00000000000E+00 0.  1.
         23    2    1    2    0    0 -0.15470914229E+03  0.66818920648E+01  0.30889355198E+03  0.36747993447E+03  0.12508680741E+03 0.  0.
         23    2    1    2    0    0  0.15470914229E+03 -0.66818920648E+01  0.10786147077E+03  0.21216218981E+03  0.96949118209E+02 0.  0.
          5    1    3    3  502    0 -0.10473855504E+03 -0.15136009356E+02  0.81595066171E+02  0.13369551568E+03  0.41800000000E+01 0. -1.
         -5    1    3    3    0  502 -0.49970587251E+02  0.21817901421E+02  0.22729848581E+03  0.23378441878E+03  0.41800000000E+01 0. -1.
        -11    1    4    4    0    0  0.12652626969E+03 -0.17024666976E+02  0.33528416693E+02  0.13199579892E+03  0.00000000000E+00 0.  1.
         11    1    4    4    0    0  0.28182872600E+02  0.10342774911E+02  0.74333054074E+02  0.80166390893E+02  0.00000000000E+00 0. -1.
</event>
<event>
 8    1  0.8619230E-006  0.1674415E+03  0.7561462E-02  0.1180543E+00
          2   -1    0    0  501    0  0.00000000000E+00  0.00000000000E+00  0.13947644821E+03  0.13947644821E+03  0.00000000000E+00 0. -1.
         -2   -1    0    0    0  501 -0.00000000000E+00 -0.00000000000E+00 -0.23501484696E+03  0.23501484696E+03  0.00000000000E+00 0.  1.
         23    2    1    2    0    0  0.47954099078E+01 -0.13528793608E+03 -0.10363122415E+03  0.21145759648E+03  0.12509621451E+03 0.  0.
         23    2    1    2    0    0 -0.47954099078E+01  0.13528793608E+03  0.80928254003E+01  0.16303369870E+03  0.90491278480E+02 0.  0.
          5    1    3    3  502    0  0.53469501337E+02 -0.29157224161E+02 -0.10272468404E+02  0.61904178382E+02  0.41800000000E+01 0.  1.
         -5    1    3    3    0  502 -0.48674091429E+02 -0.10613071192E+03 -0.93358755750E+02  0.14955341810E+03  0.41800000000E+01 0.  1.
        -11    1    4    4    0    0  0.32058647591E+02  0.24804610258E+02  0.21350802191E+02  0.45813560543E+02  0.00000000000E+00 0. -1.
         11    1    4    4    0    0 -0.36854057499E+02  0.11048332583E+03 -0.13257976791E+02  0.11722013815E+03  0.00000000000E+00 0.  1.
</event>
<event>
 7    1  0.8619230E-006  0.1259528E+03  0.7561462E-02  0.1233588E+00
          2   -1    0    0  501    0  0.00000000000E+00  0.00000000000E+00  0.68902033553E+03  0.68902033553E+03  0.00000000000E+00 0. -1.
         -2   -1    0    0    0  501 -0.00000000000E+00 -0.00000000000E+00 -0.23665247479E+02  0.23665247479E+02  0.00000000000E+00 0.  1.
         23    2    1    2    0    0 -0.11199522823E+02 -0.20663572338E+02  0.26155933382E+03  0.27780559210E+03  0.90610426337E+02 0.  0.
          5    1    1    2  502    0 -0.13830199026E+02  0.87825040886E+02  0.24285225966E+03  0.25864880559E+03  0.41800000000E+01 0. -1.
         -5    1    1    2    0  502  0.25029721849E+02 -0.67161468548E+02  0.16094349456E+03  0.17623118531E+03  0.41800000000E+01 0.  1.
        -11    1    3    3    0    0 -0.49659133997E+02 -0.16922314210E+02  0.18114044086E+03  0.18858487114E+03  0.00000000000E+00 0.  1.
         11    1    3    3    0    0  0.38459611174E+02 -0.37412581282E+01  0.80418892959E+02  0.89220720961E+02  0.00000000000E+00 0. -1.
</event>
<event>
 8    1  0.8619230E-006  0.7501474E+02  0.7561462E-02  0.1343825E+00
         -1   -1    0    0    0  501 -0.00000000000E+00  0.00000000000E+00  0.82040119023E+02  0.82040119023E+02  0.00000000000E+00 0.  1.
          1   -1    0    0  501    0  0.00000000000E+00 -0.00000000000E+00 -0.16938633898E+03  0.16938633898E+03  0.00000000000E+00 0. -1.
         23    2    1    2    0    0 -0.31355265712E+02  0.20241267650E+02 -0.11893926851E+02  0.13107055251E+03  0.12508062454E+03 0.  0.
         23    2    1    2    0    0  0.31355265712E+02 -0.20241267650E+02 -0.75452293102E+02  0.12035590549E+03  0.86021124427E+02 0.  0.
          5    1    3    3  502    0  0.31724689931E+01  0.20999357318E+02 -0.64481629223E+02  0.68017574747E+02  0.41800000000E+01 0. -1.
         -5    1    3    3    0  502 -0.34527734705E+02 -0.75808966743E+00  0.52587702372E+02  0.63052977762E+02  0.41800000000E+01 0. -1.
        -11    1    4    4    0    0  0.60719054827E+02 -0.20927963002E+02 -0.55105201582E+02  0.84624857435E+02  0.00000000000E+00 0.  1.
         11    1    4    4    0    0 -0.29363789115E+02  0.68669535162E+00 -0.20347091520E+02  0.35731048054E+02  0.00000000000E+00 0. -1.
</event>
<event>
 8    1  0.8619230E-006  0.1257905E+03  0.7561462E-02  0.1233839E+00
         -2   -1    0    0    0  501 -0.00000000000E+00  0.00000000000E+00  0.11253366507E+03  0.11253366507E+03  0.00000000000E+00 0.  1.
          2   -1    0    0  501    0  0.00000000000E+00 -0.00000000000E+00 -0.17259647159E+03  0.17259647159E+03  0.00000000000E+00 0. -1.
         23    2    1    2    0    0  0.17818284560E+02  0.82166439177E+02 -0.11266289479E+02  0.15114201593E+03  0.12509262452E+03 0.  0.
         23    2    1    2    0    0 -0.17818284560E+02 -0.82166439177E+02 -0.48796517044E+02  0.13398812072E+03  0.92211178432E+02 0.  0.
          5    1    3    3  502    0 -0.22866919185E+02  0.96154861175E+02 -0.30939449876E+02  0.10365025460E+03  0.41800000000E+01 0.  1.
         -5    1    3    3    0  502  0.40685203746E+02 -0.13988421998E+02  0.19673160397E+02  0.47491761326E+02  0.41800000000E+01 0.  1.
        -11    1    4    4    0    0 -0.13160745243E+02  0.10383550895E+02  0.14171903801E+02  0.21951451020E+02  0.00000000000E+00 0.  1.
         11    1    4    4    0    0 -0.46575393177E+01 -0.92549990072E+02 -0.62968420845E+02  0.11203666970E+03  0.00000000000E+00 0. -1.
</event>
<event>
 8    1  0.8619230E-006  0.1206048E+03  0.7561462E-02  0.1242103E+00
          1   -1    0    0  501    0  0.00000000000E+00  0.00000000000E+00  0.68599787889E+02  0.68599787889E+02  0.00000000000E+00 0. -1.
         -1   -1    0    0    0  501 -0.00000000000E+00 -0.00000000000E+00 -0.36658349534E+03  0.36658349534E+03  0.00000000000E+00 0.  1.
         23    2    1    2    0    0  0.11419106613E+03  0.96390117287E+01 -0.13873514089E+03  0.21915059431E+03  0.12508810311E+03 0.  0.
         23    2    1    2    0    0 -0.11419106613E+03 -0.96390117287E+01 -0.15924856657E+03  0.21603268892E+03  0.90429567054E+02 0.  0.
          5    1    3    3  502    0  0.23760406400E+02 -0.13409453087E+02  0.20606356101E+02  0.34445096257E+02  0.41800000000E+01 0. -1.
         -5    1    3    3    0  502  0.90430659728E+02  0.23048464816E+02 -0.15934149699E+03  0.18470549806E+03  0.41800000000E+01 0. -1.
        -11    1    4    4    0    0 -0.84710248491E+02  0.91975228328E+01 -0.15973942542E+03  0.18104448255E+03  0.00000000000E+00 0.  1.
         11    1    4    4    0    0 -0.29480817637E+02 -0.18836534561E+02  0.49085885656E+00  0.34988206373E+02  0.00000000000E+00 0. -1.
</event>
<event>
 8    1  0.8619230E-006  0.1110081E+03  0.7561462E-02  0.1258714E+00
         -1   -1    0    0    0  501 -0.00000000000E+00  0.00000000000E+00  0.79505537677E+02  0.79505537677E+02  0.00000000000E+00 0.  1.
          1   -1    0    0  501    0  0.00000000000E+00 -0.00000000000E+00 -0.17293032603E+03  0.17293032603E+03  0.00000000000E+00 0. -1.
         23    2    1    2    0    0 -0.19404827072E+02  0.20733652463E+02 -0.20040456938E+02  0.12982868753E+03  0.12508971393E+03 0.  0.
         23    2    1    2    0    0  0.19404827072E+02 -0.20733652463E+02 -0.73384331417E+02  0.12260717618E+03  0.94025676792E+02 0.  0.
          5    1    3    3  502    0  0.39340175000E+02 -0.28574149978E+02  0.49595119461E+01  0.49053038385E+02  0.41800000000E+01 0.  1.
         -5    1    3    3    0  502 -0.58745002072E+02  0.49307802440E+02 -0.24999968884E+02  0.80775649141E+02  0.41800000000E+01 0.  1.
        -11    1    4    4    0    0  0.52411375483E+02 -0.32142309772E+02 -0.57725803713E+02  0.84334742377E+02  0.00000000000E+00 0. -1.
         11    1    4    4    0    0 -0.33006548412E+02  0.11408657309E+02 -0.15658527705E+02  0.38272433807E+02  0.00000000000E+00 0.  1.
</event>
<event>
 8    1  0.8619230E-006  0.1058964E+03  0.7561462E-02  0.1268363E+00
          2   -1    0    0  501    0  0.00000000000E+00  0.00000000000E+00  0.20116867201E+03  0.20116867201E+03  0.00000000000E+00 0. -1.
         -2   -1    0    0    0  501 -0.00000000000E+00 -0.00000000000E+00 -0.76096446490E+02  0.76096446490E+02  0.00000000000E+00 0.  1.
         23    2    1    2    0    0  0.85798689494E+01 -0.29873080027E+02  0.11072577284E+02  0.12821720650E+03  0.12389929384E+03 0.  0.
         23    2    1    2    0    0 -0.85798689494E+01  0.29873080027E+02  0.11399964824E+03  0.14904791200E+03  0.90847923539E+02 0.  0.
          5    1    3    3  502    0  0.24818289867E+02 -0.70872114092E+02  0.28761907066E+02  0.80520331382E+02  0.41800000000E+01 0. -1.
         -5    1    3    3    0  502 -0.16238420918E+02  0.40999034065E+02 -0.17689329782E+02  0.47696875121E+02  0.41800000000E+01 0.  1.
        -11    1    4    4    0    0  0.31280680731E+02 -0.12887315102E+02  0.62825577737E+02  0.71355568077E+02  0.00000000000E+00 0. -1.
         11    1    4    4    0    0 -0.39860549681E+02  0.42760395129E+02  0.51174070500E+02  0.77692343921E+02  0.00000000000E+00 0.  1.
</event>
<event>
 8    1  0.8619230E-006  0.1129250E+03  0.7561462E-02  0.1255247E+00
         -1   -1    0    0    0  501 -0.00000000000E+00  0.00000000000E+00  0.22017391333E+03  0.22017391333E+03  0.00000000000E+00 0.  1.
          1   -1    0    0  501    0  0.00000000000E+00 -0.00000000000E+00 -0.14087666681E+03  0.14087666681E+03  0.00000000000E+00 0. -1.
         23    2    1    2    0    0 -0.94291748838E+02 -0.45353042278E+02  0.13471803391E+03  0.21152725318E+03  0.12508796039E+03 0.  0.
         23    2    1    2    0    0  0.94291748838E+02  0.45353042278E+02 -0.55420787384E+02  0.14952332695E+03  0.91312262517E+02 0.  0.
          5    1    3    3  502    0 -0.56476070393E+02 -0.25376313547E+01 -0.84622782386E+01  0.57315518430E+02  0.41800000000E+01 0.  1.
         -5    1    3    3    0  502 -0.37815678445E+02 -0.42815410924E+02  0.14318031215E+03  0.15421173475E+03  0.41800000000E+01 0.  1.
        -11    1    4    4    0    0  0.18968649467E+02 -0.69306653771E+01 -0.54183220556E+02  0.57824434066E+02  0.00000000000E+00 0. -1.
         11    1    4    4    0    0  0.75323099371E+02  0.52283707655E+02 -0.12375668272E+01  0.91698892887E+02  0.00000000000E+00 0.  1.
</event>
<event>
 8    1  0.8619230E-006  0.1842698E+03  0.7561462E-02  0.1163734E+00
          1   -1    0    0  501    0  0.00000000000E+00  0.00000000000E+00  0.53423638555E+03  0.53423638555E+03  0.00000000000E+00 0. -1.
         -1   -1    0    0    0  501 -0.00000000000E+00 -0.00000000000E+00 -0.76162106169E+02  0.76162106169E+02  0.00000000000E+00 0.  1.
         23    2    1    2    0    0 -0.11085812821E+03  0.12221913843E+03  0.19061583298E+03  0.28143911953E+03  0.12508612965E+03 0.  0.
         23    2    1    2    0    0  0.11085812821E+03 -0.12221913843E+03  0.26745844640E+03  0.32895937219E+03  0.97227596975E+02 0.  0.
          5    1    3    3  502    0  0.22987490034E+02  0.20156119499E+01  0.72972423210E+01  0.24560324410E+02  0.41800000000E+01 0. -1.
         -5    1    3    3    0  502 -0.13384561824E+03  0.12020352648E+03  0.18331859066E+03  0.25687879512E+03  0.41800000000E+01 0. -1.
        -11    1    4    4    0    0  0.87817915896E+02 -0.92658060286E+02  0.11453568785E+03  0.17151071768E+03  0.00000000000E+00 0.  1.
         11    1    4    4    0    0  0.23040212313E+02 -0.29561078141E+02  0.15292275855E+03  0.15744865451E+03  0.00000000000E+00 0. -1.
</event>
<event>
 8    1  0.8619230E-006  0.2085170E+03  0.7561462E-02  0.1142746E+00
         -2   -1    0    0    0  501 -0.00000000000E+00  0.00000000000E+00  0.26456227329E+03  0.26456227329E+03  0.00000000000E+00 0.  1.
          2   -1    0    0  501    0  0.00000000000E+00 -0.00000000000E+00 -0.19135780416E+03  0.19135780416E+03  0.00000000000E+00 0. -1.
         23    2    1    2    0    0 -0.11299603766E+03  0.16054294760E+03  0.24293439991E+02  0.23404905543E+03  0.12508655631E+03 0.  0.
         23    2    1    2    0    0  0.11299603766E+03 -0.16054294760E+03  0.48911029140E+02  0.22187102202E+03  0.91062171556E+02 0.  0.
          5    1    3    3  502    0 -0.46064542113E+02  0.12116951106E+03  0.66301917036E+02  0.14566196845E+03  0.41800000000E+01 0. -1.
         -5    1    3    3    0  502 -0.66931495543E+02  0.39373436544E+02 -0.42008477046E+02  0.88387086979E+02  0.41800000000E+01 0. -1.
        -11    1    4    4    0    0  0.80658606726E+02 -0.51178567671E+02  0.50002538263E+02  0.10782073298E+03  0.00000000000E+00 0. -1.
         11    1    4    4    0    0  0.32337430931E+02 -0.10936437993E+03 -0.10915091230E+01  0.11405028904E+03  0.00000000000E+00 0.  1.
</event>
<event>
 8    1  0.8619230E-006  0.7376677E+02  0.7561462E-02  0.1347733E+00
          2   -1    0    0  501    0  0.00000000000E+00  0.00000000000E+00  0.19619570609E+03  0.19619570609E+03  0.00000000000E+00 0. -1.
         -2   -1    0    0    0  501 -0.00000000000E+00 -0.00000000000E+00 -0.82196974526E+02  0.82196974526E+02  0.00000000000E+00 0.  1.
         23    2    1    2    0    0 -0.13203729136E+02 -0.10180453291E+02 -0.75216484959E+01  0.12641857543E+03  0.12508837246E+03 0.  0.
         23    2    1    2    0    0  0.13203729136E+02  0.10180453291E+02  0.12152038006E+03  0.15197410519E+03  0.89727062726E+02 0.  0.
          5    1    3    3  502    0 -0.35997694479E+02  0.27915534478E+02  0.40349281813E+02  0.60997114816E+02  0.41800000000E+01 0. -1.
         -5    1    3    3    0  502  0.22793965344E+02 -0.38095987769E+02 -0.47870930309E+02  0.65421460614E+02  0.41800000000E+01 0. -1.
        -11    1    4    4    0    0  0.89886911855E+01 -0.22509243060E+02 -0.18198037318E+01  0.24305848638E+02  0.00000000000E+00 0.  1.
         11    1    4    4    0    0  0.42150379501E+01  0.32689696352E+02  0.12334018380E+03  0.12766825655E+03  0.00000000000E+00 0. -1.
</event>
<event>
 8    1  0.8619230E-006  0.8415749E+02  0.7561462E-02  0.1317651E+00
         -2   -1    0    0    0  501 -0.00000000000E+00  0.00000000000E+00  0.31122280535E+02  0.31122280535E+02  0.00000000000E+00 0.  1.
          2   -1    0    0  501    0  0.00000000000E+00 -0.00000000000E+00 -0.39765607588E+03  0.39765607588E+03  0.00000000000E+00 0. -1.
         23    2    1    2    0    0  0.16325104192E+02 -0.24276032135E+02 -0.21106429100E+03  0.24689605875E+03  0.12471445036E+03 0.  0.
         23    2    1    2    0    0 -0.16325104192E+02  0.24276032135E+02 -0.15546950434E+03  0.18188229766E+03  0.89747248747E+02 0.  0.
          5    1    3    3  502    0  0.40346378749E+02 -0.28144005370E+02 -0.21612789686E+03  0.22169496051E+03  0.41800000000E+01 0.  1.
         -5    1    3    3    0  502 -0.24021274557E+02  0.38679732350E+01  0.50636058580E+01  0.25201098241E+02  0.41800000000E+01 0.  1.
        -11    1    4    4    0    0 -0.32909053623E+01 -0.34194359118E+02 -0.61437237740E+02  0.70389050532E+02  0.00000000000E+00 0.  1.
         11    1    4    4    0    0 -0.13034198830E+02  0.58470391253E+02 -0.94032266603E+02  0.11149324713E+03  0.00000000000E+00 0. -1.
</event>
<event>
 8    1  0.8619230E-006  0.7173101E+02  0.7561462E-02  0.1354304E+00
          2   -1    0    0  501    0  0.00000000000E+00  0.00000000000E+00  0.23004158407E+03  0.23004158407E+03  0.00000000000E+00 0. -1.
         -2   -1    0    0    0  501 -0.00000000000E+00 -0.00000000000E+00 -0.52771429398E+02  0.52771429398E+02  0.00000000000E+00 0.  1.
         23    2    1    2    0    0  0.18838833587E+02 -0.90612507398E+01  0.93708658521E+02  0.15768364872E+03  0.12508322220E+03 0.  0.
         23    2    1    2    0    0 -0.18838833587E+02  0.90612507398E+01  0.83561496149E+02  0.12512936475E+03  0.90762472240E+02 0.  0.
          5    1    3    3  502    0 -0.16712508009E+02 -0.20923529506E+02 -0.22678517033E+02  0.35339631375E+02  0.41800000000E+01 0.  1.
         -5    1    3    3    0  502  0.35551341595E+02  0.11862278766E+02  0.11638717555E+03  0.12234401734E+03  0.41800000000E+01 0.  1.
        -11    1    4    4    0    0  0.25235770532E+02 -0.14048599321E+02  0.66531540509E+02  0.72530360124E+02  0.00000000000E+00 0. -1.
         11    1    4    4    0    0 -0.44074604119E+02  0.23109850060E+02  0.17029955639E+02  0.52599004621E+02  0.00000000000E+00 0.  1.
</event>
<event>
 8    1  0.8619230E-006  0.1417525E+03  0.7561462E-02  0.1210990E+00
         -1   -1    0    0    0  501 -0.00000000000E+00  0.00000000000E+00  0.55668197913E+02  0.55668197913E+02  0.00000000000E+00 0.  1.
          1   -1    0    0  501    0  0.00000000000E+00 -0.00000000000E+00 -0.38898333164E+03  0.38898333164E+03  0.00000000000E+00 0. -1.
         23    2    1    2    0    0 -0.15672738964E+02  0.91301161090E+02 -0.12407082029E+03  0.19905659409E+03  0.12509365467E+03 0.  0.
         23    2    1    2    0    0  0.15672738964E+02 -0.91301161090E+02 -0.20924431343E+03  0.24559493546E+03  0.89174844306E+02 0.  0.
          5    1    3    3  502    0 -0.59300558052E+02  0.67801960823E+01 -0.56622702558E+02  0.82377970898E+02  0.41800000000E+01 0.  1.
         -5    1    3    3    0  502  0.43627819089E+02  0.84520965008E+02 -0.67448117734E+02  0.11667862319E+03  0.41800000000E+01 0.  1.
        -11    1    4    4    0    0 -0.35924268440E+02 -0.22222143181E+02 -0.73853900246E+02  0.85080992543E+02  0.00000000000E+00 0.  1.
         11    1    4    4    0    0  0.51597007404E+02 -0.69079017909E+02 -0.13539041319E+03  0.16051394292E+03  0.00000000000E+00 0. -1.
</event>
<event>
 8    1  0.8619230E-006  0.3435238E+03  0.7561462E-02  0.1065305E+00
         -2   -1    0    0    0  501 -0.00000000000E+00  0.00000000000E+00  0.59438733382E+02  0.59438733382E+02  0.00000000000E+00 0.  1.
          2   -1    0    0  501    0  0.00000000000E+00 -0.00000000000E+00 -0.21662821936E+04  0.21662821936E+04  0.00000000000E+00 0. -1.
         23    2    1    2    0    0 -0.31942075034E+03  0.10159595831E+03 -0.13061691153E+04  0.13542811322E+04  0.12509305677E+03 0.  0.
         23    2    1    2    0    0  0.31942075034E+03 -0.10159595831E+03 -0.80067434498E+03  0.87143979482E+03  0.77308180597E+02 0.  0.
          5    1    3    3  502    0 -0.32535970992E+03  0.10727779901E+03 -0.12961368118E+04  0.13406549050E+04  0.41800000000E+01 0.  1.
         -5    1    3    3    0  502  0.59389595870E+01 -0.56818406965E+01 -0.10032303468E+02  0.13626227194E+02  0.41800000000E+01 0.  1.
        -11    1    4    4    0    0  0.26051511004E+02 -0.94268335900E+01 -0.13989575594E+03  0.14261265353E+03  0.00000000000E+00 0. -1.
         11    1    4    4    0    0  0.29336923933E+03 -0.92169124725E+02 -0.66077858905E+03  0.72882714129E+03  0.00000000000E+00 0.  1.
</event>
<event>
 8    1  0.8619230E-006  0.9141693E+02  0.7561462E-02  0.1299456E+00
          2   -1    0    0  501    0  0.00000000000E+00  0.00000000000E+00  0.23657342154E+03  0.23657342154E+03  0.00000000000E+00 0. -1.
         -2   -1    0    0    0  501 -0.00000000000E+00 -0.00000000000E+00 -0.69416204533E+02  0.69416204533E+02  0.00000000000E+00 0.  1.
         23    2    1    2    0    0  0.55760355272E+02  0.17749066059E+02  0.55351987588E+02  0.14878054160E+03  0.12509020930E+03 0.  0.
         23    2    1    2    0    0 -0.55760355272E+02 -0.17749066059E+02  0.11180522942E+03  0.15720908448E+03  0.93755215053E+02 0.  0.
          5    1    3    3  502    0  0.42434704476E+01  0.23938914561E+02 -0.35998111361E+02  0.43639604643E+02  0.41800000000E+01 0. -1.
         -5    1    3    3    0  502  0.51516884824E+02 -0.61898485023E+01  0.91350098950E+02  0.10514093696E+03  0.41800000000E+01 0. -1.
        -11    1    4    4    0    0  0.79074786634E+01  0.27100725898E+02  0.51428690269E+02  0.58667603886E+02  0.00000000000E+00 0. -1.
         11    1    4    4    0    0 -0.63667833935E+02 -0.44849791957E+02  0.60376539153E+02  0.98541480589E+02  0.00000000000E+00 0.  1.
</event>
<event>
 8    1  0.8619230E-006  0.1456979E+03  0.7561462E-02  0.1205861E+00
         -1   -1    0    0    0  501 -0.00000000000E+00  0.00000000000E+00  0.66083949186E+02  0.66083949186E+02  0.00000000000E+00 0.  1.
          1   -1    0    0  501    0  0.00000000000E+00 -0.00000000000E+00 -0.42389039548E+03  0.42389039548E+03  0.00000000000E+00 0. -1.
         23    2    1    2    0    0 -0.10476074825E+03 -0.42862662431E+02 -0.10623652075E+03  0.19936459614E+03  0.12509205270E+03 0.  0.
         23    2    1    2    0    0  0.10476074825E+03  0.42862662431E+02 -0.25156992554E+03  0.29060974852E+03  0.91403371374E+02 0.  0.
          5    1    3    3  502    0 -0.49185452902E+02 -0.80102567701E+02 -0.90419959703E+02  0.13049471883E+03  0.41800000000E+01 0. -1.
         -5    1    3    3    0  502 -0.55575295345E+02  0.37239905270E+02 -0.15816561049E+02  0.68869877309E+02  0.41800000000E+01 0. -1.
        -11    1    4    4    0    0  0.70423155780E+02 -0.58627858594E+01 -0.69846680408E+02  0.99359709601E+02  0.00000000000E+00 0.  1.
         11    1    4    4    0    0  0.34337592467E+02  0.48725448291E+02 -0.18172324513E+03  0.19125003892E+03  0.00000000000E+00 0. -1.
</event>
<event>
 8    1  0.8619230E-006  0.6288462E+02  0.7561462E-02  0.1386110E+00
         -2   -1    0    0    0  501 -0.00000000000E+00  0.00000000000E+00  0.30879081691E+02  0.30879081691E+02  0.00000000000E+00 0.  1.
          2   -1    0    0  501    0  0.00000000000E+00 -0.00000000000E+00 -0.44589695936E+03  0.44589695936E+03  0.00000000000E+00 0. -1.
         23    2    1    2    0    0  0.14746125768E+02 -0.37208235255E+02 -0.20445482062E+03  0.24300538112E+03  0.12509172868E+03 0.  0.
         23    2    1    2    0    0 -0.14746125768E+02  0.37208235255E+02 -0.21056305705E+03  0.23377065993E+03  0.93327484987E+02 0.  0.
          5    1    3    3  502    0  0.12416127184E+02 -0.18255833961E+02 -0.21804393106E+03  0.21919868604E+03  0.41800000000E+01 0.  1.
         -5    1    3    3    0  502  0.23299985839E+01 -0.18952401294E+02  0.13589110441E+02  0.23806695083E+02  0.41800000000E+01 0.  1.
        -11    1    4    4    0    0 -0.40085456450E+02  0.41894618286E+02 -0.70143192905E+02  0.91005880969E+02  0.00000000000E+00 0.  1.
         11    1    4    4    0    0  0.25339330682E+02 -0.46863830311E+01 -0.14041986414E+03  0.14276477896E+03  0.00000000000E+00 0. -1.
</event>
<event>
 8    1  0.8619230E-006  0.1289846E+03  0.7561462E-02  0.1228970E+00
         -1   -1    0    0    0  501 -0.00000000000E+00  0.00000000000E+00  0.43388316467E+02  0.43388316467E+02  0.00000000000E+00 0.  1.
          1   -1    0    0  501    0  0.00000000000E+00 -0.00000000000E+00 -0.61936823103E+03  0.61936823103E+03  0.00000000000E+00 0. -1.
         23    2    1    2    0    0  0.95843454406E+02 -0.24575960730E+02 -0.16141440752E+03  0.22691875061E+03  0.12509021874E+03 0.  0.
         23    2    1    2    0    0 -0.95843454406E+02  0.24575960730E+02 -0.41456550704E+03  0.43583779689E+03  0.91104774673E+02 0.  0.
          5    1    3    3  502    0  0.66781477003E+02 -0.51377277397E+02 -0.29861845154E+02  0.89490739741E+02  0.41800000000E+01 0.  1.
         -5    1    3    3    0  502  0.29061977403E+02  0.26801316667E+02 -0.13155256237E+03  0.13742801087E+03  0.41800000000E+01 0.  1.
        -11    1    4    4    0    0 -0.10652134689E+03  0.41103778299E+02 -0.36739470060E+03  0.38472741514E+03  0.00000000000E+00 0. -1.
         11    1    4    4    0    0  0.10677892487E+02 -0.16527817569E+02 -0.47170806440E+02  0.51110381741E+02  0.00000000000E+00 0.  1.
</event>
<event>
 8    1  0.8619230E-006  0.1658457E+03  0.7561462E-02  0.1182251E+00
         -1   -1    0    0    0  501 -0.00000000000E+00  0.00000000000E+00  0.15324651988E+03  0.15324651988E+03  0.00000000000E+00 0.  1.
          1   -1    0    0  501    0  0.00000000000E+00 -0.00000000000E+00 -0.26636365184E+03  0.26636365184E+03  0.00000000000E+00 0. -1.
         23    2    1    2    0    0  0.14088423788E+03  0.42192734120E+02  0.22650305980E+02  0.19439018961E+03  0.12508362867E+03 0.  0.
         23    2    1    2    0    0 -0.14088423788E+03 -0.42192734120E+02 -0.13576743794E+03  0.22521998210E+03  0.10326009800E+03 0.  0.
          5    1    3    3  502    0  0.56803051699E+01  0.40238477049E+02 -0.28445551495E+02  0.49779741883E+02  0.41800000000E+01 0.  1.
         -5    1    3    3    0  502  0.13520393271E+03  0.19542570705E+01  0.51095857475E+02  0.14461044773E+03  0.41800000000E+01 0.  1.
        -11    1    4    4    0    0 -0.69527218665E+02 -0.47183391132E+02 -0.12820945018E+03  0.15329047475E+03  0.00000000000E+00 0. -1.
         11    1    4    4    0    0 -0.71357019215E+02  0.49906570115E+01 -0.75579877581E+01  0.71929507350E+02  0.00000000000E+00 0.  1.
</event>
<event>
 8    1  0.8619230E-006  0.1314182E+03  0.7561462E-02  0.1225366E+00
         -2   -1    0    0    0  501 -0.00000000000E+00  0.00000000000E+00  0.11832701041E+03  0.11832701041E+03  0.00000000000E+00 0.  1.
          2   -1    0    0  501    0  0.00000000000E+00 -0.00000000000E+00 -0.22443500406E+03  0.22443500406E+03  0.00000000000E+00 0. -1.
         23    2    1    2    0    0 -0.82121972369E+02 -0.72709390033E+02 -0.27749455555E+01  0.16638894130E+03  0.12508759219E+03 0.  0.
         23    2    1    2    0    0  0.82121972369E+02  0.72709390033E+02 -0.10333304810E+03  0.17637307318E+03  0.91646431288E+02 0.  0.
          5    1    3    3  502    0  0.18943407288E+02  0.96878662278E+01  0.24903540032E+02  0.33020692571E+02  0.41800000000E+01 0.  1.
         -5    1    3    3    0  502 -0.10106537966E+03 -0.82397256261E+02 -0.27678485588E+02  0.13336824873E+03  0.41800000000E+01 0.  1.
        -11    1    4    4    0    0  0.13176759239E+02  0.19788410486E+02 -0.84047129079E+02  0.87344880102E+02  0.00000000000E+00 0. -1.
         11    1    4    4    0    0  0.68945213129E+02  0.52920979547E+02 -0.19285919019E+02  0.89028193074E+02  0.00000000000E+00 0.  1.
</event>
<event>
 8    1  0.8619230E-006  0.1125546E+03  0.7561462E-02  0.1255911E+00
         -1   -1    0    0    0  501 -0.00000000000E+00  0.00000000000E+00  0.54180681040E+02  0.54180681040E+02  0.00000000000E+00 0.  1.
          1   -1    0    0  501    0  0.00000000000E+00 -0.00000000000E+00 -0.32798645940E+03  0.32798645940E+03  0.00000000000E+00 0. -1.
         23    2    1    2    0    0 -0.20856727830E+02 -0.73604720047E+02 -0.15383212240E+03  0.21252005441E+03  0.12509114171E+03 0.  0.
         23    2    1    2    0    0  0.20856727830E+02  0.73604720047E+02 -0.11997365596E+03  0.16964708604E+03  0.92378556859E+02 0.  0.
          5    1    3    3  502    0  0.35596830717E+02 -0.34636414230E+02 -0.13090429718E+03  0.14007220627E+03  0.41800000000E+01 0.  1.
         -5    1    3    3    0  502 -0.56453558547E+02 -0.38968305817E+02 -0.22927825223E+02  0.72447848142E+02  0.41800000000E+01 0.  1.
        -11    1    4    4    0    0  0.46732613601E+02  0.63319184529E+02 -0.47291535302E+02  0.91813646123E+02  0.00000000000E+00 0.  1.
         11    1    4    4    0    0 -0.25875885770E+02  0.10285535518E+02 -0.72682120659E+02  0.77833439913E+02  0.00000000000E+00 0. -1.
</event>
<event>
 8    1  0.8619230E-006  0.9844290E+02  0.7561462E-02  0.1283605E+00
         -2   -1    0    0    0  501 -0.00000000000E+00  0.00000000000E+00  0.80310571166E+02  0.80310571166E+02  0.00000000000E+00 0.  1.
          2   -1    0    0  501    0  0.00000000000E+00 -0.00000000000E+00 -0.15022247044E+03  0.15022247044E+03  0.00000000000E+00 0. -1.
         23    2    1    2    0    0  0.73532605039E+01 -0.11619676587E+01 -0.20433041386E+02  0.12696913635E+03  0.12509289267E+03 0.  0.
         23    2    1    2    0    0 -0.73532605039E+01  0.11619676587E+01 -0.49478857890E+02  0.10356390526E+03  0.90674718008E+02 0.  0.
          5    1    3    3  502    0  0.10449029586E+02  0.59454913825E+02  0.56503885829E+01  0.60773911248E+02  0.41800000000E+01 0.  1.
         -5    1    3    3    0  502 -0.30957690817E+01 -0.60616881484E+02 -0.26083429969E+02  0.66195225100E+02  0.41800000000E+01 0.  1.
        -11    1    4    4    0    0 -0.10182756119E+02  0.37616975671E+02  0.35704851671E+01  0.39134048413E+02  0.00000000000E+00 0.  1.
         11    1    4    4    0    0  0.28294956155E+01 -0.36455008012E+02 -0.53049343057E+02  0.64429856847E+02  0.00000000000E+00 0. -1.
</event>
<event>
 8    1  0.8619230E-006  0.1930602E+03  0.7561462E-02  0.1155730E+00
         -1   -1    0    0    0  501 -0.00000000000E+00  0.00000000000E+00  0.60717438673E+02  0.60717438673E+02  0.00000000000E+00 0.  1.
          1   -1    0    0  501    0  0.00000000000E+00 -0.00000000000E+00 -0.74354585256E+03  0.74354585256E+03  0.00000000000E+00 0. -1.
         23    2    1    2    0    0 -0.15309306249E+03 -0.99009546261E+02 -0.31553902601E+03  0.38529283907E+03  0.12508124907E+03 0.  0.
         23    2    1    2    0    0  0.15309306249E+03  0.99009546261E+02 -0.36728938789E+03  0.41897045217E+03  0.85990518693E+02 0.  0.
          5    1    3    3  502    0 -0.11011824851E+03 -0.87497881577E+02 -0.30977711819E+03  0.34023703985E+03  0.41800000000E+01 0. -1.
         -5    1    3    3    0  502 -0.42974813987E+02 -0.11511664684E+02 -0.57619078166E+01  0.45055799213E+02  0.41800000000E+01 0. -1.
        -11    1    4    4    0    0  0.11127678346E+03  0.11105029734E+03 -0.27085516482E+03  0.31317281393E+03  0.00000000000E+00 0. -1.
         11    1    4    4    0    0  0.41816279030E+02 -0.12040751080E+02 -0.96434223065E+02  0.10579763824E+03  0.00000000000E+00 0.  1.
</event>
<event>
 8    1  0.8619230E-006  0.1934464E+03  0.7561462E-02  0.1155389E+00
          1   -1    0    0  501    0  0.00000000000E+00  0.00000000000E+00  0.65615999020E+02  0.65615999020E+02  0.00000000000E+00 0. -1.
         -1   -1    0    0    0  501 -0.00000000000E+00 -0.00000000000E+00 -0.77721880337E+03  0.77721880337E+03  0.00000000000E+00 0.  1.
         23    2    1    2    0    0  0.15632354859E+03 -0.45393564639E+02 -0.57658450572E+03  0.61204026669E+03  0.12508384492E+03 0.  0.
         23    2    1    2    0    0 -0.15632354859E+03  0.45393564639E+02 -0.13501829863E+03  0.23079453570E+03  0.92404270408E+02 0.  0.
          5    1    3    3  502    0  0.10787833030E+03 -0.85114498165E+02 -0.32792239622E+03  0.35557387740E+03  0.41800000000E+01 0. -1.
         -5    1    3    3    0  502  0.48445218286E+02  0.39720933526E+02 -0.24866210950E+03  0.25646638930E+03  0.41800000000E+01 0. -1.
        -11    1    4    4    0    0  0.70042925884E+01 -0.11678463181E+02 -0.14822270962E+02  0.20128247152E+02  0.00000000000E+00 0.  1.
         11    1    4    4    0    0 -0.16332784117E+03  0.57072027820E+02 -0.12019602766E+03  0.21066628854E+03  0.00000000000E+00 0. -1.
</event>
<event>
 8    1  0.1055454E-005  0.8040085E+02  0.7561462E-02  0.1327918E+00
         -2   -1    0    0    0  501 -0.00000000000E+00  0.00000000000E+00  0.14164578419E+02  0.14164578419E+02  0.00000000000E+00 0.  1.
          2   -1    0    0  501    0  0.00000000000E+00 -0.00000000000E+00 -0.68739839510E+03  0.68739839510E+03  0.00000000000E+00 0. -1.
         23    2    1    2    0    0 -0.12703090469E+02 -0.22320537523E+01 -0.38524274049E+03  0.40524736920E+03  0.12508841103E+03 0.  0.
         23    2    1    2    0    0  0.12703090469E+02  0.22320537523E+01 -0.28799107619E+03  0.29631560432E+03  0.68539965157E+02 0.  0.
          5    1    3    3  502    0  0.28430878354E+02  0.29649058128E+02 -0.45200851631E+02  0.61220673633E+02  0.41800000000E+01 0.  1.
         -5    1    3    3    0  502 -0.41133968823E+02 -0.31881111881E+02 -0.34004188886E+03  0.34402669557E+03  0.41800000000E+01 0.  1.
        -11    1    4    4    0    0  0.38321985947E+02  0.11575875846E+02 -0.13122457650E+03  0.13719498892E+03  0.00000000000E+00 0.  1.
         11    1    4    4    0    0 -0.25618895478E+02 -0.93438220933E+01 -0.15676649969E+03  0.15912061539E+03  0.00000000000E+00 0. -1.
</event>
<event>
 8    1  0.8619230E-006  0.1665946E+03  0.7561462E-02  0.1181446E+00
          2   -1    0    0  501    0  0.00000000000E+00  0.00000000000E+00  0.76653117886E+03  0.76653117886E+03  0.00000000000E+00 0. -1.
         -2   -1    0    0    0  501 -0.00000000000E+00 -0.00000000000E+00 -0.46236266522E+02  0.46236266522E+02  0.00000000000E+00 0.  1.
         23    2    1    2    0    0  0.20197227263E+02 -0.14303541848E+03  0.26665669774E+03  0.32805585667E+03  0.12509113364E+03 0.  0.
         23    2    1    2    0    0 -0.20197227263E+02  0.14303541848E+03  0.45363821459E+03  0.48471158871E+03  0.91052927253E+02 0.  0.
          5    1    3    3  502    0  0.71156888999E+02 -0.93214604159E+02  0.14008108297E+03  0.18273600490E+03  0.41800000000E+01 0.  1.
         -5    1    3    3    0  502 -0.50959661736E+02 -0.49820814320E+02  0.12657561477E+03  0.14531985177E+03  0.41800000000E+01 0.  1.
        -11    1    4    4    0    0 -0.66033576275E+01  0.48374978354E+02  0.49939642769E+02  0.69840609838E+02  0.00000000000E+00 0.  1.
         11    1    4    4    0    0 -0.13593869636E+02  0.94660440124E+02  0.40369857182E+03  0.41487097887E+03  0.00000000000E+00 0. -1.
</event>
<event>
 8    1  0.8619230E-006  0.2081105E+03  0.7561462E-02  0.1143071E+00
          2   -1    0    0  501    0  0.00000000000E+00  0.00000000000E+00  0.75765036981E+03  0.75765036981E+03  0.00000000000E+00 0. -1.
         -2   -1    0    0    0  501 -0.00000000000E+00 -0.00000000000E+00 -0.59784953631E+02  0.59784953631E+02  0.00000000000E+00 0.  1.
         23    2    1    2    0    0 -0.91648588449E+02  0.15786747657E+03  0.37089567146E+03  0.43189507897E+03  0.12509259053E+03 0.  0.
         23    2    1    2    0    0  0.91648588449E+02 -0.15786747657E+03  0.32696974472E+03  0.38554024447E+03  0.91708572258E+02 0.  0.
          5    1    3    3  502    0 -0.61033185129E+02  0.17055378511E+03  0.26631686571E+03  0.32211145379E+03  0.41800000000E+01 0.  1.
         -5    1    3    3    0  502 -0.30615403320E+02 -0.12686308541E+02  0.10457880575E+03  0.10978362518E+03  0.41800000000E+01 0.  1.
        -11    1    4    4    0    0  0.67419278247E+02 -0.34183582251E+02  0.93597604381E+02  0.12030955041E+03  0.00000000000E+00 0.  1.
         11    1    4    4    0    0  0.24229310202E+02 -0.12368389432E+03  0.23337214034E+03  0.26523069406E+03  0.00000000000E+00 0. -1.
</event>
<event>
 8    1  0.8619230E-006  0.1165216E+03  0.7561462E-02  0.1248948E+00
          3   -1    0    0  501    0  0.00000000000E+00  0.00000000000E+00  0.22566052646E+03  0.22566052646E+03  0.00000000000E+00 0. -1.
         -3   -1    0    0    0  501 -0.00000000000E+00 -0.00000000000E+00 -0.86079698746E+02  0.86079698746E+02  0.00000000000E+00 0.  1.
         23    2    1    2    0    0  0.68147921102E+02  0.51690139336E+02  0.50868937050E+02  0.15984782496E+03  0.12509064207E+03 0.  0.
         23    2    1    2    0    0 -0.68147921102E+02 -0.51690139336E+02  0.88711890665E+02  0.15189240025E+03  0.88800293089E+02 0.  0.
          5    1    3    3  502    0 -0.25319337006E+02  0.38266909057E+02  0.46147751864E+02  0.65211291640E+02  0.41800000000E+01 0. -1.
         -5    1    3    3    0  502  0.93467258108E+02  0.13423230279E+02  0.47211851866E+01  0.94636533320E+02  0.41800000000E+01 0. -1.
        -11    1    4    4    0    0 -0.35067355303E+02 -0.52894460069E+01 -0.10926674757E+02  0.37109161514E+02  0.00000000000E+00 0. -1.
         11    1    4    4    0    0 -0.33080565799E+02 -0.46400693329E+02  0.99638565422E+02  0.11478323873E+03  0.00000000000E+00 0.  1.
</event>
<event>
 8    1  0.8619230E-006  0.1032357E+03  0.7561462E-02  0.1273635E+00
          2   -1    0    0  501    0  0.00000000000E+00  0.00000000000E+00  0.16216600964E+03  0.16216600964E+03  0.00000000000E+00 0. -1.
         -2   -1    0    0    0  501 -0.00000000000E+00 -0.00000000000E+00 -0.23415231409E+03  0.23415231409E+03  0.00000000000E+00 0.  1.
         23    2    1    2    0    0  0.65360886125E+02 -0.35390763751E+02 -0.18340782324E+03  0.23411734881E+03  0.12509177349E+03 0.  0.
         23    2    1    2    0    0 -0.65360886125E+02  0.35390763751E+02  0.11142151878E+03  0.16220097492E+03  0.91486883346E+02 0.  0.
          5    1    3    3  502    0  0.92621184424E+02 -0.26739178730E+02 -0.18099775146E+03  0.20511295892E+03  0.41800000000E+01 0. -1.
         -5    1    3    3    0  502 -0.27260298299E+02 -0.86515850205E+01 -0.24100717762E+01  0.29004389886E+02  0.41800000000E+01 0. -1.
        -11    1    4    4    0    0 -0.50639872276E+02  0.41164346432E+02  0.12522579973E+03  0.14121048474E+03  0.00000000000E+00 0. -1.
         11    1    4    4    0    0 -0.14721013849E+02 -0.57735826808E+01 -0.13804280950E+02  0.20990490186E+02  0.00000000000E+00 0.  1.
</event>
<event>
 8    1  0.8619230E-006  0.1352967E+03  0.7561462E-02  0.1219801E+00
          2   -1    0    0  501    0  0.00000000000E+00  0.00000000000E+00  0.14556486324E+03  0.14556486324E+03  0.00000000000E+00 0. -1.
         -2   -1    0    0    0  501 -0.00000000000E+00 -0.00000000000E+00 -0.15150275946E+03  0.15150275946E+03  0.00000000000E+00 0.  1.
         23    2    1    2    0    0 -0.91998874094E+02  0.42194368625E+02 -0.29803763348E+02  0.16363338507E+03  0.12507382948E+03 0.  0.
         23    2    1    2    0    0  0.91998874094E+02 -0.42194368625E+02  0.23865867127E+02  0.13343423763E+03  0.83611952370E+02 0.  0.
          5    1    3    3  502    0 -0.62437295406E+02 -0.38719631732E+02 -0.43787968324E+01  0.73717514885E+02  0.41800000000E+01 0. -1.
         -5    1    3    3    0  502 -0.29561578688E+02  0.80914000357E+02 -0.25424966516E+02  0.89915870182E+02  0.41800000000E+01 0. -1.
        -11    1    4    4    0    0  0.13038748323E+02  0.97191661836E+01  0.34696280941E+02  0.38318442821E+02  0.00000000000E+00 0. -1.
         11    1    4    4    0    0  0.78960125771E+02 -0.51913534809E+02 -0.10830413814E+02  0.95115794805E+02  0.00000000000E+00 0.  1.
</event>
<event>
 8    1  0.9519514E-006  0.1242705E+03  0.7561462E-02  0.1236214E+00
          1   -1    0    0  501    0  0.00000000000E+00  0.00000000000E+00  0.12931861292E+03  0.12931861292E+03  0.00000000000E+00 0. -1.
         -1   -1    0    0    0  501 -0.00000000000E+00 -0.00000000000E+00 -0.21635491400E+03  0.21635491400E+03  0.00000000000E+00 0.  1.
         23    2    1    2    0    0  0.42602108393E+02  0.96396383294E+02 -0.12017467626E+03  0.20296994720E+03  0.12509054441E+03 0.  0.
         23    2    1    2    0    0 -0.42602108393E+02 -0.96396383294E+02  0.33138375185E+02  0.14270357972E+03  0.90326947274E+02 0.  0.
          5    1    3    3  502    0  0.73524639837E+02  0.75341111964E+02 -0.12668434239E+03  0.16476817296E+03  0.41800000000E+01 0.  1.
         -5    1    3    3    0  502 -0.30922531445E+02  0.21055271330E+02  0.65096661270E+01  0.38201774237E+02  0.41800000000E+01 0.  1.
        -11    1    4    4    0    0 -0.22645437411E+02 -0.44235580093E+02  0.62306244453E+02  0.79697368084E+02  0.00000000000E+00 0. -1.
         11    1    4    4    0    0 -0.19956670982E+02 -0.52160803201E+02 -0.29167869268E+02  0.63006211637E+02  0.00000000000E+00 0.  1.
</event>
<event>
 8    1  0.8619230E-006  0.1045552E+03  0.7561462E-02  0.1270999E+00
         -2   -1    0    0    0  501 -0.00000000000E+00  0.00000000000E+00  0.51847690741E+02  0.51847690741E+02  0.00000000000E+00 0.  1.
          2   -1    0    0  501    0  0.00000000000E+00 -0.00000000000E+00 -0.32497199761E+03  0.32497199761E+03  0.00000000000E+00 0. -1.
         23    2    1    2    0    0  0.29748667212E+02 -0.57447143850E+02 -0.10835228349E+03  0.17768688765E+03  0.12508898900E+03 0.  0.
         23    2    1    2    0    0 -0.29748667212E+02  0.57447143850E+02 -0.16477202338E+03  0.19913280070E+03  0.91207977108E+02 0.  0.
          5    1    3    3  502    0  0.13365554904E+02  0.19591826319E+02  0.17075386771E+02  0.29521499789E+02  0.41800000000E+01 0. -1.
         -5    1    3    3    0  502  0.16383112308E+02 -0.77038970169E+02 -0.12542767026E+03  0.14816538786E+03  0.41800000000E+01 0. -1.
        -11    1    4    4    0    0 -0.18631849152E+02  0.79395553532E+02 -0.14914759939E+03  0.16998766463E+03  0.00000000000E+00 0. -1.
         11    1    4    4    0    0 -0.11116818060E+02 -0.21948409682E+02 -0.15624423992E+02  0.29145136068E+02  0.00000000000E+00 0.  1.
</event>
<event>
 7    1  0.8619230E-006  0.1428918E+03  0.7561462E-02  0.1209490E+00
          1   -1    0    0  501    0  0.00000000000E+00  0.00000000000E+00  0.95735689639E+03  0.95735689639E+03  0.00000000000E+00 0. -1.
         -1   -1    0    0    0  501 -0.00000000000E+00 -0.00000000000E+00 -0.80651711874E+02  0.80651711874E+02  0.00000000000E+00 0.  1.
         23    2    1    2    0    0 -0.21117521540E+02 -0.74749135068E+01  0.35087520492E+03  0.36390941906E+03  0.93887335721E+02 0.  0.
          5    1    1    2  502    0 -0.66643967593E+02 -0.55254248501E+02  0.55543572397E+03  0.56215724335E+03  0.41800000000E+01 0. -1.
         -5    1    1    2    0  502  0.87761489133E+02  0.62729162007E+02 -0.29605744368E+02  0.11194194585E+03  0.41800000000E+01 0.  1.
        -11    1    3    3    0    0 -0.31616397804E+02  0.35138541676E+02  0.24103003272E+03  0.24562123360E+03  0.00000000000E+00 0. -1.
         11    1    3    3    0    0  0.10498876264E+02 -0.42613455183E+02  0.10984517220E+03  0.11828818546E+03  0.00000000000E+00 0.  1.
</event>
<event>
 8    1  0.8619230E-006  0.2692177E+03  0.7561462E-02  0.1101728E+00
         -2   -1    0    0    0  501 -0.00000000000E+00  0.00000000000E+00  0.19470184358E+03  0.19470184358E+03  0.00000000000E+00 0.  1.
          2   -1    0    0  501    0  0.00000000000E+00 -0.00000000000E+00 -0.47403962714E+03  0.47403962714E+03  0.00000000000E+00 0. -1.
         23    2    1    2    0    0  0.23070255166E+03 -0.95672413780E+02  0.50369088166E+01  0.27937326957E+03  0.12508866934E+03 0.  0.
         23    2    1    2    0    0 -0.23070255166E+03  0.95672413780E+02 -0.28437469237E+03  0.38936820114E+03  0.91442617496E+02 0.  0.
          5    1    3    3  502    0  0.82825224176E+01  0.21924454030E+02  0.13938432558E+02  0.27586847669E+02  0.41800000000E+01 0.  1.
         -5    1    3    3    0  502  0.22242002925E+03 -0.11759686781E+03 -0.89015237419E+01  0.25178642190E+03  0.41800000000E+01 0.  1.
        -11    1    4    4    0    0 -0.67615774546E+02  0.71020840447E+02 -0.78763303632E+02  0.12577563653E+03  0.00000000000E+00 0.  1.
         11    1    4    4    0    0 -0.16308677712E+03  0.24651573333E+02 -0.20561138874E+03  0.26359256461E+03  0.00000000000E+00 0. -1.
</event>
<event>
 8    1  0.8619230E-006  0.1263922E+03  0.7561462E-02  0.1232909E+00
          2   -1    0    0  501    0  0.00000000000E+00  0.00000000000E+00  0.65272991809E+02  0.65272991809E+02  0.00000000000E+00 0. -1.
         -2   -1    0    0    0  501 -0.00000000000E+00 -0.00000000000E+00 -0.31405295357E+03  0.31405295357E+03  0.00000000000E+00 0.  1.
         23    2    1    2    0    0  0.91415186975E+02 -0.15146558434E+02 -0.14275110147E+03  0.21126598322E+03  0.12517701088E+03 0.  0.
         23    2    1    2    0    0 -0.91415186975E+02  0.15146558434E+02 -0.10602886029E+03  0.16805996216E+03  0.91738089281E+02 0.  0.
          5    1    3    3  502    0  0.86738736353E+02  0.25788642390E+02 -0.14366792178E+03  0.16984288801E+03  0.41800000000E+01 0.  1.
         -5    1    3    3    0  502  0.46764506227E+01 -0.40935200824E+02  0.91682030742E+00  0.41423095205E+02  0.41800000000E+01 0.  1.
        -11    1    4    4    0    0 -0.30964080751E+02 -0.31694152527E+02 -0.71580279674E+02  0.84184499995E+02  0.00000000000E+00 0.  1.
         11    1    4    4    0    0 -0.60451106225E+02  0.46840710961E+02 -0.34448580616E+02  0.83875462166E+02  0.00000000000E+00 0. -1.
</event>
<event>
 8    1  0.8619230E-006  0.1420270E+03  0.7561462E-02  0.1210627E+00
         -2   -1    0    0    0  501 -0.00000000000E+00  0.00000000000E+00  0.29874026699E+02  0.29874026699E+02  0.00000000000E+00 0.  1.
          2   -1    0    0  501    0  0.00000000000E+00 -0.00000000000E+00 -0.10704272466E+04  0.10704272466E+04  0.00000000000E+00 0. -1.
         23    2    1    2    0    0 -0.53842732596E+02  0.11254734061E+03 -0.32793028408E+03  0.37108488287E+03  0.12082953010E+03 0.  0.
         23    2    1    2    0    0  0.53842732596E+02 -0.11254734061E+03 -0.71262293577E+03  0.72921639038E+03  0.91428396497E+02 0.  0.
          5    1    3    3  502    0 -0.12728245259E+02  0.39609596547E+01  0.76733093194E+01  0.15938930474E+02  0.41800000000E+01 0. -1.
         -5    1    3    3    0  502 -0.41114487337E+02  0.10858638095E+03 -0.33560359340E+03  0.35514595240E+03  0.41800000000E+01 0.  1.
        -11    1    4    4    0    0 -0.26488501926E+01 -0.94582731250E+02 -0.40174625245E+03  0.41273836848E+03  0.00000000000E+00 0.  1.
         11    1    4    4    0    0  0.56491582789E+02 -0.17964609358E+02 -0.31087668332E+03  0.31647802190E+03  0.00000000000E+00 0. -1.
</event>
<event>
 8    1  0.8619230E-006  0.1707860E+03  0.7561462E-02  0.1177031E+00
         -1   -1    0    0    0  501 -0.00000000000E+00  0.00000000000E+00  0.60219523455E+02  0.60219523455E+02  0.00000000000E+00 0.  1.
          1   -1    0    0  501    0  0.00000000000E+00 -0.00000000000E+00 -0.65133380562E+03  0.65133380562E+03  0.00000000000E+00 0. -1.
         23    2    1    2    0    0  0.12724963016E+03  0.52315469739E+02 -0.14503103474E+03  0.23583529102E+03  0.12511956963E+03 0.  0.
         23    2    1    2    0    0 -0.12724963016E+03 -0.52315469739E+02 -0.44608324743E+03  0.47571803805E+03  0.91586087057E+02 0.  0.
          5    1    3    3  502    0  0.89819914148E+02  0.88369006013E+02 -0.69215240073E+02  0.14382252974E+03  0.41800000000E+01 0. -1.
         -5    1    3    3    0  502  0.37429716015E+02 -0.36053536274E+02 -0.75815794666E+02  0.92012761287E+02  0.41800000000E+01 0. -1.
        -11    1    4    4    0    0 -0.77488609388E+01 -0.42786302737E+02 -0.15317440647E+03  0.15922660376E+03  0.00000000000E+00 0.  1.
         11    1    4    4    0    0 -0.11950076922E+03 -0.95291670017E+01 -0.29290884096E+03  0.31649143429E+03  0.00000000000E+00 0. -1.
</event>
<event>
 8    1  0.8619230E-006  0.1360995E+03  0.7561462E-02  0.1218676E+00
          3   -1    0    0  501    0  0.00000000000E+00  0.00000000000E+00  0.19288226898E+03  0.19288226898E+03  0.00000000000E+00 0. -1.
         -3   -1    0    0    0  501 -0.00000000000E+00 -0.00000000000E+00 -0.18976722943E+03  0.18976722943E+03  0.00000000000E+00 0.  1.
         23    2    1    2    0    0  0.11688822587E+03 -0.69218128046E+01 -0.10416080244E+03  0.20051776204E+03  0.12508849382E+03 0.  0.
         23    2    1    2    0    0 -0.11688822587E+03  0.69218128046E+01  0.10727584200E+03  0.18213173637E+03  0.89180122659E+02 0.  0.
          5    1    3    3  502    0  0.11846882085E+02 -0.15470490846E+02 -0.92247448516E+02  0.94375573428E+02  0.41800000000E+01 0.  1.
         -5    1    3    3    0  502  0.10504134379E+03  0.85486780414E+01 -0.11913353925E+02  0.10614218861E+03  0.41800000000E+01 0.  1.
        -11    1    4    4    0    0 -0.14838905316E+02 -0.33808349507E+02  0.21384198460E+02  0.42667101509E+02  0.00000000000E+00 0.  1.
         11    1    4    4    0    0 -0.10204932056E+03  0.40730162312E+02  0.85891643538E+02  0.13946463486E+03  0.00000000000E+00 0. -1.
</event>
<event>
 8    1  0.8619230E-006  0.8867624E+02  0.7561462E-02  0.1306089E+00
          2   -1    0    0  501    0  0.00000000000E+00  0.00000000000E+00  0.47190351530E+02  0.47190351530E+02  0.00000000000E+00 0. -1.
         -2   -1    0    0    0  501 -0.00000000000E+00 -0.00000000000E+00 -0.39301242811E+03  0.39301242811E+03  0.00000000000E+00 0.  1.
         23    2    1    2    0    0 -0.75114113277E+01  0.81643209536E+02 -0.18833963128E+03  0.24052443032E+03  0.12513252937E+03 0.  0.
         23    2    1    2    0    0  0.75114113277E+01 -0.81643209536E+02 -0.15748244530E+03  0.19967834932E+03  0.91371153253E+02 0.  0.
          5    1    3    3  502    0 -0.16451343230E+01  0.34473835270E+02 -0.18963032639E+03  0.19279078005E+03  0.41800000000E+01 0. -1.
         -5    1    3    3    0  502 -0.58662770048E+01  0.47169374266E+02  0.12906951051E+01  0.47733650273E+02  0.41800000000E+01 0. -1.
        -11    1    4    4    0    0  0.27900273307E+02 -0.48857436739E+02 -0.24787574140E+02  0.61480876759E+02  0.00000000000E+00 0. -1.
         11    1    4    4    0    0 -0.20388861979E+02 -0.32785772797E+02 -0.13269487116E+03  0.13819747256E+03  0.00000000000E+00 0.  1.
</event>
<event>
 7    1  0.8619230E-006  0.1231057E+03  0.7561462E-02  0.1238060E+00
          3   -1    0    0  501    0  0.00000000000E+00  0.00000000000E+00  0.36801127650E+02  0.36801127650E+02  0.00000000000E+00 0. -1.
         -3   -1    0    0    0  501 -0.00000000000E+00 -0.00000000000E+00 -0.45570723210E+03  0.45570723210E+03  0.00000000000E+00 0.  1.
         23    2    1    2    0    0 -0.51313440855E+02  0.30354627962E+02 -0.14860741193E+03  0.18625443165E+03  0.95142407885E+02 0.  0.
          5    1    1    2  502    0  0.90500927434E+02 -0.44957501043E+02 -0.17551048418E+03  0.20256603176E+03  0.41800000000E+01 0. -1.
         -5    1    1    2    0  502 -0.39187486579E+02  0.14602873082E+02 -0.94788208349E+02  0.10368789635E+03  0.41800000000E+01 0.  1.
        -11    1    3    3    0    0 -0.50662796585E+02  0.57074497216E+02 -0.13760421535E+03  0.15735036471E+03  0.00000000000E+00 0.  1.
         11    1    3    3    0    0 -0.65064426948E+00 -0.26719869254E+02 -0.11003196572E+02  0.28904066941E+02  0.00000000000E+00 0. -1.
</event>
<event>
 8    1  0.8619230E-006  0.7724859E+02  0.7561462E-02  0.1337046E+00
         -2   -1    0    0    0  501 -0.00000000000E+00  0.00000000000E+00  0.19295579735E+03  0.19295579735E+03  0.00000000000E+00 0. -1.
          2   -1    0    0  501    0  0.00000000000E+00 -0.00000000000E+00 -0.11509749280E+03  0.11509749280E+03  0.00000000000E+00 0.  1.
         23    2    1    2    0    0 -0.38191493214E+02 -0.18367136669E+00  0.13962180480E+03  0.19131234804E+03  0.12509013649E+03 0.  0.
         23    2    1    2    0    0  0.38191493214E+02  0.18367136669E+00 -0.61763500254E+02  0.11674094211E+03  0.91406201711E+02 0.  0.
          5    1    3    3  502    0  0.36309811375E+02  0.11733483995E+02  0.97537505365E+02  0.10481943714E+03  0.41800000000E+01 0.  1.
         -5    1    3    3    0  502 -0.74501304590E+02 -0.11917155361E+02  0.42084299436E+02  0.86492910903E+02  0.41800000000E+01 0.  1.
        -11    1    4    4    0    0  0.20107607671E+02 -0.67030068193E+01 -0.84365284542E+02  0.86987053189E+02  0.00000000000E+00 0.  1.
         11    1    4    4    0    0  0.18083885543E+02  0.68866781859E+01  0.22601784288E+02  0.29753888918E+02  0.00000000000E+00 0. -1.
</event>
<event>
 7    1  0.8619230E-006  0.2696555E+03  0.7561462E-02  0.1101477E+00
          2   -1    0    0  501    0  0.00000000000E+00  0.00000000000E+00  0.10614187712E+03  0.10614187712E+03  0.00000000000E+00 0. -1.
         -2   -1    0    0    0  501 -0.00000000000E+00 -0.00000000000E+00 -0.11003425702E+04  0.11003425702E+04  0.00000000000E+00 0.  1.
         23    2    1    2    0    0  0.21914115017E+03  0.15230546107E+03 -0.80572757217E+03  0.85356660563E+03  0.90328470176E+02 0.  0.
          5    1    1    2  502    0 -0.98291528354E+02 -0.96079920171E+02 -0.21430825121E+02  0.13917373413E+03  0.41800000000E+01 0. -1.
         -5    1    1    2    0  502 -0.12084962181E+03 -0.56225540902E+02 -0.16704229584E+03  0.21374410762E+03  0.41800000000E+01 0.  1.
        -11    1    3    3    0    0  0.13605560096E+03  0.11134555262E+03 -0.39237856076E+03  0.42996499111E+03  0.00000000000E+00 0. -1.
         11    1    3    3    0    0  0.83085549211E+02  0.40959908456E+02 -0.41334901140E+03  0.42360161451E+03  0.00000000000E+00 0.  1.
</event>
<event>
 8    1  0.8619230E-006  0.1058972E+03  0.7561462E-02  0.1268362E+00
         -3   -1    0    0    0  501 -0.00000000000E+00  0.00000000000E+00  0.24136586582E+02  0.24136586582E+02  0.00000000000E+00 0.  1.
          3   -1    0    0  501    0  0.00000000000E+00 -0.00000000000E+00 -0.56215039152E+03  0.56215039152E+03  0.00000000000E+00 0. -1.
         23    2    1    2    0    0  0.66913520908E+01 -0.86890700932E+01 -0.20465973705E+03  0.24014524903E+03  0.12515533760E+03 0.  0.
         23    2    1    2    0    0 -0.66913520908E+01  0.86890700932E+01 -0.33335406788E+03  0.34614172907E+03  0.92568287747E+02 0.  0.
          5    1    3    3  502    0  0.26579209558E+02 -0.58715264691E+02 -0.70950070898E+02  0.95944367468E+02  0.41800000000E+01 0.  1.
         -5    1    3    3    0  502 -0.19887857467E+02  0.50026194598E+02 -0.13370966616E+03  0.14420088157E+03  0.41800000000E+01 0.  1.
        -11    1    4    4    0    0 -0.45753697357E+02 -0.14238021462E+02 -0.16974313987E+03  0.17637702688E+03  0.00000000000E+00 0. -1.
         11    1    4    4    0    0  0.39062345266E+02  0.22927091555E+02 -0.16361092801E+03  0.16976470219E+03  0.00000000000E+00 0.  1.
</event>
<event>
 8    1  0.8619230E-006  0.1199623E+03  0.7561462E-02  0.1243159E+00
         -4   -1    0    0    0  501 -0.00000000000E+00  0.00000000000E+00  0.56209017800E+02  0.56209017800E+02  0.00000000000E+00 0.  1.
          4   -1    0    0  501    0  0.00000000000E+00 -0.00000000000E+00 -0.28190499906E+03  0.28190499906E+03  0.00000000000E+00 0. -1.
         23    2    1    2    0    0  0.57531972545E+02 -0.14122294115E+02 -0.86267982692E+02  0.16309318920E+03  0.12509139247E+03 0.  0.
         23    2    1    2    0    0 -0.57531972545E+02  0.14122294115E+02 -0.13942799857E+03  0.17502082765E+03  0.87651333545E+02 0.  0.
          5    1    3    3  502    0  0.44758846208E+02  0.52303856414E+02 -0.56130886957E+02  0.88922418884E+02  0.41800000000E+01 0. -1.
         -5    1    3    3    0  502  0.12773126337E+02 -0.66426150529E+02 -0.30137095735E+02  0.74170770320E+02  0.41800000000E+01 0. -1.
        -11    1    4    4    0    0 -0.20957217491E+02 -0.35689300935E+02 -0.75544345361E+02  0.86138721155E+02  0.00000000000E+00 0.  1.
         11    1    4    4    0    0 -0.36574755054E+02  0.49811595050E+02 -0.63883653207E+02  0.88882106499E+02  0.00000000000E+00 0. -1.
</event>
<event>
 8    1  0.8619230E-006  0.1464420E+03  0.7561462E-02  0.1204914E+00
          2   -1    0    0  501    0  0.00000000000E+00  0.00000000000E+00  0.15433778561E+03  0.15433778561E+03  0.00000000000E+00 0. -1.
         -2   -1    0    0    0  501 -0.00000000000E+00 -0.00000000000E+00 -0.15716127975E+03  0.15716127975E+03  0.00000000000E+00 0.  1.
         23    2    1    2    0    0  0.10633513308E+03 -0.10166508403E+02 -0.32931710413E+02  0.16775883416E+03  0.12509200802E+03 0.  0.
         23    2    1    2    0    0 -0.10633513308E+03  0.10166508403E+02  0.30108216277E+02  0.14374023120E+03  0.91346762172E+02 0.  0.
          5    1    3    3  502    0 -0.22427371661E+02  0.15411747042E+02  0.10430608620E+02  0.29441109739E+02  0.41800000000E+01 0. -1.
         -5    1    3    3    0  502  0.12876250474E+03 -0.25578255445E+02 -0.43362319033E+02  0.13831772442E+03  0.41800000000E+01 0. -1.
        -11    1    4    4    0    0 -0.11722061885E+03  0.20498558248E+02  0.40255131894E+02  0.12562380355E+03  0.00000000000E+00 0.  1.
         11    1    4    4    0    0  0.10885485773E+02 -0.10332049845E+02 -0.10146915616E+02  0.18116427656E+02  0.00000000000E+00 0. -1.
</event>
<event>
 8    1  0.8619230E-006  0.7941053E+02  0.7561462E-02  0.1330733E+00
         -3   -1    0    0    0  501 -0.00000000000E+00  0.00000000000E+00  0.29650082693E+03  0.29650082693E+03  0.00000000000E+00 0.  1.
          3   -1    0    0  501    0  0.00000000000E+00 -0.00000000000E+00 -0.47107767414E+02  0.47107767414E+02  0.00000000000E+00 0. -1.
         23    2    1    2    0    0 -0.26249709484E+02 -0.16544563895E+02  0.18525781586E+03  0.22567857156E+03  0.12509032528E+03 0.  0.
         23    2    1    2    0    0  0.26249709484E+02  0.16544563895E+02  0.64135243657E+02  0.11793002279E+03  0.93975480599E+02 0.  0.
          5    1    3    3  502    0  0.13195051683E+02 -0.22573703734E+02 -0.85002219822E+01  0.27810207891E+02  0.41800000000E+01 0.  1.
         -5    1    3    3    0  502 -0.39444761168E+02  0.60291398387E+01  0.19375803784E+03  0.19786836366E+03  0.41800000000E+01 0.  1.
        -11    1    4    4    0    0 -0.29854053086E+02 -0.81138546722E+01  0.43269678839E+02  0.53191768443E+02  0.00000000000E+00 0.  1.
         11    1    4    4    0    0  0.56103762570E+02  0.24658418567E+02  0.20865564818E+02  0.64738254347E+02  0.00000000000E+00 0. -1.
</event>
<event>
 8    1  0.8619230E-006  0.1070607E+03  0.7561462E-02  0.1266112E+00
          1   -1    0    0  501    0  0.00000000000E+00  0.00000000000E+00  0.47245294146E+03  0.47245294146E+03  0.00000000000E+00 0. -1.
         -1   -1    0    0    0  501 -0.00000000000E+00 -0.00000000000E+00 -0.37605641437E+02  0.37605641437E+02  0.00000000000E+00 0.  1.
         23    2    1    2    0    0  0.44541984779E+02 -0.59399641454E+02  0.21059429357E+03  0.25594153947E+03  0.12507521468E+03 0.  0.
         23    2    1    2    0    0 -0.44541984779E+02  0.59399641454E+02  0.22425300645E+03  0.25411704343E+03  0.93668324661E+02 0.  0.
          5    1    3    3  502    0  0.23764974495E+02 -0.93825708656E+02  0.18279110191E+03  0.20687700925E+03  0.41800000000E+01 0. -1.
         -5    1    3    3    0  502  0.20777010284E+02  0.34426067202E+02  0.27803191662E+02  0.49064530222E+02  0.41800000000E+01 0. -1.
        -11    1    4    4    0    0 -0.12749176408E+02  0.33383856518E+02  0.20615052911E+03  0.20922491254E+03  0.00000000000E+00 0. -1.
         11    1    4    4    0    0 -0.31792808371E+02  0.26015784936E+02  0.18102477347E+02  0.44892130893E+02  0.00000000000E+00 0.  1.
</event>
<event>
 8    1  0.8619230E-006  0.1128478E+03  0.7561462E-02  0.1255385E+00
          1   -1    0    0  501    0  0.00000000000E+00  0.00000000000E+00  0.81936116438E+03  0.81936116438E+03  0.00000000000E+00 0. -1.
         -1   -1    0    0    0  501 -0.00000000000E+00 -0.00000000000E+00 -0.22004894995E+02  0.22004894995E+02  0.00000000000E+00 0.  1.
         23    2    1    2    0    0 -0.72129046194E+02 -0.31657129481E+02  0.41016726352E+03  0.43598853300E+03  0.12507615157E+03 0.  0.
         23    2    1    2    0    0  0.72129046194E+02  0.31657129481E+02  0.38718900587E+03  0.40537752638E+03  0.90613682605E+02 0.  0.
          5    1    3    3  502    0 -0.47566497337E+02  0.42306111661E+02  0.24715607977E+03  0.25525669221E+03  0.41800000000E+01 0.  1.
         -5    1    3    3    0  502 -0.24562548858E+02 -0.73963241142E+02  0.16301118375E+03  0.18073184079E+03  0.41800000000E+01 0.  1.
        -11    1    4    4    0    0  0.62156463380E+02  0.37205676152E+02  0.38724779483E+03  0.39396515439E+03  0.00000000000E+00 0. -1.
         11    1    4    4    0    0  0.99725828140E+01 -0.55485466710E+01 -0.58788960213E-01  0.11412371983E+02  0.00000000000E+00 0.  1.
</event>
<event>
 7    1  0.8619230E-006  0.1606214E+03  0.7561462E-02  0.1187997E+00
          1   -1    0    0  501    0  0.00000000000E+00  0.00000000000E+00  0.48539868970E+02  0.48539868970E+02  0.00000000000E+00 0. -1.
         -1   -1    0    0    0  501 -0.00000000000E+00 -0.00000000000E+00 -0.65632277327E+03  0.65632277327E+03  0.00000000000E+00 0.  1.
         23    2    1    2    0    0  0.25931720181E+02 -0.10731619386E+03 -0.17994558135E+03  0.22863723026E+03  0.87780130068E+02 0.  0.
          5    1    1    2  502    0 -0.59185056298E+02  0.14002060753E+03 -0.37992398938E+03  0.40922897200E+03  0.41800000000E+01 0. -1.
         -5    1    1    2    0  502  0.33253336117E+02 -0.32704413668E+02 -0.47913333576E+02  0.66996439985E+02  0.41800000000E+01 0.  1.
        -11    1    3    3    0    0  0.40775762616E+02 -0.58422264747E+02 -0.15742686100E+03  0.17279768632E+03  0.00000000000E+00 0.  1.
         11    1    3    3    0    0 -0.14844042435E+02 -0.48893929118E+02 -0.22518720353E+02  0.55839543934E+02  0.00000000000E+00 0. -1.
</event>
<event>
 8    1  0.8619230E-006  0.1079668E+03  0.7561462E-02  0.1264382E+00
         -1   -1    0    0    0  501 -0.00000000000E+00  0.00000000000E+00  0.88324656640E+02  0.88324656640E+02  0.00000000000E+00 0.  1.
          1   -1    0    0  501    0  0.00000000000E+00 -0.00000000000E+00 -0.24506651703E+03  0.24506651703E+03  0.00000000000E+00 0. -1.
         23    2    1    2    0    0 -0.20794494787E+02  0.31998187485E+02  0.18472341089E+02  0.13207584741E+03  0.12508599869E+03 0.  0.
         23    2    1    2    0    0  0.20794494787E+02 -0.31998187485E+02 -0.17521420147E+03  0.20131532626E+03  0.91496170254E+02 0.  0.
          5    1    3    3  502    0 -0.52234168026E+02  0.64414814045E+02  0.23881185321E+02  0.86402893413E+02  0.41800000000E+01 0. -1.
         -5    1    3    3    0  502  0.31439673239E+02 -0.32416626560E+02 -0.54088442325E+01  0.45672953997E+02  0.41800000000E+01 0. -1.
        -11    1    4    4    0    0  0.60975596315E+01 -0.57655212452E+02 -0.64527629259E+02  0.86747442004E+02  0.00000000000E+00 0.  1.
         11    1    4    4    0    0  0.14696935156E+02  0.25657024967E+02 -0.11068657222E+03  0.11456788425E+03  0.00000000000E+00 0. -1.
</event>
<event>
 8    1  0.8619230E-006  0.2197533E+03  0.7561462E-02  0.1134067E+00
         -2   -1    0    0    0  501 -0.00000000000E+00  0.00000000000E+00  0.77689060754E+03  0.77689060754E+03  0.00000000000E+00 0.  1.
          2   -1    0    0  501    0  0.00000000000E+00 -0.00000000000E+00 -0.83572181681E+02  0.83572181681E+02  0.00000000000E+00 0. -1.
         23    2    1    2    0    0 -0.15737243211E+03  0.13084756114E+03  0.53523497771E+03  0.58634440518E+03  0.12424215660E+03 0.  0.
         23    2    1    2    0    0  0.15737243211E+03 -0.13084756114E+03  0.15808344815E+03  0.27411838404E+03  0.90902944095E+02 0.  0.
          5    1    3    3  502    0 -0.43964565942E+02  0.11076036532E+03  0.21278515062E+03  0.24391747438E+03  0.41800000000E+01 0. -1.
         -5    1    3    3    0  502 -0.11340786617E+03  0.20087195818E+02  0.32244982709E+03  0.34242693080E+03  0.41800000000E+01 0.  1.
        -11    1    4    4    0    0  0.63539501982E+02 -0.45228388843E+02  0.11700506838E+03  0.14061671841E+03  0.00000000000E+00 0.  1.
         11    1    4    4    0    0  0.93832930128E+02 -0.85619172298E+02  0.41078379765E+02  0.13350166563E+03  0.00000000000E+00 0. -1.
</event>
<event>
 8    1  0.8619230E-006  0.1794949E+03  0.7561462E-02  0.1168293E+00
         -2   -1    0    0    0  501 -0.00000000000E+00  0.00000000000E+00  0.96406230107E+02  0.96406230107E+02  0.00000000000E+00 0.  1.
          2   -1    0    0  501    0  0.00000000000E+00 -0.00000000000E+00 -0.40145017263E+03  0.40145017263E+03  0.00000000000E+00 0. -1.
         23    2    1    2    0    0  0.15389602522E+03 -0.37756873554E+01 -0.10041465410E+03  0.22232461762E+03  0.12508753115E+03 0.  0.
         23    2    1    2    0    0 -0.15389602522E+03  0.37756873554E+01 -0.20462928843E+03  0.27553178512E+03  0.10171713985E+03 0.  0.
          5    1    3    3  502    0  0.77469378270E+02 -0.61869159982E+02 -0.31621636540E+02  0.10414748112E+03  0.41800000000E+01 0. -1.
         -5    1    3    3    0  502  0.76426646947E+02  0.58093472627E+02 -0.68793017556E+02  0.11817713649E+03  0.41800000000E+01 0. -1.
        -11    1    4    4    0    0 -0.77555783957E+02  0.29697615427E+02 -0.16710926189E+03  0.18660748483E+03  0.00000000000E+00 0. -1.
         11    1    4    4    0    0 -0.76340241260E+02 -0.25921928072E+02 -0.37520026540E+02  0.88924300290E+02  0.00000000000E+00 0.  1.
</event>
<event>
 8    1  0.8619230E-006  0.9869717E+02  0.7561462E-02  0.1283060E+00
          1   -1    0    0  501    0  0.00000000000E+00  0.00000000000E+00  0.36500930319E+03  0.36500930319E+03  0.00000000000E+00 0. -1.
         -1   -1    0    0    0  501 -0.00000000000E+00 -0.00000000000E+00 -0.33120399624E+02  0.33120399624E+02  0.00000000000E+00 0.  1.
         23    2    1    2    0    0  0.14192189275E+01  0.14108236573E+02  0.18149231945E+03  0.22086728874E+03  0.12506734463E+03 0.  0.
         23    2    1    2    0    0 -0.14192189275E+01 -0.14108236573E+02  0.15039658411E+03  0.17726241408E+03  0.92745751436E+02 0.  0.
          5    1    3    3  502    0 -0.31006067968E+02 -0.43591978623E+02  0.11526913459E+03  0.12714591083E+03  0.41800000000E+01 0. -1.
         -5    1    3    3    0  502  0.32425286895E+02  0.57700215196E+02  0.66223184864E+02  0.93721377910E+02  0.41800000000E+01 0. -1.
        -11    1    4    4    0    0  0.23836371819E+02  0.22609214750E+02  0.17775423153E+02  0.37353913870E+02  0.00000000000E+00 0.  1.
         11    1    4    4    0    0 -0.25255590747E+02 -0.36717451323E+02  0.13262116096E+03  0.13990850021E+03  0.00000000000E+00 0. -1.
</event>
<event>
 8    1  0.8619230E-006  0.9813259E+02  0.7561462E-02  0.1284273E+00
         -1   -1    0    0    0  501 -0.00000000000E+00  0.00000000000E+00  0.10373242662E+03  0.10373242662E+03  0.00000000000E+00 0.  1.
          1   -1    0    0  501    0  0.00000000000E+00 -0.00000000000E+00 -0.35303247807E+03  0.35303247807E+03  0.00000000000E+00 0. -1.
         23    2    1    2    0    0  0.74075712380E+01  0.75243398932E+01  0.62795795563E+02  0.13030097616E+03  0.11368176919E+03 0.  0.
         23    2    1    2    0    0 -0.74075712380E+01 -0.75243398932E+01 -0.31209584702E+03  0.32646392853E+03  0.95201844015E+02 0.  0.
          5    1    3    3  502    0 -0.48388976180E+02 -0.22168588694E+01  0.43636296455E+01  0.48815173283E+02  0.41800000000E+01 0. -1.
         -5    1    3    3    0  502  0.55796547418E+02  0.97411987626E+01  0.58432165918E+02  0.81485802879E+02  0.41800000000E+01 0.  1.
        -11    1    4    4    0    0 -0.17850521998E+02 -0.46864125353E+02 -0.11917976003E+03  0.12930082204E+03  0.00000000000E+00 0.  1.
         11    1    4    4    0    0  0.10442950760E+02  0.39339785460E+02 -0.19291608699E+03  0.19716310649E+03  0.00000000000E+00 0. -1.
</event>
<event>
 8    1  0.8619230E-006  0.9496740E+02  0.7561462E-02  0.1291250E+00
          1   -1    0    0  501    0  0.00000000000E+00  0.00000000000E+00  0.50654854393E+03  0.50654854393E+03  0.00000000000E+00 0. -1.
         -1   -1    0    0    0  501 -0.00000000000E+00 -0.00000000000E+00 -0.33067822989E+02  0.33067822989E+02  0.00000000000E+00 0.  1.
         23    2    1    2    0    0  0.50247949544E+02 -0.31984652764E+02  0.18456820890E+03  0.23078350777E+03  0.12509088407E+03 0.  0.
         23    2    1    2    0    0 -0.50247949544E+02  0.31984652764E+02  0.28891251204E+03  0.30883285915E+03  0.91429868362E+02 0.  0.
          5    1    3    3  502    0  0.56916291104E+02 -0.41729538769E+02  0.19928717415E+03  0.21145606820E+03  0.41800000000E+01 0. -1.
         -5    1    3    3    0  502 -0.66683415605E+01  0.97448860049E+01 -0.14718965248E+02  0.19327439572E+02  0.41800000000E+01 0. -1.
        -11    1    4    4    0    0 -0.74943891651E+02  0.14201024584E+02  0.23309592483E+03  0.24525897775E+03  0.00000000000E+00 0.  1.
         11    1    4    4    0    0  0.24695942107E+02  0.17783628180E+02  0.55816587211E+02  0.63573881395E+02  0.00000000000E+00 0. -1.
</event>
<event>
 8    1  0.8619230E-006  0.9005318E+02  0.7561462E-02  0.1302723E+00
          2   -1    0    0  501    0  0.00000000000E+00  0.00000000000E+00  0.89463099187E+03  0.89463099187E+03  0.00000000000E+00 0. -1.
         -2   -1    0    0    0  501 -0.00000000000E+00 -0.00000000000E+00 -0.15642143196E+02  0.15642143196E+02  0.00000000000E+00 0.  1.
         23    2    1    2    0    0 -0.11726661630E+02 -0.48273974108E+02  0.43826135619E+03  0.45846388791E+03  0.12509288158E+03 0.  0.
         23    2    1    2    0    0  0.11726661630E+02  0.48273974108E+02  0.44072749249E+03  0.45180924715E+03  0.86156729351E+02 0.  0.
          5    1    3    3  502    0 -0.38614713963E+02 -0.22104522541E+02  0.40700523519E+03  0.40945138896E+03  0.41800000000E+01 0. -1.
         -5    1    3    3    0  502  0.26888052333E+02 -0.26169451567E+02  0.31256121000E+02  0.49012498952E+02  0.41800000000E+01 0. -1.
        -11    1    4    4    0    0  0.10327122957E+02  0.72583199368E+02  0.36403545586E+03  0.37134456159E+03  0.00000000000E+00 0. -1.
         11    1    4    4    0    0  0.13995386733E+01 -0.24309225260E+02  0.76692036626E+02  0.80464685565E+02  0.00000000000E+00 0.  1.
</event>
<event>
 8    1  0.8619230E-006  0.1995169E+03  0.7561462E-02  0.1150147E+00
         -2   -1    0    0    0  501 -0.00000000000E+00  0.00000000000E+00  0.10006624783E+03  0.10006624783E+03  0.00000000000E+00 0. -1.
          2   -1    0    0  501    0  0.00000000000E+00 -0.00000000000E+00 -0.55929308974E+03  0.55929308974E+03  0.00000000000E+00 0.  1.
         23    2    1    2    0    0 -0.32805666137E+02  0.17212605460E+03 -0.76842612943E+02  0.22859293833E+03  0.12508538639E+03 0.  0.
         23    2    1    2    0    0  0.32805666137E+02 -0.17212605460E+03 -0.38238422896E+03  0.43076639924E+03  0.92943002683E+02 0.  0.
          5    1    3    3  502    0 -0.59583847045E+02  0.24557131672E+02 -0.14936828315E+02  0.66286263922E+02  0.41800000000E+01 0. -1.
         -5    1    3    3    0  502  0.26778180909E+02  0.14756892292E+03 -0.61905784629E+02  0.16230667440E+03  0.41800000000E+01 0. -1.
        -11    1    4    4    0    0  0.49150977492E+02 -0.13986377791E+03 -0.35706617135E+03  0.38661860493E+03  0.00000000000E+00 0. -1.
         11    1    4    4    0    0 -0.16345311356E+02 -0.32262276687E+02 -0.25318057620E+02  0.44147794305E+02  0.00000000000E+00 0.  1.
</event>
<event>
 7    1  0.8619230E-006  0.2599832E+03  0.7561462E-02  0.1107153E+00
         -1   -1    0    0    0  501 -0.00000000000E+00  0.00000000000E+00  0.18907740227E+03  0.18907740227E+03  0.00000000000E+00 0.  1.
          1   -1    0    0  501    0  0.00000000000E+00 -0.00000000000E+00 -0.10345387529E+04  0.10345387529E+04  0.00000000000E+00 0. -1.
         23    2    1    2    0    0 -0.43750448583E+02  0.21113486054E+03 -0.90145396839E+03  0.93342967990E+03  0.11036158342E+03 0.  0.
          5    1    1    2  502    0 -0.68791760950E+02 -0.60773596851E+02 -0.67254357646E+01  0.92132732159E+02  0.41800000000E+01 0. -1.
         -5    1    1    2    0  502  0.11254220953E+03 -0.15036126369E+03  0.62718053486E+02  0.19805374316E+03  0.41800000000E+01 0.  1.
        -11    1    3    3    0    0 -0.68340943477E+02  0.73337187489E+02 -0.43650734471E+03  0.44786994720E+03  0.00000000000E+00 0.  1.
         11    1    3    3    0    0  0.24590494895E+02  0.13779767306E+03 -0.46494662369E+03  0.48555973270E+03  0.00000000000E+00 0. -1.
</event>
<event>
 7    1  0.8619230E-006  0.1094835E+03  0.7561462E-02  0.1261529E+00
          2   -1    0    0  501    0  0.00000000000E+00  0.00000000000E+00  0.36372874327E+03  0.36372874327E+03  0.00000000000E+00 0. -1.
         -2   -1    0    0    0  501 -0.00000000000E+00 -0.00000000000E+00 -0.63789305007E+02  0.63789305007E+02  0.00000000000E+00 0.  1.
         23    2    1    2    0    0 -0.61055930064E+02  0.24406031777E+02  0.19989244083E+03  0.23244800837E+03  0.98750228915E+02 0.  0.
          5    1    1    2  502    0 -0.20642544644E+02  0.63550190603E+01  0.10524329169E+03  0.10751801599E+03  0.41800000000E+01 0. -1.
         -5    1    1    2    0  502  0.81698474709E+02 -0.30761050838E+02 -0.51962942550E+01  0.87552023919E+02  0.41800000000E+01 0.  1.
        -11    1    3    3    0    0 -0.57271387500E+02 -0.23215834266E+02  0.15511260403E+03  0.16696977785E+03  0.00000000000E+00 0.  1.
         11    1    3    3    0    0 -0.37845425646E+01  0.47621866044E+02  0.44779836799E+02  0.65478230517E+02  0.00000000000E+00 0. -1.
</event>
<event>
 7    1  0.8619230E-006  0.1392428E+03  0.7561462E-02  0.1214351E+00
          2   -1    0    0  501    0  0.00000000000E+00  0.00000000000E+00  0.40153151648E+03  0.40153151648E+03  0.00000000000E+00 0. -1.
         -2   -1    0    0    0  501 -0.00000000000E+00 -0.00000000000E+00 -0.14802440614E+03  0.14802440614E+03  0.00000000000E+00 0.  1.
         23    2    1    2    0    0  0.81488606498E+02  0.76414304675E+02  0.23964638020E+03  0.27959155221E+03  0.90892846672E+02 0.  0.
          5    1    1    2  502    0 -0.36057816384E+02  0.95299238720E+01  0.12014290168E+03  0.12586808490E+03  0.41800000000E+01 0. -1.
         -5    1    1    2    0  502 -0.45430790114E+02 -0.85944228547E+02 -0.10628217154E+03  0.14409628551E+03  0.41800000000E+01 0.  1.
        -11    1    3    3    0    0  0.49472350801E+02  0.94656189467E+02  0.16919668660E+03  0.20008704720E+03  0.00000000000E+00 0. -1.
         11    1    3    3    0    0  0.32016255697E+02 -0.18241884792E+02  0.70449693594E+02  0.79504505011E+02  0.00000000000E+00 0.  1.
</event>
<event>
 8    1  0.8619230E-006  0.1131760E+03  0.7561462E-02  0.1254799E+00
         -1   -1    0    0    0  501 -0.00000000000E+00  0.00000000000E+00  0.77132749319E+02  0.77132749319E+02  0.00000000000E+00 0.  1.
          1   -1    0    0  501    0  0.00000000000E+00 -0.00000000000E+00 -0.22293973382E+03  0.22293973382E+03  0.00000000000E+00 0. -1.
         23    2    1    2    0    0 -0.53253900382E+02  0.50882729146E+02 -0.53432720487E+02  0.15473222512E+03  0.12514781597E+03 0.  0.
         23    2    1    2    0    0  0.53253900382E+02 -0.50882729146E+02 -0.92374264019E+02  0.14534025802E+03  0.84650788048E+02 0.  0.
          5    1    3    3  502    0 -0.62028657661E+02 -0.24763552335E+02 -0.12169670864E+02  0.68017359434E+02  0.41800000000E+01 0.  1.
         -5    1    3    3    0  502  0.87747572786E+01  0.75646281481E+02 -0.41263049623E+02  0.86714865689E+02  0.41800000000E+01 0.  1.
        -11    1    4    4    0    0  0.34039527606E+02 -0.53865476399E+02 -0.14866698958E+02  0.65430862177E+02  0.00000000000E+00 0.  1.
         11    1    4    4    0    0  0.19214372776E+02  0.29827472531E+01 -0.77507565061E+02  0.79909395843E+02  0.00000000000E+00 0. -1.
</event>
<event>
 8    1  0.8619230E-006  0.1266971E+03  0.7561462E-02  0.1232441E+00
         -2   -1    0    0    0  501 -0.00000000000E+00  0.00000000000E+00  0.23833270933E+02  0.23833270933E+02  0.00000000000E+00 0. -1.
          2   -1    0    0  501    0  0.00000000000E+00 -0.00000000000E+00 -0.82005450473E+03  0.82005450473E+03  0.00000000000E+00 0.  1.
         23    2    1    2    0    0 -0.80035583373E+02 -0.34968787690E+02 -0.40362647490E+03  0.43149755602E+03  0.12508916376E+03 0.  0.
         23    2    1    2    0    0  0.80035583373E+02  0.34968787690E+02 -0.39259475889E+03  0.41239021964E+03  0.91140209716E+02 0.  0.
          5    1    3    3  502    0 -0.89944990331E+02  0.12212648894E+02 -0.33773564165E+03  0.34974574496E+03  0.41800000000E+01 0.  1.
         -5    1    3    3    0  502  0.99094069581E+01 -0.47181436584E+02 -0.65890833256E+02  0.81751811060E+02  0.41800000000E+01 0.  1.
        -11    1    4    4    0    0  0.72082184231E+02  0.56240103475E+02 -0.36680286744E+03  0.37802530879E+03  0.00000000000E+00 0.  1.
         11    1    4    4    0    0  0.79533991423E+01 -0.21271315785E+02 -0.25791891451E+02  0.34364910851E+02  0.00000000000E+00 0. -1.
</event>
<event>
 8    1  0.8619230E-006  0.1198709E+03  0.7561462E-02  0.1243310E+00
          3   -1    0    0  501    0  0.00000000000E+00  0.00000000000E+00  0.20468759633E+03  0.20468759633E+03  0.00000000000E+00 0. -1.
         -3   -1    0    0    0  501 -0.00000000000E+00 -0.00000000000E+00 -0.76235071127E+02  0.76235071127E+02  0.00000000000E+00 0.  1.
         23    2    1    2    0    0 -0.58180957774E+01 -0.62361627524E+02  0.68910990793E+02  0.15596570887E+03  0.12511496660E+03 0.  0.
         23    2    1    2    0    0  0.58180957774E+01  0.62361627524E+02  0.59541534405E+02  0.12495695858E+03  0.90256436625E+02 0.  0.
          5    1    3    3  502    0 -0.63244952261E+02 -0.17335049453E+02  0.22854310898E+02  0.69571688586E+02  0.41800000000E+01 0.  1.
         -5    1    3    3    0  502  0.57426856484E+02 -0.45026578071E+02  0.46056679895E+02  0.86394020287E+02  0.41800000000E+01 0.  1.
        -11    1    4    4    0    0  0.38202202744E+02  0.10200067602E+02  0.15835770434E+00  0.39540798559E+02  0.00000000000E+00 0.  1.
         11    1    4    4    0    0 -0.32384106966E+02  0.52161559922E+02  0.59383176701E+02  0.85416160020E+02  0.00000000000E+00 0. -1.
</event>
<event>
 8    1  0.8619230E-006  0.1004102E+03  0.7561462E-02  0.1279436E+00
          1   -1    0    0  501    0  0.00000000000E+00  0.00000000000E+00  0.19364553162E+03  0.19364553162E+03  0.00000000000E+00 0. -1.
         -1   -1    0    0    0  501 -0.00000000000E+00 -0.00000000000E+00 -0.74028740191E+02  0.74028740191E+02  0.00000000000E+00 0.  1.
         23    2    1    2    0    0 -0.37147453950E+02 -0.49976686627E+02  0.68476470065E+02  0.15561146324E+03  0.12509315728E+03 0.  0.
         23    2    1    2    0    0  0.37147453950E+02  0.49976686627E+02  0.51140321362E+02  0.11206280857E+03  0.77878996232E+02 0.  0.
          5    1    3    3  502    0 -0.37588030958E+02  0.19767552233E+02  0.74105394691E+02  0.85514315263E+02  0.41800000000E+01 0. -1.
         -5    1    3    3    0  502  0.44057700805E+00 -0.69744238860E+02 -0.56289246258E+01  0.70097147978E+02  0.41800000000E+01 0. -1.
        -11    1    4    4    0    0  0.80484282846E-01  0.51188540315E+02  0.29768721600E+01  0.51275090494E+02  0.00000000000E+00 0.  1.
         11    1    4    4    0    0  0.37066969667E+02 -0.12118536884E+01  0.48163449202E+02  0.60787718074E+02  0.00000000000E+00 0. -1.
</event>
<event>
 8    1  0.8619230E-006  0.8431840E+02  0.7561462E-02  0.1317225E+00
          3   -1    0    0  501    0  0.00000000000E+00  0.00000000000E+00  0.69756824359E+03  0.69756824359E+03  0.00000000000E+00 0. -1.
         -3   -1    0    0    0  501 -0.00000000000E+00 -0.00000000000E+00 -0.17967775329E+02  0.17967775329E+02  0.00000000000E+00 0.  1.
         23    2    1    2    0    0  0.20133812983E+02 -0.49669490442E+01  0.33321789531E+03  0.35652759938E+03  0.12509085638E+03 0.  0.
         23    2    1    2    0    0 -0.20133812983E+02  0.49669490442E+01  0.34638257294E+03  0.35900841954E+03  0.92065832175E+02 0.  0.
          5    1    3    3  502    0 -0.23810899368E+02 -0.17528475986E+02  0.12218955889E+02  0.32264247738E+02  0.41800000000E+01 0.  1.
         -5    1    3    3    0  502  0.43944712352E+02  0.12561526942E+02  0.32099893943E+03  0.32426335164E+03  0.41800000000E+01 0.  1.
        -11    1    4    4    0    0  0.25395757632E+02 -0.27139726821E+02  0.10852448730E+03  0.11471300546E+03  0.00000000000E+00 0.  1.
         11    1    4    4    0    0 -0.45529570616E+02  0.32106675865E+02  0.23785808564E+03  0.24429541408E+03  0.00000000000E+00 0. -1.
</event>
<event>
 8    1  0.8619230E-006  0.1477668E+03  0.7561462E-02  0.1203244E+00
         -2   -1    0    0    0  501 -0.00000000000E+00  0.00000000000E+00  0.30919039244E+03  0.30919039244E+03  0.00000000000E+00 0.  1.
          2   -1    0    0  501    0  0.00000000000E+00 -0.00000000000E+00 -0.12748750978E+03  0.12748750978E+03  0.00000000000E+00 0. -1.
         23    2    1    2    0    0  0.14665235307E+03  0.14791309541E+02  0.17862149478E+03  0.26320771734E+03  0.12508784341E+03 0.  0.
         23    2    1    2    0    0 -0.14665235307E+03 -0.14791309541E+02  0.30813878721E+01  0.17347018488E+03  0.91415067650E+02 0.  0.
          5    1    3    3  502    0  0.13014968869E+03  0.11767798014E+02  0.60920525663E+02  0.14424356271E+03  0.41800000000E+01 0. -1.
         -5    1    3    3    0  502  0.16502664373E+02  0.30235115270E+01  0.11770096912E+03  0.11896415462E+03  0.41800000000E+01 0. -1.
        -11    1    4    4    0    0 -0.76012068270E+02 -0.49460743788E+01 -0.44039258502E+02  0.87987240347E+02  0.00000000000E+00 0.  1.
         11    1    4    4    0    0 -0.70640284797E+02 -0.98452351625E+01  0.47120646374E+02  0.85482944534E+02  0.00000000000E+00 0. -1.
</event>
<event>
 8    1  0.8619230E-006  0.1242736E+03  0.7561462E-02  0.1236209E+00
          3   -1    0    0  501    0  0.00000000000E+00  0.00000000000E+00  0.41033177107E+03  0.41033177107E+03  0.00000000000E+00 0. -1.
         -3   -1    0    0    0  501 -0.00000000000E+00 -0.00000000000E+00 -0.51184256622E+02  0.51184256622E+02  0.00000000000E+00 0.  1.
         23    2    1    2    0    0 -0.44109119952E+01  0.94054225179E+02  0.15373308048E+03  0.21942496666E+03  0.12509117692E+03 0.  0.
         23    2    1    2    0    0  0.44109119952E+01 -0.94054225179E+02  0.20541443397E+03  0.24209106103E+03  0.86875420743E+02 0.  0.
          5    1    3    3  502    0 -0.45417409418E+02  0.26896006427E+02  0.77237869196E+01  0.53509490040E+02  0.41800000000E+01 0.  1.
         -5    1    3    3    0  502  0.41006497423E+02  0.67158218752E+02  0.14600929356E+03  0.16591547662E+03  0.41800000000E+01 0.  1.
        -11    1    4    4    0    0  0.36577284215E+02 -0.57052509444E+02  0.16560594204E+03  0.17893634229E+03  0.00000000000E+00 0. -1.
         11    1    4    4    0    0 -0.32166372219E+02 -0.37001715735E+02  0.39808491929E+02  0.63154718737E+02  0.00000000000E+00 0.  1.
</event>
<event>
 8    1  0.8619230E-006  0.1271580E+03  0.7561462E-02  0.1231735E+00
         -2   -1    0    0    0  501 -0.00000000000E+00  0.00000000000E+00  0.80779429038E+03  0.80779429038E+03  0.00000000000E+00 0.  1.
          2   -1    0    0  501    0  0.00000000000E+00 -0.00000000000E+00 -0.23372127067E+02  0.23372127067E+02  0.00000000000E+00 0. -1.
         23    2    1    2    0    0  0.46105599715E+01 -0.71049088048E+02  0.56534154336E+03  0.58337612685E+03  0.12508962610E+03 0.  0.
         23    2    1    2    0    0 -0.46105599715E+01  0.71049088048E+02  0.21908061995E+03  0.24779029059E+03  0.91293372694E+02 0.  0.
          5    1    3    3  502    0 -0.55358263246E+02 -0.68902735825E+01  0.21102439989E+03  0.21831349690E+03  0.41800000000E+01 0. -1.
         -5    1    3    3    0  502  0.59968823217E+02 -0.64158814465E+02  0.35431714346E+03  0.36506262995E+03  0.41800000000E+01 0. -1.
        -11    1    4    4    0    0 -0.36292935171E+02  0.69887876007E+02  0.18593278932E+03  0.20192200103E+03  0.00000000000E+00 0.  1.
         11    1    4    4    0    0  0.31682375199E+02  0.11612120411E+01  0.33147830630E+02  0.45868289560E+02  0.00000000000E+00 0. -1.
</event>
<event>
 8    1  0.8619230E-006  0.1452019E+03  0.7561462E-02  0.1206496E+00
          1   -1    0    0  501    0  0.00000000000E+00  0.00000000000E+00  0.22843325997E+03  0.22843325997E+03  0.00000000000E+00 0. -1.
         -1   -1    0    0    0  501 -0.00000000000E+00 -0.00000000000E+00 -0.14091028090E+03  0.14091028090E+03  0.00000000000E+00 0.  1.
         23    2    1    2    0    0 -0.12473338845E+03  0.27699291369E+02 -0.18912044225E+02  0.17981713100E+03  0.12510342221E+03 0.  0.
         23    2    1    2    0    0  0.12473338845E+03 -0.27699291369E+02  0.10643502330E+03  0.18952640987E+03  0.90918518000E+02 0.  0.
          5    1    3    3  502    0 -0.16583174376E+02  0.46700319844E+02  0.31551750299E+02  0.58897426878E+02  0.41800000000E+01 0. -1.
         -5    1    3    3    0  502 -0.10815021408E+03 -0.19001028475E+02 -0.50463794525E+02  0.12091970412E+03  0.41800000000E+01 0. -1.
        -11    1    4    4    0    0  0.44274182763E+02  0.36704497373E+01 -0.90348285514E+01  0.45335456186E+02  0.00000000000E+00 0.  1.
         11    1    4    4    0    0  0.80459205688E+02 -0.31369741106E+02  0.11546985185E+03  0.14419095368E+03  0.00000000000E+00 0. -1.
</event>
<event>
 8    1  0.8619230E-006  0.1813483E+03  0.7561462E-02  0.1166504E+00
         -2   -1    0    0    0  501 -0.00000000000E+00  0.00000000000E+00  0.18982282047E+03  0.18982282047E+03  0.00000000000E+00 0.  1.
          2   -1    0    0  501    0  0.00000000000E+00 -0.00000000000E+00 -0.19854959352E+03  0.19854959352E+03  0.00000000000E+00 0. -1.
         23    2    1    2    0    0  0.60588852668E+02 -0.14892131814E+03 -0.26343164101E+01  0.20372440744E+03  0.12509247180E+03 0.  0.
         23    2    1    2    0    0 -0.60588852668E+02  0.14892131814E+03 -0.60924566361E+01  0.18464800655E+03  0.90604636926E+02 0.  0.
          5    1    3    3  502    0  0.58139193442E+02 -0.15930103794E+03  0.27171961520E+02  0.17179282406E+03  0.41800000000E+01 0.  1.
         -5    1    3    3    0  502  0.24496592267E+01  0.10379719807E+02 -0.29806277930E+02  0.31931583387E+02  0.41800000000E+01 0.  1.
        -11    1    4    4    0    0 -0.67067207863E+02  0.53024802960E+02 -0.19249264625E+02  0.87636603586E+02  0.00000000000E+00 0. -1.
         11    1    4    4    0    0  0.64783551941E+01  0.95896515177E+02  0.13156807989E+02  0.97011402967E+02  0.00000000000E+00 0.  1.
</event>
<event>
 8    1  0.8619230E-006  0.1208422E+03  0.7561462E-02  0.1241714E+00
         -1   -1    0    0    0  501 -0.00000000000E+00  0.00000000000E+00  0.13804944324E+03  0.13804944324E+03  0.00000000000E+00 0.  1.
          1   -1    0    0  501    0  0.00000000000E+00 -0.00000000000E+00 -0.18162088777E+03  0.18162088777E+03  0.00000000000E+00 0. -1.
         23    2    1    2    0    0 -0.43628237681E+02 -0.99994755560E+02  0.13652334227E+02  0.16654101504E+03  0.12508856541E+03 0.  0.
         23    2    1    2    0    0  0.43628237681E+02  0.99994755560E+02 -0.57223778759E+02  0.15312931598E+03  0.90948624477E+02 0.  0.
          5    1    3    3  502    0 -0.43311523855E+02 -0.98778680928E+02 -0.38205365621E+02  0.11449994876E+03  0.41800000000E+01 0.  1.
         -5    1    3    3    0  502 -0.31671382609E+00 -0.12160746317E+01  0.51857699849E+02  0.52041066272E+02  0.41800000000E+01 0.  1.
        -11    1    4    4    0    0 -0.14906860250E+02  0.50728760735E+02 -0.55425115567E+02  0.76600033184E+02  0.00000000000E+00 0. -1.
         11    1    4    4    0    0  0.58535097931E+02  0.49265994825E+02 -0.17986631922E+01  0.76529282795E+02  0.00000000000E+00 0.  1.
</event>
<event>
 8    1  0.8619230E-006  0.1062050E+03  0.7561462E-02  0.1267764E+00
          2   -1    0    0  501    0  0.00000000000E+00  0.00000000000E+00  0.87985062880E+02  0.87985062880E+02  0.00000000000E+00 0.  1.
         -2   -1    0    0    0  501 -0.00000000000E+00 -0.00000000000E+00 -0.25859204274E+03  0.25859204274E+03  0.00000000000E+00 0. -1.
         23    2    1    2    0    0  0.64985439976E+02 -0.32475948323E+02 -0.18108402417E+03  0.23176853776E+03  0.12508971445E+03 0.  0.
         23    2    1    2    0    0 -0.64985439976E+02  0.32475948323E+02  0.10477044307E+02  0.11480856786E+03  0.88280485767E+02 0.  0.
          5    1    3    3  502    0  0.34358917482E+02  0.36791236967E+02 -0.21156192339E+02  0.54764835455E+02  0.41800000000E+01 0. -1.
         -5    1    3    3    0  502  0.30626522494E+02 -0.69267185290E+02 -0.15992783183E+03  0.17700370231E+03  0.41800000000E+01 0. -1.
        -11    1    4    4    0    0 -0.51021931269E+02  0.35778003724E+00  0.43217155062E+02  0.66866194513E+02  0.00000000000E+00 0.  1.
         11    1    4    4    0    0 -0.13963508707E+02  0.32118168286E+02 -0.32740110755E+02  0.47942373343E+02  0.00000000000E+00 0. -1.
</event>
<event>
 8    1  0.8619230E-006  0.9382032E+02  0.7561462E-02  0.1293855E+00
          2   -1    0    0  501    0  0.00000000000E+00  0.00000000000E+00  0.37501223792E+03  0.37501223792E+03  0.00000000000E+00 0.  1.
         -2   -1    0    0    0  501 -0.00000000000E+00 -0.00000000000E+00 -0.41595350977E+02  0.41595350977E+02  0.00000000000E+00 0. -1.
         23    2    1    2    0    0 -0.28797956353E+02  0.48414744957E+02  0.14763968673E+03  0.20153976893E+03  0.12508993382E+03 0.  0.
         23    2    1    2    0    0  0.28797956353E+02 -0.48414744957E+02  0.18577720021E+03  0.21506781997E+03  0.92561813119E+02 0.  0.
          5    1    3    3  502    0 -0.31760492052E+02 -0.19732540873E+02 -0.13247242033E+01  0.37647434427E+02  0.41800000000E+01 0. -1.
         -5    1    3    3    0  502  0.29625356997E+01  0.68147285830E+02  0.14896441094E+03  0.16389233451E+03  0.41800000000E+01 0. -1.
        -11    1    4    4    0    0  0.41977973638E+02 -0.13087042238E+02  0.16748136459E+03  0.17315723615E+03  0.00000000000E+00 0.  1.
         11    1    4    4    0    0 -0.13180017285E+02 -0.35327702719E+02  0.18295835621E+02  0.41910583819E+02  0.00000000000E+00 0. -1.
</event>
<event>
 8    1  0.8619230E-006  0.2831282E+03  0.7561462E-02  0.1093993E+00
          2   -1    0    0  501    0  0.00000000000E+00  0.00000000000E+00  0.77118180768E+03  0.77118180768E+03  0.00000000000E+00 0. -1.
         -2   -1    0    0    0  501 -0.00000000000E+00 -0.00000000000E+00 -0.12120234026E+03  0.12120234026E+03  0.00000000000E+00 0.  1.
         23    2    1    2    0    0  0.17165101454E+03 -0.22393698603E+03  0.39705192934E+03  0.50289747386E+03  0.12507513787E+03 0.  0.
         23    2    1    2    0    0 -0.17165101454E+03  0.22393698603E+03  0.25292753808E+03  0.38948667409E+03  0.90087098221E+02 0.  0.
          5    1    3    3  502    0  0.64245601208E+02 -0.70585456520E+02  0.48313188983E+02  0.10705811775E+03  0.41800000000E+01 0. -1.
         -5    1    3    3    0  502  0.10740541333E+03 -0.15335152951E+03  0.34873874036E+03  0.39583935611E+03  0.41800000000E+01 0. -1.
        -11    1    4    4    0    0 -0.15099662904E+03  0.18033953749E+03  0.24667860848E+03  0.34084111642E+03  0.00000000000E+00 0. -1.
         11    1    4    4    0    0 -0.20654385502E+02  0.43597448534E+02  0.62489296064E+01  0.48645557663E+02  0.00000000000E+00 0.  1.
</event>
<event>
 8    1  0.8619230E-006  0.1207702E+03  0.7561462E-02  0.1241832E+00
         -1   -1    0    0    0  501 -0.00000000000E+00  0.00000000000E+00  0.75662266101E+02  0.75662266101E+02  0.00000000000E+00 0.  1.
          1   -1    0    0  501    0  0.00000000000E+00 -0.00000000000E+00 -0.27312492352E+03  0.27312492352E+03  0.00000000000E+00 0. -1.
         23    2    1    2    0    0 -0.43719217764E+01 -0.86219264248E+02 -0.62811708226E+02  0.16445545387E+03  0.12508960944E+03 0.  0.
         23    2    1    2    0    0  0.43719217764E+01  0.86219264248E+02 -0.13465094920E+03  0.18433173576E+03  0.91621151817E+02 0.  0.
          5    1    3    3  502    0 -0.28650077428E+01 -0.11315655063E+03 -0.73620035376E+02  0.13509254320E+03  0.41800000000E+01 0.  1.
         -5    1    3    3    0  502 -0.15069140337E+01  0.26937286377E+02  0.10808327150E+02  0.29362910670E+02  0.41800000000E+01 0.  1.
        -11    1    4    4    0    0 -0.15006231201E+02  0.27199698906E+01 -0.82710390692E+02  0.84104660629E+02  0.00000000000E+00 0. -1.
         11    1    4    4    0    0  0.19378152977E+02  0.83499294357E+02 -0.51940558503E+02  0.10022707513E+03  0.00000000000E+00 0.  1.
</event>
<event>
 8    1  0.8619230E-006  0.9572069E+02  0.7561462E-02  0.1289561E+00
         -2   -1    0    0    0  501 -0.00000000000E+00  0.00000000000E+00  0.14298038966E+03  0.14298038966E+03  0.00000000000E+00 0.  1.
          2   -1    0    0  501    0  0.00000000000E+00 -0.00000000000E+00 -0.89228685632E+02  0.89228685632E+02  0.00000000000E+00 0. -1.
         23    2    1    2    0    0  0.28475669035E+02  0.30691457792E-01  0.21009249282E+02  0.12999938888E+03  0.12509031891E+03 0.  0.
         23    2    1    2    0    0 -0.28475669035E+02 -0.30691457792E-01  0.32742454745E+02  0.10220968641E+03  0.92541271786E+02 0.  0.
          5    1    3    3  502    0 -0.26768161449E+01 -0.55333034705E+02  0.33847265759E+02  0.65053976617E+02  0.41800000000E+01 0. -1.
         -5    1    3    3    0  502  0.31152485180E+02  0.55363726163E+02 -0.12838016477E+02  0.64945412267E+02  0.41800000000E+01 0. -1.
        -11    1    4    4    0    0 -0.49110349525E+02 -0.86382401324E+01  0.52475721155E+02  0.72388859183E+02  0.00000000000E+00 0.  1.
         11    1    4    4    0    0  0.20634680490E+02  0.86075486746E+01 -0.19733266410E+02  0.29820827224E+02  0.00000000000E+00 0. -1.
</event>
<event>
 8    1  0.8619230E-006  0.1700282E+03  0.7561462E-02  0.1177818E+00
          2   -1    0    0  501    0  0.00000000000E+00  0.00000000000E+00  0.61091341233E+03  0.61091341233E+03  0.00000000000E+00 0. -1.
         -2   -1    0    0    0  501 -0.00000000000E+00 -0.00000000000E+00 -0.78703822352E+02  0.78703822352E+02  0.00000000000E+00 0.  1.
         23    2    1    2    0    0 -0.36989683509E+02 -0.14387304209E+03  0.90605164853E+02  0.21430033835E+03  0.12509056796E+03 0.  0.
         23    2    1    2    0    0  0.36989683509E+02  0.14387304209E+03  0.44160442513E+03  0.47531689634E+03  0.94042515509E+02 0.  0.
          5    1    3    3  502    0 -0.60131017558E+02 -0.14931038042E+03  0.52812390320E+02  0.16945781170E+03  0.41800000000E+01 0.  1.
         -5    1    3    3    0  502  0.23141334050E+02  0.54373383282E+01  0.37792774533E+02  0.44842526653E+02  0.41800000000E+01 0.  1.
        -11    1    4    4    0    0  0.36299882854E+02  0.54238314561E+02  0.82497887567E+02  0.10519209911E+03  0.00000000000E+00 0.  1.
         11    1    4    4    0    0  0.68980065473E+00  0.89634727529E+02  0.35910653756E+03  0.37012479723E+03  0.00000000000E+00 0. -1.
</event>
<event>
 8    1  0.8619230E-006  0.1016600E+03  0.7561462E-02  0.1276843E+00
          2   -1    0    0  501    0  0.00000000000E+00  0.00000000000E+00  0.43759779524E+02  0.43759779524E+02  0.00000000000E+00 0. -1.
         -2   -1    0    0    0  501 -0.00000000000E+00 -0.00000000000E+00 -0.34562410855E+03  0.34562410855E+03  0.00000000000E+00 0.  1.
         23    2    1    2    0    0  0.44920420411E+02  0.35702799806E+02 -0.20135062577E+03  0.24388837856E+03  0.12508769968E+03 0.  0.
         23    2    1    2    0    0 -0.44920420411E+02 -0.35702799806E+02 -0.10051370325E+03  0.14549550952E+03  0.88166913658E+02 0.  0.
          5    1    3    3  502    0  0.56361733141E+01  0.72115064024E+02 -0.16145853479E+03  0.17697084440E+03  0.41800000000E+01 0. -1.
         -5    1    3    3    0  502  0.39284247097E+02 -0.36412264218E+02 -0.39892090978E+02  0.66917534160E+02  0.41800000000E+01 0. -1.
        -11    1    4    4    0    0 -0.84907800560E+01  0.13480696200E+02  0.10251354686E+02  0.18944993769E+02  0.00000000000E+00 0. -1.
         11    1    4    4    0    0 -0.36429640355E+02 -0.49183496006E+02 -0.11076505794E+03  0.12655051575E+03  0.00000000000E+00 0.  1.
</event>
<event>
 7    1  0.8619230E-006  0.1359641E+03  0.7561462E-02  0.1218865E+00
          1   -1    0    0  501    0  0.00000000000E+00  0.00000000000E+00  0.57718793607E+03  0.57718793607E+03  0.00000000000E+00 0. -1.
         -1   -1    0    0    0  501 -0.00000000000E+00 -0.00000000000E+00 -0.45894861346E+02  0.45894861346E+02  0.00000000000E+00 0.  1.
         23    2    1    2    0    0 -0.80548424777E+02 -0.37005566060E+02  0.37955112908E+03  0.40001412179E+03  0.89970980827E+02 0.  0.
          5    1    1    2  502    0  0.59968893929E+02 -0.39020328566E+02  0.29309105789E+02  0.77429647827E+02  0.41800000000E+01 0. -1.
         -5    1    1    2    0  502  0.20579530848E+02  0.76025894626E+02  0.12243283985E+03  0.14563902780E+03  0.41800000000E+01 0.  1.
        -11    1    3    3    0    0  0.12060370994E+02  0.11655612896E+02  0.23223143927E+02  0.28646470539E+02  0.00000000000E+00 0. -1.
         11    1    3    3    0    0 -0.92608795771E+02 -0.48661178955E+02  0.35632798515E+03  0.37136765125E+03  0.00000000000E+00 0.  1.
</event>
<event>
 8    1  0.8619230E-006  0.1466538E+03  0.7561462E-02  0.1204646E+00
          1   -1    0    0  501    0  0.00000000000E+00  0.00000000000E+00  0.75138902720E+03  0.75138902720E+03  0.00000000000E+00 0. -1.
         -1   -1    0    0    0  501 -0.00000000000E+00 -0.00000000000E+00 -0.34457418539E+02  0.34457418539E+02  0.00000000000E+00 0.  1.
         23    2    1    2    0    0 -0.95165356733E+02  0.53859944061E+02  0.25073616531E+03  0.30078860689E+03  0.12509125766E+03 0.  0.
         23    2    1    2    0    0  0.95165356733E+02 -0.53859944061E+02  0.46619544335E+03  0.48505783885E+03  0.77366510419E+02 0.  0.
          5    1    3    3  502    0 -0.11986700120E+03  0.27615145642E+02  0.22446457700E+03  0.25599318931E+03  0.41800000000E+01 0.  1.
         -5    1    3    3    0  502  0.24701644469E+02  0.26244798419E+02  0.26271588312E+02  0.44795417578E+02  0.41800000000E+01 0.  1.
        -11    1    4    4    0    0  0.93047144458E+02 -0.14074811161E+02  0.32579984113E+03  0.33911857496E+03  0.00000000000E+00 0.  1.
         11    1    4    4    0    0  0.21182122754E+01 -0.39785132900E+02  0.14039560222E+03  0.14593926389E+03  0.00000000000E+00 0. -1.
</event>
<event>
 8    1  0.8619230E-006  0.1366477E+03  0.7561462E-02  0.1217912E+00
         -1   -1    0    0    0  501 -0.00000000000E+00  0.00000000000E+00  0.16199297508E+03  0.16199297508E+03  0.00000000000E+00 0.  1.
          1   -1    0    0  501    0  0.00000000000E+00 -0.00000000000E+00 -0.11688127658E+03  0.11688127658E+03  0.00000000000E+00 0. -1.
         23    2    1    2    0    0  0.83848130203E+02 -0.26649118084E+01  0.36786816846E+02  0.15504185732E+03  0.12508835651E+03 0.  0.
         23    2    1    2    0    0 -0.83848130203E+02  0.26649118084E+01  0.83248816612E+01  0.12383239433E+03  0.90705829682E+02 0.  0.
          5    1    3    3  502    0  0.19648577864E+00  0.50702970212E+02  0.18007836367E+02  0.53968364488E+02  0.41800000000E+01 0. -1.
         -5    1    3    3    0  502  0.83651644424E+02 -0.53367882020E+02  0.18778980479E+02  0.10107349284E+03  0.41800000000E+01 0. -1.
        -11    1    4    4    0    0 -0.75707815682E+02  0.39492972503E+02  0.10610543086E+02  0.86046219307E+02  0.00000000000E+00 0.  1.
         11    1    4    4    0    0 -0.81403145216E+01 -0.36828060695E+02 -0.22856614244E+01  0.37786175027E+02  0.00000000000E+00 0. -1.
</event>
<event>
 8    1  0.8619230E-006  0.9424034E+02  0.7561462E-02  0.1292896E+00
          2   -1    0    0  501    0  0.00000000000E+00  0.00000000000E+00  0.49090366501E+02  0.49090366501E+02  0.00000000000E+00 0. -1.
         -2   -1    0    0    0  501 -0.00000000000E+00 -0.00000000000E+00 -0.27592369251E+03  0.27592369251E+03  0.00000000000E+00 0.  1.
         23    2    1    2    0    0 -0.90836098075E+01 -0.38222530513E+02 -0.14495014144E+03  0.19545562418E+03  0.12509549839E+03 0.  0.
         23    2    1    2    0    0  0.90836098075E+01  0.38222530513E+02 -0.81883184572E+02  0.12955843483E+03  0.92396202914E+02 0.  0.
          5    1    3    3  502    0  0.16784374150E+02  0.18920856011E+02  0.10555485194E+02  0.27723720448E+02  0.41800000000E+01 0.  1.
         -5    1    3    3    0  502 -0.25867983957E+02 -0.57143386524E+02 -0.15550562663E+03  0.16773190374E+03  0.41800000000E+01 0.  1.
        -11    1    4    4    0    0 -0.41631546961E+02  0.15792125446E+02 -0.42399737503E+02  0.61484263586E+02  0.00000000000E+00 0. -1.
         11    1    4    4    0    0  0.50715156768E+02  0.22430405067E+02 -0.39483447069E+02  0.68074171239E+02  0.00000000000E+00 0.  1.
</event>
<event>
 8    1  0.8619230E-006  0.1567979E+03  0.7561462E-02  0.1192360E+00
         -1   -1    0    0    0  501 -0.00000000000E+00  0.00000000000E+00  0.61622768628E+02  0.61622768628E+02  0.00000000000E+00 0.  1.
          1   -1    0    0  501    0  0.00000000000E+00 -0.00000000000E+00 -0.55888772409E+03  0.55888772409E+03  0.00000000000E+00 0. -1.
         23    2    1    2    0    0  0.56742948047E+01 -0.13618811329E+03 -0.19845799215E+03  0.27131380246E+03  0.12508479096E+03 0.  0.
         23    2    1    2    0    0 -0.56742948047E+01  0.13618811329E+03 -0.29880696331E+03  0.34919669026E+03  0.11863105556E+03 0.  0.
          5    1    3    3  502    0  0.96507951868E+01 -0.42383387855E+02 -0.16636891563E+03  0.17200458686E+03  0.41800000000E+01 0.  1.
         -5    1    3    3    0  502 -0.39765003821E+01 -0.93804725440E+02 -0.32089076522E+02  0.99309215595E+02  0.41800000000E+01 0.  1.
        -11    1    4    4    0    0  0.52024850116E+02  0.49504301232E+02 -0.16253770122E+03  0.17769570954E+03  0.00000000000E+00 0. -1.
         11    1    4    4    0    0 -0.57699144921E+02  0.86683812063E+02 -0.13626926209E+03  0.17150098072E+03  0.00000000000E+00 0.  1.
</event>
<event>
 8    1  0.8619230E-006  0.7906148E+02  0.7561462E-02  0.1331736E+00
          2   -1    0    0  501    0  0.00000000000E+00  0.00000000000E+00  0.11114476528E+03  0.11114476528E+03  0.00000000000E+00 0. -1.
         -2   -1    0    0    0  501 -0.00000000000E+00 -0.00000000000E+00 -0.11746750592E+03  0.11746750592E+03  0.00000000000E+00 0.  1.
         23    2    1    2    0    0 -0.78544518888E+00 -0.14966316978E+01 -0.45509549832E+02  0.13311024776E+03  0.12507742443E+03 0.  0.
         23    2    1    2    0    0  0.78544518888E+00  0.14966316978E+01  0.39186809191E+02  0.95502023439E+02  0.87075677636E+02 0.  0.
          5    1    3    3  502    0  0.20052643250E+02 -0.58214881621E+02 -0.36975285178E+02  0.71942512171E+02  0.41800000000E+01 0. -1.
         -5    1    3    3    0  502 -0.20838088439E+02  0.56718249923E+02 -0.85342646540E+01  0.61167735591E+02  0.41800000000E+01 0. -1.
        -11    1    4    4    0    0 -0.17441082141E+02 -0.85726002209E+00 -0.24009302550E+02  0.29687924312E+02  0.00000000000E+00 0.  1.
         11    1    4    4    0    0  0.18226527330E+02  0.23538917199E+01  0.63196111741E+02  0.65814099127E+02  0.00000000000E+00 0. -1.
</event>
<event>
 8    1  0.8619230E-006  0.9640744E+02  0.7561462E-02  0.1288037E+00
          2   -1    0    0  501    0  0.00000000000E+00  0.00000000000E+00  0.26497009940E+03  0.26497009940E+03  0.00000000000E+00 0. -1.
         -2   -1    0    0    0  501 -0.00000000000E+00 -0.00000000000E+00 -0.45524310873E+02  0.45524310873E+02  0.00000000000E+00 0.  1.
         23    2    1    2    0    0 -0.23717296930E+02  0.77379771894E+01  0.79169287315E+02  0.14268763030E+03  0.11605859434E+03 0.  0.
         23    2    1    2    0    0  0.23717296930E+02 -0.77379771894E+01  0.14027650122E+03  0.16780677998E+03  0.88652310458E+02 0.  0.
          5    1    3    3  502    0 -0.53443604478E+02  0.37068125210E+02  0.76693169626E+02  0.10064581180E+03  0.41800000000E+01 0. -1.
         -5    1    3    3    0  502  0.29726307548E+02 -0.29330148021E+02  0.24761176888E+01  0.42041818492E+02  0.41800000000E+01 0.  1.
        -11    1    4    4    0    0  0.24742131609E+02 -0.43419975650E+02  0.11066914111E+03  0.12142951106E+03  0.00000000000E+00 0.  1.
         11    1    4    4    0    0 -0.10248346786E+01  0.35681998461E+02  0.29607360109E+02  0.46377268924E+02  0.00000000000E+00 0. -1.
</event>
<event>
 7    1  0.8619230E-006  0.1241066E+03  0.7561462E-02  0.1236472E+00
          1   -1    0    0  501    0  0.00000000000E+00  0.00000000000E+00  0.17409077808E+03  0.17409077808E+03  0.00000000000E+00 0. -1.
         -1   -1    0    0    0  501 -0.00000000000E+00 -0.00000000000E+00 -0.12212139094E+03  0.12212139094E+03  0.00000000000E+00 0.  1.
         23    2    1    2    0    0 -0.40794110505E+02  0.65574284486E+02  0.23383489506E+02  0.11754254888E+03  0.85471147054E+02 0.  0.
          5    1    1    2  502    0 -0.51850763145E+02  0.52770522761E+01  0.33088210650E+02  0.61876093958E+02  0.41800000000E+01 0. -1.
         -5    1    1    2    0  502  0.92644873650E+02 -0.70851336762E+02 -0.45023130154E+01  0.11679352618E+03  0.41800000000E+01 0.  1.
        -11    1    3    3    0    0 -0.35953606701E+02  0.42611390049E+02  0.54901865466E+02  0.78247090861E+02  0.00000000000E+00 0. -1.
         11    1    3    3    0    0 -0.48405038047E+01  0.22962894437E+02 -0.31518375960E+02  0.39295458022E+02  0.00000000000E+00 0.  1.
</event>
<event>
 8    1  0.8619230E-006  0.1032956E+03  0.7561462E-02  0.1273515E+00
          2   -1    0    0  501    0  0.00000000000E+00  0.00000000000E+00  0.26505651040E+03  0.26505651040E+03  0.00000000000E+00 0.  1.
         -2   -1    0    0    0  501 -0.00000000000E+00 -0.00000000000E+00 -0.53368986639E+02  0.53368986639E+02  0.00000000000E+00 0. -1.
         23    2    1    2    0    0  0.48786483009E+02 -0.25103999701E+02  0.12419608609E+03  0.18461190850E+03  0.12508619922E+03 0.  0.
         23    2    1    2    0    0 -0.48786483009E+02  0.25103999701E+02  0.87491437675E+02  0.13381358854E+03  0.85094024978E+02 0.  0.
          5    1    3    3  502    0  0.86845723283E+02 -0.63306126367E+01  0.10847405330E+03  0.13916303011E+03  0.41800000000E+01 0. -1.
         -5    1    3    3    0  502 -0.38059240274E+02 -0.18773387064E+02  0.15722032787E+02  0.45448878392E+02  0.41800000000E+01 0. -1.
        -11    1    4    4    0    0  0.52674457868E+01  0.22007687556E+02  0.74875878738E+02  0.78220723044E+02  0.00000000000E+00 0.  1.
         11    1    4    4    0    0 -0.54053928795E+02  0.30963121451E+01  0.12615558936E+02  0.55592865499E+02  0.00000000000E+00 0. -1.
</event>
<event>
 8    1  0.8619230E-006  0.1076901E+03  0.7561462E-02  0.1264908E+00
          2   -1    0    0  501    0  0.00000000000E+00  0.00000000000E+00  0.13386537940E+03  0.13386537940E+03  0.00000000000E+00 0.  1.
         -2   -1    0    0    0  501 -0.00000000000E+00 -0.00000000000E+00 -0.10352152388E+03  0.10352152388E+03  0.00000000000E+00 0. -1.
         23    2    1    2    0    0  0.30002814464E+02  0.32954785916E+02  0.46529350458E+01  0.13286093095E+03  0.12507673795E+03 0.  0.
         23    2    1    2    0    0 -0.30002814464E+02 -0.32954785916E+02  0.25690920475E+02  0.10452597234E+03  0.90991585918E+02 0.  0.
          5    1    3    3  502    0  0.68287843008E+02 -0.14785559436E+02  0.12233841180E+02  0.71056185800E+02  0.41800000000E+01 0. -1.
         -5    1    3    3    0  502 -0.38285028544E+02  0.47740345353E+02 -0.75809061345E+01  0.61804745148E+02  0.41800000000E+01 0. -1.
        -11    1    4    4    0    0 -0.52894935526E+02 -0.15078896047E+02  0.43788638445E+02  0.70304282709E+02  0.00000000000E+00 0.  1.
         11    1    4    4    0    0  0.22892121062E+02 -0.17875889870E+02 -0.18097717971E+02  0.34221689630E+02  0.00000000000E+00 0. -1.
</event>
<event>
 8    1  0.8619230E-006  0.1179598E+03  0.7561462E-02  0.1246501E+00
          2   -1    0    0  501    0  0.00000000000E+00  0.00000000000E+00  0.20182493486E+03  0.20182493486E+03  0.00000000000E+00 0. -1.
         -2   -1    0    0    0  501 -0.00000000000E+00 -0.00000000000E+00 -0.81734220288E+02  0.81734220288E+02  0.00000000000E+00 0.  1.
         23    2    1    2    0    0  0.33162575252E+02  0.59174410591E+02  0.55342543237E+02  0.15267938903E+03  0.12508729542E+03 0.  0.
         23    2    1    2    0    0 -0.33162575252E+02 -0.59174410591E+02  0.64748171332E+02  0.13087976612E+03  0.91300713151E+02 0.  0.
          5    1    3    3  502    0  0.35785650591E+01  0.89971385776E+02  0.10721625288E+02  0.90774897605E+02  0.41800000000E+01 0. -1.
         -5    1    3    3    0  502  0.29584010193E+02 -0.30796975185E+02  0.44620917949E+02  0.61904491423E+02  0.41800000000E+01 0. -1.
        -11    1    4    4    0    0  0.16174739736E+02 -0.50178390194E+02  0.51249847408E+01  0.52969411141E+02  0.00000000000E+00 0.  1.
         11    1    4    4    0    0 -0.49337314988E+02 -0.89960203970E+01  0.59623186592E+02  0.77910354977E+02  0.00000000000E+00 0. -1.
</event>
<event>
 8    1  0.8619230E-006  0.9073944E+02  0.7561462E-02  0.1301071E+00
          2   -1    0    0  501    0  0.00000000000E+00  0.00000000000E+00  0.28720364629E+03  0.28720364629E+03  0.00000000000E+00 0. -1.
         -2   -1    0    0    0  501 -0.00000000000E+00 -0.00000000000E+00 -0.58050490914E+02  0.58050490914E+02  0.00000000000E+00 0.  1.
         23    2    1    2    0    0  0.26845551896E+02 -0.33853526697E+02  0.52939249112E+02  0.14253343834E+03  0.12508585860E+03 0.  0.
         23    2    1    2    0    0 -0.26845551896E+02  0.33853526697E+02  0.17621390627E+03  0.20272069887E+03  0.90430061712E+02 0.  0.
          5    1    3    3  502    0  0.40722844623E+02 -0.63262820579E+02  0.72323986236E+02  0.10444503783E+03  0.41800000000E+01 0. -1.
         -5    1    3    3    0  502 -0.13877292727E+02  0.29409293882E+02 -0.19384737124E+02  0.38088400511E+02  0.41800000000E+01 0. -1.
        -11    1    4    4    0    0 -0.37412063617E+02 -0.48196358483E+00  0.15813976614E+03  0.16250563199E+03  0.00000000000E+00 0. -1.
         11    1    4    4    0    0  0.10566511721E+02  0.34335490282E+02  0.18074140126E+02  0.40215066879E+02  0.00000000000E+00 0.  1.
</event>
<event>
 8    1  0.8619230E-006  0.1116887E+03  0.7561462E-02  0.1257474E+00
         -1   -1    0    0    0  501 -0.00000000000E+00  0.00000000000E+00  0.26111756257E+02  0.26111756257E+02  0.00000000000E+00 0.  1.
          1   -1    0    0  501    0  0.00000000000E+00 -0.00000000000E+00 -0.50786794707E+03  0.50786794707E+03  0.00000000000E+00 0. -1.
         23    2    1    2    0    0 -0.15989703367E+02  0.27529048530E+02 -0.23634322355E+03  0.26929336063E+03  0.12508907080E+03 0.  0.
         23    2    1    2    0    0  0.15989703367E+02 -0.27529048530E+02 -0.24541296727E+03  0.26468634271E+03  0.93903228826E+02 0.  0.
          5    1    3    3  502    0  0.49537921370E+02 -0.13283350584E+02 -0.10366230152E+03  0.11573157828E+03  0.41800000000E+01 0. -1.
         -5    1    3    3    0  502 -0.65527624737E+02  0.40812399114E+02 -0.13268092203E+03  0.15356178234E+03  0.41800000000E+01 0. -1.
        -11    1    4    4    0    0 -0.17057356294E+01 -0.58721464551E+02 -0.11119000090E+03  0.12575506445E+03  0.00000000000E+00 0.  1.
         11    1    4    4    0    0  0.17695438997E+02  0.31192416020E+02 -0.13422296637E+03  0.13893127826E+03  0.00000000000E+00 0. -1.
</event>
<event>
 8    1  0.1323202E-005  0.3062766E+03  0.7561462E-02  0.1082144E+00
          2   -1    0    0  501    0  0.00000000000E+00  0.00000000000E+00  0.47225057180E+03  0.47225057180E+03  0.00000000000E+00 0. -1.
         -2   -1    0    0    0  501 -0.00000000000E+00 -0.00000000000E+00 -0.22359260801E+03  0.22359260801E+03  0.00000000000E+00 0.  1.
         23    2    1    2    0    0 -0.25316017592E+02 -0.30419578284E+03  0.14588721165E+03  0.36070306302E+03  0.12509055162E+03 0.  0.
         23    2    1    2    0    0  0.25316017592E+02  0.30419578284E+03  0.10277075214E+03  0.33514011679E+03  0.92634201797E+02 0.  0.
          5    1    3    3  502    0 -0.32667612877E+02 -0.26326174944E+03  0.70527749495E+02  0.27452788110E+03  0.41800000000E+01 0.  1.
         -5    1    3    3    0  502  0.73515952846E+01 -0.40934033402E+02  0.75359462154E+02  0.86175181925E+02  0.41800000000E+01 0.  1.
        -11    1    4    4    0    0  0.16229409107E+02  0.24653135319E+03  0.11945352113E+03  0.27442712245E+03  0.00000000000E+00 0.  1.
         11    1    4    4    0    0  0.90866084853E+01  0.57664429650E+02 -0.16682768991E+02  0.60712994341E+02  0.00000000000E+00 0. -1.
</event>
<event>
 8    1  0.8619230E-006  0.8143330E+02  0.7561462E-02  0.1325032E+00
         -1   -1    0    0    0  501 -0.00000000000E+00  0.00000000000E+00  0.14032053528E+03  0.14032053528E+03  0.00000000000E+00 0.  1.
          1   -1    0    0  501    0  0.00000000000E+00 -0.00000000000E+00 -0.10371022635E+03  0.10371022635E+03  0.00000000000E+00 0. -1.
         23    2    1    2    0    0 -0.53609894250E+02  0.36457167789E+02  0.36825844979E+02  0.14563096712E+03  0.12509632241E+03 0.  0.
         23    2    1    2    0    0  0.53609894250E+02 -0.36457167789E+02 -0.21553605216E+00  0.98399794509E+02  0.74022478065E+02 0.  0.
          5    1    3    3  502    0 -0.50914505740E+02  0.29970851616E+02  0.81202408457E+02  0.10050792198E+03  0.41800000000E+01 0. -1.
         -5    1    3    3    0  502 -0.26953885100E+01  0.64863161728E+01 -0.44376563477E+02  0.45123045141E+02  0.41800000000E+01 0. -1.
        -11    1    4    4    0    0  0.12678229612E+02  0.21232089396E+02  0.10484351115E+02  0.26860021305E+02  0.00000000000E+00 0.  1.
         11    1    4    4    0    0  0.40931664639E+02 -0.57689257185E+02 -0.10699887167E+02  0.71539773204E+02  0.00000000000E+00 0. -1.
</event>
<event>
 8    1  0.8619230E-006  0.9690372E+02  0.7561462E-02  0.1286945E+00
         -2   -1    0    0    0  501 -0.00000000000E+00  0.00000000000E+00  0.27150898346E+03  0.27150898346E+03  0.00000000000E+00 0.  1.
          2   -1    0    0  501    0  0.00000000000E+00 -0.00000000000E+00 -0.45290077010E+02  0.45290077010E+02  0.00000000000E+00 0. -1.
         23    2    1    2    0    0 -0.22839090184E+01  0.10621230630E+02  0.16622992720E+03  0.20832355249E+03  0.12509311350E+03 0.  0.
         23    2    1    2    0    0  0.22839090184E+01 -0.10621230630E+02  0.59988979245E+02  0.10847550798E+03  0.89723081866E+02 0.  0.
          5    1    3    3  502    0 -0.45275269297E+02 -0.21096147044E+02  0.22525365604E+02  0.54952360510E+02  0.41800000000E+01 0.  1.
         -5    1    3    3    0  502  0.42991360279E+02  0.31717377674E+02  0.14370456160E+03  0.15337119198E+03  0.41800000000E+01 0.  1.
        -11    1    4    4    0    0 -0.28176829071E+02  0.28790551423E+02  0.31107334908E+02  0.50896913785E+02  0.00000000000E+00 0. -1.
         11    1    4    4    0    0  0.30460738090E+02 -0.39411782053E+02  0.28881644337E+02  0.57578594192E+02  0.00000000000E+00 0.  1.
</event>
<event>
 8    1  0.8619230E-006  0.1246388E+03  0.7561462E-02  0.1235635E+00
          1   -1    0    0  501    0  0.00000000000E+00  0.00000000000E+00  0.47855518151E+03  0.47855518151E+03  0.00000000000E+00 0. -1.
         -1   -1    0    0    0  501 -0.00000000000E+00 -0.00000000000E+00 -0.45379765206E+02  0.45379765206E+02  0.00000000000E+00 0.  1.
         23    2    1    2    0    0  0.53400013676E+02 -0.38794544492E+02  0.10249414670E+03  0.17466898383E+03  0.12509046991E+03 0.  0.
         23    2    1    2    0    0 -0.53400013676E+02  0.38794544492E+02  0.33068126961E+03  0.34926596289E+03  0.90994684565E+02 0.  0.
          5    1    3    3  502    0  0.91435324039E+02 -0.94274565549E+01  0.77711345964E+02  0.12044011421E+03  0.41800000000E+01 0.  1.
         -5    1    3    3    0  502 -0.38035310363E+02 -0.29367087938E+02  0.24782800736E+02  0.54228869624E+02  0.41800000000E+01 0.  1.
        -11    1    4    4    0    0 -0.68976038211E+02  0.19247206053E+01  0.16558514996E+03  0.17938740280E+03  0.00000000000E+00 0. -1.
         11    1    4    4    0    0  0.15576024535E+02  0.36869823887E+02  0.16509611965E+03  0.16987856009E+03  0.00000000000E+00 0.  1.
</event>
<event>
 8    1  0.8619230E-006  0.2702166E+03  0.7561462E-02  0.1101156E+00
          1   -1    0    0  501    0  0.00000000000E+00  0.00000000000E+00  0.21273436047E+04  0.21273436047E+04  0.00000000000E+00 0. -1.
         -1   -1    0    0    0  501 -0.00000000000E+00 -0.00000000000E+00 -0.38355263107E+02  0.38355263107E+02  0.00000000000E+00 0.  1.
         23    2    1    2    0    0  0.23927409566E+03  0.10282275271E+03  0.92392791735E+03  0.96804720404E+03  0.12509189210E+03 0.  0.
         23    2    1    2    0    0 -0.23927409566E+03 -0.10282275271E+03  0.11650604242E+04  0.11976516637E+04  0.95807641918E+02 0.  0.
          5    1    3    3  502    0  0.17129547201E+03  0.55703467280E+02  0.41498807637E+03  0.45241307554E+03  0.41800000000E+01 0.  1.
         -5    1    3    3    0  502  0.67978623650E+02  0.47119285430E+02  0.50893984098E+03  0.51563412850E+03  0.41800000000E+01 0.  1.
        -11    1    4    4    0    0 -0.10326598542E+03 -0.96421387314E+02  0.60504702263E+03  0.62132346429E+03  0.00000000000E+00 0. -1.
         11    1    4    4    0    0 -0.13600811023E+03 -0.64013653964E+01  0.56001340157E+03  0.57632819944E+03  0.00000000000E+00 0.  1.
</event>
<event>
 8    1  0.8619230E-006  0.8228165E+02  0.7561462E-02  0.1322698E+00
         -2   -1    0    0    0  501 -0.00000000000E+00  0.00000000000E+00  0.22082412837E+02  0.22082412837E+02  0.00000000000E+00 0.  1.
          2   -1    0    0  501    0  0.00000000000E+00 -0.00000000000E+00 -0.49602162520E+03  0.49602162520E+03  0.00000000000E+00 0. -1.
         23    2    1    2    0    0  0.12312504984E+02  0.19089476998E+02 -0.25120493589E+03  0.27697709369E+03  0.11443943683E+03 0.  0.
         23    2    1    2    0    0 -0.12312504984E+02 -0.19089476998E+02 -0.22273427648E+03  0.24112694435E+03  0.89530103677E+02 0.  0.
          5    1    3    3  502    0 -0.28666807773E+02 -0.40663228352E+01 -0.21619867765E+03  0.21816888290E+03  0.41800000000E+01 0. -1.
         -5    1    3    3    0  502  0.40979312757E+02  0.23155799834E+02 -0.35006258242E+02  0.58808210788E+02  0.41800000000E+01 0.  1.
        -11    1    4    4    0    0 -0.29025251951E+02 -0.47165669187E+02 -0.17275609555E+03  0.18141591482E+03  0.00000000000E+00 0. -1.
         11    1    4    4    0    0  0.16712746967E+02  0.28076192189E+02 -0.49978180925E+02  0.59711029530E+02  0.00000000000E+00 0.  1.
</event>
<event>
 8    1  0.8619230E-006  0.1422523E+03  0.7561462E-02  0.1210330E+00
          2   -1    0    0  501    0  0.00000000000E+00  0.00000000000E+00  0.90337857553E+03  0.90337857553E+03  0.00000000000E+00 0. -1.
         -2   -1    0    0    0  501 -0.00000000000E+00 -0.00000000000E+00 -0.32948825291E+02  0.32948825291E+02  0.00000000000E+00 0.  1.
         23    2    1    2    0    0 -0.10099737081E+03  0.17032760247E+02  0.22305373531E+03  0.27502387662E+03  0.12407489691E+03 0.  0.
         23    2    1    2    0    0  0.10099737081E+03 -0.17032760247E+02  0.64737601493E+03  0.66130352420E+03  0.87954889488E+02 0.  0.
          5    1    3    3  502    0 -0.51770274479E+01  0.49195021791E+02  0.12345149566E+03  0.13305899429E+03  0.41800000000E+01 0. -1.
         -5    1    3    3    0  502 -0.95820343363E+02 -0.32162261544E+02  0.99602239652E+02  0.14196488232E+03  0.41800000000E+01 0.  1.
        -11    1    4    4    0    0  0.86008904053E+02  0.24595823905E+02  0.47425082262E+03  0.48261405791E+03  0.00000000000E+00 0. -1.
         11    1    4    4    0    0  0.14988466758E+02 -0.41628584152E+02  0.17312519230E+03  0.17868946629E+03  0.00000000000E+00 0.  1.
</event>
<event>
 8    1  0.8619230E-006  0.1261414E+03  0.7561462E-02  0.1233296E+00
         -1   -1    0    0    0  501 -0.00000000000E+00  0.00000000000E+00  0.34512613881E+03  0.34512613881E+03  0.00000000000E+00 0.  1.
          1   -1    0    0  501    0  0.00000000000E+00 -0.00000000000E+00 -0.64131385915E+02  0.64131385915E+02  0.00000000000E+00 0. -1.
         23    2    1    2    0    0 -0.54326227574E+02 -0.79620058970E+02  0.12732226543E+03  0.20285008194E+03  0.12508598513E+03 0.  0.
         23    2    1    2    0    0  0.54326227574E+02  0.79620058970E+02  0.15367248747E+03  0.20640744279E+03  0.98478963443E+02 0.  0.
          5    1    3    3  502    0 -0.60424543482E+02  0.13849603560E+02  0.66921771720E+02  0.91317757878E+02  0.41800000000E+01 0.  1.
         -5    1    3    3    0  502  0.60983159076E+01 -0.93469662530E+02  0.60400493706E+02  0.11153232406E+03  0.41800000000E+01 0.  1.
        -11    1    4    4    0    0  0.22602418898E+02  0.33450910651E+02 -0.25436167854E+01  0.40451239162E+02  0.00000000000E+00 0. -1.
         11    1    4    4    0    0  0.31723808676E+02  0.46169148319E+02  0.15621610426E+03  0.16595620363E+03  0.00000000000E+00 0.  1.
</event>
<event>
 7    1  0.8619230E-006  0.2457991E+03  0.7561462E-02  0.1115989E+00
          2   -1    0    0  501    0  0.00000000000E+00  0.00000000000E+00  0.39770633692E+03  0.39770633692E+03  0.00000000000E+00 0. -1.
         -2   -1    0    0    0  501 -0.00000000000E+00 -0.00000000000E+00 -0.28517151636E+03  0.28517151636E+03  0.00000000000E+00 0.  1.
         23    2    1    2    0    0 -0.23987791003E+02  0.12201886808E+02  0.20702606274E+03  0.22768855221E+03  0.90873461457E+02 0.  0.
          5    1    1    2  502    0 -0.12766327047E+03  0.13783404753E+03 -0.14328325875E+03  0.23631271639E+03  0.41800000000E+01 0. -1.
         -5    1    1    2    0  502  0.15165106148E+03 -0.15003593434E+03  0.48792016583E+02  0.21887658468E+03  0.41800000000E+01 0.  1.
        -11    1    3    3    0    0 -0.55574660635E+02  0.17536952898E+02  0.16400426727E+03  0.17405024362E+03  0.00000000000E+00 0. -1.
         11    1    3    3    0    0  0.31586869632E+02 -0.53350660904E+01  0.43021795466E+02  0.53638308591E+02  0.00000000000E+00 0.  1.
</event>
<event>
 8    1  0.8619230E-006  0.2779832E+03  0.7561462E-02  0.1096796E+00
          1   -1    0    0  501    0  0.00000000000E+00  0.00000000000E+00  0.11918542797E+04  0.11918542797E+04  0.00000000000E+00 0. -1.
         -1   -1    0    0    0  501 -0.00000000000E+00 -0.00000000000E+00 -0.88554304766E+02  0.88554304766E+02  0.00000000000E+00 0.  1.
         23    2    1    2    0    0  0.25214380647E+03  0.75110481790E+02  0.25311452756E+03  0.38590715718E+03  0.12505713208E+03 0.  0.
         23    2    1    2    0    0 -0.25214380647E+03 -0.75110481790E+02  0.85018544735E+03  0.89450142726E+03  0.89996804786E+02 0.  0.
          5    1    3    3  502    0  0.23433599282E+03  0.31424812330E+02  0.23963662076E+03  0.33666609388E+03  0.41800000000E+01 0. -1.
         -5    1    3    3    0  502  0.17807813655E+02  0.43685669461E+02  0.13477906809E+02  0.49241063305E+02  0.41800000000E+01 0. -1.
        -11    1    4    4    0    0 -0.21969555116E+03 -0.88739763966E+02  0.66374588823E+03  0.70476910052E+03  0.00000000000E+00 0.  1.
         11    1    4    4    0    0 -0.32448255311E+02  0.13629282175E+02  0.18643955912E+03  0.18973232674E+03  0.00000000000E+00 0. -1.
</event>
<event>
 8    1  0.8619230E-006  0.1467895E+03  0.7561462E-02  0.1204474E+00
         -1   -1    0    0    0  501 -0.00000000000E+00  0.00000000000E+00  0.35815535311E+02  0.35815535311E+02  0.00000000000E+00 0.  1.
          1   -1    0    0  501    0  0.00000000000E+00 -0.00000000000E+00 -0.72680710796E+03  0.72680710796E+03  0.00000000000E+00 0. -1.
         23    2    1    2    0    0  0.43983596974E+02  0.92451679635E+02 -0.22512920962E+03  0.27715010388E+03  0.12508856536E+03 0.  0.
         23    2    1    2    0    0 -0.43983596974E+02 -0.92451679635E+02 -0.46586236303E+03  0.48547253939E+03  0.90410040098E+02 0.  0.
          5    1    3    3  502    0  0.46255371055E+02 -0.15485343777E+02 -0.10330330846E+03  0.11431710791E+03  0.41800000000E+01 0.  1.
         -5    1    3    3    0  502 -0.22717740808E+01  0.10793702341E+03 -0.12182590117E+03  0.16283299597E+03  0.41800000000E+01 0.  1.
        -11    1    4    4    0    0  0.10659414655E+02 -0.79777139659E+02 -0.27218154631E+03  0.28383236124E+03  0.00000000000E+00 0. -1.
         11    1    4    4    0    0 -0.54643011629E+02 -0.12674539976E+02 -0.19368081671E+03  0.20164017816E+03  0.00000000000E+00 0.  1.
</event>
<event>
 8    1  0.8619230E-006  0.9831620E+02  0.7561462E-02  0.1283877E+00
          1   -1    0    0  501    0  0.00000000000E+00  0.00000000000E+00  0.11860443625E+03  0.11860443625E+03  0.00000000000E+00 0. -1.
         -1   -1    0    0    0  501 -0.00000000000E+00 -0.00000000000E+00 -0.13640421741E+03  0.13640421741E+03  0.00000000000E+00 0.  1.
         23    2    1    2    0    0 -0.52800469321E+02  0.13989076681E+02 -0.23694363866E+02  0.13853629023E+03  0.12508915623E+03 0.  0.
         23    2    1    2    0    0  0.52800469321E+02 -0.13989076681E+02  0.58945827052E+01  0.11647236343E+03  0.10270093237E+03 0.  0.
          5    1    3    3  502    0 -0.67363548420E+02  0.27126544232E+02  0.31905852101E+02  0.79430175979E+02  0.41800000000E+01 0.  1.
         -5    1    3    3    0  502  0.14563079099E+02 -0.13137467552E+02 -0.55600215967E+02  0.59106114253E+02  0.41800000000E+01 0.  1.
        -11    1    4    4    0    0  0.18988926277E+02 -0.50574313002E+02 -0.23187944578E+02  0.58787934396E+02  0.00000000000E+00 0.  1.
         11    1    4    4    0    0  0.33811543044E+02  0.36585236321E+02  0.29082527284E+02  0.57684429033E+02  0.00000000000E+00 0. -1.
</event>
<event>
 8    1  0.8619230E-006  0.1131229E+03  0.7561462E-02  0.1254894E+00
          3   -1    0    0  501    0  0.00000000000E+00  0.00000000000E+00  0.91054790145E+02  0.91054790145E+02  0.00000000000E+00 0. -1.
         -3   -1    0    0    0  501 -0.00000000000E+00 -0.00000000000E+00 -0.20259820075E+03  0.20259820075E+03  0.00000000000E+00 0.  1.
         23    2    1    2    0    0  0.75603775826E+02  0.26274654075E+02 -0.79438698976E+02  0.16841344078E+03  0.12508513810E+03 0.  0.
         23    2    1    2    0    0 -0.75603775826E+02 -0.26274654075E+02 -0.32104711632E+02  0.12523955012E+03  0.90818192225E+02 0.  0.
          5    1    3    3  502    0  0.16941013993E+02  0.69857898492E+02 -0.21762645929E+02  0.75221068157E+02  0.41800000000E+01 0.  1.
         -5    1    3    3    0  502  0.58662761833E+02 -0.43583244417E+02 -0.57676053046E+02  0.93192372621E+02  0.41800000000E+01 0.  1.
        -11    1    4    4    0    0 -0.56659064169E+02 -0.25357000249E+02 -0.63346840087E+02  0.88690750156E+02  0.00000000000E+00 0.  1.
         11    1    4    4    0    0 -0.18944711657E+02 -0.91765382586E+00  0.31242128455E+02  0.36548799963E+02  0.00000000000E+00 0. -1.
</event>
<event>
 8    1  0.8619230E-006  0.3885594E+03  0.7561462E-02  0.1047815E+00
          2   -1    0    0  501    0  0.00000000000E+00  0.00000000000E+00  0.24589268098E+04  0.24589268098E+04  0.00000000000E+00 0.  1.
         -2   -1    0    0    0  501 -0.00000000000E+00 -0.00000000000E+00 -0.66031921596E+02  0.66031921596E+02  0.00000000000E+00 0. -1.
         23    2    1    2    0    0 -0.26283571210E+03  0.28191652689E+03  0.13456748332E+04  0.14053636155E+04  0.12508635253E+03 0.  0.
         23    2    1    2    0    0  0.26283571210E+03 -0.28191652689E+03  0.10472200550E+04  0.11195951158E+04  0.90905665801E+02 0.  0.
          5    1    3    3  502    0 -0.40598558104E+02  0.44620176065E+02  0.41817809813E+03  0.42252762890E+03  0.41800000000E+01 0.  1.
         -5    1    3    3    0  502 -0.22223715400E+03  0.23729635082E+03  0.92749673503E+03  0.98283598664E+03  0.41800000000E+01 0.  1.
        -11    1    4    4    0    0  0.56932942580E+02 -0.10756717156E+03  0.25195937152E+03  0.27981347581E+03  0.00000000000E+00 0.  1.
         11    1    4    4    0    0  0.20590276952E+03 -0.17434935533E+03  0.79526068352E+03  0.83978164004E+03  0.00000000000E+00 0. -1.
</event>
<event>
 8    1  0.8619230E-006  0.1240441E+03  0.7561462E-02  0.1236571E+00
          1   -1    0    0  501    0  0.00000000000E+00  0.00000000000E+00  0.11253838973E+03  0.11253838973E+03  0.00000000000E+00 0. -1.
         -1   -1    0    0    0  501 -0.00000000000E+00 -0.00000000000E+00 -0.16578426980E+03  0.16578426980E+03  0.00000000000E+00 0.  1.
         23    2    1    2    0    0 -0.42514671169E+02  0.68395123314E+02 -0.51780053850E+02  0.15752546112E+03  0.12509079409E+03 0.  0.
         23    2    1    2    0    0  0.42514671169E+02 -0.68395123314E+02 -0.14658262160E+01  0.12079719841E+03  0.90024576305E+02 0.  0.
          5    1    3    3  502    0  0.31228603611E+02  0.36684544163E+02  0.17481590475E+02  0.51420422689E+02  0.41800000000E+01 0. -1.
         -5    1    3    3    0  502 -0.73743274781E+02  0.31710579151E+02 -0.69261644324E+02  0.10610503843E+03  0.41800000000E+01 0. -1.
        -11    1    4    4    0    0  0.60658527114E+02 -0.14339785268E+02 -0.10050186723E+02  0.63135509869E+02  0.00000000000E+00 0. -1.
         11    1    4    4    0    0 -0.18143855945E+02 -0.54055338046E+02  0.85843605067E+01  0.57661688539E+02  0.00000000000E+00 0.  1.
</event>
<event>
 8    1  0.8619230E-006  0.1022561E+03  0.7561462E-02  0.1275622E+00
          2   -1    0    0  501    0  0.00000000000E+00  0.00000000000E+00  0.43460694027E+02  0.43460694027E+02  0.00000000000E+00 0. -1.
         -2   -1    0    0    0  501 -0.00000000000E+00 -0.00000000000E+00 -0.48762271229E+03  0.48762271229E+03  0.00000000000E+00 0.  1.
         23    2    1    2    0    0 -0.29943240928E+02 -0.43205729037E+02 -0.40042318937E+03  0.41865232847E+03  0.11030733817E+03 0.  0.
         23    2    1    2    0    0  0.29943240928E+02  0.43205729037E+02 -0.43738828895E+02  0.11243107784E+03  0.89243091683E+02 0.  0.
          5    1    3    3  502    0  0.38167747494E+02 -0.11246180823E+02 -0.21159843669E+03  0.21534768247E+03  0.41800000000E+01 0. -1.
         -5    1    3    3    0  502 -0.68110988422E+02 -0.31959548214E+02 -0.18882475267E+03  0.20330464601E+03  0.41800000000E+01 0.  1.
        -11    1    4    4    0    0  0.87028760166E+01 -0.20353571139E+02 -0.39503608934E+02  0.45282922034E+02  0.00000000000E+00 0.  1.
         11    1    4    4    0    0  0.21240364912E+02  0.63559300177E+02 -0.42352199601E+01  0.67148155810E+02  0.00000000000E+00 0. -1.
</event>
<event>
 8    1  0.8619230E-006  0.1068300E+03  0.7561462E-02  0.1266555E+00
         -2   -1    0    0    0  501 -0.00000000000E+00  0.00000000000E+00  0.17800779148E+03  0.17800779148E+03  0.00000000000E+00 0. -1.
          2   -1    0    0  501    0  0.00000000000E+00 -0.00000000000E+00 -0.73068607726E+02  0.73068607726E+02  0.00000000000E+00 0.  1.
         23    2    1    2    0    0 -0.15325555561E+02 -0.19381792976E+02  0.86856935921E+02  0.15427829415E+03  0.12508852136E+03 0.  0.
         23    2    1    2    0    0  0.15325555561E+02  0.19381792976E+02  0.18082247833E+02  0.96798105054E+02  0.91827985403E+02 0.  0.
          5    1    3    3  502    0  0.24681106683E+02  0.43792352952E+02  0.49151397099E+02  0.70429109330E+02  0.41800000000E+01 0. -1.
         -5    1    3    3    0  502 -0.40006662244E+02 -0.63174145928E+02  0.37705538822E+02  0.83849184823E+02  0.41800000000E+01 0. -1.
        -11    1    4    4    0    0  0.32454471327E+02 -0.24860827451E+02 -0.94294922758E+01  0.41955557144E+02  0.00000000000E+00 0.  1.
         11    1    4    4    0    0 -0.17128915766E+02  0.44242620426E+02  0.27511740109E+02  0.54842547911E+02  0.00000000000E+00 0. -1.
</event>
<event>
 8    1  0.8619230E-006  0.2334637E+03  0.7561462E-02  0.1124225E+00
         -1   -1    0    0    0  501 -0.00000000000E+00  0.00000000000E+00  0.66677407533E+03  0.66677407533E+03  0.00000000000E+00 0.  1.
          1   -1    0    0  501    0  0.00000000000E+00 -0.00000000000E+00 -0.14598198479E+03  0.14598198479E+03  0.00000000000E+00 0. -1.
         23    2    1    2    0    0  0.19829098578E+03  0.88607921083E+02  0.52015995406E+03  0.57739446616E+03  0.12508922025E+03 0.  0.
         23    2    1    2    0    0 -0.19829098578E+03 -0.88607921083E+02  0.63213648052E+00  0.23536159396E+03  0.90686281167E+02 0.  0.
          5    1    3    3  502    0  0.10629091094E+02  0.52923414546E+02  0.71037183033E+02  0.89317518762E+02  0.41800000000E+01 0. -1.
         -5    1    3    3    0  502  0.18766189469E+03  0.35684506537E+02  0.44912277102E+03  0.48807694739E+03  0.41800000000E+01 0. -1.
        -11    1    4    4    0    0 -0.13522293523E+03 -0.82380289303E+02 -0.35694083994E+02  0.16231396092E+03  0.00000000000E+00 0.  1.
         11    1    4    4    0    0 -0.63068050553E+02 -0.62276317804E+01  0.36326220474E+02  0.73047633036E+02  0.00000000000E+00 0. -1.
</event>
<event>
 8    1  0.8619230E-006  0.2355587E+03  0.7561462E-02  0.1122787E+00
         -1   -1    0    0    0  501 -0.00000000000E+00  0.00000000000E+00  0.63728176760E+02  0.63728176760E+02  0.00000000000E+00 0.  1.
          1   -1    0    0  501    0  0.00000000000E+00 -0.00000000000E+00 -0.12600403269E+04  0.12600403269E+04  0.00000000000E+00 0. -1.
         23    2    1    2    0    0  0.22128819621E+03 -0.13977046612E+02 -0.28994476100E+03  0.38584875932E+03  0.12508987579E+03 0.  0.
         23    2    1    2    0    0 -0.22128819621E+03  0.13977046612E+02 -0.90636738913E+03  0.93791974433E+03  0.95014625717E+02 0.  0.
          5    1    3    3  502    0  0.16037031860E+03 -0.57588442067E+02 -0.24474930662E+03  0.29825285119E+03  0.41800000000E+01 0. -1.
         -5    1    3    3    0  502  0.60917877608E+02  0.43611395456E+02 -0.45195454375E+02  0.87595908135E+02  0.41800000000E+01 0. -1.
        -11    1    4    4    0    0 -0.94048650983E+02 -0.14731039616E+02 -0.22715058818E+03  0.24629157921E+03  0.00000000000E+00 0. -1.
         11    1    4    4    0    0 -0.12723954523E+03  0.28708086227E+02 -0.67921680095E+03  0.69162816511E+03  0.00000000000E+00 0.  1.
</event>
<event>
 8    1  0.8619230E-006  0.1730647E+03  0.7561462E-02  0.1174689E+00
         -2   -1    0    0    0  501 -0.00000000000E+00  0.00000000000E+00  0.33119311712E+02  0.33119311712E+02  0.00000000000E+00 0.  1.
          2   -1    0    0  501    0  0.00000000000E+00 -0.00000000000E+00 -0.13103644541E+04  0.13103644541E+04  0.00000000000E+00 0. -1.
         23    2    1    2    0    0  0.79810128687E+02 -0.13264333484E+03 -0.96266559583E+03  0.98302245869E+03  0.12507675229E+03 0.  0.
         23    2    1    2    0    0 -0.79810128687E+02  0.13264333484E+03 -0.31457954657E+03  0.36046130714E+03  0.83714705434E+02 0.  0.
          5    1    3    3  502    0  0.89984832612E+02 -0.82811076430E+02 -0.40640763867E+03  0.42442854009E+03  0.41800000000E+01 0.  1.
         -5    1    3    3    0  502 -0.10174703925E+02 -0.49832258413E+02 -0.55625795717E+03  0.55859391859E+03  0.41800000000E+01 0.  1.
        -11    1    4    4    0    0 -0.94728646957E+02  0.10569046996E+03 -0.22802281729E+03  0.26858592145E+03  0.00000000000E+00 0.  1.
         11    1    4    4    0    0  0.14918518270E+02  0.26952864888E+02 -0.86556729280E+02  0.91875385695E+02  0.00000000000E+00 0. -1.
</event>
<event>
 8    1  0.8619230E-006  0.1417381E+03  0.7561462E-02  0.1211009E+00
         -2   -1    0    0    0  501 -0.00000000000E+00  0.00000000000E+00  0.10339380132E+03  0.10339380132E+03  0.00000000000E+00 0.  1.
          2   -1    0    0  501    0  0.00000000000E+00 -0.00000000000E+00 -0.26427827969E+03  0.26427827969E+03  0.00000000000E+00 0. -1.
         23    2    1    2    0    0  0.11470326528E+03 -0.27483583065E+02 -0.46160107437E+02  0.17801681870E+03  0.12508815218E+03 0.  0.
         23    2    1    2    0    0 -0.11470326528E+03  0.27483583065E+02 -0.11472437093E+03  0.18965526231E+03  0.94314637417E+02 0.  0.
          5    1    3    3  502    0  0.25087779910E+02  0.32703301155E+02 -0.55864415757E+02  0.69550039217E+02  0.41800000000E+01 0. -1.
         -5    1    3    3    0  502  0.89615485374E+02 -0.60186884220E+02  0.97043083201E+01  0.10846677948E+03  0.41800000000E+01 0. -1.
        -11    1    4    4    0    0 -0.72285843770E+02  0.48126626182E+02 -0.28550430774E+02  0.91414126122E+02  0.00000000000E+00 0.  1.
         11    1    4    4    0    0 -0.42417421514E+02 -0.20643043117E+02 -0.86173940158E+02  0.98241136188E+02  0.00000000000E+00 0. -1.
</event>
<event>
 8    1  0.8619230E-006  0.1109269E+03  0.7561462E-02  0.1258863E+00
         -2   -1    0    0    0  501 -0.00000000000E+00  0.00000000000E+00  0.27769903446E+02  0.27769903446E+02  0.00000000000E+00 0.  1.
          2   -1    0    0  501    0  0.00000000000E+00 -0.00000000000E+00 -0.71618194308E+03  0.71618194308E+03  0.00000000000E+00 0. -1.
         23    2    1    2    0    0  0.85322997364E+02 -0.10662336105E+02 -0.45118745439E+03  0.47603549357E+03  0.12508386326E+03 0.  0.
         23    2    1    2    0    0 -0.85322997364E+02  0.10662336105E+02 -0.23722458525E+03  0.26791635296E+03  0.90055366565E+02 0.  0.
          5    1    3    3  502    0  0.90305748085E+02 -0.58085958624E+01 -0.15350009286E+03  0.17823753485E+03  0.41800000000E+01 0.  1.
         -5    1    3    3    0  502 -0.49827507215E+01 -0.48537402425E+01 -0.29768736153E+03  0.29779795872E+03  0.41800000000E+01 0.  1.
        -11    1    4    4    0    0 -0.21447505436E+02 -0.37466919355E+02 -0.10282585965E+03  0.11152095296E+03  0.00000000000E+00 0.  1.
         11    1    4    4    0    0 -0.63875491928E+02  0.48129255460E+02 -0.13439872559E+03  0.15639540000E+03  0.00000000000E+00 0. -1.
</event>
<event>
 8    1  0.8619230E-006  0.1179488E+03  0.7561462E-02  0.1246520E+00
         -3   -1    0    0    0  501 -0.00000000000E+00  0.00000000000E+00  0.79177606125E+02  0.79177606125E+02  0.00000000000E+00 0.  1.
          3   -1    0    0  501    0  0.00000000000E+00 -0.00000000000E+00 -0.44463542283E+03  0.44463542283E+03  0.00000000000E+00 0. -1.
         23    2    1    2    0    0  0.83661384844E+02 -0.59418417879E+02 -0.33916211527E+02  0.16531012321E+03  0.12508937498E+03 0.  0.
         23    2    1    2    0    0 -0.83661384844E+02  0.59418417879E+02 -0.33154160518E+03  0.35850290575E+03  0.89859455640E+02 0.  0.
          5    1    3    3  502    0  0.31200509171E+02 -0.47830393494E+02 -0.77251912356E+02  0.96158976060E+02  0.41800000000E+01 0. -1.
         -5    1    3    3    0  502  0.52460875672E+02 -0.11588024385E+02  0.43335700829E+02  0.69151147147E+02  0.41800000000E+01 0. -1.
        -11    1    4    4    0    0 -0.95344255577E+02  0.60653822936E+02 -0.32688461599E+03  0.34586553092E+03  0.00000000000E+00 0. -1.
         11    1    4    4    0    0  0.11682870733E+02 -0.12354050572E+01 -0.46569891889E+01  0.12637374827E+02  0.00000000000E+00 0.  1.
</event>
<event>
 8    1  0.8619230E-006  0.1061296E+03  0.7561462E-02  0.1267910E+00
         -1   -1    0    0    0  501 -0.00000000000E+00  0.00000000000E+00  0.32315315164E+02  0.32315315164E+02  0.00000000000E+00 0. -1.
          1   -1    0    0  501    0  0.00000000000E+00 -0.00000000000E+00 -0.42062545481E+03  0.42062545481E+03  0.00000000000E+00 0.  1.
         23    2    1    2    0    0  0.37777116097E+02 -0.20039367567E+02 -0.23166115246E+03  0.26671766847E+03  0.12507093332E+03 0.  0.
         23    2    1    2    0    0 -0.37777116097E+02  0.20039367567E+02 -0.15664898719E+03  0.18622310150E+03  0.91167162917E+02 0.  0.
          5    1    3    3  502    0  0.72788048844E+02 -0.33866767342E+02 -0.20556162445E+03  0.22072179736E+03  0.41800000000E+01 0. -1.
         -5    1    3    3    0  502 -0.35010932748E+02  0.13827399774E+02 -0.26099528007E+02  0.45995871104E+02  0.41800000000E+01 0. -1.
        -11    1    4    4    0    0 -0.34584783139E+02 -0.28827914000E+02 -0.10883595167E+03  0.11778123886E+03  0.00000000000E+00 0.  1.
         11    1    4    4    0    0 -0.31923329579E+01  0.48867281567E+02 -0.47813035513E+02  0.68441862646E+02  0.00000000000E+00 0. -1.
</event>
<event>
 8    1  0.8619230E-006  0.1000991E+03  0.7561462E-02  0.1280088E+00
          1   -1    0    0  501    0  0.00000000000E+00  0.00000000000E+00  0.75139721515E+02  0.75139721515E+02  0.00000000000E+00 0. -1.
         -1   -1    0    0    0  501 -0.00000000000E+00 -0.00000000000E+00 -0.20373087896E+03  0.20373087896E+03  0.00000000000E+00 0.  1.
         23    2    1    2    0    0 -0.43413588014E+02 -0.23520841510E+02 -0.10728598096E+03  0.17203341745E+03  0.12508894994E+03 0.  0.
         23    2    1    2    0    0  0.43413588014E+02  0.23520841510E+02 -0.21305176481E+02  0.10683718302E+03  0.92316323162E+02 0.  0.
          5    1    3    3  502    0 -0.72325563426E+02 -0.25368999452E+02 -0.19077126184E+02  0.79094768484E+02  0.41800000000E+01 0.  1.
         -5    1    3    3    0  502  0.28911975412E+02  0.18481579417E+01 -0.88208854777E+02  0.92938648963E+02  0.41800000000E+01 0.  1.
        -11    1    4    4    0    0  0.22110981916E+02 -0.29592986751E+02  0.14103690867E+02  0.39541806765E+02  0.00000000000E+00 0. -1.
         11    1    4    4    0    0  0.21302606098E+02  0.53113828261E+02 -0.35408867348E+02  0.67295376260E+02  0.00000000000E+00 0.  1.
</event>
<event>
 8    1  0.8619230E-006  0.1637773E+03  0.7561462E-02  0.1184497E+00
          2   -1    0    0  501    0  0.00000000000E+00  0.00000000000E+00  0.46545916714E+03  0.46545916714E+03  0.00000000000E+00 0. -1.
         -2   -1    0    0    0  501 -0.00000000000E+00 -0.00000000000E+00 -0.76130436978E+02  0.76130436978E+02  0.00000000000E+00 0.  1.
         23    2    1    2    0    0 -0.10083026011E+03 -0.76219396269E+02  0.78630113446E+02  0.19443814135E+03  0.12508940144E+03 0.  0.
         23    2    1    2    0    0  0.10083026011E+03  0.76219396269E+02  0.31069861671E+03  0.34715146276E+03  0.89467144525E+02 0.  0.
          5    1    3    3  502    0 -0.93435819757E+02 -0.10919492428E+03  0.63128831410E+02  0.15702390155E+03  0.41800000000E+01 0.  1.
         -5    1    3    3    0  502 -0.73944403498E+01  0.32975528009E+02  0.15501282036E+02  0.37414239807E+02  0.41800000000E+01 0.  1.
        -11    1    4    4    0    0  0.11468940932E+03  0.71170452164E+02  0.24404251573E+03  0.27888284880E+03  0.00000000000E+00 0.  1.
         11    1    4    4    0    0 -0.13859149218E+02  0.50489441047E+01  0.66656100985E+02  0.68268613961E+02  0.00000000000E+00 0. -1.
</event>
<event>
 8    1  0.8619230E-006  0.1386901E+03  0.7561462E-02  0.1215102E+00
         -1   -1    0    0    0  501 -0.00000000000E+00  0.00000000000E+00  0.11520780807E+03  0.11520780807E+03  0.00000000000E+00 0.  1.
          1   -1    0    0  501    0  0.00000000000E+00 -0.00000000000E+00 -0.24206287438E+03  0.24206287438E+03  0.00000000000E+00 0. -1.
         23    2    1    2    0    0 -0.12251078492E+03  0.21031958525E+02 -0.42329424567E+02  0.18135799210E+03  0.12509078867E+03 0.  0.
         23    2    1    2    0    0  0.12251078492E+03 -0.21031958525E+02 -0.84525641740E+02  0.17591269036E+03  0.91375351244E+02 0.  0.
          5    1    3    3  502    0 -0.94084177614E+02  0.16555246940E+02 -0.86190571370E+02  0.12873304033E+03  0.41800000000E+01 0. -1.
         -5    1    3    3    0  502 -0.28426607310E+02  0.44767115843E+01  0.43861146803E+02  0.52624951769E+02  0.41800000000E+01 0. -1.
        -11    1    4    4    0    0  0.11197765530E+03 -0.49422129285E+02 -0.77354920163E+02  0.14479408076E+03  0.00000000000E+00 0. -1.
         11    1    4    4    0    0  0.10533129629E+02  0.28390170760E+02 -0.71707215776E+01  0.31118609601E+02  0.00000000000E+00 0.  1.
</event>
<event>
 8    1  0.8619230E-006  0.1300594E+03  0.7561462E-02  0.1227368E+00
          1   -1    0    0  501    0  0.00000000000E+00  0.00000000000E+00  0.25805849733E+03  0.25805849733E+03  0.00000000000E+00 0. -1.
         -1   -1    0    0    0  501 -0.00000000000E+00 -0.00000000000E+00 -0.72627599535E+02  0.72627599535E+02  0.00000000000E+00 0.  1.
         23    2    1    2    0    0  0.24052856388E+02  0.81209449932E+02  0.83516797917E+02  0.17261602118E+03  0.12509084929E+03 0.  0.
         23    2    1    2    0    0 -0.24052856388E+02 -0.81209449932E+02  0.10191409988E+03  0.15807007568E+03  0.86175114819E+02 0.  0.
          5    1    3    3  502    0  0.42904095849E+02  0.10262780818E+03  0.35921170811E+02  0.11696594105E+03  0.41800000000E+01 0. -1.
         -5    1    3    3    0  502 -0.18851239461E+02 -0.21418358248E+02  0.47595627106E+02  0.55650080134E+02  0.41800000000E+01 0. -1.
        -11    1    4    4    0    0 -0.19866063439E+02 -0.99367348714E+02  0.78718610328E+02  0.12831660095E+03  0.00000000000E+00 0.  1.
         11    1    4    4    0    0 -0.41867929488E+01  0.18157898782E+02  0.23195489550E+02  0.29753474735E+02  0.00000000000E+00 0. -1.
</event>
<event>
 8    1  0.8619230E-006  0.8156227E+02  0.7561462E-02  0.1324676E+00
          3   -1    0    0  501    0  0.00000000000E+00  0.00000000000E+00  0.43390672912E+02  0.43390672912E+02  0.00000000000E+00 0. -1.
         -3   -1    0    0    0  501 -0.00000000000E+00 -0.00000000000E+00 -0.42325683901E+03  0.42325683901E+03  0.00000000000E+00 0.  1.
         23    2    1    2    0    0 -0.88508820929E+01  0.76816611631E+02 -0.25126856100E+03  0.29113942802E+03  0.12508855609E+03 0.  0.
         23    2    1    2    0    0  0.88508820929E+01 -0.76816611631E+02 -0.12859760511E+03  0.17550808391E+03  0.91030838411E+02 0.  0.
          5    1    3    3  502    0 -0.32076215280E+01  0.61707974653E+02 -0.29242502227E+02  0.68489118173E+02  0.41800000000E+01 0. -1.
         -5    1    3    3    0  502 -0.56432605649E+01  0.15108636979E+02 -0.22202605877E+03  0.22265030984E+03  0.41800000000E+01 0. -1.
        -11    1    4    4    0    0 -0.84828682869E+01 -0.59242843309E+02 -0.13694492994E+03  0.14945095307E+03  0.00000000000E+00 0.  1.
         11    1    4    4    0    0  0.17333750380E+02 -0.17573768323E+02  0.83473248382E+01  0.26057130833E+02  0.00000000000E+00 0. -1.
</event>
<event>
 7    1  0.8619230E-006  0.1027109E+03  0.7561462E-02  0.1274696E+00
         -2   -1    0    0    0  501 -0.00000000000E+00  0.00000000000E+00  0.35127940145E+02  0.35127940145E+02  0.00000000000E+00 0.  1.
          2   -1    0    0  501    0  0.00000000000E+00 -0.00000000000E+00 -0.68053425744E+03  0.68053425744E+03  0.00000000000E+00 0. -1.
         23    2    1    2    0    0  0.72671391458E+02 -0.25242762184E+01 -0.38901527223E+03  0.40599051190E+03  0.90597519929E+02 0.  0.
          5    1    1    2  502    0 -0.57740758566E+02  0.25222743391E+02 -0.27119524570E+03  0.27845020322E+03  0.41800000000E+01 0. -1.
         -5    1    1    2    0  502 -0.14930632892E+02 -0.22698467173E+02  0.14804200638E+02  0.31221482461E+02  0.41800000000E+01 0.  1.
        -11    1    3    3    0    0 -0.70184232423E+01  0.28438510395E+02 -0.12887329002E+03  0.13216025128E+03  0.00000000000E+00 0.  1.
         11    1    3    3    0    0  0.79689814700E+02 -0.30962786613E+02 -0.26014198221E+03  0.27383026062E+03  0.00000000000E+00 0. -1.
</event>
<event>
 8    1  0.8619230E-006  0.1213663E+03  0.7561462E-02  0.1240860E+00
          1   -1    0    0  501    0  0.00000000000E+00  0.00000000000E+00  0.10489876054E+04  0.10489876054E+04  0.00000000000E+00 0. -1.
         -1   -1    0    0    0  501 -0.00000000000E+00 -0.00000000000E+00 -0.16296491208E+02  0.16296491208E+02  0.00000000000E+00 0.  1.
         23    2    1    2    0    0  0.32889903345E+02  0.46768609570E+02  0.38943645756E+03  0.41301021606E+03  0.12509050928E+03 0.  0.
         23    2    1    2    0    0 -0.32889903345E+02 -0.46768609570E+02  0.64325465667E+03  0.65227388058E+03  0.91736652319E+02 0.  0.
          5    1    3    3  502    0 -0.11031103224E+02  0.79080797865E+02  0.18830585464E+03  0.20457767503E+03  0.41800000000E+01 0. -1.
         -5    1    3    3    0  502  0.43921006569E+02 -0.32312188295E+02  0.20113060292E+03  0.20843254103E+03  0.41800000000E+01 0. -1.
        -11    1    4    4    0    0 -0.17408155813E+02 -0.74404320170E+02  0.45181846254E+03  0.45823462314E+03  0.00000000000E+00 0. -1.
         11    1    4    4    0    0 -0.15481747532E+02  0.27635710601E+02  0.19143619413E+03  0.19403925744E+03  0.00000000000E+00 0.  1.
</event>
<event>
 8    1  0.8619230E-006  0.1091487E+03  0.7561462E-02  0.1262155E+00
         -4   -1    0    0    0  501 -0.00000000000E+00  0.00000000000E+00  0.96084501147E+03  0.96084501147E+03  0.00000000000E+00 0.  1.
          4   -1    0    0  501    0  0.00000000000E+00 -0.00000000000E+00 -0.27621394148E+02  0.27621394148E+02  0.00000000000E+00 0. -1.
         23    2    1    2    0    0  0.16448354900E+02  0.57887520684E+00  0.86409361187E+03  0.87337581427E+03  0.12592322817E+03 0.  0.
         23    2    1    2    0    0 -0.16448354900E+02 -0.57887520684E+00  0.69130005446E+02  0.11509059135E+03  0.90531779438E+02 0.  0.
          5    1    3    3  502    0 -0.44735106067E+02  0.34375702957E+02  0.35199326417E+03  0.35651037725E+03  0.41800000000E+01 0. -1.
         -5    1    3    3    0  502  0.61183460967E+02 -0.33796827750E+02  0.51210034771E+03  0.51686543702E+03  0.41800000000E+01 0.  1.
        -11    1    4    4    0    0 -0.51175229349E+02  0.15448447519E+02  0.35584810710E+02  0.64217111294E+02  0.00000000000E+00 0. -1.
         11    1    4    4    0    0  0.34726874449E+02 -0.16027322726E+02  0.33545194736E+02  0.50873480052E+02  0.00000000000E+00 0.  1.
</event>
<event>
 8    1  0.8619230E-006  0.8254188E+02  0.7561462E-02  0.1321989E+00
         -1   -1    0    0    0  501 -0.00000000000E+00  0.00000000000E+00  0.73690651307E+03  0.73690651307E+03  0.00000000000E+00 0.  1.
          1   -1    0    0  501    0  0.00000000000E+00 -0.00000000000E+00 -0.42068267359E+02  0.42068267359E+02  0.00000000000E+00 0. -1.
         23    2    1    2    0    0 -0.14763109972E+02 -0.84828055392E+01  0.66709642176E+03  0.67641319143E+03  0.11057695153E+03 0.  0.
         23    2    1    2    0    0  0.14763109972E+02  0.84828055392E+01  0.27741823949E+02  0.10256158900E+03  0.97259258354E+02 0.  0.
          5    1    3    3  502    0  0.30422643020E+02 -0.74432603244E+01  0.61725641955E+02  0.69343107857E+02  0.41800000000E+01 0. -1.
         -5    1    3    3    0  502 -0.45185752992E+02 -0.10395452148E+01  0.60537077981E+03  0.60707008357E+03  0.41800000000E+01 0.  1.
        -11    1    4    4    0    0 -0.21057259389E+02 -0.29267413068E+02  0.34721218658E+02  0.50055495860E+02  0.00000000000E+00 0.  1.
         11    1    4    4    0    0  0.35820369361E+02  0.37750218607E+02 -0.69793947090E+01  0.52506093137E+02  0.00000000000E+00 0. -1.
</event>
<event>
 8    1  0.1139726E-005  0.2399237E+03  0.7561462E-02  0.1119844E+00
         -2   -1    0    0    0  501 -0.00000000000E+00  0.00000000000E+00  0.17342342113E+03  0.17342342113E+03  0.00000000000E+00 0.  1.
          2   -1    0    0  501    0  0.00000000000E+00 -0.00000000000E+00 -0.39054168978E+03  0.39054168978E+03  0.00000000000E+00 0. -1.
         23    2    1    2    0    0 -0.47486079902E+02  0.23037662457E+03 -0.98253753581E+02  0.28395402157E+03  0.12509104422E+03 0.  0.
         23    2    1    2    0    0  0.47486079902E+02 -0.23037662457E+03 -0.11886451507E+03  0.28001108933E+03  0.94599790036E+02 0.  0.
          5    1    3    3  502    0 -0.50314315316E+01  0.14548758254E+03  0.22521578372E+01  0.14565197077E+03  0.41800000000E+01 0.  1.
         -5    1    3    3    0  502 -0.42454648371E+02  0.84889042031E+02 -0.10050591142E+03  0.13830205080E+03  0.41800000000E+01 0.  1.
        -11    1    4    4    0    0  0.28461241171E+02 -0.47721831191E+02  0.89316831050E+01  0.56277796548E+02  0.00000000000E+00 0.  1.
         11    1    4    4    0    0  0.19024838732E+02 -0.18265479338E+03 -0.12779619818E+03  0.22373329279E+03  0.00000000000E+00 0. -1.
</event>
<event>
 8    1  0.8619230E-006  0.1778276E+03  0.7561462E-02  0.1169922E+00
         -2   -1    0    0    0  501 -0.00000000000E+00  0.00000000000E+00  0.43593161030E+02  0.43593161030E+02  0.00000000000E+00 0.  1.
          2   -1    0    0  501    0  0.00000000000E+00 -0.00000000000E+00 -0.89019476502E+03  0.89019476502E+03  0.00000000000E+00 0. -1.
         23    2    1    2    0    0  0.78159487965E+02  0.13680627594E+03 -0.33507529190E+03  0.39083238389E+03  0.12509851465E+03 0.  0.
         23    2    1    2    0    0 -0.78159487965E+02 -0.13680627594E+03 -0.51152631210E+03  0.54295554216E+03  0.91195888608E+02 0.  0.
          5    1    3    3  502    0 -0.19041846581E+02  0.70400933222E+00 -0.10247228245E+03  0.10431264842E+03  0.41800000000E+01 0.  1.
         -5    1    3    3    0  502  0.97201334546E+02  0.13610226660E+03 -0.23260300945E+03  0.28651973548E+03  0.41800000000E+01 0.  1.
        -11    1    4    4    0    0 -0.70644503814E+02 -0.62989136315E+02 -0.38326256133E+03  0.39477647869E+03  0.00000000000E+00 0. -1.
         11    1    4    4    0    0 -0.75149841507E+01 -0.73817139620E+02 -0.12826375077E+03  0.14817906347E+03  0.00000000000E+00 0.  1.
</event>
<event>
 8    1  0.8619230E-006  0.9600378E+02  0.7561462E-02  0.1288931E+00
         -1   -1    0    0    0  501 -0.00000000000E+00  0.00000000000E+00  0.57881164762E+03  0.57881164762E+03  0.00000000000E+00 0.  1.
          1   -1    0    0  501    0  0.00000000000E+00 -0.00000000000E+00 -0.27802724442E+02  0.27802724442E+02  0.00000000000E+00 0. -1.
         23    2    1    2    0    0 -0.95879360669E+01  0.60306567719E+02  0.32873628883E+03  0.35699439842E+03  0.12509453337E+03 0.  0.
         23    2    1    2    0    0  0.95879360669E+01 -0.60306567719E+02  0.22227263434E+03  0.24961997364E+03  0.95792466483E+02 0.  0.
          5    1    3    3  502    0 -0.93052779585E+01 -0.26470578479E+02  0.16329270376E+02  0.32732204232E+02  0.41800000000E+01 0.  1.
         -5    1    3    3    0  502 -0.28265810839E+00  0.86777146198E+02  0.31240701846E+03  0.32426219419E+03  0.41800000000E+01 0.  1.
        -11    1    4    4    0    0  0.24296696059E+02 -0.56597076268E+02  0.22579696466E+03  0.23404663580E+03  0.00000000000E+00 0.  1.
         11    1    4    4    0    0 -0.14708759992E+02 -0.37094914502E+01 -0.35243303144E+01  0.15573337840E+02  0.00000000000E+00 0. -1.
</event>
<event>
 8    1  0.8619230E-006  0.9826200E+02  0.7561462E-02  0.1283994E+00
         -1   -1    0    0    0  501 -0.00000000000E+00  0.00000000000E+00  0.31140025912E+02  0.31140025912E+02  0.00000000000E+00 0.  1.
          1   -1    0    0  501    0  0.00000000000E+00 -0.00000000000E+00 -0.41249652982E+03  0.41249652982E+03  0.00000000000E+00 0. -1.
         23    2    1    2    0    0 -0.45617860642E+02  0.21781430325E+02 -0.20119625940E+03  0.23546937324E+03  0.11140229359E+03 0.  0.
         23    2    1    2    0    0  0.45617860642E+02 -0.21781430325E+02 -0.18016024451E+03  0.20816718250E+03  0.91216458227E+02 0.  0.
          5    1    3    3  502    0  0.21784541341E+02 -0.27620098578E+01 -0.13793886717E+03  0.13973832121E+03  0.41800000000E+01 0. -1.
         -5    1    3    3    0  502 -0.67402401982E+02  0.24543440183E+02 -0.63257392232E+02  0.95731052021E+02  0.41800000000E+01 0.  1.
        -11    1    4    4    0    0 -0.24852351167E+02 -0.19873243328E+02 -0.76005440882E+02  0.82397889551E+02  0.00000000000E+00 0.  1.
         11    1    4    4    0    0  0.70470211808E+02 -0.19081869968E+01 -0.10415480362E+03  0.12576929294E+03  0.00000000000E+00 0. -1.
</event>
<event>
 8    1  0.8619230E-006  0.1074056E+03  0.7561462E-02  0.1265451E+00
          2   -1    0    0  501    0  0.00000000000E+00  0.00000000000E+00  0.55820709122E+03  0.55820709122E+03  0.00000000000E+00 0. -1.
         -2   -1    0    0    0  501 -0.00000000000E+00 -0.00000000000E+00 -0.22772426740E+02  0.22772426740E+02  0.00000000000E+00 0.  1.
         23    2    1    2    0    0 -0.68906262918E+01 -0.27402230491E+02  0.28191133188E+03  0.30971049812E+03  0.12509288803E+03 0.  0.
         23    2    1    2    0    0  0.68906262918E+01  0.27402230491E+02  0.25352333260E+03  0.27126901984E+03  0.92273712319E+02 0.  0.
          5    1    3    3  502    0  0.18663099543E+02 -0.73187020094E+02  0.16633683478E+03  0.18272948914E+03  0.41800000000E+01 0. -1.
         -5    1    3    3    0  502 -0.25553725835E+02  0.45784789603E+02  0.11557449709E+03  0.12698100898E+03  0.41800000000E+01 0. -1.
        -11    1    4    4    0    0 -0.69798249957E+01  0.55126458317E+02  0.21367704311E+03  0.22078388328E+03  0.00000000000E+00 0. -1.
         11    1    4    4    0    0  0.13870451287E+02 -0.27724227826E+02  0.39846289496E+02  0.50485136565E+02  0.00000000000E+00 0.  1.
</event>
<event>
 8    1  0.8619230E-006  0.1098659E+03  0.7561462E-02  0.1260818E+00
         -2   -1    0    0    0  501 -0.00000000000E+00  0.00000000000E+00  0.10721733874E+03  0.10721733874E+03  0.00000000000E+00 0.  1.
          2   -1    0    0  501    0  0.00000000000E+00 -0.00000000000E+00 -0.13218425199E+03  0.13218425199E+03  0.00000000000E+00 0. -1.
         23    2    1    2    0    0 -0.44823970381E+02 -0.63455243966E+00  0.12032657049E+02  0.13332653204E+03  0.12498635259E+03 0.  0.
         23    2    1    2    0    0  0.44823970381E+02  0.63455243966E+00 -0.36999570297E+02  0.10607505868E+03  0.88731949683E+02 0.  0.
          5    1    3    3  502    0 -0.62433009685E+02 -0.49667448540E+02  0.13592806885E+02  0.81036861624E+02  0.41800000000E+01 0.  1.
         -5    1    3    3    0  502  0.17609039304E+02  0.49032896100E+02 -0.15601498369E+01  0.52289670420E+02  0.41800000000E+01 0.  1.
        -11    1    4    4    0    0  0.22511974384E+02  0.37935318577E+02  0.64925796488E+01  0.44587340991E+02  0.00000000000E+00 0.  1.
         11    1    4    4    0    0  0.22311995998E+02 -0.37300766137E+02 -0.43492149946E+02  0.61487717690E+02  0.00000000000E+00 0. -1.
</event>
<event>
 8    1  0.8619230E-006  0.1209743E+03  0.7561462E-02  0.1241498E+00
         -2   -1    0    0    0  501 -0.00000000000E+00  0.00000000000E+00  0.65523581944E+02  0.65523581944E+02  0.00000000000E+00 0.  1.
          2   -1    0    0  501    0  0.00000000000E+00 -0.00000000000E+00 -0.25484612401E+03  0.25484612401E+03  0.00000000000E+00 0. -1.
         23    2    1    2    0    0  0.59258791165E+02 -0.35815505522E+02 -0.12602421578E+03  0.19058711049E+03  0.12508792489E+03 0.  0.
         23    2    1    2    0    0 -0.59258791165E+02  0.35815505522E+02 -0.63298326284E+02  0.12978259547E+03  0.89679926461E+02 0.  0.
          5    1    3    3  502    0  0.19544457195E+02  0.39575965355E+02 -0.85117581272E+02  0.95972485028E+02  0.41800000000E+01 0.  1.
         -5    1    3    3    0  502  0.39714333971E+02 -0.75391470877E+02 -0.40906634512E+02  0.94614625460E+02  0.41800000000E+01 0.  1.
        -11    1    4    4    0    0 -0.26176891579E+02 -0.29281843548E+02 -0.30526941194E+02  0.49744850517E+02  0.00000000000E+00 0. -1.
         11    1    4    4    0    0 -0.33081899587E+02  0.65097349070E+02 -0.32771385089E+02  0.80037744951E+02  0.00000000000E+00 0.  1.
</event>
<event>
 8    1  0.8619230E-006  0.1259213E+03  0.7561462E-02  0.1233636E+00
         -1   -1    0    0    0  501 -0.00000000000E+00  0.00000000000E+00  0.24103884228E+02  0.24103884228E+02  0.00000000000E+00 0. -1.
          1   -1    0    0  501    0  0.00000000000E+00 -0.00000000000E+00 -0.92001864226E+03  0.92001864226E+03  0.00000000000E+00 0.  1.
         23    2    1    2    0    0  0.14362673508E+02  0.10121370356E+03 -0.47723969190E+03  0.50384070246E+03  0.12508888741E+03 0.  0.
         23    2    1    2    0    0 -0.14362673508E+02 -0.10121370356E+03 -0.41867506613E+03  0.44028182403E+03  0.90048727867E+02 0.  0.
          5    1    3    3  502    0  0.40860539656E+02  0.14423354528E+02 -0.46787398210E+02  0.63907353943E+02  0.41800000000E+01 0.  1.
         -5    1    3    3    0  502 -0.26497866148E+02  0.86790349028E+02 -0.43045229369E+03  0.43993334852E+03  0.41800000000E+01 0.  1.
        -11    1    4    4    0    0  0.15105724538E+02 -0.79349976739E+02 -0.37323841017E+03  0.38187892394E+03  0.00000000000E+00 0.  1.
         11    1    4    4    0    0 -0.29468398046E+02 -0.21863726817E+02 -0.45436655960E+02  0.58402900087E+02  0.00000000000E+00 0. -1.
</event>
<event>
 8    1  0.8619230E-006  0.4060992E+03  0.7561462E-02  0.1041688E+00
         -2   -1    0    0    0  501 -0.00000000000E+00  0.00000000000E+00  0.10416339080E+03  0.10416339080E+03  0.00000000000E+00 0.  1.
          2   -1    0    0  501    0  0.00000000000E+00 -0.00000000000E+00 -0.16142883767E+04  0.16142883767E+04  0.00000000000E+00 0. -1.
         23    2    1    2    0    0  0.24410076790E+03 -0.30964601020E+03 -0.70858243896E+03  0.82048586629E+03  0.12506857103E+03 0.  0.
         23    2    1    2    0    0 -0.24410076790E+03  0.30964601020E+03 -0.80154254696E+03  0.89796590124E+03  0.91686796666E+02 0.  0.
          5    1    3    3  502    0 -0.13929883094E+02 -0.28332046998E+02 -0.58135519046E+02  0.66286933138E+02  0.41800000000E+01 0. -1.
         -5    1    3    3    0  502  0.25803065099E+03 -0.28131396320E+03 -0.65044691992E+03  0.75419893315E+03  0.41800000000E+01 0. -1.
        -11    1    4    4    0    0 -0.68663340264E+02  0.13276909506E+03 -0.37957095326E+03  0.40794165693E+03  0.00000000000E+00 0.  1.
         11    1    4    4    0    0 -0.17543742763E+03  0.17687691513E+03 -0.42197159370E+03  0.49002424431E+03  0.00000000000E+00 0. -1.
</event>
<event>
 8    1  0.8619230E-006  0.1440782E+03  0.7561462E-02  0.1207944E+00
         -1   -1    0    0    0  501 -0.00000000000E+00  0.00000000000E+00  0.18873221062E+03  0.18873221062E+03  0.00000000000E+00 0.  1.
          1   -1    0    0  501    0  0.00000000000E+00 -0.00000000000E+00 -0.12582401185E+03  0.12582401185E+03  0.00000000000E+00 0. -1.
         23    2    1    2    0    0  0.10969291516E+03 -0.56539452758E+00  0.32014400668E+02  0.16942502926E+03  0.12508822240E+03 0.  0.
         23    2    1    2    0    0 -0.10969291516E+03  0.56539452758E+00  0.30893798105E+02  0.14513119321E+03  0.89865350230E+02 0.  0.
          5    1    3    3  502    0 -0.24666474342E+02  0.36833792607E+01  0.23730404427E+02  0.34678620699E+02  0.41800000000E+01 0. -1.
         -5    1    3    3    0  502  0.13435938951E+03 -0.42487737883E+01  0.82839962404E+01  0.13474640856E+03  0.41800000000E+01 0. -1.
        -11    1    4    4    0    0 -0.16880145375E+02  0.27027443053E+02 -0.18361697125E+02  0.36777355903E+02  0.00000000000E+00 0.  1.
         11    1    4    4    0    0 -0.92812769788E+02 -0.26462048526E+02  0.49255495230E+02  0.10835383730E+03  0.00000000000E+00 0. -1.
</event>
<event>
 8    1  0.8619230E-006  0.1728078E+03  0.7561462E-02  0.1174951E+00
         -2   -1    0    0    0  501 -0.00000000000E+00  0.00000000000E+00  0.43374264455E+02  0.43374264455E+02  0.00000000000E+00 0. -1.
          2   -1    0    0  501    0  0.00000000000E+00 -0.00000000000E+00 -0.82452345768E+03  0.82452345768E+03  0.00000000000E+00 0.  1.
         23    2    1    2    0    0  0.76070389968E+01 -0.13856975853E+03 -0.25452724819E+03  0.31576351774E+03  0.12515204372E+03 0.  0.
         23    2    1    2    0    0 -0.76070389968E+01  0.13856975853E+03 -0.52662194503E+03  0.55213420439E+03  0.90895883553E+02 0.  0.
          5    1    3    3  502    0 -0.53143375326E+02 -0.10387988876E+03 -0.16197968109E+03  0.19967508386E+03  0.41800000000E+01 0.  1.
         -5    1    3    3    0  502  0.60750414323E+02 -0.34689869770E+02 -0.92547567094E+02  0.11608843388E+03  0.41800000000E+01 0.  1.
        -11    1    4    4    0    0 -0.17419112921E+02  0.14564149226E+03 -0.51454009039E+03  0.53503866625E+03  0.00000000000E+00 0.  1.
         11    1    4    4    0    0  0.98120739246E+01 -0.70717337361E+01 -0.12081854647E+02  0.17095538144E+02  0.00000000000E+00 0. -1.
</event>
<event>
 8    1  0.8619230E-006  0.9538058E+02  0.7561462E-02  0.1290321E+00
         -4   -1    0    0    0  501 -0.00000000000E+00  0.00000000000E+00  0.16371673364E+04  0.16371673364E+04  0.00000000000E+00 0.  1.
          4   -1    0    0  501    0  0.00000000000E+00 -0.00000000000E+00 -0.85587898568E+01  0.85587898568E+01  0.00000000000E+00 0. -1.
         23    2    1    2    0    0 -0.61303603006E+01  0.11482760374E+02  0.12602208687E+04  0.12664762036E+04  0.12504359721E+03 0.  0.
         23    2    1    2    0    0  0.61303603006E+01 -0.11482760374E+02  0.36838767783E+03  0.37924992267E+03  0.89171674688E+02 0.  0.
          5    1    3    3  502    0  0.16106695282E+02  0.54191325531E+02  0.31777310515E+03  0.32278993813E+03  0.41800000000E+01 0. -1.
         -5    1    3    3    0  502 -0.22237055582E+02 -0.42708565157E+02  0.94244776354E+03  0.94368626544E+03  0.41800000000E+01 0. -1.
        -11    1    4    4    0    0  0.40222258690E+02 -0.26834063129E+02  0.14757357928E+03  0.15529281484E+03  0.00000000000E+00 0. -1.
         11    1    4    4    0    0 -0.34091898390E+02  0.15351302754E+02  0.22081409855E+03  0.22395710783E+03  0.00000000000E+00 0.  1.
</event>
<event>
 8    1  0.8619230E-006  0.1605409E+03  0.7561462E-02  0.1188087E+00
          2   -1    0    0  501    0  0.00000000000E+00  0.00000000000E+00  0.88656568689E+03  0.88656568689E+03  0.00000000000E+00 0.  1.
         -2   -1    0    0    0  501 -0.00000000000E+00 -0.00000000000E+00 -0.35802340709E+02  0.35802340709E+02  0.00000000000E+00 0. -1.
         23    2    1    2    0    0 -0.60142693385E+00 -0.13835965779E+03  0.37621735687E+03  0.41991815150E+03  0.12509195710E+03 0.  0.
         23    2    1    2    0    0  0.60142693385E+00  0.13835965779E+03  0.47454598930E+03  0.50244987609E+03  0.90101195336E+02 0.  0.
          5    1    3    3  502    0 -0.38637059791E+02 -0.55341302828E+02  0.27646671326E+03  0.28461693226E+03  0.41800000000E+01 0. -1.
         -5    1    3    3    0  502  0.38035632858E+02 -0.83018354964E+02  0.99750643616E+02  0.13530121925E+03  0.41800000000E+01 0. -1.
        -11    1    4    4    0    0 -0.38238492327E+02  0.35813991939E+02  0.20171097037E+03  0.20840379047E+03  0.00000000000E+00 0. -1.
         11    1    4    4    0    0  0.38839919260E+02  0.10254566585E+03  0.27283501893E+03  0.29404608562E+03  0.00000000000E+00 0.  1.
</event>
<event>
 8    1  0.8619230E-006  0.7476206E+02  0.7561462E-02  0.1344609E+00
         -2   -1    0    0    0  501 -0.00000000000E+00  0.00000000000E+00  0.44731031976E+02  0.44731031976E+02  0.00000000000E+00 0.  1.
          2   -1    0    0  501    0  0.00000000000E+00 -0.00000000000E+00 -0.33383848455E+03  0.33383848455E+03  0.00000000000E+00 0. -1.
         23    2    1    2    0    0 -0.24131180411E+02  0.39826170888E+02 -0.11450121501E+03  0.17585981462E+03  0.12509080063E+03 0.  0.
         23    2    1    2    0    0  0.24131180411E+02 -0.39826170888E+02 -0.17460623757E+03  0.20270970191E+03  0.91844691168E+02 0.  0.
          5    1    3    3  502    0 -0.29697486503E+02  0.40925156417E+02  0.95333164583E+01  0.51625242421E+02  0.41800000000E+01 0.  1.
         -5    1    3    3    0  502  0.55663060919E+01 -0.10989855286E+01 -0.12403453146E+03  0.12423457219E+03  0.41800000000E+01 0.  1.
        -11    1    4    4    0    0  0.49483379913E+02 -0.65635272591E+01 -0.13931162655E+03  0.14798450618E+03  0.00000000000E+00 0. -1.
         11    1    4    4    0    0 -0.25352199502E+02 -0.33262643629E+02 -0.35294611019E+02  0.54725195731E+02  0.00000000000E+00 0.  1.
</event>
<event>
 8    1  0.8619230E-006  0.1939474E+03  0.7561462E-02  0.1154948E+00
          2   -1    0    0  501    0  0.00000000000E+00  0.00000000000E+00  0.22796414780E+03  0.22796414780E+03  0.00000000000E+00 0. -1.
         -2   -1    0    0    0  501 -0.00000000000E+00 -0.00000000000E+00 -0.17732539325E+03  0.17732539325E+03  0.00000000000E+00 0.  1.
         23    2    1    2    0    0 -0.16800600139E+03 -0.21474217697E+02  0.34059654338E+02  0.21328895991E+03  0.12507982186E+03 0.  0.
         23    2    1    2    0    0  0.16800600139E+03  0.21474217697E+02  0.16579100215E+02  0.19200058113E+03  0.88894308382E+02 0.  0.
          5    1    3    3  502    0 -0.93775937337E+01  0.39104073009E+02  0.23236064714E+01  0.40496164475E+02  0.41800000000E+01 0. -1.
         -5    1    3    3    0  502 -0.15862840766E+03 -0.60578290706E+02  0.31736047867E+02  0.17279279544E+03  0.41800000000E+01 0. -1.
        -11    1    4    4    0    0  0.87856827203E+02  0.38090462782E+02  0.44396069280E+02  0.10554959218E+03  0.00000000000E+00 0. -1.
         11    1    4    4    0    0  0.80149174188E+02 -0.16616245085E+02 -0.27816969065E+02  0.86450988958E+02  0.00000000000E+00 0.  1.
</event>
<event>
 8    1  0.8619230E-006  0.1450097E+03  0.7561462E-02  0.1206743E+00
         -1   -1    0    0    0  501 -0.00000000000E+00  0.00000000000E+00  0.61185060468E+03  0.61185060468E+03  0.00000000000E+00 0.  1.
          1   -1    0    0  501    0  0.00000000000E+00 -0.00000000000E+00 -0.49775977312E+02  0.49775977312E+02  0.00000000000E+00 0. -1.
         23    2    1    2    0    0  0.11344885575E+03 -0.49479520318E+02  0.39562711608E+03  0.43299865888E+03  0.12509259696E+03 0.  0.
         23    2    1    2    0    0 -0.11344885575E+03  0.49479520318E+02  0.16644751129E+03  0.22862792311E+03  0.96161777279E+02 0.  0.
          5    1    3    3  502    0  0.53006220789E+02  0.26378259428E+02  0.25695024550E+03  0.26371646341E+03  0.41800000000E+01 0. -1.
         -5    1    3    3    0  502  0.60442634961E+02 -0.75857779747E+02  0.13867687058E+03  0.16928219547E+03  0.41800000000E+01 0. -1.
        -11    1    4    4    0    0 -0.29014321937E+02  0.38838156734E+02  0.85086122439E+01  0.49220217170E+02  0.00000000000E+00 0. -1.
         11    1    4    4    0    0 -0.84434533813E+02  0.10641363585E+02  0.15793889905E+03  0.17940770594E+03  0.00000000000E+00 0.  1.
</event>
<event>
 8    1  0.8619230E-006  0.1148636E+03  0.7561462E-02  0.1251819E+00
         -2   -1    0    0    0  501 -0.00000000000E+00  0.00000000000E+00  0.87429727043E+02  0.87429727043E+02  0.00000000000E+00 0.  1.
          2   -1    0    0  501    0  0.00000000000E+00 -0.00000000000E+00 -0.19041936557E+03  0.19041936557E+03  0.00000000000E+00 0. -1.
         23    2    1    2    0    0  0.50971557480E+02 -0.10270482873E+02 -0.72766750073E+01  0.13566329158E+03  0.12509195095E+03 0.  0.
         23    2    1    2    0    0 -0.50971557480E+02  0.10270482873E+02 -0.95712963517E+02  0.14218580103E+03  0.91390634856E+02 0.  0.
          5    1    3    3  502    0 -0.12614350881E+02  0.46380299500E+02 -0.13710756691E+02  0.50156866717E+02  0.41800000000E+01 0. -1.
         -5    1    3    3    0  502  0.63585908360E+02 -0.56650782373E+02  0.64340816836E+01  0.85506424862E+02  0.41800000000E+01 0. -1.
        -11    1    4    4    0    0 -0.15471331338E+02 -0.35246528937E+02 -0.68034589176E+02  0.78168953043E+02  0.00000000000E+00 0. -1.
         11    1    4    4    0    0 -0.35500226142E+02  0.45517011810E+02 -0.27678374341E+02  0.64016847989E+02  0.00000000000E+00 0.  1.
</event>
<event>
 8    1  0.8619230E-006  0.1091699E+03  0.7561462E-02  0.1262115E+00
          1   -1    0    0  501    0  0.00000000000E+00  0.00000000000E+00  0.17208117465E+03  0.17208117465E+03  0.00000000000E+00 0. -1.
         -1   -1    0    0    0  501 -0.00000000000E+00 -0.00000000000E+00 -0.75635697602E+02  0.75635697602E+02  0.00000000000E+00 0.  1.
         23    2    1    2    0    0  0.20615653839E+02  0.50936251428E+01  0.24253623501E+02  0.12918992790E+03  0.12510335334E+03 0.  0.
         23    2    1    2    0    0 -0.20615653839E+02 -0.50936251428E+01  0.72191853542E+02  0.11852694435E+03  0.91575229283E+02 0.  0.
          5    1    3    3  502    0  0.15159083538E+02 -0.59275344881E+02  0.19186573433E+02  0.64256994362E+02  0.41800000000E+01 0. -1.
         -5    1    3    3    0  502  0.54565703011E+01  0.64368970023E+02  0.50670500680E+01  0.64932933537E+02  0.41800000000E+01 0. -1.
        -11    1    4    4    0    0 -0.25696406547E+02  0.39649753915E+02  0.25630962564E+02  0.53752716554E+02  0.00000000000E+00 0.  1.
         11    1    4    4    0    0  0.50807527083E+01 -0.44743379058E+02  0.46560890978E+02  0.64774227794E+02  0.00000000000E+00 0. -1.
</event>
<event>
 8    1  0.8619230E-006  0.1140116E+03  0.7561462E-02  0.1253316E+00
          2   -1    0    0  501    0  0.00000000000E+00  0.00000000000E+00  0.53487514287E+03  0.53487514287E+03  0.00000000000E+00 0. -1.
         -2   -1    0    0    0  501 -0.00000000000E+00 -0.00000000000E+00 -0.38355369438E+02  0.38355369438E+02  0.00000000000E+00 0.  1.
         23    2    1    2    0    0 -0.26544919232E+01  0.91160600539E+02  0.30312975690E+03  0.34037186167E+03  0.12509217914E+03 0.  0.
         23    2    1    2    0    0  0.26544919232E+01 -0.91160600539E+02  0.19339001654E+03  0.23285865064E+03  0.92228798454E+02 0.  0.
          5    1    3    3  502    0 -0.44973498897E+01 -0.89123938842E+01 -0.80347945090E+01  0.13479141055E+02  0.41800000000E+01 0.  1.
         -5    1    3    3    0  502  0.18428579664E+01  0.10007299442E+03  0.31116455141E+03  0.32689272062E+03  0.41800000000E+01 0.  1.
        -11    1    4    4    0    0 -0.34950327970E+02 -0.35220936390E+02  0.34994887363E+02  0.60718052727E+02  0.00000000000E+00 0.  1.
         11    1    4    4    0    0  0.37604819893E+02 -0.55939664149E+02  0.15839512917E+03  0.17214059791E+03  0.00000000000E+00 0. -1.
</event>
<event>
 8    1  0.8619230E-006  0.8716923E+02  0.7561462E-02  0.1309855E+00
          1   -1    0    0  501    0  0.00000000000E+00  0.00000000000E+00  0.92793944579E+02  0.92793944579E+02  0.00000000000E+00 0. -1.
         -1   -1    0    0    0  501 -0.00000000000E+00 -0.00000000000E+00 -0.27588751045E+03  0.27588751045E+03  0.00000000000E+00 0.  1.
         23    2    1    2    0    0 -0.89058493334E+01 -0.28267217698E+02 -0.22740360143E+03  0.26122360598E+03  0.12508806751E+03 0.  0.
         23    2    1    2    0    0  0.89058493334E+01  0.28267217698E+02  0.44310035555E+02  0.10745784905E+03  0.93303056337E+02 0.  0.
          5    1    3    3  502    0  0.20479193480E+02  0.30703158415E+02 -0.17265693227E+02  0.40959221976E+02  0.41800000000E+01 0. -1.
         -5    1    3    3    0  502 -0.29385042813E+02 -0.58970376114E+02 -0.21013790820E+03  0.22026438401E+03  0.41800000000E+01 0. -1.
        -11    1    4    4    0    0 -0.28088314419E+02  0.15241631739E+02  0.57746816888E+02  0.65999663679E+02  0.00000000000E+00 0. -1.
         11    1    4    4    0    0  0.36994163752E+02  0.13025585959E+02 -0.13436781333E+02  0.41458185367E+02  0.00000000000E+00 0.  1.
</event>
<event>
 8    1  0.8619230E-006  0.1256381E+03  0.7561462E-02  0.1234075E+00
          2   -1    0    0  501    0  0.00000000000E+00  0.00000000000E+00  0.10050024422E+03  0.10050024422E+03  0.00000000000E+00 0. -1.
         -2   -1    0    0    0  501 -0.00000000000E+00 -0.00000000000E+00 -0.29608362013E+03  0.29608362013E+03  0.00000000000E+00 0.  1.
         23    2    1    2    0    0 -0.68502083272E+01  0.10328354160E+03 -0.20316899884E+03  0.26007516987E+03  0.12508811523E+03 0.  0.
         23    2    1    2    0    0  0.68502083272E+01 -0.10328354160E+03  0.75856229260E+01  0.13650869448E+03  0.88671679095E+02 0.  0.
          5    1    3    3  502    0  0.40574311674E+02  0.69754903291E+02 -0.18018307390E+03  0.19747261537E+03  0.41800000000E+01 0. -1.
         -5    1    3    3    0  502 -0.47424520002E+02  0.33528638313E+02 -0.22985924944E+02  0.62602554500E+02  0.41800000000E+01 0. -1.
        -11    1    4    4    0    0 -0.31777338821E+01 -0.10209319523E+03  0.34460577937E+02  0.10779911844E+03  0.00000000000E+00 0. -1.
         11    1    4    4    0    0  0.10027942209E+02 -0.11903463708E+01 -0.26874955011E+02  0.28709576038E+02  0.00000000000E+00 0.  1.
</event>
<event>
 8    1  0.8619230E-006  0.1025904E+03  0.7561462E-02  0.1274941E+00
         -4   -1    0    0    0  501 -0.00000000000E+00  0.00000000000E+00  0.57019029441E+02  0.57019029441E+02  0.00000000000E+00 0.  1.
          4   -1    0    0  501    0  0.00000000000E+00 -0.00000000000E+00 -0.27350307377E+03  0.27350307377E+03  0.00000000000E+00 0. -1.
         23    2    1    2    0    0 -0.60825014314E+02 -0.36179286270E+01 -0.11500670958E+03  0.18051886743E+03  0.12509095282E+03 0.  0.
         23    2    1    2    0    0  0.60825014314E+02  0.36179286270E+01 -0.10147733475E+03  0.15000323577E+03  0.92144177792E+02 0.  0.
          5    1    3    3  502    0 -0.86178909780E+02 -0.11586174495E+02 -0.31162521580E+02  0.92464150250E+02  0.41800000000E+01 0. -1.
         -5    1    3    3    0  502  0.25353895466E+02  0.79682458677E+01 -0.83844187996E+02  0.88054717184E+02  0.41800000000E+01 0. -1.
        -11    1    4    4    0    0  0.24293405287E+01 -0.25745840887E+02  0.37472846157E+01  0.26130292007E+02  0.00000000000E+00 0. -1.
         11    1    4    4    0    0  0.58395673785E+02  0.29363769514E+02 -0.10522461937E+03  0.12387294377E+03  0.00000000000E+00 0.  1.
</event>
<event>
 8    1  0.8619230E-006  0.1012312E+03  0.7561462E-02  0.1277728E+00
         -2   -1    0    0    0  501 -0.00000000000E+00  0.00000000000E+00  0.66264753011E+02  0.66264753011E+02  0.00000000000E+00 0.  1.
          2   -1    0    0  501    0  0.00000000000E+00 -0.00000000000E+00 -0.28445011651E+03  0.28445011651E+03  0.00000000000E+00 0. -1.
         23    2    1    2    0    0  0.57441568288E+02  0.16425425037E+02 -0.45244440412E+02  0.14624494079E+03  0.12558341834E+03 0.  0.
         23    2    1    2    0    0 -0.57441568288E+02 -0.16425425037E+02 -0.17294092309E+03  0.20446992874E+03  0.91269165242E+02 0.  0.
          5    1    3    3  502    0 -0.17903746211E+02 -0.89064382237E+01 -0.61672345579E+02  0.64967833421E+02  0.41800000000E+01 0. -1.
         -5    1    3    3    0  502  0.75345314499E+02  0.25331863261E+02  0.16427905167E+02  0.81277107364E+02  0.41800000000E+01 0.  1.
        -11    1    4    4    0    0 -0.87728665583E+01 -0.45100560506E+02 -0.11360925511E+03  0.12254830310E+03  0.00000000000E+00 0. -1.
         11    1    4    4    0    0 -0.48668701729E+02  0.28675135468E+02 -0.59331667977E+02  0.81921625637E+02  0.00000000000E+00 0.  1.
</event>
<event>
 8    1  0.8619230E-006  0.1617708E+03  0.7561462E-02  0.1186712E+00
          2   -1    0    0  501    0  0.00000000000E+00  0.00000000000E+00  0.19230464588E+02  0.19230464588E+02  0.00000000000E+00 0. -1.
         -2   -1    0    0    0  501 -0.00000000000E+00 -0.00000000000E+00 -0.14883152959E+04  0.14883152959E+04  0.00000000000E+00 0.  1.
         23    2    1    2    0    0 -0.95072642859E+02  0.86740683471E+02 -0.81659986384E+03  0.83608881876E+03  0.12508565717E+03 0.  0.
         23    2    1    2    0    0  0.95072642859E+02 -0.86740683471E+02 -0.65248496749E+03  0.67145694175E+03  0.92493449709E+02 0.  0.
          5    1    3    3  502    0 -0.94095139090E+02  0.12027573609E+02 -0.31701150839E+03  0.33092646703E+03  0.41800000000E+01 0.  1.
         -5    1    3    3    0  502 -0.97750376838E+00  0.74713109861E+02 -0.49958835545E+03  0.50516235173E+03  0.41800000000E+01 0.  1.
        -11    1    4    4    0    0  0.55638291863E+02  0.30110173624E+01 -0.32022444239E+03  0.32503596609E+03  0.00000000000E+00 0.  1.
         11    1    4    4    0    0  0.39434350996E+02 -0.89751700833E+02 -0.33226052510E+03  0.34642097567E+03  0.00000000000E+00 0. -1.
</event>
<event>
 7    1  0.8619230E-006  0.1237427E+03  0.7561462E-02  0.1237047E+00
         -4   -1    0    0    0  501 -0.00000000000E+00  0.00000000000E+00  0.11558049480E+03  0.11558049480E+03  0.00000000000E+00 0.  1.
          4   -1    0    0  501    0  0.00000000000E+00 -0.00000000000E+00 -0.25558833940E+03  0.25558833940E+03  0.00000000000E+00 0. -1.
         23    2    1    2    0    0  0.90628609521E+02 -0.37229955886E+02 -0.74409769558E+02  0.15584613846E+03  0.95663946120E+02 0.  0.
          5    1    1    2  502    0 -0.66605038908E+01  0.26452601605E+02 -0.11428835248E+03  0.11757296610E+03  0.41800000000E+01 0. -1.
         -5    1    1    2    0  502 -0.83968105631E+02  0.10777354280E+02  0.48690277446E+02  0.97749729648E+02  0.41800000000E+01 0.  1.
        -11    1    3    3    0    0  0.50535021616E+02 -0.67905597401E+02 -0.58580783795E+02  0.10294011268E+03  0.00000000000E+00 0. -1.
         11    1    3    3    0    0  0.40093587905E+02  0.30675641515E+02 -0.15828985763E+02  0.52906025779E+02  0.00000000000E+00 0.  1.
</event>
<event>
 8    1  0.8619230E-006  0.1298853E+03  0.7561462E-02  0.1227626E+00
         -1   -1    0    0    0  501 -0.00000000000E+00  0.00000000000E+00  0.42966685649E+03  0.42966685649E+03  0.00000000000E+00 0.  1.
          1   -1    0    0  501    0  0.00000000000E+00 -0.00000000000E+00 -0.59628292381E+02  0.59628292381E+02  0.00000000000E+00 0. -1.
         23    2    1    2    0    0 -0.10366587012E+03 -0.31910803107E+02  0.26779365071E+03  0.31484208207E+03  0.12508870971E+03 0.  0.
         23    2    1    2    0    0  0.10366587012E+03  0.31910803107E+02  0.10224491340E+03  0.17445306680E+03  0.90636296355E+02 0.  0.
          5    1    3    3  502    0 -0.49289626268E+02  0.18859326285E+02  0.22009349813E+03  0.22637085007E+03  0.41800000000E+01 0. -1.
         -5    1    3    3    0  502 -0.54376243854E+02 -0.50770129392E+02  0.47700152579E+02  0.88471231992E+02  0.41800000000E+01 0. -1.
        -11    1    4    4    0    0  0.74472739213E+02  0.57035374106E+02  0.98073894433E+02  0.13571186962E+03  0.00000000000E+00 0.  1.
         11    1    4    4    0    0  0.29193130910E+02 -0.25124570999E+02  0.41710189677E+01  0.38741197186E+02  0.00000000000E+00 0. -1.
</event>
<event>
 8    1  0.8619230E-006  0.1594874E+03  0.7561462E-02  0.1189277E+00
          2   -1    0    0  501    0  0.00000000000E+00  0.00000000000E+00  0.75172846943E+03  0.75172846943E+03  0.00000000000E+00 0. -1.
         -2   -1    0    0    0  501 -0.00000000000E+00 -0.00000000000E+00 -0.34340237320E+02  0.34340237320E+02  0.00000000000E+00 0.  1.
         23    2    1    2    0    0 -0.11581064090E+03 -0.14397876020E+02  0.42322231807E+03  0.45649174546E+03  0.12509268475E+03 0.  0.
         23    2    1    2    0    0  0.11581064090E+03  0.14397876020E+02  0.29416591403E+03  0.32957696129E+03  0.92021655340E+02 0.  0.
          5    1    3    3  502    0 -0.14069478280E+02 -0.58083833766E+02  0.13455525119E+03  0.14728974841E+03  0.41800000000E+01 0.  1.
         -5    1    3    3    0  502 -0.10174116262E+03  0.43685957747E+02  0.28866706689E+03  0.30920199705E+03  0.41800000000E+01 0.  1.
        -11    1    4    4    0    0  0.59665640598E+02  0.53260967428E+02  0.14727443369E+03  0.16759020895E+03  0.00000000000E+00 0. -1.
         11    1    4    4    0    0  0.56145000306E+02 -0.38863091408E+02  0.14689148035E+03  0.16198675233E+03  0.00000000000E+00 0.  1.
</event>
<event>
 8    1  0.8619230E-006  0.2922980E+03  0.7561462E-02  0.1089155E+00
         -2   -1    0    0    0  501 -0.00000000000E+00  0.00000000000E+00  0.62544794622E+03  0.62544794622E+03  0.00000000000E+00 0. -1.
          2   -1    0    0  501    0  0.00000000000E+00 -0.00000000000E+00 -0.20109136201E+03  0.20109136201E+03  0.00000000000E+00 0.  1.
         23    2    1    2    0    0  0.24881696582E+03 -0.12691260104E+03  0.43584581940E+03  0.53256489081E+03  0.12508834418E+03 0.  0.
         23    2    1    2    0    0 -0.24881696582E+03  0.12691260104E+03 -0.11489235189E+02  0.29397441742E+03  0.90951991690E+02 0.  0.
          5    1    3    3  502    0  0.17597601026E+03 -0.27546338314E+02  0.21116545639E+03  0.27628731298E+03  0.41800000000E+01 0. -1.
         -5    1    3    3    0  502  0.72840955561E+02 -0.99366262723E+02  0.22468036301E+03  0.25627757783E+03  0.41800000000E+01 0. -1.
        -11    1    4    4    0    0 -0.55981219553E+02  0.78697296154E+01 -0.34437620419E+02  0.66195009532E+02  0.00000000000E+00 0. -1.
         11    1    4    4    0    0 -0.19283574627E+03  0.11904287142E+03  0.22948385230E+02  0.22777940789E+03  0.00000000000E+00 0.  1.
</event>
<event>
 8    1  0.8619230E-006  0.1261288E+03  0.7561462E-02  0.1233316E+00
         -2   -1    0    0    0  501 -0.00000000000E+00  0.00000000000E+00  0.57691888361E+02  0.57691888361E+02  0.00000000000E+00 0. -1.
          2   -1    0    0  501    0  0.00000000000E+00 -0.00000000000E+00 -0.45854018458E+03  0.45854018458E+03  0.00000000000E+00 0.  1.
         23    2    1    2    0    0  0.36087120321E+01  0.91839044260E+02 -0.88959333096E+02  0.17890336573E+03  0.12508084774E+03 0.  0.
         23    2    1    2    0    0 -0.36087120321E+01 -0.91839044260E+02 -0.31188896313E+03  0.33732870721E+03  0.89824821387E+02 0.  0.
          5    1    3    3  502    0  0.32222410379E+02  0.10678901359E+03 -0.94039888432E+02  0.14595598710E+03  0.41800000000E+01 0. -1.
         -5    1    3    3    0  502 -0.28613698347E+02 -0.14949969330E+02  0.50805553357E+01  0.32947378630E+02  0.41800000000E+01 0. -1.
        -11    1    4    4    0    0  0.55636847635E+01 -0.97265258351E+02 -0.31180530953E+03  0.32667114369E+03  0.00000000000E+00 0.  1.
         11    1    4    4    0    0 -0.91723967956E+01  0.54262140901E+01 -0.83653598237E-01  0.10657563523E+02  0.00000000000E+00 0. -1.
</event>
<event>
 8    1  0.8619230E-006  0.1216241E+03  0.7561462E-02  0.1240442E+00
          1   -1    0    0  501    0  0.00000000000E+00  0.00000000000E+00  0.24666331697E+03  0.24666331697E+03  0.00000000000E+00 0. -1.
         -1   -1    0    0    0  501 -0.00000000000E+00 -0.00000000000E+00 -0.83292989477E+02  0.83292989477E+02  0.00000000000E+00 0.  1.
         23    2    1    2    0    0 -0.75676444034E+02  0.50358397489E+02  0.11570248422E+03  0.19312622536E+03  0.12509109356E+03 0.  0.
         23    2    1    2    0    0  0.75676444034E+02 -0.50358397489E+02  0.47667843271E+02  0.13683008108E+03  0.90484006477E+02 0.  0.
          5    1    3    3  502    0  0.25964361928E+01 -0.29416175492E+02  0.62554049665E+02  0.69300320280E+02  0.41800000000E+01 0.  1.
         -5    1    3    3    0  502 -0.78272880227E+02  0.79774572982E+02  0.53148434557E+02  0.12382590508E+03  0.41800000000E+01 0.  1.
        -11    1    4    4    0    0  0.54165015288E+02 -0.89201852430E+01 -0.16639634152E+02  0.57361101895E+02  0.00000000000E+00 0.  1.
         11    1    4    4    0    0  0.21511428746E+02 -0.41438212246E+02  0.64307477423E+02  0.79468979189E+02  0.00000000000E+00 0. -1.
</event>
<event>
 7    1  0.8619230E-006  0.1379270E+03  0.7561462E-02  0.1216146E+00
          2   -1    0    0  501    0  0.00000000000E+00  0.00000000000E+00  0.55123654880E+03  0.55123654880E+03  0.00000000000E+00 0. -1.
         -2   -1    0    0    0  501 -0.00000000000E+00 -0.00000000000E+00 -0.34381885410E+03  0.34381885410E+03  0.00000000000E+00 0.  1.
         23    2    1    2    0    0  0.43622955590E+02 -0.19875315772E+02  0.52403848523E+03  0.53526892262E+03  0.97971909692E+02 0.  0.
          5    1    1    2  502    0 -0.28037556913E+02  0.90388562157E+02 -0.14115633740E+03  0.16999641394E+03  0.41800000000E+01 0. -1.
         -5    1    1    2    0  502 -0.15585398677E+02 -0.70513246385E+02 -0.17546445313E+03  0.18979006634E+03  0.41800000000E+01 0.  1.
        -11    1    3    3    0    0  0.73485368673E+02 -0.10601955309E+01  0.37157344933E+03  0.37877176725E+03  0.00000000000E+00 0. -1.
         11    1    3    3    0    0 -0.29862413083E+02 -0.18815120241E+02  0.15246503590E+03  0.15649715536E+03  0.00000000000E+00 0.  1.
</event>
<event>
 8    1  0.8619230E-006  0.1050657E+03  0.7561462E-02  0.1269990E+00
          2   -1    0    0  501    0  0.00000000000E+00  0.00000000000E+00  0.25570436752E+03  0.25570436752E+03  0.00000000000E+00 0. -1.
         -2   -1    0    0    0  501 -0.00000000000E+00 -0.00000000000E+00 -0.55100829229E+02  0.55100829229E+02  0.00000000000E+00 0.  1.
         23    2    1    2    0    0 -0.45997181435E+02 -0.13666777587E+02  0.11793622102E+03  0.17849112798E+03  0.12509040343E+03 0.  0.
         23    2    1    2    0    0  0.45997181435E+02  0.13666777587E+02  0.82667317275E+02  0.13231406877E+03  0.91491015623E+02 0.  0.
          5    1    3    3  502    0 -0.54713730939E+02 -0.62095143733E+02  0.87347869238E+02  0.12040150285E+03  0.41800000000E+01 0. -1.
         -5    1    3    3    0  502  0.87165495038E+01  0.48428366145E+02  0.30588351777E+02  0.58089625125E+02  0.41800000000E+01 0. -1.
        -11    1    4    4    0    0 -0.14777289888E+02  0.81013920879E+01 -0.11283969122E+02  0.20281242796E+02  0.00000000000E+00 0.  1.
         11    1    4    4    0    0  0.60774471324E+02  0.55653854995E+01  0.93951286396E+02  0.11203282598E+03  0.00000000000E+00 0. -1.
</event>
<event>
 8    1  0.8619230E-006  0.8800678E+02  0.7561462E-02  0.1307752E+00
          2   -1    0    0  501    0  0.00000000000E+00  0.00000000000E+00  0.89294906360E+02  0.89294906360E+02  0.00000000000E+00 0. -1.
         -2   -1    0    0    0  501 -0.00000000000E+00 -0.00000000000E+00 -0.23983044000E+03  0.23983044000E+03  0.00000000000E+00 0.  1.
         23    2    1    2    0    0 -0.29665688644E+02 -0.51625065602E+02 -0.17586232028E+03  0.21793908888E+03  0.11412576522E+03 0.  0.
         23    2    1    2    0    0  0.29665688644E+02  0.51625065602E+02  0.25326786642E+02  0.11118625747E+03  0.90419783501E+02 0.  0.
          5    1    3    3  502    0  0.80838808018E+01 -0.28836542013E+02  0.59422790850E+01  0.30816851961E+02  0.41800000000E+01 0. -1.
         -5    1    3    3    0  502 -0.37749569446E+02 -0.22788523590E+02 -0.18180459936E+03  0.18712223692E+03  0.41800000000E+01 0.  1.
        -11    1    4    4    0    0  0.58029619080E+02  0.27362250742E+02 -0.31558037848E+01  0.64234636713E+02  0.00000000000E+00 0. -1.
         11    1    4    4    0    0 -0.28363930435E+02  0.24262814861E+02  0.28482590427E+02  0.46951620761E+02  0.00000000000E+00 0.  1.
</event>
<event>
 7    1  0.8619230E-006  0.1805251E+03  0.7561462E-02  0.1167296E+00
         -2   -1    0    0    0  501 -0.00000000000E+00  0.00000000000E+00  0.32294871188E+03  0.32294871188E+03  0.00000000000E+00 0.  1.
          2   -1    0    0  501    0  0.00000000000E+00 -0.00000000000E+00 -0.29895339129E+03  0.29895339129E+03  0.00000000000E+00 0. -1.
         23    2    1    2    0    0  0.38985747702E+02 -0.12859420288E+02 -0.83562035238E+02  0.12476760755E+03  0.83060754548E+02 0.  0.
          5    1    1    2  502    0  0.11643659831E+03  0.40161401649E+02 -0.15056377629E+03  0.19456963468E+03  0.41800000000E+01 0. -1.
         -5    1    1    2    0  502 -0.15542234601E+03 -0.27301981361E+02  0.25812113213E+03  0.30256486094E+03  0.41800000000E+01 0.  1.
        -11    1    3    3    0    0  0.48127576491E+02 -0.32647346795E+02 -0.84923304423E+02  0.10292754979E+03  0.00000000000E+00 0. -1.
         11    1    3    3    0    0 -0.91418287892E+01  0.19787926507E+02  0.13612691848E+01  0.21840057758E+02  0.00000000000E+00 0.  1.
</event>
<event>
 8    1  0.8619230E-006  0.1594857E+03  0.7561462E-02  0.1189279E+00
          2   -1    0    0  501    0  0.00000000000E+00  0.00000000000E+00  0.90548063331E+03  0.90548063331E+03  0.00000000000E+00 0. -1.
         -2   -1    0    0    0  501 -0.00000000000E+00 -0.00000000000E+00 -0.31253832032E+02  0.31253832032E+02  0.00000000000E+00 0.  1.
         23    2    1    2    0    0  0.12877191048E+03  0.51457684810E+01  0.44471984116E+03  0.47961668228E+03  0.12509093067E+03 0.  0.
         23    2    1    2    0    0 -0.12877191048E+03 -0.51457684810E+01  0.42950696011E+03  0.45711778306E+03  0.88722911039E+02 0.  0.
          5    1    3    3  502    0  0.14059476685E+03 -0.26776236821E+02  0.32635377626E+03  0.35638197906E+03  0.41800000000E+01 0. -1.
         -5    1    3    3    0  502 -0.11822856375E+02  0.31922005302E+02  0.11836606491E+03  0.12323470322E+03  0.41800000000E+01 0. -1.
        -11    1    4    4    0    0 -0.11765885627E+03 -0.23550082602E+02  0.41281184395E+03  0.42989746609E+03  0.00000000000E+00 0. -1.
         11    1    4    4    0    0 -0.11113054203E+02  0.18404314121E+02  0.16695116165E+02  0.27220316966E+02  0.00000000000E+00 0.  1.
</event>
<event>
 8    1  0.8619230E-006  0.1616613E+03  0.7561462E-02  0.1186834E+00
          1   -1    0    0  501    0  0.00000000000E+00  0.00000000000E+00  0.54864854129E+03  0.54864854129E+03  0.00000000000E+00 0. -1.
         -1   -1    0    0    0  501 -0.00000000000E+00 -0.00000000000E+00 -0.57592621335E+02  0.57592621335E+02  0.00000000000E+00 0.  1.
         23    2    1    2    0    0  0.77965528073E+02 -0.10993511788E+03  0.20865353290E+03  0.27811400681E+03  0.12508697086E+03 0.  0.
         23    2    1    2    0    0 -0.77965528073E+02  0.10993511788E+03  0.28240238705E+03  0.32812715581E+03  0.98752055465E+02 0.  0.
          5    1    3    3  502    0  0.58091565569E+02  0.12549302488E+02  0.72846997709E+02  0.94107770446E+02  0.41800000000E+01 0.  1.
         -5    1    3    3    0  502  0.19873962504E+02 -0.12248442037E+03  0.13580653519E+03  0.18400623636E+03  0.41800000000E+01 0.  1.
        -11    1    4    4    0    0 -0.69039653073E+01  0.37445237509E+02  0.17982789306E+03  0.18381480264E+03  0.00000000000E+00 0. -1.
         11    1    4    4    0    0 -0.71061562766E+02  0.72489880376E+02  0.10257449399E+03  0.14431235317E+03  0.00000000000E+00 0.  1.
</event>
<event>
 7    1  0.8619230E-006  0.1153575E+03  0.7561462E-02  0.1250958E+00
          4   -1    0    0  501    0  0.00000000000E+00  0.00000000000E+00  0.39377219218E+03  0.39377219218E+03  0.00000000000E+00 0. -1.
         -4   -1    0    0    0  501 -0.00000000000E+00 -0.00000000000E+00 -0.64045713398E+02  0.64045713398E+02  0.00000000000E+00 0.  1.
         23    2    1    2    0    0  0.18873589217E+02 -0.10031988310E+03  0.21017221039E+03  0.25007807231E+03  0.89142542687E+02 0.  0.
          5    1    1    2  502    0 -0.21406322869E+02  0.91397182847E+02  0.14924132944E+03  0.17635793859E+03  0.41800000000E+01 0. -1.
         -5    1    1    2    0  502  0.25327336519E+01  0.89227002559E+01 -0.29687061046E+02  0.31381894672E+02  0.41800000000E+01 0.  1.
        -11    1    3    3    0    0 -0.28470831762E+02 -0.49631774617E+02  0.14078951197E+03  0.15197232641E+03  0.00000000000E+00 0.  1.
         11    1    3    3    0    0  0.47344420979E+02 -0.50688108487E+02  0.69382698413E+02  0.98105745901E+02  0.00000000000E+00 0. -1.
</event>
<event>
 7    1  0.8619230E-006  0.1105687E+03  0.7561462E-02  0.1259520E+00
          2   -1    0    0  501    0  0.00000000000E+00  0.00000000000E+00  0.33483487012E+03  0.33483487012E+03  0.00000000000E+00 0. -1.
         -2   -1    0    0    0  501 -0.00000000000E+00 -0.00000000000E+00 -0.83821316945E+02  0.83821316945E+02  0.00000000000E+00 0.  1.
         23    2    1    2    0    0  0.91169309495E+01  0.68176374133E+01  0.11385860116E+03  0.14548596722E+03  0.89848689411E+02 0.  0.
          5    1    1    2  502    0 -0.70459085108E+02  0.40078932899E+01  0.18269410980E+03  0.19589577851E+03  0.41800000000E+01 0. -1.
         -5    1    1    2    0  502  0.61342154158E+02 -0.10825530703E+02 -0.45539157787E+02  0.77274441336E+02  0.41800000000E+01 0.  1.
        -11    1    3    3    0    0 -0.26668665440E+02 -0.27586300843E+02  0.67071850290E+02  0.77271306523E+02  0.00000000000E+00 0. -1.
         11    1    3    3    0    0  0.35785596389E+02  0.34403938256E+02  0.46786750872E+02  0.68214660694E+02  0.00000000000E+00 0.  1.
</event>
<event>
 8    1  0.8619230E-006  0.8132499E+02  0.7561462E-02  0.1325333E+00
          2   -1    0    0  501    0  0.00000000000E+00  0.00000000000E+00  0.22910238728E+03  0.22910238728E+03  0.00000000000E+00 0. -1.
         -2   -1    0    0    0  501 -0.00000000000E+00 -0.00000000000E+00 -0.68061661418E+02  0.68061661418E+02  0.00000000000E+00 0.  1.
         23    2    1    2    0    0 -0.91731023090E+01 -0.61659347302E+02  0.87006604038E+02  0.16464100358E+03  0.12510191845E+03 0.  0.
         23    2    1    2    0    0  0.91731023090E+01  0.61659347302E+02  0.74034121828E+02  0.13252304512E+03  0.90527815488E+02 0.  0.
          5    1    3    3  502    0 -0.35432422204E+01  0.74230513079E+01  0.94364876315E+02  0.94814864542E+02  0.41800000000E+01 0.  1.
         -5    1    3    3    0  502 -0.56298600886E+01 -0.69082398610E+02 -0.73582722774E+01  0.69826139040E+02  0.41800000000E+01 0.  1.
        -11    1    4    4    0    0 -0.23109790696E+02  0.35856309793E+02  0.80101460276E+02  0.90752307499E+02  0.00000000000E+00 0. -1.
         11    1    4    4    0    0  0.32282893005E+02  0.25803037509E+02 -0.60673384479E+01  0.41770737620E+02  0.00000000000E+00 0.  1.
</event>
<event>
 8    1  0.8619230E-006  0.1069356E+03  0.7561462E-02  0.1266352E+00
          2   -1    0    0  501    0  0.00000000000E+00  0.00000000000E+00  0.69206345860E+02  0.69206345860E+02  0.00000000000E+00 0. -1.
         -2   -1    0    0    0  501 -0.00000000000E+00 -0.00000000000E+00 -0.17962792524E+03  0.17962792524E+03  0.00000000000E+00 0.  1.
         23    2    1    2    0    0 -0.55368123165E+01  0.20107269033E+02 -0.83832615156E+02  0.15202156292E+03  0.12509072575E+03 0.  0.
         23    2    1    2    0    0  0.55368123165E+01 -0.20107269033E+02 -0.26588964221E+02  0.96812708181E+02  0.90723585073E+02 0.  0.
          5    1    3    3  502    0 -0.25693727704E+01  0.73213339946E+02 -0.45752180329E+02  0.86472707991E+02  0.41800000000E+01 0.  1.
         -5    1    3    3    0  502 -0.29674395462E+01 -0.53106070914E+02 -0.38080434827E+02  0.65548854925E+02  0.41800000000E+01 0.  1.
        -11    1    4    4    0    0 -0.33871891691E+02 -0.31356675938E+02 -0.30987161783E+02  0.55594517427E+02  0.00000000000E+00 0. -1.
         11    1    4    4    0    0  0.39408704007E+02  0.11249406905E+02  0.43981975619E+01  0.41218190754E+02  0.00000000000E+00 0.  1.
</event>
<event>
 8    1  0.8619230E-006  0.8838162E+02  0.7561462E-02  0.1306819E+00
         -2   -1    0    0    0  501 -0.00000000000E+00  0.00000000000E+00  0.29304787151E+03  0.29304787151E+03  0.00000000000E+00 0.  1.
          2   -1    0    0  501    0  0.00000000000E+00 -0.00000000000E+00 -0.45028185589E+02  0.45028185589E+02  0.00000000000E+00 0. -1.
         23    2    1    2    0    0 -0.20074779816E+02 -0.12104101370E+02  0.18348523465E+03  0.22330174590E+03  0.12508929742E+03 0.  0.
         23    2    1    2    0    0  0.20074779816E+02  0.12104101370E+02  0.64534451274E+02  0.11477431121E+03  0.91972501638E+02 0.  0.
          5    1    3    3  502    0 -0.58967464039E+02 -0.41593468591E+02  0.14104350098E+03  0.15848634015E+03  0.41800000000E+01 0.  1.
         -5    1    3    3    0  502  0.38892684223E+02  0.29489367221E+02  0.42441733669E+02  0.64815405746E+02  0.41800000000E+01 0.  1.
        -11    1    4    4    0    0 -0.17041521556E+02  0.37043363253E+01  0.73613751800E+02  0.75651305466E+02  0.00000000000E+00 0.  1.
         11    1    4    4    0    0  0.37116301372E+02  0.83997650449E+01 -0.90793005261E+01  0.39123005743E+02  0.00000000000E+00 0. -1.
</event>
<event>
 8    1  0.8619230E-006  0.1031132E+03  0.7561462E-02  0.1273882E+00
         -2   -1    0    0    0  501 -0.00000000000E+00  0.00000000000E+00  0.82221234255E+02  0.82221234255E+02  0.00000000000E+00 0.  1.
          2   -1    0    0  501    0  0.00000000000E+00 -0.00000000000E+00 -0.22011731403E+03  0.22011731403E+03  0.00000000000E+00 0. -1.
         23    2    1    2    0    0  0.30634655567E+02 -0.48941586797E+02 -0.11916687158E+02  0.13826566037E+03  0.12506647979E+03 0.  0.
         23    2    1    2    0    0 -0.30634655567E+02  0.48941586797E+02 -0.12597939262E+03  0.16407288791E+03  0.87837031731E+02 0.  0.
          5    1    3    3  502    0 -0.20262929238E+02  0.17755724326E+02  0.33162437645E+02  0.42931011148E+02  0.41800000000E+01 0. -1.
         -5    1    3    3    0  502  0.50897584805E+02 -0.66697311123E+02 -0.45079124804E+02  0.95334649226E+02  0.41800000000E+01 0. -1.
        -11    1    4    4    0    0  0.35433743860E+00  0.61515332470E+02 -0.44285580923E+02  0.75798907390E+02  0.00000000000E+00 0.  1.
         11    1    4    4    0    0 -0.30988993006E+02 -0.12573745673E+02 -0.81693811694E+02  0.88273980520E+02  0.00000000000E+00 0. -1.
</event>
<event>
 8    1  0.8619230E-006  0.1632595E+03  0.7561462E-02  0.1185065E+00
          1   -1    0    0  501    0  0.00000000000E+00  0.00000000000E+00  0.47778707573E+03  0.47778707573E+03  0.00000000000E+00 0. -1.
         -1   -1    0    0    0  501 -0.00000000000E+00 -0.00000000000E+00 -0.74918575185E+02  0.74918575185E+02  0.00000000000E+00 0.  1.
         23    2    1    2    0    0 -0.48948628272E+02 -0.12246646757E+03  0.94539248156E+02  0.20489182685E+03  0.12509591272E+03 0.  0.
         23    2    1    2    0    0  0.48948628272E+02  0.12246646757E+03  0.30832925239E+03  0.34781382407E+03  0.92268762005E+02 0.  0.
          5    1    3    3  502    0 -0.71476564910E+02 -0.13563223073E+03  0.90717236641E+02  0.17819116355E+03  0.41800000000E+01 0. -1.
         -5    1    3    3    0  502  0.22527936638E+02  0.13165763157E+02  0.38220115143E+01  0.26700663300E+02  0.41800000000E+01 0. -1.
        -11    1    4    4    0    0  0.34466349953E+02  0.13849752468E+02  0.27068698597E+02  0.45961498738E+02  0.00000000000E+00 0.  1.
         11    1    4    4    0    0  0.14482278319E+02  0.10861671510E+03  0.28126055380E+03  0.30185232533E+03  0.00000000000E+00 0. -1.
</event>
<event>
 8    1  0.8619230E-006  0.1028081E+03  0.7561462E-02  0.1274499E+00
          1   -1    0    0  501    0  0.00000000000E+00  0.00000000000E+00  0.17190540254E+03  0.17190540254E+03  0.00000000000E+00 0. -1.
         -1   -1    0    0    0  501 -0.00000000000E+00 -0.00000000000E+00 -0.10419647361E+03  0.10419647361E+03  0.00000000000E+00 0.  1.
         23    2    1    2    0    0 -0.16616985996E+02  0.37388096760E+02 -0.30776960871E+02  0.13516063599E+03  0.12508869732E+03 0.  0.
         23    2    1    2    0    0  0.16616985996E+02 -0.37388096760E+02  0.98485889807E+02  0.14094124017E+03  0.92146452377E+02 0.  0.
          5    1    3    3  502    0 -0.58814456901E+02  0.58936776092E+02 -0.26141671760E+02  0.87370151191E+02  0.41800000000E+01 0. -1.
         -5    1    3    3    0  502  0.42197470905E+02 -0.21548679332E+02 -0.46352891107E+01  0.47790484794E+02  0.41800000000E+01 0. -1.
        -11    1    4    4    0    0 -0.13116355279E+02 -0.42531985753E+02  0.10128865777E+03  0.11063634476E+03  0.00000000000E+00 0. -1.
         11    1    4    4    0    0  0.29733341275E+02  0.51438889932E+01 -0.28027679671E+01  0.30304895407E+02  0.00000000000E+00 0.  1.
</event>
<event>
 8    1  0.8619230E-006  0.1151595E+03  0.7561462E-02  0.1251303E+00
          1   -1    0    0  501    0  0.00000000000E+00  0.00000000000E+00  0.29361179660E+03  0.29361179660E+03  0.00000000000E+00 0. -1.
         -1   -1    0    0    0  501 -0.00000000000E+00 -0.00000000000E+00 -0.62909896635E+02  0.62909896635E+02  0.00000000000E+00 0.  1.
         23    2    1    2    0    0  0.47986260515E+02  0.32703411764E+02  0.38134631628E+02  0.13602508321E+03  0.11694605078E+03 0.  0.
         23    2    1    2    0    0 -0.47986260515E+02 -0.32703411764E+02  0.19256726834E+03  0.22049661002E+03  0.90357112937E+02 0.  0.
          5    1    3    3  502    0 -0.31500590680E+02 -0.95183697548E+01  0.31393203094E+02  0.45671568579E+02  0.41800000000E+01 0. -1.
         -5    1    3    3    0  502  0.79486851194E+02  0.42221781519E+02  0.67414285339E+01  0.90353514631E+02  0.41800000000E+01 0.  1.
        -11    1    4    4    0    0 -0.59849215923E+02  0.11788646511E+02  0.10067459456E+03  0.11771267911E+03  0.00000000000E+00 0.  1.
         11    1    4    4    0    0  0.11862955409E+02 -0.44492058275E+02  0.91892673772E+02  0.10278393091E+03  0.00000000000E+00 0. -1.
</event>
<event>
 8    1  0.8619230E-006  0.1113695E+03  0.7561462E-02  0.1258055E+00
          1   -1    0    0  501    0  0.00000000000E+00  0.00000000000E+00  0.27254473337E+03  0.27254473337E+03  0.00000000000E+00 0. -1.
         -1   -1    0    0    0  501 -0.00000000000E+00 -0.00000000000E+00 -0.73757877557E+02  0.73757877557E+02  0.00000000000E+00 0.  1.
         23    2    1    2    0    0 -0.33447161721E+02  0.27647418562E+02  0.10580180488E+02  0.13282491710E+03  0.12508967185E+03 0.  0.
         23    2    1    2    0    0  0.33447161721E+02 -0.27647418562E+02  0.18820667533E+03  0.21347769382E+03  0.90927887598E+02 0.  0.
          5    1    3    3  502    0  0.44224490422E+02  0.43394538872E+01 -0.15953572814E+02  0.47398579079E+02  0.41800000000E+01 0. -1.
         -5    1    3    3    0  502 -0.77671652144E+02  0.23307964675E+02  0.26533753302E+02  0.85426338025E+02  0.41800000000E+01 0. -1.
        -11    1    4    4    0    0  0.50229715161E+02 -0.48713103044E+02  0.10635152962E+03  0.12730529662E+03  0.00000000000E+00 0.  1.
         11    1    4    4    0    0 -0.16782553440E+02  0.21065684481E+02  0.81855145703E+02  0.86172397209E+02  0.00000000000E+00 0. -1.
</event>
<event>
 8    1  0.8619230E-006  0.1031563E+03  0.7561462E-02  0.1273795E+00
         -2   -1    0    0    0  501 -0.00000000000E+00  0.00000000000E+00  0.77717262316E+03  0.77717262316E+03  0.00000000000E+00 0.  1.
          2   -1    0    0  501    0  0.00000000000E+00 -0.00000000000E+00 -0.20427353192E+02  0.20427353192E+02  0.00000000000E+00 0. -1.
         23    2    1    2    0    0 -0.21244479803E+02  0.27695783751E+02  0.54186183184E+03  0.55720869011E+03  0.12509554417E+03 0.  0.
         23    2    1    2    0    0  0.21244479803E+02 -0.27695783751E+02  0.21488343813E+03  0.24039128624E+03  0.10195437293E+03 0.  0.
          5    1    3    3  502    0 -0.14810530184E+02 -0.45820758548E+02  0.12850167478E+03  0.13729182984E+03  0.41800000000E+01 0. -1.
         -5    1    3    3    0  502 -0.64339496189E+01  0.73516542299E+02  0.41336015706E+03  0.41991686028E+03  0.41800000000E+01 0. -1.
        -11    1    4    4    0    0  0.20941794835E+02  0.24291661756E+02  0.16586655816E+03  0.16893892008E+03  0.00000000000E+00 0.  1.
         11    1    4    4    0    0  0.30268496857E+00 -0.51987445507E+02  0.49016879971E+02  0.71452366166E+02  0.00000000000E+00 0. -1.
</event>
<event>
 8    1  0.8619230E-006  0.1108771E+03  0.7561462E-02  0.1258954E+00
          1   -1    0    0  501    0  0.00000000000E+00  0.00000000000E+00  0.38333972614E+03  0.38333972614E+03  0.00000000000E+00 0. -1.
         -1   -1    0    0    0  501 -0.00000000000E+00 -0.00000000000E+00 -0.37623598739E+02  0.37623598739E+02  0.00000000000E+00 0.  1.
         23    2    1    2    0    0 -0.37560598165E+02  0.33297178090E+02  0.17054876030E+03  0.21738098281E+03  0.12509241162E+03 0.  0.
         23    2    1    2    0    0  0.37560598165E+02 -0.33297178090E+02  0.17516736711E+03  0.20358234207E+03  0.90789112238E+02 0.  0.
          5    1    3    3  502    0 -0.18448786391E+02 -0.47776847467E+02  0.65400413435E+02  0.83172539643E+02  0.41800000000E+01 0.  1.
         -5    1    3    3    0  502 -0.19111811774E+02  0.81074025557E+02  0.10514834686E+03  0.13420844317E+03  0.41800000000E+01 0.  1.
        -11    1    4    4    0    0 -0.20476828443E+02 -0.17192717609E+02  0.11640188422E+03  0.11943319761E+03  0.00000000000E+00 0. -1.
         11    1    4    4    0    0  0.58037426608E+02 -0.16104460481E+02  0.58765482894E+02  0.84149144467E+02  0.00000000000E+00 0.  1.
</event>
<event>
 8    1  0.1075159E-005  0.1774377E+03  0.7561462E-02  0.1170306E+00
          2   -1    0    0  501    0  0.00000000000E+00  0.00000000000E+00  0.42525488826E+03  0.42525488826E+03  0.00000000000E+00 0.  1.
         -2   -1    0    0    0  501 -0.00000000000E+00 -0.00000000000E+00 -0.10209628097E+03  0.10209628097E+03  0.00000000000E+00 0. -1.
         23    2    1    2    0    0  0.16262733973E+03  0.52337519857E+02  0.10712894725E+03  0.23729948497E+03  0.12509023390E+03 0.  0.
         23    2    1    2    0    0 -0.16262733973E+03 -0.52337519857E+02  0.21602966004E+03  0.29005168425E+03  0.90963167870E+02 0.  0.
          5    1    3    3  502    0  0.95264462443E+02  0.17603797713E+02 -0.10258601319E+02  0.97508578081E+02  0.41800000000E+01 0.  1.
         -5    1    3    3    0  502  0.67362877283E+02  0.34733722145E+02  0.11738754857E+03  0.13979090689E+03  0.41800000000E+01 0.  1.
        -11    1    4    4    0    0 -0.10074051531E+03  0.32572092349E+00  0.69146152622E+02  0.12218816613E+03  0.00000000000E+00 0. -1.
         11    1    4    4    0    0 -0.61886824417E+02 -0.52663240781E+02  0.14688350742E+03  0.16786351813E+03  0.00000000000E+00 0.  1.
</event>
<event>
 8    1  0.8619230E-006  0.7773148E+02  0.7561462E-02  0.1335615E+00
          1   -1    0    0  501    0  0.00000000000E+00  0.00000000000E+00  0.67050320995E+03  0.67050320995E+03  0.00000000000E+00 0. -1.
         -1   -1    0    0    0  501 -0.00000000000E+00 -0.00000000000E+00 -0.24333820330E+02  0.24333820330E+02  0.00000000000E+00 0.  1.
         23    2    1    2    0    0  0.45289342706E+02 -0.22846523017E+02  0.24892965830E+03  0.28317589610E+03  0.12509806223E+03 0.  0.
         23    2    1    2    0    0 -0.45289342706E+02  0.22846523017E+02  0.39723973132E+03  0.41166113417E+03  0.95354061670E+02 0.  0.
          5    1    3    3  502    0  0.10080800591E+02  0.50616876005E+01 -0.12811368791E+02  0.17574037448E+02  0.41800000000E+01 0.  1.
         -5    1    3    3    0  502  0.35208542114E+02 -0.27908210617E+02  0.26174102709E+03  0.26560185865E+03  0.41800000000E+01 0.  1.
        -11    1    4    4    0    0  0.16375458200E+02  0.32023411260E+02  0.71815428915E+02  0.80318804337E+02  0.00000000000E+00 0.  1.
         11    1    4    4    0    0 -0.61664800905E+02 -0.91768882433E+01  0.32542430240E+03  0.33134232984E+03  0.00000000000E+00 0. -1.
</event>
<event>
 8    1  0.8619230E-006  0.9562963E+02  0.7561462E-02  0.1289764E+00
         -2   -1    0    0    0  501 -0.00000000000E+00  0.00000000000E+00  0.35169311067E+02  0.35169311067E+02  0.00000000000E+00 0.  1.
          2   -1    0    0  501    0  0.00000000000E+00 -0.00000000000E+00 -0.51002314423E+03  0.51002314423E+03  0.00000000000E+00 0. -1.
         23    2    1    2    0    0  0.42575922225E+02  0.18820675094E+02 -0.13524949083E+03  0.19001802625E+03  0.12508996190E+03 0.  0.
         23    2    1    2    0    0 -0.42575922225E+02 -0.18820675094E+02 -0.33960434233E+03  0.35517442904E+03  0.93009885220E+02 0.  0.
          5    1    3    3  502    0  0.49980735062E+02 -0.15220871970E+02 -0.14451617333E+03  0.15372750429E+03  0.41800000000E+01 0.  1.
         -5    1    3    3    0  502 -0.74048128368E+01  0.34041547064E+02  0.92666825055E+01  0.36290521962E+02  0.41800000000E+01 0.  1.
        -11    1    4    4    0    0 -0.34385129752E+02  0.35148495121E+02 -0.17328528960E+03  0.18012647071E+03  0.00000000000E+00 0.  1.
         11    1    4    4    0    0 -0.81907924733E+01 -0.53969170215E+02 -0.16631905273E+03  0.17504795833E+03  0.00000000000E+00 0. -1.
</event>
<event>
 8    1  0.8619230E-006  0.9282331E+02  0.7561462E-02  0.1296155E+00
         -1   -1    0    0    0  501 -0.00000000000E+00  0.00000000000E+00  0.47886944984E+02  0.47886944984E+02  0.00000000000E+00 0.  1.
          1   -1    0    0  501    0  0.00000000000E+00 -0.00000000000E+00 -0.31685550588E+03  0.31685550588E+03  0.00000000000E+00 0. -1.
         23    2    1    2    0    0  0.37805863017E+02 -0.15598466261E+02 -0.89447776754E+02  0.15912534779E+03  0.12508947243E+03 0.  0.
         23    2    1    2    0    0 -0.37805863017E+02  0.15598466261E+02 -0.17952078414E+03  0.20561710307E+03  0.91531883576E+02 0.  0.
          5    1    3    3  502    0  0.71166540592E+02 -0.43008573519E+01 -0.99946572337E+01  0.72114765804E+02  0.41800000000E+01 0.  1.
         -5    1    3    3    0  502 -0.33360677575E+02 -0.11297608909E+02 -0.79453119521E+02  0.87010581982E+02  0.41800000000E+01 0.  1.
        -11    1    4    4    0    0 -0.50490558021E+02 -0.88078874320E+01 -0.16826445387E+03  0.17589713404E+03  0.00000000000E+00 0. -1.
         11    1    4    4    0    0  0.12684695004E+02  0.24406353693E+02 -0.11256330273E+02  0.29719969030E+02  0.00000000000E+00 0.  1.
</event>
<event>
 8    1  0.8619230E-006  0.1119869E+03  0.7561462E-02  0.1256934E+00
         -1   -1    0    0    0  501 -0.00000000000E+00  0.00000000000E+00  0.20578830066E+02  0.20578830066E+02  0.00000000000E+00 0.  1.
          1   -1    0    0  501    0  0.00000000000E+00 -0.00000000000E+00 -0.78321921216E+03  0.78321921216E+03  0.00000000000E+00 0. -1.
         23    2    1    2    0    0 -0.25857474460E+01  0.57337695825E+02 -0.32178116277E+03  0.34997896220E+03  0.12509140585E+03 0.  0.
         23    2    1    2    0    0  0.25857474460E+01 -0.57337695825E+02 -0.44085921933E+03  0.45381908003E+03  0.91107676282E+02 0.  0.
          5    1    3    3  502    0 -0.46745354275E+02  0.56413080583E+02 -0.10135074614E+03  0.12512797429E+03  0.41800000000E+01 0. -1.
         -5    1    3    3    0  502  0.44159606829E+02  0.92461524177E+00 -0.22043041663E+03  0.22485098791E+03  0.41800000000E+01 0. -1.
        -11    1    4    4    0    0  0.45526447185E+02 -0.37220582292E+02 -0.20645184672E+03  0.21466344391E+03  0.00000000000E+00 0. -1.
         11    1    4    4    0    0 -0.42940699739E+02 -0.20117113533E+02 -0.23440737261E+03  0.23915563612E+03  0.00000000000E+00 0.  1.
</event>
<event>
 8    1  0.8619230E-006  0.1103450E+03  0.7561462E-02  0.1259932E+00
         -1   -1    0    0    0  501 -0.00000000000E+00  0.00000000000E+00  0.63907163618E+02  0.63907163618E+02  0.00000000000E+00 0.  1.
          1   -1    0    0  501    0  0.00000000000E+00 -0.00000000000E+00 -0.21305317341E+03  0.21305317341E+03  0.00000000000E+00 0. -1.
         23    2    1    2    0    0  0.27786331742E+02 -0.30176292979E+02 -0.10449943592E+03  0.16808483703E+03  0.12509872677E+03 0.  0.
         23    2    1    2    0    0 -0.27786331742E+02  0.30176292979E+02 -0.44646573869E+02  0.10887550000E+03  0.90431571104E+02 0.  0.
          5    1    3    3  502    0  0.13187054033E+02 -0.74230080230E+02 -0.32238537748E+02  0.82102368548E+02  0.41800000000E+01 0. -1.
         -5    1    3    3    0  502  0.14599277709E+02  0.44053787251E+02 -0.72260898177E+02  0.85982468481E+02  0.41800000000E+01 0. -1.
        -11    1    4    4    0    0 -0.12997474256E+02 -0.32070768902E+02 -0.22001219091E+02  0.41006367755E+02  0.00000000000E+00 0. -1.
         11    1    4    4    0    0 -0.14788857487E+02  0.62247061881E+02 -0.22645354778E+02  0.67869132245E+02  0.00000000000E+00 0.  1.
</event>
<event>
 8    1  0.8619230E-006  0.9992975E+02  0.7561462E-02  0.1280444E+00
          1   -1    0    0  501    0  0.00000000000E+00  0.00000000000E+00  0.19581736356E+03  0.19581736356E+03  0.00000000000E+00 0. -1.
         -1   -1    0    0    0  501 -0.00000000000E+00 -0.00000000000E+00 -0.93069448331E+02  0.93069448331E+02  0.00000000000E+00 0.  1.
         23    2    1    2    0    0  0.68789909948E+02 -0.38407315879E+02  0.40084678176E+02  0.15315291862E+03  0.12506742755E+03 0.  0.
         23    2    1    2    0    0 -0.68789909948E+02  0.38407315879E+02  0.62663237051E+02  0.13573389327E+03  0.91048530356E+02 0.  0.
          5    1    3    3  502    0  0.26598664649E+02 -0.98814779417E+01  0.82119986977E+02  0.86984465444E+02  0.41800000000E+01 0.  1.
         -5    1    3    3    0  502  0.42191245299E+02 -0.28525837937E+02 -0.42035308802E+02  0.66168453178E+02  0.41800000000E+01 0.  1.
        -11    1    4    4    0    0  0.79586423881E+01 -0.21365030669E+02  0.15924193826E+02  0.27809790958E+02  0.00000000000E+00 0. -1.
         11    1    4    4    0    0 -0.76748552336E+02  0.59772346548E+02  0.46739043225E+02  0.10792410231E+03  0.00000000000E+00 0.  1.
</event>
<event>
 8    1  0.8619230E-006  0.9758384E+02  0.7561462E-02  0.1285460E+00
          2   -1    0    0  501    0  0.00000000000E+00  0.00000000000E+00  0.17827852386E+03  0.17827852386E+03  0.00000000000E+00 0. -1.
         -2   -1    0    0    0  501 -0.00000000000E+00 -0.00000000000E+00 -0.10680070370E+03  0.10680070370E+03  0.00000000000E+00 0.  1.
         23    2    1    2    0    0 -0.88333941947E+01 -0.84755455379E+02  0.41622987360E+02  0.15697516653E+03  0.12508882349E+03 0.  0.
         23    2    1    2    0    0  0.88333941947E+01  0.84755455379E+02  0.29854832793E+02  0.12810406102E+03  0.90872566488E+02 0.  0.
          5    1    3    3  502    0  0.24438592195E+02 -0.30229672084E+02  0.75151991851E+02  0.84713470841E+02  0.41800000000E+01 0. -1.
         -5    1    3    3    0  502 -0.33271986389E+02 -0.54525783295E+02 -0.33529004491E+02  0.72261695693E+02  0.41800000000E+01 0. -1.
        -11    1    4    4    0    0 -0.12528570942E+02  0.47388991291E+02  0.58560920910E+02  0.76367945129E+02  0.00000000000E+00 0. -1.
         11    1    4    4    0    0  0.21361965136E+02  0.37366464088E+02 -0.28706088116E+02  0.51736115895E+02  0.00000000000E+00 0.  1.
</event>
<event>
 8    1  0.8619230E-006  0.1583497E+03  0.7561462E-02  0.1190573E+00
         -2   -1    0    0    0  501 -0.00000000000E+00  0.00000000000E+00  0.52753837077E+02  0.52753837077E+02  0.00000000000E+00 0.  1.
          2   -1    0    0  501    0  0.00000000000E+00 -0.00000000000E+00 -0.71885098878E+03  0.71885098878E+03  0.00000000000E+00 0. -1.
         23    2    1    2    0    0  0.13123867367E+03  0.51298656650E+02 -0.19323989675E+03  0.26989678775E+03  0.12508987450E+03 0.  0.
         23    2    1    2    0    0 -0.13123867367E+03 -0.51298656650E+02 -0.47285725495E+03  0.50170803810E+03  0.90894610923E+02 0.  0.
          5    1    3    3  502    0  0.82654751586E+02  0.83072908413E+02 -0.78122050218E+02  0.14090224697E+03  0.41800000000E+01 0. -1.
         -5    1    3    3    0  502  0.48583922088E+02 -0.31774251764E+02 -0.11511784653E+03  0.12899454078E+03  0.41800000000E+01 0. -1.
        -11    1    4    4    0    0 -0.62365125069E+02 -0.29533351135E+02 -0.97403758240E+02  0.11936967694E+03  0.00000000000E+00 0.  1.
         11    1    4    4    0    0 -0.68873548605E+02 -0.21765305515E+02 -0.37545349671E+03  0.38233836116E+03  0.00000000000E+00 0. -1.
</event>
<event>
 8    1  0.8619230E-006  0.1828966E+03  0.7561462E-02  0.1165029E+00
          1   -1    0    0  501    0  0.00000000000E+00  0.00000000000E+00  0.19059527475E+04  0.19059527475E+04  0.00000000000E+00 0. -1.
         -1   -1    0    0    0  501 -0.00000000000E+00 -0.00000000000E+00 -0.17594293400E+02  0.17594293400E+02  0.00000000000E+00 0.  1.
         23    2    1    2    0    0 -0.77816439071E+02  0.12400984358E+03  0.10309698462E+04  0.10487991507E+04  0.12508795028E+03 0.  0.
         23    2    1    2    0    0  0.77816439071E+02 -0.12400984358E+03  0.85738860788E+03  0.87474789015E+03  0.92923661703E+02 0.  0.
          5    1    3    3  502    0  0.34303289580E+02  0.34922870197E+02  0.28285623723E+03  0.28709135459E+03  0.41800000000E+01 0. -1.
         -5    1    3    3    0  502 -0.11211972865E+03  0.89086973381E+02  0.74811360899E+03  0.76170779616E+03  0.41800000000E+01 0. -1.
        -11    1    4    4    0    0  0.67833363729E+02 -0.22601735562E+02  0.35022718561E+03  0.35745109487E+03  0.00000000000E+00 0.  1.
         11    1    4    4    0    0  0.99830753418E+01 -0.10140810802E+03  0.50716142227E+03  0.51729679528E+03  0.00000000000E+00 0. -1.
</event>
<event>
 8    1  0.8619230E-006  0.1180476E+03  0.7561462E-02  0.1246353E+00
          1   -1    0    0  501    0  0.00000000000E+00  0.00000000000E+00  0.62938834968E+03  0.62938834968E+03  0.00000000000E+00 0. -1.
         -1   -1    0    0    0  501 -0.00000000000E+00 -0.00000000000E+00 -0.41524564356E+02  0.41524564356E+02  0.00000000000E+00 0.  1.
         23    2    1    2    0    0 -0.27300360902E+02 -0.97955237041E+02  0.18355672823E+03  0.24429699840E+03  0.12508961898E+03 0.  0.
         23    2    1    2    0    0  0.27300360902E+02  0.97955237041E+02  0.40430705709E+03  0.42661591564E+03  0.90533998553E+02 0.  0.
          5    1    3    3  502    0  0.26221709424E+02 -0.52295564280E+02  0.13455851020E+02  0.60174217195E+02  0.41800000000E+01 0.  1.
         -5    1    3    3    0  502 -0.53522070326E+02 -0.45659672761E+02  0.17010087721E+03  0.18412278120E+03  0.41800000000E+01 0.  1.
        -11    1    4    4    0    0  0.87835937314E+01  0.82165637690E+02  0.38941523707E+03  0.39808613440E+03  0.00000000000E+00 0. -1.
         11    1    4    4    0    0  0.18516767171E+02  0.15789599351E+02  0.14891820015E+02  0.28529781238E+02  0.00000000000E+00 0.  1.
</event>
<event>
 8    1  0.8619230E-006  0.1041107E+03  0.7561462E-02  0.1271882E+00
         -1   -1    0    0    0  501 -0.00000000000E+00  0.00000000000E+00  0.40006414749E+02  0.40006414749E+02  0.00000000000E+00 0. -1.
          1   -1    0    0  501    0  0.00000000000E+00 -0.00000000000E+00 -0.37049785450E+03  0.37049785450E+03  0.00000000000E+00 0.  1.
         23    2    1    2    0    0  0.50494002880E+01  0.29009545541E+02 -0.10940427587E+03  0.16877068392E+03  0.12508876047E+03 0.  0.
         23    2    1    2    0    0 -0.50494002880E+01 -0.29009545541E+02 -0.22108716388E+03  0.24173358533E+03  0.93212349335E+02 0.  0.
          5    1    3    3  502    0 -0.51864212209E+02  0.37418748380E+02 -0.84212123876E+02  0.10582633626E+03  0.41800000000E+01 0. -1.
         -5    1    3    3    0  502  0.56913612497E+02 -0.84092028390E+01 -0.25192151992E+02  0.62944347656E+02  0.41800000000E+01 0. -1.
        -11    1    4    4    0    0 -0.38308576245E+02 -0.35879336811E+02 -0.18447038465E+03  0.19179206614E+03  0.00000000000E+00 0.  1.
         11    1    4    4    0    0  0.33259175957E+02  0.68697912703E+01 -0.36616779239E+02  0.49941519192E+02  0.00000000000E+00 0. -1.
</event>
<event>
 8    1  0.8619230E-006  0.1268856E+03  0.7561462E-02  0.1232151E+00
          1   -1    0    0  501    0  0.00000000000E+00  0.00000000000E+00  0.30684587800E+03  0.30684587800E+03  0.00000000000E+00 0. -1.
         -1   -1    0    0    0  501 -0.00000000000E+00 -0.00000000000E+00 -0.68844155659E+02  0.68844155659E+02  0.00000000000E+00 0.  1.
         23    2    1    2    0    0  0.10208820611E+03  0.85990518312E+01  0.11613380927E+03  0.19907378141E+03  0.12508942111E+03 0.  0.
         23    2    1    2    0    0 -0.10208820611E+03 -0.85990518312E+01  0.12186791307E+03  0.17661625224E+03  0.76456306482E+02 0.  0.
          5    1    3    3  502    0  0.86391907223E+02  0.42702927255E+02  0.12726786900E+03  0.15969246854E+03  0.41800000000E+01 0. -1.
         -5    1    3    3    0  502  0.15696298885E+02 -0.34103875424E+02 -0.11134059729E+02  0.39381312874E+02  0.41800000000E+01 0. -1.
        -11    1    4    4    0    0 -0.32286256481E+02  0.26164372494E+02  0.74699147366E+02  0.85480637356E+02  0.00000000000E+00 0. -1.
         11    1    4    4    0    0 -0.69801949628E+02 -0.34763424325E+02  0.47168765706E+02  0.91135614887E+02  0.00000000000E+00 0.  1.
</event>
<event>
 8    1  0.8619230E-006  0.1971848E+03  0.7561462E-02  0.1152136E+00
         -1   -1    0    0    0  501 -0.00000000000E+00  0.00000000000E+00  0.34678840111E+03  0.34678840111E+03  0.00000000000E+00 0.  1.
          1   -1    0    0  501    0  0.00000000000E+00 -0.00000000000E+00 -0.13324035064E+03  0.13324035064E+03  0.00000000000E+00 0. -1.
         23    2    1    2    0    0 -0.14189155302E+03  0.11439575322E+03  0.75587843511E+02  0.23361537979E+03  0.12507206889E+03 0.  0.
         23    2    1    2    0    0  0.14189155302E+03 -0.11439575322E+03  0.13796020695E+03  0.24641337196E+03  0.92015922573E+02 0.  0.
          5    1    3    3  502    0 -0.90344967532E+02  0.29862444998E+02 -0.18434267611E+02  0.97011717859E+02  0.41800000000E+01 0.  1.
         -5    1    3    3    0  502 -0.51546585484E+02  0.84533308217E+02  0.94022111123E+02  0.13660366193E+03  0.41800000000E+01 0.  1.
        -11    1    4    4    0    0  0.44512613106E+02  0.62893828017E+01  0.53332258583E+02  0.69751407636E+02  0.00000000000E+00 0.  1.
         11    1    4    4    0    0  0.97378939909E+02 -0.12068513602E+03  0.84627948368E+02  0.17666196432E+03  0.00000000000E+00 0. -1.
</event>
<event>
 7    1  0.8619230E-006  0.1549834E+03  0.7561462E-02  0.1194480E+00
          2   -1    0    0  501    0  0.00000000000E+00  0.00000000000E+00  0.22724167877E+03  0.22724167877E+03  0.00000000000E+00 0. -1.
         -2   -1    0    0    0  501 -0.00000000000E+00 -0.00000000000E+00 -0.21074112307E+03  0.21074112307E+03  0.00000000000E+00 0.  1.
         23    2    1    2    0    0  0.12508378226E+02 -0.26623719978E+02  0.94854857151E+02  0.13413554918E+03  0.90164403379E+02 0.  0.
          5    1    1    2  502    0  0.68303776400E+02 -0.65744830089E+02  0.65048310886E+02  0.11505017907E+03  0.41800000000E+01 0. -1.
         -5    1    1    2    0  502 -0.80812154626E+02  0.92368550067E+02 -0.14340261234E+03  0.18879707361E+03  0.41800000000E+01 0.  1.
        -11    1    3    3    0    0  0.50294150437E+02 -0.18729351620E+02  0.39442879868E+02  0.66603535586E+02  0.00000000000E+00 0. -1.
         11    1    3    3    0    0 -0.37785772211E+02 -0.78943683581E+01  0.55411977283E+02  0.67532013592E+02  0.00000000000E+00 0.  1.
</event>
<event>
 8    1  0.8619230E-006  0.1210572E+03  0.7561462E-02  0.1241363E+00
          2   -1    0    0  501    0  0.00000000000E+00  0.00000000000E+00  0.65764490036E+03  0.65764490036E+03  0.00000000000E+00 0. -1.
         -2   -1    0    0    0  501 -0.00000000000E+00 -0.00000000000E+00 -0.39056291508E+02  0.39056291508E+02  0.00000000000E+00 0.  1.
         23    2    1    2    0    0  0.51866741499E+02  0.33325194339E+02  0.11353512526E+03  0.17982813154E+03  0.12508878757E+03 0.  0.
         23    2    1    2    0    0 -0.51866741499E+02 -0.33325194339E+02  0.50505348359E+03  0.51687306032E+03  0.90983579554E+02 0.  0.
          5    1    3    3  502    0  0.68175812376E-01  0.69141704713E+02  0.87391009100E+02  0.11151341108E+03  0.41800000000E+01 0.  1.
         -5    1    3    3    0  502  0.51798565687E+02 -0.35816510374E+02  0.26144116160E+02  0.68314720466E+02  0.41800000000E+01 0.  1.
        -11    1    4    4    0    0 -0.64932214351E+02  0.88932927495E+01  0.31562782714E+03  0.32236037037E+03  0.00000000000E+00 0.  1.
         11    1    4    4    0    0  0.13065472851E+02 -0.42218487089E+02  0.18942565644E+03  0.19451268995E+03  0.00000000000E+00 0. -1.
</event>
<event>
 8    1  0.8619230E-006  0.1300251E+03  0.7561462E-02  0.1227419E+00
         -1   -1    0    0    0  501 -0.00000000000E+00  0.00000000000E+00  0.75810057532E+02  0.75810057532E+02  0.00000000000E+00 0.  1.
          1   -1    0    0  501    0  0.00000000000E+00 -0.00000000000E+00 -0.40516457156E+03  0.40516457156E+03  0.00000000000E+00 0. -1.
         23    2    1    2    0    0 -0.46222707362E+02 -0.71393326733E+02 -0.27733131015E+02  0.15378775760E+03  0.12509197438E+03 0.  0.
         23    2    1    2    0    0  0.46222707362E+02  0.71393326733E+02 -0.30162138301E+03  0.32718687149E+03  0.94033209062E+02 0.  0.
          5    1    3    3  502    0 -0.47162791688E+02 -0.10372834886E+03 -0.37004806538E+02  0.11987796872E+03  0.41800000000E+01 0.  1.
         -5    1    3    3    0  502  0.94008432592E+00  0.32335022132E+02  0.92716755234E+01  0.33909788879E+02  0.41800000000E+01 0.  1.
        -11    1    4    4    0    0 -0.27572932814E+01  0.63781469164E+02 -0.93310817929E+02  0.11306010445E+03  0.00000000000E+00 0.  1.
         11    1    4    4    0    0  0.48980000643E+02  0.76118575697E+01 -0.20831056508E+03  0.21412676704E+03  0.00000000000E+00 0. -1.
</event>
<event>
 8    1  0.8619230E-006  0.1021766E+03  0.7561462E-02  0.1275784E+00
          3   -1    0    0  501    0  0.00000000000E+00  0.00000000000E+00  0.13976035993E+03  0.13976035993E+03  0.00000000000E+00 0. -1.
         -3   -1    0    0    0  501 -0.00000000000E+00 -0.00000000000E+00 -0.95278665482E+02  0.95278665482E+02  0.00000000000E+00 0.  1.
         23    2    1    2    0    0 -0.37297018341E+02  0.11019224063E+02  0.13989306198E+02  0.13174125917E+03  0.12509023864E+03 0.  0.
         23    2    1    2    0    0  0.37297018341E+02 -0.11019224063E+02  0.30492388254E+02  0.10329776625E+03  0.90709161027E+02 0.  0.
          5    1    3    3  502    0  0.14258169379E+02 -0.43073922330E+02  0.30845659708E+02  0.55023497724E+02  0.41800000000E+01 0.  1.
         -5    1    3    3    0  502 -0.51555187719E+02  0.54093146393E+02 -0.16856353510E+02  0.76717761445E+02  0.41800000000E+01 0.  1.
        -11    1    4    4    0    0 -0.15341430641E+02 -0.25135292766E+02  0.38226271394E+02  0.48253396370E+02  0.00000000000E+00 0. -1.
         11    1    4    4    0    0  0.52638448982E+02  0.14116068703E+02 -0.77338831400E+01  0.55044369878E+02  0.00000000000E+00 0.  1.
</event>
<event>
 8    1  0.8619230E-006  0.8625377E+02  0.7561462E-02  0.1312186E+00
          2   -1    0    0  501    0  0.00000000000E+00  0.00000000000E+00  0.13604124304E+03  0.13604124304E+03  0.00000000000E+00 0. -1.
         -2   -1    0    0    0  501 -0.00000000000E+00 -0.00000000000E+00 -0.10483896011E+03  0.10483896011E+03  0.00000000000E+00 0.  1.
         23    2    1    2    0    0  0.40925811408E+02 -0.24872133834E+02 -0.17278443203E+01  0.13395278347E+03  0.12508724025E+03 0.  0.
         23    2    1    2    0    0 -0.40925811408E+02  0.24872133834E+02  0.32930127252E+02  0.10692741968E+03  0.89752630705E+02 0.  0.
          5    1    3    3  502    0  0.72641173748E+02 -0.43350890014E+02  0.25052403507E+02  0.88324034725E+02  0.41800000000E+01 0.  1.
         -5    1    3    3    0  502 -0.31715362340E+02  0.18478756179E+02 -0.26780247828E+02  0.45628748745E+02  0.41800000000E+01 0.  1.
        -11    1    4    4    0    0 -0.18904277528E+02  0.18266480748E+01 -0.30504943925E+02  0.35934105748E+02  0.00000000000E+00 0.  1.
         11    1    4    4    0    0 -0.22021533880E+02  0.23045485760E+02  0.63435071177E+02  0.70993313936E+02  0.00000000000E+00 0. -1.
</event>
<event>
 7    1  0.8619230E-006  0.1778315E+03  0.7561462E-02  0.1169918E+00
         -1   -1    0    0    0  501 -0.00000000000E+00  0.00000000000E+00  0.17066250907E+03  0.17066250907E+03  0.00000000000E+00 0.  1.
          1   -1    0    0  501    0  0.00000000000E+00 -0.00000000000E+00 -0.28680484179E+03  0.28680484179E+03  0.00000000000E+00 0. -1.
         23    2    1    2    0    0 -0.11180582485E+03  0.33607415356E+02 -0.18101418450E+03  0.23419332909E+03  0.91925946074E+02 0.  0.
          5    1    1    2  502    0  0.46472252834E+02  0.72069934952E+02  0.46413766210E+02  0.97598442105E+02  0.41800000000E+01 0. -1.
         -5    1    1    2    0  502  0.65333572019E+02 -0.10567735031E+03  0.18458085569E+02  0.12567557966E+03  0.41800000000E+01 0.  1.
        -11    1    3    3    0    0  0.32259220447E+01 -0.18808774649E+02 -0.42955230312E+02  0.47003493360E+02  0.00000000000E+00 0.  1.
         11    1    3    3    0    0 -0.11503174690E+03  0.52416190005E+02 -0.13805895419E+03  0.18718983573E+03  0.00000000000E+00 0. -1.
</event>
<event>
 8    1  0.8619230E-006  0.1509344E+03  0.7561462E-02  0.1199329E+00
         -1   -1    0    0    0  501 -0.00000000000E+00  0.00000000000E+00  0.80439889576E+02  0.80439889576E+02  0.00000000000E+00 0.  1.
          1   -1    0    0  501    0  0.00000000000E+00 -0.00000000000E+00 -0.33373324442E+03  0.33373324442E+03  0.00000000000E+00 0. -1.
         23    2    1    2    0    0 -0.72129786372E+02 -0.10161657109E+03 -0.13558082422E+03  0.22261067421E+03  0.12507885022E+03 0.  0.
         23    2    1    2    0    0  0.72129786372E+02  0.10161657109E+03 -0.11771253061E+03  0.19156245978E+03  0.85506154917E+02 0.  0.
          5    1    3    3  502    0 -0.69709730001E+02 -0.17489774364E+02 -0.11531522265E+03  0.13594267777E+03  0.41800000000E+01 0. -1.
         -5    1    3    3    0  502 -0.24200563711E+01 -0.84126796730E+02 -0.20265601577E+02  0.86667996448E+02  0.41800000000E+01 0. -1.
        -11    1    4    4    0    0  0.70462174103E+02  0.34465056199E+02 -0.37511869870E+02  0.86947676560E+02  0.00000000000E+00 0.  1.
         11    1    4    4    0    0  0.16676122694E+01  0.67151514895E+02 -0.80200660745E+02  0.10461478322E+03  0.00000000000E+00 0. -1.
</event>
<event>
 8    1  0.8619230E-006  0.1196398E+03  0.7561462E-02  0.1243693E+00
          2   -1    0    0  501    0  0.00000000000E+00  0.00000000000E+00  0.11691483812E+03  0.11691483812E+03  0.00000000000E+00 0. -1.
         -2   -1    0    0    0  501 -0.00000000000E+00 -0.00000000000E+00 -0.12756029050E+03  0.12756029050E+03  0.00000000000E+00 0.  1.
         23    2    1    2    0    0  0.83199282751E+01 -0.52147829423E+02 -0.29846420080E+02  0.13902161671E+03  0.12509030258E+03 0.  0.
         23    2    1    2    0    0 -0.83199282751E+01  0.52147829423E+02  0.19200967707E+02  0.10545351191E+03  0.89236476252E+02 0.  0.
          5    1    3    3  502    0  0.41560922133E+02  0.27062348501E+02 -0.10368376858E+02  0.50839518031E+02  0.41800000000E+01 0. -1.
         -5    1    3    3    0  502 -0.33240993858E+02 -0.79210177924E+02 -0.19478043222E+02  0.88182098677E+02  0.41800000000E+01 0. -1.
        -11    1    4    4    0    0  0.40346094895E+02  0.18814922513E+02  0.51354414882E+01  0.44812737494E+02  0.00000000000E+00 0.  1.
         11    1    4    4    0    0 -0.48666023170E+02  0.33332906909E+02  0.14065526218E+02  0.60640774418E+02  0.00000000000E+00 0. -1.
</event>
<event>
 8    1  0.8619230E-006  0.9781285E+02  0.7561462E-02  0.1284964E+00
         -2   -1    0    0    0  501 -0.00000000000E+00  0.00000000000E+00  0.10753891219E+03  0.10753891219E+03  0.00000000000E+00 0.  1.
          2   -1    0    0  501    0  0.00000000000E+00 -0.00000000000E+00 -0.11274085631E+03  0.11274085631E+03  0.00000000000E+00 0. -1.
         23    2    1    2    0    0 -0.23680332453E+02 -0.21476140312E+01  0.42084666398E+01  0.12739739559E+03  0.12508802829E+03 0.  0.
         23    2    1    2    0    0  0.23680332453E+02  0.21476140312E+01 -0.94104107520E+01  0.92882372908E+02  0.89292827122E+02 0.  0.
          5    1    3    3  502    0 -0.17420256961E+02  0.49932403338E+02  0.37647685675E+02  0.65050218235E+02  0.41800000000E+01 0.  1.
         -5    1    3    3    0  502 -0.62600754920E+01 -0.52080017369E+02 -0.33439219036E+02  0.62347177354E+02  0.41800000000E+01 0.  1.
        -11    1    4    4    0    0  0.39850176647E+02 -0.32693503783E+02 -0.15869081947E+02  0.53932638822E+02  0.00000000000E+00 0.  1.
         11    1    4    4    0    0 -0.16169844194E+02  0.34841117814E+02  0.64586711954E+01  0.38949734087E+02  0.00000000000E+00 0. -1.
</event>
<event>
 8    1  0.8619230E-006  0.3327356E+03  0.7561462E-02  0.1069933E+00
         -1   -1    0    0    0  501 -0.00000000000E+00  0.00000000000E+00  0.83545979765E+03  0.83545979765E+03  0.00000000000E+00 0.  1.
          1   -1    0    0  501    0  0.00000000000E+00 -0.00000000000E+00 -0.24545331444E+03  0.24545331444E+03  0.00000000000E+00 0. -1.
         23    2    1    2    0    0  0.19341142071E+03  0.25558620317E+03  0.65543075502E+03  0.74024995237E+03  0.12509289529E+03 0.  0.
         23    2    1    2    0    0 -0.19341142071E+03 -0.25558620317E+03 -0.65424271801E+02  0.34066315972E+03  0.95072436250E+02 0.  0.
          5    1    3    3  502    0  0.11464014069E+03  0.61743108930E+02  0.19532267239E+03  0.23478286161E+03  0.41800000000E+01 0. -1.
         -5    1    3    3    0  502  0.78771280019E+02  0.19384309424E+03  0.46010808263E+03  0.50546709076E+03  0.41800000000E+01 0. -1.
        -11    1    4    4    0    0 -0.91103064699E+02 -0.16854383998E+03 -0.77978598790E+00  0.19159175989E+03  0.00000000000E+00 0.  1.
         11    1    4    4    0    0 -0.10230835601E+03 -0.87042363195E+02 -0.64644485813E+02  0.14907139983E+03  0.00000000000E+00 0. -1.
</event>
<event>
 8    1  0.8619230E-006  0.9571867E+02  0.7561462E-02  0.1289566E+00
         -2   -1    0    0    0  501 -0.00000000000E+00  0.00000000000E+00  0.15182284438E+03  0.15182284438E+03  0.00000000000E+00 0.  1.
          2   -1    0    0  501    0  0.00000000000E+00 -0.00000000000E+00 -0.79060351356E+02  0.79060351356E+02  0.00000000000E+00 0. -1.
         23    2    1    2    0    0 -0.62536477114E+01  0.96880209047E+01  0.59831136233E+02  0.13914135064E+03  0.12509030632E+03 0.  0.
         23    2    1    2    0    0  0.62536477114E+01 -0.96880209047E+01  0.12931356795E+02  0.91741845105E+02  0.90090955683E+02 0.  0.
          5    1    3    3  502    0 -0.23079913052E+02  0.64011313725E+02  0.26870714523E+02  0.73277816358E+02  0.41800000000E+01 0.  1.
         -5    1    3    3    0  502  0.16826265341E+02 -0.54323292820E+02  0.32960421711E+02  0.65863534277E+02  0.41800000000E+01 0.  1.
        -11    1    4    4    0    0 -0.20273256484E+02  0.18563028599E+02  0.37022175520E+02  0.46111088032E+02  0.00000000000E+00 0.  1.
         11    1    4    4    0    0  0.26526904195E+02 -0.28251049503E+02 -0.24090818725E+02  0.45630757073E+02  0.00000000000E+00 0. -1.
</event>
<event>
 8    1  0.8619230E-006  0.1435271E+03  0.7561462E-02  0.1208660E+00
          1   -1    0    0  501    0  0.00000000000E+00  0.00000000000E+00  0.43322828022E+03  0.43322828022E+03  0.00000000000E+00 0. -1.
         -1   -1    0    0    0  501 -0.00000000000E+00 -0.00000000000E+00 -0.69767270418E+02  0.69767270418E+02  0.00000000000E+00 0.  1.
         23    2    1    2    0    0  0.10835478838E+03  0.76296651082E+02  0.15563904534E+03  0.23965036418E+03  0.12508735143E+03 0.  0.
         23    2    1    2    0    0 -0.10835478838E+03 -0.76296651082E+02  0.20782196447E+03  0.26334518646E+03  0.92729602537E+02 0.  0.
          5    1    3    3  502    0  0.61156100165E+02  0.67472631254E+01 -0.11763367094E+01  0.61680226289E+02  0.41800000000E+01 0.  1.
         -5    1    3    3    0  502  0.47198688212E+02  0.69549387957E+02  0.15681538205E+03  0.17797013789E+03  0.41800000000E+01 0.  1.
        -11    1    4    4    0    0 -0.54934376296E+02 -0.95852086082E+01  0.15033867977E+03  0.16034768647E+03  0.00000000000E+00 0. -1.
         11    1    4    4    0    0 -0.53420412081E+02 -0.66711442474E+02  0.57483284700E+02  0.10299749999E+03  0.00000000000E+00 0.  1.
</event>
<event>
 8    1  0.8619230E-006  0.1046296E+03  0.7561462E-02  0.1270851E+00
         -1   -1    0    0    0  501 -0.00000000000E+00  0.00000000000E+00  0.30003374110E+02  0.30003374110E+02  0.00000000000E+00 0.  1.
          1   -1    0    0  501    0  0.00000000000E+00 -0.00000000000E+00 -0.46210743224E+03  0.46210743224E+03  0.00000000000E+00 0. -1.
         23    2    1    2    0    0  0.38644696072E+02  0.79239055238E+01 -0.18946730311E+03  0.23043817355E+03  0.12509073535E+03 0.  0.
         23    2    1    2    0    0 -0.38644696072E+02 -0.79239055238E+01 -0.24263675503E+03  0.26167263280E+03  0.89687072943E+02 0.  0.
          5    1    3    3  502    0 -0.44951217731E+02  0.68871859476E+01 -0.85786107536E+02  0.97184226869E+02  0.41800000000E+01 0. -1.
         -5    1    3    3    0  502  0.83595913803E+02  0.10367195763E+01 -0.10368119557E+03  0.13325394668E+03  0.41800000000E+01 0. -1.
        -11    1    4    4    0    0  0.19315089336E+02  0.60948896565E+01 -0.12197904953E+02  0.23643376266E+02  0.00000000000E+00 0.  1.
         11    1    4    4    0    0 -0.57959785409E+02 -0.14018795180E+02 -0.23043885007E+03  0.23802925653E+03  0.00000000000E+00 0. -1.
</event>
<event>
 8    1  0.8619230E-006  0.9088094E+02  0.7561462E-02  0.1300732E+00
         -1   -1    0    0    0  501 -0.00000000000E+00  0.00000000000E+00  0.40950988393E+02  0.40950988393E+02  0.00000000000E+00 0.  1.
          1   -1    0    0  501    0  0.00000000000E+00 -0.00000000000E+00 -0.31550779204E+03  0.31550779204E+03  0.00000000000E+00 0. -1.
         23    2    1    2    0    0  0.83883554481E+01 -0.74958562663E+01 -0.10218776146E+03  0.16191480570E+03  0.12509002096E+03 0.  0.
         23    2    1    2    0    0 -0.83883554481E+01  0.74958562663E+01 -0.17236904219E+03  0.19454397474E+03  0.89497033651E+02 0.  0.
          5    1    3    3  502    0 -0.56590231354E+01 -0.48355261236E+02 -0.10759477991E+03  0.11817091392E+03  0.41800000000E+01 0. -1.
         -5    1    3    3    0  502  0.14047378584E+02  0.40859404970E+02  0.54070184529E+01  0.43743891781E+02  0.41800000000E+01 0. -1.
        -11    1    4    4    0    0  0.14238245166E+02  0.44163617327E+02 -0.10151837193E+03  0.11162048450E+03  0.00000000000E+00 0. -1.
         11    1    4    4    0    0 -0.22626600614E+02 -0.36667761061E+02 -0.70850670260E+02  0.82923490236E+02  0.00000000000E+00 0.  1.
</event>
<event>
 8    1  0.8619230E-006  0.1010412E+03  0.7561462E-02  0.1278122E+00
          2   -1    0    0  501    0  0.00000000000E+00  0.00000000000E+00  0.10260413052E+03  0.10260413052E+03  0.00000000000E+00 0.  1.
         -2   -1    0    0    0  501 -0.00000000000E+00 -0.00000000000E+00 -0.11818614009E+03  0.11818614009E+03  0.00000000000E+00 0. -1.
         23    2    1    2    0    0 -0.28096797031E+02 -0.45309583443E+01  0.97019146259E+00  0.12829777448E+03  0.12509763419E+03 0.  0.
         23    2    1    2    0    0  0.28096797031E+02  0.45309583443E+01 -0.16552201035E+02  0.92492496125E+02  0.86434523735E+02 0.  0.
          5    1    3    3  502    0  0.38648164968E+02  0.23780264915E+02 -0.23999156379E+02  0.51503529605E+02  0.41800000000E+01 0.  1.
         -5    1    3    3    0  502 -0.66744962000E+02 -0.28311223259E+02  0.24969347842E+02  0.76794244878E+02  0.41800000000E+01 0.  1.
        -11    1    4    4    0    0 -0.18208593096E+02  0.26885687933E+02 -0.24214023487E+02  0.40505703445E+02  0.00000000000E+00 0. -1.
         11    1    4    4    0    0  0.46305390128E+02 -0.22354729588E+02  0.76618224517E+01  0.51986792680E+02  0.00000000000E+00 0.  1.
</event>
<event>
 8    1  0.8619230E-006  0.8691808E+02  0.7561462E-02  0.1310491E+00
         -2   -1    0    0    0  501 -0.00000000000E+00  0.00000000000E+00  0.15297801180E+03  0.15297801180E+03  0.00000000000E+00 0. -1.
          2   -1    0    0  501    0  0.00000000000E+00 -0.00000000000E+00 -0.85693646358E+02  0.85693646358E+02  0.00000000000E+00 0.  1.
         23    2    1    2    0    0  0.31362726866E+02  0.15528980807E+01  0.52410563774E+02  0.13921264703E+03  0.12508901538E+03 0.  0.
         23    2    1    2    0    0 -0.31362726866E+02 -0.15528980807E+01  0.14873801673E+02  0.99459011134E+02  0.93192450288E+02 0.  0.
          5    1    3    3  502    0  0.22119836633E+02  0.42567267737E+02 -0.22544925482E+02  0.53169592064E+02  0.41800000000E+01 0. -1.
         -5    1    3    3    0  502  0.92428902336E+01 -0.41014369656E+02  0.74955489255E+02  0.86043054965E+02  0.41800000000E+01 0. -1.
        -11    1    4    4    0    0  0.20057563786E+02  0.19402539799E+02  0.30929344828E+02  0.41657997877E+02  0.00000000000E+00 0. -1.
         11    1    4    4    0    0 -0.51420290653E+02 -0.20955437880E+02 -0.16055543155E+02  0.57801013257E+02  0.00000000000E+00 0.  1.
</event>
<event>
 8    1  0.8619230E-006  0.1220239E+03  0.7561462E-02  0.1239795E+00
          1   -1    0    0  501    0  0.00000000000E+00  0.00000000000E+00  0.33251844816E+03  0.33251844816E+03  0.00000000000E+00 0. -1.
         -1   -1    0    0    0  501 -0.00000000000E+00 -0.00000000000E+00 -0.65130598506E+02  0.65130598506E+02  0.00000000000E+00 0.  1.
         23    2    1    2    0    0 -0.77274988436E+02 -0.62009555023E+02  0.15687429128E+03  0.22377386956E+03  0.12509433513E+03 0.  0.
         23    2    1    2    0    0  0.77274988436E+02  0.62009555023E+02  0.11051355838E+03  0.17387517711E+03  0.90568879185E+02 0.  0.
          5    1    3    3  502    0 -0.66543212094E+02 -0.80412509093E+02  0.16917158364E+03  0.19882320742E+03  0.41800000000E+01 0. -1.
         -5    1    3    3    0  502 -0.10731776342E+02  0.18402954070E+02 -0.12297292366E+02  0.24950662145E+02  0.41800000000E+01 0. -1.
        -11    1    4    4    0    0 -0.75149626230E+01  0.23651108848E+02  0.66400770886E+02  0.70886613596E+02  0.00000000000E+00 0. -1.
         11    1    4    4    0    0  0.84789951059E+02  0.38358446175E+02  0.44112787490E+02  0.10298856351E+03  0.00000000000E+00 0.  1.
</event>
<event>
 7    1  0.8619230E-006  0.2417033E+03  0.7561462E-02  0.1118663E+00
          1   -1    0    0  501    0  0.00000000000E+00  0.00000000000E+00  0.29721932138E+03  0.29721932138E+03  0.00000000000E+00 0. -1.
         -1   -1    0    0    0  501 -0.00000000000E+00 -0.00000000000E+00 -0.29184404912E+03  0.29184404912E+03  0.00000000000E+00 0.  1.
         23    2    1    2    0    0 -0.17040198378E+03  0.10662481144E+03 -0.11656774381E+03  0.26389689709E+03  0.12509135424E+03 0.  0.
          5    1    3    3  502    0 -0.80198341441E+02  0.11513276147E+03 -0.98313714485E+02  0.17137790286E+03  0.41800000000E+01 0.  1.
         -5    1    3    3    0  502 -0.90203642341E+02 -0.85079500378E+01 -0.18254029326E+02  0.92518994223E+02  0.41800000000E+01 0.  1.
        -11    1    1    2    0    0  0.19663350878E+03 -0.73138490253E+02  0.15299245372E+02  0.21035218668E+03  0.00000000000E+00 0.  1.
         11    1    1    2    0    0 -0.26231525001E+02 -0.33486321183E+02  0.10664377069E+03  0.11481428673E+03  0.00000000000E+00 0. -1.
</event>
<event>
 8    1  0.8619230E-006  0.1444287E+03  0.7561462E-02  0.1207491E+00
         -1   -1    0    0    0  501 -0.00000000000E+00  0.00000000000E+00  0.20729865614E+02  0.20729865614E+02  0.00000000000E+00 0.  1.
          1   -1    0    0  501    0  0.00000000000E+00 -0.00000000000E+00 -0.10497887982E+04  0.10497887982E+04  0.00000000000E+00 0. -1.
         23    2    1    2    0    0 -0.96359573205E+02 -0.24084903208E+02 -0.52121032209E+03  0.54513615191E+03  0.12509186367E+03 0.  0.
         23    2    1    2    0    0  0.96359573205E+02  0.24084903208E+02 -0.50784861050E+03  0.52538251191E+03  0.90836791674E+02 0.  0.
          5    1    3    3  502    0 -0.12849233606E+02  0.46561220635E+02 -0.12468899971E+03  0.13378291789E+03  0.41800000000E+01 0. -1.
         -5    1    3    3    0  502 -0.83510339599E+02 -0.70646123844E+02 -0.39652132239E+03  0.41135323402E+03  0.41800000000E+01 0. -1.
        -11    1    4    4    0    0  0.81110206768E+02  0.53925321164E+02 -0.42489511400E+03  0.43591589075E+03  0.00000000000E+00 0. -1.
         11    1    4    4    0    0  0.15249366437E+02 -0.29840417956E+02 -0.82953496503E+02  0.89466621165E+02  0.00000000000E+00 0.  1.
</event>
<event>
 8    1  0.8619230E-006  0.1041024E+03  0.7561462E-02  0.1271898E+00
          1   -1    0    0  501    0  0.00000000000E+00  0.00000000000E+00  0.27767597654E+03  0.27767597654E+03  0.00000000000E+00 0. -1.
         -1   -1    0    0    0  501 -0.00000000000E+00 -0.00000000000E+00 -0.61982970025E+02  0.61982970025E+02  0.00000000000E+00 0.  1.
         23    2    1    2    0    0  0.22658029818E+02  0.63221596911E+02  0.83648429544E+02  0.16478930676E+03  0.12509236278E+03 0.  0.
         23    2    1    2    0    0 -0.22658029818E+02 -0.63221596911E+02  0.13204457697E+03  0.17486963980E+03  0.92915359261E+02 0.  0.
          5    1    3    3  502    0  0.46919048112E+02  0.90545637110E+02  0.75924915498E+02  0.12720839072E+03  0.41800000000E+01 0.  1.
         -5    1    3    3    0  502 -0.24261018295E+02 -0.27324040199E+02  0.77235140466E+01  0.37580916044E+02  0.41800000000E+01 0.  1.
        -11    1    4    4    0    0  0.70105928076E-01 -0.24217074231E+02 -0.97168851220E+01  0.26093858581E+02  0.00000000000E+00 0.  1.
         11    1    4    4    0    0 -0.22728135746E+02 -0.39004522679E+02  0.14176146209E+03  0.14877578122E+03  0.00000000000E+00 0. -1.
</event>
<event>
 8    1  0.8619230E-006  0.1552585E+03  0.7561462E-02  0.1194156E+00
          2   -1    0    0  501    0  0.00000000000E+00  0.00000000000E+00  0.14016489520E+03  0.14016489520E+03  0.00000000000E+00 0. -1.
         -2   -1    0    0    0  501 -0.00000000000E+00 -0.00000000000E+00 -0.26912588124E+03  0.26912588124E+03  0.00000000000E+00 0.  1.
         23    2    1    2    0    0  0.85894173186E+02  0.92623362165E+02 -0.16856361615E+03  0.24500214364E+03  0.12512178665E+03 0.  0.
         23    2    1    2    0    0 -0.85894173186E+02 -0.92623362165E+02  0.39602630109E+02  0.16428863280E+03  0.97290751620E+02 0.  0.
          5    1    3    3  502    0  0.21281971123E+02 -0.27915878306E+02 -0.62788821922E+02  0.72056416194E+02  0.41800000000E+01 0.  1.
         -5    1    3    3    0  502  0.64612202063E+02  0.12053924047E+03 -0.10577479423E+03  0.17294572745E+03  0.41800000000E+01 0.  1.
        -11    1    4    4    0    0 -0.16081996298E+02 -0.58427901190E+02 -0.22651989227E+02  0.64695926134E+02  0.00000000000E+00 0.  1.
         11    1    4    4    0    0 -0.69812176888E+02 -0.34195460976E+02  0.62254619336E+02  0.99592706670E+02  0.00000000000E+00 0. -1.
</event>
<event>
 8    1  0.8619230E-006  0.8365580E+02  0.7561462E-02  0.1318986E+00
          1   -1    0    0  501    0  0.00000000000E+00  0.00000000000E+00  0.13417264206E+03  0.13417264206E+03  0.00000000000E+00 0. -1.
         -1   -1    0    0    0  501 -0.00000000000E+00 -0.00000000000E+00 -0.13730038198E+03  0.13730038198E+03  0.00000000000E+00 0.  1.
         23    2    1    2    0    0  0.23495518801E+02  0.20993275158E+02 -0.77739558082E+02  0.15061052159E+03  0.12508930137E+03 0.  0.
         23    2    1    2    0    0 -0.23495518801E+02 -0.20993275158E+02  0.74611818163E+02  0.12086250245E+03  0.89711003129E+02 0.  0.
          5    1    3    3  502    0  0.33747416728E+02 -0.44127952197E+02 -0.11149399807E+02  0.56815014010E+02  0.41800000000E+01 0.  1.
         -5    1    3    3    0  502 -0.10251897927E+02  0.65121227355E+02 -0.66590158274E+02  0.93795507580E+02  0.41800000000E+01 0.  1.
        -11    1    4    4    0    0  0.84325938430E+01 -0.53978717522E+01 -0.18591129889E+02  0.21115770621E+02  0.00000000000E+00 0.  1.
         11    1    4    4    0    0 -0.31928112644E+02 -0.15595403406E+02  0.93202948052E+02  0.99746731826E+02  0.00000000000E+00 0. -1.
</event>
<event>
 6    1  0.8619230E-006  0.1882007E+03  0.7561462E-02  0.1160094E+00
          4   -1    0    0  501    0  0.00000000000E+00  0.00000000000E+00  0.28852663173E+03  0.28852663173E+03  0.00000000000E+00 0. -1.
         -4   -1    0    0    0  501 -0.00000000000E+00 -0.00000000000E+00 -0.24228486660E+03  0.24228486660E+03  0.00000000000E+00 0.  1.
          5    1    1    2  502    0  0.69083111171E+02 -0.59516665878E+02 -0.96919900164E+02  0.13313770771E+03  0.41800000000E+01 0. -1.
         -5    1    1    2    0  502 -0.10859169900E+03  0.14574528224E+03  0.42755926868E+02  0.18676023686E+03  0.41800000000E+01 0.  1.
        -11    1    1    2    0    0 -0.71600285691E+01 -0.26898720032E+02 -0.41622278448E+02  0.50072160046E+02  0.00000000000E+00 0.  1.
         11    1    1    2    0    0  0.46668616400E+02 -0.59329896333E+02  0.14202801688E+03  0.16084139372E+03  0.00000000000E+00 0. -1.
</event>
<event>
 8    1  0.8619230E-006  0.1368390E+03  0.7561462E-02  0.1217647E+00
         -2   -1    0    0    0  501 -0.00000000000E+00  0.00000000000E+00  0.10592552299E+03  0.10592552299E+03  0.00000000000E+00 0.  1.
          2   -1    0    0  501    0  0.00000000000E+00 -0.00000000000E+00 -0.22691009036E+03  0.22691009036E+03  0.00000000000E+00 0. -1.
         23    2    1    2    0    0 -0.62322831072E+02 -0.88117859873E+02 -0.39985968679E+02  0.16998639139E+03  0.12509037959E+03 0.  0.
         23    2    1    2    0    0  0.62322831072E+02  0.88117859873E+02 -0.80998598699E+02  0.16284922196E+03  0.91160318116E+02 0.  0.
          5    1    3    3  502    0 -0.25676429502E+01  0.26531503956E+02 -0.29847446782E+02  0.40235009281E+02  0.41800000000E+01 0. -1.
         -5    1    3    3    0  502 -0.59755188122E+02 -0.11464936383E+03 -0.10138521897E+02  0.12975138211E+03  0.41800000000E+01 0. -1.
        -11    1    4    4    0    0  0.54851082836E+02  0.38138020738E+02 -0.89416698625E+02  0.11161763260E+03  0.00000000000E+00 0.  1.
         11    1    4    4    0    0  0.74717482363E+01  0.49979839134E+02  0.84180999260E+01  0.51231589356E+02  0.00000000000E+00 0. -1.
</event>
<event>
 8    1  0.8619230E-006  0.1140113E+03  0.7561462E-02  0.1253317E+00
          2   -1    0    0  501    0  0.00000000000E+00  0.00000000000E+00  0.26477000226E+03  0.26477000226E+03  0.00000000000E+00 0. -1.
         -2   -1    0    0    0  501 -0.00000000000E+00 -0.00000000000E+00 -0.61533359631E+02  0.61533359631E+02  0.00000000000E+00 0.  1.
         23    2    1    2    0    0  0.13186545751E+02 -0.28620695047E+01  0.47459577471E+02  0.13480786592E+03  0.12545386717E+03 0.  0.
         23    2    1    2    0    0 -0.13186545751E+02  0.28620695047E+01  0.15577706516E+03  0.19149549598E+03  0.11055294894E+03 0.  0.
          5    1    3    3  502    0  0.50979442780E+02 -0.44941226104E+02  0.35729186088E+02  0.76893852345E+02  0.41800000000E+01 0.  1.
         -5    1    3    3    0  502 -0.37792897029E+02  0.42079156600E+02  0.11730391383E+02  0.57914013572E+02  0.41800000000E+01 0.  1.
        -11    1    4    4    0    0 -0.57180390188E+02 -0.84345419487E+01  0.12164860981E+03  0.13468156069E+03  0.00000000000E+00 0.  1.
         11    1    4    4    0    0  0.43993844437E+02  0.11296611453E+02  0.34128455351E+02  0.56813935292E+02  0.00000000000E+00 0. -1.
</event>
<event>
 8    1  0.8619230E-006  0.2952620E+03  0.7561462E-02  0.1087633E+00
          1   -1    0    0  501    0  0.00000000000E+00  0.00000000000E+00  0.86898799066E+03  0.86898799066E+03  0.00000000000E+00 0. -1.
         -1   -1    0    0    0  501 -0.00000000000E+00 -0.00000000000E+00 -0.11058123014E+03  0.11058123014E+03  0.00000000000E+00 0.  1.
         23    2    1    2    0    0 -0.14656730556E+03 -0.24471979659E+03  0.30302004387E+03  0.43455477455E+03  0.12508777395E+03 0.  0.
         23    2    1    2    0    0  0.14656730556E+03  0.24471979659E+03  0.45538671664E+03  0.54501444624E+03  0.91071021846E+02 0.  0.
          5    1    3    3  502    0 -0.40976669688E+02 -0.48687841040E+01  0.81242088867E+02  0.91217004560E+02  0.41800000000E+01 0.  1.
         -5    1    3    3    0  502 -0.10559063588E+03 -0.23985101249E+03  0.22177795501E+03  0.34333776999E+03  0.41800000000E+01 0.  1.
        -11    1    4    4    0    0  0.71815669741E+01  0.30802293629E+02  0.11646451997E+03  0.12068280991E+03  0.00000000000E+00 0. -1.
         11    1    4    4    0    0  0.13938573859E+03  0.21391750297E+03  0.33892219667E+03  0.42433163633E+03  0.00000000000E+00 0.  1.
</event>
<event>
 8    1  0.8619230E-006  0.1322678E+03  0.7561462E-02  0.1224129E+00
         -1   -1    0    0    0  501 -0.00000000000E+00  0.00000000000E+00  0.28736458151E+03  0.28736458151E+03  0.00000000000E+00 0.  1.
          1   -1    0    0  501    0  0.00000000000E+00 -0.00000000000E+00 -0.67882341109E+02  0.67882341109E+02  0.00000000000E+00 0. -1.
         23    2    1    2    0    0  0.75301935652E+02  0.46458969917E+02  0.11862773888E+03  0.19377514265E+03  0.12508976008E+03 0.  0.
         23    2    1    2    0    0 -0.75301935652E+02 -0.46458969917E+02  0.10085450152E+03  0.16147177997E+03  0.89848137719E+02 0.  0.
          5    1    3    3  502    0 -0.18578405003E+02 -0.16821846040E+02 -0.52045205298E+01  0.25936288682E+02  0.41800000000E+01 0.  1.
         -5    1    3    3    0  502  0.93880340655E+02  0.63280815957E+02  0.12383225941E+03  0.16783885396E+03  0.41800000000E+01 0.  1.
        -11    1    4    4    0    0  0.13637431308E+02 -0.33224694054E+02  0.33630683856E+02  0.49202466648E+02  0.00000000000E+00 0.  1.
         11    1    4    4    0    0 -0.88939366959E+02 -0.13234275863E+02  0.67223817664E+02  0.11226931332E+03  0.00000000000E+00 0. -1.
</event>
<event>
 8    1  0.8619230E-006  0.1308582E+03  0.7561462E-02  0.1226188E+00
         -1   -1    0    0    0  501 -0.00000000000E+00  0.00000000000E+00  0.29472154540E+02  0.29472154540E+02  0.00000000000E+00 0.  1.
          1   -1    0    0  501    0  0.00000000000E+00 -0.00000000000E+00 -0.59291752937E+03  0.59291752937E+03  0.00000000000E+00 0. -1.
         23    2    1    2    0    0  0.23044662550E+02  0.70039782921E+02 -0.29661357717E+03  0.32822475401E+03  0.11964634268E+03 0.  0.
         23    2    1    2    0    0 -0.23044662550E+02 -0.70039782921E+02 -0.26683179766E+03  0.29416492990E+03  0.99484521809E+02 0.  0.
          5    1    3    3  502    0 -0.19558795216E+02 -0.25965512374E+02 -0.46217161597E+02  0.56659092203E+02  0.41800000000E+01 0. -1.
         -5    1    3    3    0  502  0.42603457766E+02  0.96005295295E+02 -0.25039641557E+03  0.27156566180E+03  0.41800000000E+01 0.  1.
        -11    1    4    4    0    0 -0.58575830726E+02 -0.18893637581E+02 -0.13125004216E+03  0.14496437857E+03  0.00000000000E+00 0. -1.
         11    1    4    4    0    0  0.35531168176E+02 -0.51146145340E+02 -0.13558175550E+03  0.14920055133E+03  0.00000000000E+00 0.  1.
</event>
<event>
 8    1  0.8619230E-006  0.1188864E+03  0.7561462E-02  0.1244946E+00
          1   -1    0    0  501    0  0.00000000000E+00  0.00000000000E+00  0.26335892270E+02  0.26335892270E+02  0.00000000000E+00 0. -1.
         -1   -1    0    0    0  501 -0.00000000000E+00 -0.00000000000E+00 -0.77543686945E+03  0.77543686945E+03  0.00000000000E+00 0.  1.
         23    2    1    2    0    0 -0.51461014256E+02 -0.33766267204E+02 -0.60258616926E+03  0.61850281025E+03  0.12508892085E+03 0.  0.
         23    2    1    2    0    0  0.51461014256E+02  0.33766267204E+02 -0.14651480792E+03  0.18326995147E+03  0.91284661262E+02 0.  0.
          5    1    3    3  502    0  0.41296054326E+02 -0.12045462681E+02 -0.15795762369E+03  0.16376367289E+03  0.41800000000E+01 0. -1.
         -5    1    3    3    0  502 -0.92757068583E+02 -0.21720804524E+02 -0.44462854556E+03  0.45473913736E+03  0.41800000000E+01 0. -1.
        -11    1    4    4    0    0  0.55765006393E+02 -0.87624807579E+01 -0.12091975835E+03  0.13344701183E+03  0.00000000000E+00 0. -1.
         11    1    4    4    0    0 -0.43039921369E+01  0.42528747962E+02 -0.25595049571E+02  0.49822939637E+02  0.00000000000E+00 0.  1.
</event>
<event>
 8    1  0.8619230E-006  0.1401909E+03  0.7561462E-02  0.1213072E+00
          2   -1    0    0  501    0  0.00000000000E+00  0.00000000000E+00  0.30113070584E+03  0.30113070584E+03  0.00000000000E+00 0.  1.
         -2   -1    0    0    0  501 -0.00000000000E+00 -0.00000000000E+00 -0.94843627426E+02  0.94843627426E+02  0.00000000000E+00 0. -1.
         23    2    1    2    0    0  0.40421564325E+02  0.80032326756E+02  0.49107421959E+00  0.15390366975E+03  0.12508805787E+03 0.  0.
         23    2    1    2    0    0 -0.40421564325E+02 -0.80032326756E+02  0.20579600419E+03  0.24207066351E+03  0.90593237075E+02 0.  0.
          5    1    3    3  502    0  0.78083612403E+02  0.84182359988E+02 -0.67809126784E+01  0.11509636587E+03  0.41800000000E+01 0.  1.
         -5    1    3    3    0  502 -0.37662048079E+02 -0.41500332318E+01  0.72719868980E+01  0.38807303884E+02  0.41800000000E+01 0.  1.
        -11    1    4    4    0    0  0.25907378021E+02 -0.35850309387E+01  0.46128941931E+02  0.53027577415E+02  0.00000000000E+00 0.  1.
         11    1    4    4    0    0 -0.66328942346E+02 -0.76447295818E+02  0.15966706226E+03  0.18904308610E+03  0.00000000000E+00 0. -1.
</event>
<event>
 8    1  0.8619230E-006  0.1384389E+03  0.7561462E-02  0.1215445E+00
          1   -1    0    0  501    0  0.00000000000E+00  0.00000000000E+00  0.25895182734E+03  0.25895182734E+03  0.00000000000E+00 0. -1.
         -1   -1    0    0    0  501 -0.00000000000E+00 -0.00000000000E+00 -0.85495004048E+02  0.85495004048E+02  0.00000000000E+00 0.  1.
         23    2    1    2    0    0  0.70885443190E+02  0.56999994294E+02  0.38011570618E+02  0.15926804095E+03  0.12509070294E+03 0.  0.
         23    2    1    2    0    0 -0.70885443190E+02 -0.56999994294E+02  0.13544525267E+03  0.18517879043E+03  0.87590082477E+02 0.  0.
          5    1    3    3  502    0  0.49292847795E+02  0.96788674454E+02  0.20884943595E+02  0.11068642923E+03  0.41800000000E+01 0. -1.
         -5    1    3    3    0  502  0.21592595396E+02 -0.39788680160E+02  0.17126627023E+02  0.48581611727E+02  0.41800000000E+01 0. -1.
        -11    1    4    4    0    0 -0.69500812174E+02 -0.39118804242E+01  0.97966241442E+02  0.12017924182E+03  0.00000000000E+00 0. -1.
         11    1    4    4    0    0 -0.13846310166E+01 -0.53088113870E+02  0.37479011227E+02  0.64999548613E+02  0.00000000000E+00 0.  1.
</event>
<event>
 8    1  0.8619230E-006  0.1384614E+03  0.7561462E-02  0.1215414E+00
          2   -1    0    0  501    0  0.00000000000E+00  0.00000000000E+00  0.82092756461E+02  0.82092756461E+02  0.00000000000E+00 0. -1.
         -2   -1    0    0    0  501 -0.00000000000E+00 -0.00000000000E+00 -0.27061910326E+03  0.27061910326E+03  0.00000000000E+00 0.  1.
         23    2    1    2    0    0 -0.41780879321E+02  0.93693235268E+02 -0.10632777954E+03  0.19358860670E+03  0.12508752028E+03 0.  0.
         23    2    1    2    0    0  0.41780879321E+02 -0.93693235268E+02 -0.82198567257E+02  0.15912325302E+03  0.89663487441E+02 0.  0.
          5    1    3    3  502    0  0.34910685937E+02  0.30677198776E+02  0.18684535764E+01  0.46699143847E+02  0.41800000000E+01 0.  1.
         -5    1    3    3    0  502 -0.76691565258E+02  0.63016036492E+02 -0.10819623312E+03  0.14688946286E+03  0.41800000000E+01 0.  1.
        -11    1    4    4    0    0 -0.17548677104E+02  0.26690544204E+01 -0.29184199772E+02  0.34158416766E+02  0.00000000000E+00 0.  1.
         11    1    4    4    0    0  0.59329556426E+02 -0.96362289688E+02 -0.53014367485E+02  0.12496483625E+03  0.00000000000E+00 0. -1.
</event>
<event>
 8    1  0.8619230E-006  0.1040770E+03  0.7561462E-02  0.1271949E+00
          1   -1    0    0  501    0  0.00000000000E+00  0.00000000000E+00  0.55786322954E+03  0.55786322954E+03  0.00000000000E+00 0. -1.
         -1   -1    0    0    0  501 -0.00000000000E+00 -0.00000000000E+00 -0.31643556018E+02  0.31643556018E+02  0.00000000000E+00 0.  1.
         23    2    1    2    0    0 -0.13036397660E+02  0.21096294007E+02  0.11340028292E+03  0.16570270095E+03  0.11824871944E+03 0.  0.
         23    2    1    2    0    0  0.13036397660E+02 -0.21096294007E+02  0.41281939060E+03  0.42380408461E+03  0.92601574443E+02 0.  0.
          5    1    3    3  502    0  0.27590576961E+02  0.56456208220E+02  0.81389757330E+02  0.10290922399E+03  0.41800000000E+01 0. -1.
         -5    1    3    3    0  502 -0.40626974621E+02 -0.35359914213E+02  0.32010525587E+02  0.62793476957E+02  0.41800000000E+01 0.  1.
        -11    1    4    4    0    0 -0.30167861871E+02 -0.34586415763E+02  0.27330021575E+03  0.27712691673E+03  0.00000000000E+00 0.  1.
         11    1    4    4    0    0  0.43204259531E+02  0.13490121756E+02  0.13951917485E+03  0.14667716788E+03  0.00000000000E+00 0. -1.
</event>
<event>
 8    1  0.8619230E-006  0.9551761E+02  0.7561462E-02  0.1290015E+00
         -3   -1    0    0    0  501 -0.00000000000E+00  0.00000000000E+00  0.75174702078E+02  0.75174702078E+02  0.00000000000E+00 0.  1.
          3   -1    0    0  501    0  0.00000000000E+00 -0.00000000000E+00 -0.17368579883E+03  0.17368579883E+03  0.00000000000E+00 0. -1.
         23    2    1    2    0    0 -0.18320544901E+02 -0.26895582792E+02 -0.41131845392E+01  0.11671648886E+03  0.11201252495E+03 0.  0.
         23    2    1    2    0    0  0.18320544901E+02  0.26895582792E+02 -0.94397912214E+02  0.13214401205E+03  0.86556682875E+02 0.  0.
          5    1    3    3  502    0 -0.51820991791E+02  0.68363326302E+01 -0.32011875780E+02  0.61436009189E+02  0.41800000000E+01 0. -1.
         -5    1    3    3    0  502  0.33500446890E+02 -0.33731915423E+02  0.27898691241E+02  0.55280479673E+02  0.41800000000E+01 0.  1.
        -11    1    4    4    0    0  0.29677914016E+02  0.53926866713E+02 -0.74829474268E+02  0.96893424715E+02  0.00000000000E+00 0. -1.
         11    1    4    4    0    0 -0.11357369115E+02 -0.27031283921E+02 -0.19568437946E+02  0.35250587332E+02  0.00000000000E+00 0.  1.
</event>
<event>
 7    1  0.8619230E-006  0.1917958E+03  0.7561462E-02  0.1156852E+00
          1   -1    0    0  501    0  0.00000000000E+00  0.00000000000E+00  0.90039263212E+03  0.90039263212E+03  0.00000000000E+00 0. -1.
         -1   -1    0    0    0  501 -0.00000000000E+00 -0.00000000000E+00 -0.87057051097E+02  0.87057051097E+02  0.00000000000E+00 0.  1.
         23    2    1    2    0    0 -0.14972592922E+03  0.92896518375E+02  0.70919640960E+03  0.73662744881E+03  0.92805355214E+02 0.  0.
          5    1    1    2  502    0 -0.38070525494E+01 -0.51527479648E+00  0.67682244471E+02  0.67919936498E+02  0.41800000000E+01 0. -1.
         -5    1    1    2    0  502  0.15353298177E+03 -0.92381243579E+02  0.36456926961E+02  0.18290229791E+03  0.41800000000E+01 0.  1.
        -11    1    3    3    0    0 -0.11450536396E+03  0.17991722225E+02  0.43832193049E+03  0.45338868005E+03  0.00000000000E+00 0. -1.
         11    1    3    3    0    0 -0.35220565263E+02  0.74904796150E+02  0.27087447910E+03  0.28323876877E+03  0.00000000000E+00 0.  1.
</event>
<event>
 8    1  0.8619230E-006  0.1089787E+03  0.7561462E-02  0.1262473E+00
         -3   -1    0    0    0  501 -0.00000000000E+00  0.00000000000E+00  0.28031267821E+03  0.28031267821E+03  0.00000000000E+00 0.  1.
          3   -1    0    0  501    0  0.00000000000E+00 -0.00000000000E+00 -0.50892869201E+02  0.50892869201E+02  0.00000000000E+00 0. -1.
         23    2    1    2    0    0 -0.41929172451E+02 -0.70365839649E+01  0.17191238824E+03  0.21680707507E+03  0.12507545543E+03 0.  0.
         23    2    1    2    0    0  0.41929172451E+02  0.70365839649E+01  0.57507420771E+02  0.11439847235E+03  0.89287950003E+02 0.  0.
          5    1    3    3  502    0  0.44692808122E+02 -0.40628279715E+01  0.65310217485E+02  0.79352697351E+02  0.41800000000E+01 0. -1.
         -5    1    3    3    0  502 -0.86621980573E+02 -0.29737559935E+01  0.10660217076E+03  0.13745437771E+03  0.41800000000E+01 0. -1.
        -11    1    4    4    0    0  0.38332680451E+02  0.38567518828E+02  0.61864446807E+02  0.82365391263E+02  0.00000000000E+00 0.  1.
         11    1    4    4    0    0  0.35964919994E+01 -0.31530934863E+02 -0.43570260352E+01  0.32033081087E+02  0.00000000000E+00 0. -1.
</event>
<event>
 8    1  0.8619230E-006  0.1024182E+03  0.7561462E-02  0.1275292E+00
         -2   -1    0    0    0  501 -0.00000000000E+00  0.00000000000E+00  0.24190849643E+03  0.24190849643E+03  0.00000000000E+00 0.  1.
          2   -1    0    0  501    0  0.00000000000E+00 -0.00000000000E+00 -0.50023752329E+02  0.50023752329E+02  0.00000000000E+00 0. -1.
         23    2    1    2    0    0 -0.91742375207E+01 -0.77329514815E+01  0.12952434644E+03  0.18046535694E+03  0.12508886266E+03 0.  0.
         23    2    1    2    0    0  0.91742375207E+01  0.77329514815E+01  0.62360397653E+02  0.11146689181E+03  0.91608316229E+02 0.  0.
          5    1    3    3  502    0 -0.62330609248E+02  0.19656485078E+02  0.62174121295E+02  0.90302691066E+02  0.41800000000E+01 0. -1.
         -5    1    3    3    0  502  0.53156371728E+02 -0.27389436559E+02  0.67350225149E+02  0.90162665876E+02  0.41800000000E+01 0. -1.
        -11    1    4    4    0    0 -0.34194524830E+02  0.10975256667E+02  0.57381370721E+02  0.67693009190E+02  0.00000000000E+00 0. -1.
         11    1    4    4    0    0  0.43368762351E+02 -0.32423051858E+01  0.49790269315E+01  0.43773882624E+02  0.00000000000E+00 0.  1.
</event>
<event>
 8    1  0.8619230E-006  0.1406943E+03  0.7561462E-02  0.1212398E+00
          2   -1    0    0  501    0  0.00000000000E+00  0.00000000000E+00  0.32331799493E+03  0.32331799493E+03  0.00000000000E+00 0. -1.
         -2   -1    0    0    0  501 -0.00000000000E+00 -0.00000000000E+00 -0.76987456648E+02  0.76987456648E+02  0.00000000000E+00 0.  1.
         23    2    1    2    0    0 -0.75764474397E+02  0.80428888792E+02  0.83072377078E+02  0.18643454380E+03  0.12509099711E+03 0.  0.
         23    2    1    2    0    0  0.75764474397E+02 -0.80428888792E+02  0.16325816121E+03  0.21387090778E+03  0.82936579745E+02 0.  0.
          5    1    3    3  502    0  0.30432202949E+02  0.32560644702E+02  0.26909889605E+01  0.44844491092E+02  0.41800000000E+01 0.  1.
         -5    1    3    3    0  502 -0.10619667735E+03  0.47868244090E+02  0.80381388118E+02  0.14159005271E+03  0.41800000000E+01 0.  1.
        -11    1    4    4    0    0  0.44781007724E+02 -0.14254879483E+02  0.12019786540E+03  0.12905838635E+03  0.00000000000E+00 0. -1.
         11    1    4    4    0    0  0.30983466673E+02 -0.66174009309E+02  0.43060295808E+02  0.84812521423E+02  0.00000000000E+00 0.  1.
</event>
<event>
 8    1  0.8619230E-006  0.7238861E+02  0.7561462E-02  0.1352154E+00
         -1   -1    0    0    0  501 -0.00000000000E+00  0.00000000000E+00  0.44234662114E+03  0.44234662114E+03  0.00000000000E+00 0.  1.
          1   -1    0    0  501    0  0.00000000000E+00 -0.00000000000E+00 -0.33806545901E+02  0.33806545901E+02  0.00000000000E+00 0. -1.
         23    2    1    2    0    0 -0.35086494140E+02  0.20927682581E+02  0.30479472054E+03  0.33198458907E+03  0.12507963761E+03 0.  0.
         23    2    1    2    0    0  0.35086494140E+02 -0.20927682581E+02  0.10374535470E+03  0.14416857797E+03  0.91391740777E+02 0.  0.
          5    1    3    3  502    0 -0.47016991784E+02 -0.26522464230E+02  0.54150378569E+02  0.76575286643E+02  0.41800000000E+01 0. -1.
         -5    1    3    3    0  502  0.11930497645E+02  0.47450146812E+02  0.25064434197E+03  0.25540930243E+03  0.41800000000E+01 0. -1.
        -11    1    4    4    0    0  0.17564637319E+02 -0.61600122330E+01 -0.14580480908E+02  0.23644294414E+02  0.00000000000E+00 0. -1.
         11    1    4    4    0    0  0.17521856821E+02 -0.14767670348E+02  0.11832583561E+03  0.12052428355E+03  0.00000000000E+00 0.  1.
</event>
<event>
 8    1  0.8619230E-006  0.1033532E+03  0.7561462E-02  0.1273399E+00
         -1   -1    0    0    0  501 -0.00000000000E+00  0.00000000000E+00  0.85976266191E+02  0.85976266191E+02  0.00000000000E+00 0.  1.
          1   -1    0    0  501    0  0.00000000000E+00 -0.00000000000E+00 -0.15665077313E+03  0.15665077313E+03  0.00000000000E+00 0. -1.
         23    2    1    2    0    0  0.18676392105E+01  0.21673300609E+01 -0.59644195891E+02  0.13860700356E+03  0.12508511477E+03 0.  0.
         23    2    1    2    0    0 -0.18676392105E+01 -0.21673300609E+01 -0.11030311049E+02  0.10402003576E+03  0.10339397798E+03 0.  0.
          5    1    3    3  502    0 -0.48715254757E+02 -0.34528722473E+02 -0.43304024596E+02  0.73879088164E+02  0.41800000000E+01 0.  1.
         -5    1    3    3    0  502  0.50582893968E+02  0.36696052534E+02 -0.16340171294E+02  0.64727915397E+02  0.41800000000E+01 0.  1.
        -11    1    4    4    0    0 -0.39551086885E+02 -0.17860818303E+02 -0.35812399895E+02  0.56265667067E+02  0.00000000000E+00 0. -1.
         11    1    4    4    0    0  0.37683447674E+02  0.15693488242E+02  0.24782088846E+02  0.47754368694E+02  0.00000000000E+00 0.  1.
</event>
<event>
 8    1  0.8619230E-006  0.1139818E+03  0.7561462E-02  0.1253369E+00
          1   -1    0    0  501    0  0.00000000000E+00  0.00000000000E+00  0.68249745537E+03  0.68249745537E+03  0.00000000000E+00 0. -1.
         -1   -1    0    0    0  501 -0.00000000000E+00 -0.00000000000E+00 -0.22895062674E+02  0.22895062674E+02  0.00000000000E+00 0.  1.
         23    2    1    2    0    0  0.47943640204E+02 -0.24703290661E+02  0.27970427038E+03  0.31111233828E+03  0.12509021926E+03 0.  0.
         23    2    1    2    0    0 -0.47943640204E+02  0.24703290661E+02  0.37989812232E+03  0.39428017976E+03  0.90694165245E+02 0.  0.
          5    1    3    3  502    0  0.83012559558E+02 -0.29626208367E+02  0.12930795591E+03  0.15654653343E+03  0.41800000000E+01 0.  1.
         -5    1    3    3    0  502 -0.35068919354E+02  0.49229177056E+01  0.15039631447E+03  0.15456580485E+03  0.41800000000E+01 0.  1.
        -11    1    4    4    0    0 -0.67700154367E+02 -0.55554226328E+01  0.27748632317E+03  0.28567959880E+03  0.00000000000E+00 0. -1.
         11    1    4    4    0    0  0.19756514163E+02  0.30258713294E+02  0.10241179915E+03  0.10860058097E+03  0.00000000000E+00 0.  1.
</event>
<event>
 8    1  0.8619230E-006  0.1290414E+03  0.7561462E-02  0.1228885E+00
         -2   -1    0    0    0  501 -0.00000000000E+00  0.00000000000E+00  0.18337527448E+03  0.18337527448E+03  0.00000000000E+00 0.  1.
          2   -1    0    0  501    0  0.00000000000E+00 -0.00000000000E+00 -0.14267883837E+03  0.14267883837E+03  0.00000000000E+00 0. -1.
         23    2    1    2    0    0 -0.84562058261E+02 -0.16723420113E+02  0.10695521962E+03  0.18582110245E+03  0.12513851778E+03 0.  0.
         23    2    1    2    0    0  0.84562058261E+02  0.16723420113E+02 -0.66258783512E+02  0.14023301040E+03  0.88570064551E+02 0.  0.
          5    1    3    3  502    0 -0.88290272313E+02  0.35131310810E+02  0.90084474527E+02  0.13100406915E+03  0.41800000000E+01 0. -1.
         -5    1    3    3    0  502  0.37282140527E+01 -0.51854730923E+02  0.16870745095E+02  0.54817033294E+02  0.41800000000E+01 0. -1.
        -11    1    4    4    0    0  0.61043289369E+00  0.26307416805E+02  0.82499532198E+01  0.27577428005E+02  0.00000000000E+00 0.  1.
         11    1    4    4    0    0  0.83951625367E+02 -0.95839966920E+01 -0.74508736732E+02  0.11265558239E+03  0.00000000000E+00 0. -1.
</event>
<event>
 8    1  0.8619230E-006  0.1536666E+03  0.7561462E-02  0.1196038E+00
         -1   -1    0    0    0  501 -0.00000000000E+00  0.00000000000E+00  0.75367571099E+03  0.75367571099E+03  0.00000000000E+00 0.  1.
          1   -1    0    0  501    0  0.00000000000E+00 -0.00000000000E+00 -0.42171237107E+02  0.42171237107E+02  0.00000000000E+00 0. -1.
         23    2    1    2    0    0  0.10010431604E+03  0.83140942637E+02  0.50123696291E+03  0.53273522214E+03  0.12504012753E+03 0.  0.
         23    2    1    2    0    0 -0.10010431604E+03 -0.83140942637E+02  0.21026751098E+03  0.26311172595E+03  0.89900298831E+02 0.  0.
          5    1    3    3  502    0  0.52038256367E+02 -0.89530313384E+01  0.31518807734E+03  0.31960778056E+03  0.41800000000E+01 0.  1.
         -5    1    3    3    0  502  0.48066059677E+02  0.92093973975E+02  0.18604888557E+03  0.21312744158E+03  0.41800000000E+01 0.  1.
        -11    1    4    4    0    0 -0.14372294598E+02 -0.59860476095E+02  0.47791503477E+02  0.77935019439E+02  0.00000000000E+00 0.  1.
         11    1    4    4    0    0 -0.85732021446E+02 -0.23280466542E+02  0.16247600750E+03  0.18517670652E+03  0.00000000000E+00 0. -1.
</event>
<event>
 8    1  0.8619230E-006  0.3074689E+03  0.7561462E-02  0.1081565E+00
         -2   -1    0    0    0  501 -0.00000000000E+00  0.00000000000E+00  0.67921820200E+02  0.67921820200E+02  0.00000000000E+00 0.  1.
          2   -1    0    0  501    0  0.00000000000E+00 -0.00000000000E+00 -0.14392975727E+04  0.14392975727E+04  0.00000000000E+00 0. -1.
         23    2    1    2    0    0 -0.28575052825E+03 -0.60923028414E+02 -0.64058211600E+03  0.71509371289E+03  0.12509432877E+03 0.  0.
         23    2    1    2    0    0  0.28575052825E+03  0.60923028414E+02 -0.73079363648E+03  0.79212567999E+03  0.89659210311E+02 0.  0.
          5    1    3    3  502    0 -0.37484931544E+02  0.31787131063E+02 -0.66643840382E+02  0.82912095951E+02  0.41800000000E+01 0. -1.
         -5    1    3    3    0  502 -0.24826559670E+03 -0.92710159477E+02 -0.57393827561E+03  0.63218161694E+03  0.41800000000E+01 0. -1.
        -11    1    4    4    0    0  0.20640396656E+03  0.75717545793E+02 -0.59285598309E+03  0.63230843805E+03  0.00000000000E+00 0.  1.
         11    1    4    4    0    0  0.79346561688E+02 -0.14794517380E+02 -0.13793765340E+03  0.15981724194E+03  0.00000000000E+00 0. -1.
</event>
<event>
 8    1  0.8619230E-006  0.2408808E+03  0.7561462E-02  0.1119207E+00
         -2   -1    0    0    0  501 -0.00000000000E+00  0.00000000000E+00  0.44052805318E+03  0.44052805318E+03  0.00000000000E+00 0.  1.
          2   -1    0    0  501    0  0.00000000000E+00 -0.00000000000E+00 -0.25488775110E+03  0.25488775110E+03  0.00000000000E+00 0. -1.
         23    2    1    2    0    0 -0.72740221962E+02 -0.20816483865E+03  0.32967826470E+03  0.41588392021E+03  0.12509171410E+03 0.  0.
         23    2    1    2    0    0  0.72740221962E+02  0.20816483865E+03 -0.14403796261E+03  0.27953188406E+03  0.93634393218E+02 0.  0.
          5    1    3    3  502    0 -0.36101960697E+02 -0.20886606455E+03  0.30523358633E+03  0.37163611115E+03  0.41800000000E+01 0. -1.
         -5    1    3    3    0  502 -0.36638261265E+02  0.70122590384E+00  0.24444678370E+02  0.44247809063E+02  0.41800000000E+01 0. -1.
        -11    1    4    4    0    0  0.64387705338E+02  0.72544338177E+02 -0.93021041125E+02  0.13439260282E+03  0.00000000000E+00 0. -1.
         11    1    4    4    0    0  0.83525166236E+01  0.13562050047E+03 -0.51016921488E+02  0.14513928124E+03  0.00000000000E+00 0.  1.
</event>
<event>
 8    1  0.8619230E-006  0.1085605E+03  0.7561462E-02  0.1263259E+00
          1   -1    0    0  501    0  0.00000000000E+00  0.00000000000E+00  0.12861188582E+03  0.12861188582E+03  0.00000000000E+00 0. -1.
         -1   -1    0    0    0  501 -0.00000000000E+00 -0.00000000000E+00 -0.10440077102E+03  0.10440077102E+03  0.00000000000E+00 0.  1.
         23    2    1    2    0    0  0.63357411791E+01 -0.36077540479E+02  0.30252719253E+02  0.13380837520E+03  0.12509086181E+03 0.  0.
         23    2    1    2    0    0 -0.63357411791E+01  0.36077540479E+02 -0.60416044498E+01  0.99204281633E+02  0.91995967122E+02 0.  0.
          5    1    3    3  502    0 -0.77362516322E+01 -0.78070571036E+02 -0.24401637041E+01  0.78602102072E+02  0.41800000000E+01 0. -1.
         -5    1    3    3    0  502  0.14071992811E+02  0.41993030557E+02  0.32692882957E+02  0.55206273131E+02  0.41800000000E+01 0. -1.
        -11    1    4    4    0    0 -0.35112773246E+02  0.50795004922E+02  0.10910681553E+02  0.62706318198E+02  0.00000000000E+00 0.  1.
         11    1    4    4    0    0  0.28777032067E+02 -0.14717464443E+02 -0.16952286002E+02  0.36497963435E+02  0.00000000000E+00 0. -1.
</event>
<event>
 8    1  0.8619230E-006  0.8995210E+02  0.7561462E-02  0.1302968E+00
         -1   -1    0    0    0  501 -0.00000000000E+00  0.00000000000E+00  0.36761018753E+03  0.36761018753E+03  0.00000000000E+00 0.  1.
          1   -1    0    0  501    0  0.00000000000E+00 -0.00000000000E+00 -0.35832090741E+02  0.35832090741E+02  0.00000000000E+00 0. -1.
         23    2    1    2    0    0  0.11201457568E+02 -0.36244150608E+02  0.18012260741E+03  0.22255505590E+03  0.12508992005E+03 0.  0.
         23    2    1    2    0    0 -0.11201457568E+02  0.36244150608E+02  0.15165548938E+03  0.18088722238E+03  0.91003783746E+02 0.  0.
          5    1    3    3  502    0  0.19380267630E+02 -0.56127505924E+02  0.18957438264E+03  0.19870030359E+03  0.41800000000E+01 0.  1.
         -5    1    3    3    0  502 -0.81788100620E+01  0.19883355316E+02 -0.94517752242E+01  0.23854752305E+02  0.41800000000E+01 0.  1.
        -11    1    4    4    0    0  0.36502632338E+02 -0.31083918075E+01  0.52180836017E+02  0.63756912681E+02  0.00000000000E+00 0. -1.
         11    1    4    4    0    0 -0.47704089906E+02  0.39352542416E+02  0.99474653362E+02  0.11713030970E+03  0.00000000000E+00 0.  1.
</event>
<event>
 8    1  0.8619230E-006  0.1219459E+03  0.7561462E-02  0.1239921E+00
         -2   -1    0    0    0  501 -0.00000000000E+00  0.00000000000E+00  0.97520787924E+02  0.97520787924E+02  0.00000000000E+00 0.  1.
          2   -1    0    0  501    0  0.00000000000E+00 -0.00000000000E+00 -0.23403034193E+03  0.23403034193E+03  0.00000000000E+00 0. -1.
         23    2    1    2    0    0  0.80771635160E+02  0.42707257633E+02 -0.11041108797E+02  0.15057230774E+03  0.11917276062E+03 0.  0.
         23    2    1    2    0    0 -0.80771635160E+02 -0.42707257633E+02 -0.12546844521E+03  0.18097882211E+03  0.93075433968E+02 0.  0.
          5    1    3    3  502    0 -0.10345956912E+02  0.46658274526E+02 -0.30998489805E+02  0.57117529502E+02  0.41800000000E+01 0. -1.
         -5    1    3    3    0  502  0.91117592072E+02 -0.39510168929E+01  0.19957381009E+02  0.93454778241E+02  0.41800000000E+01 0.  1.
        -11    1    4    4    0    0  0.12462444710E+01 -0.19280761557E+02  0.93330661337E+01  0.21457097077E+02  0.00000000000E+00 0.  1.
         11    1    4    4    0    0 -0.82017879631E+02 -0.23426496076E+02 -0.13480151134E+03  0.15952172503E+03  0.00000000000E+00 0. -1.
</event>
<event>
 8    1  0.8619230E-006  0.7732688E+02  0.7561462E-02  0.1336813E+00
         -2   -1    0    0    0  501 -0.00000000000E+00  0.00000000000E+00  0.25881539097E+03  0.25881539097E+03  0.00000000000E+00 0.  1.
          2   -1    0    0  501    0  0.00000000000E+00 -0.00000000000E+00 -0.55387214371E+02  0.55387214371E+02  0.00000000000E+00 0. -1.
         23    2    1    2    0    0  0.21644769073E+01  0.39826864027E+02  0.15627441942E+03  0.20410609461E+03  0.12508692831E+03 0.  0.
         23    2    1    2    0    0 -0.21644769073E+01 -0.39826864027E+02  0.47153757173E+02  0.11009651073E+03  0.91142200982E+02 0.  0.
          5    1    3    3  502    0 -0.33424157523E+02  0.43607647360E+02  0.15869844967E+03  0.16799247466E+03  0.41800000000E+01 0. -1.
         -5    1    3    3    0  502  0.35588634430E+02 -0.37807833329E+01 -0.24240302509E+01  0.36113619950E+02  0.41800000000E+01 0. -1.
        -11    1    4    4    0    0 -0.11233793916E+02 -0.49206157819E+02  0.68495423040E+02  0.85082707236E+02  0.00000000000E+00 0.  1.
         11    1    4    4    0    0  0.90693170084E+01  0.93792937917E+01 -0.21341665867E+02  0.25013803490E+02  0.00000000000E+00 0. -1.
</event>
<event>
 8    1  0.8619230E-006  0.1199193E+03  0.7561462E-02  0.1243230E+00
         -1   -1    0    0    0  501 -0.00000000000E+00  0.00000000000E+00  0.39334878645E+02  0.39334878645E+02  0.00000000000E+00 0.  1.
          1   -1    0    0  501    0  0.00000000000E+00 -0.00000000000E+00 -0.57522160735E+03  0.57522160735E+03  0.00000000000E+00 0. -1.
         23    2    1    2    0    0 -0.13930714330E+02  0.10325312990E+03 -0.29339781988E+03  0.33553688955E+03  0.12508976740E+03 0.  0.
         23    2    1    2    0    0  0.13930714330E+02 -0.10325312990E+03 -0.24248890883E+03  0.27901959645E+03  0.90530606196E+02 0.  0.
          5    1    3    3  502    0 -0.20580288678E+01  0.26712291162E+02  0.46931962161E+01  0.27518729488E+02  0.41800000000E+01 0. -1.
         -5    1    3    3    0  502 -0.11872685463E+02  0.76540838738E+02 -0.29809101609E+03  0.30801816006E+03  0.41800000000E+01 0. -1.
        -11    1    4    4    0    0 -0.36613393766E+02 -0.45681114100E+02 -0.13376845393E+03  0.14601816345E+03  0.00000000000E+00 0.  1.
         11    1    4    4    0    0  0.50544108097E+02 -0.57572015799E+02 -0.10872045490E+03  0.13300143300E+03  0.00000000000E+00 0. -1.
</event>
<event>
 8    1  0.8619230E-006  0.1276317E+03  0.7561462E-02  0.1231013E+00
          1   -1    0    0  501    0  0.00000000000E+00  0.00000000000E+00  0.35594455090E+03  0.35594455090E+03  0.00000000000E+00 0. -1.
         -1   -1    0    0    0  501 -0.00000000000E+00 -0.00000000000E+00 -0.62021563409E+02  0.62021563409E+02  0.00000000000E+00 0.  1.
         23    2    1    2    0    0 -0.31011980597E+02 -0.89366116067E+02  0.11134259645E+03  0.19233098593E+03  0.12508392672E+03 0.  0.
         23    2    1    2    0    0  0.31011980597E+02  0.89366116067E+02  0.18258039104E+03  0.22563512838E+03  0.92884693695E+02 0.  0.
          5    1    3    3  502    0 -0.34445422630E+02 -0.12023839412E+03  0.83845855395E+02  0.15063651094E+03  0.41800000000E+01 0. -1.
         -5    1    3    3    0  502  0.34334420328E+01  0.30872278054E+02  0.27496741055E+02  0.41694474995E+02  0.41800000000E+01 0. -1.
        -11    1    4    4    0    0 -0.38325254881E+01  0.27552343650E+02  0.14030908080E+03  0.14304005749E+03  0.00000000000E+00 0. -1.
         11    1    4    4    0    0  0.34844506085E+02  0.61813772416E+02  0.42271310240E+02  0.82595070882E+02  0.00000000000E+00 0.  1.
</event>
<event>
 7    1  0.8619230E-006  0.1206900E+03  0.7561462E-02  0.1241963E+00
         -2   -1    0    0    0  501 -0.00000000000E+00  0.00000000000E+00  0.12878473612E+03  0.12878473612E+03  0.00000000000E+00 0.  1.
          2   -1    0    0  501    0  0.00000000000E+00 -0.00000000000E+00 -0.34336492360E+03  0.34336492360E+03  0.00000000000E+00 0. -1.
         23    2    1    2    0    0  0.52897110097E+02 -0.41454193837E+02 -0.17148528262E+03  0.20587089593E+03  0.91973198221E+02 0.  0.
          5    1    1    2  502    0 -0.94889317321E+02 -0.44800814106E+01 -0.12891241742E+03  0.16018719499E+03  0.41800000000E+01 0. -1.
         -5    1    1    2    0  502  0.41992207225E+02  0.45934275247E+02  0.85817512558E+02  0.10609156881E+03  0.41800000000E+01 0.  1.
        -11    1    3    3    0    0  0.49564327365E+01 -0.35226593001E+02 -0.94923747223E+01  0.36818259842E+02  0.00000000000E+00 0.  1.
         11    1    3    3    0    0  0.47940677360E+02 -0.62276008360E+01 -0.16199290790E+03  0.16905263608E+03  0.00000000000E+00 0. -1.
</event>
<event>
 8    1  0.8619230E-006  0.1412864E+03  0.7561462E-02  0.1211608E+00
         -2   -1    0    0    0  501 -0.00000000000E+00  0.00000000000E+00  0.70573251340E+02  0.70573251340E+02  0.00000000000E+00 0. -1.
          2   -1    0    0  501    0  0.00000000000E+00 -0.00000000000E+00 -0.76256789998E+03  0.76256789998E+03  0.00000000000E+00 0.  1.
         23    2    1    2    0    0  0.10540343218E+03 -0.73030495034E+02 -0.71465982300E+02  0.19289543872E+03  0.12513163842E+03 0.  0.
         23    2    1    2    0    0 -0.10540343218E+03  0.73030495034E+02 -0.62052866634E+03  0.64024571260E+03  0.91735544000E+02 0.  0.
          5    1    3    3  502    0  0.67809833522E+02 -0.50533620817E+02  0.23801797650E+02  0.87953500934E+02  0.41800000000E+01 0.  1.
         -5    1    3    3    0  502  0.37593598656E+02 -0.22496874217E+02 -0.95267779950E+02  0.10494193779E+03  0.41800000000E+01 0.  1.
        -11    1    4    4    0    0  0.64860817095E+01 -0.11809749042E+02 -0.25140565643E+02  0.28523454721E+02  0.00000000000E+00 0. -1.
         11    1    4    4    0    0 -0.11188951389E+03  0.84840244076E+02 -0.59538810070E+03  0.61172225788E+03  0.00000000000E+00 0.  1.
</event>
<event>
 8    1  0.8619230E-006  0.1942171E+03  0.7561462E-02  0.1154712E+00
         -1   -1    0    0    0  501 -0.00000000000E+00  0.00000000000E+00  0.58970472902E+02  0.58970472902E+02  0.00000000000E+00 0.  1.
          1   -1    0    0  501    0  0.00000000000E+00 -0.00000000000E+00 -0.71527729413E+03  0.71527729413E+03  0.00000000000E+00 0. -1.
         23    2    1    2    0    0  0.15823711792E+03 -0.67408781574E+02 -0.29448833763E+03  0.36325396358E+03  0.12508849562E+03 0.  0.
         23    2    1    2    0    0 -0.15823711792E+03  0.67408781574E+02 -0.36181848359E+03  0.41099380345E+03  0.91762530901E+02 0.  0.
          5    1    3    3  502    0  0.16498370247E+03 -0.90201088973E+02 -0.25289021336E+03  0.31516153151E+03  0.41800000000E+01 0. -1.
         -5    1    3    3    0  502 -0.67465845474E+01  0.22792307399E+02 -0.41598124270E+02  0.48092432070E+02  0.41800000000E+01 0. -1.
        -11    1    4    4    0    0 -0.71681467159E+02  0.10042621871E+02 -0.24124228484E+03  0.25186688346E+03  0.00000000000E+00 0. -1.
         11    1    4    4    0    0 -0.86555650765E+02  0.57366159703E+02 -0.12057619875E+03  0.15912691999E+03  0.00000000000E+00 0.  1.
</event>
<event>
 8    1  0.8619230E-006  0.1506612E+03  0.7561462E-02  0.1199663E+00
         -2   -1    0    0    0  501 -0.00000000000E+00  0.00000000000E+00  0.64980297038E+03  0.64980297038E+03  0.00000000000E+00 0.  1.
          2   -1    0    0  501    0  0.00000000000E+00 -0.00000000000E+00 -0.51368738091E+02  0.51368738091E+02  0.00000000000E+00 0. -1.
         23    2    1    2    0    0  0.51000750466E+02 -0.12573933538E+03  0.41159871391E+03  0.45107897783E+03  0.12508911198E+03 0.  0.
         23    2    1    2    0    0 -0.51000750466E+02  0.12573933538E+03  0.18683551838E+03  0.25009273065E+03  0.96059387793E+02 0.  0.
          5    1    3    3  502    0  0.62704723522E+02 -0.34467539663E+02  0.82283249191E+02  0.10912332079E+03  0.41800000000E+01 0.  1.
         -5    1    3    3    0  502 -0.11703973056E+02 -0.91271795716E+02  0.32931546472E+03  0.34195565704E+03  0.41800000000E+01 0.  1.
        -11    1    4    4    0    0 -0.30816117410E+01  0.33014214140E+02 -0.31674727580E+01  0.33308670791E+02  0.00000000000E+00 0. -1.
         11    1    4    4    0    0 -0.47919138725E+02  0.92725121240E+02  0.19000299114E+03  0.21678405986E+03  0.00000000000E+00 0.  1.
</event>
<event>
 8    1  0.8619230E-006  0.1194735E+03  0.7561462E-02  0.1243968E+00
         -2   -1    0    0    0  501 -0.00000000000E+00  0.00000000000E+00  0.15178673434E+03  0.15178673434E+03  0.00000000000E+00 0.  1.
          2   -1    0    0  501    0  0.00000000000E+00 -0.00000000000E+00 -0.12636899527E+03  0.12636899527E+03  0.00000000000E+00 0. -1.
         23    2    1    2    0    0  0.80102536730E+02 -0.37237534358E+01  0.44569365283E+02  0.15512793081E+03  0.12509182174E+03 0.  0.
         23    2    1    2    0    0 -0.80102536730E+02  0.37237534358E+01 -0.19151626214E+02  0.12302779879E+03  0.91316875543E+02 0.  0.
          5    1    3    3  502    0  0.10539780091E+03  0.37051337620E+01  0.28306106531E+01  0.10558365977E+03  0.41800000000E+01 0.  1.
         -5    1    3    3    0  502 -0.25295264183E+02 -0.74288871979E+01  0.41738754630E+02  0.49544271043E+02  0.41800000000E+01 0.  1.
        -11    1    4    4    0    0 -0.11469075479E+02  0.30846762157E+02 -0.34468641277E+02  0.47656580441E+02  0.00000000000E+00 0. -1.
         11    1    4    4    0    0 -0.68633461251E+02 -0.27123008721E+02  0.15317015063E+02  0.75371218351E+02  0.00000000000E+00 0.  1.
</event>
<event>
 8    1  0.8619230E-006  0.1411403E+03  0.7561462E-02  0.1211803E+00
         -1   -1    0    0    0  501 -0.00000000000E+00  0.00000000000E+00  0.49164796144E+03  0.49164796144E+03  0.00000000000E+00 0.  1.
          1   -1    0    0  501    0  0.00000000000E+00 -0.00000000000E+00 -0.58424545815E+02  0.58424545815E+02  0.00000000000E+00 0. -1.
         23    2    1    2    0    0  0.10139492536E+03  0.78368961927E+02  0.19769230592E+03  0.26674374317E+03  0.12508937452E+03 0.  0.
         23    2    1    2    0    0 -0.10139492536E+03 -0.78368961927E+02  0.23553110971E+03  0.28332876409E+03  0.91529557166E+02 0.  0.
          5    1    3    3  502    0  0.53506600623E+02  0.18939803605E+02  0.17931285477E+03  0.18812826676E+03  0.41800000000E+01 0. -1.
         -5    1    3    3    0  502  0.47888324742E+02  0.59429158323E+02  0.18379451148E+02  0.78615476403E+02  0.41800000000E+01 0. -1.
        -11    1    4    4    0    0 -0.70333669346E+02 -0.64964330244E+01  0.66354519696E+02  0.96912078555E+02  0.00000000000E+00 0. -1.
         11    1    4    4    0    0 -0.31061256019E+02 -0.71872528903E+02  0.16917659001E+03  0.18641668553E+03  0.00000000000E+00 0.  1.
</event>
<event>
 7    1  0.8619230E-006  0.1272465E+03  0.7561462E-02  0.1231600E+00
          2   -1    0    0  501    0  0.00000000000E+00  0.00000000000E+00  0.12091607797E+04  0.12091607797E+04  0.00000000000E+00 0. -1.
         -2   -1    0    0    0  501 -0.00000000000E+00 -0.00000000000E+00 -0.19031772136E+02  0.19031772136E+02  0.00000000000E+00 0.  1.
         23    2    1    2    0    0 -0.55733233510E+02  0.99166855879E+01  0.42241507034E+03  0.44417029308E+03  0.12509286003E+03 0.  0.
          5    1    3    3  502    0  0.12399496899E+02  0.22769064754E+02  0.13747832487E+02  0.29642083786E+02  0.41800000000E+01 0.  1.
         -5    1    3    3    0  502 -0.68132730409E+02 -0.12852379166E+02  0.40866723786E+03  0.41452820929E+03  0.41800000000E+01 0.  1.
        -11    1    1    2    0    0  0.85194233117E+02 -0.57516643739E+02  0.51988509660E+03  0.52994974793E+03  0.00000000000E+00 0. -1.
         11    1    1    2    0    0 -0.29460999607E+02  0.47599958151E+02  0.24782884062E+03  0.25407251082E+03  0.00000000000E+00 0.  1.
</event>
<event>
 7    1  0.8619230E-006  0.1009595E+03  0.7561462E-02  0.1278291E+00
         -2   -1    0    0    0  501 -0.00000000000E+00  0.00000000000E+00  0.28360358441E+02  0.28360358441E+02  0.00000000000E+00 0.  1.
          2   -1    0    0  501    0  0.00000000000E+00 -0.00000000000E+00 -0.46667584046E+03  0.46667584046E+03  0.00000000000E+00 0. -1.
         23    2    1    2    0    0 -0.28000200749E+02 -0.12750866083E+02 -0.20269880974E+03  0.22421909610E+03  0.90778850844E+02 0.  0.
          5    1    1    2  502    0  0.60136754760E+02 -0.28092419148E+02 -0.19081931336E+03  0.20207695573E+03  0.41800000000E+01 0. -1.
         -5    1    1    2    0  502 -0.32136554012E+02  0.40843285231E+02 -0.44797358920E+02  0.68740147064E+02  0.41800000000E+01 0.  1.
        -11    1    3    3    0    0 -0.33309625255E+02 -0.41967189008E+02 -0.69527692764E+02  0.87777423914E+02  0.00000000000E+00 0.  1.
         11    1    3    3    0    0  0.53094245060E+01  0.29216322926E+02 -0.13317111697E+03  0.13644167219E+03  0.00000000000E+00 0. -1.
</event>
<event>
 8    1  0.8619230E-006  0.1677007E+03  0.7561462E-02  0.1180267E+00
          2   -1    0    0  501    0  0.00000000000E+00  0.00000000000E+00  0.29188569012E+03  0.29188569012E+03  0.00000000000E+00 0. -1.
         -2   -1    0    0    0  501 -0.00000000000E+00 -0.00000000000E+00 -0.10471771560E+03  0.10471771560E+03  0.00000000000E+00 0.  1.
         23    2    1    2    0    0  0.88309522293E+02 -0.10304274818E+03  0.76957004587E+02  0.19996766389E+03  0.12509319072E+03 0.  0.
         23    2    1    2    0    0 -0.88309522293E+02  0.10304274818E+03  0.11021096994E+03  0.19663574183E+03  0.90015428620E+02 0.  0.
          5    1    3    3  502    0  0.11213774495E+03 -0.71411280896E+02  0.86951678679E+02  0.15891038892E+03  0.41800000000E+01 0. -1.
         -5    1    3    3    0  502 -0.23828222654E+02 -0.31631467288E+02 -0.99946740917E+01  0.41057274969E+02  0.41800000000E+01 0. -1.
        -11    1    4    4    0    0 -0.54986402775E+02  0.11475346452E+03  0.90905906604E+02  0.15638333020E+03  0.00000000000E+00 0.  1.
         11    1    4    4    0    0 -0.33323119518E+02 -0.11710716337E+02  0.19305063332E+02  0.40252411627E+02  0.00000000000E+00 0. -1.
</event>
<event>
 7    1  0.8619230E-006  0.1565994E+03  0.7561462E-02  0.1192590E+00
         -3   -1    0    0    0  501 -0.00000000000E+00  0.00000000000E+00  0.32078726945E+03  0.32078726945E+03  0.00000000000E+00 0.  1.
          3   -1    0    0  501    0  0.00000000000E+00 -0.00000000000E+00 -0.10741526189E+03  0.10741526189E+03  0.00000000000E+00 0. -1.
         23    2    1    2    0    0  0.11038492408E+03 -0.27219292993E+01  0.19905169651E+01  0.14410278382E+03  0.92571106644E+02 0.  0.
          5    1    1    2  502    0  0.43214896542E+00  0.61411617200E+02  0.93489020401E+02  0.11193410032E+03  0.41800000000E+01 0. -1.
         -5    1    1    2    0  502 -0.11081707304E+03 -0.58689687901E+02  0.11789247020E+03  0.17216564719E+03  0.41800000000E+01 0.  1.
        -11    1    3    3    0    0  0.54170330154E+02  0.29189597004E+02 -0.33809330267E+02  0.70210597885E+02  0.00000000000E+00 0. -1.
         11    1    3    3    0    0  0.56214593922E+02 -0.31911526303E+02  0.35799847232E+02  0.73892185937E+02  0.00000000000E+00 0.  1.
</event>
<event>
 8    1  0.8619230E-006  0.2744981E+03  0.7561462E-02  0.1098732E+00
          1   -1    0    0  501    0  0.00000000000E+00  0.00000000000E+00  0.26050377489E+03  0.26050377489E+03  0.00000000000E+00 0. -1.
         -1   -1    0    0    0  501 -0.00000000000E+00 -0.00000000000E+00 -0.34082678948E+03  0.34082678948E+03  0.00000000000E+00 0.  1.
         23    2    1    2    0    0  0.19435343793E+02 -0.26496426019E+03 -0.12100855278E+03  0.31760811872E+03  0.12509218786E+03 0.  0.
         23    2    1    2    0    0 -0.19435343793E+02  0.26496426019E+03  0.40685538193E+02  0.28372244565E+03  0.90880808650E+02 0.  0.
          5    1    3    3  502    0  0.24187499429E+02 -0.26810252476E+03 -0.13556442947E+03  0.30142857503E+03  0.41800000000E+01 0.  1.
         -5    1    3    3    0  502 -0.47521556363E+01  0.31382645671E+01  0.14555876689E+02  0.16179543685E+02  0.41800000000E+01 0.  1.
        -11    1    4    4    0    0  0.16895379060E+02  0.17307030012E+03  0.58186156501E+02  0.18336960333E+03  0.00000000000E+00 0.  1.
         11    1    4    4    0    0 -0.36330722852E+02  0.91893960067E+02 -0.17500618308E+02  0.10035284232E+03  0.00000000000E+00 0. -1.
</event>
<event>
 8    1  0.8619230E-006  0.1126760E+03  0.7561462E-02  0.1255693E+00
          1   -1    0    0  501    0  0.00000000000E+00  0.00000000000E+00  0.31972321381E+02  0.31972321381E+02  0.00000000000E+00 0. -1.
         -1   -1    0    0    0  501 -0.00000000000E+00 -0.00000000000E+00 -0.57752458010E+03  0.57752458010E+03  0.00000000000E+00 0.  1.
         23    2    1    2    0    0  0.63908388287E+01 -0.71835095230E+02 -0.36311019281E+03  0.39076569061E+03  0.12509072353E+03 0.  0.
         23    2    1    2    0    0 -0.63908388287E+01  0.71835095230E+02 -0.18244206591E+03  0.21873121086E+03  0.96732163555E+02 0.  0.
          5    1    3    3  502    0 -0.18721909103E+02 -0.10249170578E+03 -0.27310803820E+03  0.29233633466E+03  0.41800000000E+01 0.  1.
         -5    1    3    3    0  502  0.25112747932E+02  0.30656610549E+02 -0.90002154608E+02  0.98429355952E+02  0.41800000000E+01 0.  1.
        -11    1    4    4    0    0 -0.21960823748E+02  0.36154232402E+02 -0.12100990493E+02  0.43998184863E+02  0.00000000000E+00 0. -1.
         11    1    4    4    0    0  0.15569984919E+02  0.35680862828E+02 -0.17034107541E+03  0.17473302600E+03  0.00000000000E+00 0.  1.
</event>
<event>
 8    1  0.8619230E-006  0.1869298E+03  0.7561462E-02  0.1161260E+00
         -2   -1    0    0    0  501 -0.00000000000E+00  0.00000000000E+00  0.18968209441E+03  0.18968209441E+03  0.00000000000E+00 0.  1.
          2   -1    0    0  501    0  0.00000000000E+00 -0.00000000000E+00 -0.24540593779E+03  0.24540593779E+03  0.00000000000E+00 0. -1.
         23    2    1    2    0    0  0.16122160349E+03  0.23742054599E+02  0.59809807509E+02  0.21396439393E+03  0.12508980057E+03 0.  0.
         23    2    1    2    0    0 -0.16122160349E+03 -0.23742054599E+02 -0.11553365090E+03  0.22112363827E+03  0.94823775105E+02 0.  0.
          5    1    3    3  502    0  0.89338820690E+02  0.71154222678E+02  0.10805095462E+02  0.11479795632E+03  0.41800000000E+01 0.  1.
         -5    1    3    3    0  502  0.71882782800E+02 -0.47412168078E+02  0.49004712047E+02  0.99166437608E+02  0.41800000000E+01 0.  1.
        -11    1    4    4    0    0 -0.23194373410E+02  0.17776202848E+02 -0.59853576885E+02  0.66606478751E+02  0.00000000000E+00 0.  1.
         11    1    4    4    0    0 -0.13802723008E+03 -0.41518257448E+02 -0.55680074012E+02  0.15451715952E+03  0.00000000000E+00 0. -1.
</event>
<event>
 8    1  0.8619230E-006  0.9250815E+02  0.7561462E-02  0.1296889E+00
          1   -1    0    0  501    0  0.00000000000E+00  0.00000000000E+00  0.39898099350E+03  0.39898099350E+03  0.00000000000E+00 0. -1.
         -1   -1    0    0    0  501 -0.00000000000E+00 -0.00000000000E+00 -0.42621728043E+02  0.42621728043E+02  0.00000000000E+00 0.  1.
         23    2    1    2    0    0 -0.47670206773E+02 -0.36896543886E+02  0.94726282738E+02  0.15829257634E+03  0.11157807813E+03 0.  0.
         23    2    1    2    0    0  0.47670206773E+02  0.36896543886E+02  0.26163298272E+03  0.28331014520E+03  0.90437918839E+02 0.  0.
          5    1    3    3  502    0 -0.26590444191E+02 -0.46323057480E+02 -0.68763651100E+01  0.54015129119E+02  0.41800000000E+01 0.  1.
         -5    1    3    3    0  502 -0.21079762582E+02  0.94265135939E+01  0.10160264785E+03  0.10427744722E+03  0.41800000000E+01 0. -1.
        -11    1    4    4    0    0  0.47879054196E+02 -0.19412290257E+02  0.10908001017E+03  0.12069668372E+03  0.00000000000E+00 0.  1.
         11    1    4    4    0    0 -0.20884742378E+00  0.56308834144E+02  0.15255297255E+03  0.16261346148E+03  0.00000000000E+00 0. -1.
</event>
<event>
 8    1  0.8619230E-006  0.1309892E+03  0.7561462E-02  0.1225995E+00
         -1   -1    0    0    0  501 -0.00000000000E+00  0.00000000000E+00  0.45505073119E+02  0.45505073119E+02  0.00000000000E+00 0.  1.
          1   -1    0    0  501    0  0.00000000000E+00 -0.00000000000E+00 -0.46712248978E+03  0.46712248978E+03  0.00000000000E+00 0. -1.
         23    2    1    2    0    0 -0.47420789695E+02  0.79003217964E+02 -0.17490510554E+03  0.23394629501E+03  0.12509529671E+03 0.  0.
         23    2    1    2    0    0  0.47420789695E+02 -0.79003217964E+02 -0.24671231112E+03  0.27868126789E+03  0.91137505289E+02 0.  0.
          5    1    3    3  502    0 -0.85472499177E+02  0.64141806638E+02 -0.90562750138E+02  0.14013851572E+03  0.41800000000E+01 0. -1.
         -5    1    3    3    0  502  0.38051709481E+02  0.14861411326E+02 -0.84342355399E+02  0.93807779290E+02  0.41800000000E+01 0. -1.
        -11    1    4    4    0    0 -0.12023397919E+02 -0.42600099772E+02 -0.16711127693E+03  0.17287425915E+03  0.00000000000E+00 0. -1.
         11    1    4    4    0    0  0.59444187614E+02 -0.36403118193E+02 -0.79601034195E+02  0.10580700875E+03  0.00000000000E+00 0.  1.
</event>
<event>
 8    1  0.8619230E-006  0.1661150E+03  0.7561462E-02  0.1181961E+00
         -3   -1    0    0    0  501 -0.00000000000E+00  0.00000000000E+00  0.17716625139E+03  0.17716625139E+03  0.00000000000E+00 0.  1.
          3   -1    0    0  501    0  0.00000000000E+00 -0.00000000000E+00 -0.17965398054E+03  0.17965398054E+03  0.00000000000E+00 0. -1.
         23    2    1    2    0    0 -0.11891642369E+03  0.59310870118E+02  0.46247294113E+02  0.18826937115E+03  0.12509056226E+03 0.  0.
         23    2    1    2    0    0  0.11891642369E+03 -0.59310870118E+02 -0.48735023260E+02  0.16855086077E+03  0.91517184390E+02 0.  0.
          5    1    3    3  502    0  0.62877487629E+01  0.47096355759E+02  0.39993820800E+02  0.62246129297E+02  0.41800000000E+01 0. -1.
         -5    1    3    3    0  502 -0.12520417245E+03  0.12214514359E+02  0.62534733135E+01  0.12602324186E+03  0.41800000000E+01 0. -1.
        -11    1    4    4    0    0  0.62764028844E+02  0.15954543569E+02 -0.49745098973E+01  0.64950877792E+02  0.00000000000E+00 0. -1.
         11    1    4    4    0    0  0.56152394842E+02 -0.75265413687E+02 -0.43760513363E+02  0.10359998298E+03  0.00000000000E+00 0.  1.
</event>
<event>
 8    1  0.9622856E-006  0.1672286E+03  0.7561462E-02  0.1180769E+00
         -2   -1    0    0    0  501 -0.00000000000E+00  0.00000000000E+00  0.33142909509E+02  0.33142909509E+02  0.00000000000E+00 0.  1.
          2   -1    0    0  501    0  0.00000000000E+00 -0.00000000000E+00 -0.10145498629E+04  0.10145498629E+04  0.00000000000E+00 0. -1.
         23    2    1    2    0    0  0.12577535512E+03 -0.72433838851E+02 -0.44320337506E+03  0.48284906367E+03  0.12509150914E+03 0.  0.
         23    2    1    2    0    0 -0.12577535512E+03  0.72433838851E+02 -0.53820357830E+03  0.56484370870E+03  0.91209772522E+02 0.  0.
          5    1    3    3  502    0  0.45626518201E+02 -0.90828153325E+02 -0.17643000572E+03  0.20365792869E+03  0.41800000000E+01 0.  1.
         -5    1    3    3    0  502  0.80148836917E+02  0.18394314474E+02 -0.26677336934E+03  0.27919113498E+03  0.41800000000E+01 0.  1.
        -11    1    4    4    0    0 -0.71861144634E+02  0.63180425351E+02 -0.45715882928E+03  0.46706529034E+03  0.00000000000E+00 0. -1.
         11    1    4    4    0    0 -0.53914210484E+02  0.92534134999E+01 -0.81044749019E+02  0.97778418360E+02  0.00000000000E+00 0.  1.
</event>
<event>
 8    1  0.8619230E-006  0.1814647E+03  0.7561462E-02  0.1166393E+00
         -2   -1    0    0    0  501 -0.00000000000E+00  0.00000000000E+00  0.25047771993E+02  0.25047771993E+02  0.00000000000E+00 0.  1.
          2   -1    0    0  501    0  0.00000000000E+00 -0.00000000000E+00 -0.16856627097E+04  0.16856627097E+04  0.00000000000E+00 0. -1.
         23    2    1    2    0    0 -0.37281818817E+01  0.16635368270E+03 -0.65182258937E+03  0.68425638441E+03  0.12508662797E+03 0.  0.
         23    2    1    2    0    0  0.37281818817E+01 -0.16635368270E+03 -0.10087923484E+04  0.10264540973E+04  0.90876645448E+02 0.  0.
          5    1    3    3  502    0  0.67019090606E+01  0.16157591636E+03 -0.39093383000E+03  0.42308205371E+03  0.41800000000E+01 0.  1.
         -5    1    3    3    0  502 -0.10430090942E+02  0.47777663438E+01 -0.26088875937E+03  0.26117433070E+03  0.41800000000E+01 0.  1.
        -11    1    4    4    0    0  0.46647281016E+02 -0.89333377836E+02 -0.49565291278E+03  0.50579465316E+03  0.00000000000E+00 0.  1.
         11    1    4    4    0    0 -0.42919099135E+02 -0.77020304868E+02 -0.51313943559E+03  0.52065944415E+03  0.00000000000E+00 0. -1.
</event>
<event>
 8    1  0.8619230E-006  0.1043584E+03  0.7561462E-02  0.1271389E+00
          2   -1    0    0  501    0  0.00000000000E+00  0.00000000000E+00  0.74640303362E+03  0.74640303362E+03  0.00000000000E+00 0.  1.
         -2   -1    0    0    0  501 -0.00000000000E+00 -0.00000000000E+00 -0.22253067088E+02  0.22253067088E+02  0.00000000000E+00 0. -1.
         23    2    1    2    0    0  0.46559866363E+02 -0.51854438075E+02  0.39673571773E+03  0.42178342615E+03  0.12508127336E+03 0.  0.
         23    2    1    2    0    0 -0.46559866363E+02  0.51854438075E+02  0.32741424880E+03  0.34687267456E+03  0.90905765138E+02 0.  0.
          5    1    3    3  502    0  0.30879739576E+02  0.17553756392E+02  0.29727141808E+03  0.29941519849E+03  0.41800000000E+01 0. -1.
         -5    1    3    3    0  502  0.15680126787E+02 -0.69408194466E+02  0.99464299656E+02  0.12236822766E+03  0.41800000000E+01 0. -1.
        -11    1    4    4    0    0  0.95248933415E+01  0.44024119067E+02  0.69535547977E+02  0.82849496590E+02  0.00000000000E+00 0.  1.
         11    1    4    4    0    0 -0.56084759704E+02  0.78303190071E+01  0.25787870082E+03  0.26402317797E+03  0.00000000000E+00 0. -1.
</event>
<event>
 8    1  0.8619230E-006  0.1357418E+03  0.7561462E-02  0.1219176E+00
          2   -1    0    0  501    0  0.00000000000E+00  0.00000000000E+00  0.20415419882E+03  0.20415419882E+03  0.00000000000E+00 0. -1.
         -2   -1    0    0    0  501 -0.00000000000E+00 -0.00000000000E+00 -0.13344949581E+03  0.13344949581E+03  0.00000000000E+00 0.  1.
         23    2    1    2    0    0 -0.54008643828E+02  0.11119943724E+03  0.72917184334E+02  0.19038511844E+03  0.12508928452E+03 0.  0.
         23    2    1    2    0    0  0.54008643828E+02 -0.11119943724E+03 -0.22124813246E+01  0.14721857618E+03  0.79913488531E+02 0.  0.
          5    1    3    3  502    0  0.15035274125E+01  0.28370918906E+02 -0.33748468057E+02  0.44312539201E+02  0.41800000000E+01 0. -1.
         -5    1    3    3    0  502 -0.55512171240E+02  0.82828518334E+02  0.10666565239E+03  0.14607257924E+03  0.41800000000E+01 0. -1.
        -11    1    4    4    0    0 -0.11442865961E+02 -0.56567469278E+02  0.16310589389E+02  0.59973770002E+02  0.00000000000E+00 0.  1.
         11    1    4    4    0    0  0.65451509789E+02 -0.54631967962E+02 -0.18523070714E+02  0.87244806182E+02  0.00000000000E+00 0. -1.
</event>
<event>
 8    1  0.8619230E-006  0.1432956E+03  0.7561462E-02  0.1208962E+00
          2   -1    0    0  501    0  0.00000000000E+00  0.00000000000E+00  0.31594736449E+03  0.31594736449E+03  0.00000000000E+00 0. -1.
         -2   -1    0    0    0  501 -0.00000000000E+00 -0.00000000000E+00 -0.67857805521E+02  0.67857805521E+02  0.00000000000E+00 0.  1.
         23    2    1    2    0    0  0.25095056367E+02 -0.91243314233E+02  0.10666350112E+03  0.18967780130E+03  0.12508181958E+03 0.  0.
         23    2    1    2    0    0 -0.25095056367E+02  0.91243314233E+02  0.14142605786E+03  0.19412736871E+03  0.93429123917E+02 0.  0.
          5    1    3    3  502    0  0.69601105599E+02 -0.82590096972E+02  0.56615501369E+02  0.12201731604E+03  0.41800000000E+01 0. -1.
         -5    1    3    3    0  502 -0.44506049232E+02 -0.86532172613E+01  0.50047999746E+02  0.67660485261E+02  0.41800000000E+01 0. -1.
        -11    1    4    4    0    0  0.19109375428E+02 -0.10668813595E+02  0.24151591812E+02  0.32592809020E+02  0.00000000000E+00 0.  1.
         11    1    4    4    0    0 -0.44204431795E+02  0.10191212783E+03  0.11727446605E+03  0.16153455969E+03  0.00000000000E+00 0. -1.
</event>
<event>
 8    1  0.8619230E-006  0.1274500E+03  0.7561462E-02  0.1231289E+00
          2   -1    0    0  501    0  0.00000000000E+00  0.00000000000E+00  0.11353293930E+03  0.11353293930E+03  0.00000000000E+00 0. -1.
         -2   -1    0    0    0  501 -0.00000000000E+00 -0.00000000000E+00 -0.15372655211E+03  0.15372655211E+03  0.00000000000E+00 0.  1.
         23    2    1    2    0    0  0.66376129827E+02  0.26321732512E+02 -0.46048786441E+02  0.15121649012E+03  0.12508921592E+03 0.  0.
         23    2    1    2    0    0 -0.66376129827E+02 -0.26321732512E+02  0.58551736280E+01  0.11604300129E+03  0.91285655379E+02 0.  0.
          5    1    3    3  502    0  0.93986884235E+02 -0.10128821944E+02 -0.46196402850E+02  0.10529818364E+03  0.41800000000E+01 0. -1.
         -5    1    3    3    0  502 -0.27610754408E+02  0.36450554457E+02  0.14761640934E+00  0.45918306478E+02  0.41800000000E+01 0. -1.
        -11    1    4    4    0    0 -0.79139444741E+02  0.62395077176E+01 -0.46639862448E+01  0.79521921117E+02  0.00000000000E+00 0.  1.
         11    1    4    4    0    0  0.12763314914E+02 -0.32561240230E+02  0.10519159873E+02  0.36521080178E+02  0.00000000000E+00 0. -1.
</event>
<event>
 8    1  0.8619230E-006  0.1137071E+03  0.7561462E-02  0.1253855E+00
         -2   -1    0    0    0  501 -0.00000000000E+00  0.00000000000E+00  0.55227254250E+03  0.55227254250E+03  0.00000000000E+00 0.  1.
          2   -1    0    0  501    0  0.00000000000E+00 -0.00000000000E+00 -0.61010118287E+02  0.61010118287E+02  0.00000000000E+00 0. -1.
         23    2    1    2    0    0  0.95580458952E+02 -0.10978379004E+02  0.44626159353E+03  0.47334248514E+03  0.12509016525E+03 0.  0.
         23    2    1    2    0    0 -0.95580458952E+02  0.10978379004E+02  0.45000830685E+02  0.13994017564E+03  0.91115471013E+02 0.  0.
          5    1    3    3  502    0  0.75252918403E+02 -0.31598067065E+02  0.43399037910E+03  0.44161811684E+03  0.41800000000E+01 0.  1.
         -5    1    3    3    0  502  0.20327540550E+02  0.20619688061E+02  0.12271214426E+02  0.31724368300E+02  0.41800000000E+01 0.  1.
        -11    1    4    4    0    0  0.98319688501E+01 -0.25509311261E+01  0.31150040675E+02  0.32764308250E+02  0.00000000000E+00 0.  1.
         11    1    4    4    0    0 -0.10541242780E+03  0.13529310130E+02  0.13850790010E+02  0.10717586739E+03  0.00000000000E+00 0. -1.
</event>
<event>
 8    1  0.8619230E-006  0.1130977E+03  0.7561462E-02  0.1254939E+00
          1   -1    0    0  501    0  0.00000000000E+00  0.00000000000E+00  0.21885450134E+03  0.21885450134E+03  0.00000000000E+00 0. -1.
         -1   -1    0    0    0  501 -0.00000000000E+00 -0.00000000000E+00 -0.70906588009E+02  0.70906588009E+02  0.00000000000E+00 0.  1.
         23    2    1    2    0    0 -0.30512432242E+02  0.49385113793E+02  0.67870466696E+02  0.15370012175E+03  0.12508968458E+03 0.  0.
         23    2    1    2    0    0  0.30512432242E+02 -0.49385113793E+02  0.80077446633E+02  0.13606096760E+03  0.93436028703E+02 0.  0.
          5    1    3    3  502    0 -0.73383497613E+02  0.22816185588E+01  0.43070443629E+02  0.85222526479E+02  0.41800000000E+01 0.  1.
         -5    1    3    3    0  502  0.42871065371E+02  0.47103495234E+02  0.24800023068E+02  0.68477595266E+02  0.41800000000E+01 0.  1.
        -11    1    4    4    0    0  0.49858293601E+02 -0.20158635498E+02  0.85084574255E+02  0.10065587316E+03  0.00000000000E+00 0. -1.
         11    1    4    4    0    0 -0.19345861359E+02 -0.29226478295E+02 -0.50071276218E+01  0.35405094439E+02  0.00000000000E+00 0.  1.
</event>
<event>
 8    1  0.8619230E-006  0.1076624E+03  0.7561462E-02  0.1264961E+00
          1   -1    0    0  501    0  0.00000000000E+00  0.00000000000E+00  0.14422180945E+02  0.14422180945E+02  0.00000000000E+00 0. -1.
         -1   -1    0    0    0  501 -0.00000000000E+00 -0.00000000000E+00 -0.13044691860E+04  0.13044691860E+04  0.00000000000E+00 0.  1.
         23    2    1    2    0    0  0.43609290233E+02  0.32371429382E+02 -0.10143609654E+04  0.10234773622E+04  0.12501225181E+03 0.  0.
         23    2    1    2    0    0 -0.43609290233E+02 -0.32371429382E+02 -0.27568603963E+03  0.29541400476E+03  0.91197380025E+02 0.  0.
          5    1    3    3  502    0  0.43726331423E+02 -0.36435521692E+02 -0.27199565868E+03  0.27791842336E+03  0.41800000000E+01 0. -1.
         -5    1    3    3    0  502 -0.11704118996E+00  0.68806951074E+02 -0.74236530675E+03  0.74555893884E+03  0.41800000000E+01 0.  1.
        -11    1    4    4    0    0 -0.22455787961E+02 -0.54356000260E+02 -0.24568279115E+03  0.25262397163E+03  0.00000000000E+00 0.  1.
         11    1    4    4    0    0 -0.21153502272E+02  0.21984570878E+02 -0.30003248480E+02  0.42790033120E+02  0.00000000000E+00 0. -1.
</event>
<event>
 8    1  0.8619230E-006  0.1242365E+03  0.7561462E-02  0.1236267E+00
         -2   -1    0    0    0  501 -0.00000000000E+00  0.00000000000E+00  0.33143819786E+02  0.33143819786E+02  0.00000000000E+00 0.  1.
          2   -1    0    0  501    0  0.00000000000E+00 -0.00000000000E+00 -0.56501867356E+03  0.56501867356E+03  0.00000000000E+00 0. -1.
         23    2    1    2    0    0 -0.72040447583E+02 -0.27971156652E+02 -0.22176686727E+03  0.26608354092E+03  0.12509074962E+03 0.  0.
         23    2    1    2    0    0  0.72040447583E+02  0.27971156652E+02 -0.31010798650E+03  0.33207895242E+03  0.90206738411E+02 0.  0.
          5    1    3    3  502    0  0.28136203344E+02  0.20067054077E+02 -0.40152646703E+02  0.53141697707E+02  0.41800000000E+01 0.  1.
         -5    1    3    3    0  502 -0.10017665093E+03 -0.48038210729E+02 -0.18161422057E+03  0.21294184322E+03  0.41800000000E+01 0.  1.
        -11    1    4    4    0    0  0.50414988648E+02 -0.16489549130E+02 -0.75204101607E+02  0.92028436961E+02  0.00000000000E+00 0.  1.
         11    1    4    4    0    0  0.21625458934E+02  0.44460705783E+02 -0.23490388490E+03  0.24005051546E+03  0.00000000000E+00 0. -1.
</event>
<event>
 8    1  0.8619230E-006  0.1486652E+03  0.7561462E-02  0.1202123E+00
          1   -1    0    0  501    0  0.00000000000E+00  0.00000000000E+00  0.25245509818E+03  0.25245509818E+03  0.00000000000E+00 0. -1.
         -1   -1    0    0    0  501 -0.00000000000E+00 -0.00000000000E+00 -0.10839906817E+03  0.10839906817E+03  0.00000000000E+00 0.  1.
         23    2    1    2    0    0  0.10070545588E+02 -0.11864397368E+03  0.41494293166E+02  0.17761565912E+03  0.12509091742E+03 0.  0.
         23    2    1    2    0    0 -0.10070545588E+02  0.11864397368E+03  0.10256173684E+03  0.18323850723E+03  0.94231800844E+02 0.  0.
          5    1    3    3  502    0  0.39285002607E+02 -0.13287706001E+03  0.41994567355E+02  0.14484695577E+03  0.41800000000E+01 0.  1.
         -5    1    3    3    0  502 -0.29214457018E+02  0.14233086334E+02 -0.50027418913E+00  0.32768703358E+02  0.41800000000E+01 0.  1.
        -11    1    4    4    0    0  0.15357027698E+02  0.29740258785E+02 -0.12408022997E+02  0.35697063283E+02  0.00000000000E+00 0.  1.
         11    1    4    4    0    0 -0.25427573287E+02  0.88903714893E+02  0.11496975984E+03  0.14754144395E+03  0.00000000000E+00 0. -1.
</event>
<event>
 8    1  0.8619230E-006  0.1463433E+03  0.7561462E-02  0.1205040E+00
          1   -1    0    0  501    0  0.00000000000E+00  0.00000000000E+00  0.13592717012E+04  0.13592717012E+04  0.00000000000E+00 0. -1.
         -1   -1    0    0    0  501 -0.00000000000E+00 -0.00000000000E+00 -0.22594798516E+02  0.22594798516E+02  0.00000000000E+00 0.  1.
         23    2    1    2    0    0  0.33372455124E+02  0.13306827141E+03  0.71737759733E+03  0.74101398191E+03  0.12510083377E+03 0.  0.
         23    2    1    2    0    0 -0.33372455124E+02 -0.13306827141E+03  0.61929930539E+03  0.64085251785E+03  0.91320503490E+02 0.  0.
          5    1    3    3  502    0 -0.94540266171E+01  0.37774334306E+02  0.48041460228E+03  0.48200823793E+03  0.41800000000E+01 0. -1.
         -5    1    3    3    0  502  0.42826481742E+02  0.95293937106E+02  0.23696299505E+03  0.25900574398E+03  0.41800000000E+01 0. -1.
        -11    1    4    4    0    0 -0.26536543571E+02 -0.14577176712E+02  0.43825749123E+02  0.53267049025E+02  0.00000000000E+00 0.  1.
         11    1    4    4    0    0 -0.68359115540E+01 -0.11849109470E+03  0.57547355627E+03  0.58758546882E+03  0.00000000000E+00 0. -1.
</event>
<event>
 8    1  0.8619230E-006  0.7007087E+02  0.7561462E-02  0.1359852E+00
          1   -1    0    0  501    0  0.00000000000E+00  0.00000000000E+00  0.21715472222E+03  0.21715472222E+03  0.00000000000E+00 0. -1.
         -1   -1    0    0    0  501 -0.00000000000E+00 -0.00000000000E+00 -0.56188228423E+02  0.56188228423E+02  0.00000000000E+00 0.  1.
         23    2    1    2    0    0  0.73251530318E+01  0.31387713132E+02  0.94709568367E+02  0.16017287640E+03  0.12508637652E+03 0.  0.
         23    2    1    2    0    0 -0.73251530318E+01 -0.31387713132E+02  0.66256925426E+02  0.11317007424E+03  0.85899005430E+02 0.  0.
          5    1    3    3  502    0  0.24825556914E+02  0.50825435812E+02  0.11405084486E+03  0.12737582508E+03  0.41800000000E+01 0. -1.
         -5    1    3    3    0  502 -0.17500403882E+02 -0.19437722680E+02 -0.19341276492E+02  0.32797051321E+02  0.41800000000E+01 0. -1.
        -11    1    4    4    0    0  0.57896011169E+01  0.11073489960E+02  0.67564639108E+02  0.68710422200E+02  0.00000000000E+00 0. -1.
         11    1    4    4    0    0 -0.13114754149E+02 -0.42461203093E+02 -0.13077136824E+01  0.44459652040E+02  0.00000000000E+00 0.  1.
</event>
<event>
 8    1  0.8619230E-006  0.2443552E+03  0.7561462E-02  0.1116925E+00
         -1   -1    0    0    0  501 -0.00000000000E+00  0.00000000000E+00  0.13743692528E+03  0.13743692528E+03  0.00000000000E+00 0.  1.
          1   -1    0    0  501    0  0.00000000000E+00 -0.00000000000E+00 -0.65654588808E+03  0.65654588808E+03  0.00000000000E+00 0. -1.
         23    2    1    2    0    0  0.13017407741E+03  0.18712390885E+03 -0.50720183789E+02  0.26491950444E+03  0.12509659907E+03 0.  0.
         23    2    1    2    0    0 -0.13017407741E+03 -0.18712390885E+03 -0.46838877902E+03  0.52906330892E+03  0.92516424751E+02 0.  0.
          5    1    3    3  502    0 -0.12586585102E+02 -0.44997864841E+01 -0.19335044322E+02  0.23874390921E+02  0.41800000000E+01 0. -1.
         -5    1    3    3    0  502  0.14276066251E+03  0.19162369533E+03 -0.31385139467E+02  0.24104511352E+03  0.41800000000E+01 0. -1.
        -11    1    4    4    0    0 -0.55220418332E+02 -0.13072561807E+03 -0.20380952795E+03  0.24834815382E+03  0.00000000000E+00 0.  1.
         11    1    4    4    0    0 -0.74953659077E+02 -0.56398290774E+02 -0.26457925107E+03  0.28071515511E+03  0.00000000000E+00 0. -1.
</event>
<event>
 8    1  0.8619230E-006  0.1059598E+03  0.7561462E-02  0.1268240E+00
          4   -1    0    0  501    0  0.00000000000E+00  0.00000000000E+00  0.82362410373E+03  0.82362410373E+03  0.00000000000E+00 0. -1.
         -4   -1    0    0    0  501 -0.00000000000E+00 -0.00000000000E+00 -0.15573499000E+02  0.15573499000E+02  0.00000000000E+00 0.  1.
         23    2    1    2    0    0  0.82268664000E+01 -0.19180284934E+02  0.31464795850E+03  0.33701821841E+03  0.11892172674E+03 0.  0.
         23    2    1    2    0    0 -0.82268664000E+01  0.19180284934E+02  0.49340264623E+03  0.50217938432E+03  0.91117495952E+02 0.  0.
          5    1    3    3  502    0 -0.33061264498E+01 -0.68321292195E+02  0.15360648473E+03  0.16819974432E+03  0.41800000000E+01 0. -1.
         -5    1    3    3    0  502  0.11532992850E+02  0.49141007261E+02  0.16104147377E+03  0.16881847409E+03  0.41800000000E+01 0.  1.
        -11    1    4    4    0    0 -0.17913731968E+02  0.53846229801E+02  0.33169050698E+03  0.33650989685E+03  0.00000000000E+00 0.  1.
         11    1    4    4    0    0  0.96868655680E+01 -0.34665944867E+02  0.16171213925E+03  0.16566948747E+03  0.00000000000E+00 0. -1.
</event>
<event>
 8    1  0.8619230E-006  0.1260208E+03  0.7561462E-02  0.1233483E+00
         -2   -1    0    0    0  501 -0.00000000000E+00  0.00000000000E+00  0.42698315890E+02  0.42698315890E+02  0.00000000000E+00 0.  1.
          2   -1    0    0  501    0  0.00000000000E+00 -0.00000000000E+00 -0.48142866577E+03  0.48142866577E+03  0.00000000000E+00 0. -1.
         23    2    1    2    0    0 -0.28350385874E+02  0.58082509842E+02 -0.11587725743E+03  0.18234928172E+03  0.12508556841E+03 0.  0.
         23    2    1    2    0    0  0.28350385874E+02 -0.58082509842E+02 -0.32285309245E+03  0.34177769994E+03  0.91654539156E+02 0.  0.
          5    1    3    3  502    0  0.47819071888E+02  0.37494488199E+02 -0.40477509685E+02  0.73132766062E+02  0.41800000000E+01 0.  1.
         -5    1    3    3    0  502 -0.76169457763E+02  0.20588021643E+02 -0.75399747750E+02  0.10921651565E+03  0.41800000000E+01 0.  1.
        -11    1    4    4    0    0 -0.33609459843E+02 -0.16035950700E+02 -0.11114511989E+03  0.11721768289E+03  0.00000000000E+00 0.  1.
         11    1    4    4    0    0  0.61959845718E+02 -0.42046559142E+02 -0.21170797256E+03  0.22456001706E+03  0.00000000000E+00 0. -1.
</event>
<event>
 8    1  0.9678983E-006  0.1699643E+03  0.7561462E-02  0.1177885E+00
          2   -1    0    0  501    0  0.00000000000E+00  0.00000000000E+00  0.10210133262E+04  0.10210133262E+04  0.00000000000E+00 0. -1.
         -2   -1    0    0    0  501 -0.00000000000E+00 -0.00000000000E+00 -0.36599923984E+02  0.36599923984E+02  0.00000000000E+00 0.  1.
         23    2    1    2    0    0 -0.13188231298E+03 -0.79064546790E+02  0.38921807079E+03  0.43678605725E+03  0.12508879301E+03 0.  0.
         23    2    1    2    0    0  0.13188231298E+03  0.79064546790E+02  0.59519533138E+03  0.62082719289E+03  0.86745454662E+02 0.  0.
          5    1    3    3  502    0 -0.85329416403E+02 -0.11474841863E+02  0.82743005910E+02  0.11948497281E+03  0.41800000000E+01 0.  1.
         -5    1    3    3    0  502 -0.46552896578E+02 -0.67589704926E+02  0.30647506488E+03  0.31730108444E+03  0.41800000000E+01 0.  1.
        -11    1    4    4    0    0  0.30761430326E+01  0.35420214188E+02  0.19335872272E+03  0.19660022859E+03  0.00000000000E+00 0. -1.
         11    1    4    4    0    0  0.12880616995E+03  0.43644332601E+02  0.40183660866E+03  0.42422696431E+03  0.00000000000E+00 0.  1.
</event>
<event>
 8    1  0.8619230E-006  0.8468515E+02  0.7561462E-02  0.1316258E+00
         -1   -1    0    0    0  501 -0.00000000000E+00  0.00000000000E+00  0.79549702530E+02  0.79549702530E+02  0.00000000000E+00 0.  1.
          1   -1    0    0  501    0  0.00000000000E+00 -0.00000000000E+00 -0.21830208793E+03  0.21830208793E+03  0.00000000000E+00 0. -1.
         23    2    1    2    0    0 -0.45277446815E+02  0.15304700775E+02 -0.12500755922E+02  0.13449244005E+03  0.12509063305E+03 0.  0.
         23    2    1    2    0    0  0.45277446815E+02 -0.15304700775E+02 -0.12625162948E+03  0.16335935041E+03  0.91991969020E+02 0.  0.
          5    1    3    3  502    0 -0.29320542009E+02  0.35163052698E+02  0.49364397211E+02  0.67457027586E+02  0.41800000000E+01 0. -1.
         -5    1    3    3    0  502 -0.15956904806E+02 -0.19858351923E+02 -0.61865153133E+02  0.67035412465E+02  0.41800000000E+01 0. -1.
        -11    1    4    4    0    0  0.57846092567E+01 -0.46744760044E+02 -0.33629545737E+02  0.57874697773E+02  0.00000000000E+00 0.  1.
         11    1    4    4    0    0  0.39492837558E+02  0.31440059269E+02 -0.92622083741E+02  0.10548465264E+03  0.00000000000E+00 0. -1.
</event>
<event>
 8    1  0.8619230E-006  0.1061548E+03  0.7561462E-02  0.1267861E+00
          1   -1    0    0  501    0  0.00000000000E+00  0.00000000000E+00  0.31881104517E+03  0.31881104517E+03  0.00000000000E+00 0. -1.
         -1   -1    0    0    0  501 -0.00000000000E+00 -0.00000000000E+00 -0.44992857088E+02  0.44992857088E+02  0.00000000000E+00 0.  1.
         23    2    1    2    0    0 -0.30702344618E+02 -0.17335414228E+02  0.98034529041E+02  0.16279244560E+03  0.12508981137E+03 0.  0.
         23    2    1    2    0    0  0.30702344618E+02  0.17335414228E+02  0.17578365904E+03  0.20101145666E+03  0.90898626894E+02 0.  0.
          5    1    3    3  502    0  0.33061389508E+02  0.27449328001E+02  0.84580231894E+01  0.43994677408E+02  0.41800000000E+01 0. -1.
         -5    1    3    3    0  502 -0.63763734126E+02 -0.44784742229E+02  0.89576505852E+02  0.11879776819E+03  0.41800000000E+01 0. -1.
        -11    1    4    4    0    0 -0.14834290362E+02  0.38226267264E+02  0.11586971840E+03  0.12291092434E+03  0.00000000000E+00 0. -1.
         11    1    4    4    0    0  0.45536634980E+02 -0.20890853036E+02  0.59913940641E+02  0.78100532322E+02  0.00000000000E+00 0.  1.
</event>
<event>
 8    1  0.8619230E-006  0.1341303E+03  0.7561462E-02  0.1221453E+00
          1   -1    0    0  501    0  0.00000000000E+00  0.00000000000E+00  0.19414573302E+03  0.19414573302E+03  0.00000000000E+00 0. -1.
         -1   -1    0    0    0  501 -0.00000000000E+00 -0.00000000000E+00 -0.14329026646E+03  0.14329026646E+03  0.00000000000E+00 0.  1.
         23    2    1    2    0    0  0.11200713013E+03 -0.15525391998E+02 -0.39569354583E+02  0.17320608694E+03  0.12509188517E+03 0.  0.
         23    2    1    2    0    0 -0.11200713013E+03  0.15525391998E+02  0.90424821135E+02  0.16422991254E+03  0.77512456408E+02 0.  0.
          5    1    3    3  502    0  0.12251197784E+03 -0.34109530369E+02 -0.62360358579E+02  0.14170014643E+03  0.41800000000E+01 0.  1.
         -5    1    3    3    0  502 -0.10504847713E+02  0.18584138370E+02  0.22791003996E+02  0.31505940513E+02  0.41800000000E+01 0.  1.
        -11    1    4    4    0    0 -0.77021211413E+02  0.28250849385E+02  0.19801066330E+02  0.84394666456E+02  0.00000000000E+00 0.  1.
         11    1    4    4    0    0 -0.34985918714E+02 -0.12725457386E+02  0.70623754805E+02  0.79835246080E+02  0.00000000000E+00 0. -1.
</event>
<event>
 8    1  0.8619230E-006  0.1172297E+03  0.7561462E-02  0.1247738E+00
         -1   -1    0    0    0  501 -0.00000000000E+00  0.00000000000E+00  0.32873778129E+02  0.32873778129E+02  0.00000000000E+00 0.  1.
          1   -1    0    0  501    0  0.00000000000E+00 -0.00000000000E+00 -0.52427450224E+03  0.52427450224E+03  0.00000000000E+00 0. -1.
         23    2    1    2    0    0 -0.37387533979E+02  0.66521724042E+02 -0.24863249072E+03  0.28859835254E+03  0.12509167111E+03 0.  0.
         23    2    1    2    0    0  0.37387533979E+02 -0.66521724042E+02 -0.24276823339E+03  0.26854992783E+03  0.85788583895E+02 0.  0.
          5    1    3    3  502    0 -0.75310695536E+02  0.54409510975E+02 -0.10871897004E+03  0.14307125006E+03  0.41800000000E+01 0.  1.
         -5    1    3    3    0  502  0.37923161557E+02  0.12112213067E+02 -0.13991352068E+03  0.14552710248E+03  0.41800000000E+01 0.  1.
        -11    1    4    4    0    0  0.83424834205E+01 -0.71477192342E+02 -0.21953086139E+03  0.23102464188E+03  0.00000000000E+00 0. -1.
         11    1    4    4    0    0  0.29045050558E+02  0.49554682995E+01 -0.23237372009E+02  0.37525285954E+02  0.00000000000E+00 0.  1.
</event>
<event>
 8    1  0.8619230E-006  0.1406052E+03  0.7561462E-02  0.1212517E+00
          1   -1    0    0  501    0  0.00000000000E+00  0.00000000000E+00  0.24401967512E+02  0.24401967512E+02  0.00000000000E+00 0. -1.
         -1   -1    0    0    0  501 -0.00000000000E+00 -0.00000000000E+00 -0.12913851013E+04  0.12913851013E+04  0.00000000000E+00 0.  1.
         23    2    1    2    0    0  0.99530157698E+02  0.34845279107E+02 -0.10125965255E+04  0.10257286860E+04  0.12508864055E+03 0.  0.
         23    2    1    2    0    0 -0.99530157698E+02 -0.34845279107E+02 -0.25438660829E+03  0.29005838285E+03  0.91109128059E+02 0.  0.
          5    1    3    3  502    0 -0.25785311165E+02  0.20407165970E+02 -0.13029968085E+03  0.13445004248E+03  0.41800000000E+01 0.  1.
         -5    1    3    3    0  502  0.12531546886E+03  0.14438113136E+02 -0.88229684468E+03  0.89127864351E+03  0.41800000000E+01 0.  1.
        -11    1    4    4    0    0  0.56605749637E+01 -0.13327031419E+02 -0.59756341406E+00  0.14491685802E+02  0.00000000000E+00 0. -1.
         11    1    4    4    0    0 -0.10519073266E+03 -0.21518247688E+02 -0.25378904488E+03  0.27556669705E+03  0.00000000000E+00 0.  1.
</event>
<event>
 8    1  0.8619230E-006  0.7866107E+02  0.7561462E-02  0.1332895E+00
          1   -1    0    0  501    0  0.00000000000E+00  0.00000000000E+00  0.68042133967E+03  0.68042133967E+03  0.00000000000E+00 0. -1.
         -1   -1    0    0    0  501 -0.00000000000E+00 -0.00000000000E+00 -0.21173098104E+02  0.21173098104E+02  0.00000000000E+00 0.  1.
         23    2    1    2    0    0 -0.13013825157E+00  0.32179108207E+02  0.25871199993E+03  0.28916284920E+03  0.12509093696E+03 0.  0.
         23    2    1    2    0    0  0.13013825157E+00 -0.32179108207E+02  0.40053624164E+03  0.41243158858E+03  0.92924821477E+02 0.  0.
          5    1    3    3  502    0 -0.24268440732E+02  0.20118825102E+02  0.29371967645E+01  0.31934681208E+02  0.41800000000E+01 0.  1.
         -5    1    3    3    0  502  0.24138302480E+02  0.12060283105E+02  0.25577480316E+03  0.25722816799E+03  0.41800000000E+01 0.  1.
        -11    1    4    4    0    0 -0.27303746872E+02 -0.55731523014E+02  0.24307511767E+03  0.25087249766E+03  0.00000000000E+00 0.  1.
         11    1    4    4    0    0  0.27433885124E+02  0.23552414807E+02  0.15746112397E+03  0.16155909092E+03  0.00000000000E+00 0. -1.
</event>
<event>
 8    1  0.8619230E-006  0.9331242E+02  0.7561462E-02  0.1295023E+00
          1   -1    0    0  501    0  0.00000000000E+00  0.00000000000E+00  0.90375694705E+02  0.90375694705E+02  0.00000000000E+00 0.  1.
         -1   -1    0    0    0  501 -0.00000000000E+00 -0.00000000000E+00 -0.15211605659E+03  0.15211605659E+03  0.00000000000E+00 0. -1.
         23    2    1    2    0    0 -0.37850288296E+02 -0.23194037501E+02 -0.66263117836E+02  0.14836102328E+03  0.12509830033E+03 0.  0.
         23    2    1    2    0    0  0.37850288296E+02  0.23194037501E+02  0.45227559549E+01  0.94130728009E+02  0.82882633491E+02 0.  0.
          5    1    3    3  502    0 -0.71517709453E+02 -0.10317961729E+02 -0.81504243002E+02  0.10900301430E+03  0.41800000000E+01 0. -1.
         -5    1    3    3    0  502  0.33667421157E+02 -0.12876075773E+02  0.15241125165E+02  0.39358008981E+02  0.41800000000E+01 0. -1.
        -11    1    4    4    0    0 -0.75084772074E+01 -0.16216444163E+02 -0.22089559065E+02  0.28413006017E+02  0.00000000000E+00 0. -1.
         11    1    4    4    0    0  0.45358765504E+02  0.39410481665E+02  0.26612315020E+02  0.65717721991E+02  0.00000000000E+00 0.  1.
</event>
<event>
 8    1  0.8619230E-006  0.1173181E+03  0.7561462E-02  0.1247588E+00
         -4   -1    0    0    0  501 -0.00000000000E+00  0.00000000000E+00  0.21059404275E+02  0.21059404275E+02  0.00000000000E+00 0.  1.
          4   -1    0    0  501    0  0.00000000000E+00 -0.00000000000E+00 -0.76935696904E+03  0.76935696904E+03  0.00000000000E+00 0. -1.
         23    2    1    2    0    0 -0.30110740420E+02  0.51331828014E+02 -0.30776159598E+03  0.33750126121E+03  0.12509311774E+03 0.  0.
         23    2    1    2    0    0  0.30110740420E+02 -0.51331828014E+02 -0.44053596879E+03  0.45291511210E+03  0.86709548039E+02 0.  0.
          5    1    3    3  502    0  0.11754510970E+02  0.78438235674E+02 -0.12573622911E+03  0.14872053340E+03  0.41800000000E+01 0. -1.
         -5    1    3    3    0  502 -0.41865251390E+02 -0.27106407660E+02 -0.18202536686E+03  0.18878072781E+03  0.41800000000E+01 0. -1.
        -11    1    4    4    0    0  0.53798847243E+02 -0.61517592338E+01 -0.22474534799E+03  0.23117662414E+03  0.00000000000E+00 0. -1.
         11    1    4    4    0    0 -0.23688106823E+02 -0.45180068780E+02 -0.21579062080E+03  0.22173848797E+03  0.00000000000E+00 0.  1.
</event>
<event>
 8    1  0.8619230E-006  0.1085682E+03  0.7561462E-02  0.1263245E+00
         -2   -1    0    0    0  501 -0.00000000000E+00  0.00000000000E+00  0.29359698762E+03  0.29359698762E+03  0.00000000000E+00 0.  1.
          2   -1    0    0  501    0  0.00000000000E+00 -0.00000000000E+00 -0.52436903231E+02  0.52436903231E+02  0.00000000000E+00 0. -1.
         23    2    1    2    0    0  0.26799725545E+02  0.47559693146E+02  0.17211406153E+03  0.21965895904E+03  0.12508660365E+03 0.  0.
         23    2    1    2    0    0 -0.26799725545E+02 -0.47559693146E+02  0.69046022860E+02  0.12637493180E+03  0.90681422651E+02 0.  0.
          5    1    3    3  502    0 -0.34240661128E+02 -0.59679896630E+01  0.11525508776E+03  0.12045433753E+03  0.41800000000E+01 0. -1.
         -5    1    3    3    0  502  0.61040386673E+02  0.53527682809E+02  0.56858973764E+02  0.99204621513E+02  0.41800000000E+01 0. -1.
        -11    1    4    4    0    0  0.69934285518E+00  0.24084840939E+02  0.34829536072E+02  0.42351685049E+02  0.00000000000E+00 0.  1.
         11    1    4    4    0    0 -0.27499068400E+02 -0.71644534085E+02  0.34216486788E+02  0.84023246755E+02  0.00000000000E+00 0. -1.
</event>
<event>
 8    1  0.8619230E-006  0.1031264E+03  0.7561462E-02  0.1273856E+00
         -1   -1    0    0    0  501 -0.00000000000E+00  0.00000000000E+00  0.16828693857E+03  0.16828693857E+03  0.00000000000E+00 0.  1.
          1   -1    0    0  501    0  0.00000000000E+00 -0.00000000000E+00 -0.17650756367E+03  0.17650756367E+03  0.00000000000E+00 0. -1.
         23    2    1    2    0    0  0.81945496728E+01 -0.60481316781E+02  0.11478647758E+03  0.18041206506E+03  0.12508971765E+03 0.  0.
         23    2    1    2    0    0 -0.81945496728E+01  0.60481316781E+02 -0.12300710268E+03  0.16438243717E+03  0.90364251872E+02 0.  0.
          5    1    3    3  502    0  0.58225983473E+02 -0.38177973336E+02  0.10272277715E+03  0.12416627620E+03  0.41800000000E+01 0. -1.
         -5    1    3    3    0  502 -0.50031433800E+02 -0.22303343445E+02  0.12063700427E+02  0.56245788864E+02  0.41800000000E+01 0. -1.
        -11    1    4    4    0    0 -0.24424961390E+02  0.60596153549E+02 -0.33511210688E+02  0.73426655961E+02  0.00000000000E+00 0.  1.
         11    1    4    4    0    0  0.16230411717E+02 -0.11483676779E+00 -0.89495891991E+02  0.90955781209E+02  0.00000000000E+00 0. -1.
</event>
<event>
 8    1  0.8619230E-006  0.1040010E+03  0.7561462E-02  0.1272101E+00
         -2   -1    0    0    0  501 -0.00000000000E+00  0.00000000000E+00  0.44587206868E+02  0.44587206868E+02  0.00000000000E+00 0.  1.
          2   -1    0    0  501    0  0.00000000000E+00 -0.00000000000E+00 -0.33557843728E+03  0.33557843728E+03  0.00000000000E+00 0. -1.
         23    2    1    2    0    0  0.22081457702E+02 -0.43654445585E+02 -0.12045807151E+03  0.18043808445E+03  0.12511776027E+03 0.  0.
         23    2    1    2    0    0 -0.22081457702E+02  0.43654445585E+02 -0.17053315891E+03  0.19972755970E+03  0.91740058995E+02 0.  0.
          5    1    3    3  502    0  0.55939354704E+02 -0.57380921292E+02 -0.35273868552E+02  0.87655574470E+02  0.41800000000E+01 0.  1.
         -5    1    3    3    0  502 -0.33857897003E+02  0.13726475707E+02 -0.85184202960E+02  0.92782509982E+02  0.41800000000E+01 0.  1.
        -11    1    4    4    0    0 -0.32384615045E+02 -0.11885309452E+02 -0.22250677338E+02  0.41050170698E+02  0.00000000000E+00 0.  1.
         11    1    4    4    0    0  0.10303157343E+02  0.55539755036E+02 -0.14828248157E+03  0.15867738900E+03  0.00000000000E+00 0. -1.
</event>
<event>
 8    1  0.8619230E-006  0.7940267E+02  0.7561462E-02  0.1330755E+00
          2   -1    0    0  501    0  0.00000000000E+00  0.00000000000E+00  0.10012190569E+03  0.10012190569E+03  0.00000000000E+00 0. -1.
         -2   -1    0    0    0  501 -0.00000000000E+00 -0.00000000000E+00 -0.13236129045E+03  0.13236129045E+03  0.00000000000E+00 0.  1.
         23    2    1    2    0    0 -0.36366366923E+02  0.20086521176E+02 -0.21488752612E+02  0.13351997795E+03  0.12505933410E+03 0.  0.
         23    2    1    2    0    0  0.36366366923E+02 -0.20086521176E+02 -0.10750632155E+02  0.98963218190E+02  0.89174892692E+02 0.  0.
          5    1    3    3  502    0 -0.25070250339E+02 -0.14650401084E+02  0.47221163797E+02  0.55591927600E+02  0.41800000000E+01 0.  1.
         -5    1    3    3    0  502 -0.11296116583E+02  0.34736922260E+02 -0.68709916408E+02  0.77928050347E+02  0.41800000000E+01 0.  1.
        -11    1    4    4    0    0 -0.22750279776E+02 -0.24485173614E+02  0.11935907850E+02  0.35490348730E+02  0.00000000000E+00 0. -1.
         11    1    4    4    0    0  0.59116646698E+02  0.43986524377E+01 -0.22686540005E+02  0.63472869460E+02  0.00000000000E+00 0.  1.
</event>
<event>
 8    1  0.8619230E-006  0.2152899E+03  0.7561462E-02  0.1137444E+00
         -1   -1    0    0    0  501 -0.00000000000E+00  0.00000000000E+00  0.18632544373E+03  0.18632544373E+03  0.00000000000E+00 0.  1.
          1   -1    0    0  501    0  0.00000000000E+00 -0.00000000000E+00 -0.28351171971E+03  0.28351171971E+03  0.00000000000E+00 0. -1.
         23    2    1    2    0    0  0.16551593433E+03  0.10366948649E+03  0.39986573380E+01  0.23196191010E+03  0.12508977388E+03 0.  0.
         23    2    1    2    0    0 -0.16551593433E+03 -0.10366948649E+03 -0.10118493332E+03  0.23787525334E+03  0.90572393561E+02 0.  0.
          5    1    3    3  502    0  0.65921802654E+02  0.11215981369E+03 -0.11720323056E+02  0.13069179869E+03  0.41800000000E+01 0. -1.
         -5    1    3    3    0  502  0.99594131677E+02 -0.84903272009E+01  0.15718980394E+02  0.10127011141E+03  0.41800000000E+01 0. -1.
        -11    1    4    4    0    0 -0.10858330189E+03 -0.41953304829E+02 -0.10068429651E+03  0.15390822200E+03  0.00000000000E+00 0. -1.
         11    1    4    4    0    0 -0.56932632444E+02 -0.61716181659E+02 -0.50063680954E+00  0.83967031345E+02  0.00000000000E+00 0.  1.
</event>
<event>
 8    1  0.8619230E-006  0.1072050E+03  0.7561462E-02  0.1265835E+00
         -3   -1    0    0    0  501 -0.00000000000E+00  0.00000000000E+00  0.27917662991E+02  0.27917662991E+02  0.00000000000E+00 0.  1.
          3   -1    0    0  501    0  0.00000000000E+00 -0.00000000000E+00 -0.52197425767E+03  0.52197425767E+03  0.00000000000E+00 0. -1.
         23    2    1    2    0    0  0.36929250623E+02  0.43572550383E+02 -0.26794992326E+03  0.30117599506E+03  0.12508989537E+03 0.  0.
         23    2    1    2    0    0 -0.36929250623E+02 -0.43572550383E+02 -0.22610667142E+03  0.24871592561E+03  0.86446793413E+02 0.  0.
          5    1    3    3  502    0  0.69409118736E+02  0.36914660015E+02 -0.87689371744E+02  0.11784403339E+03  0.41800000000E+01 0.  1.
         -5    1    3    3    0  502 -0.32479868113E+02  0.66578903679E+01 -0.18026055152E+03  0.18333196167E+03  0.41800000000E+01 0.  1.
        -11    1    4    4    0    0  0.14698545055E+02 -0.48238438645E+02 -0.13150815862E+03  0.14084526961E+03  0.00000000000E+00 0. -1.
         11    1    4    4    0    0 -0.51627795678E+02  0.46658882621E+01 -0.94598512802E+02  0.10787065599E+03  0.00000000000E+00 0.  1.
</event>
<event>
 8    1  0.8619230E-006  0.2351537E+03  0.7561462E-02  0.1123064E+00
          2   -1    0    0  501    0  0.00000000000E+00  0.00000000000E+00  0.21196494541E+04  0.21196494541E+04  0.00000000000E+00 0.  1.
         -2   -1    0    0    0  501 -0.00000000000E+00 -0.00000000000E+00 -0.28275507533E+02  0.28275507533E+02  0.00000000000E+00 0. -1.
         23    2    1    2    0    0 -0.16000623637E+03 -0.14692420281E+03  0.11845743975E+04  0.12108066010E+04  0.12508958729E+03 0.  0.
         23    2    1    2    0    0  0.16000623637E+03  0.14692420281E+03  0.90679954913E+03  0.93711836066E+03  0.93363175467E+02 0.  0.
          5    1    3    3  502    0 -0.79463835085E+00 -0.55653874652E+02  0.14947280822E+03  0.15955431054E+03  0.41800000000E+01 0.  1.
         -5    1    3    3    0  502 -0.15921159802E+03 -0.91270328157E+02  0.10351015892E+04  0.10512522905E+04  0.41800000000E+01 0.  1.
        -11    1    4    4    0    0  0.10067317668E+02  0.53112315358E+02  0.13740620366E+03  0.14765748789E+03  0.00000000000E+00 0. -1.
         11    1    4    4    0    0  0.14993891871E+03  0.93811887452E+02  0.76939334547E+03  0.78946087277E+03  0.00000000000E+00 0.  1.
</event>
<event>
 7    1  0.8619230E-006  0.1190296E+03  0.7561462E-02  0.1244707E+00
          1   -1    0    0  501    0  0.00000000000E+00  0.00000000000E+00  0.89666216531E+03  0.89666216531E+03  0.00000000000E+00 0. -1.
         -1   -1    0    0    0  501 -0.00000000000E+00 -0.00000000000E+00 -0.17065912695E+02  0.17065912695E+02  0.00000000000E+00 0.  1.
         23    2    1    2    0    0 -0.30692785477E+02 -0.30475227857E+02  0.35578934341E+03  0.36868155368E+03  0.86424791236E+02 0.  0.
          5    1    1    2  502    0  0.95742589880E+01 -0.56532132134E+02  0.14988320128E+03  0.16053035484E+03  0.41800000000E+01 0. -1.
         -5    1    1    2    0  502  0.21118526489E+02  0.87007359991E+02  0.37392370792E+03  0.38451616949E+03  0.41800000000E+01 0.  1.
        -11    1    3    3    0    0 -0.23680752036E+00 -0.53036189714E+02  0.26573760784E+03  0.27097854107E+03  0.00000000000E+00 0. -1.
         11    1    3    3    0    0 -0.30455977957E+02  0.22560961857E+02  0.90051735574E+02  0.97703012610E+02  0.00000000000E+00 0.  1.
</event>
<event>
 8    1  0.8619230E-006  0.1334473E+03  0.7561462E-02  0.1222428E+00
          1   -1    0    0  501    0  0.00000000000E+00  0.00000000000E+00  0.33065992533E+03  0.33065992533E+03  0.00000000000E+00 0. -1.
         -1   -1    0    0    0  501 -0.00000000000E+00 -0.00000000000E+00 -0.66343209132E+02  0.66343209132E+02  0.00000000000E+00 0.  1.
         23    2    1    2    0    0  0.91296148893E+02  0.33062440231E+02  0.12539161192E+03  0.20198009408E+03  0.12507913618E+03 0.  0.
         23    2    1    2    0    0 -0.91296148893E+02 -0.33062440231E+02  0.13892510428E+03  0.19502304039E+03  0.96466003992E+02 0.  0.
          5    1    3    3  502    0  0.10856273505E+03  0.23826297480E+02  0.13881193770E+03  0.17787576097E+03  0.41800000000E+01 0.  1.
         -5    1    3    3    0  502 -0.17266586153E+02  0.92361427506E+01 -0.13420325783E+02  0.24104333104E+02  0.41800000000E+01 0.  1.
        -11    1    4    4    0    0 -0.52553673466E+02  0.30827408543E+02  0.75475718876E+02  0.96998978614E+02  0.00000000000E+00 0. -1.
         11    1    4    4    0    0 -0.38742475427E+02 -0.63889848774E+02  0.63449385404E+02  0.98024061774E+02  0.00000000000E+00 0.  1.
</event>
<event>
 8    1  0.8619230E-006  0.2296455E+03  0.7561462E-02  0.1126889E+00
         -1   -1    0    0    0  501 -0.00000000000E+00  0.00000000000E+00  0.15322898579E+03  0.15322898579E+03  0.00000000000E+00 0.  1.
          1   -1    0    0  501    0  0.00000000000E+00 -0.00000000000E+00 -0.37130303985E+03  0.37130303985E+03  0.00000000000E+00 0. -1.
         23    2    1    2    0    0  0.11075206429E+03 -0.18124812482E+03 -0.10473833474E+03  0.26783438728E+03  0.12509291647E+03 0.  0.
         23    2    1    2    0    0 -0.11075206429E+03  0.18124812482E+03 -0.11333571932E+03  0.25669763837E+03  0.89060596081E+02 0.  0.
          5    1    3    3  502    0  0.12204170991E+03 -0.85781598092E+02 -0.75649463860E+02  0.16731101372E+03  0.41800000000E+01 0. -1.
         -5    1    3    3    0  502 -0.11289645616E+02 -0.95466526727E+02 -0.29088870882E+02  0.10052337356E+03  0.41800000000E+01 0. -1.
        -11    1    4    4    0    0 -0.81727464187E+02  0.11111170047E+03 -0.24912630241E+02  0.14016357419E+03  0.00000000000E+00 0.  1.
         11    1    4    4    0    0 -0.29024600106E+02  0.70136424346E+02 -0.88423089079E+02  0.11653406418E+03  0.00000000000E+00 0. -1.
</event>
<event>
 8    1  0.8619230E-006  0.3128382E+03  0.7561462E-02  0.1078993E+00
         -2   -1    0    0    0  501 -0.00000000000E+00  0.00000000000E+00  0.90658178591E+02  0.90658178591E+02  0.00000000000E+00 0.  1.
          2   -1    0    0  501    0  0.00000000000E+00 -0.00000000000E+00 -0.12072290903E+04  0.12072290903E+04  0.00000000000E+00 0. -1.
         23    2    1    2    0    0 -0.29117966480E+03 -0.96618307345E+02 -0.45846537654E+03  0.56564729702E+03  0.12508264719E+03 0.  0.
         23    2    1    2    0    0  0.29117966480E+03  0.96618307345E+02 -0.65810553516E+03  0.73223997187E+03  0.94613881014E+02 0.  0.
          5    1    3    3  502    0 -0.24166568972E+03 -0.11198825523E+03 -0.31216220200E+03  0.41037347338E+03  0.41800000000E+01 0.  1.
         -5    1    3    3    0  502 -0.49513975082E+02  0.15369947883E+02 -0.14630317454E+03  0.15527382363E+03  0.41800000000E+01 0.  1.
        -11    1    4    4    0    0  0.88542575653E+02  0.21062632114E+02 -0.10851256578E+03  0.14162767776E+03  0.00000000000E+00 0.  1.
         11    1    4    4    0    0  0.20263708915E+03  0.75555675231E+02 -0.54959296939E+03  0.59061229411E+03  0.00000000000E+00 0. -1.
</event>
<event>
 8    1  0.8619230E-006  0.1682660E+03  0.7561462E-02  0.1179668E+00
         -1   -1    0    0    0  501 -0.00000000000E+00  0.00000000000E+00  0.61245873892E+02  0.61245873892E+02  0.00000000000E+00 0.  1.
          1   -1    0    0  501    0  0.00000000000E+00 -0.00000000000E+00 -0.55666932004E+03  0.55666932004E+03  0.00000000000E+00 0. -1.
         23    2    1    2    0    0 -0.81026040460E+01  0.14876174938E+03 -0.26386021607E+03  0.32781850281E+03  0.12508815648E+03 0.  0.
         23    2    1    2    0    0  0.81026040460E+01 -0.14876174938E+03 -0.23156323008E+03  0.29009669112E+03  0.91317306163E+02 0.  0.
          5    1    3    3  502    0  0.34796271038E+02  0.11035925970E+03 -0.96331784313E+02  0.15062281284E+03  0.41800000000E+01 0.  1.
         -5    1    3    3    0  502 -0.42898875084E+02  0.38402489677E+02 -0.16752843176E+03  0.17719568997E+03  0.41800000000E+01 0.  1.
        -11    1    4    4    0    0  0.37149488397E+02 -0.73849386945E+02 -0.64977512904E+02  0.10514700958E+03  0.00000000000E+00 0.  1.
         11    1    4    4    0    0 -0.29046884351E+02 -0.74912362430E+02 -0.16658571717E+03  0.18494968154E+03  0.00000000000E+00 0. -1.
</event>
<event>
 8    1  0.8619230E-006  0.1713974E+03  0.7561462E-02  0.1176398E+00
          1   -1    0    0  501    0  0.00000000000E+00  0.00000000000E+00  0.11898165851E+04  0.11898165851E+04  0.00000000000E+00 0. -1.
         -1   -1    0    0    0  501 -0.00000000000E+00 -0.00000000000E+00 -0.27233598083E+02  0.27233598083E+02  0.00000000000E+00 0.  1.
         23    2    1    2    0    0 -0.13411678712E+03 -0.47888036494E+02  0.58885317871E+03  0.61860808202E+03  0.12508923393E+03 0.  0.
         23    2    1    2    0    0  0.13411678712E+03  0.47888036494E+02  0.57372980832E+03  0.59844210118E+03  0.93201281501E+02 0.  0.
          5    1    3    3  502    0 -0.36694379431E+02 -0.78635627117E+02  0.24996863844E+03  0.26463528098E+03  0.41800000000E+01 0.  1.
         -5    1    3    3    0  502 -0.97422407685E+02  0.30747590623E+02  0.33888454027E+03  0.35397280105E+03  0.41800000000E+01 0.  1.
        -11    1    4    4    0    0  0.66040331393E+02  0.54022283148E+02  0.18471957504E+03  0.20347248917E+03  0.00000000000E+00 0.  1.
         11    1    4    4    0    0  0.68076455724E+02 -0.61342466542E+01  0.38901023328E+03  0.39496961200E+03  0.00000000000E+00 0. -1.
</event>
<event>
 7    1  0.8619230E-006  0.1479851E+03  0.7561462E-02  0.1202971E+00
         -2   -1    0    0    0  501 -0.00000000000E+00  0.00000000000E+00  0.15894288568E+04  0.15894288568E+04  0.00000000000E+00 0.  1.
          2   -1    0    0  501    0  0.00000000000E+00 -0.00000000000E+00 -0.21674851781E+02  0.21674851781E+02  0.00000000000E+00 0. -1.
         23    2    1    2    0    0 -0.32923472717E+02  0.39942630146E+02  0.31672687643E+03  0.33327148146E+03  0.89858763288E+02 0.  0.
          5    1    1    2  502    0  0.10767760964E+03 -0.48963826399E+02  0.28142943814E+03  0.30530628058E+03  0.41800000000E+01 0. -1.
         -5    1    1    2    0  502 -0.74754136921E+02  0.90211962532E+01  0.96959769049E+03  0.97252594658E+03  0.41800000000E+01 0.  1.
        -11    1    3    3    0    0 -0.43273116923E+02 -0.15371762417E+02  0.11464112206E+03  0.12349672301E+03  0.00000000000E+00 0.  1.
         11    1    3    3    0    0  0.10349644206E+02  0.55314392562E+02  0.20208575438E+03  0.20977475845E+03  0.00000000000E+00 0. -1.
</event>
<event>
 8    1  0.8619230E-006  0.1619631E+03  0.7561462E-02  0.1186498E+00
          1   -1    0    0  501    0  0.00000000000E+00  0.00000000000E+00  0.63754758979E+03  0.63754758979E+03  0.00000000000E+00 0. -1.
         -1   -1    0    0    0  501 -0.00000000000E+00 -0.00000000000E+00 -0.50898189657E+02  0.50898189657E+02  0.00000000000E+00 0.  1.
         23    2    1    2    0    0 -0.10612039590E+03 -0.93575152613E+02  0.27047773312E+03  0.32988322524E+03  0.12508753165E+03 0.  0.
         23    2    1    2    0    0  0.10612039590E+03  0.93575152613E+02  0.31617166702E+03  0.35856255420E+03  0.92653843093E+02 0.  0.
          5    1    3    3  502    0 -0.11230337440E+03 -0.11150833410E+03  0.26661883203E+03  0.31007939382E+03  0.41800000000E+01 0. -1.
         -5    1    3    3    0  502  0.61829784991E+01  0.17933181491E+02  0.38589010809E+01  0.19803831424E+02  0.41800000000E+01 0. -1.
        -11    1    4    4    0    0  0.28324265436E+02  0.48804228752E+02  0.21953610130E+03  0.22667204620E+03  0.00000000000E+00 0. -1.
         11    1    4    4    0    0  0.77796130465E+02  0.44770923862E+02  0.96635565715E+02  0.13189050800E+03  0.00000000000E+00 0.  1.
</event>
<event>
 8    1  0.8619230E-006  0.8769547E+02  0.7561462E-02  0.1308530E+00
          2   -1    0    0  501    0  0.00000000000E+00  0.00000000000E+00  0.12328387849E+04  0.12328387849E+04  0.00000000000E+00 0. -1.
         -2   -1    0    0    0  501 -0.00000000000E+00 -0.00000000000E+00 -0.99895223930E+01  0.99895223930E+01  0.00000000000E+00 0.  1.
         23    2    1    2    0    0  0.14335219006E+02  0.19375664401E+02  0.69996175983E+03  0.71145971034E+03  0.12509012482E+03 0.  0.
         23    2    1    2    0    0 -0.14335219006E+02 -0.19375664401E+02  0.52288750268E+03  0.53136859697E+03  0.91434842945E+02 0.  0.
          5    1    3    3  502    0 -0.29553314722E+02 -0.59034052576E+01  0.43787622080E+02  0.53320510614E+02  0.41800000000E+01 0.  1.
         -5    1    3    3    0  502  0.43888533728E+02  0.25279069659E+02  0.65617413775E+03  0.65813919972E+03  0.41800000000E+01 0.  1.
        -11    1    4    4    0    0 -0.16746277857E+02 -0.55484034546E+02  0.34551033472E+03  0.35033741922E+03  0.00000000000E+00 0.  1.
         11    1    4    4    0    0  0.24110588513E+01  0.36108370145E+02  0.17737716797E+03  0.18103117774E+03  0.00000000000E+00 0. -1.
</event>
<event>
 8    1  0.8619230E-006  0.1525657E+03  0.7561462E-02  0.1197355E+00
          1   -1    0    0  501    0  0.00000000000E+00  0.00000000000E+00  0.24952613299E+02  0.24952613299E+02  0.00000000000E+00 0. -1.
         -1   -1    0    0    0  501 -0.00000000000E+00 -0.00000000000E+00 -0.94876756709E+03  0.94876756709E+03  0.00000000000E+00 0.  1.
         23    2    1    2    0    0  0.45291909457E+02 -0.97176193043E+02 -0.51230486431E+03  0.53814141535E+03  0.12508133099E+03 0.  0.
         23    2    1    2    0    0 -0.45291909457E+02  0.97176193043E+02 -0.41151008948E+03  0.43557876504E+03  0.94306612974E+02 0.  0.
          5    1    3    3  502    0 -0.37983271014E+02 -0.33523155076E+01 -0.97998120931E+02  0.10523816324E+03  0.41800000000E+01 0. -1.
         -5    1    3    3    0  502  0.83275180472E+02 -0.93823877536E+02 -0.41430674338E+03  0.43290325211E+03  0.41800000000E+01 0. -1.
        -11    1    4    4    0    0 -0.40656451996E+02 -0.31880184706E+01 -0.14960129779E+03  0.15506017816E+03  0.00000000000E+00 0.  1.
         11    1    4    4    0    0 -0.46354574611E+01  0.10036421151E+03 -0.26190879168E+03  0.28051858687E+03  0.00000000000E+00 0. -1.
</event>
<event>
 8    1  0.8619230E-006  0.1007316E+03  0.7561462E-02  0.1278765E+00
          1   -1    0    0  501    0  0.00000000000E+00  0.00000000000E+00  0.33444998307E+03  0.33444998307E+03  0.00000000000E+00 0. -1.
         -1   -1    0    0    0  501 -0.00000000000E+00 -0.00000000000E+00 -0.39262082332E+02  0.39262082332E+02  0.00000000000E+00 0.  1.
         23    2    1    2    0    0 -0.40191090738E+01  0.26087340675E+01  0.10167014566E+03  0.16126776985E+03  0.12509003295E+03 0.  0.
         23    2    1    2    0    0  0.40191090738E+01 -0.26087340675E+01  0.19351775508E+03  0.21244429555E+03  0.87524273486E+02 0.  0.
          5    1    3    3  502    0  0.25769789875E+02  0.56735294509E+02  0.41921593256E+02  0.75218801469E+02  0.41800000000E+01 0.  1.
         -5    1    3    3    0  502 -0.29788898949E+02 -0.54126560441E+02  0.59748552400E+02  0.86048968382E+02  0.41800000000E+01 0.  1.
        -11    1    4    4    0    0 -0.32152391291E+02 -0.19029577913E+02  0.14501323232E+03  0.14974891869E+03  0.00000000000E+00 0. -1.
         11    1    4    4    0    0  0.36171500365E+02  0.16420843845E+02  0.48504522759E+02  0.62695376858E+02  0.00000000000E+00 0.  1.
</event>
<event>
 8    1  0.8619230E-006  0.1076716E+03  0.7561462E-02  0.1264943E+00
          2   -1    0    0  501    0  0.00000000000E+00  0.00000000000E+00  0.95669348705E+03  0.95669348705E+03  0.00000000000E+00 0.  1.
         -2   -1    0    0    0  501 -0.00000000000E+00 -0.00000000000E+00 -0.17389811770E+02  0.17389811770E+02  0.00000000000E+00 0. -1.
         23    2    1    2    0    0  0.44113207649E+02  0.54015559110E+02  0.50706963402E+03  0.52690633743E+03  0.12508804483E+03 0.  0.
         23    2    1    2    0    0 -0.44113207649E+02 -0.54015559110E+02  0.43223404126E+03  0.44717696139E+03  0.90979737650E+02 0.  0.
          5    1    3    3  502    0  0.52761893081E+02 -0.20987433412E+02  0.12402674231E+03  0.13647122382E+03  0.41800000000E+01 0. -1.
         -5    1    3    3    0  502 -0.86486854326E+01  0.75002992522E+02  0.38304289171E+03  0.39043511361E+03  0.41800000000E+01 0. -1.
        -11    1    4    4    0    0 -0.53387870765E+02 -0.47463334584E+02  0.42962760293E+03  0.43552601538E+03  0.00000000000E+00 0.  1.
         11    1    4    4    0    0  0.92746631162E+01 -0.65522245262E+01  0.26064383262E+01  0.11650946009E+02  0.00000000000E+00 0. -1.
</event>
<event>
 8    1  0.8619230E-006  0.3265297E+03  0.7561462E-02  0.1072683E+00
         -2   -1    0    0    0  501 -0.00000000000E+00  0.00000000000E+00  0.14829421216E+03  0.14829421216E+03  0.00000000000E+00 0.  1.
          2   -1    0    0  501    0  0.00000000000E+00 -0.00000000000E+00 -0.77171149695E+03  0.77171149695E+03  0.00000000000E+00 0. -1.
         23    2    1    2    0    0 -0.39155929609E+02  0.31427381000E+03 -0.38685886107E+03  0.51537539397E+03  0.12510317281E+03 0.  0.
         23    2    1    2    0    0  0.39155929609E+02 -0.31427381000E+03 -0.23655842371E+03  0.40463031514E+03  0.86397856587E+02 0.  0.
          5    1    3    3  502    0  0.28730045803E+02  0.84176149865E+02 -0.17023484919E+03  0.19211563189E+03  0.41800000000E+01 0.  1.
         -5    1    3    3    0  502 -0.67885975412E+02  0.23009766014E+03 -0.21662401188E+03  0.32325976209E+03  0.41800000000E+01 0.  1.
        -11    1    4    4    0    0  0.47571220748E+02 -0.11270272542E+03 -0.12132946774E+03  0.17229557482E+03  0.00000000000E+00 0. -1.
         11    1    4    4    0    0 -0.84152911390E+01 -0.20157108458E+03 -0.11522895598E+03  0.23233474032E+03  0.00000000000E+00 0.  1.
</event>
<event>
 8    1  0.8619230E-006  0.9311123E+02  0.7561462E-02  0.1295488E+00
         -2   -1    0    0    0  501 -0.00000000000E+00  0.00000000000E+00  0.10645826359E+03  0.10645826359E+03  0.00000000000E+00 0. -1.
          2   -1    0    0  501    0  0.00000000000E+00 -0.00000000000E+00 -0.14557729577E+03  0.14557729577E+03  0.00000000000E+00 0.  1.
         23    2    1    2    0    0  0.31480633785E+02  0.41556708487E+02  0.11483254429E+02  0.13600968917E+03  0.12509508420E+03 0.  0.
         23    2    1    2    0    0 -0.31480633785E+02 -0.41556708487E+02 -0.50602286608E+02  0.11602587019E+03  0.90462261856E+02 0.  0.
          5    1    3    3  502    0  0.47522288793E+02  0.19443883120E+01  0.56382046473E+02  0.73882042085E+02  0.41800000000E+01 0. -1.
         -5    1    3    3    0  502 -0.16041655008E+02  0.39612320175E+02 -0.44898792045E+02  0.62127647083E+02  0.41800000000E+01 0. -1.
        -11    1    4    4    0    0 -0.90497096447E+01 -0.63508945635E+02 -0.10344041189E+02  0.64979093626E+02  0.00000000000E+00 0. -1.
         11    1    4    4    0    0 -0.22430924141E+02  0.21952237148E+02 -0.40258245419E+02  0.51046776567E+02  0.00000000000E+00 0.  1.
</event>
<event>
 8    1  0.8619230E-006  0.1057966E+03  0.7561462E-02  0.1268558E+00
         -3   -1    0    0    0  501 -0.00000000000E+00  0.00000000000E+00  0.32309380436E+02  0.32309380436E+02  0.00000000000E+00 0.  1.
          3   -1    0    0  501    0  0.00000000000E+00 -0.00000000000E+00 -0.42866429664E+03  0.42866429664E+03  0.00000000000E+00 0. -1.
         23    2    1    2    0    0 -0.22307865819E+02  0.28195981208E+02 -0.17183561971E+03  0.21556152984E+03  0.12508652491E+03 0.  0.
         23    2    1    2    0    0  0.22307865819E+02 -0.28195981208E+02 -0.22451929649E+03  0.24541214723E+03  0.92333922677E+02 0.  0.
          5    1    3    3  502    0  0.18698504485E+02 -0.33508287925E+02 -0.11725523066E+03  0.12344513335E+03  0.41800000000E+01 0. -1.
         -5    1    3    3    0  502 -0.41006370303E+02  0.61704269133E+02 -0.54580389043E+02  0.92116396493E+02  0.41800000000E+01 0. -1.
        -11    1    4    4    0    0 -0.30506780745E+02 -0.33971833413E+02 -0.94334673209E+02  0.10480352907E+03  0.00000000000E+00 0.  1.
         11    1    4    4    0    0  0.52814646564E+02  0.57758522047E+01 -0.13018462328E+03  0.14060861816E+03  0.00000000000E+00 0. -1.
</event>
<event>
 8    1  0.8619230E-006  0.1161705E+03  0.7561462E-02  0.1249552E+00
         -1   -1    0    0    0  501 -0.00000000000E+00  0.00000000000E+00  0.36529866209E+02  0.36529866209E+02  0.00000000000E+00 0.  1.
          1   -1    0    0  501    0  0.00000000000E+00 -0.00000000000E+00 -0.55247735686E+03  0.55247735686E+03  0.00000000000E+00 0. -1.
         23    2    1    2    0    0  0.30205159025E+02  0.79487063230E+02 -0.20976391530E+03  0.25862091832E+03  0.12511328617E+03 0.  0.
         23    2    1    2    0    0 -0.30205159025E+02 -0.79487063230E+02 -0.30618357535E+03  0.33038630475E+03  0.90422252246E+02 0.  0.
          5    1    3    3  502    0  0.70513059520E+02  0.40943821476E+02 -0.68103889780E+02  0.10632074249E+03  0.41800000000E+01 0. -1.
         -5    1    3    3    0  502 -0.40307900494E+02  0.38543241754E+02 -0.14166002552E+03  0.15230017583E+03  0.41800000000E+01 0. -1.
        -11    1    4    4    0    0  0.97380480440E+00 -0.55299828574E+02 -0.27382439501E+03  0.27935428874E+03  0.00000000000E+00 0. -1.
         11    1    4    4    0    0 -0.31178963830E+02 -0.24187234657E+02 -0.32359180341E+02  0.51032016011E+02  0.00000000000E+00 0.  1.
</event>
<event>
 8    1  0.8619230E-006  0.2872448E+03  0.7561462E-02  0.1091797E+00
          2   -1    0    0  501    0  0.00000000000E+00  0.00000000000E+00  0.18622620236E+04  0.18622620236E+04  0.00000000000E+00 0. -1.
         -2   -1    0    0    0  501 -0.00000000000E+00 -0.00000000000E+00 -0.47881560694E+02  0.47881560694E+02  0.00000000000E+00 0.  1.
         23    2    1    2    0    0 -0.27571732898E+03  0.37161324455E+02  0.90374818263E+03  0.95383951673E+03  0.12509211219E+03 0.  0.
         23    2    1    2    0    0  0.27571732898E+03 -0.37161324455E+02  0.91063228026E+03  0.95630406755E+03  0.88686584246E+02 0.  0.
          5    1    3    3  502    0 -0.23921031949E+03  0.52428978306E+01  0.84124884442E+03  0.87462343643E+03  0.41800000000E+01 0.  1.
         -5    1    3    3    0  502 -0.36507009493E+02  0.31918426624E+02  0.62499338213E+02  0.79216080295E+02  0.41800000000E+01 0.  1.
        -11    1    4    4    0    0  0.18583877170E+03 -0.57170429285E+02  0.52547687700E+03  0.56029497170E+03  0.00000000000E+00 0.  1.
         11    1    4    4    0    0  0.89878557283E+02  0.20009104831E+02  0.38515540326E+03  0.39600909585E+03  0.00000000000E+00 0. -1.
</event>
<event>
 8    1  0.8619230E-006  0.1085898E+03  0.7561462E-02  0.1263204E+00
          1   -1    0    0  501    0  0.00000000000E+00  0.00000000000E+00  0.17793853227E+03  0.17793853227E+03  0.00000000000E+00 0. -1.
         -1   -1    0    0    0  501 -0.00000000000E+00 -0.00000000000E+00 -0.10627246008E+03  0.10627246008E+03  0.00000000000E+00 0.  1.
         23    2    1    2    0    0  0.91355621341E+01  0.73482587457E+02 -0.21821490829E+02  0.14699360948E+03  0.12509114522E+03 0.  0.
         23    2    1    2    0    0 -0.91355621341E+01 -0.73482587457E+02  0.93487563025E+02  0.13721738287E+03  0.67864103659E+02 0.  0.
          5    1    3    3  502    0 -0.42222598461E+02  0.74406975750E+02 -0.36947988208E+02  0.93283289467E+02  0.41800000000E+01 0. -1.
         -5    1    3    3    0  502  0.51358160595E+02 -0.92438829328E+00  0.15126497379E+02  0.53710320018E+02  0.41800000000E+01 0. -1.
        -11    1    4    4    0    0  0.97239478687E+01 -0.43460517296E+02  0.87839560469E+01  0.45393056844E+02  0.00000000000E+00 0.  1.
         11    1    4    4    0    0 -0.18859510003E+02 -0.30022070161E+02  0.84703606979E+02  0.91824326022E+02  0.00000000000E+00 0. -1.
</event>
<event>
 8    1  0.8619230E-006  0.1275723E+03  0.7561462E-02  0.1231103E+00
         -1   -1    0    0    0  501 -0.00000000000E+00  0.00000000000E+00  0.16542308854E+02  0.16542308854E+02  0.00000000000E+00 0.  1.
          1   -1    0    0  501    0  0.00000000000E+00 -0.00000000000E+00 -0.12369972160E+04  0.12369972160E+04  0.00000000000E+00 0. -1.
         23    2    1    2    0    0 -0.79995334610E+01 -0.90309526159E+02 -0.57097330463E+03  0.59150698185E+03  0.12510072708E+03 0.  0.
         23    2    1    2    0    0  0.79995334610E+01  0.90309526159E+02 -0.64948160251E+03  0.66203254300E+03  0.90779584430E+02 0.  0.
          5    1    3    3  502    0 -0.48011456146E+02 -0.41253323440E+02 -0.11672767813E+03  0.13285239877E+03  0.41800000000E+01 0. -1.
         -5    1    3    3    0  502  0.40011922685E+02 -0.49056202718E+02 -0.45424562650E+03  0.45865458308E+03  0.41800000000E+01 0. -1.
        -11    1    4    4    0    0 -0.23068972297E+02  0.94171870816E+02 -0.48417264976E+03  0.49378504788E+03  0.00000000000E+00 0.  1.
         11    1    4    4    0    0  0.31068505758E+02 -0.38623446569E+01 -0.16530895275E+03  0.16824749512E+03  0.00000000000E+00 0. -1.
</event>
<event>
 8    1  0.8619230E-006  0.1697897E+03  0.7561462E-02  0.1178067E+00
          2   -1    0    0  501    0  0.00000000000E+00  0.00000000000E+00  0.12637328371E+04  0.12637328371E+04  0.00000000000E+00 0. -1.
         -2   -1    0    0    0  501 -0.00000000000E+00 -0.00000000000E+00 -0.26509504221E+02  0.26509504221E+02  0.00000000000E+00 0.  1.
         23    2    1    2    0    0  0.11808363561E+03 -0.86397638644E+02  0.63808140600E+03  0.66648610386E+03  0.12509016347E+03 0.  0.
         23    2    1    2    0    0 -0.11808363561E+03  0.86397638644E+02  0.59914192691E+03  0.62375623749E+03  0.93233568333E+02 0.  0.
          5    1    3    3  502    0 -0.11164727657E+02 -0.29155362934E+02  0.35178977648E+02  0.47219902581E+02  0.41800000000E+01 0. -1.
         -5    1    3    3    0  502  0.12924836327E+03 -0.57242275710E+02  0.60290242835E+03  0.61926620128E+03  0.41800000000E+01 0. -1.
        -11    1    4    4    0    0 -0.95794405695E+02  0.21684699470E+02  0.43433994136E+03  0.44530661236E+03  0.00000000000E+00 0. -1.
         11    1    4    4    0    0 -0.22289229916E+02  0.64712939174E+02  0.16480198555E+03  0.17844962513E+03  0.00000000000E+00 0.  1.
</event>
<event>
 8    1  0.8619230E-006  0.3585587E+03  0.7561462E-02  0.1059156E+00
          1   -1    0    0  501    0  0.00000000000E+00  0.00000000000E+00  0.12674592571E+03  0.12674592571E+03  0.00000000000E+00 0. -1.
         -1   -1    0    0    0  501 -0.00000000000E+00 -0.00000000000E+00 -0.10347058621E+04  0.10347058621E+04  0.00000000000E+00 0.  1.
         23    2    1    2    0    0 -0.34491399470E+03  0.11012626551E+02 -0.44253086018E+03  0.57495036173E+03  0.12508962612E+03 0.  0.
         23    2    1    2    0    0  0.34491399470E+03 -0.11012626551E+02 -0.46542907621E+03  0.58650142609E+03  0.90954692795E+02 0.  0.
          5    1    3    3  502    0 -0.10135969034E+03  0.51515600313E+02 -0.92769628590E+02  0.14680367942E+03  0.41800000000E+01 0. -1.
         -5    1    3    3    0  502 -0.24355430435E+03 -0.40502973763E+02 -0.34976123159E+03  0.42814668232E+03  0.41800000000E+01 0. -1.
        -11    1    4    4    0    0  0.17305316634E+03 -0.50094397872E+02 -0.25028212538E+03  0.30837961892E+03  0.00000000000E+00 0. -1.
         11    1    4    4    0    0  0.17186082836E+03  0.39081771322E+02 -0.21514695083E+03  0.27812180717E+03  0.00000000000E+00 0.  1.
</event>
<event>
 8    1  0.8619230E-006  0.1290787E+03  0.7561462E-02  0.1228829E+00
         -1   -1    0    0    0  501 -0.00000000000E+00  0.00000000000E+00  0.34624781834E+02  0.34624781834E+02  0.00000000000E+00 0.  1.
          1   -1    0    0  501    0  0.00000000000E+00 -0.00000000000E+00 -0.51556284198E+03  0.51556284198E+03  0.00000000000E+00 0. -1.
         23    2    1    2    0    0  0.54952876028E+02 -0.54019611660E+02 -0.24280297619E+03  0.28379282180E+03  0.12508854237E+03 0.  0.
         23    2    1    2    0    0 -0.54952876028E+02  0.54019611660E+02 -0.23813508396E+03  0.26639480201E+03  0.91213679345E+02 0.  0.
          5    1    3    3  502    0  0.71345448766E+02 -0.80454581834E+02 -0.14170307972E+03  0.17793354940E+03  0.41800000000E+01 0.  1.
         -5    1    3    3    0  502 -0.16392572737E+02  0.26434970174E+02 -0.10109989647E+03  0.10585927241E+03  0.41800000000E+01 0.  1.
        -11    1    4    4    0    0  0.22833367748E+02  0.30096345282E+02 -0.67710042904E+02  0.77535814900E+02  0.00000000000E+00 0.  1.
         11    1    4    4    0    0 -0.77786243776E+02  0.23923266378E+02 -0.17042504105E+03  0.18885898711E+03  0.00000000000E+00 0. -1.
</event>
<event>
 8    1  0.8619230E-006  0.8564632E+02  0.7561462E-02  0.1313751E+00
          1   -1    0    0  501    0  0.00000000000E+00  0.00000000000E+00  0.36244358184E+03  0.36244358184E+03  0.00000000000E+00 0. -1.
         -1   -1    0    0    0  501 -0.00000000000E+00 -0.00000000000E+00 -0.45683464952E+02  0.45683464952E+02  0.00000000000E+00 0.  1.
         23    2    1    2    0    0 -0.23483675974E+02  0.47179989431E+02  0.10084116970E+03  0.16909605694E+03  0.12508837086E+03 0.  0.
         23    2    1    2    0    0  0.23483675974E+02 -0.47179989431E+02  0.21591894719E+03  0.23903098986E+03  0.87962423326E+02 0.  0.
          5    1    3    3  502    0 -0.42281159580E+02  0.15587899629E+02 -0.14851734698E+02  0.47631139959E+02  0.41800000000E+01 0. -1.
         -5    1    3    3    0  502  0.18797483606E+02  0.31592089803E+02  0.11569290440E+03  0.12146491698E+03  0.41800000000E+01 0. -1.
        -11    1    4    4    0    0  0.46889456743E+02 -0.14968740632E+02  0.17558929760E+03  0.18235757670E+03  0.00000000000E+00 0.  1.
         11    1    4    4    0    0 -0.23405780769E+02 -0.32211248800E+02  0.40329649592E+02  0.56673413157E+02  0.00000000000E+00 0. -1.
</event>
<event>
 8    1  0.8619230E-006  0.9983147E+02  0.7561462E-02  0.1280651E+00
          3   -1    0    0  501    0  0.00000000000E+00  0.00000000000E+00  0.43702109376E+02  0.43702109376E+02  0.00000000000E+00 0. -1.
         -3   -1    0    0    0  501 -0.00000000000E+00 -0.00000000000E+00 -0.36559256612E+03  0.36559256612E+03  0.00000000000E+00 0.  1.
         23    2    1    2    0    0  0.49667042116E+02  0.21116716672E+02 -0.22784865868E+03  0.26546727221E+03  0.12508049631E+03 0.  0.
         23    2    1    2    0    0 -0.49667042116E+02 -0.21116716672E+02 -0.94041798065E+02  0.14382740329E+03  0.94497255817E+02 0.  0.
          5    1    3    3  502    0  0.64500921215E+02 -0.61877810267E+01 -0.42771277830E+02  0.77752891128E+02  0.41800000000E+01 0.  1.
         -5    1    3    3    0  502 -0.14833879098E+02  0.27304497699E+02 -0.18507738085E+03  0.18771438108E+03  0.41800000000E+01 0.  1.
        -11    1    4    4    0    0  0.19180199465E+02 -0.28267036396E+02 -0.53897274865E+02  0.63810826950E+02  0.00000000000E+00 0. -1.
         11    1    4    4    0    0 -0.68847241581E+02  0.71503197241E+01 -0.40144523201E+02  0.80016576336E+02  0.00000000000E+00 0.  1.
</event>
<event>
 8    1  0.8619230E-006  0.1635056E+03  0.7561462E-02  0.1184795E+00
          1   -1    0    0  501    0  0.00000000000E+00  0.00000000000E+00  0.64585344922E+02  0.64585344922E+02  0.00000000000E+00 0. -1.
         -1   -1    0    0    0  501 -0.00000000000E+00 -0.00000000000E+00 -0.48784210470E+03  0.48784210470E+03  0.00000000000E+00 0.  1.
         23    2    1    2    0    0 -0.26495419684E+00  0.13208649095E+03 -0.29701974918E+03  0.34830275205E+03  0.12508862615E+03 0.  0.
         23    2    1    2    0    0  0.26495419684E+00 -0.13208649095E+03 -0.12623701060E+03  0.20412469757E+03  0.91017569840E+02 0.  0.
          5    1    3    3  502    0 -0.39496777940E+02 -0.33539406081E+01 -0.81404763354E+02  0.90639132178E+02  0.41800000000E+01 0.  1.
         -5    1    3    3    0  502  0.39231823743E+02  0.13544043156E+03 -0.21561498583E+03  0.25766361988E+03  0.41800000000E+01 0.  1.
        -11    1    4    4    0    0  0.22174163005E+02 -0.11793249090E+03 -0.13095239221E+03  0.17761839696E+03  0.00000000000E+00 0. -1.
         11    1    4    4    0    0 -0.21909208808E+02 -0.14154000052E+02  0.47153816089E+01  0.26506300605E+02  0.00000000000E+00 0.  1.
</event>
<event>
 7    1  0.8619230E-006  0.2578907E+03  0.7561462E-02  0.1108417E+00
         -1   -1    0    0    0  501 -0.00000000000E+00  0.00000000000E+00  0.42146812916E+03  0.42146812916E+03  0.00000000000E+00 0.  1.
          1   -1    0    0  501    0  0.00000000000E+00 -0.00000000000E+00 -0.22899307701E+03  0.22899307701E+03  0.00000000000E+00 0. -1.
         23    2    1    2    0    0 -0.26647331293E+02  0.23563789930E+02  0.21510429364E+03  0.24462846694E+03  0.11094096282E+03 0.  0.
          5    1    3    3  502    0  0.26347746744E+02  0.49978375889E+02  0.11627772955E+03  0.12934459635E+03  0.41800000000E+01 0. -1.
         -5    1    3    3    0  502 -0.52995078037E+02 -0.26414585959E+02  0.98826564093E+02  0.11528387059E+03  0.41800000000E+01 0.  1.
        -11    1    1    2    0    0  0.56262175763E+02  0.18281434074E+03  0.22247694463E+02  0.19256550966E+03  0.00000000000E+00 0.  1.
         11    1    1    2    0    0 -0.29614844470E+02 -0.20637813067E+03 -0.44876935950E+02  0.21326722958E+03  0.00000000000E+00 0. -1.
</event>
<event>
 8    1  0.8619230E-006  0.9140724E+02  0.7561462E-02  0.1299479E+00
         -4   -1    0    0    0  501 -0.00000000000E+00  0.00000000000E+00  0.13746003552E+03  0.13746003552E+03  0.00000000000E+00 0.  1.
          4   -1    0    0  501    0  0.00000000000E+00 -0.00000000000E+00 -0.10872067474E+03  0.10872067474E+03  0.00000000000E+00 0. -1.
         23    2    1    2    0    0  0.17335170165E+02  0.55008856596E+02  0.24123449011E+02  0.13984077556E+03  0.12508804614E+03 0.  0.
         23    2    1    2    0    0 -0.17335170165E+02 -0.55008856596E+02  0.46159117731E+01  0.10633993470E+03  0.89221032507E+02 0.  0.
          5    1    3    3  502    0  0.32306821965E+02  0.19787784081E+02  0.70149932323E+02  0.79835910149E+02  0.41800000000E+01 0.  1.
         -5    1    3    3    0  502 -0.14971651800E+02  0.35221072515E+02 -0.46026483312E+02  0.60004865410E+02  0.41800000000E+01 0.  1.
        -11    1    4    4    0    0 -0.40794677083E+02 -0.68064155144E+02  0.46998281049E+01  0.79492284393E+02  0.00000000000E+00 0.  1.
         11    1    4    4    0    0  0.23459506917E+02  0.13055298548E+02 -0.83916331883E-01  0.26847650306E+02  0.00000000000E+00 0. -1.
</event>
<event>
 8    1  0.8619230E-006  0.1378730E+03  0.7561462E-02  0.1216220E+00
         -1   -1    0    0    0  501 -0.00000000000E+00  0.00000000000E+00  0.24729800970E+02  0.24729800970E+02  0.00000000000E+00 0.  1.
          1   -1    0    0  501    0  0.00000000000E+00 -0.00000000000E+00 -0.90050675350E+03  0.90050675350E+03  0.00000000000E+00 0. -1.
         23    2    1    2    0    0  0.70754460703E+02  0.73208802625E+02 -0.45932876918E+03  0.48682475051E+03  0.12509874908E+03 0.  0.
         23    2    1    2    0    0 -0.70754460703E+02 -0.73208802625E+02 -0.41644818336E+03  0.43841180397E+03  0.91706586165E+02 0.  0.
          5    1    3    3  502    0  0.93744541486E+02  0.64120420293E+02 -0.23436985380E+03  0.26047297005E+03  0.41800000000E+01 0. -1.
         -5    1    3    3    0  502 -0.22990080783E+02  0.90883823324E+01 -0.22495891538E+03  0.22635178046E+03  0.41800000000E+01 0. -1.
        -11    1    4    4    0    0 -0.26762241888E+02  0.20359917790E+02 -0.10079029623E+03  0.10625171838E+03  0.00000000000E+00 0.  1.
         11    1    4    4    0    0 -0.43992218815E+02 -0.93568720415E+02 -0.31565788712E+03  0.33216008559E+03  0.00000000000E+00 0. -1.
</event>
<event>
 8    1  0.8619230E-006  0.2043893E+03  0.7561462E-02  0.1146088E+00
         -1   -1    0    0    0  501 -0.00000000000E+00  0.00000000000E+00  0.15234945428E+03  0.15234945428E+03  0.00000000000E+00 0.  1.
          1   -1    0    0  501    0  0.00000000000E+00 -0.00000000000E+00 -0.28993580557E+03  0.28993580557E+03  0.00000000000E+00 0. -1.
         23    2    1    2    0    0  0.35782277174E+02  0.17418936582E+03 -0.46112129003E+02  0.22225352891E+03  0.12509195077E+03 0.  0.
         23    2    1    2    0    0 -0.35782277174E+02 -0.17418936582E+03 -0.91474222285E+02  0.22003173094E+03  0.91783019956E+02 0.  0.
          5    1    3    3  502    0 -0.35339181900E+02  0.12343987892E+03 -0.40082047882E+02  0.13457453120E+03  0.41800000000E+01 0.  1.
         -5    1    3    3    0  502  0.71121459074E+02  0.50749486906E+02 -0.60300811208E+01  0.87678997715E+02  0.41800000000E+01 0.  1.
        -11    1    4    4    0    0 -0.34526497271E+02 -0.22643425744E+02 -0.45983556116E+02  0.61800414046E+02  0.00000000000E+00 0. -1.
         11    1    4    4    0    0 -0.12557799030E+01 -0.15154594008E+03 -0.45490666169E+02  0.15823131689E+03  0.00000000000E+00 0.  1.
</event>
<event>
 7    1  0.8619230E-006  0.1276760E+03  0.7561462E-02  0.1230945E+00
         -1   -1    0    0    0  501 -0.00000000000E+00  0.00000000000E+00  0.11489975639E+03  0.11489975639E+03  0.00000000000E+00 0.  1.
          1   -1    0    0  501    0  0.00000000000E+00 -0.00000000000E+00 -0.16187376072E+03  0.16187376072E+03  0.00000000000E+00 0. -1.
         23    2    1    2    0    0 -0.38748191788E+01 -0.51158931203E+02 -0.43302089047E+02  0.11348782052E+03  0.91499530186E+02 0.  0.
          5    1    1    2  502    0 -0.66538540326E+02 -0.12348250855E+02  0.49303687207E+01  0.67982627072E+02  0.41800000000E+01 0. -1.
         -5    1    1    2    0  502  0.70413359504E+02  0.63507182058E+02 -0.86022839983E+01  0.95303069519E+02  0.41800000000E+01 0.  1.
        -11    1    3    3    0    0  0.15480659818E+02  0.16284493974E+02  0.10758359126E+02  0.24911400271E+02  0.00000000000E+00 0.  1.
         11    1    3    3    0    0 -0.19355478997E+02 -0.67443425178E+02 -0.54060448173E+02  0.88576420246E+02  0.00000000000E+00 0. -1.
</event>
<event>
 8    1  0.8619230E-006  0.1773805E+03  0.7561462E-02  0.1170363E+00
          1   -1    0    0  501    0  0.00000000000E+00  0.00000000000E+00  0.37647722261E+02  0.37647722261E+02  0.00000000000E+00 0. -1.
         -1   -1    0    0    0  501 -0.00000000000E+00 -0.00000000000E+00 -0.11917044910E+04  0.11917044910E+04  0.00000000000E+00 0.  1.
         23    2    1    2    0    0 -0.15831505220E+03 -0.37232789182E+02 -0.83937283279E+03  0.86408580305E+03  0.12509031241E+03 0.  0.
         23    2    1    2    0    0  0.15831505220E+03  0.37232789182E+02 -0.31468393600E+03  0.36526641026E+03  0.89127069665E+02 0.  0.
          5    1    3    3  502    0 -0.32736172385E+02 -0.53904896787E+02 -0.14407133750E+03  0.15732583249E+03  0.41800000000E+01 0.  1.
         -5    1    3    3    0  502 -0.12557887982E+03  0.16672107604E+02 -0.69530149529E+03  0.70675997056E+03  0.41800000000E+01 0.  1.
        -11    1    4    4    0    0  0.65068935297E+02  0.19188200846E+01 -0.21352457710E+03  0.22322722333E+03  0.00000000000E+00 0.  1.
         11    1    4    4    0    0  0.93246116904E+02  0.35313969098E+02 -0.10115935890E+03  0.14203918693E+03  0.00000000000E+00 0. -1.
</event>
<event>
 8    1  0.8619230E-006  0.8212281E+02  0.7561462E-02  0.1323133E+00
          1   -1    0    0  501    0  0.00000000000E+00  0.00000000000E+00  0.55968018332E+02  0.55968018332E+02  0.00000000000E+00 0. -1.
         -1   -1    0    0    0  501 -0.00000000000E+00 -0.00000000000E+00 -0.34741403650E+03  0.34741403650E+03  0.00000000000E+00 0.  1.
         23    2    1    2    0    0  0.44654823494E+01 -0.28907930511E+02 -0.27902744807E+03  0.30717841864E+03  0.12508659050E+03 0.  0.
         23    2    1    2    0    0 -0.44654823494E+01  0.28907930511E+02 -0.12418570100E+02  0.96203636192E+02  0.90803687999E+02 0.  0.
          5    1    3    3  502    0  0.42739119417E+02 -0.31773091551E+02 -0.25748345582E+03  0.26296646953E+03  0.41800000000E+01 0. -1.
         -5    1    3    3    0  502 -0.38273637067E+02  0.28651610408E+01 -0.21543992245E+02  0.44211949109E+02  0.41800000000E+01 0. -1.
        -11    1    4    4    0    0 -0.31519360109E+02 -0.14529988879E+01 -0.37046010911E+02  0.48661978914E+02  0.00000000000E+00 0.  1.
         11    1    4    4    0    0  0.27053877760E+02  0.30360929399E+02  0.24627440811E+02  0.47541657277E+02  0.00000000000E+00 0. -1.
</event>
<event>
 8    1  0.8619230E-006  0.8890881E+02  0.7561462E-02  0.1305516E+00
         -1   -1    0    0    0  501 -0.00000000000E+00  0.00000000000E+00  0.66414574875E+02  0.66414574875E+02  0.00000000000E+00 0.  1.
          1   -1    0    0  501    0  0.00000000000E+00 -0.00000000000E+00 -0.18617694177E+03  0.18617694177E+03  0.00000000000E+00 0. -1.
         23    2    1    2    0    0 -0.21797994535E+02 -0.14567845804E+02 -0.77853408377E+02  0.14965238164E+03  0.12508919792E+03 0.  0.
         23    2    1    2    0    0  0.21797994535E+02  0.14567845804E+02 -0.41908958515E+02  0.10293913500E+03  0.90292469311E+02 0.  0.
          5    1    3    3  502    0 -0.42907243779E+02  0.21677933918E+02 -0.93071705117E+02  0.10483691660E+03  0.41800000000E+01 0. -1.
         -5    1    3    3    0  502  0.21109249245E+02 -0.36245779723E+02  0.15218296740E+02  0.44815465043E+02  0.41800000000E+01 0. -1.
        -11    1    4    4    0    0 -0.31270526994E+02  0.14194692390E+02 -0.35652344283E+02  0.49501765659E+02  0.00000000000E+00 0. -1.
         11    1    4    4    0    0  0.53068521528E+02  0.37315341400E+00 -0.62566142318E+01  0.53437369343E+02  0.00000000000E+00 0.  1.
</event>
<event>
 8    1  0.8619230E-006  0.1133159E+03  0.7561462E-02  0.1254550E+00
          3   -1    0    0  501    0  0.00000000000E+00  0.00000000000E+00  0.37377492756E+03  0.37377492756E+03  0.00000000000E+00 0. -1.
         -3   -1    0    0    0  501 -0.00000000000E+00 -0.00000000000E+00 -0.52912810926E+02  0.52912810926E+02  0.00000000000E+00 0.  1.
         23    2    1    2    0    0 -0.67584651973E+02  0.20091086146E+02  0.90202911774E+02  0.17003897373E+03  0.12571933173E+03 0.  0.
         23    2    1    2    0    0  0.67584651973E+02 -0.20091086146E+02  0.23065920486E+03  0.25664876476E+03  0.87713070510E+02 0.  0.
          5    1    3    3  502    0  0.12344929610E+02 -0.34471217600E+02  0.56538428817E+02  0.67488728415E+02  0.41800000000E+01 0. -1.
         -5    1    3    3    0  502 -0.79929581583E+02  0.54562303746E+02  0.33664482957E+02  0.10255024532E+03  0.41800000000E+01 0.  1.
        -11    1    4    4    0    0  0.54561012326E+02  0.14075320196E+02  0.20334774508E+03  0.21101024651E+03  0.00000000000E+00 0. -1.
         11    1    4    4    0    0  0.13023639647E+02 -0.34166406342E+02  0.27311459785E+02  0.45638518245E+02  0.00000000000E+00 0.  1.
</event>
<event>
 8    1  0.8619230E-006  0.1238365E+03  0.7561462E-02  0.1236899E+00
         -2   -1    0    0    0  501 -0.00000000000E+00  0.00000000000E+00  0.67502286315E+02  0.67502286315E+02  0.00000000000E+00 0. -1.
          2   -1    0    0  501    0  0.00000000000E+00 -0.00000000000E+00 -0.39608194524E+03  0.39608194524E+03  0.00000000000E+00 0.  1.
         23    2    1    2    0    0  0.89919072610E+02 -0.36302043570E+02 -0.70418277937E+02  0.17323428409E+03  0.12509238718E+03 0.  0.
         23    2    1    2    0    0 -0.89919072610E+02  0.36302043570E+02 -0.25816138099E+03  0.29034994746E+03  0.90843356241E+02 0.  0.
          5    1    3    3  502    0 -0.30295810016E+01 -0.19662647871E+02 -0.75881822623E+02  0.78557758923E+02  0.41800000000E+01 0. -1.
         -5    1    3    3    0  502  0.92948653611E+02 -0.16639395699E+02  0.54635446861E+01  0.94676525168E+02  0.41800000000E+01 0. -1.
        -11    1    4    4    0    0 -0.23564348026E+02 -0.30584018318E+02 -0.78691863023E+02  0.87653123050E+02  0.00000000000E+00 0.  1.
         11    1    4    4    0    0 -0.66354724584E+02  0.66886061888E+02 -0.17946951796E+03  0.20269682442E+03  0.00000000000E+00 0. -1.
</event>
<event>
 8    1  0.8619230E-006  0.7662535E+02  0.7561462E-02  0.1338910E+00
         -2   -1    0    0    0  501 -0.00000000000E+00  0.00000000000E+00  0.56043131234E+03  0.56043131234E+03  0.00000000000E+00 0.  1.
          2   -1    0    0  501    0  0.00000000000E+00 -0.00000000000E+00 -0.33354758276E+02  0.33354758276E+02  0.00000000000E+00 0. -1.
         23    2    1    2    0    0 -0.19469126360E+02  0.52727788758E+02  0.40966762572E+03  0.43201097050E+03  0.12508656395E+03 0.  0.
         23    2    1    2    0    0  0.19469126360E+02 -0.52727788758E+02  0.11740892834E+03  0.16177510012E+03  0.96057586761E+02 0.  0.
          5    1    3    3  502    0  0.43495952681E+01 -0.15403604761E+02  0.30122391604E+03  0.30167782486E+03  0.41800000000E+01 0. -1.
         -5    1    3    3    0  502 -0.23818721628E+02  0.68131393519E+02  0.10844370968E+03  0.13033314564E+03  0.41800000000E+01 0. -1.
        -11    1    4    4    0    0  0.18041924004E+02 -0.81259318822E+01  0.11542237543E+03  0.11710621905E+03  0.00000000000E+00 0.  1.
         11    1    4    4    0    0  0.14272023568E+01 -0.44601856876E+02  0.19865529162E+01  0.44668881068E+02  0.00000000000E+00 0. -1.
</event>
<event>
 8    1  0.8619230E-006  0.1286615E+03  0.7561462E-02  0.1229455E+00
         -2   -1    0    0    0  501 -0.00000000000E+00  0.00000000000E+00  0.25525362128E+02  0.25525362128E+02  0.00000000000E+00 0.  1.
          2   -1    0    0  501    0  0.00000000000E+00 -0.00000000000E+00 -0.81948474564E+03  0.81948474564E+03  0.00000000000E+00 0. -1.
         23    2    1    2    0    0  0.10014019526E+03  0.65924410814E+01 -0.37552100291E+03  0.40589660963E+03  0.11689531683E+03 0.  0.
         23    2    1    2    0    0 -0.10014019526E+03 -0.65924410814E+01 -0.41843838060E+03  0.43911349814E+03  0.87512667075E+02 0.  0.
          5    1    3    3  502    0 -0.26437071151E+02 -0.22910136481E+01 -0.57284535413E+02  0.63270513448E+02  0.41800000000E+01 0. -1.
         -5    1    3    3    0  502  0.12657726641E+03  0.88834547295E+01 -0.31823646750E+03  0.34262609618E+03  0.41800000000E+01 0.  1.
        -11    1    4    4    0    0 -0.25548310291E+02 -0.12944350806E+02 -0.23228850998E+02  0.36876169747E+02  0.00000000000E+00 0.  1.
         11    1    4    4    0    0 -0.74591884969E+02  0.63519097243E+01 -0.39520952961E+03  0.40223732839E+03  0.00000000000E+00 0. -1.
</event>
<event>
 8    1  0.8619230E-006  0.1456455E+03  0.7561462E-02  0.1205928E+00
         -2   -1    0    0    0  501 -0.00000000000E+00  0.00000000000E+00  0.70643419951E+02  0.70643419951E+02  0.00000000000E+00 0.  1.
          2   -1    0    0  501    0  0.00000000000E+00 -0.00000000000E+00 -0.38794430567E+03  0.38794430567E+03  0.00000000000E+00 0. -1.
         23    2    1    2    0    0 -0.90167597598E+02  0.79701016678E+02 -0.14903801912E+03  0.22919619912E+03  0.12584164189E+03 0.  0.
         23    2    1    2    0    0  0.90167597598E+02 -0.79701016678E+02 -0.16826286660E+03  0.22939152650E+03  0.99124328184E+02 0.  0.
          5    1    3    3  502    0 -0.10015980437E+03  0.67494944104E+02 -0.16621365756E+03  0.20550427307E+03  0.41800000000E+01 0. -1.
         -5    1    3    3    0  502  0.99922067735E+01  0.12206072574E+02  0.17175638443E+02  0.23691926047E+02  0.41800000000E+01 0.  1.
        -11    1    4    4    0    0 -0.66261771309E+01 -0.53410895282E+02 -0.75878018558E+02  0.93027434977E+02  0.00000000000E+00 0.  1.
         11    1    4    4    0    0  0.96793774729E+02 -0.26290121396E+02 -0.92384848044E+02  0.13636409153E+03  0.00000000000E+00 0. -1.
</event>
<event>
 8    1  0.8619230E-006  0.8879698E+02  0.7561462E-02  0.1305791E+00
          2   -1    0    0  501    0  0.00000000000E+00  0.00000000000E+00  0.11659245247E+03  0.11659245247E+03  0.00000000000E+00 0. -1.
         -2   -1    0    0    0  501 -0.00000000000E+00 -0.00000000000E+00 -0.14325723741E+03  0.14325723741E+03  0.00000000000E+00 0.  1.
         23    2    1    2    0    0 -0.22465194657E+02  0.38596840525E+02 -0.83429545534E+02  0.15685172885E+03  0.12509026624E+03 0.  0.
         23    2    1    2    0    0  0.22465194657E+02 -0.38596840525E+02  0.56764760591E+02  0.10299796102E+03  0.73429836309E+02 0.  0.
          5    1    3    3  502    0 -0.11520434299E+02 -0.41423538775E+02 -0.57508268952E+02  0.71925679482E+02  0.41800000000E+01 0.  1.
         -5    1    3    3    0  502 -0.10944760358E+02  0.80020379299E+02 -0.25921276582E+02  0.84926049373E+02  0.41800000000E+01 0.  1.
        -11    1    4    4    0    0 -0.68630405369E+01 -0.12518537899E+02 -0.15308418555E+02  0.20932338503E+02  0.00000000000E+00 0.  1.
         11    1    4    4    0    0  0.29328235194E+02 -0.26078302625E+02  0.72073179146E+02  0.82065622520E+02  0.00000000000E+00 0. -1.
</event>
<event>
 8    1  0.8619230E-006  0.1225089E+03  0.7561462E-02  0.1239015E+00
         -1   -1    0    0    0  501 -0.00000000000E+00  0.00000000000E+00  0.33489022251E+03  0.33489022251E+03  0.00000000000E+00 0.  1.
          1   -1    0    0  501    0  0.00000000000E+00 -0.00000000000E+00 -0.65178928777E+02  0.65178928777E+02  0.00000000000E+00 0. -1.
         23    2    1    2    0    0  0.14160639763E+02  0.79181663850E+02  0.22565799501E+03  0.27025752522E+03  0.12508932656E+03 0.  0.
         23    2    1    2    0    0 -0.14160639763E+02 -0.79181663850E+02  0.44053298721E+02  0.12981162606E+03  0.91870046936E+02 0.  0.
          5    1    3    3  502    0 -0.47648903745E+02  0.41402237710E+02  0.16131928162E+03  0.17327996520E+03  0.41800000000E+01 0.  1.
         -5    1    3    3    0  502  0.61809543508E+02  0.37779426141E+02  0.64338713386E+02  0.96977560025E+02  0.41800000000E+01 0.  1.
        -11    1    4    4    0    0 -0.34621545553E+02 -0.81552075144E+02  0.57124634218E+02  0.10541639441E+03  0.00000000000E+00 0.  1.
         11    1    4    4    0    0  0.20460905790E+02  0.23704112938E+01 -0.13071335497E+02  0.24395231647E+02  0.00000000000E+00 0. -1.
</event>
<event>
 8    1  0.8619230E-006  0.1415550E+03  0.7561462E-02  0.1211252E+00
          2   -1    0    0  501    0  0.00000000000E+00  0.00000000000E+00  0.43340333766E+03  0.43340333766E+03  0.00000000000E+00 0. -1.
         -2   -1    0    0    0  501 -0.00000000000E+00 -0.00000000000E+00 -0.52229343505E+02  0.52229343505E+02  0.00000000000E+00 0.  1.
         23    2    1    2    0    0  0.10120652770E+03 -0.22284071270E+02  0.20048281182E+03  0.25803043929E+03  0.12508800376E+03 0.  0.
         23    2    1    2    0    0 -0.10120652770E+03  0.22284071270E+02  0.18069118234E+03  0.22760224188E+03  0.91728599966E+02 0.  0.
          5    1    3    3  502    0  0.18882713904E+02  0.49486710099E+02  0.66971892266E+02  0.85487999827E+02  0.41800000000E+01 0. -1.
         -5    1    3    3    0  502  0.82323813795E+02 -0.71770781369E+02  0.13351091956E+03  0.17254243947E+03  0.41800000000E+01 0. -1.
        -11    1    4    4    0    0 -0.10692076017E+03  0.10312979653E+02  0.10311343283E+03  0.14889857801E+03  0.00000000000E+00 0.  1.
         11    1    4    4    0    0  0.57142324669E+01  0.11971091618E+02  0.77577749508E+02  0.78703663866E+02  0.00000000000E+00 0. -1.
</event>
<event>
 8    1  0.8619230E-006  0.1270110E+03  0.7561462E-02  0.1231960E+00
          1   -1    0    0  501    0  0.00000000000E+00  0.00000000000E+00  0.30985186926E+03  0.30985186926E+03  0.00000000000E+00 0. -1.
         -1   -1    0    0    0  501 -0.00000000000E+00 -0.00000000000E+00 -0.71004875709E+02  0.71004875709E+02  0.00000000000E+00 0.  1.
         23    2    1    2    0    0 -0.49063790054E+02  0.85793661832E+02  0.14397278944E+03  0.21481100052E+03  0.12509114254E+03 0.  0.
         23    2    1    2    0    0  0.49063790054E+02 -0.85793661832E+02  0.94874204111E+02  0.16604574445E+03  0.93820396173E+02 0.  0.
          5    1    3    3  502    0 -0.62170943359E+02  0.11051886996E+03  0.95943923105E+02  0.15906714179E+03  0.41800000000E+01 0.  1.
         -5    1    3    3    0  502  0.13107153305E+02 -0.24725208133E+02  0.48028866333E+02  0.55743858731E+02  0.41800000000E+01 0.  1.
        -11    1    4    4    0    0  0.31390374324E+02 -0.52930605534E+02  0.10979048191E+03  0.12586085380E+03  0.00000000000E+00 0. -1.
         11    1    4    4    0    0  0.17673415730E+02 -0.32863056298E+02 -0.14916277796E+02  0.40184890644E+02  0.00000000000E+00 0.  1.
</event>
<event>
 8    1  0.8619230E-006  0.8390899E+02  0.7561462E-02  0.1318311E+00
          2   -1    0    0  501    0  0.00000000000E+00  0.00000000000E+00  0.26996925409E+03  0.26996925409E+03  0.00000000000E+00 0. -1.
         -2   -1    0    0    0  501 -0.00000000000E+00 -0.00000000000E+00 -0.48260016382E+02  0.48260016382E+02  0.00000000000E+00 0.  1.
         23    2    1    2    0    0 -0.13191616567E+02 -0.13008184041E+02  0.81796655523E+02  0.15060762854E+03  0.12509489726E+03 0.  0.
         23    2    1    2    0    0  0.13191616567E+02  0.13008184041E+02  0.13991258219E+03  0.16762164193E+03  0.90433691674E+02 0.  0.
          5    1    3    3  502    0  0.12334300824E+02 -0.42364894007E+02 -0.14526445597E+02  0.46641282602E+02  0.41800000000E+01 0.  1.
         -5    1    3    3    0  502 -0.25525917392E+02  0.29356709966E+02  0.96323101121E+02  0.10396634594E+03  0.41800000000E+01 0.  1.
        -11    1    4    4    0    0  0.30827167986E+02 -0.26788963102E+02  0.34099413886E+02  0.53204631917E+02  0.00000000000E+00 0.  1.
         11    1    4    4    0    0 -0.17635551419E+02  0.39797147143E+02  0.10581316830E+03  0.11441701001E+03  0.00000000000E+00 0. -1.
</event>
<event>
 8    1  0.8619231E-006  0.3552949E+03  0.7561462E-02  0.1060463E+00
         -2   -1    0    0    0  501 -0.00000000000E+00  0.00000000000E+00  0.12117228389E+03  0.12117228389E+03  0.00000000000E+00 0.  1.
          2   -1    0    0  501    0  0.00000000000E+00 -0.00000000000E+00 -0.13652982422E+04  0.13652982422E+04  0.00000000000E+00 0. -1.
         23    2    1    2    0    0 -0.33005561272E+03  0.10846695275E+03 -0.29846471056E+03  0.47479417468E+03  0.12508612047E+03 0.  0.
         23    2    1    2    0    0  0.33005561272E+03 -0.10846695275E+03 -0.94566124779E+03  0.10116763514E+04  0.92260810593E+02 0.  0.
          5    1    3    3  502    0 -0.29361888423E+03  0.11826619313E+03 -0.30089503633E+03  0.43675420651E+03  0.41800000000E+01 0. -1.
         -5    1    3    3    0  502 -0.36436728484E+02 -0.97992403792E+01  0.24303257752E+01  0.38039968165E+02  0.41800000000E+01 0. -1.
        -11    1    4    4    0    0  0.21456170026E+03 -0.10878441826E+03 -0.70090884845E+03  0.74104249994E+03  0.00000000000E+00 0.  1.
         11    1    4    4    0    0  0.11549391245E+03  0.31746551299E+00 -0.24475239934E+03  0.27063385151E+03  0.00000000000E+00 0. -1.
</event>
<event>
 8    1  0.8619230E-006  0.1078759E+03  0.7561462E-02  0.1264555E+00
         -2   -1    0    0    0  501 -0.00000000000E+00  0.00000000000E+00  0.36729884698E+02  0.36729884698E+02  0.00000000000E+00 0.  1.
          2   -1    0    0  501    0  0.00000000000E+00 -0.00000000000E+00 -0.49784030571E+03  0.49784030571E+03  0.00000000000E+00 0. -1.
         23    2    1    2    0    0  0.40823560356E+02 -0.50251606719E+02 -0.13723753591E+03  0.19275865593E+03  0.11886955504E+03 0.  0.
         23    2    1    2    0    0 -0.40823560356E+02  0.50251606719E+02 -0.32387288510E+03  0.34181153447E+03  0.88032336893E+02 0.  0.
          5    1    3    3  502    0  0.25622753358E+02 -0.77803192339E+02 -0.13852873299E+03  0.16098926825E+03  0.41800000000E+01 0. -1.
         -5    1    3    3    0  502  0.15200806997E+02  0.27551585620E+02  0.12911970823E+01  0.31769387679E+02  0.41800000000E+01 0.  1.
        -11    1    4    4    0    0 -0.50285125700E+02 -0.57510712039E+00 -0.22135114175E+03  0.22699174560E+03  0.00000000000E+00 0.  1.
         11    1    4    4    0    0  0.94615653442E+01  0.50826713840E+02 -0.10252174335E+03  0.11481978888E+03  0.00000000000E+00 0. -1.
</event>
<event>
 8    1  0.8619230E-006  0.1304420E+03  0.7561462E-02  0.1226801E+00
         -2   -1    0    0    0  501 -0.00000000000E+00  0.00000000000E+00  0.24932384769E+03  0.24932384769E+03  0.00000000000E+00 0.  1.
          2   -1    0    0  501    0  0.00000000000E+00 -0.00000000000E+00 -0.92718615737E+02  0.92718615737E+02  0.00000000000E+00 0. -1.
         23    2    1    2    0    0 -0.68594563600E+02 -0.63647298381E+02  0.14614638192E+03  0.21392147369E+03  0.12508972465E+03 0.  0.
         23    2    1    2    0    0  0.68594563600E+02  0.63647298381E+02  0.10458850029E+02  0.12812098973E+03  0.86887327721E+02 0.  0.
          5    1    3    3  502    0 -0.70875949863E+02  0.16714433830E+02  0.49554822478E+02  0.88181207737E+02  0.41800000000E+01 0. -1.
         -5    1    3    3    0  502  0.22813862626E+01 -0.80361732211E+02  0.96591559444E+02  0.12574026596E+03  0.41800000000E+01 0. -1.
        -11    1    4    4    0    0  0.23266090965E+02 -0.62880630962E+01  0.33856394750E+02  0.41558467149E+02  0.00000000000E+00 0.  1.
         11    1    4    4    0    0  0.45328472635E+02  0.69935361477E+02 -0.23397544722E+02  0.86562522580E+02  0.00000000000E+00 0. -1.
</event>
<event>
 8    1  0.8619230E-006  0.1145042E+03  0.7561462E-02  0.1252449E+00
         -1   -1    0    0    0  501 -0.00000000000E+00  0.00000000000E+00  0.96053176996E+02  0.96053176996E+02  0.00000000000E+00 0.  1.
          1   -1    0    0  501    0  0.00000000000E+00 -0.00000000000E+00 -0.14210579142E+03  0.14210579142E+03  0.00000000000E+00 0. -1.
         23    2    1    2    0    0 -0.42053340362E+02  0.12436467873E+02 -0.28369640388E+02  0.13555394980E+03  0.12508751993E+03 0.  0.
         23    2    1    2    0    0  0.42053340362E+02 -0.12436467873E+02 -0.17682974037E+02  0.10260501862E+03  0.91060162014E+02 0.  0.
          5    1    3    3  502    0 -0.77397940200E+02  0.36512417844E+02 -0.31662336353E+01  0.85738528325E+02  0.41800000000E+01 0.  1.
         -5    1    3    3    0  502  0.35344599838E+02 -0.24075949971E+02 -0.25203406752E+02  0.49815421474E+02  0.41800000000E+01 0.  1.
        -11    1    4    4    0    0  0.58875847142E+02  0.21340864068E+02 -0.16890389986E+02  0.64862031495E+02  0.00000000000E+00 0.  1.
         11    1    4    4    0    0 -0.16822506780E+02 -0.33777331941E+02 -0.79258405127E+00  0.37742987122E+02  0.00000000000E+00 0. -1.
</event>
<event>
 8    1  0.8619230E-006  0.8428778E+02  0.7561462E-02  0.1317306E+00
          1   -1    0    0  501    0  0.00000000000E+00  0.00000000000E+00  0.32289695374E+03  0.32289695374E+03  0.00000000000E+00 0. -1.
         -1   -1    0    0    0  501 -0.00000000000E+00 -0.00000000000E+00 -0.45757069323E+02  0.45757069323E+02  0.00000000000E+00 0.  1.
         23    2    1    2    0    0  0.48697687942E+02 -0.34472720698E+02  0.16164649706E+03  0.21292566182E+03  0.12509162308E+03 0.  0.
         23    2    1    2    0    0 -0.48697687942E+02  0.34472720698E+02  0.11549338736E+03  0.15572836125E+03  0.85748275143E+02 0.  0.
          5    1    3    3  502    0  0.75528279917E+02 -0.27816510975E+02  0.43640323699E+02  0.91652766476E+02  0.41800000000E+01 0. -1.
         -5    1    3    3    0  502 -0.26830591974E+02 -0.66562097234E+01  0.11800617336E+03  0.12127289534E+03  0.41800000000E+01 0. -1.
        -11    1    4    4    0    0 -0.11828214262E+02  0.50955561292E+01 -0.13338952689E+02  0.18541817703E+02  0.00000000000E+00 0.  1.
         11    1    4    4    0    0 -0.36869473681E+02  0.29377164569E+02  0.12883234005E+03  0.13718654355E+03  0.00000000000E+00 0. -1.
</event>
<event>
 8    1  0.8619230E-006  0.1264172E+03  0.7561462E-02  0.1232871E+00
         -3   -1    0    0    0  501 -0.00000000000E+00  0.00000000000E+00  0.40575102340E+03  0.40575102340E+03  0.00000000000E+00 0.  1.
          3   -1    0    0  501    0  0.00000000000E+00 -0.00000000000E+00 -0.68437697126E+02  0.68437697126E+02  0.00000000000E+00 0. -1.
         23    2    1    2    0    0  0.67273990172E+02  0.17072460177E+02  0.33054936844E+03  0.36017779701E+03  0.12509157378E+03 0.  0.
         23    2    1    2    0    0 -0.67273990172E+02 -0.17072460177E+02  0.67639578399E+01  0.11401092352E+03  0.90196900760E+02 0.  0.
          5    1    3    3  502    0  0.28916197578E+02  0.69387711379E+02  0.21205939443E+03  0.22502768749E+03  0.41800000000E+01 0. -1.
         -5    1    3    3    0  502  0.38357792594E+02 -0.52315251202E+02  0.11848997401E+03  0.13515010952E+03  0.41800000000E+01 0. -1.
        -11    1    4    4    0    0 -0.50010977526E+02 -0.52883977830E+02 -0.37704845131E+01  0.72883671269E+02  0.00000000000E+00 0.  1.
         11    1    4    4    0    0 -0.17263012646E+02  0.35811517653E+02  0.10534442353E+02  0.41127252253E+02  0.00000000000E+00 0. -1.
</event>
<event>
 8    1  0.8619230E-006  0.1429394E+03  0.7561462E-02  0.1209428E+00
         -2   -1    0    0    0  501 -0.00000000000E+00  0.00000000000E+00  0.80470661381E+02  0.80470661381E+02  0.00000000000E+00 0.  1.
          2   -1    0    0  501    0  0.00000000000E+00 -0.00000000000E+00 -0.43735893597E+03  0.43735893597E+03  0.00000000000E+00 0. -1.
         23    2    1    2    0    0  0.12256128709E+03 -0.28049965695E+02 -0.68445237164E+02  0.19010441027E+03  0.12508743601E+03 0.  0.
         23    2    1    2    0    0 -0.12256128709E+03  0.28049965695E+02 -0.28844303742E+03  0.32772518707E+03  0.91631559719E+02 0.  0.
          5    1    3    3  502    0  0.58381619353E+02 -0.41222338585E+02  0.25063448917E+02  0.75850797941E+02  0.41800000000E+01 0. -1.
         -5    1    3    3    0  502  0.64179667737E+02  0.13172372890E+02 -0.93508686081E+02  0.11425361233E+03  0.41800000000E+01 0. -1.
        -11    1    4    4    0    0 -0.35296782013E+02  0.47552269267E+02 -0.70003258132E+02  0.91692623924E+02  0.00000000000E+00 0.  1.
         11    1    4    4    0    0 -0.87264505077E+02 -0.19502303571E+02 -0.21843977929E+03  0.23603256315E+03  0.00000000000E+00 0. -1.
</event>
<event>
 8    1  0.8619230E-006  0.1636519E+03  0.7561462E-02  0.1184634E+00
         -2   -1    0    0    0  501 -0.00000000000E+00  0.00000000000E+00  0.47616468314E+02  0.47616468314E+02  0.00000000000E+00 0.  1.
          2   -1    0    0  501    0  0.00000000000E+00 -0.00000000000E+00 -0.67180042491E+03  0.67180042491E+03  0.00000000000E+00 0. -1.
         23    2    1    2    0    0 -0.11065764221E+03  0.80324639632E+02 -0.23629619648E+03  0.30028151653E+03  0.12504373308E+03 0.  0.
         23    2    1    2    0    0  0.11065764221E+03 -0.80324639632E+02 -0.38788776011E+03  0.41913537670E+03  0.80748919757E+02 0.  0.
          5    1    3    3  502    0 -0.10080874135E+03  0.12754000376E+01 -0.98192105601E+02  0.14079485424E+03  0.41800000000E+01 0. -1.
         -5    1    3    3    0  502 -0.98489008568E+01  0.79049239594E+02 -0.13810409088E+03  0.15948666228E+03  0.41800000000E+01 0. -1.
        -11    1    4    4    0    0  0.85610983170E+02 -0.85566857370E+02 -0.23728375659E+03  0.26637287524E+03  0.00000000000E+00 0.  1.
         11    1    4    4    0    0  0.25046659041E+02  0.52422177381E+01 -0.15060400352E+03  0.15276250146E+03  0.00000000000E+00 0. -1.
</event>
<event>
 8    1  0.8619230E-006  0.2504801E+03  0.7561462E-02  0.1113002E+00
          1   -1    0    0  501    0  0.00000000000E+00  0.00000000000E+00  0.71906313462E+03  0.71906313462E+03  0.00000000000E+00 0. -1.
         -1   -1    0    0    0  501 -0.00000000000E+00 -0.00000000000E+00 -0.96079014505E+02  0.96079014505E+02  0.00000000000E+00 0.  1.
         23    2    1    2    0    0  0.23815190698E+03 -0.19025558099E+02  0.31804236660E+03  0.41698346165E+03  0.12508380260E+03 0.  0.
         23    2    1    2    0    0 -0.23815190698E+03  0.19025558099E+02  0.30494175352E+03  0.39815868748E+03  0.91992199232E+02 0.  0.
          5    1    3    3  502    0  0.99517941441E+02 -0.38825323764E+02  0.58060582828E+02  0.12165414137E+03  0.41800000000E+01 0.  1.
         -5    1    3    3    0  502  0.13863396554E+03  0.19799765665E+02  0.25998178377E+03  0.29532932028E+03  0.41800000000E+01 0.  1.
        -11    1    4    4    0    0 -0.13361384033E+03 -0.32346227388E+02  0.18997814931E+03  0.23450081870E+03  0.00000000000E+00 0. -1.
         11    1    4    4    0    0 -0.10453806665E+03  0.51371785487E+02  0.11496360421E+03  0.16365786878E+03  0.00000000000E+00 0.  1.
</event>
<event>
 8    1  0.8619230E-006  0.6859529E+02  0.7561462E-02  0.1364936E+00
         -1   -1    0    0    0  501 -0.00000000000E+00  0.00000000000E+00  0.15566623647E+02  0.15566623647E+02  0.00000000000E+00 0.  1.
          1   -1    0    0  501    0  0.00000000000E+00 -0.00000000000E+00 -0.71632479390E+03  0.71632479390E+03  0.00000000000E+00 0. -1.
         23    2    1    2    0    0  0.19888011568E+02  0.77356607938E+01 -0.44215183478E+03  0.45678424169E+03  0.11268640114E+03 0.  0.
         23    2    1    2    0    0 -0.19888011568E+02 -0.77356607938E+01 -0.25860633547E+03  0.27510717586E+03  0.91385710100E+02 0.  0.
          5    1    3    3  502    0 -0.10696205823E+02 -0.30876950168E+01 -0.41238581653E+03  0.41255724058E+03  0.41800000000E+01 0. -1.
         -5    1    3    3    0  502  0.30584217391E+02  0.10823355811E+02 -0.29766018247E+02  0.44227001104E+02  0.41800000000E+01 0.  1.
        -11    1    4    4    0    0 -0.38617877517E+02  0.31026445845E+02 -0.11574311103E+03  0.12589856455E+03  0.00000000000E+00 0.  1.
         11    1    4    4    0    0  0.18729865950E+02 -0.38762106639E+02 -0.14286322444E+03  0.14920861131E+03  0.00000000000E+00 0. -1.
</event>
<event>
 8    1  0.8619230E-006  0.1134828E+03  0.7561462E-02  0.1254253E+00
         -1   -1    0    0    0  501 -0.00000000000E+00  0.00000000000E+00  0.28437145339E+03  0.28437145339E+03  0.00000000000E+00 0. -1.
          1   -1    0    0  501    0  0.00000000000E+00 -0.00000000000E+00 -0.55198486379E+02  0.55198486379E+02  0.00000000000E+00 0.  1.
         23    2    1    2    0    0 -0.28952599242E+02  0.30328191958E+02  0.18821711541E+03  0.22984997481E+03  0.12508907288E+03 0.  0.
         23    2    1    2    0    0  0.28952599242E+02 -0.30328191958E+02  0.40955851606E+02  0.10971996497E+03  0.92752556307E+02 0.  0.
          5    1    3    3  502    0  0.42163694292E+02  0.36364407857E+02  0.53460263131E+02  0.77302130690E+02  0.41800000000E+01 0.  1.
         -5    1    3    3    0  502 -0.71116293534E+02 -0.60362158987E+01  0.13475685228E+03  0.15254784412E+03  0.41800000000E+01 0.  1.
        -11    1    4    4    0    0 -0.30816593971E+02 -0.24902546306E+02  0.54638069167E+01  0.39995655546E+02  0.00000000000E+00 0. -1.
         11    1    4    4    0    0  0.59769193213E+02 -0.54256456522E+01  0.35492044689E+02  0.69724309422E+02  0.00000000000E+00 0.  1.
</event>
<event>
 8    1  0.8619230E-006  0.2170759E+03  0.7561462E-02  0.1136082E+00
          1   -1    0    0  501    0  0.00000000000E+00  0.00000000000E+00  0.97780744896E+02  0.97780744896E+02  0.00000000000E+00 0. -1.
         -1   -1    0    0    0  501 -0.00000000000E+00 -0.00000000000E+00 -0.52730461216E+03  0.52730461216E+03  0.00000000000E+00 0.  1.
         23    2    1    2    0    0 -0.19647551327E+03  0.33892710703E-01 -0.27012691347E+03  0.35667717705E+03  0.12508969097E+03 0.  0.
         23    2    1    2    0    0  0.19647551327E+03 -0.33892710703E-01 -0.15939695379E+03  0.26840818000E+03  0.89626635289E+02 0.  0.
          5    1    3    3  502    0 -0.34898805427E+02  0.48657259174E+02 -0.43626069335E+02  0.74203516198E+02  0.41800000000E+01 0.  1.
         -5    1    3    3    0  502 -0.16157670784E+03 -0.48623366463E+02 -0.22650084414E+03  0.28247366086E+03  0.41800000000E+01 0.  1.
        -11    1    4    4    0    0  0.10713495292E+03  0.29712578543E+02 -0.44247831719E+02  0.11966037804E+03  0.00000000000E+00 0.  1.
         11    1    4    4    0    0  0.89340560346E+02 -0.29746471254E+02 -0.11514912207E+03  0.14874780196E+03  0.00000000000E+00 0. -1.
</event>
<event>
 8    1  0.8619230E-006  0.7995088E+02  0.7561462E-02  0.1329191E+00
         -1   -1    0    0    0  501 -0.00000000000E+00  0.00000000000E+00  0.44702039650E+03  0.44702039650E+03  0.00000000000E+00 0.  1.
          1   -1    0    0  501    0  0.00000000000E+00 -0.00000000000E+00 -0.27074041865E+02  0.27074041865E+02  0.00000000000E+00 0. -1.
         23    2    1    2    0    0  0.26244955531E+01 -0.18029822850E+02  0.28893347989E+03  0.31537481629E+03  0.12508699555E+03 0.  0.
         23    2    1    2    0    0 -0.26244955531E+01  0.18029822850E+02  0.13101287474E+03  0.15871962208E+03  0.87724469765E+02 0.  0.
          5    1    3    3  502    0  0.23188737522E+02 -0.62028341188E+02  0.22734194172E+03  0.23682707515E+03  0.41800000000E+01 0.  1.
         -5    1    3    3    0  502 -0.20564241969E+02  0.43998518338E+02  0.61591538174E+02  0.78547741141E+02  0.41800000000E+01 0.  1.
        -11    1    4    4    0    0 -0.19856165271E+02  0.19081531454E+02  0.13753502644E+03  0.14026494801E+03  0.00000000000E+00 0.  1.
         11    1    4    4    0    0  0.17231669718E+02 -0.10517086036E+01 -0.65221516974E+01  0.18454674070E+02  0.00000000000E+00 0. -1.
</event>
<event>
 8    1  0.8619230E-006  0.2820196E+03  0.7561462E-02  0.1094591E+00
         -1   -1    0    0    0  501 -0.00000000000E+00  0.00000000000E+00  0.44536506007E+03  0.44536506007E+03  0.00000000000E+00 0.  1.
          1   -1    0    0  501    0  0.00000000000E+00 -0.00000000000E+00 -0.19450215765E+03  0.19450215765E+03  0.00000000000E+00 0. -1.
         23    2    1    2    0    0 -0.16269517288E+03  0.21629970191E+03  0.87023869146E+02  0.31061052138E+03  0.12510180601E+03 0.  0.
         23    2    1    2    0    0  0.16269517288E+03 -0.21629970191E+03  0.16383903327E+03  0.32925669633E+03  0.91167225098E+02 0.  0.
          5    1    3    3  502    0 -0.80814815023E+02  0.24116263440E+02  0.50827940647E+02  0.98557498141E+02  0.41800000000E+01 0.  1.
         -5    1    3    3    0  502 -0.81880357856E+02  0.19218343847E+03  0.36195928499E+02  0.21205302324E+03  0.41800000000E+01 0.  1.
        -11    1    4    4    0    0  0.47609502832E+02 -0.63917874459E+02  0.32782580175E+01  0.79767828170E+02  0.00000000000E+00 0. -1.
         11    1    4    4    0    0  0.11508567005E+03 -0.15238182746E+03  0.16056077525E+03  0.24948886816E+03  0.00000000000E+00 0.  1.
</event>
<event>
 8    1  0.8619230E-006  0.1162301E+03  0.7561462E-02  0.1249449E+00
         -1   -1    0    0    0  501 -0.00000000000E+00  0.00000000000E+00  0.39957327605E+03  0.39957327605E+03  0.00000000000E+00 0.  1.
          1   -1    0    0  501    0  0.00000000000E+00 -0.00000000000E+00 -0.37369428077E+03  0.37369428077E+03  0.00000000000E+00 0. -1.
         23    2    1    2    0    0 -0.18725548595E+02  0.69025329459E+02  0.37768985397E+03  0.40199931617E+03  0.11763792810E+03 0.  0.
         23    2    1    2    0    0  0.18725548595E+02 -0.69025329459E+02 -0.35181085869E+03  0.37126824065E+03  0.94626021515E+02 0.  0.
          5    1    3    3  502    0  0.40302009996E+02  0.81606105551E+01  0.57930846344E+02  0.71163915944E+02  0.41800000000E+01 0. -1.
         -5    1    3    3    0  502 -0.59027558591E+02  0.60864718903E+02  0.31975900763E+03  0.33083540022E+03  0.41800000000E+01 0.  1.
        -11    1    4    4    0    0  0.49272384391E+02 -0.34557265494E+02 -0.11270257411E+03  0.12776479434E+03  0.00000000000E+00 0.  1.
         11    1    4    4    0    0 -0.30546835796E+02 -0.34468063965E+02 -0.23910828458E+03  0.24350344631E+03  0.00000000000E+00 0. -1.
</event>
<event>
 7    1  0.8619230E-006  0.1360153E+03  0.7561462E-02  0.1218793E+00
          2   -1    0    0  501    0  0.00000000000E+00  0.00000000000E+00  0.27634784204E+03  0.27634784204E+03  0.00000000000E+00 0. -1.
         -2   -1    0    0    0  501 -0.00000000000E+00 -0.00000000000E+00 -0.10172114269E+03  0.10172114269E+03  0.00000000000E+00 0.  1.
         23    2    1    2    0    0 -0.60732458999E+01 -0.10336576065E+03  0.14210327368E+03  0.20020819748E+03  0.95752896329E+02 0.  0.
          5    1    1    2  502    0  0.42330667337E+01  0.11770934715E+03  0.70273778427E+02  0.13721984403E+03  0.41800000000E+01 0. -1.
         -5    1    1    2    0  502  0.18401791661E+01 -0.14343586494E+02 -0.37750352754E+02  0.40640943222E+02  0.41800000000E+01 0.  1.
        -11    1    3    3    0    0  0.32377797159E+02 -0.40642217322E+01  0.20346926646E+02  0.38455650704E+02  0.00000000000E+00 0. -1.
         11    1    3    3    0    0 -0.38451043059E+02 -0.99301538922E+02  0.12175634703E+03  0.16175254677E+03  0.00000000000E+00 0.  1.
</event>
<event>
 8    1  0.8619230E-006  0.9792179E+02  0.7561462E-02  0.1284728E+00
         -2   -1    0    0    0  501 -0.00000000000E+00  0.00000000000E+00  0.43436560644E+03  0.43436560644E+03  0.00000000000E+00 0.  1.
          2   -1    0    0  501    0  0.00000000000E+00 -0.00000000000E+00 -0.30516782347E+02  0.30516782347E+02  0.00000000000E+00 0. -1.
         23    2    1    2    0    0  0.38196551196E+02 -0.79059576484E+01  0.21554193152E+03  0.25224359324E+03  0.12508807057E+03 0.  0.
         23    2    1    2    0    0 -0.38196551196E+02  0.79059576484E+01  0.18830689258E+03  0.21263879555E+03  0.90742993615E+02 0.  0.
          5    1    3    3  502    0  0.69941153089E+02  0.31887362493E+02  0.15477909378E+03  0.17286587013E+03  0.41800000000E+01 0.  1.
         -5    1    3    3    0  502 -0.31744601893E+02 -0.39793320142E+02  0.60762837736E+02  0.79377723115E+02  0.41800000000E+01 0.  1.
        -11    1    4    4    0    0 -0.18978253500E+02 -0.23965549500E+02  0.12652420016E+02  0.33084821309E+02  0.00000000000E+00 0. -1.
         11    1    4    4    0    0 -0.19218297696E+02  0.31871507148E+02  0.17565447256E+03  0.17955397424E+03  0.00000000000E+00 0.  1.
</event>
<event>
 8    1  0.8619230E-006  0.1232785E+03  0.7561462E-02  0.1237784E+00
         -1   -1    0    0    0  501 -0.00000000000E+00  0.00000000000E+00  0.67151450451E+02  0.67151450451E+02  0.00000000000E+00 0.  1.
          1   -1    0    0  501    0  0.00000000000E+00 -0.00000000000E+00 -0.23646649736E+03  0.23646649736E+03  0.00000000000E+00 0. -1.
         23    2    1    2    0    0  0.52922655399E+02  0.35855991071E+02 -0.78745800047E+02  0.16104486500E+03  0.12509231779E+03 0.  0.
         23    2    1    2    0    0 -0.52922655399E+02 -0.35855991071E+02 -0.90569246861E+02  0.14257308281E+03  0.89653978795E+02 0.  0.
          5    1    3    3  502    0  0.96798956297E+01  0.76347584299E+02 -0.25216286267E+02  0.81092462664E+02  0.41800000000E+01 0. -1.
         -5    1    3    3    0  502  0.43242759769E+02 -0.40491593228E+02 -0.53529513780E+02  0.79952402341E+02  0.41800000000E+01 0. -1.
        -11    1    4    4    0    0 -0.76326329062E+02 -0.13079147413E+02 -0.64737104030E+02  0.10093396477E+03  0.00000000000E+00 0. -1.
         11    1    4    4    0    0  0.23403673663E+02 -0.22776843658E+02 -0.25832142831E+02  0.41639118040E+02  0.00000000000E+00 0.  1.
</event>
<event>
 8    1  0.8619230E-006  0.1048011E+03  0.7561462E-02  0.1270512E+00
         -1   -1    0    0    0  501 -0.00000000000E+00  0.00000000000E+00  0.26271050414E+02  0.26271050414E+02  0.00000000000E+00 0.  1.
          1   -1    0    0  501    0  0.00000000000E+00 -0.00000000000E+00 -0.46458445427E+03  0.46458445427E+03  0.00000000000E+00 0. -1.
         23    2    1    2    0    0 -0.24809092767E+02 -0.17173289109E+01 -0.26670240865E+03  0.29562587573E+03  0.12508414495E+03 0.  0.
         23    2    1    2    0    0  0.24809092767E+02  0.17173289109E+01 -0.17161099521E+03  0.19522962896E+03  0.89698573261E+02 0.  0.
          5    1    3    3  502    0  0.36002111215E+02  0.38586787128E+02 -0.90091567681E+02  0.10449428271E+03  0.41800000000E+01 0.  1.
         -5    1    3    3    0  502 -0.60811203983E+02 -0.40304116039E+02 -0.17661084097E+03  0.19113159301E+03  0.41800000000E+01 0.  1.
        -11    1    4    4    0    0  0.48238130192E+02 -0.19451713441E+02 -0.60822190385E+02  0.80028902300E+02  0.00000000000E+00 0.  1.
         11    1    4    4    0    0 -0.23429037425E+02  0.21169042352E+02 -0.11078880482E+03  0.11520072666E+03  0.00000000000E+00 0. -1.
</event>
<event>
 7    1  0.8619230E-006  0.6930695E+02  0.7561462E-02  0.1362466E+00
         -2   -1    0    0    0  501 -0.00000000000E+00  0.00000000000E+00  0.17278865937E+04  0.17278865937E+04  0.00000000000E+00 0.  1.
          2   -1    0    0  501    0  0.00000000000E+00 -0.00000000000E+00 -0.51508360753E+01  0.51508360753E+01  0.00000000000E+00 0. -1.
         23    2    1    2    0    0 -0.18185861458E+02 -0.59508998180E+01  0.16826341499E+04  0.16873259055E+04  0.12427747248E+03 0.  0.
          5    1    3    3  502    0  0.47576481380E+02 -0.17555770226E+02  0.10336670542E+04  0.10349187302E+04  0.41800000000E+01 0. -1.
         -5    1    3    3    0  502 -0.65762342838E+02  0.11604870408E+02  0.64896709572E+03  0.65240717537E+03  0.41800000000E+01 0.  1.
        -11    1    1    2    0    0  0.74949882994E+01  0.67679927717E+01  0.26717293629E+02  0.28562113973E+02  0.00000000000E+00 0. -1.
         11    1    1    2    0    0  0.10690873158E+02 -0.81709295373E+00  0.13384314039E+02  0.17149410254E+02  0.00000000000E+00 0.  1.
</event>
<event>
 8    1  0.8619230E-006  0.6308078E+02  0.7561462E-02  0.1385340E+00
         -2   -1    0    0    0  501 -0.00000000000E+00  0.00000000000E+00  0.84378885900E+02  0.84378885900E+02  0.00000000000E+00 0.  1.
          2   -1    0    0  501    0  0.00000000000E+00 -0.00000000000E+00 -0.16274256774E+03  0.16274256774E+03  0.00000000000E+00 0. -1.
         23    2    1    2    0    0 -0.26853338862E+02 -0.18731982481E+02 -0.11850141117E+02  0.12984858236E+03  0.12509292354E+03 0.  0.
         23    2    1    2    0    0  0.26853338862E+02  0.18731982481E+02 -0.66513540725E+02  0.11727287128E+03  0.90867410347E+02 0.  0.
          5    1    3    3  502    0  0.12207203079E+02 -0.82693682699E+01 -0.62814095116E+02  0.64656640833E+02  0.41800000000E+01 0.  1.
         -5    1    3    3    0  502 -0.39060541941E+02 -0.10462614211E+02  0.50963953999E+02  0.65191941527E+02  0.41800000000E+01 0.  1.
        -11    1    4    4    0    0 -0.19943168468E+02  0.46766305553E+00  0.12573482986E+02  0.23580524839E+02  0.00000000000E+00 0.  1.
         11    1    4    4    0    0  0.46796507330E+02  0.18264319426E+02 -0.79087023711E+02  0.93692346442E+02  0.00000000000E+00 0. -1.
</event>
<event>
 7    1  0.8619230E-006  0.2008768E+03  0.7561462E-02  0.1149001E+00
          1   -1    0    0  501    0  0.00000000000E+00  0.00000000000E+00  0.89352954176E+03  0.89352954176E+03  0.00000000000E+00 0. -1.
         -1   -1    0    0    0  501 -0.00000000000E+00 -0.00000000000E+00 -0.48402025791E+02  0.48402025791E+02  0.00000000000E+00 0.  1.
         23    2    1    2    0    0  0.11860643829E+03  0.88926286737E+02  0.43774609990E+03  0.47063543853E+03  0.88885861316E+02 0.  0.
          5    1    1    2  502    0 -0.10560115694E+03 -0.14038795137E+03  0.35742990033E+03  0.39828882396E+03  0.41800000000E+01 0. -1.
         -5    1    1    2    0  502 -0.13005281344E+02  0.51461664629E+02  0.49951515735E+02  0.73007305069E+02  0.41800000000E+01 0.  1.
        -11    1    3    3    0    0  0.88049733228E+02  0.10566110417E+02  0.23077029760E+03  0.24722323609E+03  0.00000000000E+00 0.  1.
         11    1    3    3    0    0  0.30556705060E+02  0.78360176320E+02  0.20697580231E+03  0.22341220243E+03  0.00000000000E+00 0. -1.
</event>
<event>
 8    1  0.8619230E-006  0.3343408E+03  0.7561462E-02  0.1069232E+00
          2   -1    0    0  501    0  0.00000000000E+00  0.00000000000E+00  0.14917090886E+04  0.14917090886E+04  0.00000000000E+00 0.  1.
         -2   -1    0    0    0  501 -0.00000000000E+00 -0.00000000000E+00 -0.78819586754E+02  0.78819586754E+02  0.00000000000E+00 0. -1.
         23    2    1    2    0    0  0.99706298442E+02 -0.30060933160E+03  0.54820096491E+03  0.64535248268E+03  0.12509281663E+03 0.  0.
         23    2    1    2    0    0 -0.99706298442E+02  0.30060933160E+03  0.86468853693E+03  0.92517619267E+03  0.89204290259E+02 0.  0.
          5    1    3    3  502    0  0.12236494920E+03 -0.29019051001E+03  0.51387717885E+03  0.60271961992E+03  0.41800000000E+01 0.  1.
         -5    1    3    3    0  502 -0.22658650753E+02 -0.10418821587E+02  0.34323786060E+02  0.42632862755E+02  0.41800000000E+01 0.  1.
        -11    1    4    4    0    0 -0.11547001788E+03  0.27631646340E+03  0.77119407751E+03  0.82729947308E+03  0.00000000000E+00 0.  1.
         11    1    4    4    0    0  0.15763719441E+02  0.24292868198E+02  0.93494459418E+02  0.97876719590E+02  0.00000000000E+00 0. -1.
</event>
<event>
 8    1  0.8619230E-006  0.9862530E+02  0.7561462E-02  0.1283214E+00
          4   -1    0    0  501    0  0.00000000000E+00  0.00000000000E+00  0.18485263532E+03  0.18485263532E+03  0.00000000000E+00 0. -1.
         -4   -1    0    0    0  501 -0.00000000000E+00 -0.00000000000E+00 -0.78745187983E+02  0.78745187983E+02  0.00000000000E+00 0.  1.
         23    2    1    2    0    0 -0.11342695112E+01  0.52919497910E+02  0.51886604079E+02  0.14540596805E+03  0.12509562756E+03 0.  0.
         23    2    1    2    0    0  0.11342695112E+01 -0.52919497910E+02  0.54220843254E+02  0.11819185525E+03  0.90706421926E+02 0.  0.
          5    1    3    3  502    0 -0.54561203919E+02  0.24599302817E+02  0.59281521689E+02  0.84343475657E+02  0.41800000000E+01 0.  1.
         -5    1    3    3    0  502  0.53426934408E+02  0.28320195093E+02 -0.73949176096E+01  0.61062492389E+02  0.41800000000E+01 0.  1.
        -11    1    4    4    0    0  0.14913799723E+02 -0.59521911767E+02 -0.51428863527E+00  0.61364027699E+02  0.00000000000E+00 0.  1.
         11    1    4    4    0    0 -0.13779530212E+02  0.66024138573E+01  0.54735131889E+02  0.56827827555E+02  0.00000000000E+00 0. -1.
</event>
<event>
 8    1  0.8619230E-006  0.2525096E+03  0.7561462E-02  0.1111729E+00
          1   -1    0    0  501    0  0.00000000000E+00  0.00000000000E+00  0.15386998860E+04  0.15386998860E+04  0.00000000000E+00 0. -1.
         -1   -1    0    0    0  501 -0.00000000000E+00 -0.00000000000E+00 -0.44630677034E+02  0.44630677034E+02  0.00000000000E+00 0.  1.
         23    2    1    2    0    0 -0.18978069266E+03  0.13866826874E+03  0.65435944515E+03  0.70645629752E+03  0.12509443144E+03 0.  0.
         23    2    1    2    0    0  0.18978069266E+03 -0.13866826874E+03  0.83970976385E+03  0.87687426556E+03  0.92468319038E+02 0.  0.
          5    1    3    3  502    0  0.14452866113E+02 -0.50235650643E+00  0.76240975504E+02  0.77712910425E+02  0.41800000000E+01 0.  1.
         -5    1    3    3    0  502 -0.20423355877E+03  0.13917062525E+03  0.57811846965E+03  0.62874338709E+03  0.41800000000E+01 0.  1.
        -11    1    4    4    0    0  0.12832588376E+03 -0.12639218437E+03  0.50049080284E+03  0.53191499362E+03  0.00000000000E+00 0.  1.
         11    1    4    4    0    0  0.61454808898E+02 -0.12276084375E+02  0.33921896101E+03  0.34495927193E+03  0.00000000000E+00 0. -1.
</event>
<event>
 7    1  0.8619230E-006  0.1231452E+03  0.7561462E-02  0.1237997E+00
          4   -1    0    0  501    0  0.00000000000E+00  0.00000000000E+00  0.28922533039E+03  0.28922533039E+03  0.00000000000E+00 0. -1.
         -4   -1    0    0    0  501 -0.00000000000E+00 -0.00000000000E+00 -0.86474893659E+02  0.86474893659E+02  0.00000000000E+00 0.  1.
         23    2    1    2    0    0 -0.37820141391E+02  0.69493728193E+02  0.61629543570E+02  0.16033176506E+03  0.12509329676E+03 0.  0.
          5    1    3    3  502    0 -0.28981321845E+02 -0.41152861463E+01 -0.30180458721E+02  0.42251450681E+02  0.41800000000E+01 0.  1.
         -5    1    3    3    0  502 -0.88388195458E+01  0.73609014339E+02  0.91810002292E+02  0.11808031438E+03  0.41800000000E+01 0.  1.
        -11    1    1    2    0    0 -0.41128640899E+02 -0.42213153141E+02  0.98183969507E+01  0.59748776715E+02  0.00000000000E+00 0.  1.
         11    1    1    2    0    0  0.78948782290E+02 -0.27280575052E+02  0.13130249621E+03  0.15561968228E+03  0.00000000000E+00 0. -1.
</event>
<event>
 8    1  0.8619230E-006  0.1683138E+03  0.7561462E-02  0.1179618E+00
         -1   -1    0    0    0  501 -0.00000000000E+00  0.00000000000E+00  0.69420657866E+02  0.69420657866E+02  0.00000000000E+00 0. -1.
          1   -1    0    0  501    0  0.00000000000E+00 -0.00000000000E+00 -0.48308987262E+03  0.48308987262E+03  0.00000000000E+00 0.  1.
         23    2    1    2    0    0  0.13845042658E+03  0.59443977365E+02 -0.23509687805E+03  0.30597379495E+03  0.12508922441E+03 0.  0.
         23    2    1    2    0    0 -0.13845042658E+03 -0.59443977365E+02 -0.17857233670E+03  0.24653673553E+03  0.78677668167E+02 0.  0.
          5    1    3    3  502    0  0.15334616831E+03  0.54587405083E+02 -0.23909494738E+03  0.28927270593E+03  0.41800000000E+01 0.  1.
         -5    1    3    3    0  502 -0.14895741735E+02  0.48565722821E+01  0.39980693339E+01  0.16701089024E+02  0.41800000000E+01 0.  1.
        -11    1    4    4    0    0 -0.54310846881E+02  0.43869699554E+00 -0.21198385323E+02  0.58302933754E+02  0.00000000000E+00 0.  1.
         11    1    4    4    0    0 -0.84139579696E+02 -0.59882674361E+02 -0.15737395138E+03  0.18823380178E+03  0.00000000000E+00 0. -1.
</event>
<event>
 7    1  0.8619230E-006  0.1336343E+03  0.7561462E-02  0.1222161E+00
         -1   -1    0    0    0  501 -0.00000000000E+00  0.00000000000E+00  0.12222197431E+03  0.12222197431E+03  0.00000000000E+00 0.  1.
          1   -1    0    0  501    0  0.00000000000E+00 -0.00000000000E+00 -0.17783562376E+03  0.17783562376E+03  0.00000000000E+00 0. -1.
         23    2    1    2    0    0 -0.78567692553E+02  0.41051981977E+02 -0.57624050544E+02  0.13986286745E+03  0.91558412792E+02 0.  0.
          5    1    1    2  502    0 -0.32150746695E+02 -0.16605327742E+02 -0.24215512255E+02  0.43740951707E+02  0.41800000000E+01 0. -1.
         -5    1    1    2    0  502  0.11071843925E+03 -0.24446654235E+02  0.26225913351E+02  0.11645377892E+03  0.41800000000E+01 0.  1.
        -11    1    3    3    0    0 -0.42918642093E+02 -0.19478459495E+02  0.27830367450E+01  0.47214039405E+02  0.00000000000E+00 0.  1.
         11    1    3    3    0    0 -0.35649050460E+02  0.60530441471E+02 -0.60407087289E+02  0.92648828046E+02  0.00000000000E+00 0. -1.
</event>
<event>
 7    1  0.8619230E-006  0.1580055E+03  0.7561462E-02  0.1190967E+00
          1   -1    0    0  501    0  0.00000000000E+00  0.00000000000E+00  0.90204819235E+03  0.90204819235E+03  0.00000000000E+00 0. -1.
         -1   -1    0    0    0  501 -0.00000000000E+00 -0.00000000000E+00 -0.33142370410E+02  0.33142370410E+02  0.00000000000E+00 0.  1.
         23    2    1    2    0    0 -0.58666467284E+02  0.64342845742E+02  0.38868048289E+03  0.40880992873E+03  0.92039577689E+02 0.  0.
          5    1    1    2  502    0  0.45447825199E+02 -0.12414445151E+03  0.20191423150E+03  0.24137974011E+03  0.41800000000E+01 0. -1.
         -5    1    1    2    0  502  0.13218642085E+02  0.59801605764E+02  0.27831110755E+03  0.28500089392E+03  0.41800000000E+01 0.  1.
        -11    1    3    3    0    0 -0.60037081261E+02  0.83669161094E+02  0.35805872273E+03  0.37257352102E+03  0.00000000000E+00 0.  1.
         11    1    3    3    0    0  0.13706139778E+01 -0.19326315352E+02  0.30621760168E+02  0.36236407708E+02  0.00000000000E+00 0. -1.
</event>
<event>
 8    1  0.8619230E-006  0.1271345E+03  0.7561462E-02  0.1231771E+00
          1   -1    0    0  501    0  0.00000000000E+00  0.00000000000E+00  0.63143510484E+03  0.63143510484E+03  0.00000000000E+00 0. -1.
         -1   -1    0    0    0  501 -0.00000000000E+00 -0.00000000000E+00 -0.28782268058E+02  0.28782268058E+02  0.00000000000E+00 0.  1.
         23    2    1    2    0    0  0.69473231880E+02  0.30975231263E+02  0.26743557756E+03  0.30488470587E+03  0.12508757265E+03 0.  0.
         23    2    1    2    0    0 -0.69473231880E+02 -0.30975231263E+02  0.33521725922E+03  0.35533266703E+03  0.90026098859E+02 0.  0.
          5    1    3    3  502    0  0.74576935322E+02  0.69638440982E+02  0.15331700921E+03  0.18421403165E+03  0.41800000000E+01 0. -1.
         -5    1    3    3    0  502 -0.51037034419E+01 -0.38663209719E+02  0.11411856835E+03  0.12067067422E+03  0.41800000000E+01 0. -1.
        -11    1    4    4    0    0 -0.35379561496E+02 -0.58998533279E+02  0.25094731781E+03  0.26020587353E+03  0.00000000000E+00 0. -1.
         11    1    4    4    0    0 -0.34093670385E+02  0.28023302017E+02  0.84269941409E+02  0.95126793498E+02  0.00000000000E+00 0.  1.
</event>
<event>
 8    1  0.8619230E-006  0.1772202E+03  0.7561462E-02  0.1170521E+00
          1   -1    0    0  501    0  0.00000000000E+00  0.00000000000E+00  0.49751286035E+03  0.49751286035E+03  0.00000000000E+00 0. -1.
         -1   -1    0    0    0  501 -0.00000000000E+00 -0.00000000000E+00 -0.69258501711E+02  0.69258501711E+02  0.00000000000E+00 0.  1.
         23    2    1    2    0    0 -0.12759649668E+03 -0.78559548720E+02  0.23555886596E+03  0.30592145686E+03  0.12508992674E+03 0.  0.
         23    2    1    2    0    0  0.12759649668E+03  0.78559548720E+02  0.19269549268E+03  0.26084990520E+03  0.91970927391E+02 0.  0.
          5    1    3    3  502    0 -0.36306155295E+02  0.22482290696E+02  0.11943513178E+03  0.12690868138E+03  0.41800000000E+01 0.  1.
         -5    1    3    3    0  502 -0.91290341386E+02 -0.10104183942E+03  0.11612373418E+03  0.17901277547E+03  0.41800000000E+01 0.  1.
        -11    1    4    4    0    0  0.26018685248E+02  0.68434125985E+02  0.70678116416E+02  0.10176245733E+03  0.00000000000E+00 0.  1.
         11    1    4    4    0    0  0.10157781143E+03  0.10125422735E+02  0.12201737626E+03  0.15908744787E+03  0.00000000000E+00 0. -1.
</event>
<event>
 8    1  0.8619230E-006  0.1248147E+03  0.7561462E-02  0.1235359E+00
         -2   -1    0    0    0  501 -0.00000000000E+00  0.00000000000E+00  0.14337794832E+02  0.14337794832E+02  0.00000000000E+00 0.  1.
          2   -1    0    0  501    0  0.00000000000E+00 -0.00000000000E+00 -0.11735971592E+04  0.11735971592E+04  0.00000000000E+00 0. -1.
         23    2    1    2    0    0 -0.25805131079E+02  0.62842576050E+02 -0.74538453399E+03  0.75885484652E+03  0.12508988932E+03 0.  0.
         23    2    1    2    0    0  0.25805131079E+02 -0.62842576050E+02 -0.41387483041E+03  0.42908010755E+03  0.90566380603E+02 0.  0.
          5    1    3    3  502    0  0.49664894339E+02  0.26244577617E+02 -0.36409974538E+03  0.36843110152E+03  0.41800000000E+01 0.  1.
         -5    1    3    3    0  502 -0.75470025419E+02  0.36597998433E+02 -0.38128478861E+03  0.39042374499E+03  0.41800000000E+01 0.  1.
        -11    1    4    4    0    0 -0.31189544482E+02 -0.13699228602E+02 -0.82286558514E+02  0.89059161580E+02  0.00000000000E+00 0.  1.
         11    1    4    4    0    0  0.56994675561E+02 -0.49143347449E+02 -0.33158827190E+03  0.34002094597E+03  0.00000000000E+00 0. -1.
</event>
<event>
 8    1  0.8619230E-006  0.1051991E+03  0.7561462E-02  0.1269728E+00
         -1   -1    0    0    0  501 -0.00000000000E+00  0.00000000000E+00  0.60834691632E+02  0.60834691632E+02  0.00000000000E+00 0.  1.
          1   -1    0    0  501    0  0.00000000000E+00 -0.00000000000E+00 -0.21833943074E+03  0.21833943074E+03  0.00000000000E+00 0. -1.
         23    2    1    2    0    0 -0.32943455909E+01  0.36907032540E+02 -0.95125647134E+02  0.16145781194E+03  0.12508698785E+03 0.  0.
         23    2    1    2    0    0  0.32943455909E+01 -0.36907032540E+02 -0.62379091978E+02  0.11771631044E+03  0.92698418882E+02 0.  0.
          5    1    3    3  502    0 -0.37906357276E+02 -0.23660447113E+02 -0.77221551990E+02  0.89316007363E+02  0.41800000000E+01 0.  1.
         -5    1    3    3    0  502  0.34612011685E+02  0.60567479653E+02 -0.17904095143E+02  0.72141804575E+02  0.41800000000E+01 0.  1.
        -11    1    4    4    0    0 -0.90776712719E+00  0.29289676240E+02 -0.44271170692E+01  0.29636270699E+02  0.00000000000E+00 0.  1.
         11    1    4    4    0    0  0.42021127181E+01 -0.66196708780E+02 -0.57951974908E+02  0.88080039739E+02  0.00000000000E+00 0. -1.
</event>
<event>
 8    1  0.8619230E-006  0.1294733E+03  0.7561462E-02  0.1228239E+00
          2   -1    0    0  501    0  0.00000000000E+00  0.00000000000E+00  0.65552388943E+02  0.65552388943E+02  0.00000000000E+00 0.  1.
         -2   -1    0    0    0  501 -0.00000000000E+00 -0.00000000000E+00 -0.31845590441E+03  0.31845590441E+03  0.00000000000E+00 0. -1.
         23    2    1    2    0    0  0.83800447705E+02 -0.37038613159E+02 -0.17259789284E+03  0.23200560913E+03  0.12506876570E+03 0.  0.
         23    2    1    2    0    0 -0.83800447705E+02  0.37038613159E+02 -0.80305622632E+02  0.15200268423E+03  0.90892513915E+02 0.  0.
          5    1    3    3  502    0 -0.24813821384E+02  0.19724024508E+02 -0.28887153436E+02  0.43089475608E+02  0.41800000000E+01 0.  1.
         -5    1    3    3    0  502  0.10861426909E+03 -0.56762637668E+02 -0.14371073940E+03  0.18891613352E+03  0.41800000000E+01 0.  1.
        -11    1    4    4    0    0 -0.82043713870E+02  0.16436722751E+02 -0.95030991478E+02  0.12661842750E+03  0.00000000000E+00 0.  1.
         11    1    4    4    0    0 -0.17567338355E+01  0.20601890408E+02  0.14725368846E+02  0.25384256732E+02  0.00000000000E+00 0. -1.
</event>
<event>
 8    1  0.8619230E-006  0.7345431E+02  0.7561462E-02  0.1348725E+00
         -1   -1    0    0    0  501 -0.00000000000E+00  0.00000000000E+00  0.44927113800E+02  0.44927113800E+02  0.00000000000E+00 0.  1.
          1   -1    0    0  501    0  0.00000000000E+00 -0.00000000000E+00 -0.33918427311E+03  0.33918427311E+03  0.00000000000E+00 0. -1.
         23    2    1    2    0    0  0.34627877946E+02  0.20081287947E+02 -0.10247588377E+03  0.16658599952E+03  0.12508893007E+03 0.  0.
         23    2    1    2    0    0 -0.34627877946E+02 -0.20081287947E+02 -0.19178127554E+03  0.21752538739E+03  0.94524538899E+02 0.  0.
          5    1    3    3  502    0 -0.14851670098E+02 -0.17333328315E+02 -0.10179732561E+03  0.10440873659E+03  0.41800000000E+01 0. -1.
         -5    1    3    3    0  502  0.49479548045E+02  0.37414616262E+02 -0.67855816260E+00  0.62177262933E+02  0.41800000000E+01 0. -1.
        -11    1    4    4    0    0 -0.36993387169E+02  0.41118358621E+01 -0.18948785389E+03  0.19310894505E+03  0.00000000000E+00 0. -1.
         11    1    4    4    0    0  0.23655092229E+01 -0.24193123809E+02 -0.22934216533E+01  0.24416442337E+02  0.00000000000E+00 0.  1.
</event>
<event>
 8    1  0.8619230E-006  0.9706855E+02  0.7561462E-02  0.1286584E+00
          2   -1    0    0  501    0  0.00000000000E+00  0.00000000000E+00  0.60122375251E+03  0.60122375251E+03  0.00000000000E+00 0. -1.
         -2   -1    0    0    0  501 -0.00000000000E+00 -0.00000000000E+00 -0.24663519387E+02  0.24663519387E+02  0.00000000000E+00 0.  1.
         23    2    1    2    0    0 -0.55619927443E+02  0.73131427847E+01  0.32124349293E+03  0.34927816485E+03  0.12510314266E+03 0.  0.
         23    2    1    2    0    0  0.55619927443E+02 -0.73131427847E+01  0.25531674019E+03  0.27660910705E+03  0.90437281542E+02 0.  0.
          5    1    3    3  502    0  0.25032675802E+02  0.22504918720E+01  0.21095559749E+03  0.21248867284E+03  0.41800000000E+01 0. -1.
         -5    1    3    3    0  502 -0.80652603245E+02  0.50626509127E+01  0.11028789544E+03  0.13678949201E+03  0.41800000000E+01 0. -1.
        -11    1    4    4    0    0  0.61654494191E+02  0.15967693655E+02  0.23950115723E+03  0.24782463197E+03  0.00000000000E+00 0. -1.
         11    1    4    4    0    0 -0.60345667483E+01 -0.23280836440E+02  0.15815582960E+02  0.28784475078E+02  0.00000000000E+00 0.  1.
</event>
<event>
 8    1  0.1889299E-005  0.2801184E+03  0.7561462E-02  0.1095624E+00
         -2   -1    0    0    0  501 -0.00000000000E+00  0.00000000000E+00  0.25447150993E+03  0.25447150993E+03  0.00000000000E+00 0.  1.
          2   -1    0    0  501    0  0.00000000000E+00 -0.00000000000E+00 -0.34373253254E+03  0.34373253254E+03  0.00000000000E+00 0. -1.
         23    2    1    2    0    0 -0.23425761260E+02 -0.26861809160E+03  0.67764111614E+01  0.29731851167E+03  0.12509169518E+03 0.  0.
         23    2    1    2    0    0  0.23425761260E+02  0.26861809160E+03 -0.96037433776E+02  0.30088553081E+03  0.92760274550E+02 0.  0.
          5    1    3    3  502    0 -0.31287647117E+02 -0.16819215164E+02 -0.24608715613E+02  0.43415022111E+02  0.41800000000E+01 0.  1.
         -5    1    3    3    0  502  0.78618858569E+01 -0.25179887644E+03  0.31385126774E+02  0.25390348955E+03  0.41800000000E+01 0.  1.
        -11    1    4    4    0    0 -0.37639887790E+01  0.17465538777E+03 -0.10303611851E+03  0.20281793266E+03  0.00000000000E+00 0. -1.
         11    1    4    4    0    0  0.27189750039E+02  0.93962703832E+02  0.69986847366E+01  0.98067598148E+02  0.00000000000E+00 0.  1.
</event>
<event>
 8    1  0.8619230E-006  0.1447452E+03  0.7561462E-02  0.1207083E+00
         -2   -1    0    0    0  501 -0.00000000000E+00  0.00000000000E+00  0.10408045194E+04  0.10408045194E+04  0.00000000000E+00 0.  1.
          2   -1    0    0  501    0  0.00000000000E+00 -0.00000000000E+00 -0.39263270924E+02  0.39263270924E+02  0.00000000000E+00 0. -1.
         23    2    1    2    0    0  0.48828521906E+02 -0.11212278082E+03  0.83911521796E+03  0.85715669788E+03  0.12509002029E+03 0.  0.
         23    2    1    2    0    0 -0.48828521906E+02  0.11212278082E+03  0.16242603050E+03  0.22291109243E+03  0.91385979315E+02 0.  0.
          5    1    3    3  502    0 -0.19756090634E+02  0.50557563177E+01  0.31624968699E+03  0.31693406366E+03  0.41800000000E+01 0.  1.
         -5    1    3    3    0  502  0.68584612540E+02 -0.11717853713E+03  0.52286553097E+03  0.54022263422E+03  0.41800000000E+01 0.  1.
        -11    1    4    4    0    0  0.11173907318E+02  0.19525027672E+02  0.85483883998E+02  0.88394441758E+02  0.00000000000E+00 0.  1.
         11    1    4    4    0    0 -0.60002429223E+02  0.92597753143E+02  0.76942146504E+02  0.13451665067E+03  0.00000000000E+00 0. -1.
</event>
<event>
 8    1  0.8619230E-006  0.1553911E+03  0.7561462E-02  0.1194001E+00
         -2   -1    0    0    0  501 -0.00000000000E+00  0.00000000000E+00  0.33959429118E+02  0.33959429118E+02  0.00000000000E+00 0.  1.
          2   -1    0    0  501    0  0.00000000000E+00 -0.00000000000E+00 -0.96828905177E+03  0.96828905177E+03  0.00000000000E+00 0. -1.
         23    2    1    2    0    0  0.35118537633E+02 -0.12827299957E+03 -0.33130353026E+03  0.37828065299E+03  0.12508776581E+03 0.  0.
         23    2    1    2    0    0 -0.35118537633E+02  0.12827299957E+03 -0.60302609238E+03  0.62396782790E+03  0.89488032999E+02 0.  0.
          5    1    3    3  502    0 -0.19322418315E+02  0.20107359279E+01 -0.20182370393E+01  0.19973597304E+02  0.41800000000E+01 0.  1.
         -5    1    3    3    0  502  0.54440955948E+02 -0.13028373549E+03 -0.32928529322E+03  0.35830705568E+03  0.41800000000E+01 0.  1.
        -11    1    4    4    0    0 -0.48265777445E+02  0.47174735754E+02 -0.16440945097E+03  0.17772312324E+03  0.00000000000E+00 0.  1.
         11    1    4    4    0    0  0.13147239812E+02  0.81098263812E+02 -0.43861664142E+03  0.44624470466E+03  0.00000000000E+00 0. -1.
</event>
<event>
 8    1  0.8619230E-006  0.1662580E+03  0.7561462E-02  0.1181807E+00
         -1   -1    0    0    0  501 -0.00000000000E+00  0.00000000000E+00  0.40904857813E+03  0.40904857813E+03  0.00000000000E+00 0.  1.
          1   -1    0    0  501    0  0.00000000000E+00 -0.00000000000E+00 -0.80964842545E+02  0.80964842545E+02  0.00000000000E+00 0. -1.
         23    2    1    2    0    0  0.70478913442E+02  0.13108209986E+03  0.16268255455E+03  0.25350131744E+03  0.12509000857E+03 0.  0.
         23    2    1    2    0    0 -0.70478913442E+02 -0.13108209986E+03  0.16540118104E+03  0.23651210324E+03  0.80191209920E+02 0.  0.
          5    1    3    3  502    0  0.39861943595E+02 -0.82134340991E+01  0.56057510763E+01  0.41295664325E+02  0.41800000000E+01 0. -1.
         -5    1    3    3    0  502  0.30616969847E+02  0.13929553396E+03  0.15707680347E+03  0.21220565311E+03  0.41800000000E+01 0. -1.
        -11    1    4    4    0    0 -0.35513532602E+02 -0.60513407712E+02  0.13489950812E+03  0.15205578187E+03  0.00000000000E+00 0.  1.
         11    1    4    4    0    0 -0.34965380840E+02 -0.70568692146E+02  0.30501672922E+02  0.84456321371E+02  0.00000000000E+00 0. -1.
</event>
<event>
 8    1  0.8619230E-006  0.7910926E+02  0.7561462E-02  0.1331598E+00
         -1   -1    0    0    0  501 -0.00000000000E+00  0.00000000000E+00  0.16922298484E+03  0.16922298484E+03  0.00000000000E+00 0.  1.
          1   -1    0    0  501    0  0.00000000000E+00 -0.00000000000E+00 -0.91041941015E+02  0.91041941015E+02  0.00000000000E+00 0. -1.
         23    2    1    2    0    0  0.34037523910E+02  0.41544193126E+01  0.94320944436E+02  0.16037491286E+03  0.12509140610E+03 0.  0.
         23    2    1    2    0    0 -0.34037523910E+02 -0.41544193126E+01 -0.16139900610E+02  0.99890013001E+02  0.92421350736E+02 0.  0.
          5    1    3    3  502    0 -0.33986299887E+02  0.12292562673E+02 -0.79181274338E+01  0.37233651703E+02  0.41800000000E+01 0. -1.
         -5    1    3    3    0  502  0.68023823797E+02 -0.81381433604E+01  0.10223907187E+03  0.12314126115E+03  0.41800000000E+01 0. -1.
        -11    1    4    4    0    0 -0.20586088652E+02  0.17957824707E+02  0.33909395152E+02  0.43544432409E+02  0.00000000000E+00 0.  1.
         11    1    4    4    0    0 -0.13451435258E+02 -0.22112244019E+02 -0.50049295762E+02  0.56345580593E+02  0.00000000000E+00 0. -1.
</event>
<event>
 8    1  0.8619230E-006  0.1370386E+03  0.7561462E-02  0.1217370E+00
          1   -1    0    0  501    0  0.00000000000E+00  0.00000000000E+00  0.17239368043E+03  0.17239368043E+03  0.00000000000E+00 0. -1.
         -1   -1    0    0    0  501 -0.00000000000E+00 -0.00000000000E+00 -0.17186609403E+03  0.17186609403E+03  0.00000000000E+00 0.  1.
         23    2    1    2    0    0 -0.79352780895E+02 -0.62741735608E+02 -0.86553686665E+02  0.18268333708E+03  0.12509305235E+03 0.  0.
         23    2    1    2    0    0  0.79352780895E+02  0.62741735608E+02  0.87081273066E+02  0.16157643739E+03  0.91051676408E+02 0.  0.
          5    1    3    3  502    0 -0.53488311259E+02  0.19071237791E+02 -0.77689314363E+02  0.96321407373E+02  0.41800000000E+01 0.  1.
         -5    1    3    3    0  502 -0.25864469637E+02 -0.81812973398E+02 -0.88643723026E+01  0.86361929704E+02  0.41800000000E+01 0.  1.
        -11    1    4    4    0    0  0.21639869498E+02  0.69810054072E+02  0.26859751367E+02  0.77866384563E+02  0.00000000000E+00 0.  1.
         11    1    4    4    0    0  0.57712911397E+02 -0.70683184645E+01  0.60221521699E+02  0.83710052823E+02  0.00000000000E+00 0. -1.
</event>
<event>
 8    1  0.8619230E-006  0.1146401E+03  0.7561462E-02  0.1252211E+00
         -2   -1    0    0    0  501 -0.00000000000E+00  0.00000000000E+00  0.78234557347E+02  0.78234557347E+02  0.00000000000E+00 0.  1.
          2   -1    0    0  501    0  0.00000000000E+00 -0.00000000000E+00 -0.17838595785E+03  0.17838595785E+03  0.00000000000E+00 0. -1.
         23    2    1    2    0    0 -0.42488895757E+02  0.17267802664E+02 -0.68007237000E+02  0.14958867031E+03  0.12509317619E+03 0.  0.
         23    2    1    2    0    0  0.42488895757E+02 -0.17267802664E+02 -0.32144163502E+02  0.10703184488E+03  0.91209019843E+02 0.  0.
          5    1    3    3  502    0 -0.11911017528E+02  0.68307194609E+02 -0.18010118129E+02  0.71760587573E+02  0.41800000000E+01 0. -1.
         -5    1    3    3    0  502 -0.30577878230E+02 -0.51039391945E+02 -0.49997118871E+02  0.77828082737E+02  0.41800000000E+01 0. -1.
        -11    1    4    4    0    0  0.41589304032E+02 -0.51348991210E+02 -0.11204760365E+02  0.67021905098E+02  0.00000000000E+00 0.  1.
         11    1    4    4    0    0  0.89959172531E+00  0.34081188546E+02 -0.20939403137E+02  0.40009939786E+02  0.00000000000E+00 0. -1.
</event>
<event>
 8    1  0.8619230E-006  0.1801504E+03  0.7561462E-02  0.1167658E+00
         -1   -1    0    0    0  501 -0.00000000000E+00  0.00000000000E+00  0.66936531618E+02  0.66936531618E+02  0.00000000000E+00 0.  1.
          1   -1    0    0  501    0  0.00000000000E+00 -0.00000000000E+00 -0.67168990840E+03  0.67168990840E+03  0.00000000000E+00 0. -1.
         23    2    1    2    0    0  0.14324422386E+02  0.17562831923E+03 -0.39928696001E+03  0.45401207435E+03  0.12508553726E+03 0.  0.
         23    2    1    2    0    0 -0.14324422386E+02 -0.17562831923E+03 -0.20546641677E+03  0.28461436566E+03  0.87968137006E+02 0.  0.
          5    1    3    3  502    0  0.12954465299E+02  0.12921713888E+03 -0.38330679327E+03  0.40473010429E+03  0.41800000000E+01 0. -1.
         -5    1    3    3    0  502  0.13699570875E+01  0.46411180354E+02 -0.15980166736E+02  0.49281970062E+02  0.41800000000E+01 0. -1.
        -11    1    4    4    0    0  0.10883577346E+02 -0.13817649862E+03 -0.10313080570E+03  0.17276330662E+03  0.00000000000E+00 0.  1.
         11    1    4    4    0    0 -0.25207999732E+02 -0.37451820604E+02 -0.10233561107E+03  0.11185105904E+03  0.00000000000E+00 0. -1.
</event>
<event>
 8    1  0.8619230E-006  0.9567901E+02  0.7561462E-02  0.1289654E+00
         -1   -1    0    0    0  501 -0.00000000000E+00  0.00000000000E+00  0.78516025522E+02  0.78516025522E+02  0.00000000000E+00 0.  1.
          1   -1    0    0  501    0  0.00000000000E+00 -0.00000000000E+00 -0.24857158700E+03  0.24857158700E+03  0.00000000000E+00 0. -1.
         23    2    1    2    0    0  0.40897902698E+02 -0.10752735093E+02 -0.35308807878E+01  0.13208747517E+03  0.12508546767E+03 0.  0.
         23    2    1    2    0    0 -0.40897902698E+02  0.10752735093E+02 -0.16652468069E+03  0.19500013735E+03  0.92229737771E+02 0.  0.
          5    1    3    3  502    0 -0.24753576901E+01 -0.46844844795E+02  0.39126487196E+02  0.61228435223E+02  0.41800000000E+01 0. -1.
         -5    1    3    3    0  502  0.43373260388E+02  0.36092109702E+02 -0.42657367984E+02  0.70859039951E+02  0.41800000000E+01 0. -1.
        -11    1    4    4    0    0  0.15271276709E+02  0.25396892793E+02 -0.16015613806E+02  0.33685515306E+02  0.00000000000E+00 0. -1.
         11    1    4    4    0    0 -0.56169179407E+02 -0.14644157700E+02 -0.15050906688E+03  0.16131462204E+03  0.00000000000E+00 0.  1.
</event>
<event>
 8    1  0.8619230E-006  0.8360415E+02  0.7561462E-02  0.1319124E+00
          2   -1    0    0  501    0  0.00000000000E+00  0.00000000000E+00  0.49387655023E+03  0.49387655023E+03  0.00000000000E+00 0. -1.
         -2   -1    0    0    0  501 -0.00000000000E+00 -0.00000000000E+00 -0.27980601060E+02  0.27980601060E+02  0.00000000000E+00 0.  1.
         23    2    1    2    0    0  0.31160168857E+02 -0.79001071082E+01  0.18931417717E+03  0.22917300197E+03  0.12508812629E+03 0.  0.
         23    2    1    2    0    0 -0.31160168857E+02  0.79001071082E+01  0.27658177200E+03  0.29268414932E+03  0.90184072010E+02 0.  0.
          5    1    3    3  502    0  0.50574790732E+02 -0.20455319240E+02  0.20029513577E+02  0.58265627577E+02  0.41800000000E+01 0. -1.
         -5    1    3    3    0  502 -0.19414621875E+02  0.12555212132E+02  0.16928466359E+03  0.17090737439E+03  0.41800000000E+01 0. -1.
        -11    1    4    4    0    0 -0.12562365761E+02  0.45418207394E+02  0.19920847454E+03  0.20470623567E+03  0.00000000000E+00 0.  1.
         11    1    4    4    0    0 -0.18597803097E+02 -0.37518100285E+02  0.77373297464E+02  0.87977913646E+02  0.00000000000E+00 0. -1.
</event>
<event>
 8    1  0.8619230E-006  0.9969126E+02  0.7561462E-02  0.1280947E+00
          1   -1    0    0  501    0  0.00000000000E+00  0.00000000000E+00  0.34120061687E+02  0.34120061687E+02  0.00000000000E+00 0. -1.
         -1   -1    0    0    0  501 -0.00000000000E+00 -0.00000000000E+00 -0.58481520877E+03  0.58481520877E+03  0.00000000000E+00 0.  1.
         23    2    1    2    0    0 -0.29272080831E+02 -0.43647619673E+02 -0.45298719252E+03  0.47287269991E+03  0.12509685970E+03 0.  0.
         23    2    1    2    0    0  0.29272080831E+02  0.43647619673E+02 -0.97707954563E+02  0.14606257055E+03  0.95002424773E+02 0.  0.
          5    1    3    3  502    0  0.12754515767E+02 -0.72498630416E+02 -0.35237417363E+03  0.36000522181E+03  0.41800000000E+01 0. -1.
         -5    1    3    3    0  502 -0.42026596597E+02  0.28851010742E+02 -0.10061301889E+03  0.11286747810E+03  0.41800000000E+01 0. -1.
        -11    1    4    4    0    0 -0.12452253074E+02  0.26715733547E+02  0.85225686511E+01  0.30682620520E+02  0.00000000000E+00 0. -1.
         11    1    4    4    0    0  0.41724333905E+02  0.16931886126E+02 -0.10623052321E+03  0.11537995003E+03  0.00000000000E+00 0.  1.
</event>
<event>
 8    1  0.8619230E-006  0.1461676E+03  0.7561462E-02  0.1205263E+00
          1   -1    0    0  501    0  0.00000000000E+00  0.00000000000E+00  0.14036032102E+04  0.14036032102E+04  0.00000000000E+00 0. -1.
         -1   -1    0    0    0  501 -0.00000000000E+00 -0.00000000000E+00 -0.15806784734E+02  0.15806784734E+02  0.00000000000E+00 0.  1.
         23    2    1    2    0    0  0.99831931624E+02 -0.11289464851E+00  0.65573631943E+03  0.67498489212E+03  0.12509219260E+03 0.  0.
         23    2    1    2    0    0 -0.99831931624E+02  0.11289464851E+00  0.73206010600E+03  0.74442510278E+03  0.91051125954E+02 0.  0.
          5    1    3    3  502    0  0.11028000371E+03  0.38885658951E+02  0.43038413168E+03  0.44600644266E+03  0.41800000000E+01 0.  1.
         -5    1    3    3    0  502 -0.10448072086E+02 -0.38998553600E+02  0.22535218775E+03  0.22897844946E+03  0.41800000000E+01 0.  1.
        -11    1    4    4    0    0 -0.28768128119E+02  0.42998305553E+02  0.25437146557E+03  0.25957908616E+03  0.00000000000E+00 0.  1.
         11    1    4    4    0    0 -0.71063803505E+02 -0.42885410904E+02  0.47768864043E+03  0.48484601662E+03  0.00000000000E+00 0. -1.
</event>
<event>
 8    1  0.8619230E-006  0.8125505E+02  0.7561462E-02  0.1325527E+00
          2   -1    0    0  501    0  0.00000000000E+00  0.00000000000E+00  0.15532616889E+03  0.15532616889E+03  0.00000000000E+00 0. -1.
         -2   -1    0    0    0  501 -0.00000000000E+00 -0.00000000000E+00 -0.81681440492E+02  0.81681440492E+02  0.00000000000E+00 0.  1.
         23    2    1    2    0    0  0.34421218749E+00  0.18794755283E+02  0.13096841140E+02  0.12716215490E+03  0.12508127391E+03 0.  0.
         23    2    1    2    0    0 -0.34421218749E+00 -0.18794755283E+02  0.60547887256E+02  0.10984545448E+03  0.89702931448E+02 0.  0.
          5    1    3    3  502    0 -0.10511154996E+02 -0.24144087279E+02  0.58073167330E+02  0.63901380999E+02  0.41800000000E+01 0. -1.
         -5    1    3    3    0  502  0.10855367183E+02  0.42938842562E+02 -0.44976326190E+02  0.63260773902E+02  0.41800000000E+01 0. -1.
        -11    1    4    4    0    0  0.44259234153E+02 -0.14393421309E+02  0.26472108894E+02  0.53542720645E+02  0.00000000000E+00 0. -1.
         11    1    4    4    0    0 -0.44603446340E+02 -0.44013339737E+01  0.34075778362E+02  0.56302733834E+02  0.00000000000E+00 0.  1.
</event>
<event>
 8    1  0.8619230E-006  0.8786041E+02  0.7561462E-02  0.1308117E+00
         -2   -1    0    0    0  501 -0.00000000000E+00  0.00000000000E+00  0.63640382906E+02  0.63640382906E+02  0.00000000000E+00 0.  1.
          2   -1    0    0  501    0  0.00000000000E+00 -0.00000000000E+00 -0.20068989746E+03  0.20068989746E+03  0.00000000000E+00 0. -1.
         23    2    1    2    0    0 -0.31497029188E+02  0.10367056939E+02 -0.66355005552E+02  0.14543099776E+03  0.12509056572E+03 0.  0.
         23    2    1    2    0    0  0.31497029188E+02 -0.10367056939E+02 -0.70694508999E+02  0.11889928260E+03  0.89664859801E+02 0.  0.
          5    1    3    3  502    0  0.32653220547E+02 -0.22999207496E+01 -0.72464188471E+02  0.79624452641E+02  0.41800000000E+01 0. -1.
         -5    1    3    3    0  502 -0.64150249735E+02  0.12666977689E+02  0.61091829191E+01  0.65806545121E+02  0.41800000000E+01 0. -1.
        -11    1    4    4    0    0  0.53947284613E+02 -0.55013337459E+01 -0.11540422431E+02  0.55441460478E+02  0.00000000000E+00 0.  1.
         11    1    4    4    0    0 -0.22450255424E+02 -0.48657231932E+01 -0.59154086569E+02  0.63457822123E+02  0.00000000000E+00 0. -1.
</event>
<event>
 8    1  0.8619230E-006  0.1285066E+03  0.7561462E-02  0.1229689E+00
          4   -1    0    0  501    0  0.00000000000E+00  0.00000000000E+00  0.47870632813E+03  0.47870632813E+03  0.00000000000E+00 0. -1.
         -4   -1    0    0    0  501 -0.00000000000E+00 -0.00000000000E+00 -0.55493389241E+02  0.55493389241E+02  0.00000000000E+00 0.  1.
         23    2    1    2    0    0 -0.88691932169E+02 -0.34762588950E+02  0.10150946382E+03  0.18715370092E+03  0.12509052763E+03 0.  0.
         23    2    1    2    0    0  0.88691932169E+02  0.34762588950E+02  0.32170347507E+03  0.34704601645E+03  0.88730576681E+02 0.  0.
          5    1    3    3  502    0 -0.97976073134E+02 -0.57750322785E+02  0.39876983331E+02  0.12059045107E+03  0.41800000000E+01 0. -1.
         -5    1    3    3    0  502  0.92841409649E+01  0.22987733835E+02  0.61632480490E+02  0.66563249858E+02  0.41800000000E+01 0. -1.
        -11    1    4    4    0    0  0.79745501145E+01 -0.19322186553E+02  0.16146644982E+02  0.26413149885E+02  0.00000000000E+00 0.  1.
         11    1    4    4    0    0  0.80717382055E+02  0.54084775502E+02  0.30555683009E+03  0.32063286656E+03  0.00000000000E+00 0. -1.
</event>
<event>
 8    1  0.8619230E-006  0.1322224E+03  0.7561462E-02  0.1224195E+00
          1   -1    0    0  501    0  0.00000000000E+00  0.00000000000E+00  0.11983240214E+03  0.11983240214E+03  0.00000000000E+00 0. -1.
         -1   -1    0    0    0  501 -0.00000000000E+00 -0.00000000000E+00 -0.17714801010E+03  0.17714801010E+03  0.00000000000E+00 0.  1.
         23    2    1    2    0    0  0.64251238834E+02  0.45695744349E+02 -0.86043876888E+02  0.17107785688E+03  0.12509101335E+03 0.  0.
         23    2    1    2    0    0 -0.64251238834E+02 -0.45695744349E+02  0.28728268923E+02  0.12590255537E+03  0.93860626829E+02 0.  0.
          5    1    3    3  502    0  0.20504388707E+02 -0.43116909275E+02 -0.19639304014E+02  0.51794521754E+02  0.41800000000E+01 0. -1.
         -5    1    3    3    0  502  0.43746850127E+02  0.88812653624E+02 -0.66404572875E+02  0.11928333512E+03  0.41800000000E+01 0. -1.
        -11    1    4    4    0    0 -0.68589002786E+02  0.28886385233E+01 -0.12277364265E+01  0.68660781181E+02  0.00000000000E+00 0.  1.
         11    1    4    4    0    0  0.43377639519E+01 -0.48584382873E+02  0.29956005349E+02  0.57241774184E+02  0.00000000000E+00 0. -1.
</event>
<event>
 6    1  0.8619230E-006  0.7830799E+02  0.7561462E-02  0.1333923E+00
          2   -1    0    0  501    0  0.00000000000E+00  0.00000000000E+00  0.25395032701E+02  0.25395032701E+02  0.00000000000E+00 0. -1.
         -2   -1    0    0    0  501 -0.00000000000E+00 -0.00000000000E+00 -0.27370253245E+03  0.27370253245E+03  0.00000000000E+00 0.  1.
          5    1    1    2  502    0  0.59834892385E+02 -0.36723518959E+02 -0.66051873596E+02  0.96483955127E+02  0.41800000000E+01 0. -1.
         -5    1    1    2    0  502 -0.50017533064E+02  0.17731149536E+02 -0.13298256621E+03  0.14324099481E+03  0.41800000000E+01 0.  1.
        -11    1    1    2    0    0 -0.14470649967E+02  0.10392656433E+01 -0.23565385485E+02  0.27673221291E+02  0.00000000000E+00 0. -1.
         11    1    1    2    0    0  0.46532906455E+01  0.17953103780E+02 -0.25707674454E+02  0.31699393922E+02  0.00000000000E+00 0.  1.
</event>
<event>
 8    1  0.8619230E-006  0.1579980E+03  0.7561462E-02  0.1190976E+00
         -1   -1    0    0    0  501 -0.00000000000E+00  0.00000000000E+00  0.83440226568E+02  0.83440226568E+02  0.00000000000E+00 0.  1.
          1   -1    0    0  501    0  0.00000000000E+00 -0.00000000000E+00 -0.67743991111E+03  0.67743991111E+03  0.00000000000E+00 0. -1.
         23    2    1    2    0    0  0.98760726668E+02 -0.85847664106E+02 -0.41265593624E+02  0.18566751727E+03  0.12508427234E+03 0.  0.
         23    2    1    2    0    0 -0.98760726668E+02  0.85847664106E+02 -0.55273409092E+03  0.57521262041E+03  0.90725304364E+02 0.  0.
          5    1    3    3  502    0  0.12119566329E+03 -0.37849967602E+02 -0.20862750760E+02  0.12873902135E+03  0.41800000000E+01 0. -1.
         -5    1    3    3    0  502 -0.22434936623E+02 -0.47997696504E+02 -0.20402842864E+02  0.56928495922E+02  0.41800000000E+01 0. -1.
        -11    1    4    4    0    0 -0.10350322552E+02  0.28775986552E+02 -0.33238590788E+02  0.45166253958E+02  0.00000000000E+00 0.  1.
         11    1    4    4    0    0 -0.88410404116E+02  0.57071677554E+02 -0.51949550013E+03  0.53004636645E+03  0.00000000000E+00 0. -1.
</event>
<event>
 8    1  0.8619230E-006  0.1274296E+03  0.7561462E-02  0.1231320E+00
          1   -1    0    0  501    0  0.00000000000E+00  0.00000000000E+00  0.54955486974E+02  0.54955486974E+02  0.00000000000E+00 0. -1.
         -1   -1    0    0    0  501 -0.00000000000E+00 -0.00000000000E+00 -0.41073510276E+03  0.41073510276E+03  0.00000000000E+00 0.  1.
         23    2    1    2    0    0 -0.63617386860E+02  0.59267556735E+02 -0.28047001200E+03  0.31917061610E+03  0.12508652749E+03 0.  0.
         23    2    1    2    0    0  0.63617386860E+02 -0.59267556735E+02 -0.75309603792E+02  0.14651997364E+03  0.90756548297E+02 0.  0.
          5    1    3    3  502    0 -0.42322631723E+01 -0.26059721213E+02 -0.14966710500E+03  0.15203531117E+03  0.41800000000E+01 0. -1.
         -5    1    3    3    0  502 -0.59385123688E+02  0.85327277948E+02 -0.13080290699E+03  0.16713530493E+03  0.41800000000E+01 0. -1.
        -11    1    4    4    0    0  0.72431822584E+02 -0.76116285314E+02 -0.71595670359E+02  0.12714557730E+03  0.00000000000E+00 0.  1.
         11    1    4    4    0    0 -0.88144357234E+01  0.16848728579E+02 -0.37139334323E+01  0.19374396336E+02  0.00000000000E+00 0. -1.
</event>
<event>
 8    1  0.8619230E-006  0.1126850E+03  0.7561462E-02  0.1255677E+00
          2   -1    0    0  501    0  0.00000000000E+00  0.00000000000E+00  0.48811859882E+03  0.48811859882E+03  0.00000000000E+00 0. -1.
         -2   -1    0    0    0  501 -0.00000000000E+00 -0.00000000000E+00 -0.34716770525E+02  0.34716770525E+02  0.00000000000E+00 0.  1.
         23    2    1    2    0    0 -0.71354040236E+02 -0.12306745835E+02  0.24507071149E+03  0.28451717442E+03  0.12509002301E+03 0.  0.
         23    2    1    2    0    0  0.71354040236E+02  0.12306745835E+02  0.20833111681E+03  0.23831819493E+03  0.90282073264E+02 0.  0.
          5    1    3    3  502    0 -0.65051432629E+02 -0.62549755271E+02  0.18470322293E+03  0.20561350572E+03  0.41800000000E+01 0.  1.
         -5    1    3    3    0  502 -0.63026076074E+01  0.50243009436E+02  0.60367488559E+02  0.78903668703E+02  0.41800000000E+01 0.  1.
        -11    1    4    4    0    0  0.38910837193E+02  0.28236227301E+02  0.30688671134E+02  0.57036236896E+02  0.00000000000E+00 0.  1.
         11    1    4    4    0    0  0.32443203043E+02 -0.15929481466E+02  0.17764244567E+03  0.18128195803E+03  0.00000000000E+00 0. -1.
</event>
<event>
 8    1  0.8619230E-006  0.9310904E+02  0.7561462E-02  0.1295493E+00
         -1   -1    0    0    0  501 -0.00000000000E+00  0.00000000000E+00  0.16419239352E+02  0.16419239352E+02  0.00000000000E+00 0.  1.
          1   -1    0    0  501    0  0.00000000000E+00 -0.00000000000E+00 -0.89097320920E+03  0.89097320920E+03  0.00000000000E+00 0. -1.
         23    2    1    2    0    0  0.38772571903E+02  0.13482059459E+02 -0.36397994652E+03  0.38705804105E+03  0.12508975744E+03 0.  0.
         23    2    1    2    0    0 -0.38772571903E+02 -0.13482059459E+02 -0.51057402333E+03  0.52033440750E+03  0.91525865575E+02 0.  0.
          5    1    3    3  502    0  0.11254161906E+01 -0.28813469976E+02 -0.13683335296E+02  0.32189884723E+02  0.41800000000E+01 0.  1.
         -5    1    3    3    0  502  0.37647155713E+02  0.42295529435E+02 -0.35029661122E+03  0.35486815633E+03  0.41800000000E+01 0.  1.
        -11    1    4    4    0    0 -0.51772388164E+02  0.26571730520E+02 -0.29905696691E+03  0.30466622146E+03  0.00000000000E+00 0. -1.
         11    1    4    4    0    0  0.12999816261E+02 -0.40053789980E+02 -0.21151705642E+03  0.21566818604E+03  0.00000000000E+00 0.  1.
</event>
<event>
 8    1  0.8619230E-006  0.9909118E+02  0.7561462E-02  0.1282219E+00
         -1   -1    0    0    0  501 -0.00000000000E+00  0.00000000000E+00  0.20232721488E+02  0.20232721488E+02  0.00000000000E+00 0.  1.
          1   -1    0    0  501    0  0.00000000000E+00 -0.00000000000E+00 -0.77213758544E+03  0.77213758544E+03  0.00000000000E+00 0. -1.
         23    2    1    2    0    0 -0.63073663391E+02 -0.25087052794E+02 -0.46251754211E+03  0.48391907906E+03  0.12509017185E+03 0.  0.
         23    2    1    2    0    0  0.63073663391E+02  0.25087052794E+02 -0.28938732185E+03  0.30845122787E+03  0.82398365854E+02 0.  0.
          5    1    3    3  502    0 -0.62401242328E+02 -0.41775019679E+02 -0.12443260374E+03  0.14539605423E+03  0.41800000000E+01 0. -1.
         -5    1    3    3    0  502 -0.67242106290E+00  0.16687966885E+02 -0.33808493837E+03  0.33852302483E+03  0.41800000000E+01 0. -1.
        -11    1    4    4    0    0  0.13939787256E+02  0.49119593227E+02 -0.16087496777E+03  0.16878331483E+03  0.00000000000E+00 0. -1.
         11    1    4    4    0    0  0.49133876135E+02 -0.24032540433E+02 -0.12851235407E+03  0.13966791304E+03  0.00000000000E+00 0.  1.
</event>
<event>
 8    1  0.8619230E-006  0.1029552E+03  0.7561462E-02  0.1274201E+00
         -1   -1    0    0    0  501 -0.00000000000E+00  0.00000000000E+00  0.46788620330E+02  0.46788620330E+02  0.00000000000E+00 0.  1.
          1   -1    0    0  501    0  0.00000000000E+00 -0.00000000000E+00 -0.34648337850E+03  0.34648337850E+03  0.00000000000E+00 0. -1.
         23    2    1    2    0    0  0.18763898296E+02  0.62887574937E+02 -0.13139711911E+03  0.19292551759E+03  0.12509245167E+03 0.  0.
         23    2    1    2    0    0 -0.18763898296E+02 -0.62887574937E+02 -0.16829763905E+03  0.20034648124E+03  0.86646905726E+02 0.  0.
          5    1    3    3  502    0 -0.44551986081E+02  0.49507040818E+02 -0.10160550471E+03  0.12156059206E+03  0.41800000000E+01 0. -1.
         -5    1    3    3    0  502  0.63315884377E+02  0.13380534119E+02 -0.29791614407E+02  0.71364925536E+02  0.41800000000E+01 0. -1.
        -11    1    4    4    0    0 -0.26347698215E+02 -0.27296390008E+02 -0.11884487831E+02  0.39755944961E+02  0.00000000000E+00 0.  1.
         11    1    4    4    0    0  0.75837999190E+01 -0.35591184929E+02 -0.15641315122E+03  0.16059053628E+03  0.00000000000E+00 0. -1.
</event>
<event>
 8    1  0.8619230E-006  0.1185135E+03  0.7561462E-02  0.1245570E+00
          2   -1    0    0  501    0  0.00000000000E+00  0.00000000000E+00  0.71393343547E+03  0.71393343547E+03  0.00000000000E+00 0. -1.
         -2   -1    0    0    0  501 -0.00000000000E+00 -0.00000000000E+00 -0.20732173824E+02  0.20732173824E+02  0.00000000000E+00 0.  1.
         23    2    1    2    0    0  0.52939687012E+02 -0.13761044576E+02  0.41475914090E+03  0.43664976057E+03  0.12508353864E+03 0.  0.
         23    2    1    2    0    0 -0.52939687012E+02  0.13761044576E+02  0.27844212075E+03  0.29801584872E+03  0.91057425154E+02 0.  0.
          5    1    3    3  502    0  0.87582224920E+02  0.17800133882E+02  0.27224978451E+03  0.28657443789E+03  0.41800000000E+01 0. -1.
         -5    1    3    3    0  502 -0.34642537909E+02 -0.31561178458E+02  0.14250935640E+03  0.15007532268E+03  0.41800000000E+01 0. -1.
        -11    1    4    4    0    0  0.29979634759E+01  0.39016855978E+02  0.64482232233E+02  0.75427190781E+02  0.00000000000E+00 0.  1.
         11    1    4    4    0    0 -0.55937650488E+02 -0.25255811402E+02  0.21395988851E+03  0.22258865794E+03  0.00000000000E+00 0. -1.
</event>
<event>
 8    1  0.8619230E-006  0.1228764E+03  0.7561462E-02  0.1238426E+00
         -1   -1    0    0    0  501 -0.00000000000E+00  0.00000000000E+00  0.20754137569E+02  0.20754137569E+02  0.00000000000E+00 0.  1.
          1   -1    0    0  501    0  0.00000000000E+00 -0.00000000000E+00 -0.92083180796E+03  0.92083180796E+03  0.00000000000E+00 0. -1.
         23    2    1    2    0    0 -0.66243730615E+02  0.49092909849E+02 -0.56961870723E+03  0.58899109213E+03  0.12508672730E+03 0.  0.
         23    2    1    2    0    0  0.66243730615E+02 -0.49092909849E+02 -0.33045896316E+03  0.35259485339E+03  0.91223125698E+02 0.  0.
          5    1    3    3  502    0 -0.98802090268E+02  0.43513917115E+02 -0.50350776662E+03  0.51496879271E+03  0.41800000000E+01 0.  1.
         -5    1    3    3    0  502  0.32558359653E+02  0.55789927341E+01 -0.66110940609E+02  0.74022299420E+02  0.41800000000E+01 0.  1.
        -11    1    4    4    0    0  0.53180319830E+02  0.44737910934E+00 -0.26054940566E+03  0.26592167899E+03  0.00000000000E+00 0. -1.
         11    1    4    4    0    0  0.13063410785E+02 -0.49540288959E+02 -0.69909557496E+02  0.86673174401E+02  0.00000000000E+00 0.  1.
</event>
<event>
 8    1  0.8619230E-006  0.1618806E+03  0.7561462E-02  0.1186590E+00
          2   -1    0    0  501    0  0.00000000000E+00  0.00000000000E+00  0.26649940690E+03  0.26649940690E+03  0.00000000000E+00 0. -1.
         -2   -1    0    0    0  501 -0.00000000000E+00 -0.00000000000E+00 -0.17223380982E+03  0.17223380982E+03  0.00000000000E+00 0.  1.
         23    2    1    2    0    0  0.12985850565E+03  0.13342948139E+02 -0.83713341766E+02  0.19923869549E+03  0.12508744315E+03 0.  0.
         23    2    1    2    0    0 -0.12985850565E+03 -0.13342948139E+02  0.17797893885E+03  0.23949452124E+03  0.92950832575E+02 0.  0.
          5    1    3    3  502    0  0.13755093521E+03  0.41947397595E+02 -0.45872725699E+02  0.15100206391E+03  0.41800000000E+01 0.  1.
         -5    1    3    3    0  502 -0.76924295621E+01 -0.28604449456E+02 -0.37840616067E+02  0.48236631574E+02  0.41800000000E+01 0.  1.
        -11    1    4    4    0    0 -0.72126267712E+02  0.29667017462E+02  0.49953670127E+02  0.92615871093E+02  0.00000000000E+00 0.  1.
         11    1    4    4    0    0 -0.57732237938E+02 -0.43009965601E+02  0.12802526872E+03  0.14687865015E+03  0.00000000000E+00 0. -1.
</event>
<event>
 8    1  0.8619230E-006  0.1199187E+03  0.7561462E-02  0.1243231E+00
          1   -1    0    0  501    0  0.00000000000E+00  0.00000000000E+00  0.25662527492E+02  0.25662527492E+02  0.00000000000E+00 0. -1.
         -1   -1    0    0    0  501 -0.00000000000E+00 -0.00000000000E+00 -0.74144060378E+03  0.74144060378E+03  0.00000000000E+00 0.  1.
         23    2    1    2    0    0 -0.86143680968E+02 -0.38745160204E+02 -0.51826769838E+03  0.54145236634E+03  0.12508931457E+03 0.  0.
         23    2    1    2    0    0  0.86143680968E+02  0.38745160204E+02 -0.19751037790E+03  0.22565076493E+03  0.54644278050E+02 0.  0.
          5    1    3    3  502    0 -0.65914003624E+02  0.29497067726E+02 -0.15230991060E+03  0.16861350523E+03  0.41800000000E+01 0.  1.
         -5    1    3    3    0  502 -0.20229677343E+02 -0.68242227930E+02 -0.36595778778E+03  0.37283886111E+03  0.41800000000E+01 0.  1.
        -11    1    4    4    0    0  0.46532812583E+02  0.30801853988E+02 -0.16376526631E+03  0.17301190510E+03  0.00000000000E+00 0.  1.
         11    1    4    4    0    0  0.39610868385E+02  0.79433062161E+01 -0.33745111593E+02  0.52638859831E+02  0.00000000000E+00 0. -1.
</event>
<event>
 8    1  0.8619230E-006  0.1666291E+03  0.7561462E-02  0.1181409E+00
         -1   -1    0    0    0  501 -0.00000000000E+00  0.00000000000E+00  0.16350872102E+04  0.16350872102E+04  0.00000000000E+00 0.  1.
          1   -1    0    0  501    0  0.00000000000E+00 -0.00000000000E+00 -0.22550578932E+02  0.22550578932E+02  0.00000000000E+00 0. -1.
         23    2    1    2    0    0  0.49426194438E+02 -0.13385021743E+03  0.11600256303E+04  0.11754423818E+04  0.12508597330E+03 0.  0.
         23    2    1    2    0    0 -0.49426194438E+02  0.13385021743E+03  0.45251100103E+03  0.48219540733E+03  0.85949842333E+02 0.  0.
          5    1    3    3  502    0  0.84922096991E+02 -0.51987544847E+02  0.55877119364E+03  0.56758892397E+03  0.41800000000E+01 0. -1.
         -5    1    3    3    0  502 -0.35495902553E+02 -0.81862672586E+02  0.60125443662E+03  0.60785345784E+03  0.41800000000E+01 0. -1.
        -11    1    4    4    0    0 -0.17611716000E+02  0.78322437504E+02  0.12548601633E+03  0.14896750334E+03  0.00000000000E+00 0. -1.
         11    1    4    4    0    0 -0.31814478439E+02  0.55527779928E+02  0.32702498470E+03  0.33322790399E+03  0.00000000000E+00 0.  1.
</event>
<event>
 8    1  0.8619230E-006  0.2606832E+03  0.7561462E-02  0.1106733E+00
         -1   -1    0    0    0  501 -0.00000000000E+00  0.00000000000E+00  0.10481469446E+03  0.10481469446E+03  0.00000000000E+00 0.  1.
          1   -1    0    0  501    0  0.00000000000E+00 -0.00000000000E+00 -0.93785202430E+03  0.93785202430E+03  0.00000000000E+00 0. -1.
         23    2    1    2    0    0  0.21486033152E+03  0.13418317022E+03 -0.17639908341E+03  0.33306868692E+03  0.12509207947E+03 0.  0.
         23    2    1    2    0    0 -0.21486033152E+03 -0.13418317022E+03 -0.65663824643E+03  0.70959803184E+03  0.90473724861E+02 0.  0.
          5    1    3    3  502    0  0.85102721928E+02  0.29383855378E+02  0.18480583544E+00  0.90129855152E+02  0.41800000000E+01 0. -1.
         -5    1    3    3    0  502  0.12975760959E+03  0.10479931484E+03 -0.17658388924E+03  0.24293883176E+03  0.41800000000E+01 0. -1.
        -11    1    4    4    0    0 -0.18317827537E+03 -0.76358754891E+02 -0.43045770847E+03  0.47400293121E+03  0.00000000000E+00 0.  1.
         11    1    4    4    0    0 -0.31682056153E+02 -0.57824415326E+02 -0.22618053796E+03  0.23559510063E+03  0.00000000000E+00 0. -1.
</event>
<event>
 8    1  0.8619230E-006  0.7063655E+02  0.7561462E-02  0.1357942E+00
          1   -1    0    0  501    0  0.00000000000E+00  0.00000000000E+00  0.95897595354E+03  0.95897595354E+03  0.00000000000E+00 0. -1.
         -1   -1    0    0    0  501 -0.00000000000E+00 -0.00000000000E+00 -0.11941958824E+02  0.11941958824E+02  0.00000000000E+00 0.  1.
         23    2    1    2    0    0 -0.36873407882E+01 -0.23298919294E+02  0.58510155492E+03  0.59728198859E+03  0.11766693759E+03 0.  0.
         23    2    1    2    0    0  0.36873407882E+01  0.23298919294E+02  0.36193243980E+03  0.37363592378E+03  0.89734477411E+02 0.  0.
          5    1    3    3  502    0  0.65382727768E+01  0.10457421135E+02  0.53865024344E+03  0.53880763156E+03  0.41800000000E+01 0. -1.
         -5    1    3    3    0  502 -0.10225613565E+02 -0.33756340429E+02  0.46451311476E+02  0.58474357028E+02  0.41800000000E+01 0.  1.
        -11    1    4    4    0    0  0.39781668029E+02 -0.12695578375E+02  0.15688239269E+03  0.16234483040E+03  0.00000000000E+00 0. -1.
         11    1    4    4    0    0 -0.36094327241E+02  0.35994497669E+02  0.20505004711E+03  0.21129109338E+03  0.00000000000E+00 0.  1.
</event>
<event>
 8    1  0.8619230E-006  0.1260610E+03  0.7561462E-02  0.1233420E+00
          1   -1    0    0  501    0  0.00000000000E+00  0.00000000000E+00  0.85154592224E+02  0.85154592224E+02  0.00000000000E+00 0. -1.
         -1   -1    0    0    0  501 -0.00000000000E+00 -0.00000000000E+00 -0.33508758103E+03  0.33508758103E+03  0.00000000000E+00 0.  1.
         23    2    1    2    0    0  0.53368748827E+02  0.64297809854E+02 -0.25338104218E+03  0.29467275606E+03  0.12509056289E+03 0.  0.
         23    2    1    2    0    0 -0.53368748827E+02 -0.64297809854E+02  0.34480533754E+01  0.12556941719E+03  0.93666203931E+02 0.  0.
          5    1    3    3  502    0  0.57143677455E+02 -0.58752886802E+01 -0.40385620700E+02  0.70344791203E+02  0.41800000000E+01 0.  1.
         -5    1    3    3    0  502 -0.37749286278E+01  0.70173098535E+02 -0.21299542148E+03  0.22432796486E+03  0.41800000000E+01 0.  1.
        -11    1    4    4    0    0 -0.60669853657E+02 -0.12762407784E+01  0.11021046833E+02  0.61675954849E+02  0.00000000000E+00 0. -1.
         11    1    4    4    0    0  0.73011048296E+01 -0.63021569076E+02 -0.75729934571E+01  0.63893462345E+02  0.00000000000E+00 0.  1.
</event>
<event>
 8    1  0.8619230E-006  0.1049710E+03  0.7561462E-02  0.1270177E+00
          2   -1    0    0  501    0  0.00000000000E+00  0.00000000000E+00  0.24400415526E+03  0.24400415526E+03  0.00000000000E+00 0. -1.
         -2   -1    0    0    0  501 -0.00000000000E+00 -0.00000000000E+00 -0.50408073444E+02  0.50408073444E+02  0.00000000000E+00 0.  1.
         23    2    1    2    0    0 -0.12195112584E+01 -0.11470981161E+02  0.81688409660E+02  0.14984526128E+03  0.12509010928E+03 0.  0.
         23    2    1    2    0    0  0.12195112584E+01  0.11470981161E+02  0.11190767216E+03  0.14456696743E+03  0.90792127229E+02 0.  0.
          5    1    3    3  502    0  0.13164423837E+02 -0.64674702385E+02  0.63431581273E+02  0.91636003221E+02  0.41800000000E+01 0.  1.
         -5    1    3    3    0  502 -0.14383935096E+02  0.53203721224E+02  0.18256828387E+02  0.58209258058E+02  0.41800000000E+01 0.  1.
        -11    1    4    4    0    0 -0.43247801774E+02  0.74893509375E+01  0.73818606295E+02  0.85881600887E+02  0.00000000000E+00 0. -1.
         11    1    4    4    0    0  0.44467313032E+02  0.39816302237E+01  0.38089065862E+02  0.58685366539E+02  0.00000000000E+00 0.  1.
</event>
<event>
 8    1  0.8619230E-006  0.1065232E+03  0.7561462E-02  0.1267147E+00
         -1   -1    0    0    0  501 -0.00000000000E+00  0.00000000000E+00  0.33125724572E+03  0.33125724572E+03  0.00000000000E+00 0.  1.
          1   -1    0    0  501    0  0.00000000000E+00 -0.00000000000E+00 -0.39088431742E+02  0.39088431742E+02  0.00000000000E+00 0. -1.
         23    2    1    2    0    0  0.23362343089E+02 -0.18775910243E+02  0.16552187204E+03  0.21129095153E+03  0.12785946267E+03 0.  0.
         23    2    1    2    0    0 -0.23362343089E+02  0.18775910243E+02  0.12664694193E+03  0.15905472593E+03  0.91436448196E+02 0.  0.
          5    1    3    3  502    0  0.76612973871E+01  0.54958543372E+02  0.64876937395E+02  0.85472956969E+02  0.41800000000E+01 0. -1.
         -5    1    3    3    0  502  0.15701045702E+02 -0.73734453615E+02  0.10064493465E+03  0.12581799457E+03  0.41800000000E+01 0.  1.
        -11    1    4    4    0    0  0.79091116616E+00 -0.28656746908E+02  0.91980139160E+01  0.30107111184E+02  0.00000000000E+00 0. -1.
         11    1    4    4    0    0 -0.24153254255E+02  0.47432657151E+02  0.11744892802E+03  0.12894761474E+03  0.00000000000E+00 0.  1.
</event>
<event>
 8    1  0.8619230E-006  0.1334101E+03  0.7561462E-02  0.1222482E+00
          1   -1    0    0  501    0  0.00000000000E+00  0.00000000000E+00  0.45086942263E+03  0.45086942263E+03  0.00000000000E+00 0. -1.
         -1   -1    0    0    0  501 -0.00000000000E+00 -0.00000000000E+00 -0.47822300720E+02  0.47822300720E+02  0.00000000000E+00 0.  1.
         23    2    1    2    0    0 -0.77878178374E+02 -0.58367946006E+02  0.19111690272E+03  0.24828457627E+03  0.12509089704E+03 0.  0.
         23    2    1    2    0    0  0.77878178374E+02  0.58367946006E+02  0.21193021919E+03  0.25040714708E+03  0.91200294484E+02 0.  0.
          5    1    3    3  502    0 -0.43913143377E+02 -0.85581123876E+02  0.17844573102E+03  0.20276302485E+03  0.41800000000E+01 0. -1.
         -5    1    3    3    0  502 -0.33965034997E+02  0.27213177871E+02  0.12671171701E+02  0.45521551429E+02  0.41800000000E+01 0. -1.
        -11    1    4    4    0    0  0.65184570903E+02 -0.19145358860E+01  0.69923820244E+02  0.95613986262E+02  0.00000000000E+00 0.  1.
         11    1    4    4    0    0  0.12693607471E+02  0.60282481892E+02  0.14200639895E+03  0.15479316082E+03  0.00000000000E+00 0. -1.
</event>
<event>
 8    1  0.8619230E-006  0.1898309E+03  0.7561462E-02  0.1158614E+00
          1   -1    0    0  501    0  0.00000000000E+00  0.00000000000E+00  0.14607402304E+04  0.14607402304E+04  0.00000000000E+00 0. -1.
         -1   -1    0    0    0  501 -0.00000000000E+00 -0.00000000000E+00 -0.31897970436E+02  0.31897970436E+02  0.00000000000E+00 0.  1.
         23    2    1    2    0    0 -0.34479602466E+02  0.18099516953E+03  0.64906866520E+03  0.68621192643E+03  0.12509429021E+03 0.  0.
         23    2    1    2    0    0  0.34479602466E+02 -0.18099516953E+03  0.77977359475E+03  0.80642627440E+03  0.91259972582E+02 0.  0.
          5    1    3    3  502    0 -0.34937987451E+02  0.16356327344E+03  0.36431970987E+03  0.40089890345E+03  0.41800000000E+01 0. -1.
         -5    1    3    3    0  502  0.45838498470E+00  0.17431896086E+02  0.28474895533E+03  0.28531302298E+03  0.41800000000E+01 0. -1.
        -11    1    4    4    0    0  0.45827108024E+02 -0.75492190380E+02  0.22727308253E+03  0.24382831804E+03  0.00000000000E+00 0.  1.
         11    1    4    4    0    0 -0.11347505558E+02 -0.10550297915E+03  0.55250051222E+03  0.56259795636E+03  0.00000000000E+00 0. -1.
</event>
<event>
 8    1  0.8619230E-006  0.1063371E+03  0.7561462E-02  0.1267507E+00
          2   -1    0    0  501    0  0.00000000000E+00  0.00000000000E+00  0.18060950470E+03  0.18060950470E+03  0.00000000000E+00 0.  1.
         -2   -1    0    0    0  501 -0.00000000000E+00 -0.00000000000E+00 -0.88132943880E+02  0.88132943880E+02  0.00000000000E+00 0. -1.
         23    2    1    2    0    0 -0.20838839036E+02 -0.55584528770E+02  0.65207028388E+02  0.15304742270E+03  0.12509060713E+03 0.  0.
         23    2    1    2    0    0  0.20838839036E+02  0.55584528770E+02  0.27269532437E+02  0.11569502589E+03  0.95487248181E+02 0.  0.
          5    1    3    3  502    0 -0.64324494715E+02 -0.37559231658E+02  0.26569544023E+01  0.74651646397E+02  0.41800000000E+01 0.  1.
         -5    1    3    3    0  502  0.43485655680E+02 -0.18025297112E+02  0.62550073985E+02  0.78395776298E+02  0.41800000000E+01 0.  1.
        -11    1    4    4    0    0  0.39453054085E+02  0.87481062114E+01  0.46630193937E+02  0.61704520300E+02  0.00000000000E+00 0.  1.
         11    1    4    4    0    0 -0.18614215050E+02  0.46836422559E+02 -0.19360661499E+02  0.53990505589E+02  0.00000000000E+00 0. -1.
</event>
<event>
 8    1  0.8619230E-006  0.1106849E+03  0.7561462E-02  0.1259307E+00
          2   -1    0    0  501    0  0.00000000000E+00  0.00000000000E+00  0.67440282474E+03  0.67440282474E+03  0.00000000000E+00 0. -1.
         -2   -1    0    0    0  501 -0.00000000000E+00 -0.00000000000E+00 -0.32643632721E+02  0.32643632721E+02  0.00000000000E+00 0.  1.
         23    2    1    2    0    0 -0.78240856080E+02  0.71654884452E+02  0.37238175175E+03  0.40350133766E+03  0.11353020053E+03 0.  0.
         23    2    1    2    0    0  0.78240856080E+02 -0.71654884452E+02  0.26937744027E+03  0.30354511980E+03  0.91210637552E+02 0.  0.
          5    1    3    3  502    0 -0.31666010269E+02  0.41302813136E+01  0.27153599170E+03  0.27343932164E+03  0.41800000000E+01 0. -1.
         -5    1    3    3    0  502 -0.46574845811E+02  0.67524603139E+02  0.10084576005E+03  0.13006201602E+03  0.41800000000E+01 0.  1.
        -11    1    4    4    0    0  0.35987604871E+02 -0.23586857942E+02  0.22597122497E+02  0.48601209008E+02  0.00000000000E+00 0.  1.
         11    1    4    4    0    0  0.42253251209E+02 -0.48068026511E+02  0.24678031777E+03  0.25494391079E+03  0.00000000000E+00 0. -1.
</event>
<event>
 8    1  0.8619230E-006  0.1264767E+03  0.7561462E-02  0.1232779E+00
         -2   -1    0    0    0  501 -0.00000000000E+00  0.00000000000E+00  0.26464954808E+03  0.26464954808E+03  0.00000000000E+00 0.  1.
          2   -1    0    0  501    0  0.00000000000E+00 -0.00000000000E+00 -0.62393054461E+02  0.62393054461E+02  0.00000000000E+00 0. -1.
         23    2    1    2    0    0  0.47050819517E+02 -0.46574968064E+02  0.13493558506E+03  0.19554346156E+03  0.12508647400E+03 0.  0.
         23    2    1    2    0    0 -0.47050819517E+02  0.46574968064E+02  0.67320908560E+02  0.13149914098E+03  0.91525472309E+02 0.  0.
          5    1    3    3  502    0 -0.42915273903E+02 -0.17235277424E+02  0.51141654779E+02  0.69077614142E+02  0.41800000000E+01 0. -1.
         -5    1    3    3    0  502  0.89966093420E+02 -0.29339690640E+02  0.83793930282E+02  0.12646584742E+03  0.41800000000E+01 0. -1.
        -11    1    4    4    0    0 -0.10495926290E+01  0.62956541292E+02  0.47167475167E+02  0.78672730026E+02  0.00000000000E+00 0.  1.
         11    1    4    4    0    0 -0.46001226888E+02 -0.16381573228E+02  0.20153433393E+02  0.52826410952E+02  0.00000000000E+00 0. -1.
</event>
<event>
 8    1  0.8619230E-006  0.1060670E+03  0.7561462E-02  0.1268031E+00
          2   -1    0    0  501    0  0.00000000000E+00  0.00000000000E+00  0.39628174086E+03  0.39628174086E+03  0.00000000000E+00 0. -1.
         -2   -1    0    0    0  501 -0.00000000000E+00 -0.00000000000E+00 -0.31063620581E+02  0.31063620581E+02  0.00000000000E+00 0.  1.
         23    2    1    2    0    0  0.25520552130E+02 -0.15245816022E+01  0.20838589847E+03  0.24438886622E+03  0.12509041658E+03 0.  0.
         23    2    1    2    0    0 -0.25520552130E+02  0.15245816022E+01  0.15683222181E+03  0.18295649522E+03  0.90681367521E+02 0.  0.
          5    1    3    3  502    0 -0.24447160803E+02 -0.47609284619E+02  0.12942140787E+03  0.14011310027E+03  0.41800000000E+01 0. -1.
         -5    1    3    3    0  502  0.49967712933E+02  0.46084703017E+02  0.78964490597E+02  0.10427576594E+03  0.41800000000E+01 0. -1.
        -11    1    4    4    0    0 -0.37007099886E+02 -0.35683132503E+02  0.62653790258E+02  0.81045103621E+02  0.00000000000E+00 0. -1.
         11    1    4    4    0    0  0.11486547756E+02  0.37207714105E+02  0.94178431551E+02  0.10191139160E+03  0.00000000000E+00 0.  1.
</event>
<event>
 8    1  0.8619230E-006  0.6623791E+02  0.7561462E-02  0.1373375E+00
          2   -1    0    0  501    0  0.00000000000E+00  0.00000000000E+00  0.12723806637E+02  0.12723806637E+02  0.00000000000E+00 0. -1.
         -2   -1    0    0    0  501 -0.00000000000E+00 -0.00000000000E+00 -0.10146350142E+04  0.10146350142E+04  0.00000000000E+00 0.  1.
         23    2    1    2    0    0 -0.24057138947E+02  0.10624167965E+02 -0.63297130289E+03  0.64575064336E+03  0.12509837826E+03 0.  0.
         23    2    1    2    0    0  0.24057138947E+02 -0.10624167965E+02 -0.36893990471E+03  0.38160817751E+03  0.93896373597E+02 0.  0.
          5    1    3    3  502    0 -0.22221806578E+02 -0.11673400033E+01 -0.13937143787E+02  0.26587360666E+02  0.41800000000E+01 0. -1.
         -5    1    3    3    0  502 -0.18353323694E+01  0.11791507968E+02 -0.61903415910E+03  0.61916328270E+03  0.41800000000E+01 0. -1.
        -11    1    4    4    0    0  0.29539915571E+02 -0.49654125432E+02 -0.20392888789E+03  0.21195549085E+03  0.00000000000E+00 0.  1.
         11    1    4    4    0    0 -0.54827766237E+01  0.39029957467E+02 -0.16501101681E+03  0.16965268665E+03  0.00000000000E+00 0. -1.
</event>
<event>
 8    1  0.8619230E-006  0.1229335E+03  0.7561462E-02  0.1238335E+00
          1   -1    0    0  501    0  0.00000000000E+00  0.00000000000E+00  0.66960623569E+03  0.66960623569E+03  0.00000000000E+00 0. -1.
         -1   -1    0    0    0  501 -0.00000000000E+00 -0.00000000000E+00 -0.27000190408E+02  0.27000190408E+02  0.00000000000E+00 0.  1.
         23    2    1    2    0    0 -0.71000398677E+02  0.12185002855E+02  0.32978243875E+03  0.35999150459E+03  0.12509154872E+03 0.  0.
         23    2    1    2    0    0  0.71000398677E+02 -0.12185002855E+02  0.31282360653E+03  0.33661492151E+03  0.10129889275E+03 0.  0.
          5    1    3    3  502    0  0.47265194441E+01 -0.33709850666E+02  0.24628860328E+02  0.42222590861E+02  0.41800000000E+01 0.  1.
         -5    1    3    3    0  502 -0.75726918121E+02  0.45894853521E+02  0.30515357842E+03  0.31776891373E+03  0.41800000000E+01 0.  1.
        -11    1    4    4    0    0  0.90247897931E+02  0.13050072541E+02  0.25233569845E+03  0.26830634019E+03  0.00000000000E+00 0. -1.
         11    1    4    4    0    0 -0.19247499254E+02 -0.25235075396E+02  0.60487908086E+02  0.68308581323E+02  0.00000000000E+00 0.  1.
</event>
<event>
 8    1  0.8619230E-006  0.2118535E+03  0.7561462E-02  0.1140107E+00
         -2   -1    0    0    0  501 -0.00000000000E+00  0.00000000000E+00  0.61600334616E+02  0.61600334616E+02  0.00000000000E+00 0. -1.
          2   -1    0    0  501    0  0.00000000000E+00 -0.00000000000E+00 -0.78088952850E+03  0.78088952850E+03  0.00000000000E+00 0.  1.
         23    2    1    2    0    0 -0.35032643125E+02  0.18726692949E+03 -0.39913764922E+03  0.45962282277E+03  0.12508432043E+03 0.  0.
         23    2    1    2    0    0  0.35032643125E+02 -0.18726692949E+03 -0.32015154467E+03  0.38286704035E+03  0.88283464292E+02 0.  0.
          5    1    3    3  502    0  0.56627834476E+00  0.19011762614E+03 -0.35469363650E+03  0.40245506658E+03  0.41800000000E+01 0.  1.
         -5    1    3    3    0  502 -0.35598921470E+02 -0.28506966457E+01 -0.44444012715E+02  0.57167756187E+02  0.41800000000E+01 0.  1.
        -11    1    4    4    0    0  0.45696583977E+02 -0.10344991839E+03 -0.11640881755E+03  0.16229934136E+03  0.00000000000E+00 0. -1.
         11    1    4    4    0    0 -0.10663940852E+02 -0.83817011101E+02 -0.20374272712E+03  0.22056769899E+03  0.00000000000E+00 0.  1.
</event>
<event>
 7    1  0.8619230E-006  0.6471887E+02  0.7561462E-02  0.1379032E+00
          1   -1    0    0  501    0  0.00000000000E+00  0.00000000000E+00  0.46356231038E+03  0.46356231038E+03  0.00000000000E+00 0. -1.
         -1   -1    0    0    0  501 -0.00000000000E+00 -0.00000000000E+00 -0.21138161403E+02  0.21138161403E+02  0.00000000000E+00 0.  1.
         23    2    1    2    0    0  0.17341989659E+02  0.47974761239E+02  0.25560821136E+03  0.28911150312E+03  0.12509029218E+03 0.  0.
          5    1    3    3  502    0  0.13181168801E+01  0.57525702708E+02  0.34588313991E+02  0.67266394053E+02  0.41800000000E+01 0.  1.
         -5    1    3    3    0  502  0.16023872779E+02 -0.95509414695E+01  0.22101989737E+03  0.22184510906E+03  0.41800000000E+01 0.  1.
        -11    1    1    2    0    0  0.15807088127E+01 -0.10796266391E+02  0.13682602072E+02  0.17500617354E+02  0.00000000000E+00 0.  1.
         11    1    1    2    0    0 -0.18922698471E+02 -0.37178494848E+02  0.17313333554E+03  0.17808835131E+03  0.00000000000E+00 0. -1.
</event>
<event>
 8    1  0.8619230E-006  0.1062810E+03  0.7561462E-02  0.1267616E+00
         -2   -1    0    0    0  501 -0.00000000000E+00  0.00000000000E+00  0.10773080845E+03  0.10773080845E+03  0.00000000000E+00 0. -1.
          2   -1    0    0  501    0  0.00000000000E+00 -0.00000000000E+00 -0.15664867752E+03  0.15664867752E+03  0.00000000000E+00 0.  1.
         23    2    1    2    0    0  0.59755207053E+02 -0.27350002798E+02  0.66099263969E+01  0.14151284491E+03  0.12515385221E+03 0.  0.
         23    2    1    2    0    0 -0.59755207053E+02  0.27350002798E+02 -0.55527795466E+02  0.12286664106E+03  0.87716406637E+02 0.  0.
          5    1    3    3  502    0 -0.35519807360E+02  0.36074579243E+01  0.18702668056E+02  0.40520768255E+02  0.41800000000E+01 0.  1.
         -5    1    3    3    0  502  0.95275014413E+02 -0.30957460722E+02 -0.12092741659E+02  0.10099207665E+03  0.41800000000E+01 0.  1.
        -11    1    4    4    0    0 -0.49906575332E+02  0.28994833901E+01 -0.74972797449E+02  0.90111007222E+02  0.00000000000E+00 0.  1.
         11    1    4    4    0    0 -0.98486317215E+01  0.24450519408E+02  0.19445001983E+02  0.32755633840E+02  0.00000000000E+00 0. -1.
</event>
<event>
 8    1  0.8619230E-006  0.9883484E+02  0.7561462E-02  0.1282765E+00
          2   -1    0    0  501    0  0.00000000000E+00  0.00000000000E+00  0.13596507492E+03  0.13596507492E+03  0.00000000000E+00 0. -1.
         -2   -1    0    0    0  501 -0.00000000000E+00 -0.00000000000E+00 -0.11734204236E+03  0.11734204236E+03  0.00000000000E+00 0.  1.
         23    2    1    2    0    0  0.50797327402E+01  0.28769581739E+01 -0.51543263713E+02  0.13542106433E+03  0.12509227017E+03 0.  0.
         23    2    1    2    0    0 -0.50797327402E+01 -0.28769581739E+01  0.70166296270E+02  0.11788605294E+03  0.94550154804E+02 0.  0.
          5    1    3    3  502    0  0.36674172338E+02 -0.47737520137E+02 -0.68003938161E+01  0.60725476544E+02  0.41800000000E+01 0. -1.
         -5    1    3    3    0  502 -0.31594439597E+02  0.50614478311E+02 -0.44742869897E+02  0.74695587787E+02  0.41800000000E+01 0. -1.
        -11    1    4    4    0    0  0.25483651171E+02  0.25324776210E+02 -0.45473675287E+00  0.35930036914E+02  0.00000000000E+00 0.  1.
         11    1    4    4    0    0 -0.30563383911E+02 -0.28201734384E+02  0.70621033023E+02  0.81956016030E+02  0.00000000000E+00 0. -1.
</event>
<event>
 7    1  0.8619230E-006  0.1765986E+03  0.7561462E-02  0.1171136E+00
          1   -1    0    0  501    0  0.00000000000E+00  0.00000000000E+00  0.32120145434E+03  0.32120145434E+03  0.00000000000E+00 0. -1.
         -1   -1    0    0    0  501 -0.00000000000E+00 -0.00000000000E+00 -0.34542344767E+03  0.34542344767E+03  0.00000000000E+00 0.  1.
         23    2    1    2    0    0  0.87990900440E+02 -0.15298152411E+02  0.25487989299E+03  0.28498124226E+03  0.90962171039E+02 0.  0.
          5    1    1    2  502    0  0.46285697619E+02 -0.60055728834E+02 -0.17289185967E+02  0.77880965077E+02  0.41800000000E+01 0. -1.
         -5    1    1    2    0  502 -0.13427659806E+03  0.75353881245E+02 -0.26181270036E+03  0.30376269467E+03  0.41800000000E+01 0.  1.
        -11    1    3    3    0    0 -0.10686506560E+02 -0.21859738064E+02  0.84978687703E+02  0.88393591025E+02  0.00000000000E+00 0.  1.
         11    1    3    3    0    0  0.98677407000E+02  0.65615856528E+01  0.16990120529E+03  0.19658765123E+03  0.00000000000E+00 0. -1.
</event>
<event>
 7    1  0.8619230E-006  0.1379640E+03  0.7561462E-02  0.1216095E+00
         -1   -1    0    0    0  501 -0.00000000000E+00  0.00000000000E+00  0.12580137270E+03  0.12580137270E+03  0.00000000000E+00 0.  1.
          1   -1    0    0  501    0  0.00000000000E+00 -0.00000000000E+00 -0.56493171091E+03  0.56493171091E+03  0.00000000000E+00 0. -1.
         23    2    1    2    0    0  0.32930796040E+02  0.10484303365E+02 -0.49267611946E+03  0.50203882199E+03  0.90104728804E+02 0.  0.
          5    1    1    2  502    0 -0.10107583655E+03 -0.35561828723E+02  0.22254886311E+02  0.10951584708E+03  0.41800000000E+01 0. -1.
         -5    1    1    2    0  502  0.68145040514E+02  0.25077525358E+02  0.31290894932E+02  0.79178414549E+02  0.41800000000E+01 0.  1.
        -11    1    3    3    0    0  0.64150981027E+02  0.79413001736E+01 -0.30600068108E+03  0.31275362418E+03  0.00000000000E+00 0. -1.
         11    1    3    3    0    0 -0.31220184987E+02  0.25430031913E+01 -0.18667543837E+03  0.18928519780E+03  0.00000000000E+00 0.  1.
</event>
<event>
 8    1  0.8619230E-006  0.3055625E+03  0.7561462E-02  0.1082493E+00
         -2   -1    0    0    0  501 -0.00000000000E+00  0.00000000000E+00  0.84977916080E+03  0.84977916080E+03  0.00000000000E+00 0.  1.
          2   -1    0    0  501    0  0.00000000000E+00 -0.00000000000E+00 -0.12103208473E+03  0.12103208473E+03  0.00000000000E+00 0. -1.
         23    2    1    2    0    0  0.17244530923E+03 -0.24473351695E+03  0.42812531954E+03  0.53719013011E+03  0.12510023044E+03 0.  0.
         23    2    1    2    0    0 -0.17244530923E+03  0.24473351695E+03  0.30062175652E+03  0.43362111542E+03  0.89565351844E+02 0.  0.
          5    1    3    3  502    0  0.18070178307E+03 -0.22926851224E+03  0.34414904662E+03  0.45130169931E+03  0.41800000000E+01 0.  1.
         -5    1    3    3    0  502 -0.82564738404E+01 -0.15465004712E+02  0.83976272919E+02  0.85888430795E+02  0.41800000000E+01 0.  1.
        -11    1    4    4    0    0 -0.10873661935E+03  0.18023130864E+03  0.15239768024E+03  0.25986925549E+03  0.00000000000E+00 0. -1.
         11    1    4    4    0    0 -0.63708689880E+02  0.64502208307E+02  0.14822407628E+03  0.17375185994E+03  0.00000000000E+00 0.  1.
</event>
<event>
 8    1  0.8619230E-006  0.9747234E+02  0.7561462E-02  0.1285703E+00
         -2   -1    0    0    0  501 -0.00000000000E+00  0.00000000000E+00  0.31597472858E+02  0.31597472858E+02  0.00000000000E+00 0.  1.
          2   -1    0    0  501    0  0.00000000000E+00 -0.00000000000E+00 -0.44853750888E+03  0.44853750888E+03  0.00000000000E+00 0. -1.
         23    2    1    2    0    0  0.46347958252E+01  0.25837754270E+02 -0.15299607313E+03  0.19935502036E+03  0.12508219247E+03 0.  0.
         23    2    1    2    0    0 -0.46347958252E+01 -0.25837754270E+02 -0.26394396289E+03  0.28077996138E+03  0.92097232776E+02 0.  0.
          5    1    3    3  502    0  0.60131458036E+02 -0.11509430095E+01 -0.46253046213E+02  0.75986404042E+02  0.41800000000E+01 0.  1.
         -5    1    3    3    0  502 -0.55496662210E+02  0.26988697279E+02 -0.10674302691E+03  0.12336861632E+03  0.41800000000E+01 0.  1.
        -11    1    4    4    0    0 -0.36316341415E+02 -0.15416017319E+02 -0.22938202358E+03  0.23275017290E+03  0.00000000000E+00 0. -1.
         11    1    4    4    0    0  0.31681545590E+02 -0.10421736951E+02 -0.34561939316E+02  0.48029788479E+02  0.00000000000E+00 0.  1.
</event>
<event>
 8    1  0.8619230E-006  0.7409922E+02  0.7561462E-02  0.1346683E+00
         -2   -1    0    0    0  501 -0.00000000000E+00  0.00000000000E+00  0.85433276164E+02  0.85433276164E+02  0.00000000000E+00 0.  1.
          2   -1    0    0  501    0  0.00000000000E+00 -0.00000000000E+00 -0.14838868117E+03  0.14838868117E+03  0.00000000000E+00 0. -1.
         23    2    1    2    0    0 -0.30831091726E+02  0.89231435789E+01 -0.38293612296E+02  0.13470055922E+03  0.12509061197E+03 0.  0.
         23    2    1    2    0    0  0.30831091726E+02 -0.89231435789E+01 -0.24661792713E+02  0.99121398115E+02  0.90480212401E+02 0.  0.
          5    1    3    3  502    0 -0.99477036743E+01 -0.50391627266E+02 -0.48606099057E+02  0.70839947575E+02  0.41800000000E+01 0. -1.
         -5    1    3    3    0  502 -0.20883388052E+02  0.59314770845E+02  0.10312486761E+02  0.63860611648E+02  0.41800000000E+01 0. -1.
        -11    1    4    4    0    0  0.14035269620E+02 -0.93090013850E+01  0.34085380041E+02  0.38019198211E+02  0.00000000000E+00 0.  1.
         11    1    4    4    0    0  0.16795822106E+02  0.38585780614E+00 -0.58747172754E+02  0.61102199903E+02  0.00000000000E+00 0. -1.
</event>
<event>
 8    1  0.8619230E-006  0.1577960E+03  0.7561462E-02  0.1191208E+00
         -2   -1    0    0    0  501 -0.00000000000E+00  0.00000000000E+00  0.39097451164E+02  0.39097451164E+02  0.00000000000E+00 0. -1.
          2   -1    0    0  501    0  0.00000000000E+00 -0.00000000000E+00 -0.92367250112E+03  0.92367250112E+03  0.00000000000E+00 0.  1.
         23    2    1    2    0    0  0.10391470213E+03 -0.11421424380E+03 -0.49880793022E+03  0.53693684025E+03  0.12509460565E+03 0.  0.
         23    2    1    2    0    0 -0.10391470213E+03  0.11421424380E+03 -0.38576711974E+03  0.42583311204E+03  0.93136511802E+02 0.  0.
          5    1    3    3  502    0  0.90471631471E+02 -0.76157598707E+02 -0.17908023148E+03  0.21464458448E+03  0.41800000000E+01 0. -1.
         -5    1    3    3    0  502  0.13443070660E+02 -0.38056645090E+02 -0.31972769874E+03  0.32229225576E+03  0.41800000000E+01 0. -1.
        -11    1    4    4    0    0 -0.83475612530E+02  0.10532697609E+03 -0.37962859340E+03  0.40271555558E+03  0.00000000000E+00 0.  1.
         11    1    4    4    0    0 -0.20439089601E+02  0.88872677036E+01 -0.61385263409E+01  0.23117556458E+02  0.00000000000E+00 0. -1.
</event>
<event>
 8    1  0.8619230E-006  0.8462188E+02  0.7561462E-02  0.1316424E+00
         -1   -1    0    0    0  501 -0.00000000000E+00  0.00000000000E+00  0.33717728097E+02  0.33717728097E+02  0.00000000000E+00 0.  1.
          1   -1    0    0  501    0  0.00000000000E+00 -0.00000000000E+00 -0.46120654215E+03  0.46120654215E+03  0.00000000000E+00 0. -1.
         23    2    1    2    0    0 -0.26613491911E+02  0.54180600784E+02 -0.21658835099E+03  0.25729880861E+03  0.12509335584E+03 0.  0.
         23    2    1    2    0    0  0.26613491911E+02 -0.54180600784E+02 -0.21090046306E+03  0.23762546163E+03  0.91340238911E+02 0.  0.
          5    1    3    3  502    0 -0.12624200245E+02  0.23094842794E+02 -0.22106403407E+03  0.22266459475E+03  0.41800000000E+01 0. -1.
         -5    1    3    3    0  502 -0.13989291667E+02  0.31085757990E+02  0.44756830748E+01  0.34634213866E+02  0.41800000000E+01 0. -1.
        -11    1    4    4    0    0 -0.77768220526E+01  0.22717790566E+02 -0.62954709595E+02  0.67378575450E+02  0.00000000000E+00 0. -1.
         11    1    4    4    0    0  0.34390313964E+02 -0.76898391350E+02 -0.14794575347E+03  0.17024688618E+03  0.00000000000E+00 0.  1.
</event>
<event>
 8    1  0.8619230E-006  0.1307873E+03  0.7561462E-02  0.1226292E+00
          1   -1    0    0  501    0  0.00000000000E+00  0.00000000000E+00  0.62301396845E+02  0.62301396845E+02  0.00000000000E+00 0. -1.
         -1   -1    0    0    0  501 -0.00000000000E+00 -0.00000000000E+00 -0.29467935492E+03  0.29467935492E+03  0.00000000000E+00 0.  1.
         23    2    1    2    0    0 -0.33308357602E+02 -0.73880931432E+02 -0.12196654368E+03  0.19259014596E+03  0.12508911954E+03 0.  0.
         23    2    1    2    0    0  0.33308357602E+02  0.73880931432E+02 -0.11041141439E+03  0.16439060581E+03  0.90916181910E+02 0.  0.
          5    1    3    3  502    0 -0.80395495012E+02 -0.34797396810E+02 -0.72749653198E+02  0.11394858000E+03  0.41800000000E+01 0.  1.
         -5    1    3    3    0  502  0.47087137411E+02 -0.39083534622E+02 -0.49216890482E+02  0.78641565961E+02  0.41800000000E+01 0.  1.
        -11    1    4    4    0    0 -0.10717617929E+02  0.67147261094E+02 -0.95876027303E+02  0.11754077853E+03  0.00000000000E+00 0.  1.
         11    1    4    4    0    0  0.44025975530E+02  0.67336703374E+01 -0.14535387092E+02  0.46849827273E+02  0.00000000000E+00 0. -1.
</event>
<event>
 8    1  0.8619230E-006  0.1239437E+03  0.7561462E-02  0.1236729E+00
         -1   -1    0    0    0  501 -0.00000000000E+00  0.00000000000E+00  0.79805894530E+02  0.79805894530E+02  0.00000000000E+00 0.  1.
          1   -1    0    0  501    0  0.00000000000E+00 -0.00000000000E+00 -0.24105125749E+03  0.24105125749E+03  0.00000000000E+00 0. -1.
         23    2    1    2    0    0  0.94677509458E+00  0.71337736235E+02 -0.32028408141E+02  0.14752080654E+03  0.12508637193E+03 0.  0.
         23    2    1    2    0    0 -0.94677509458E+00 -0.71337736235E+02 -0.12921695482E+03  0.17333634547E+03  0.90876279939E+02 0.  0.
          5    1    3    3  502    0 -0.51757660800E+02  0.35527182159E+01  0.80594941203E+01  0.52667875443E+02  0.41800000000E+01 0. -1.
         -5    1    3    3    0  502  0.52704435895E+02  0.67785018019E+02 -0.40087902261E+02  0.94852931102E+02  0.41800000000E+01 0. -1.
        -11    1    4    4    0    0  0.38064581492E+02 -0.14069856485E+02 -0.75295635993E+02  0.85535408020E+02  0.00000000000E+00 0. -1.
         11    1    4    4    0    0 -0.39011356587E+02 -0.57267879750E+02 -0.53921318825E+02  0.87800937453E+02  0.00000000000E+00 0.  1.
</event>
<event>
 8    1  0.8619230E-006  0.1616551E+03  0.7561462E-02  0.1186841E+00
          2   -1    0    0  501    0  0.00000000000E+00  0.00000000000E+00  0.30148031323E+03  0.30148031323E+03  0.00000000000E+00 0. -1.
         -2   -1    0    0    0  501 -0.00000000000E+00 -0.00000000000E+00 -0.10468043567E+03  0.10468043567E+03  0.00000000000E+00 0.  1.
         23    2    1    2    0    0 -0.10065708915E+03 -0.69810527534E+02  0.25940587044E+02  0.17699144973E+03  0.12509076652E+03 0.  0.
         23    2    1    2    0    0  0.10065708915E+03  0.69810527534E+02  0.17085929052E+03  0.22916929917E+03  0.91215739726E+02 0.  0.
          5    1    3    3  502    0  0.12923055903E+02 -0.54233561095E+02  0.27402178055E+02  0.62262639560E+02  0.41800000000E+01 0. -1.
         -5    1    3    3    0  502 -0.11358014505E+03 -0.15576966439E+02 -0.14615910108E+01  0.11472881017E+03  0.41800000000E+01 0. -1.
        -11    1    4    4    0    0  0.11400566992E+03  0.41396373764E+02  0.13795388552E+03  0.18369057424E+03  0.00000000000E+00 0. -1.
         11    1    4    4    0    0 -0.13348580768E+02  0.28414153770E+02  0.32905405001E+02  0.45478724930E+02  0.00000000000E+00 0.  1.
</event>
<event>
 8    1  0.8619230E-006  0.9639500E+02  0.7561462E-02  0.1288065E+00
          1   -1    0    0  501    0  0.00000000000E+00  0.00000000000E+00  0.26722052390E+03  0.26722052390E+03  0.00000000000E+00 0. -1.
         -1   -1    0    0    0  501 -0.00000000000E+00 -0.00000000000E+00 -0.51445042582E+02  0.51445042582E+02  0.00000000000E+00 0.  1.
         23    2    1    2    0    0  0.10880561184E+02 -0.26579892851E+02  0.76220468233E+02  0.14927349755E+03  0.12509252567E+03 0.  0.
         23    2    1    2    0    0 -0.10880561184E+02  0.26579892851E+02  0.13955501308E+03  0.16939206893E+03  0.91614376728E+02 0.  0.
          5    1    3    3  502    0 -0.55221969111E+02  0.20979683440E+01  0.25169651684E+02  0.60867488116E+02  0.41800000000E+01 0. -1.
         -5    1    3    3    0  502  0.66102530295E+02 -0.28677861195E+02  0.51050816549E+02  0.88406009436E+02  0.41800000000E+01 0. -1.
        -11    1    4    4    0    0 -0.35187945924E+02  0.16802442861E+02  0.14469073156E+02  0.41591678284E+02  0.00000000000E+00 0.  1.
         11    1    4    4    0    0  0.24307384740E+02  0.97774499893E+01  0.12508593993E+03  0.12780039064E+03  0.00000000000E+00 0. -1.
</event>
<event>
 8    1  0.8619230E-006  0.1138531E+03  0.7561462E-02  0.1253596E+00
          1   -1    0    0  501    0  0.00000000000E+00  0.00000000000E+00  0.37970013160E+03  0.37970013160E+03  0.00000000000E+00 0. -1.
         -1   -1    0    0    0  501 -0.00000000000E+00 -0.00000000000E+00 -0.41216246050E+02  0.41216246050E+02  0.00000000000E+00 0.  1.
         23    2    1    2    0    0  0.53221820869E+02 -0.85520695360E+01  0.13783173247E+03  0.19378033984E+03  0.12509010162E+03 0.  0.
         23    2    1    2    0    0 -0.53221820869E+02  0.85520695360E+01  0.20065215309E+03  0.22713603781E+03  0.91781223707E+02 0.  0.
          5    1    3    3  502    0  0.52570540026E+02 -0.61303305179E+02  0.64991886204E+02  0.10374572076E+03  0.41800000000E+01 0.  1.
         -5    1    3    3    0  502  0.65128084294E+00  0.52751235643E+02  0.72839846262E+02  0.90034619076E+02  0.41800000000E+01 0.  1.
        -11    1    4    4    0    0  0.18750113121E+02 -0.74751562967E+01  0.96057644634E+01  0.22354315347E+02  0.00000000000E+00 0.  1.
         11    1    4    4    0    0 -0.71971933990E+02  0.16027225833E+02  0.19104638862E+03  0.20478172247E+03  0.00000000000E+00 0. -1.
</event>
<event>
 8    1  0.8619230E-006  0.1335490E+03  0.7561462E-02  0.1222283E+00
          3   -1    0    0  501    0  0.00000000000E+00  0.00000000000E+00  0.36366501960E+03  0.36366501960E+03  0.00000000000E+00 0. -1.
         -3   -1    0    0    0  501 -0.00000000000E+00 -0.00000000000E+00 -0.85256746425E+02  0.85256746425E+02  0.00000000000E+00 0.  1.
         23    2    1    2    0    0 -0.34476664323E+02  0.10355003523E+03  0.38916015898E+02  0.17050626310E+03  0.12508668707E+03 0.  0.
         23    2    1    2    0    0  0.34476664323E+02 -0.10355003523E+03  0.23949225728E+03  0.27841550293E+03  0.90815201351E+02 0.  0.
          5    1    3    3  502    0 -0.46513466745E+02  0.39871430268E+02 -0.36142950244E+02  0.71253201981E+02  0.41800000000E+01 0. -1.
         -5    1    3    3    0  502  0.12036802422E+02  0.63678604962E+02  0.75058966142E+02  0.99253061115E+02  0.41800000000E+01 0. -1.
        -11    1    4    4    0    0 -0.18712779775E+02 -0.80734381716E+02  0.12264724197E+03  0.14802214186E+03  0.00000000000E+00 0. -1.
         11    1    4    4    0    0  0.53189444097E+02 -0.22815653514E+02  0.11684501531E+03  0.13039336107E+03  0.00000000000E+00 0.  1.
</event>
<event>
 8    1  0.8619230E-006  0.2056537E+03  0.7561462E-02  0.1145055E+00
          2   -1    0    0  501    0  0.00000000000E+00  0.00000000000E+00  0.11059614929E+03  0.11059614929E+03  0.00000000000E+00 0. -1.
         -2   -1    0    0    0  501 -0.00000000000E+00 -0.00000000000E+00 -0.47543348777E+03  0.47543348777E+03  0.00000000000E+00 0.  1.
         23    2    1    2    0    0 -0.18443624932E+03 -0.16735419899E+02 -0.29167469606E+03  0.36744827410E+03  0.12508917407E+03 0.  0.
         23    2    1    2    0    0  0.18443624932E+03  0.16735419899E+02 -0.73162642412E+02  0.21858136297E+03  0.90156728251E+02 0.  0.
          5    1    3    3  502    0 -0.25563859984E+02 -0.44236100039E+02 -0.12694858537E+03  0.13690784934E+03  0.41800000000E+01 0.  1.
         -5    1    3    3    0  502 -0.15887238934E+03  0.27500680139E+02 -0.16472611069E+03  0.23054042476E+03  0.41800000000E+01 0.  1.
        -11    1    4    4    0    0  0.14551752954E+03 -0.17954447720E+02 -0.78256666910E+02  0.16619813330E+03  0.00000000000E+00 0.  1.
         11    1    4    4    0    0  0.38918719783E+02  0.34689867619E+02  0.50940244980E+01  0.52383229669E+02  0.00000000000E+00 0. -1.
</event>
<event>
 8    1  0.8619230E-006  0.8284577E+02  0.7561462E-02  0.1321164E+00
          2   -1    0    0  501    0  0.00000000000E+00  0.00000000000E+00  0.51704382937E+03  0.51704382937E+03  0.00000000000E+00 0. -1.
         -2   -1    0    0    0  501 -0.00000000000E+00 -0.00000000000E+00 -0.24469319278E+02  0.24469319278E+02  0.00000000000E+00 0.  1.
         23    2    1    2    0    0  0.21785025135E+00  0.12294912325E+02  0.20606994444E+03  0.24136792132E+03  0.12506973700E+03 0.  0.
         23    2    1    2    0    0 -0.21785025135E+00 -0.12294912325E+02  0.28650456566E+03  0.30014522733E+03  0.88606314787E+02 0.  0.
          5    1    3    3  502    0 -0.28992553822E+02  0.39103648774E+02  0.22989188859E+02  0.53996654794E+02  0.41800000000E+01 0. -1.
         -5    1    3    3    0  502  0.29210404073E+02 -0.26808736449E+02  0.18308075558E+03  0.18737126653E+03  0.41800000000E+01 0. -1.
        -11    1    4    4    0    0  0.18443074797E+02 -0.39720482159E+02  0.23383058837E+03  0.23789621218E+03  0.00000000000E+00 0. -1.
         11    1    4    4    0    0 -0.18660925048E+02  0.27425569834E+02  0.52673977283E+02  0.62249015151E+02  0.00000000000E+00 0.  1.
</event>
<event>
 7    1  0.8619230E-006  0.1045514E+03  0.7561462E-02  0.1271006E+00
          2   -1    0    0  501    0  0.00000000000E+00  0.00000000000E+00  0.41523031327E+03  0.41523031327E+03  0.00000000000E+00 0. -1.
         -2   -1    0    0    0  501 -0.00000000000E+00 -0.00000000000E+00 -0.81113817139E+02  0.81113817139E+02  0.00000000000E+00 0.  1.
         23    2    1    2    0    0  0.21074491218E+02  0.50353399724E+02  0.13222397418E+03  0.16436253903E+03  0.80946067518E+02 0.  0.
          5    1    1    2  502    0  0.39148434684E+02 -0.53017725261E+00  0.24120043252E+03  0.24439313017E+03  0.41800000000E+01 0. -1.
         -5    1    1    2    0  502 -0.60222925902E+02 -0.49823222471E+02 -0.39307910573E+02  0.87588461199E+02  0.41800000000E+01 0.  1.
        -11    1    3    3    0    0  0.40116146641E+02  0.58344337656E+02  0.12260530774E+03  0.14158187894E+03  0.00000000000E+00 0.  1.
         11    1    3    3    0    0 -0.19041655423E+02 -0.79909379323E+01  0.96186664364E+01  0.22780660094E+02  0.00000000000E+00 0. -1.
</event>
<event>
 8    1  0.8619230E-006  0.1547566E+03  0.7561462E-02  0.1194747E+00
          1   -1    0    0  501    0  0.00000000000E+00  0.00000000000E+00  0.13917523600E+03  0.13917523600E+03  0.00000000000E+00 0.  1.
         -1   -1    0    0    0  501 -0.00000000000E+00 -0.00000000000E+00 -0.17806314541E+03  0.17806314541E+03  0.00000000000E+00 0. -1.
         23    2    1    2    0    0  0.85279694976E+02 -0.76013887190E+02 -0.17662380971E+02  0.17031911490E+03  0.12508358717E+03 0.  0.
         23    2    1    2    0    0 -0.85279694976E+02  0.76013887190E+02 -0.21225528436E+02  0.14691926650E+03  0.89911124956E+02 0.  0.
          5    1    3    3  502    0 -0.29331533402E+02 -0.32723521687E+02  0.85460648823E+01  0.44963044250E+02  0.41800000000E+01 0.  1.
         -5    1    3    3    0  502  0.11461122838E+03 -0.43290365503E+02 -0.26208445853E+02  0.12535607065E+03  0.41800000000E+01 0.  1.
        -11    1    4    4    0    0 -0.10299885360E+03  0.67312962204E+02 -0.82993100061E+01  0.12332346601E+03  0.00000000000E+00 0.  1.
         11    1    4    4    0    0  0.17719158620E+02  0.87009249863E+01 -0.12926218430E+02  0.23595800489E+02  0.00000000000E+00 0. -1.
</event>
<event>
 8    1  0.8619230E-006  0.1060195E+03  0.7561462E-02  0.1268124E+00
         -1   -1    0    0    0  501 -0.00000000000E+00  0.00000000000E+00  0.11673160049E+03  0.11673160049E+03  0.00000000000E+00 0.  1.
          1   -1    0    0  501    0  0.00000000000E+00 -0.00000000000E+00 -0.13818623741E+03  0.13818623741E+03  0.00000000000E+00 0. -1.
         23    2    1    2    0    0  0.15488392853E+02  0.24250136411E+02  0.46920220031E+02  0.13666624679E+03  0.12509275173E+03 0.  0.
         23    2    1    2    0    0 -0.15488392853E+02 -0.24250136411E+02 -0.68374856953E+02  0.11825159110E+03  0.92088860916E+02 0.  0.
          5    1    3    3  502    0  0.10731809570E+02  0.75635604529E+02  0.30313176184E+02  0.82293848248E+02  0.41800000000E+01 0.  1.
         -5    1    3    3    0  502  0.47565832828E+01 -0.51385468118E+02  0.16607043847E+02  0.54372398545E+02  0.41800000000E+01 0.  1.
        -11    1    4    4    0    0 -0.28482090489E+02  0.21826670592E+02 -0.59617080670E+02  0.69583254705E+02  0.00000000000E+00 0. -1.
         11    1    4    4    0    0  0.12993697636E+02 -0.46076807003E+02 -0.87577762821E+01  0.48668336393E+02  0.00000000000E+00 0.  1.
</event>
<event>
 8    1  0.8619230E-006  0.9934539E+02  0.7561462E-02  0.1281679E+00
          1   -1    0    0  501    0  0.00000000000E+00  0.00000000000E+00  0.43038079219E+02  0.43038079219E+02  0.00000000000E+00 0. -1.
         -1   -1    0    0    0  501 -0.00000000000E+00 -0.00000000000E+00 -0.39898724414E+03  0.39898724414E+03  0.00000000000E+00 0.  1.
         23    2    1    2    0    0 -0.29193608211E+02 -0.41406903941E+00 -0.27385212210E+03  0.30248173419E+03  0.12509107294E+03 0.  0.
         23    2    1    2    0    0  0.29193608211E+02  0.41406903941E+00 -0.82097042824E+02  0.13954358916E+03  0.10899564497E+03 0.  0.
          5    1    3    3  502    0 -0.43008661115E+02 -0.30226920641E+02 -0.39723014943E+02  0.66021223697E+02  0.41800000000E+01 0.  1.
         -5    1    3    3    0  502  0.13815052903E+02  0.29812851602E+02 -0.23412910715E+03  0.23646051049E+03  0.41800000000E+01 0.  1.
        -11    1    4    4    0    0  0.68939210977E+02 -0.14381865158E+02 -0.51852912170E+02  0.87453858440E+02  0.00000000000E+00 0. -1.
         11    1    4    4    0    0 -0.39745602766E+02  0.14795934197E+02 -0.30244130654E+02  0.52089730725E+02  0.00000000000E+00 0.  1.
</event>
<event>
 8    1  0.8619230E-006  0.1196001E+03  0.7561462E-02  0.1243758E+00
         -1   -1    0    0    0  501 -0.00000000000E+00  0.00000000000E+00  0.24327056305E+02  0.24327056305E+02  0.00000000000E+00 0.  1.
          1   -1    0    0  501    0  0.00000000000E+00 -0.00000000000E+00 -0.71135434666E+03  0.71135434666E+03  0.00000000000E+00 0. -1.
         23    2    1    2    0    0 -0.44761414355E+02  0.45003133361E+02 -0.25322053652E+03  0.28947732507E+03  0.12509042883E+03 0.  0.
         23    2    1    2    0    0  0.44761414355E+02 -0.45003133361E+02 -0.43380675384E+03  0.44620407790E+03  0.82951270233E+02 0.  0.
          5    1    3    3  502    0 -0.70764296519E+02 -0.12606362270E+02 -0.96189717746E+02  0.12015173836E+03  0.41800000000E+01 0. -1.
         -5    1    3    3    0  502  0.26002882164E+02  0.57609495632E+02 -0.15703081877E+03  0.16932558670E+03  0.41800000000E+01 0. -1.
        -11    1    4    4    0    0  0.27926346658E+02 -0.69060593207E+02 -0.28866745896E+03  0.29812438383E+03  0.00000000000E+00 0. -1.
         11    1    4    4    0    0  0.16835067697E+02  0.24057459846E+02 -0.14513929487E+03  0.14807969407E+03  0.00000000000E+00 0.  1.
</event>
<event>
 8    1  0.8619230E-006  0.1141059E+03  0.7561462E-02  0.1253150E+00
         -1   -1    0    0    0  501 -0.00000000000E+00  0.00000000000E+00  0.19977075672E+03  0.19977075672E+03  0.00000000000E+00 0.  1.
          1   -1    0    0  501    0  0.00000000000E+00 -0.00000000000E+00 -0.71108302063E+02  0.71108302063E+02  0.00000000000E+00 0. -1.
         23    2    1    2    0    0 -0.37998166847E+02  0.26568594737E+02  0.70189289891E+02  0.15074265960E+03  0.12508821727E+03 0.  0.
         23    2    1    2    0    0  0.37998166847E+02 -0.26568594737E+02  0.58473164768E+02  0.12013639918E+03  0.94148247462E+02 0.  0.
          5    1    3    3  502    0  0.42649257278E+02  0.23329369289E+02  0.44228798673E+02  0.65854974374E+02  0.41800000000E+01 0. -1.
         -5    1    3    3    0  502 -0.80647424125E+02  0.32392254485E+01  0.25960491218E+02  0.84887685230E+02  0.41800000000E+01 0. -1.
        -11    1    4    4    0    0 -0.16642266169E+02 -0.39139648141E+02  0.46094553290E+02  0.62718298150E+02  0.00000000000E+00 0.  1.
         11    1    4    4    0    0  0.54640433016E+02  0.12571053404E+02  0.12378611479E+02  0.57418101031E+02  0.00000000000E+00 0. -1.
</event>
<event>
 8    1  0.8619230E-006  0.1305157E+03  0.7561462E-02  0.1226692E+00
          4   -1    0    0  501    0  0.00000000000E+00  0.00000000000E+00  0.76220975969E+02  0.76220975969E+02  0.00000000000E+00 0.  1.
         -4   -1    0    0    0  501 -0.00000000000E+00 -0.00000000000E+00 -0.34939753239E+03  0.34939753239E+03  0.00000000000E+00 0. -1.
         23    2    1    2    0    0 -0.10005586085E+03 -0.45095162861E+02 -0.19466585654E+03  0.25609972098E+03  0.12509005708E+03 0.  0.
         23    2    1    2    0    0  0.10005586085E+03  0.45095162861E+02 -0.78510699878E+02  0.16951878737E+03  0.10260575166E+03 0.  0.
          5    1    3    3  502    0 -0.84904543847E+02 -0.54837823004E+02 -0.20933469442E+03  0.23249613994E+03  0.41800000000E+01 0.  1.
         -5    1    3    3    0  502 -0.15151316999E+02  0.97426601438E+01  0.14668837878E+02  0.23603581045E+02  0.41800000000E+01 0.  1.
        -11    1    4    4    0    0  0.93750638954E+02 -0.20905106613E+01 -0.23313288858E+02  0.96628473943E+02  0.00000000000E+00 0.  1.
         11    1    4    4    0    0  0.63052218911E+01  0.47185673522E+02 -0.55197411021E+02  0.72890313432E+02  0.00000000000E+00 0. -1.
</event>
<event>
 8    1  0.8619230E-006  0.9389163E+02  0.7561462E-02  0.1293692E+00
         -1   -1    0    0    0  501 -0.00000000000E+00  0.00000000000E+00  0.67925691997E+02  0.67925691997E+02  0.00000000000E+00 0.  1.
          1   -1    0    0  501    0  0.00000000000E+00 -0.00000000000E+00 -0.17742125496E+03  0.17742125496E+03  0.00000000000E+00 0. -1.
         23    2    1    2    0    0  0.26566533887E+01 -0.96459300016E+01 -0.42174857477E+02  0.13239213823E+03  0.12509539515E+03 0.  0.
         23    2    1    2    0    0 -0.26566533887E+01  0.96459300016E+01 -0.67320705490E+02  0.11295480873E+03  0.90147710205E+02 0.  0.
          5    1    3    3  502    0 -0.41925760016E+02  0.20547482821E+02  0.19184489291E+02  0.50650621245E+02  0.41800000000E+01 0.  1.
         -5    1    3    3    0  502  0.44582413404E+02 -0.30193412822E+02 -0.61359346768E+02  0.81741516982E+02  0.41800000000E+01 0.  1.
        -11    1    4    4    0    0 -0.30395990573E+02  0.37039023487E+02 -0.20734723323E+02  0.52208564959E+02  0.00000000000E+00 0.  1.
         11    1    4    4    0    0  0.27739337184E+02 -0.27393093486E+02 -0.46585982167E+02  0.60746243774E+02  0.00000000000E+00 0. -1.
</event>
<event>
 8    1  0.8619230E-006  0.1560853E+03  0.7561462E-02  0.1193189E+00
          3   -1    0    0  501    0  0.00000000000E+00  0.00000000000E+00  0.41180814010E+02  0.41180814010E+02  0.00000000000E+00 0. -1.
         -3   -1    0    0    0  501 -0.00000000000E+00 -0.00000000000E+00 -0.96859365860E+03  0.96859365860E+03  0.00000000000E+00 0.  1.
         23    2    1    2    0    0 -0.63217974118E+02 -0.96974130227E+02 -0.79029577920E+03  0.80846486072E+03  0.12509004043E+03 0.  0.
         23    2    1    2    0    0  0.63217974118E+02  0.96974130227E+02 -0.13711706539E+03  0.20130961189E+03  0.91235826479E+02 0.  0.
          5    1    3    3  502    0 -0.44796523060E+02  0.21491400926E+02 -0.20200523554E+03  0.20806776872E+03  0.41800000000E+01 0.  1.
         -5    1    3    3    0  502 -0.18421451058E+02 -0.11846553115E+03 -0.58829054365E+03  0.60039709200E+03  0.41800000000E+01 0.  1.
        -11    1    4    4    0    0  0.70734177066E+02  0.33210169602E+02 -0.48828674088E+02  0.92143792973E+02  0.00000000000E+00 0. -1.
         11    1    4    4    0    0 -0.75162029473E+01  0.63763960624E+02 -0.88288391304E+02  0.10916581892E+03  0.00000000000E+00 0.  1.
</event>
<event>
 8    1  0.8619230E-006  0.1938826E+03  0.7561462E-02  0.1155005E+00
         -2   -1    0    0    0  501 -0.00000000000E+00  0.00000000000E+00  0.27976505815E+02  0.27976505815E+02  0.00000000000E+00 0.  1.
          2   -1    0    0  501    0  0.00000000000E+00 -0.00000000000E+00 -0.16450351620E+04  0.16450351620E+04  0.00000000000E+00 0. -1.
         23    2    1    2    0    0  0.12426747036E+03 -0.12702415118E+03 -0.68834025947E+03  0.72182747282E+03  0.12508016846E+03 0.  0.
         23    2    1    2    0    0 -0.12426747036E+03  0.12702415118E+03 -0.92871839672E+03  0.95118419500E+03  0.10322777355E+03 0.  0.
          5    1    3    3  502    0  0.11766258480E+02  0.35668849555E+01 -0.81436657579E+00  0.13011652463E+02  0.41800000000E+01 0.  1.
         -5    1    3    3    0  502  0.11250121188E+03 -0.13059103613E+03 -0.68752589289E+03  0.70881582036E+03  0.41800000000E+01 0.  1.
        -11    1    4    4    0    0 -0.67557540260E+02  0.12899690349E+03 -0.58733968620E+03  0.60512158228E+03  0.00000000000E+00 0.  1.
         11    1    4    4    0    0 -0.56709930103E+02 -0.19727523093E+01 -0.34137871052E+03  0.34606261272E+03  0.00000000000E+00 0. -1.
</event>
<event>
 8    1  0.8619230E-006  0.9957593E+02  0.7561462E-02  0.1281190E+00
         -1   -1    0    0    0  501 -0.00000000000E+00  0.00000000000E+00  0.12257727017E+03  0.12257727017E+03  0.00000000000E+00 0.  1.
          1   -1    0    0  501    0  0.00000000000E+00 -0.00000000000E+00 -0.11910936066E+03  0.11910936066E+03  0.00000000000E+00 0. -1.
         23    2    1    2    0    0  0.16345143734E+02 -0.25124695471E+02  0.46548847410E+02  0.13679461709E+03  0.12509019955E+03 0.  0.
         23    2    1    2    0    0 -0.16345143734E+02  0.25124695471E+02 -0.43080937909E+02  0.10489201374E+03  0.90818243149E+02 0.  0.
          5    1    3    3  502    0  0.44531125434E+02  0.29888603960E+02 -0.78287755322E+01  0.54360940991E+02  0.41800000000E+01 0.  1.
         -5    1    3    3    0  502 -0.28185981700E+02 -0.55013299431E+02  0.54377622942E+02  0.82433676101E+02  0.41800000000E+01 0.  1.
        -11    1    4    4    0    0 -0.46598579900E+02  0.25556042310E+02 -0.11174118914E+01  0.53158137257E+02  0.00000000000E+00 0.  1.
         11    1    4    4    0    0  0.30253436167E+02 -0.43134683864E+00 -0.41963526017E+02  0.51733876481E+02  0.00000000000E+00 0. -1.
</event>
<event>
 8    1  0.8619230E-006  0.2324913E+03  0.7561462E-02  0.1124898E+00
          2   -1    0    0  501    0  0.00000000000E+00  0.00000000000E+00  0.15742447611E+04  0.15742447611E+04  0.00000000000E+00 0. -1.
         -2   -1    0    0    0  501 -0.00000000000E+00 -0.00000000000E+00 -0.35171825385E+02  0.35171825385E+02  0.00000000000E+00 0.  1.
         23    2    1    2    0    0  0.20057714009E+02 -0.20551350903E+03  0.88838951773E+03  0.92060977067E+03  0.12509316669E+03 0.  0.
         23    2    1    2    0    0 -0.20057714009E+02  0.20551350903E+03  0.65068341794E+03  0.68880681577E+03  0.91803076143E+02 0.  0.
          5    1    3    3  502    0 -0.32699030514E+02 -0.17543533954E+03  0.60654591089E+03  0.63226750618E+03  0.41800000000E+01 0.  1.
         -5    1    3    3    0  502  0.52756744522E+02 -0.30078169483E+02  0.28184360684E+03  0.28834226448E+03  0.41800000000E+01 0.  1.
        -11    1    4    4    0    0 -0.53737401013E+02  0.16135620364E+03  0.50701617167E+03  0.53477932931E+03  0.00000000000E+00 0.  1.
         11    1    4    4    0    0  0.33679687004E+02  0.44157305384E+02  0.14366724627E+03  0.15402748646E+03  0.00000000000E+00 0. -1.
</event>
<event>
 8    1  0.8619230E-006  0.1092589E+03  0.7561462E-02  0.1261948E+00
          2   -1    0    0  501    0  0.00000000000E+00  0.00000000000E+00  0.36503841722E+03  0.36503841722E+03  0.00000000000E+00 0. -1.
         -2   -1    0    0    0  501 -0.00000000000E+00 -0.00000000000E+00 -0.50543378734E+02  0.50543378734E+02  0.00000000000E+00 0.  1.
         23    2    1    2    0    0 -0.30177472107E+02 -0.50951016196E+02  0.79608844309E+02  0.15966068581E+03  0.12508909076E+03 0.  0.
         23    2    1    2    0    0  0.30177472107E+02  0.50951016196E+02  0.23488619418E+03  0.25592111015E+03  0.82567575529E+02 0.  0.
          5    1    3    3  502    0 -0.75411633899E+02 -0.50151411655E+02  0.38891829845E+02  0.98651535452E+02  0.41800000000E+01 0.  1.
         -5    1    3    3    0  502  0.45234161791E+02 -0.79960454121E+00  0.40717014465E+02  0.61009150357E+02  0.41800000000E+01 0.  1.
        -11    1    4    4    0    0 -0.15357705091E+02  0.26775525640E+02  0.24783107137E+02  0.39585228032E+02  0.00000000000E+00 0.  1.
         11    1    4    4    0    0  0.45535177198E+02  0.24175490557E+02  0.21010308704E+03  0.21633588212E+03  0.00000000000E+00 0. -1.
</event>
<event>
 8    1  0.8619230E-006  0.9473412E+02  0.7561462E-02  0.1291776E+00
         -1   -1    0    0    0  501 -0.00000000000E+00  0.00000000000E+00  0.25353713095E+02  0.25353713095E+02  0.00000000000E+00 0.  1.
          1   -1    0    0  501    0  0.00000000000E+00 -0.00000000000E+00 -0.58112744854E+03  0.58112744854E+03  0.00000000000E+00 0. -1.
         23    2    1    2    0    0 -0.30955530419E+02  0.16807073625E+02 -0.20569739395E+03  0.24331007856E+03  0.12509058264E+03 0.  0.
         23    2    1    2    0    0  0.30955530419E+02 -0.16807073625E+02 -0.35007634149E+03  0.36317108307E+03  0.89994822736E+02 0.  0.
          5    1    3    3  502    0 -0.39047093133E+02  0.57322811090E+02 -0.59981137327E+02  0.91792098725E+02  0.41800000000E+01 0.  1.
         -5    1    3    3    0  502  0.80915627142E+01 -0.40515737465E+02 -0.14571625663E+03  0.15151797984E+03  0.41800000000E+01 0.  1.
        -11    1    4    4    0    0  0.45723732753E+02 -0.33115266127E+02 -0.32475930983E+03  0.32962992872E+03  0.00000000000E+00 0. -1.
         11    1    4    4    0    0 -0.14768202334E+02  0.16308192502E+02 -0.25317031657E+02  0.33541154345E+02  0.00000000000E+00 0.  1.
</event>
<event>
 8    1  0.8619230E-006  0.1002150E+03  0.7561462E-02  0.1279845E+00
         -1   -1    0    0    0  501 -0.00000000000E+00  0.00000000000E+00  0.72829311847E+03  0.72829311847E+03  0.00000000000E+00 0.  1.
          1   -1    0    0  501    0  0.00000000000E+00 -0.00000000000E+00 -0.20538407716E+02  0.20538407716E+02  0.00000000000E+00 0. -1.
         23    2    1    2    0    0  0.64232572653E+01  0.39915633618E+02  0.49119649513E+03  0.50848468278E+03  0.12509260469E+03 0.  0.
         23    2    1    2    0    0 -0.64232572653E+01 -0.39915633618E+02  0.21655821562E+03  0.24034684341E+03  0.96096973636E+02 0.  0.
          5    1    3    3  502    0 -0.44669306741E+02  0.38875447787E+02  0.12125714452E+03  0.13500894379E+03  0.41800000000E+01 0. -1.
         -5    1    3    3    0  502  0.51092564006E+02  0.10401858306E+01  0.36993935061E+03  0.37347573899E+03  0.41800000000E+01 0. -1.
        -11    1    4    4    0    0 -0.42424847463E+02 -0.11580441089E+02  0.16769162438E+03  0.17336220806E+03  0.00000000000E+00 0.  1.
         11    1    4    4    0    0  0.36001590198E+02 -0.28335192529E+02  0.48866591241E+02  0.66984635343E+02  0.00000000000E+00 0. -1.
</event>
<event>
 7    1  0.8619230E-006  0.9341153E+02  0.7561462E-02  0.1294794E+00
          1   -1    0    0  501    0  0.00000000000E+00  0.00000000000E+00  0.75821339624E+02  0.75821339624E+02  0.00000000000E+00 0. -1.
         -1   -1    0    0    0  501 -0.00000000000E+00 -0.00000000000E+00 -0.23969001422E+03  0.23969001422E+03  0.00000000000E+00 0.  1.
         23    2    1    2    0    0  0.19168471108E+02 -0.11489708511E+02  0.11986663011E+02  0.93177070503E+02  0.89659593414E+02 0.  0.
          5    1    1    2  502    0  0.35914631526E+02 -0.29059767841E+02 -0.17132125164E+02  0.49450105938E+02  0.41800000000E+01 0. -1.
         -5    1    1    2    0  502 -0.55083102634E+02  0.40549476352E+02 -0.15872321244E+03  0.17288417740E+03  0.41800000000E+01 0.  1.
        -11    1    3    3    0    0  0.29242466774E+02  0.22219702364E+02 -0.23182307017E+02  0.43431053346E+02  0.00000000000E+00 0.  1.
         11    1    3    3    0    0 -0.10073995665E+02 -0.33709410875E+02  0.35168970028E+02  0.49746017157E+02  0.00000000000E+00 0. -1.
</event>
<event>
 8    1  0.9558392E-006  0.2105493E+03  0.7561462E-02  0.1141132E+00
          2   -1    0    0  501    0  0.00000000000E+00  0.00000000000E+00  0.60634981976E+02  0.60634981976E+02  0.00000000000E+00 0. -1.
         -2   -1    0    0    0  501 -0.00000000000E+00 -0.00000000000E+00 -0.89876480219E+03  0.89876480219E+03  0.00000000000E+00 0.  1.
         23    2    1    2    0    0 -0.14330091327E+03 -0.14768762552E+03 -0.46481551491E+03  0.52349535398E+03  0.12508851371E+03 0.  0.
         23    2    1    2    0    0  0.14330091327E+03  0.14768762552E+03 -0.37331430531E+03  0.43590443019E+03  0.91117041420E+02 0.  0.
          5    1    3    3  502    0 -0.21780648905E+02 -0.51088105707E+02 -0.26308029131E+03  0.26891095791E+03  0.41800000000E+01 0.  1.
         -5    1    3    3    0  502 -0.12152026436E+03 -0.96599519813E+02 -0.20173522360E+03  0.25458439606E+03  0.41800000000E+01 0.  1.
        -11    1    4    4    0    0  0.56135127895E+02  0.88312811073E+02 -0.26411403156E+03  0.28408894180E+03  0.00000000000E+00 0.  1.
         11    1    4    4    0    0  0.87165785370E+02  0.59374814447E+02 -0.10920027375E+03  0.15181548840E+03  0.00000000000E+00 0. -1.
</event>
<event>
 8    1  0.8619230E-006  0.1061625E+03  0.7561462E-02  0.1267846E+00
         -2   -1    0    0    0  501 -0.00000000000E+00  0.00000000000E+00  0.40996336415E+02  0.40996336415E+02  0.00000000000E+00 0.  1.
          2   -1    0    0  501    0  0.00000000000E+00 -0.00000000000E+00 -0.36620213200E+03  0.36620213200E+03  0.00000000000E+00 0. -1.
         23    2    1    2    0    0  0.45946908811E+01 -0.48770848939E+02 -0.12749597546E+03  0.18520483091E+03  0.12508356703E+03 0.  0.
         23    2    1    2    0    0 -0.45946908811E+01  0.48770848939E+02 -0.19770982013E+03  0.22199363751E+03  0.88273978212E+02 0.  0.
          5    1    3    3  502    0  0.38107484393E+02 -0.79762131824E+02 -0.83831263537E+02  0.12189885638E+03  0.41800000000E+01 0. -1.
         -5    1    3    3    0  502 -0.33512793512E+02  0.30991282885E+02 -0.43664711921E+02  0.63305974528E+02  0.41800000000E+01 0. -1.
        -11    1    4    4    0    0  0.27120086026E+02  0.32555147733E+02 -0.17428469352E+03  0.17936134228E+03  0.00000000000E+00 0. -1.
         11    1    4    4    0    0 -0.31714776907E+02  0.16215701206E+02 -0.23425126611E+02  0.42632295230E+02  0.00000000000E+00 0.  1.
</event>
<event>
 7    1  0.8619230E-006  0.2523664E+03  0.7561462E-02  0.1111818E+00
         -2   -1    0    0    0  501 -0.00000000000E+00  0.00000000000E+00  0.37218626912E+03  0.37218626912E+03  0.00000000000E+00 0.  1.
          2   -1    0    0  501    0  0.00000000000E+00 -0.00000000000E+00 -0.37372010581E+03  0.37372010581E+03  0.00000000000E+00 0. -1.
         23    2    1    2    0    0 -0.22396088307E+03  0.82308139429E+02 -0.26054742492E+03  0.36514121764E+03  0.92249884687E+02 0.  0.
          5    1    1    2  502    0  0.31622734876E+02  0.13344912638E+02 -0.10460453710E+02  0.36124472953E+02  0.41800000000E+01 0. -1.
         -5    1    1    2    0  502  0.19233814820E+03 -0.95653052066E+02  0.26947404194E+03  0.34464068434E+03  0.41800000000E+01 0.  1.
        -11    1    3    3    0    0 -0.10927494988E+03  0.88257407571E+02 -0.13179223565E+03  0.19261250748E+03  0.00000000000E+00 0.  1.
         11    1    3    3    0    0 -0.11468593319E+03 -0.59492681418E+01 -0.12875518927E+03  0.17252871016E+03  0.00000000000E+00 0. -1.
</event>
<event>
 8    1  0.8619230E-006  0.8917616E+02  0.7561462E-02  0.1304859E+00
          2   -1    0    0  501    0  0.00000000000E+00  0.00000000000E+00  0.35608210116E+03  0.35608210116E+03  0.00000000000E+00 0. -1.
         -2   -1    0    0    0  501 -0.00000000000E+00 -0.00000000000E+00 -0.35041745641E+02  0.35041745641E+02  0.00000000000E+00 0.  1.
         23    2    1    2    0    0  0.59431759744E+01 -0.22361476849E+02  0.16854064397E+03  0.21116087741E+03  0.12509040928E+03 0.  0.
         23    2    1    2    0    0 -0.59431759744E+01  0.22361476849E+02  0.15249971155E+03  0.17996296939E+03  0.92710039047E+02 0.  0.
          5    1    3    3  502    0 -0.24457565314E+02 -0.64624987095E+02  0.12614426701E+03  0.14389027054E+03  0.41800000000E+01 0.  1.
         -5    1    3    3    0  502  0.30400741289E+02  0.42263510246E+02  0.42396376956E+02  0.67270606867E+02  0.41800000000E+01 0.  1.
        -11    1    4    4    0    0 -0.24427051382E+02 -0.39492534604E+01  0.14480064388E+03  0.14689963891E+03  0.00000000000E+00 0. -1.
         11    1    4    4    0    0  0.18483875408E+02  0.26310730309E+02  0.76990676672E+01  0.33063330480E+02  0.00000000000E+00 0.  1.
</event>
<event>
 8    1  0.8619230E-006  0.8453605E+02  0.7561462E-02  0.1316650E+00
          4   -1    0    0  501    0  0.00000000000E+00  0.00000000000E+00  0.33446472854E+02  0.33446472854E+02  0.00000000000E+00 0.  1.
         -4   -1    0    0    0  501 -0.00000000000E+00 -0.00000000000E+00 -0.36088445234E+03  0.36088445234E+03  0.00000000000E+00 0. -1.
         23    2    1    2    0    0  0.61809505956E+01 -0.12305422189E+02 -0.19230874277E+03  0.22982774046E+03  0.12509400534E+03 0.  0.
         23    2    1    2    0    0 -0.61809505956E+01  0.12305422189E+02 -0.13512923671E+03  0.16450318473E+03  0.92799566850E+02 0.  0.
          5    1    3    3  502    0  0.22645820657E+02 -0.54900181018E+02 -0.42473648995E+02  0.73132389048E+02  0.41800000000E+01 0. -1.
         -5    1    3    3    0  502 -0.16464870061E+02  0.42594758828E+02 -0.14983509378E+03  0.15669535141E+03  0.41800000000E+01 0. -1.
        -11    1    4    4    0    0 -0.33387108258E+02 -0.98526950297E+00 -0.12945809756E+03  0.13369767679E+03  0.00000000000E+00 0. -1.
         11    1    4    4    0    0  0.27206157663E+02  0.13290691692E+02 -0.56711391460E+01  0.30805507943E+02  0.00000000000E+00 0.  1.
</event>
<event>
 8    1  0.8619230E-006  0.1636273E+03  0.7561462E-02  0.1184661E+00
         -2   -1    0    0    0  501 -0.00000000000E+00  0.00000000000E+00  0.22214415209E+03  0.22214415209E+03  0.00000000000E+00 0.  1.
          2   -1    0    0  501    0  0.00000000000E+00 -0.00000000000E+00 -0.12264677756E+03  0.12264677756E+03  0.00000000000E+00 0. -1.
         23    2    1    2    0    0  0.12084734859E+03 -0.19545095251E+02  0.54831800720E+02  0.18341123816E+03  0.12508822288E+03 0.  0.
         23    2    1    2    0    0 -0.12084734859E+03  0.19545095251E+02  0.44665573814E+02  0.16137969150E+03  0.95196107768E+02 0.  0.
          5    1    3    3  502    0 -0.72277510443E+01 -0.42371150774E+02  0.29327616010E+01  0.43285428191E+02  0.41800000000E+01 0. -1.
         -5    1    3    3    0  502  0.12807509963E+03  0.22826055523E+02  0.51899039119E+02  0.14012580996E+03  0.41800000000E+01 0. -1.
        -11    1    4    4    0    0 -0.78161433366E+02  0.57304977939E+02  0.18491076224E+02  0.98666053242E+02  0.00000000000E+00 0.  1.
         11    1    4    4    0    0 -0.42685915223E+02 -0.37759882689E+02  0.26174497590E+02  0.62713638255E+02  0.00000000000E+00 0. -1.
</event>
<event>
 8    1  0.8619230E-006  0.1130606E+03  0.7561462E-02  0.1255005E+00
          1   -1    0    0  501    0  0.00000000000E+00  0.00000000000E+00  0.14053346701E+03  0.14053346701E+03  0.00000000000E+00 0. -1.
         -1   -1    0    0    0  501 -0.00000000000E+00 -0.00000000000E+00 -0.12507374495E+03  0.12507374495E+03  0.00000000000E+00 0.  1.
         23    2    1    2    0    0 -0.55163433698E+02 -0.72280590199E+01 -0.45629318329E+02  0.14518644069E+03  0.12610241319E+03 0.  0.
         23    2    1    2    0    0  0.55163433698E+02  0.72280590199E+01  0.61089040394E+02  0.12042077128E+03  0.87601609825E+02 0.  0.
          5    1    3    3  502    0  0.66316934266E+01  0.48657042453E+02  0.16232678083E+01  0.49311200922E+02  0.41800000000E+01 0.  1.
         -5    1    3    3    0  502 -0.61795127125E+02 -0.55885101473E+02 -0.47252586137E+02  0.95875239763E+02  0.41800000000E+01 0.  1.
        -11    1    4    4    0    0  0.16414720698E+02  0.39635538318E+02  0.23729125040E+01  0.42965680107E+02  0.00000000000E+00 0.  1.
         11    1    4    4    0    0  0.38748713000E+02 -0.32407479298E+02  0.58716127890E+02  0.77455091169E+02  0.00000000000E+00 0. -1.
</event>
<event>
 8    1  0.8619230E-006  0.1646680E+03  0.7561462E-02  0.1183525E+00
         -2   -1    0    0    0  501 -0.00000000000E+00  0.00000000000E+00  0.64950111202E+02  0.64950111202E+02  0.00000000000E+00 0.  1.
          2   -1    0    0  501    0  0.00000000000E+00 -0.00000000000E+00 -0.62577809186E+03  0.62577809186E+03  0.00000000000E+00 0. -1.
         23    2    1    2    0    0 -0.13303806817E+03 -0.18252233150E+02 -0.11585086105E+03  0.21702799343E+03  0.12508979306E+03 0.  0.
         23    2    1    2    0    0  0.13303806817E+03  0.18252233150E+02 -0.44497711961E+03  0.47370020963E+03  0.91405579872E+02 0.  0.
          5    1    3    3  502    0 -0.55091971041E+02 -0.65293191122E+02 -0.26863255940E+02  0.89651731717E+02  0.41800000000E+01 0.  1.
         -5    1    3    3    0  502 -0.77946097132E+02  0.47040957972E+02 -0.88987605109E+02  0.12737626171E+03  0.41800000000E+01 0.  1.
        -11    1    4    4    0    0  0.64581442149E+02 -0.27643138440E+02 -0.28751792044E+03  0.29597543875E+03  0.00000000000E+00 0. -1.
         11    1    4    4    0    0  0.68456626024E+02  0.45895371590E+02 -0.15745919917E+03  0.17772477088E+03  0.00000000000E+00 0.  1.
</event>
<event>
 8    1  0.8619230E-006  0.1074714E+03  0.7561462E-02  0.1265325E+00
          1   -1    0    0  501    0  0.00000000000E+00  0.00000000000E+00  0.31506299149E+03  0.31506299149E+03  0.00000000000E+00 0. -1.
         -1   -1    0    0    0  501 -0.00000000000E+00 -0.00000000000E+00 -0.60727736406E+02  0.60727736406E+02  0.00000000000E+00 0.  1.
         23    2    1    2    0    0 -0.64733459322E+02  0.71502858852E+02  0.14578188349E+03  0.21494945770E+03  0.12509129560E+03 0.  0.
         23    2    1    2    0    0  0.64733459322E+02 -0.71502858852E+02  0.10855337159E+03  0.16084127019E+03  0.69159237507E+02 0.  0.
          5    1    3    3  502    0 -0.95862511806E+01  0.60955564234E+02  0.14609497518E+03  0.15864643455E+03  0.41800000000E+01 0. -1.
         -5    1    3    3    0  502 -0.55147208141E+02  0.10547294618E+02 -0.31309169402E+00  0.56303023151E+02  0.41800000000E+01 0. -1.
        -11    1    4    4    0    0  0.45700398927E+02 -0.44746762964E+02  0.20976513135E+02  0.67311316739E+02  0.00000000000E+00 0.  1.
         11    1    4    4    0    0  0.19033060395E+02 -0.26756095888E+02  0.87576858460E+02  0.93529953453E+02  0.00000000000E+00 0. -1.
</event>
<event>
 8    1  0.8619230E-006  0.9512628E+02  0.7561462E-02  0.1290892E+00
          2   -1    0    0  501    0  0.00000000000E+00  0.00000000000E+00  0.33265587427E+03  0.33265587427E+03  0.00000000000E+00 0. -1.
         -2   -1    0    0    0  501 -0.00000000000E+00 -0.00000000000E+00 -0.48354547137E+02  0.48354547137E+02  0.00000000000E+00 0.  1.
         23    2    1    2    0    0  0.21893622880E+02  0.17345841814E+02  0.69611103899E+02  0.14585449321E+03  0.12509044109E+03 0.  0.
         23    2    1    2    0    0 -0.21893622880E+02 -0.17345841814E+02  0.21469022323E+03  0.23515592820E+03  0.91794387977E+02 0.  0.
          5    1    3    3  502    0  0.12342033608E+02  0.65888327064E+02  0.94094361430E+01  0.67820404934E+02  0.41800000000E+01 0.  1.
         -5    1    3    3    0  502  0.95515892724E+01 -0.48542485250E+02  0.60201667756E+02  0.78034088272E+02  0.41800000000E+01 0.  1.
        -11    1    4    4    0    0 -0.43963832687E+02 -0.24384015044E+02  0.20314467688E+03  0.20927292829E+03  0.00000000000E+00 0. -1.
         11    1    4    4    0    0  0.22070209807E+02  0.70381732301E+01  0.11545546358E+02  0.25882999904E+02  0.00000000000E+00 0.  1.
</event>
<event>
 8    1  0.8619230E-006  0.9178983E+02  0.7561462E-02  0.1298574E+00
         -1   -1    0    0    0  501 -0.00000000000E+00  0.00000000000E+00  0.13983235173E+03  0.13983235173E+03  0.00000000000E+00 0.  1.
          1   -1    0    0  501    0  0.00000000000E+00 -0.00000000000E+00 -0.10079249519E+03  0.10079249519E+03  0.00000000000E+00 0. -1.
         23    2    1    2    0    0  0.54431303799E+01 -0.55212472774E+02  0.21284305574E+02  0.13849440204E+03  0.12509849285E+03 0.  0.
         23    2    1    2    0    0 -0.54431303799E+01  0.55212472774E+02  0.17755550969E+02  0.10213044488E+03  0.83888755882E+02 0.  0.
          5    1    3    3  502    0 -0.46488584393E+02 -0.48721038157E+02 -0.21449431746E+02  0.70798859879E+02  0.41800000000E+01 0. -1.
         -5    1    3    3    0  502  0.51931714773E+02 -0.64914346173E+01  0.42733737320E+02  0.67695542157E+02  0.41800000000E+01 0. -1.
        -11    1    4    4    0    0  0.13056394049E+02  0.21641645864E+02 -0.31072818830E+02  0.40054342228E+02  0.00000000000E+00 0. -1.
         11    1    4    4    0    0 -0.18499524428E+02  0.33570826910E+02  0.48828369799E+02  0.62076102654E+02  0.00000000000E+00 0.  1.
</event>
<event>
 8    1  0.8619230E-006  0.1484562E+03  0.7561462E-02  0.1202383E+00
          1   -1    0    0  501    0  0.00000000000E+00  0.00000000000E+00  0.18746036910E+02  0.18746036910E+02  0.00000000000E+00 0. -1.
         -1   -1    0    0    0  501 -0.00000000000E+00 -0.00000000000E+00 -0.14895484203E+04  0.14895484203E+04  0.00000000000E+00 0.  1.
         23    2    1    2    0    0 -0.98866832184E+02 -0.71037247313E+02 -0.93769850985E+03  0.95380694155E+03  0.12509294687E+03 0.  0.
         23    2    1    2    0    0  0.98866832184E+02  0.71037247313E+02 -0.53310387358E+03  0.55448751570E+03  0.91846197703E+02 0.  0.
          5    1    3    3  502    0 -0.92943194667E+02 -0.10440615157E+03 -0.78226940275E+03  0.79467098399E+03  0.41800000000E+01 0.  1.
         -5    1    3    3    0  502 -0.59236375161E+01  0.33368904261E+02 -0.15542910711E+03  0.15913595756E+03  0.41800000000E+01 0.  1.
        -11    1    4    4    0    0  0.58683766840E+02  0.52201234243E+02 -0.47460562850E+03  0.48106055331E+03  0.00000000000E+00 0.  1.
         11    1    4    4    0    0  0.40183065344E+02  0.18836013070E+02 -0.58498245079E+02  0.73426962392E+02  0.00000000000E+00 0. -1.
</event>
<event>
 8    1  0.8619230E-006  0.1274624E+03  0.7561462E-02  0.1231270E+00
          2   -1    0    0  501    0  0.00000000000E+00  0.00000000000E+00  0.46919609712E+03  0.46919609712E+03  0.00000000000E+00 0. -1.
         -2   -1    0    0    0  501 -0.00000000000E+00 -0.00000000000E+00 -0.60178355083E+02  0.60178355083E+02  0.00000000000E+00 0.  1.
         23    2    1    2    0    0  0.41221542308E+02  0.79091842315E+02  0.73219197641E+02  0.17018604342E+03  0.12508998122E+03 0.  0.
         23    2    1    2    0    0 -0.41221542308E+02 -0.79091842315E+02  0.33579854439E+03  0.35918840878E+03  0.91109360194E+02 0.  0.
          5    1    3    3  502    0 -0.42582969422E+02  0.84858803087E+01  0.26066042797E+02  0.50815651492E+02  0.41800000000E+01 0. -1.
         -5    1    3    3    0  502  0.83804511730E+02  0.70605962007E+02  0.47153154844E+02  0.11937039193E+03  0.41800000000E+01 0. -1.
        -11    1    4    4    0    0 -0.22966667373E+02 -0.27306029465E+01  0.12096224053E+02  0.26100625261E+02  0.00000000000E+00 0.  1.
         11    1    4    4    0    0 -0.18254874935E+02 -0.76361239369E+02  0.32370232034E+03  0.33308778352E+03  0.00000000000E+00 0. -1.
</event>
<event>
 8    1  0.8619230E-006  0.8561055E+02  0.7561462E-02  0.1313844E+00
         -2   -1    0    0    0  501 -0.00000000000E+00  0.00000000000E+00  0.15288172066E+03  0.15288172066E+03  0.00000000000E+00 0. -1.
          2   -1    0    0  501    0  0.00000000000E+00 -0.00000000000E+00 -0.99387420249E+02  0.99387420249E+02  0.00000000000E+00 0.  1.
         23    2    1    2    0    0 -0.15389034980E+02 -0.52045390389E+02  0.37283551723E+02  0.14140621371E+03  0.12514035715E+03 0.  0.
         23    2    1    2    0    0  0.15389034980E+02  0.52045390389E+02  0.16210748689E+02  0.11086292720E+03  0.95300866716E+02 0.  0.
          5    1    3    3  502    0 -0.10728795979E+02 -0.64058396236E+02 -0.30788121641E+02  0.71999764067E+02  0.41800000000E+01 0. -1.
         -5    1    3    3    0  502 -0.46602390018E+01  0.12013005847E+02  0.68071673364E+02  0.69406449640E+02  0.41800000000E+01 0. -1.
        -11    1    4    4    0    0  0.22576570233E+02  0.69839996945E+02 -0.14338395738E+02  0.74785802724E+02  0.00000000000E+00 0.  1.
         11    1    4    4    0    0 -0.71875352526E+01 -0.17794606556E+02  0.30549144427E+02  0.36077124479E+02  0.00000000000E+00 0. -1.
</event>
<event>
 8    1  0.8619230E-006  0.2213858E+03  0.7561462E-02  0.1132854E+00
         -1   -1    0    0    0  501 -0.00000000000E+00  0.00000000000E+00  0.30301223957E+03  0.30301223957E+03  0.00000000000E+00 0.  1.
          1   -1    0    0  501    0  0.00000000000E+00 -0.00000000000E+00 -0.18356358702E+03  0.18356358702E+03  0.00000000000E+00 0. -1.
         23    2    1    2    0    0 -0.14363070576E+03 -0.15139483828E+03  0.72571179678E+02  0.25390640826E+03  0.12510679975E+03 0.  0.
         23    2    1    2    0    0  0.14363070576E+03  0.15139483828E+03  0.46877472877E+02  0.23266941833E+03  0.91582662492E+02 0.  0.
          5    1    3    3  502    0 -0.13691013494E+03 -0.11692022469E+03  0.10281153762E+03  0.20737022124E+03  0.41800000000E+01 0.  1.
         -5    1    3    3    0  502 -0.67205708188E+01 -0.34474613589E+02 -0.30240357940E+02  0.46536187023E+02  0.41800000000E+01 0.  1.
        -11    1    4    4    0    0  0.87565774938E+02  0.14696060233E+03  0.28008018294E+02  0.17334829871E+03  0.00000000000E+00 0.  1.
         11    1    4    4    0    0  0.56064930820E+02  0.44342359454E+01  0.18869454582E+02  0.59321119616E+02  0.00000000000E+00 0. -1.
</event>
<event>
 8    1  0.8619230E-006  0.7687411E+02  0.7561462E-02  0.1338164E+00
         -4   -1    0    0    0  501 -0.00000000000E+00  0.00000000000E+00  0.14309160273E+04  0.14309160273E+04  0.00000000000E+00 0.  1.
          4   -1    0    0  501    0  0.00000000000E+00 -0.00000000000E+00 -0.13485118780E+02  0.13485118780E+02  0.00000000000E+00 0. -1.
         23    2    1    2    0    0 -0.41791979538E+02 -0.32687122086E+02  0.11288543728E+04  0.11370018644E+04  0.12508407971E+03 0.  0.
         23    2    1    2    0    0  0.41791979538E+02  0.32687122086E+02  0.28857653565E+03  0.30739928168E+03  0.91667245761E+02 0.  0.
          5    1    3    3  502    0 -0.38527938204E+02 -0.30332820983E+02  0.11300135608E+04  0.11310847015E+04  0.41800000000E+01 0. -1.
         -5    1    3    3    0  502 -0.32640413333E+01 -0.23543011025E+01 -0.11591879460E+01  0.59171628507E+01  0.41800000000E+01 0. -1.
        -11    1    4    4    0    0  0.66039396491E+02  0.34329707428E+02  0.25695508828E+03  0.26751756595E+03  0.00000000000E+00 0. -1.
         11    1    4    4    0    0 -0.24247416954E+02 -0.16425853419E+01  0.31621447378E+02  0.39881715733E+02  0.00000000000E+00 0.  1.
</event>
<event>
 6    1  0.8619230E-006  0.9066173E+02  0.7561462E-02  0.1301257E+00
         -2   -1    0    0    0  501 -0.00000000000E+00  0.00000000000E+00  0.95941616035E+01  0.95941616035E+01  0.00000000000E+00 0.  1.
          2   -1    0    0  501    0  0.00000000000E+00 -0.00000000000E+00 -0.92203885745E+03  0.92203885745E+03  0.00000000000E+00 0. -1.
          5    1    1    2  502    0  0.16575465045E+02 -0.64500036628E+02 -0.45395572375E+03  0.45883359979E+03  0.41800000000E+01 0. -1.
         -5    1    1    2    0  502 -0.53477124932E+02  0.35946100175E+02 -0.22992737209E+03  0.23882209664E+03  0.41800000000E+01 0.  1.
        -11    1    1    2    0    0  0.18988192620E+02  0.36298254604E+01 -0.91883855168E+02  0.93895526690E+02  0.00000000000E+00 0.  1.
         11    1    1    2    0    0  0.17913467267E+02  0.24924110992E+02 -0.13667774484E+03  0.14008179593E+03  0.00000000000E+00 0. -1.
</event>
<event>
 8    1  0.8619230E-006  0.1042753E+03  0.7561462E-02  0.1271554E+00
         -2   -1    0    0    0  501 -0.00000000000E+00  0.00000000000E+00  0.25284088013E+02  0.25284088013E+02  0.00000000000E+00 0.  1.
          2   -1    0    0  501    0  0.00000000000E+00 -0.00000000000E+00 -0.73653051163E+03  0.73653051163E+03  0.00000000000E+00 0. -1.
         23    2    1    2    0    0 -0.90812378037E+01 -0.82612515932E+02 -0.39057336668E+03  0.41845140680E+03  0.12508688348E+03 0.  0.
         23    2    1    2    0    0  0.90812378037E+01  0.82612515932E+02 -0.32067305694E+03  0.34336319285E+03  0.90331478955E+02 0.  0.
          5    1    3    3  502    0 -0.32427687700E+01  0.10922266395E+02 -0.24480544863E+03  0.24510608220E+03  0.41800000000E+01 0.  1.
         -5    1    3    3    0  502 -0.58384690337E+01 -0.93534782327E+02 -0.14576791805E+03  0.17334532460E+03  0.41800000000E+01 0.  1.
        -11    1    4    4    0    0  0.20995538896E+02  0.87308979989E+02 -0.31779358185E+03  0.33023693208E+03  0.00000000000E+00 0. -1.
         11    1    4    4    0    0 -0.11914301092E+02 -0.46964640573E+01 -0.28794750849E+01  0.13126260774E+02  0.00000000000E+00 0.  1.
</event>
<event>
 8    1  0.8619230E-006  0.1696855E+03  0.7561462E-02  0.1178176E+00
          2   -1    0    0  501    0  0.00000000000E+00  0.00000000000E+00  0.93186743580E+02  0.93186743580E+02  0.00000000000E+00 0. -1.
         -2   -1    0    0    0  501 -0.00000000000E+00 -0.00000000000E+00 -0.47186250532E+03  0.47186250532E+03  0.00000000000E+00 0.  1.
         23    2    1    2    0    0  0.13182356599E+03 -0.74895651749E+02 -0.31952345017E+03  0.37513934028E+03  0.12508988055E+03 0.  0.
         23    2    1    2    0    0 -0.13182356599E+03  0.74895651749E+02 -0.59152311564E+02  0.18990990861E+03  0.97877301891E+02 0.  0.
          5    1    3    3  502    0  0.11333499051E+03 -0.10343505481E+03 -0.29645467039E+03  0.33383599960E+03  0.41800000000E+01 0.  1.
         -5    1    3    3    0  502  0.18488575482E+02  0.28539403062E+02 -0.23068779785E+02  0.41303340679E+02  0.41800000000E+01 0.  1.
        -11    1    4    4    0    0 -0.32499320449E+02  0.18530533309E+02 -0.65607734009E+02  0.75524573856E+02  0.00000000000E+00 0.  1.
         11    1    4    4    0    0 -0.99324245538E+02  0.56365118441E+02  0.64554224444E+01  0.11438533476E+03  0.00000000000E+00 0. -1.
</event>
<event>
 8    1  0.8619230E-006  0.1386111E+03  0.7561462E-02  0.1215210E+00
          2   -1    0    0  501    0  0.00000000000E+00  0.00000000000E+00  0.28420857177E+03  0.28420857177E+03  0.00000000000E+00 0. -1.
         -2   -1    0    0    0  501 -0.00000000000E+00 -0.00000000000E+00 -0.81907402274E+02  0.81907402274E+02  0.00000000000E+00 0.  1.
         23    2    1    2    0    0 -0.82232893511E+01  0.10559588203E+03  0.99111812647E+02  0.19154394087E+03  0.12509123507E+03 0.  0.
         23    2    1    2    0    0  0.82232893511E+01 -0.10559588203E+03  0.10318935685E+03  0.17457203317E+03  0.92785982831E+02 0.  0.
          5    1    3    3  502    0  0.57461247815E+02  0.49077265821E+02  0.59014084112E+02  0.95971389197E+02  0.41800000000E+01 0.  1.
         -5    1    3    3    0  502 -0.65684537166E+02  0.56518616205E+02  0.40097728536E+02  0.95572551677E+02  0.41800000000E+01 0.  1.
        -11    1    4    4    0    0  0.21410071438E+02 -0.96300444696E+02  0.35276788670E+02  0.10476935920E+03  0.00000000000E+00 0.  1.
         11    1    4    4    0    0 -0.13186782087E+02 -0.92954373297E+01  0.67912568184E+02  0.69802673976E+02  0.00000000000E+00 0. -1.
</event>
<event>
 8    1  0.8619230E-006  0.8907984E+02  0.7561462E-02  0.1305095E+00
          2   -1    0    0  501    0  0.00000000000E+00  0.00000000000E+00  0.73467569397E+02  0.73467569397E+02  0.00000000000E+00 0. -1.
         -2   -1    0    0    0  501 -0.00000000000E+00 -0.00000000000E+00 -0.17677010915E+03  0.17677010915E+03  0.00000000000E+00 0.  1.
         23    2    1    2    0    0  0.17177263736E+02 -0.30816868097E+02 -0.63374388027E+02  0.14459953125E+03  0.12509186077E+03 0.  0.
         23    2    1    2    0    0 -0.17177263736E+02  0.30816868097E+02 -0.39928151731E+02  0.10563814730E+03  0.91216353337E+02 0.  0.
          5    1    3    3  502    0 -0.86549311805E+00 -0.66571066021E+02 -0.77197701982E+02  0.10202653332E+03  0.41800000000E+01 0. -1.
         -5    1    3    3    0  502  0.18042756854E+02  0.35754197924E+02  0.13823313955E+02  0.42572997931E+02  0.41800000000E+01 0. -1.
        -11    1    4    4    0    0 -0.18595880695E+02 -0.15888199889E+02 -0.51923934544E+02  0.57396312190E+02  0.00000000000E+00 0.  1.
         11    1    4    4    0    0  0.14186169586E+01  0.46705067987E+02  0.11995782813E+02  0.48241835112E+02  0.00000000000E+00 0. -1.
</event>
<event>
 8    1  0.8619230E-006  0.1071258E+03  0.7561462E-02  0.1265987E+00
          2   -1    0    0  501    0  0.00000000000E+00  0.00000000000E+00  0.70631187200E+03  0.70631187200E+03  0.00000000000E+00 0. -1.
         -2   -1    0    0    0  501 -0.00000000000E+00 -0.00000000000E+00 -0.23067074344E+02  0.23067074344E+02  0.00000000000E+00 0.  1.
         23    2    1    2    0    0  0.14990278443E+02 -0.51572073277E+02  0.26588414636E+03  0.29870843974E+03  0.12509182826E+03 0.  0.
         23    2    1    2    0    0 -0.14990278443E+02  0.51572073277E+02  0.41736065129E+03  0.43067050660E+03  0.91666705064E+02 0.  0.
          5    1    3    3  502    0 -0.40718380233E+02 -0.83805854522E+01  0.27339245008E+02  0.49931226892E+02  0.41800000000E+01 0.  1.
         -5    1    3    3    0  502  0.55708658676E+02 -0.43191487825E+02  0.23854490135E+03  0.24877721285E+03  0.41800000000E+01 0.  1.
        -11    1    4    4    0    0  0.28981579605E+02  0.50076160252E+02  0.29549039638E+03  0.30110152463E+03  0.00000000000E+00 0. -1.
         11    1    4    4    0    0 -0.43971858048E+02  0.14959130251E+01  0.12187025491E+03  0.12956898196E+03  0.00000000000E+00 0.  1.
</event>
<event>
 8    1  0.8619230E-006  0.2913556E+03  0.7561462E-02  0.1089644E+00
         -2   -1    0    0    0  501 -0.00000000000E+00  0.00000000000E+00  0.51974201891E+02  0.51974201891E+02  0.00000000000E+00 0.  1.
          2   -1    0    0  501    0  0.00000000000E+00 -0.00000000000E+00 -0.20135181087E+04  0.20135181087E+04  0.00000000000E+00 0. -1.
         23    2    1    2    0    0  0.74497893824E+01  0.27168641915E+03 -0.55977724618E+03  0.63471833287E+03  0.12509111492E+03 0.  0.
         23    2    1    2    0    0 -0.74497893824E+01 -0.27168641915E+03 -0.14017666606E+04  0.14307739777E+04  0.91079057653E+02 0.  0.
          5    1    3    3  502    0 -0.49367400782E+02  0.20644115233E+03 -0.38505753205E+03  0.43970656696E+03  0.41800000000E+01 0.  1.
         -5    1    3    3    0  502  0.56817190164E+02  0.65245266819E+02 -0.17471971413E+03  0.19501176591E+03  0.41800000000E+01 0.  1.
        -11    1    4    4    0    0  0.32253714123E+02 -0.57258650886E+02 -0.24678271914E+03  0.25538317416E+03  0.00000000000E+00 0. -1.
         11    1    4    4    0    0 -0.39703503505E+02 -0.21442776827E+03 -0.11549839415E+04  0.11753908035E+04  0.00000000000E+00 0.  1.
</event>
<event>
 8    1  0.8619230E-006  0.1026560E+03  0.7561462E-02  0.1274808E+00
          1   -1    0    0  501    0  0.00000000000E+00  0.00000000000E+00  0.23455922245E+03  0.23455922245E+03  0.00000000000E+00 0. -1.
         -1   -1    0    0    0  501 -0.00000000000E+00 -0.00000000000E+00 -0.57422352722E+02  0.57422352722E+02  0.00000000000E+00 0.  1.
         23    2    1    2    0    0  0.73897202307E+01  0.29090834742E+02  0.65902563245E+02  0.14453623558E+03  0.12508673359E+03 0.  0.
         23    2    1    2    0    0 -0.73897202307E+01 -0.29090834742E+02  0.11123430648E+03  0.14744533959E+03  0.92011806843E+02 0.  0.
          5    1    3    3  502    0  0.33211142275E+02 -0.33918677963E+02 -0.27713366497E+01  0.47734781793E+02  0.41800000000E+01 0.  1.
         -5    1    3    3    0  502 -0.25821422045E+02  0.63009512705E+02  0.68673899894E+02  0.96801453783E+02  0.41800000000E+01 0.  1.
        -11    1    4    4    0    0 -0.15701778511E+01 -0.58971515981E+02  0.97702956680E+02  0.11413138438E+03  0.00000000000E+00 0.  1.
         11    1    4    4    0    0 -0.58195423796E+01  0.29880681238E+02  0.13531349800E+02  0.33313955217E+02  0.00000000000E+00 0. -1.
</event>
<event>
 8    1  0.8619230E-006  0.7567864E+02  0.7561462E-02  0.1341782E+00
          1   -1    0    0  501    0  0.00000000000E+00  0.00000000000E+00  0.10772509931E+03  0.10772509931E+03  0.00000000000E+00 0. -1.
         -1   -1    0    0    0  501 -0.00000000000E+00 -0.00000000000E+00 -0.12194471901E+03  0.12194471901E+03  0.00000000000E+00 0.  1.
         23    2    1    2    0    0 -0.28870930643E+02  0.15462125735E+02 -0.21791437696E+02  0.13112538813E+03  0.12508554147E+03 0.  0.
         23    2    1    2    0    0  0.28870930643E+02 -0.15462125735E+02  0.75718180011E+01  0.98544430197E+02  0.92634034386E+02 0.  0.
          5    1    3    3  502    0  0.10730640534E+02  0.25009264860E+01 -0.67855203179E+02  0.68870910245E+02  0.41800000000E+01 0.  1.
         -5    1    3    3    0  502 -0.39601571176E+02  0.12961199249E+02  0.46063765484E+02  0.62254477880E+02  0.41800000000E+01 0.  1.
        -11    1    4    4    0    0  0.49065133778E+02 -0.41834607313E+02  0.99553340207E+01  0.65242857059E+02  0.00000000000E+00 0. -1.
         11    1    4    4    0    0 -0.20194203136E+02  0.26372481578E+02 -0.23835160196E+01  0.33301573138E+02  0.00000000000E+00 0.  1.
</event>
<event>
 8    1  0.8619230E-006  0.1235263E+03  0.7561462E-02  0.1237391E+00
         -2   -1    0    0    0  501 -0.00000000000E+00  0.00000000000E+00  0.13772730493E+03  0.13772730493E+03  0.00000000000E+00 0. -1.
          2   -1    0    0  501    0  0.00000000000E+00 -0.00000000000E+00 -0.12885664086E+03  0.12885664086E+03  0.00000000000E+00 0.  1.
         23    2    1    2    0    0  0.30791467969E+02 -0.69617880303E+02  0.14799592775E+02  0.14717643048E+03  0.12508840868E+03 0.  0.
         23    2    1    2    0    0 -0.30791467969E+02  0.69617880303E+02 -0.59289287126E+01  0.11940751531E+03  0.91805439704E+02 0.  0.
          5    1    3    3  502    0 -0.38060934734E+02 -0.31587532274E+02  0.40772970304E+02  0.64236395100E+02  0.41800000000E+01 0. -1.
         -5    1    3    3    0  502  0.68852402703E+02 -0.38030348029E+02 -0.25973377529E+02  0.82940035383E+02  0.41800000000E+01 0. -1.
        -11    1    4    4    0    0  0.72374947574E+01 -0.20013334189E+02 -0.57399028324E+01  0.22042263047E+02  0.00000000000E+00 0. -1.
         11    1    4    4    0    0 -0.38028962726E+02  0.89631214492E+02 -0.18902588021E+00  0.97365252262E+02  0.00000000000E+00 0.  1.
</event>
<event>
 8    1  0.8619230E-006  0.1101390E+03  0.7561462E-02  0.1260313E+00
          2   -1    0    0  501    0  0.00000000000E+00  0.00000000000E+00  0.10113989908E+04  0.10113989908E+04  0.00000000000E+00 0. -1.
         -2   -1    0    0    0  501 -0.00000000000E+00 -0.00000000000E+00 -0.14562734058E+02  0.14562734058E+02  0.00000000000E+00 0.  1.
         23    2    1    2    0    0 -0.30310499940E+02  0.45012157069E+02  0.52126937593E+03  0.53880751630E+03  0.12508779576E+03 0.  0.
         23    2    1    2    0    0  0.30310499940E+02 -0.45012157069E+02  0.47556688077E+03  0.48715420852E+03  0.90612052727E+02 0.  0.
          5    1    3    3  502    0 -0.67712297324E+02  0.28147007324E+02  0.17083853296E+03  0.18595829095E+03  0.41800000000E+01 0. -1.
         -5    1    3    3    0  502  0.37401797383E+02  0.16865149745E+02  0.35043084297E+03  0.35284922535E+03  0.41800000000E+01 0. -1.
        -11    1    4    4    0    0  0.95134429690E+01  0.28052601562E+02  0.12824422252E+03  0.13162079874E+03  0.00000000000E+00 0.  1.
         11    1    4    4    0    0  0.20797056971E+02 -0.73064758631E+02  0.34732265826E+03  0.35553340978E+03  0.00000000000E+00 0. -1.
</event>
<event>
 8    1  0.9696096E-006  0.1323081E+03  0.7561462E-02  0.1224071E+00
          2   -1    0    0  501    0  0.00000000000E+00  0.00000000000E+00  0.59153176797E+03  0.59153176797E+03  0.00000000000E+00 0. -1.
         -2   -1    0    0    0  501 -0.00000000000E+00 -0.00000000000E+00 -0.47337940030E+02  0.47337940030E+02  0.00000000000E+00 0.  1.
         23    2    1    2    0    0  0.11136531242E+03 -0.33333122480E+02  0.19207320677E+03  0.25700792767E+03  0.12509048031E+03 0.  0.
         23    2    1    2    0    0 -0.11136531242E+03  0.33333122480E+02  0.35212062117E+03  0.38186178033E+03  0.91192968781E+02 0.  0.
          5    1    3    3  502    0  0.12234806825E+03 -0.35455034432E+02  0.94389005255E+02  0.15859655099E+03  0.41800000000E+01 0. -1.
         -5    1    3    3    0  502 -0.10982755832E+02  0.21219119516E+01  0.97684201513E+02  0.98411376686E+02  0.41800000000E+01 0. -1.
        -11    1    4    4    0    0 -0.55661029262E+02  0.40812399581E+02  0.88057362912E+02  0.11188342729E+03  0.00000000000E+00 0.  1.
         11    1    4    4    0    0 -0.55704283160E+02 -0.74792771011E+01  0.26406325826E+03  0.26997835304E+03  0.00000000000E+00 0. -1.
</event>
<event>
 8    1  0.8619230E-006  0.9795341E+02  0.7561462E-02  0.1284659E+00
         -1   -1    0    0    0  501 -0.00000000000E+00  0.00000000000E+00  0.15895721183E+03  0.15895721183E+03  0.00000000000E+00 0. -1.
          1   -1    0    0  501    0  0.00000000000E+00 -0.00000000000E+00 -0.20921629911E+03  0.20921629911E+03  0.00000000000E+00 0.  1.
         23    2    1    2    0    0 -0.85031992754E+01 -0.89364855494E+02  0.90186502522E+02  0.17843874698E+03  0.12509356256E+03 0.  0.
         23    2    1    2    0    0  0.85031992754E+01  0.89364855494E+02 -0.14044558980E+03  0.18973476395E+03  0.90641795884E+02 0.  0.
          5    1    3    3  502    0 -0.15604905519E+02 -0.51714465261E+02  0.11871075609E+03  0.13048990385E+03  0.41800000000E+01 0.  1.
         -5    1    3    3    0  502  0.71017062439E+01 -0.37650390233E+02 -0.28524253573E+02  0.47948843137E+02  0.41800000000E+01 0.  1.
        -11    1    4    4    0    0 -0.20305876818E+02  0.53236486102E+02 -0.19433814663E+02  0.60200707955E+02  0.00000000000E+00 0. -1.
         11    1    4    4    0    0  0.28809076094E+02  0.36128369392E+02 -0.12101177514E+03  0.12953405600E+03  0.00000000000E+00 0.  1.
</event>
<event>
 8    1  0.8619230E-006  0.9308447E+02  0.7561462E-02  0.1295550E+00
         -2   -1    0    0    0  501 -0.00000000000E+00  0.00000000000E+00  0.69924216411E+02  0.69924216411E+02  0.00000000000E+00 0.  1.
          2   -1    0    0  501    0  0.00000000000E+00 -0.00000000000E+00 -0.38525140330E+03  0.38525140330E+03  0.00000000000E+00 0. -1.
         23    2    1    2    0    0 -0.50546937212E+02  0.24740702352E+02 -0.16821959174E+02  0.13819826906E+03  0.12509471630E+03 0.  0.
         23    2    1    2    0    0  0.50546937212E+02 -0.24740702352E+02 -0.29850522771E+03  0.31697735064E+03  0.90565858005E+02 0.  0.
          5    1    3    3  502    0 -0.17615432020E+02 -0.24168523531E+02 -0.58525611669E+02  0.65856970748E+02  0.41800000000E+01 0. -1.
         -5    1    3    3    0  502 -0.32931505191E+02  0.48909225882E+02  0.41703652495E+02  0.72341298315E+02  0.41800000000E+01 0. -1.
        -11    1    4    4    0    0  0.40639247577E+02  0.23950482148E+02 -0.21229472613E+03  0.21747235406E+03  0.00000000000E+00 0. -1.
         11    1    4    4    0    0  0.99076896344E+01 -0.48691184499E+02 -0.86210501579E+02  0.99504996580E+02  0.00000000000E+00 0.  1.
</event>
<event>
 8    1  0.8619230E-006  0.8362429E+02  0.7561462E-02  0.1319070E+00
          1   -1    0    0  501    0  0.00000000000E+00  0.00000000000E+00  0.28245837852E+03  0.28245837852E+03  0.00000000000E+00 0. -1.
         -1   -1    0    0    0  501 -0.00000000000E+00 -0.00000000000E+00 -0.49393577003E+02  0.49393577003E+02  0.00000000000E+00 0.  1.
         23    2    1    2    0    0 -0.15538320050E+02  0.43721363072E+02  0.14608513442E+03  0.19784092679E+03  0.12508864390E+03 0.  0.
         23    2    1    2    0    0  0.15538320050E+02 -0.43721363072E+02  0.86979667089E+02  0.13401102873E+03  0.90777179709E+02 0.  0.
          5    1    3    3  502    0 -0.24739593605E+02  0.33766372069E+01 -0.16368882386E+02  0.30147336220E+02  0.41800000000E+01 0.  1.
         -5    1    3    3    0  502  0.92012735556E+01  0.40344725865E+02  0.16245401681E+03  0.16769359057E+03  0.41800000000E+01 0.  1.
        -11    1    4    4    0    0  0.16953336152E+02  0.25763779181E+02  0.16291602432E+02  0.34879854273E+02  0.00000000000E+00 0.  1.
         11    1    4    4    0    0 -0.14150161021E+01 -0.69485142252E+02  0.70688064657E+02  0.99131174458E+02  0.00000000000E+00 0. -1.
</event>
<event>
 8    1  0.8619230E-006  0.7035741E+02  0.7561462E-02  0.1358882E+00
         -3   -1    0    0    0  501 -0.00000000000E+00  0.00000000000E+00  0.32935118551E+03  0.32935118551E+03  0.00000000000E+00 0.  1.
          3   -1    0    0  501    0  0.00000000000E+00 -0.00000000000E+00 -0.47394364066E+02  0.47394364066E+02  0.00000000000E+00 0. -1.
         23    2    1    2    0    0  0.44322397673E+02  0.13810092197E+02  0.22362214508E+03  0.26040253221E+03  0.12508965356E+03 0.  0.
         23    2    1    2    0    0 -0.44322397673E+02 -0.13810092197E+02  0.58334676361E+02  0.11634301737E+03  0.89317241573E+02 0.  0.
          5    1    3    3  502    0  0.46900397078E+02  0.95458829566E+01  0.23896038106E+03  0.24374229679E+03  0.41800000000E+01 0.  1.
         -5    1    3    3    0  502 -0.25779994045E+01  0.42642092404E+01 -0.15338235977E+02  0.16660235420E+02  0.41800000000E+01 0.  1.
        -11    1    4    4    0    0 -0.51921535479E+02  0.16843435646E+02  0.64150214088E+02  0.84230618771E+02  0.00000000000E+00 0.  1.
         11    1    4    4    0    0  0.75991378062E+01 -0.30653527843E+02 -0.58155377279E+01  0.32112398597E+02  0.00000000000E+00 0. -1.
</event>
<event>
 8    1  0.8619230E-006  0.1256630E+03  0.7561462E-02  0.1234037E+00
         -1   -1    0    0    0  501 -0.00000000000E+00  0.00000000000E+00  0.85007706136E+02  0.85007706136E+02  0.00000000000E+00 0.  1.
          1   -1    0    0  501    0  0.00000000000E+00 -0.00000000000E+00 -0.27104211573E+03  0.27104211573E+03  0.00000000000E+00 0. -1.
         23    2    1    2    0    0  0.10071546486E+03  0.16178007085E+02 -0.41335918847E+02  0.15641618901E+03  0.11113970137E+03 0.  0.
         23    2    1    2    0    0 -0.10071546486E+03 -0.16178007085E+02 -0.14469849075E+03  0.19963363286E+03  0.92252920650E+02 0.  0.
          5    1    3    3  502    0 -0.25207135107E+01  0.91171410391E+01 -0.51341062632E+02  0.52372257632E+02  0.41800000000E+01 0. -1.
         -5    1    3    3    0  502  0.10323617837E+03  0.70608660459E+01  0.10005143785E+02  0.10404393138E+03  0.41800000000E+01 0.  1.
        -11    1    4    4    0    0 -0.97998057212E+02  0.20935852439E+02 -0.10187141326E+03  0.14289756462E+03  0.00000000000E+00 0. -1.
         11    1    4    4    0    0 -0.27174076478E+01 -0.37113859524E+02 -0.42827077487E+02  0.56736068238E+02  0.00000000000E+00 0.  1.
</event>
<event>
 8    1  0.8619230E-006  0.1167870E+03  0.7561462E-02  0.1248494E+00
         -2   -1    0    0    0  501 -0.00000000000E+00  0.00000000000E+00  0.38139639686E+02  0.38139639686E+02  0.00000000000E+00 0.  1.
          2   -1    0    0  501    0  0.00000000000E+00 -0.00000000000E+00 -0.38095905387E+03  0.38095905387E+03  0.00000000000E+00 0. -1.
         23    2    1    2    0    0  0.64719026647E+02 -0.10980726606E+02 -0.16762175319E+03  0.21196000579E+03  0.11189666278E+03 0.  0.
         23    2    1    2    0    0 -0.64719026647E+02  0.10980726606E+02 -0.17519766099E+03  0.20713868777E+03  0.88899307014E+02 0.  0.
          5    1    3    3  502    0  0.65329813020E+02 -0.53369421970E+02 -0.13054665272E+03  0.15548691459E+03  0.41800000000E+01 0. -1.
         -5    1    3    3    0  502 -0.61078637316E+00  0.42388695364E+02 -0.37075100471E+02  0.56473091199E+02  0.41800000000E+01 0.  1.
        -11    1    4    4    0    0 -0.50173185748E+02  0.46327907161E+02 -0.13712645716E+03  0.15319036785E+03  0.00000000000E+00 0. -1.
         11    1    4    4    0    0 -0.14545840899E+02 -0.35347180555E+02 -0.38071203834E+02  0.53948319919E+02  0.00000000000E+00 0.  1.
</event>
<event>
 8    1  0.8619230E-006  0.5200580E+02  0.7561462E-02  0.1434814E+00
         -2   -1    0    0    0  501 -0.00000000000E+00  0.00000000000E+00  0.24651324020E+03  0.24651324020E+03  0.00000000000E+00 0.  1.
          2   -1    0    0  501    0  0.00000000000E+00 -0.00000000000E+00 -0.57777995705E+02  0.57777995705E+02  0.00000000000E+00 0. -1.
         23    2    1    2    0    0  0.30597306818E+00  0.37607299643E+02  0.74022030659E+02  0.15013046803E+03  0.12508194835E+03 0.  0.
         23    2    1    2    0    0 -0.30597306818E+00 -0.37607299643E+02  0.11471321384E+03  0.15416076787E+03  0.95875014037E+02 0.  0.
          5    1    3    3  502    0  0.53983893879E+00 -0.83273841200E+00 -0.34582190720E+02  0.34848029992E+02  0.41800000000E+01 0. -1.
         -5    1    3    3    0  502 -0.23386587060E+00  0.38440038055E+02  0.10860422138E+03  0.11528243804E+03  0.41800000000E+01 0. -1.
        -11    1    4    4    0    0 -0.18987690888E+02 -0.37871053763E+02  0.12558928826E+03  0.13254213837E+03  0.00000000000E+00 0.  1.
         11    1    4    4    0    0  0.18681717820E+02  0.26375412023E+00 -0.10876074420E+02  0.21618629506E+02  0.00000000000E+00 0. -1.
</event>
<event>
 8    1  0.8619230E-006  0.9865448E+02  0.7561462E-02  0.1283151E+00
         -3   -1    0    0    0  501 -0.00000000000E+00  0.00000000000E+00  0.12318915451E+03  0.12318915451E+03  0.00000000000E+00 0.  1.
          3   -1    0    0  501    0  0.00000000000E+00 -0.00000000000E+00 -0.14586564277E+03  0.14586564277E+03  0.00000000000E+00 0. -1.
         23    2    1    2    0    0 -0.53514389514E+02  0.20674453967E+01  0.47040348935E+02  0.14395997129E+03  0.12507443659E+03 0.  0.
         23    2    1    2    0    0  0.53514389514E+02 -0.20674453967E+01 -0.69716837195E+02  0.12509482600E+03  0.88995583535E+02 0.  0.
          5    1    3    3  502    0 -0.23812142422E+02 -0.56673130543E+02  0.47828867824E+02  0.77999582368E+02  0.41800000000E+01 0.  1.
         -5    1    3    3    0  502 -0.29702247093E+02  0.58740575940E+02 -0.78851888921E+00  0.65960388917E+02  0.41800000000E+01 0.  1.
        -11    1    4    4    0    0  0.43233088629E+01  0.16578152377E+02  0.16699996068E+02  0.23925216915E+02  0.00000000000E+00 0.  1.
         11    1    4    4    0    0  0.49191080652E+02 -0.18645597774E+02 -0.86416833263E+02  0.10116960909E+03  0.00000000000E+00 0. -1.
</event>
<event>
 8    1  0.8619230E-006  0.1129826E+03  0.7561462E-02  0.1255144E+00
          2   -1    0    0  501    0  0.00000000000E+00  0.00000000000E+00  0.60794042501E+02  0.60794042501E+02  0.00000000000E+00 0. -1.
         -2   -1    0    0    0  501 -0.00000000000E+00 -0.00000000000E+00 -0.25015924998E+03  0.25015924998E+03  0.00000000000E+00 0.  1.
         23    2    1    2    0    0  0.29540268527E+02  0.19659946092E+02 -0.15924083069E+03  0.20558284147E+03  0.12509005398E+03 0.  0.
         23    2    1    2    0    0 -0.29540268527E+02 -0.19659946092E+02 -0.30124376789E+02  0.10537045101E+03  0.94532073519E+02 0.  0.
          5    1    3    3  502    0 -0.36689833563E+02  0.41778073027E+02 -0.45110461050E+02  0.71721526537E+02  0.41800000000E+01 0. -1.
         -5    1    3    3    0  502  0.66230102089E+02 -0.22118126935E+02 -0.11413036964E+03  0.13386131493E+03  0.41800000000E+01 0. -1.
        -11    1    4    4    0    0 -0.60013652125E+02 -0.31238282436E+02 -0.14378438542E+02  0.69167971098E+02  0.00000000000E+00 0. -1.
         11    1    4    4    0    0  0.30473383598E+02  0.11578336344E+02 -0.15745938248E+02  0.36202479911E+02  0.00000000000E+00 0.  1.
</event>
<event>
 8    1  0.8619230E-006  0.1116230E+03  0.7561462E-02  0.1257593E+00
         -4   -1    0    0    0  501 -0.00000000000E+00  0.00000000000E+00  0.37966904508E+02  0.37966904508E+02  0.00000000000E+00 0. -1.
          4   -1    0    0  501    0  0.00000000000E+00 -0.00000000000E+00 -0.38645122535E+03  0.38645122535E+03  0.00000000000E+00 0.  1.
         23    2    1    2    0    0 -0.24999263768E+02 -0.44284444123E+02 -0.17575365755E+03  0.22163878544E+03  0.12509327675E+03 0.  0.
         23    2    1    2    0    0  0.24999263768E+02  0.44284444123E+02 -0.17273066329E+03  0.20277934442E+03  0.93260416587E+02 0.  0.
          5    1    3    3  502    0 -0.65858575246E+02 -0.36085156075E+02 -0.53200267863E+02  0.92126170674E+02  0.41800000000E+01 0.  1.
         -5    1    3    3    0  502  0.40859311478E+02 -0.81992880479E+01 -0.12255338969E+03  0.12951261476E+03  0.41800000000E+01 0.  1.
        -11    1    4    4    0    0 -0.91774248943E+01  0.65357740359E+02 -0.10369767877E+03  0.12291894864E+03  0.00000000000E+00 0. -1.
         11    1    4    4    0    0  0.34176688662E+02 -0.21073296236E+02 -0.69032984515E+02  0.79860395774E+02  0.00000000000E+00 0.  1.
</event>
<event>
 8    1  0.8619230E-006  0.7129243E+02  0.7561462E-02  0.1355752E+00
          1   -1    0    0  501    0  0.00000000000E+00  0.00000000000E+00  0.10294492320E+02  0.10294492320E+02  0.00000000000E+00 0. -1.
         -1   -1    0    0    0  501 -0.00000000000E+00 -0.00000000000E+00 -0.12291737864E+04  0.12291737864E+04  0.00000000000E+00 0.  1.
         23    2    1    2    0    0  0.19832545431E+02  0.11499762407E+02 -0.88247356428E+03  0.89026525424E+03  0.11526949666E+03 0.  0.
         23    2    1    2    0    0 -0.19832545431E+02 -0.11499762407E+02 -0.33640572979E+03  0.34920302447E+03  0.90820498074E+02 0.  0.
          5    1    3    3  502    0  0.42323732136E+01 -0.17170169812E+02 -0.19461642791E+02  0.26626221184E+02  0.41800000000E+01 0. -1.
         -5    1    3    3    0  502  0.15600172218E+02  0.28669932219E+02 -0.86301192149E+03  0.86363903305E+03  0.41800000000E+01 0.  1.
        -11    1    4    4    0    0 -0.18462963116E+01  0.38410710890E+02 -0.10575568160E+03  0.11253024354E+03  0.00000000000E+00 0.  1.
         11    1    4    4    0    0 -0.17986249120E+02 -0.49910473297E+02 -0.23065004818E+03  0.23667278092E+03  0.00000000000E+00 0. -1.
</event>
<event>
 8    1  0.8619230E-006  0.8941210E+02  0.7561462E-02  0.1304282E+00
         -2   -1    0    0    0  501 -0.00000000000E+00  0.00000000000E+00  0.51124227030E+02  0.51124227030E+02  0.00000000000E+00 0.  1.
          2   -1    0    0  501    0  0.00000000000E+00 -0.00000000000E+00 -0.28661117306E+03  0.28661117306E+03  0.00000000000E+00 0. -1.
         23    2    1    2    0    0  0.21974876394E+02  0.30316917291E+02 -0.67792558627E+02  0.14712156934E+03  0.12508762726E+03 0.  0.
         23    2    1    2    0    0 -0.21974876394E+02 -0.30316917291E+02 -0.16769438740E+03  0.19061383075E+03  0.82524022192E+02 0.  0.
          5    1    3    3  502    0  0.26421378860E+02  0.60793470558E+02  0.63562481714E+01  0.66721882573E+02  0.41800000000E+01 0.  1.
         -5    1    3    3    0  502 -0.44465024662E+01 -0.30476553266E+02 -0.74148806799E+02  0.80399686771E+02  0.41800000000E+01 0.  1.
        -11    1    4    4    0    0  0.23335444537E+02 -0.27299000089E+02 -0.34143187533E+02  0.49553361466E+02  0.00000000000E+00 0.  1.
         11    1    4    4    0    0 -0.45310320931E+02 -0.30179172023E+01 -0.13355119987E+03  0.14106046928E+03  0.00000000000E+00 0. -1.
</event>
<event>
 8    1  0.8619230E-006  0.9823879E+02  0.7561462E-02  0.1284044E+00
         -3   -1    0    0    0  501 -0.00000000000E+00  0.00000000000E+00  0.42370752995E+02  0.42370752995E+02  0.00000000000E+00 0.  1.
          3   -1    0    0  501    0  0.00000000000E+00 -0.00000000000E+00 -0.30472929469E+03  0.30472929469E+03  0.00000000000E+00 0. -1.
         23    2    1    2    0    0 -0.13459088817E+02 -0.21080236054E+02 -0.12281843300E+03  0.17708095119E+03  0.12509105630E+03 0.  0.
         23    2    1    2    0    0  0.13459088817E+02  0.21080236054E+02 -0.13954010869E+03  0.17001909649E+03  0.93859084879E+02 0.  0.
          5    1    3    3  502    0 -0.28618136834E+02  0.44743984276E+02 -0.26879666642E+02  0.59674205178E+02  0.41800000000E+01 0. -1.
         -5    1    3    3    0  502  0.15159048017E+02 -0.65824220330E+02 -0.95938766359E+02  0.11740674601E+03  0.41800000000E+01 0. -1.
        -11    1    4    4    0    0 -0.29006746781E+02  0.14901945270E+02 -0.10858917219E+02  0.34371142181E+02  0.00000000000E+00 0.  1.
         11    1    4    4    0    0  0.42465835598E+02  0.61782907836E+01 -0.12868119147E+03  0.13564795431E+03  0.00000000000E+00 0. -1.
</event>
<event>
 8    1  0.8619230E-006  0.2111998E+03  0.7561462E-02  0.1140619E+00
          1   -1    0    0  501    0  0.00000000000E+00  0.00000000000E+00  0.43631647609E+02  0.43631647609E+02  0.00000000000E+00 0. -1.
         -1   -1    0    0    0  501 -0.00000000000E+00 -0.00000000000E+00 -0.12475818608E+04  0.12475818608E+04  0.00000000000E+00 0.  1.
         23    2    1    2    0    0 -0.20099520126E+03  0.16488486991E+02 -0.51708944559E+03  0.56894671544E+03  0.12509168293E+03 0.  0.
         23    2    1    2    0    0  0.20099520126E+03 -0.16488486991E+02 -0.68686076757E+03  0.72226679294E+03  0.96024293897E+02 0.  0.
          5    1    3    3  502    0 -0.20957529182E+03  0.14485741674E+02 -0.40341447768E+03  0.45485421055E+03  0.41800000000E+01 0.  1.
         -5    1    3    3    0  502  0.85800905617E+01  0.20027453169E+01 -0.11367496791E+03  0.11409250489E+03  0.41800000000E+01 0.  1.
        -11    1    4    4    0    0  0.77052395240E+02 -0.15436416801E+02 -0.42930908991E+03  0.43644203424E+03  0.00000000000E+00 0.  1.
         11    1    4    4    0    0  0.12394280602E+03 -0.10520701908E+01 -0.25755167766E+03  0.28582475870E+03  0.00000000000E+00 0. -1.
</event>
<event>
 8    1  0.8619230E-006  0.1143407E+03  0.7561462E-02  0.1252736E+00
         -1   -1    0    0    0  501 -0.00000000000E+00  0.00000000000E+00  0.12661958520E+04  0.12661958520E+04  0.00000000000E+00 0.  1.
          1   -1    0    0  501    0  0.00000000000E+00 -0.00000000000E+00 -0.14039299182E+02  0.14039299182E+02  0.00000000000E+00 0. -1.
         23    2    1    2    0    0  0.25806232674E+02  0.73569759828E+02  0.78022570093E+03  0.79401893788E+03  0.12504182548E+03 0.  0.
         23    2    1    2    0    0 -0.25806232674E+02 -0.73569759828E+02  0.47193085191E+03  0.48621621333E+03  0.87229615993E+02 0.  0.
          5    1    3    3  502    0  0.35093157243E+01  0.86417627913E+02  0.74592968393E+03  0.75093867092E+03  0.41800000000E+01 0.  1.
         -5    1    3    3    0  502  0.22296916949E+02 -0.12847868085E+02  0.34296016998E+02  0.43080266964E+02  0.41800000000E+01 0.  1.
        -11    1    4    4    0    0  0.24747560804E+02 -0.58102950625E+02  0.28770569713E+03  0.29455553432E+03  0.00000000000E+00 0. -1.
         11    1    4    4    0    0 -0.50553793478E+02 -0.15466809203E+02  0.18422515478E+03  0.19166067901E+03  0.00000000000E+00 0.  1.
</event>
<event>
 8    1  0.8619230E-006  0.1398935E+03  0.7561462E-02  0.1213472E+00
          2   -1    0    0  501    0  0.00000000000E+00  0.00000000000E+00  0.33809196537E+03  0.33809196537E+03  0.00000000000E+00 0. -1.
         -2   -1    0    0    0  501 -0.00000000000E+00 -0.00000000000E+00 -0.78440476348E+02  0.78440476348E+02  0.00000000000E+00 0.  1.
         23    2    1    2    0    0 -0.81758155733E+02  0.91285335167E+02  0.13975407575E+03  0.22405218687E+03  0.12510304676E+03 0.  0.
         23    2    1    2    0    0  0.81758155733E+02 -0.91285335167E+02  0.11989741328E+03  0.19248025485E+03  0.87497716266E+02 0.  0.
          5    1    3    3  502    0  0.19179771800E+02 -0.15492268912E+01  0.64770852509E+02  0.67697854361E+02  0.41800000000E+01 0.  1.
         -5    1    3    3    0  502 -0.10093792753E+03  0.92834562058E+02  0.74983223239E+02  0.15635433251E+03  0.41800000000E+01 0.  1.
        -11    1    4    4    0    0  0.23489532188E+02 -0.32737785952E+02  0.99570554217E+02  0.10741422633E+03  0.00000000000E+00 0. -1.
         11    1    4    4    0    0  0.58268623545E+02 -0.58547549215E+02  0.20326859062E+02  0.85066028521E+02  0.00000000000E+00 0.  1.
</event>
<event>
 8    1  0.8619230E-006  0.1172691E+03  0.7561462E-02  0.1247671E+00
         -1   -1    0    0    0  501 -0.00000000000E+00  0.00000000000E+00  0.31604233097E+02  0.31604233097E+02  0.00000000000E+00 0.  1.
          1   -1    0    0  501    0  0.00000000000E+00 -0.00000000000E+00 -0.53344236358E+03  0.53344236358E+03  0.00000000000E+00 0. -1.
         23    2    1    2    0    0  0.43063308115E+02 -0.16947372661E+02 -0.16100628558E+03  0.20906903915E+03  0.12508068272E+03 0.  0.
         23    2    1    2    0    0 -0.43063308115E+02  0.16947372661E+02 -0.34083184490E+03  0.35597755752E+03  0.91717026842E+02 0.  0.
          5    1    3    3  502    0  0.70268893599E+02 -0.51817292515E+02 -0.91182319673E+02  0.12631087456E+03  0.41800000000E+01 0.  1.
         -5    1    3    3    0  502 -0.27205585484E+02  0.34869919854E+02 -0.69823965903E+02  0.82758164591E+02  0.41800000000E+01 0.  1.
        -11    1    4    4    0    0 -0.80865502586E+01  0.52331072552E+02 -0.17174129408E+03  0.17971924088E+03  0.00000000000E+00 0. -1.
         11    1    4    4    0    0 -0.34976757857E+02 -0.35383699891E+02 -0.16909055083E+03  0.17625831665E+03  0.00000000000E+00 0.  1.
</event>
<event>
 8    1  0.8619230E-006  0.2715332E+03  0.7561462E-02  0.1100405E+00
          4   -1    0    0  501    0  0.00000000000E+00  0.00000000000E+00  0.11177211221E+04  0.11177211221E+04  0.00000000000E+00 0. -1.
         -4   -1    0    0    0  501 -0.00000000000E+00 -0.00000000000E+00 -0.81071495056E+02  0.81071495056E+02  0.00000000000E+00 0.  1.
         23    2    1    2    0    0  0.10948217216E+03 -0.23451269375E+03  0.31381197612E+03  0.42556647968E+03  0.12508526181E+03 0.  0.
         23    2    1    2    0    0 -0.10948217216E+03  0.23451269375E+03  0.72283765094E+03  0.77322613750E+03  0.91661554298E+02 0.  0.
          5    1    3    3  502    0  0.47298144234E+02 -0.30799626680E+02  0.13868775648E+03  0.14979151395E+03  0.41800000000E+01 0.  1.
         -5    1    3    3    0  502  0.62184027930E+02 -0.20371306707E+03  0.17512421964E+03  0.27577496574E+03  0.41800000000E+01 0.  1.
        -11    1    4    4    0    0 -0.84489833355E+02  0.23361865577E+03  0.63397498268E+03  0.68091151182E+03  0.00000000000E+00 0.  1.
         11    1    4    4    0    0 -0.24992338808E+02  0.89403797746E+00  0.88862668267E+02  0.92314625681E+02  0.00000000000E+00 0. -1.
</event>
<event>
 8    1  0.8619230E-006  0.2380835E+03  0.7561462E-02  0.1121076E+00
          2   -1    0    0  501    0  0.00000000000E+00  0.00000000000E+00  0.17042986869E+04  0.17042986869E+04  0.00000000000E+00 0.  1.
         -2   -1    0    0    0  501 -0.00000000000E+00 -0.00000000000E+00 -0.34620473113E+02  0.34620473113E+02  0.00000000000E+00 0. -1.
         23    2    1    2    0    0  0.18756326290E+03  0.10883598729E+03  0.72227067717E+03  0.76442637803E+03  0.12508999405E+03 0.  0.
         23    2    1    2    0    0 -0.18756326290E+03 -0.10883598729E+03  0.94740753662E+03  0.97449278198E+03  0.70921731344E+02 0.  0.
          5    1    3    3  502    0  0.13258552822E+03  0.69412027195E+01  0.42925963588E+03  0.44934219698E+03  0.41800000000E+01 0. -1.
         -5    1    3    3    0  502  0.54977734680E+02  0.10189478457E+03  0.29301104128E+03  0.31508418105E+03  0.41800000000E+01 0. -1.
        -11    1    4    4    0    0 -0.98941824848E+02 -0.96129524053E+02  0.53727201794E+03  0.55469955054E+03  0.00000000000E+00 0.  1.
         11    1    4    4    0    0 -0.88621438054E+02 -0.12706463232E+02  0.41013551868E+03  0.41979323145E+03  0.00000000000E+00 0. -1.
</event>
<event>
 8    1  0.8619230E-006  0.1082078E+03  0.7561462E-02  0.1263925E+00
          2   -1    0    0  501    0  0.00000000000E+00  0.00000000000E+00  0.34991660223E+03  0.34991660223E+03  0.00000000000E+00 0. -1.
         -2   -1    0    0    0  501 -0.00000000000E+00 -0.00000000000E+00 -0.38424589380E+02  0.38424589380E+02  0.00000000000E+00 0.  1.
         23    2    1    2    0    0 -0.33291117650E+02  0.20785218556E+02  0.16596356366E+03  0.21150089095E+03  0.12509355933E+03 0.  0.
         23    2    1    2    0    0  0.33291117650E+02 -0.20785218556E+02  0.14552844919E+03  0.17684030066E+03  0.92485883180E+02 0.  0.
          5    1    3    3  502    0 -0.25865719542E+02  0.71027054105E+02  0.71314502166E+02  0.10400532910E+03  0.41800000000E+01 0.  1.
         -5    1    3    3    0  502 -0.74253981079E+01 -0.50241835549E+02  0.94649061491E+02  0.10749556185E+03  0.41800000000E+01 0.  1.
        -11    1    4    4    0    0 -0.26968088689E+02 -0.46218830949E+01  0.87346373137E+02  0.91531571116E+02  0.00000000000E+00 0.  1.
         11    1    4    4    0    0  0.60259206339E+02 -0.16163335461E+02  0.58182076055E+02  0.85308729541E+02  0.00000000000E+00 0. -1.
</event>
<event>
 8    1  0.8619230E-006  0.1269048E+03  0.7561462E-02  0.1232122E+00
          1   -1    0    0  501    0  0.00000000000E+00  0.00000000000E+00  0.10572048020E+03  0.10572048020E+03  0.00000000000E+00 0. -1.
         -1   -1    0    0    0  501 -0.00000000000E+00 -0.00000000000E+00 -0.20197285932E+03  0.20197285932E+03  0.00000000000E+00 0.  1.
         23    2    1    2    0    0  0.60298177034E+02 -0.71622424042E+02 -0.82256254046E+02  0.17657639740E+03  0.12508993169E+03 0.  0.
         23    2    1    2    0    0 -0.60298177034E+02  0.71622424042E+02 -0.13996125071E+02  0.13111694212E+03  0.90720004487E+02 0.  0.
          5    1    3    3  502    0  0.70557340300E+02 -0.10178681223E+03 -0.61718731351E+02  0.13843976168E+03  0.41800000000E+01 0. -1.
         -5    1    3    3    0  502 -0.10259163266E+02  0.30164388188E+02 -0.20537522696E+02  0.38136635722E+02  0.41800000000E+01 0. -1.
        -11    1    4    4    0    0 -0.30356110917E+02  0.56666185609E+02 -0.50384262500E+02  0.81676948824E+02  0.00000000000E+00 0.  1.
         11    1    4    4    0    0 -0.29942066117E+02  0.14956238433E+02  0.36388137429E+02  0.49439993294E+02  0.00000000000E+00 0. -1.
</event>
<event>
 8    1  0.8619230E-006  0.1103332E+03  0.7561462E-02  0.1259954E+00
          1   -1    0    0  501    0  0.00000000000E+00  0.00000000000E+00  0.34470250542E+03  0.34470250542E+03  0.00000000000E+00 0. -1.
         -1   -1    0    0    0  501 -0.00000000000E+00 -0.00000000000E+00 -0.59001733629E+02  0.59001733629E+02  0.00000000000E+00 0.  1.
         23    2    1    2    0    0  0.50394655894E+01 -0.91247117339E+02  0.13538091156E+03  0.20573745518E+03  0.12509387121E+03 0.  0.
         23    2    1    2    0    0 -0.50394655894E+01  0.91247117339E+02  0.15031986024E+03  0.19796678387E+03  0.90792920966E+02 0.  0.
          5    1    3    3  502    0 -0.11507144693E+02 -0.56414706547E+02  0.15270764923E+03  0.16325480706E+03  0.41800000000E+01 0.  1.
         -5    1    3    3    0  502  0.16546610283E+02 -0.34832410792E+02 -0.17326737673E+02  0.42482648126E+02  0.41800000000E+01 0.  1.
        -11    1    4    4    0    0  0.20927965004E+02 -0.73572526567E+01  0.95614452749E+01  0.24156368138E+02  0.00000000000E+00 0.  1.
         11    1    4    4    0    0 -0.25967430594E+02  0.98604369996E+02  0.14075841496E+03  0.17381041573E+03  0.00000000000E+00 0. -1.
</event>
<event>
 8    1  0.8619230E-006  0.1002762E+03  0.7561462E-02  0.1279716E+00
          3   -1    0    0  501    0  0.00000000000E+00  0.00000000000E+00  0.49425630419E+03  0.49425630419E+03  0.00000000000E+00 0. -1.
         -3   -1    0    0    0  501 -0.00000000000E+00 -0.00000000000E+00 -0.16843164375E+03  0.16843164375E+03  0.00000000000E+00 0.  1.
         23    2    1    2    0    0 -0.38441023691E+02  0.68608774340E+02 -0.13166596287E+03  0.18960900423E+03  0.11149337419E+03 0.  0.
         23    2    1    2    0    0  0.38441023691E+02 -0.68608774340E+02  0.45749062331E+03  0.47307894371E+03  0.91220284710E+02 0.  0.
          5    1    3    3  502    0  0.13383676895E+02  0.31116145779E+02  0.87676288618E+01  0.35237494963E+02  0.41800000000E+01 0. -1.
         -5    1    3    3    0  502 -0.51824700586E+02  0.37492628560E+02 -0.14043359173E+03  0.15437150927E+03  0.41800000000E+01 0.  1.
        -11    1    4    4    0    0 -0.18297529999E+02 -0.10451383250E+02  0.23566110263E+02  0.31613170812E+02  0.00000000000E+00 0.  1.
         11    1    4    4    0    0  0.56738553690E+02 -0.58157391090E+02  0.43392451305E+03  0.44146577290E+03  0.00000000000E+00 0. -1.
</event>
<event>
 8    1  0.8619230E-006  0.1039851E+03  0.7561462E-02  0.1272132E+00
          2   -1    0    0  501    0  0.00000000000E+00  0.00000000000E+00  0.51235007428E+02  0.51235007428E+02  0.00000000000E+00 0. -1.
         -2   -1    0    0    0  501 -0.00000000000E+00 -0.00000000000E+00 -0.34813006084E+03  0.34813006084E+03  0.00000000000E+00 0.  1.
         23    2    1    2    0    0 -0.40111418424E+02 -0.13885926927E+02 -0.25362220793E+03  0.28596095933E+03  0.12509077124E+03 0.  0.
         23    2    1    2    0    0  0.40111418424E+02  0.13885926927E+02 -0.43272845483E+02  0.11340410894E+03  0.95844707285E+02 0.  0.
          5    1    3    3  502    0 -0.61210572481E+01  0.41203638498E+02 -0.26011896921E+02  0.49287912806E+02  0.41800000000E+01 0.  1.
         -5    1    3    3    0  502 -0.33990361176E+02 -0.55089565425E+02 -0.22761031101E+03  0.23667304652E+03  0.41800000000E+01 0.  1.
        -11    1    4    4    0    0  0.28090856422E+01 -0.37575082471E+02 -0.30724425806E+02  0.48618598560E+02  0.00000000000E+00 0.  1.
         11    1    4    4    0    0  0.37302332782E+02  0.51461009398E+02 -0.12548419677E+02  0.64785510383E+02  0.00000000000E+00 0. -1.
</event>
<event>
 7    1  0.8619230E-006  0.5851313E+02  0.7561462E-02  0.1404180E+00
         -2   -1    0    0    0  501 -0.00000000000E+00  0.00000000000E+00  0.91823432821E+02  0.91823432821E+02  0.00000000000E+00 0.  1.
          2   -1    0    0  501    0  0.00000000000E+00 -0.00000000000E+00 -0.94263105078E+02  0.94263105078E+02  0.00000000000E+00 0. -1.
         23    2    1    2    0    0  0.36573339391E+02  0.54579046703E+01  0.15368468983E+02  0.12318867721E+03  0.11649833680E+03 0.  0.
          5    1    3    3  502    0  0.95629279490E+01  0.22440851392E+02 -0.46938197753E+02  0.53063247266E+02  0.41800000000E+01 0. -1.
         -5    1    3    3    0  502  0.27010411442E+02 -0.16982946722E+02  0.62306666736E+02  0.70125429948E+02  0.41800000000E+01 0.  1.
        -11    1    1    2    0    0 -0.61686607515E+01  0.19695019609E+02 -0.87171793374E+01  0.22403914579E+02  0.00000000000E+00 0. -1.
         11    1    1    2    0    0 -0.30404678639E+02 -0.25152924279E+02 -0.90909619032E+01  0.40493946106E+02  0.00000000000E+00 0.  1.
</event>
<event>
 8    1  0.8619230E-006  0.1312368E+03  0.7561462E-02  0.1225632E+00
          1   -1    0    0  501    0  0.00000000000E+00  0.00000000000E+00  0.20129913439E+03  0.20129913439E+03  0.00000000000E+00 0. -1.
         -1   -1    0    0    0  501 -0.00000000000E+00 -0.00000000000E+00 -0.93915037791E+02  0.93915037791E+02  0.00000000000E+00 0.  1.
         23    2    1    2    0    0 -0.35154752454E+02  0.73868036083E+02  0.43744304010E+02  0.15572377028E+03  0.12507591744E+03 0.  0.
         23    2    1    2    0    0  0.35154752454E+02 -0.73868036083E+02  0.63639792593E+02  0.13949040190E+03  0.93355265772E+02 0.  0.
          5    1    3    3  502    0  0.68019306028E+01 -0.33182576606E+02  0.13974958279E+02  0.36879825230E+02  0.41800000000E+01 0.  1.
         -5    1    3    3    0  502 -0.41956683057E+02  0.10705061269E+03  0.29769345731E+02  0.11884394505E+03  0.41800000000E+01 0.  1.
        -11    1    4    4    0    0 -0.17677532961E+02 -0.54041054455E+02  0.34180511682E+01  0.56961511672E+02  0.00000000000E+00 0.  1.
         11    1    4    4    0    0  0.52832285416E+02 -0.19826981628E+02  0.60221741425E+02  0.82528890232E+02  0.00000000000E+00 0. -1.
</event>
<event>
 8    1  0.8619230E-006  0.1648742E+03  0.7561462E-02  0.1183301E+00
         -2   -1    0    0    0  501 -0.00000000000E+00  0.00000000000E+00  0.42597612162E+02  0.42597612162E+02  0.00000000000E+00 0.  1.
          2   -1    0    0  501    0  0.00000000000E+00 -0.00000000000E+00 -0.68736360466E+03  0.68736360466E+03  0.00000000000E+00 0. -1.
         23    2    1    2    0    0  0.97635217559E+02 -0.89051151186E+02 -0.33883900157E+03  0.38460544583E+03  0.12508691676E+03 0.  0.
         23    2    1    2    0    0 -0.97635217559E+02  0.89051151186E+02 -0.30592699093E+03  0.34535577099E+03  0.90645140746E+02 0.  0.
          5    1    3    3  502    0 -0.23892339565E+02 -0.21348629507E+02 -0.23607708451E+02  0.40017548276E+02  0.41800000000E+01 0. -1.
         -5    1    3    3    0  502  0.12152755712E+03 -0.67702521679E+02 -0.31523129312E+03  0.34458789756E+03  0.41800000000E+01 0. -1.
        -11    1    4    4    0    0  0.50404144586E+01  0.47060635103E+02 -0.68121030384E+02  0.82949285318E+02  0.00000000000E+00 0.  1.
         11    1    4    4    0    0 -0.10267563202E+03  0.41990516083E+02 -0.23780596055E+03  0.26240648567E+03  0.00000000000E+00 0. -1.
</event>
<event>
 8    1  0.8619230E-006  0.8606083E+02  0.7561462E-02  0.1312681E+00
         -2   -1    0    0    0  501 -0.00000000000E+00  0.00000000000E+00  0.36090320010E+02  0.36090320010E+02  0.00000000000E+00 0.  1.
          2   -1    0    0  501    0  0.00000000000E+00 -0.00000000000E+00 -0.52285721441E+03  0.52285721441E+03  0.00000000000E+00 0. -1.
         23    2    1    2    0    0 -0.29690285072E+02  0.43189182756E+02 -0.14215034340E+03  0.19647341187E+03  0.12509301702E+03 0.  0.
         23    2    1    2    0    0  0.29690285072E+02 -0.43189182756E+02 -0.34461655101E+03  0.36247412256E+03  0.99398711061E+02 0.  0.
          5    1    3    3  502    0 -0.35249371647E+02 -0.14594146795E+02 -0.13190885387E+03  0.13737876638E+03  0.41800000000E+01 0. -1.
         -5    1    3    3    0  502  0.55590865751E+01  0.57783329552E+02 -0.10241489526E+02  0.59094645488E+02  0.41800000000E+01 0. -1.
        -11    1    4    4    0    0  0.11995316353E+02  0.12371159906E+02 -0.50770402270E+01  0.17964118384E+02  0.00000000000E+00 0.  1.
         11    1    4    4    0    0  0.17694968719E+02 -0.55560342663E+02 -0.33953951078E+03  0.34451000417E+03  0.00000000000E+00 0. -1.
</event>
<event>
 8    1  0.8619230E-006  0.1017047E+03  0.7561462E-02  0.1276752E+00
          4   -1    0    0  501    0  0.00000000000E+00  0.00000000000E+00  0.17921831229E+03  0.17921831229E+03  0.00000000000E+00 0. -1.
         -4   -1    0    0    0  501 -0.00000000000E+00 -0.00000000000E+00 -0.80373146943E+02  0.80373146943E+02  0.00000000000E+00 0.  1.
         23    2    1    2    0    0 -0.25768403981E+02  0.41751769747E+02  0.79737352616E+02  0.15624887501E+03  0.12509374332E+03 0.  0.
         23    2    1    2    0    0  0.25768403981E+02 -0.41751769747E+02  0.19107812727E+02  0.10334258422E+03  0.88923339374E+02 0.  0.
          5    1    3    3  502    0 -0.44614940848E+02 -0.13999730931E+02  0.84909383011E+02  0.97023508163E+02  0.41800000000E+01 0.  1.
         -5    1    3    3    0  502  0.18846536867E+02  0.55751500678E+02 -0.51720303943E+01  0.59225366846E+02  0.41800000000E+01 0.  1.
        -11    1    4    4    0    0 -0.31147088772E+02 -0.15291859423E+02  0.20982199140E+02  0.40549165027E+02  0.00000000000E+00 0.  1.
         11    1    4    4    0    0  0.56915492753E+02 -0.26459910323E+02 -0.18743864131E+01  0.62793419194E+02  0.00000000000E+00 0. -1.
</event>
<event>
 8    1  0.8619230E-006  0.1108312E+03  0.7561462E-02  0.1259038E+00
          3   -1    0    0  501    0  0.00000000000E+00  0.00000000000E+00  0.42109581883E+02  0.42109581883E+02  0.00000000000E+00 0.  1.
         -3   -1    0    0    0  501 -0.00000000000E+00 -0.00000000000E+00 -0.31035250773E+03  0.31035250773E+03  0.00000000000E+00 0. -1.
         23    2    1    2    0    0 -0.21512723377E+02  0.14097913760E+01 -0.19478797806E+03  0.23249568456E+03  0.12508837740E+03 0.  0.
         23    2    1    2    0    0  0.21512723377E+02 -0.14097913760E+01 -0.73454947781E+02  0.11996640505E+03  0.92366250379E+02 0.  0.
          5    1    3    3  502    0 -0.18103228328E+02  0.62675633374E+02 -0.96841307862E+02  0.11684037488E+03  0.41800000000E+01 0.  1.
         -5    1    3    3    0  502 -0.34094950495E+01 -0.61265841997E+02 -0.97946670202E+02  0.11565530967E+03  0.41800000000E+01 0.  1.
        -11    1    4    4    0    0  0.11768781357E+02 -0.46854788291E+02 -0.39583655382E+02  0.62455913841E+02  0.00000000000E+00 0.  1.
         11    1    4    4    0    0  0.97439420200E+01  0.45444996915E+02 -0.33871292399E+02  0.57510491212E+02  0.00000000000E+00 0. -1.
</event>
<event>
 8    1  0.8619230E-006  0.1185491E+03  0.7561462E-02  0.1245510E+00
          3   -1    0    0  501    0  0.00000000000E+00  0.00000000000E+00  0.37367486162E+02  0.37367486162E+02  0.00000000000E+00 0. -1.
         -3   -1    0    0    0  501 -0.00000000000E+00 -0.00000000000E+00 -0.38698607426E+03  0.38698607426E+03  0.00000000000E+00 0.  1.
         23    2    1    2    0    0 -0.28117795429E+02 -0.43317527563E+02 -0.21401985049E+03  0.25321748334E+03  0.12509028281E+03 0.  0.
         23    2    1    2    0    0  0.28117795429E+02  0.43317527563E+02 -0.13559873761E+03  0.17113607708E+03  0.90738749292E+02 0.  0.
          5    1    3    3  502    0 -0.42164158929E+02  0.33797104101E+02 -0.63702567895E+02  0.83639405188E+02  0.41800000000E+01 0. -1.
         -5    1    3    3    0  502  0.14046363500E+02 -0.77114631663E+02 -0.15031728260E+03  0.16957807816E+03  0.41800000000E+01 0. -1.
        -11    1    4    4    0    0  0.54101641340E+02  0.53880964946E+02 -0.99540178774E+02  0.12545275274E+03  0.00000000000E+00 0.  1.
         11    1    4    4    0    0 -0.25983845911E+02 -0.10563437383E+02 -0.36058558833E+02  0.45683324340E+02  0.00000000000E+00 0. -1.
</event>
<event>
 8    1  0.8619230E-006  0.1170719E+03  0.7561462E-02  0.1248007E+00
         -2   -1    0    0    0  501 -0.00000000000E+00  0.00000000000E+00  0.23841973226E+02  0.23841973226E+02  0.00000000000E+00 0.  1.
          2   -1    0    0  501    0  0.00000000000E+00 -0.00000000000E+00 -0.77838075797E+03  0.77838075797E+03  0.00000000000E+00 0. -1.
         23    2    1    2    0    0 -0.30610282690E+02 -0.46621168078E+02 -0.23749663002E+03  0.27418941116E+03  0.12515854427E+03 0.  0.
         23    2    1    2    0    0  0.30610282690E+02  0.46621168078E+02 -0.51704215472E+03  0.52803332003E+03  0.91520896973E+02 0.  0.
          5    1    3    3  502    0 -0.68840260568E+02 -0.54341659589E+02 -0.10971875591E+03  0.14052642186E+03  0.41800000000E+01 0. -1.
         -5    1    3    3    0  502  0.38229977878E+02  0.77204915111E+01 -0.12777787411E+03  0.13366298931E+03  0.41800000000E+01 0. -1.
        -11    1    4    4    0    0  0.12399959070E+01  0.69731544504E+02 -0.34501212976E+03  0.35199061858E+03  0.00000000000E+00 0.  1.
         11    1    4    4    0    0  0.29370286783E+02 -0.23110376426E+02 -0.17203002496E+03  0.17604270145E+03  0.00000000000E+00 0. -1.
</event>
<event>
 8    1  0.8619230E-006  0.8181440E+02  0.7561462E-02  0.1323980E+00
          3   -1    0    0  501    0  0.00000000000E+00  0.00000000000E+00  0.28033023427E+02  0.28033023427E+02  0.00000000000E+00 0. -1.
         -3   -1    0    0    0  501 -0.00000000000E+00 -0.00000000000E+00 -0.42859453484E+03  0.42859453484E+03  0.00000000000E+00 0.  1.
         23    2    1    2    0    0  0.28009786848E+01 -0.19327168183E+01 -0.25732878720E+03  0.28614282903E+03  0.12509209809E+03 0.  0.
         23    2    1    2    0    0 -0.28009786848E+01  0.19327168183E+01 -0.14323272421E+03  0.17048472923E+03  0.92400480209E+02 0.  0.
          5    1    3    3  502    0 -0.51067596702E+01  0.43608236055E+02 -0.22572427319E+03  0.22999277631E+03  0.41800000000E+01 0.  1.
         -5    1    3    3    0  502  0.79077383550E+01 -0.45540952873E+02 -0.31604514010E+02  0.56150052719E+02  0.41800000000E+01 0.  1.
        -11    1    4    4    0    0  0.25037107640E+02 -0.24279621812E+02 -0.17409944082E+02  0.38980289215E+02  0.00000000000E+00 0. -1.
         11    1    4    4    0    0 -0.27838086325E+02  0.26212338631E+02 -0.12582278012E+03  0.13150444002E+03  0.00000000000E+00 0.  1.
</event>
<event>
 8    1  0.3057008E-005  0.2005949E+03  0.7561462E-02  0.1149238E+00
          2   -1    0    0  501    0  0.00000000000E+00  0.00000000000E+00  0.37932536614E+03  0.37932536614E+03  0.00000000000E+00 0.  1.
         -2   -1    0    0    0  501 -0.00000000000E+00 -0.00000000000E+00 -0.13314234677E+03  0.13314234677E+03  0.00000000000E+00 0. -1.
         23    2    1    2    0    0  0.16262850833E+03  0.10235918410E+03  0.78396928039E+02  0.24231993790E+03  0.12508972654E+03 0.  0.
         23    2    1    2    0    0 -0.16262850833E+03 -0.10235918410E+03  0.16778609133E+03  0.27014777502E+03  0.88894395852E+02 0.  0.
          5    1    3    3  502    0  0.13151939360E+03  0.10316901152E+03  0.10527944492E+02  0.16753956502E+03  0.41800000000E+01 0.  1.
         -5    1    3    3    0  502  0.31109114729E+02 -0.80982742816E+00  0.67868983547E+02  0.74780372876E+02  0.41800000000E+01 0.  1.
        -11    1    4    4    0    0 -0.27732138158E+02 -0.51356866577E+02  0.15452505875E+02  0.60376975489E+02  0.00000000000E+00 0. -1.
         11    1    4    4    0    0 -0.13489637017E+03 -0.51002317519E+02  0.15233358546E+03  0.20977079953E+03  0.00000000000E+00 0.  1.
</event>
<event>
 8    1  0.8619230E-006  0.1253682E+03  0.7561462E-02  0.1234495E+00
          2   -1    0    0  501    0  0.00000000000E+00  0.00000000000E+00  0.90249628462E+03  0.90249628462E+03  0.00000000000E+00 0. -1.
         -2   -1    0    0    0  501 -0.00000000000E+00 -0.00000000000E+00 -0.18915741637E+02  0.18915741637E+02  0.00000000000E+00 0.  1.
         23    2    1    2    0    0  0.23203057020E+02  0.69939582055E+02  0.47840853177E+03  0.49995283380E+03  0.12509270864E+03 0.  0.
         23    2    1    2    0    0 -0.23203057020E+02 -0.69939582055E+02  0.40517201121E+03  0.42145919246E+03  0.89630158143E+02 0.  0.
          5    1    3    3  502    0  0.65919718837E+02  0.39821519990E+01  0.23509754103E+03  0.24423266175E+03  0.41800000000E+01 0.  1.
         -5    1    3    3    0  502 -0.42716661818E+02  0.65957430056E+02  0.24331099074E+03  0.25572017205E+03  0.41800000000E+01 0.  1.
        -11    1    4    4    0    0  0.22407879463E+02 -0.52425377139E+02  0.12955433287E+03  0.14154454562E+03  0.00000000000E+00 0.  1.
         11    1    4    4    0    0 -0.45610936483E+02 -0.17514204915E+02  0.27561767834E+03  0.27991464684E+03  0.00000000000E+00 0. -1.
</event>
<event>
 8    1  0.8619230E-006  0.3881791E+03  0.7561462E-02  0.1047951E+00
          2   -1    0    0  501    0  0.00000000000E+00  0.00000000000E+00  0.13233599135E+04  0.13233599135E+04  0.00000000000E+00 0. -1.
         -2   -1    0    0    0  501 -0.00000000000E+00 -0.00000000000E+00 -0.12617433783E+03  0.12617433783E+03  0.00000000000E+00 0.  1.
         23    2    1    2    0    0  0.37180530168E+03 -0.85653691991E+02  0.43139620945E+03  0.58934610077E+03  0.12510155739E+03 0.  0.
         23    2    1    2    0    0 -0.37180530168E+03  0.85653691991E+02  0.76578936622E+03  0.86018815056E+03  0.88963833281E+02 0.  0.
          5    1    3    3  502    0  0.30057760063E+03 -0.87930629039E+02  0.40772763037E+03  0.51413809671E+03  0.41800000000E+01 0. -1.
         -5    1    3    3    0  502  0.71227701048E+02  0.22769370479E+01  0.23668579077E+02  0.75208004058E+02  0.41800000000E+01 0. -1.
        -11    1    4    4    0    0 -0.32470524382E+03  0.41747789742E+02  0.64216703435E+03  0.72080154919E+03  0.00000000000E+00 0. -1.
         11    1    4    4    0    0 -0.47100057861E+02  0.43905902249E+02  0.12362233187E+03  0.13938660136E+03  0.00000000000E+00 0.  1.
</event>
<event>
 8    1  0.8619230E-006  0.1010769E+03  0.7561462E-02  0.1278047E+00
          2   -1    0    0  501    0  0.00000000000E+00  0.00000000000E+00  0.29972292918E+03  0.29972292918E+03  0.00000000000E+00 0. -1.
         -2   -1    0    0    0  501 -0.00000000000E+00 -0.00000000000E+00 -0.51422702086E+02  0.51422702086E+02  0.00000000000E+00 0.  1.
         23    2    1    2    0    0 -0.20476909674E+02  0.14082664241E+02  0.54417133936E+02  0.13865513454E+03  0.12508555715E+03 0.  0.
         23    2    1    2    0    0  0.20476909674E+02 -0.14082664241E+02  0.19388309316E+03  0.21249049672E+03  0.83330259343E+02 0.  0.
          5    1    3    3  502    0  0.38763279308E+02  0.35993175713E+02 -0.30643397495E+01  0.53150381924E+02  0.41800000000E+01 0. -1.
         -5    1    3    3    0  502 -0.59240188982E+02 -0.21910511472E+02  0.57481473686E+02  0.85504752620E+02  0.41800000000E+01 0. -1.
        -11    1    4    4    0    0 -0.30749888990E+02 -0.15726981216E+02  0.61542072016E+02  0.70571383996E+02  0.00000000000E+00 0.  1.
         11    1    4    4    0    0  0.51226798664E+02  0.16443169751E+01  0.13234102114E+03  0.14191911272E+03  0.00000000000E+00 0. -1.
</event>
<event>
 7    1  0.8619230E-006  0.1478969E+03  0.7561462E-02  0.1203081E+00
         -2   -1    0    0    0  501 -0.00000000000E+00  0.00000000000E+00  0.10241906913E+03  0.10241906913E+03  0.00000000000E+00 0.  1.
          2   -1    0    0  501    0  0.00000000000E+00 -0.00000000000E+00 -0.35737076315E+03  0.35737076315E+03  0.00000000000E+00 0. -1.
         23    2    1    2    0    0  0.10849112358E+03 -0.91811433651E+02 -0.16035846617E+03  0.23180812645E+03  0.88433628053E+02 0.  0.
          5    1    1    2  502    0 -0.75742133335E+02  0.33474845288E+02 -0.12844932102E+03  0.15288602454E+03  0.41800000000E+01 0. -1.
         -5    1    1    2    0  502 -0.32748990246E+02  0.58336588363E+02  0.33856093174E+02  0.75095681293E+02  0.41800000000E+01 0.  1.
        -11    1    3    3    0    0  0.97044784964E+02 -0.92908459732E+02 -0.17008633130E+03  0.21674647004E+03  0.00000000000E+00 0.  1.
         11    1    3    3    0    0  0.11446338617E+02  0.10970260808E+01  0.97278651283E+01  0.15061656413E+02  0.00000000000E+00 0. -1.
</event>
<event>
 8    1  0.8619230E-006  0.1130738E+03  0.7561462E-02  0.1254981E+00
          2   -1    0    0  501    0  0.00000000000E+00  0.00000000000E+00  0.77209151822E+03  0.77209151822E+03  0.00000000000E+00 0. -1.
         -2   -1    0    0    0  501 -0.00000000000E+00 -0.00000000000E+00 -0.18865062517E+02  0.18865062517E+02  0.00000000000E+00 0.  1.
         23    2    1    2    0    0 -0.27318038458E+02  0.50938298807E+02  0.42474284421E+03  0.44653719509E+03  0.12509195570E+03 0.  0.
         23    2    1    2    0    0  0.27318038458E+02 -0.50938298807E+02  0.32848361150E+03  0.34441938565E+03  0.85919989988E+02 0.  0.
          5    1    3    3  502    0  0.42893924895E+02  0.28592351054E+02  0.90428163753E+02  0.10417358845E+03  0.41800000000E+01 0. -1.
         -5    1    3    3    0  502 -0.70211963353E+02  0.22345947753E+02  0.33431468046E+03  0.34236360664E+03  0.41800000000E+01 0. -1.
        -11    1    4    4    0    0 -0.43461220118E+01 -0.65592967451E+02  0.17298519655E+03  0.18505459837E+03  0.00000000000E+00 0.  1.
         11    1    4    4    0    0  0.31664160470E+02  0.14654668644E+02  0.15549841495E+03  0.15936478728E+03  0.00000000000E+00 0. -1.
</event>
<event>
 8    1  0.8619230E-006  0.1831784E+03  0.7561462E-02  0.1164762E+00
          1   -1    0    0  501    0  0.00000000000E+00  0.00000000000E+00  0.10741845984E+03  0.10741845984E+03  0.00000000000E+00 0. -1.
         -1   -1    0    0    0  501 -0.00000000000E+00 -0.00000000000E+00 -0.38939677053E+03  0.38939677053E+03  0.00000000000E+00 0.  1.
         23    2    1    2    0    0  0.17176720539E+03 -0.31240299907E+01 -0.13018282285E+03  0.24921510770E+03  0.12508744993E+03 0.  0.
         23    2    1    2    0    0 -0.17176720539E+03  0.31240299907E+01 -0.15179548784E+03  0.24760012267E+03  0.93542601031E+02 0.  0.
          5    1    3    3  502    0  0.31863307024E+02  0.30737319891E+02  0.12808736574E+02  0.46277308708E+02  0.41800000000E+01 0.  1.
         -5    1    3    3    0  502  0.13990389836E+03 -0.33861349882E+02 -0.14299155942E+03  0.20293779899E+03  0.41800000000E+01 0.  1.
        -11    1    4    4    0    0 -0.79897237949E+02 -0.21559915198E+02 -0.20135608976E+02  0.85169485874E+02  0.00000000000E+00 0. -1.
         11    1    4    4    0    0 -0.91869967437E+02  0.24683945189E+02 -0.13165987887E+03  0.16243063680E+03  0.00000000000E+00 0.  1.
</event>
<event>
 8    1  0.8619230E-006  0.7828090E+02  0.7561462E-02  0.1334002E+00
          2   -1    0    0  501    0  0.00000000000E+00  0.00000000000E+00  0.21260147827E+02  0.21260147827E+02  0.00000000000E+00 0. -1.
         -2   -1    0    0    0  501 -0.00000000000E+00 -0.00000000000E+00 -0.75531362832E+03  0.75531362832E+03  0.00000000000E+00 0.  1.
         23    2    1    2    0    0  0.19230956713E+02 -0.18725155806E+02 -0.56934544033E+03  0.58354191360E+03  0.12508586387E+03 0.  0.
         23    2    1    2    0    0 -0.19230956713E+02  0.18725155806E+02 -0.16470804016E+03  0.19303186255E+03  0.97015979663E+02 0.  0.
          5    1    3    3  502    0 -0.83094418845E+01 -0.46631017142E+02 -0.51048868820E+03  0.51269842184E+03  0.41800000000E+01 0.  1.
         -5    1    3    3    0  502  0.27540398597E+02  0.27905861335E+02 -0.58856752136E+02  0.70843491753E+02  0.41800000000E+01 0.  1.
        -11    1    4    4    0    0 -0.15821511714E+02  0.42611644672E+02 -0.16257444114E+03  0.16880912715E+03  0.00000000000E+00 0.  1.
         11    1    4    4    0    0 -0.34094449984E+01 -0.23886488866E+02 -0.21335990128E+01  0.24222735400E+02  0.00000000000E+00 0. -1.
</event>
<event>
 8    1  0.8619230E-006  0.1339934E+03  0.7561462E-02  0.1221648E+00
          2   -1    0    0  501    0  0.00000000000E+00  0.00000000000E+00  0.24242290629E+03  0.24242290629E+03  0.00000000000E+00 0. -1.
         -2   -1    0    0    0  501 -0.00000000000E+00 -0.00000000000E+00 -0.87671814480E+02  0.87671814480E+02  0.00000000000E+00 0.  1.
         23    2    1    2    0    0  0.87383713029E+02 -0.39107938561E+02  0.76320024215E+02  0.17503571086E+03  0.12508960716E+03 0.  0.
         23    2    1    2    0    0 -0.87383713029E+02  0.39107938561E+02  0.78431067590E+02  0.15505900990E+03  0.93415844629E+02 0.  0.
          5    1    3    3  502    0  0.79261984275E+02  0.15425907156E+02  0.82229091518E-01  0.80857281209E+02  0.41800000000E+01 0. -1.
         -5    1    3    3    0  502  0.81217287541E+01 -0.54533845716E+02  0.76237795124E+02  0.94178429653E+02  0.41800000000E+01 0. -1.
        -11    1    4    4    0    0 -0.44427916294E+02  0.67164787275E+02  0.60447231886E+02  0.10069168902E+03  0.00000000000E+00 0. -1.
         11    1    4    4    0    0 -0.42955796736E+02 -0.28056848715E+02  0.17983835704E+02  0.54367320880E+02  0.00000000000E+00 0.  1.
</event>
<event>
 8    1  0.8619230E-006  0.1093611E+03  0.7561462E-02  0.1261758E+00
         -2   -1    0    0    0  501 -0.00000000000E+00  0.00000000000E+00  0.67875274901E+02  0.67875274901E+02  0.00000000000E+00 0.  1.
          2   -1    0    0  501    0  0.00000000000E+00 -0.00000000000E+00 -0.20874845524E+03  0.20874845524E+03  0.00000000000E+00 0. -1.
         23    2    1    2    0    0  0.52993307131E+01 -0.34965085662E+02 -0.40375430412E+02  0.13611093999E+03  0.12508146338E+03 0.  0.
         23    2    1    2    0    0 -0.52993307131E+01  0.34965085662E+02 -0.10049774992E+03  0.14051279015E+03  0.91615535444E+02 0.  0.
          5    1    3    3  502    0  0.46932730495E+02  0.20847965861E+02 -0.41788499463E+02  0.66340560441E+02  0.41800000000E+01 0. -1.
         -5    1    3    3    0  502 -0.41633399782E+02 -0.55813051523E+02  0.14130690516E+01  0.69770379545E+02  0.41800000000E+01 0. -1.
        -11    1    4    4    0    0  0.41422071632E+02  0.28488925967E+02 -0.60560046296E+02  0.78707853029E+02  0.00000000000E+00 0.  1.
         11    1    4    4    0    0 -0.46721402345E+02  0.64761596950E+01 -0.39937703627E+02  0.61804937121E+02  0.00000000000E+00 0. -1.
</event>
<event>
 7    1  0.8619230E-006  0.1996366E+03  0.7561462E-02  0.1150046E+00
          1   -1    0    0  501    0  0.00000000000E+00  0.00000000000E+00  0.26205741658E+03  0.26205741658E+03  0.00000000000E+00 0. -1.
         -1   -1    0    0    0  501 -0.00000000000E+00 -0.00000000000E+00 -0.31052966428E+03  0.31052966428E+03  0.00000000000E+00 0.  1.
         23    2    1    2    0    0  0.51268825205E+02 -0.76492520020E+02  0.10124515982E+03  0.16409835939E+03  0.90543310690E+02 0.  0.
          5    1    1    2  502    0  0.10737072160E+03 -0.34674553274E+02  0.55878564438E+02  0.12597889849E+03  0.41800000000E+01 0. -1.
         -5    1    1    2    0  502 -0.15863954680E+03  0.11116707329E+03 -0.20559597196E+03  0.28250982298E+03  0.41800000000E+01 0.  1.
        -11    1    3    3    0    0  0.34193442910E+02 -0.58795293582E+02  0.11668525230E+03  0.13506119424E+03  0.00000000000E+00 0. -1.
         11    1    3    3    0    0  0.17075382296E+02 -0.17697226438E+02 -0.15440092479E+02  0.29037165149E+02  0.00000000000E+00 0.  1.
</event>
<event>
 8    1  0.8619230E-006  0.1242557E+03  0.7561462E-02  0.1236237E+00
          1   -1    0    0  501    0  0.00000000000E+00  0.00000000000E+00  0.10178327302E+03  0.10178327302E+03  0.00000000000E+00 0. -1.
         -1   -1    0    0    0  501 -0.00000000000E+00 -0.00000000000E+00 -0.20754351522E+03  0.20754351522E+03  0.00000000000E+00 0.  1.
         23    2    1    2    0    0 -0.29590822542E+02 -0.91330473210E+02 -0.71103374245E+02  0.17297449781E+03  0.12509042709E+03 0.  0.
         23    2    1    2    0    0  0.29590822542E+02  0.91330473210E+02 -0.34656867962E+02  0.13635229043E+03  0.90410046411E+02 0.  0.
          5    1    3    3  502    0 -0.67587582753E+02 -0.88887368291E+02 -0.74838091114E+02  0.13448887636E+03  0.41800000000E+01 0.  1.
         -5    1    3    3    0  502  0.37996760211E+02 -0.24431049195E+01  0.37347168694E+01  0.38485621449E+02  0.41800000000E+01 0.  1.
        -11    1    4    4    0    0  0.23332949263E+02  0.36784929624E+02  0.28968075668E+02  0.52313544868E+02  0.00000000000E+00 0. -1.
         11    1    4    4    0    0  0.62578732793E+01  0.54545543586E+02 -0.63624943630E+02  0.84038745558E+02  0.00000000000E+00 0.  1.
</event>
<event>
 8    1  0.8619230E-006  0.1205847E+03  0.7561462E-02  0.1242136E+00
          1   -1    0    0  501    0  0.00000000000E+00  0.00000000000E+00  0.20084136559E+03  0.20084136559E+03  0.00000000000E+00 0. -1.
         -1   -1    0    0    0  501 -0.00000000000E+00 -0.00000000000E+00 -0.73673846394E+02  0.73673846394E+02  0.00000000000E+00 0.  1.
         23    2    1    2    0    0  0.21313292532E+02 -0.59204698336E+02  0.52047714087E+02  0.14129711962E+03  0.11531027156E+03 0.  0.
         23    2    1    2    0    0 -0.21313292532E+02  0.59204698336E+02  0.75119805105E+02  0.13321809236E+03  0.90247561013E+02 0.  0.
          5    1    3    3  502    0 -0.47067293917E+02 -0.14630176848E+02  0.23052890519E+02  0.54573623597E+02  0.41800000000E+01 0. -1.
         -5    1    3    3    0  502  0.68380586449E+02 -0.44574521488E+02  0.28994823569E+02  0.86723496025E+02  0.41800000000E+01 0.  1.
        -11    1    4    4    0    0  0.11115307526E+02  0.73640339429E+02  0.49030408185E+02  0.89165187037E+02  0.00000000000E+00 0.  1.
         11    1    4    4    0    0 -0.32428600058E+02 -0.14435641093E+02  0.26089396920E+02  0.44052905320E+02  0.00000000000E+00 0. -1.
</event>
<event>
 8    1  0.8619230E-006  0.1815934E+03  0.7561462E-02  0.1166270E+00
         -2   -1    0    0    0  501 -0.00000000000E+00  0.00000000000E+00  0.24387815515E+03  0.24387815515E+03  0.00000000000E+00 0.  1.
          2   -1    0    0  501    0  0.00000000000E+00 -0.00000000000E+00 -0.15924027219E+03  0.15924027219E+03  0.00000000000E+00 0. -1.
         23    2    1    2    0    0  0.50906066574E+02 -0.14142888991E+03  0.10784516463E+03  0.22331736060E+03  0.12508599240E+03 0.  0.
         23    2    1    2    0    0 -0.50906066574E+02  0.14142888991E+03 -0.23207281664E+02  0.17980106675E+03  0.95897274020E+02 0.  0.
          5    1    3    3  502    0  0.14558203972E+02 -0.14737741222E+03  0.53465656240E+02  0.15750584667E+03  0.41800000000E+01 0.  1.
         -5    1    3    3    0  502  0.36347862602E+02  0.59485223092E+01  0.54379508389E+02  0.65811513932E+02  0.41800000000E+01 0.  1.
        -11    1    4    4    0    0 -0.28453276462E+01  0.12804383422E+03 -0.11755648077E+02  0.12861381976E+03  0.00000000000E+00 0.  1.
         11    1    4    4    0    0 -0.48060738928E+02  0.13385055692E+02 -0.11451633587E+02  0.51187246986E+02  0.00000000000E+00 0. -1.
</event>
<event>
 8    1  0.8619230E-006  0.1012482E+03  0.7561462E-02  0.1277693E+00
          4   -1    0    0  501    0  0.00000000000E+00  0.00000000000E+00  0.49918571526E+03  0.49918571526E+03  0.00000000000E+00 0. -1.
         -4   -1    0    0    0  501 -0.00000000000E+00 -0.00000000000E+00 -0.25823908924E+02  0.25823908924E+02  0.00000000000E+00 0.  1.
         23    2    1    2    0    0 -0.15114721760E+00 -0.16744032385E+02  0.20367546974E+03  0.23960396515E+03  0.12508388255E+03 0.  0.
         23    2    1    2    0    0  0.15114721760E+00  0.16744032385E+02  0.26968633659E+03  0.28540565903E+03  0.91898229572E+02 0.  0.
          5    1    3    3  502    0 -0.49946291212E+02 -0.29760363386E+02  0.47753165510E+02  0.75353489972E+02  0.41800000000E+01 0.  1.
         -5    1    3    3    0  502  0.49795143995E+02  0.13016331001E+02  0.15592230423E+03  0.16425047518E+03  0.41800000000E+01 0.  1.
        -11    1    4    4    0    0  0.19716848606E+02 -0.33375841848E+02  0.13220984725E+03  0.13777570412E+03  0.00000000000E+00 0. -1.
         11    1    4    4    0    0 -0.19565701389E+02  0.50119874233E+02  0.13747648934E+03  0.14762995491E+03  0.00000000000E+00 0.  1.
</event>
<event>
 8    1  0.8619230E-006  0.7940644E+02  0.7561462E-02  0.1330744E+00
          2   -1    0    0  501    0  0.00000000000E+00  0.00000000000E+00  0.97258474536E+02  0.97258474536E+02  0.00000000000E+00 0. -1.
         -2   -1    0    0    0  501 -0.00000000000E+00 -0.00000000000E+00 -0.15957716319E+03  0.15957716319E+03  0.00000000000E+00 0.  1.
         23    2    1    2    0    0  0.13751961914E+02  0.34172296139E+02 -0.84829654905E+02  0.15558130633E+03  0.12511039225E+03 0.  0.
         23    2    1    2    0    0 -0.13751961914E+02 -0.34172296139E+02  0.22510966247E+02  0.10125433140E+03  0.91590576730E+02 0.  0.
          5    1    3    3  502    0 -0.55541580616E+01 -0.21313400208E+02  0.23373781323E+02  0.32386968885E+02  0.41800000000E+01 0.  1.
         -5    1    3    3    0  502  0.19306119975E+02  0.55485696347E+02 -0.10820343623E+03  0.12319433745E+03  0.41800000000E+01 0.  1.
        -11    1    4    4    0    0 -0.39276590284E+02 -0.34036624228E+02 -0.16592928037E+02  0.54557012327E+02  0.00000000000E+00 0.  1.
         11    1    4    4    0    0  0.25524628370E+02 -0.13567191070E+00  0.39103894284E+02  0.46697319072E+02  0.00000000000E+00 0. -1.
</event>
<event>
 8    1  0.8619230E-006  0.9572519E+02  0.7561462E-02  0.1289551E+00
         -1   -1    0    0    0  501 -0.00000000000E+00  0.00000000000E+00  0.19072110175E+02  0.19072110175E+02  0.00000000000E+00 0.  1.
          1   -1    0    0  501    0  0.00000000000E+00 -0.00000000000E+00 -0.92683540318E+03  0.92683540318E+03  0.00000000000E+00 0. -1.
         23    2    1    2    0    0  0.70872844787E+02 -0.27225167305E+02 -0.46010732237E+03  0.48281524176E+03  0.12509052607E+03 0.  0.
         23    2    1    2    0    0 -0.70872844787E+02  0.27225167305E+02 -0.44765597063E+03  0.46309227159E+03  0.91073674047E+02 0.  0.
          5    1    3    3  502    0  0.29395709883E+02 -0.10529400494E+02 -0.42406566395E+03  0.42523421284E+03  0.41800000000E+01 0. -1.
         -5    1    3    3    0  502  0.41477134904E+02 -0.16695766811E+02 -0.36041658428E+02  0.57581028920E+02  0.41800000000E+01 0. -1.
        -11    1    4    4    0    0 -0.58997110468E+02 -0.23081521820E+02 -0.30097887939E+03  0.30757389605E+03  0.00000000000E+00 0.  1.
         11    1    4    4    0    0 -0.11875734319E+02  0.50306689125E+02 -0.14667709124E+03  0.15551837554E+03  0.00000000000E+00 0. -1.
</event>
<event>
 8    1  0.8619230E-006  0.1101504E+03  0.7561462E-02  0.1260292E+00
         -1   -1    0    0    0  501 -0.00000000000E+00  0.00000000000E+00  0.48790530274E+03  0.48790530274E+03  0.00000000000E+00 0.  1.
          1   -1    0    0  501    0  0.00000000000E+00 -0.00000000000E+00 -0.21585247042E+03  0.21585247042E+03  0.00000000000E+00 0. -1.
         23    2    1    2    0    0  0.35099064490E+02 -0.13708516280E+02  0.46204844089E+03  0.48019387703E+03  0.12520994394E+03 0.  0.
         23    2    1    2    0    0 -0.35099064490E+02  0.13708516280E+02 -0.18999560857E+03  0.22356389612E+03  0.11163609017E+03 0.  0.
          5    1    3    3  502    0 -0.43028180545E+02  0.17014083647E+02  0.17875929798E+03  0.18469775954E+03  0.41800000000E+01 0. -1.
         -5    1    3    3    0  502  0.78127245036E+02 -0.30722599927E+02  0.28328914291E+03  0.29549611750E+03  0.41800000000E+01 0.  1.
        -11    1    4    4    0    0 -0.11621659665E+02 -0.34370786864E+02 -0.12812317288E+02  0.38478168320E+02  0.00000000000E+00 0.  1.
         11    1    4    4    0    0 -0.23477404825E+02  0.48079303144E+02 -0.17718329128E+03  0.18508572780E+03  0.00000000000E+00 0. -1.
</event>
<event>
 8    1  0.8619230E-006  0.2373629E+03  0.7561462E-02  0.1121562E+00
         -1   -1    0    0    0  501 -0.00000000000E+00  0.00000000000E+00  0.10394335710E+03  0.10394335710E+03  0.00000000000E+00 0.  1.
          1   -1    0    0  501    0  0.00000000000E+00 -0.00000000000E+00 -0.64344410648E+03  0.64344410648E+03  0.00000000000E+00 0. -1.
         23    2    1    2    0    0  0.23446951656E+03 -0.59948516167E+01 -0.27517334737E+03  0.38259653881E+03  0.12509135846E+03 0.  0.
         23    2    1    2    0    0 -0.23446951656E+03  0.59948516167E+01 -0.26432740200E+03  0.36479092477E+03  0.90507187038E+02 0.  0.
          5    1    3    3  502    0  0.49891436494E+02 -0.15775310497E+02 -0.15104976173E+03  0.15991097141E+03  0.41800000000E+01 0. -1.
         -5    1    3    3    0  502  0.18457808007E+03  0.97804588802E+01 -0.12412358564E+03  0.22268556740E+03  0.41800000000E+01 0. -1.
        -11    1    4    4    0    0 -0.73692209086E+02  0.18829942449E+02 -0.14643244157E+03  0.16500778271E+03  0.00000000000E+00 0. -1.
         11    1    4    4    0    0 -0.16077730747E+03 -0.12835090832E+02 -0.11789496044E+03  0.19978314206E+03  0.00000000000E+00 0.  1.
</event>
<event>
 8    1  0.8619230E-006  0.1008529E+03  0.7561462E-02  0.1278513E+00
         -2   -1    0    0    0  501 -0.00000000000E+00  0.00000000000E+00  0.24018803192E+02  0.24018803192E+02  0.00000000000E+00 0.  1.
          2   -1    0    0  501    0  0.00000000000E+00 -0.00000000000E+00 -0.59050570102E+03  0.59050570102E+03  0.00000000000E+00 0. -1.
         23    2    1    2    0    0 -0.47868726079E+02  0.76152604332E+01 -0.29783339717E+03  0.32665264397E+03  0.12509120757E+03 0.  0.
         23    2    1    2    0    0  0.47868726079E+02 -0.76152604332E+01 -0.26865350066E+03  0.28787186025E+03  0.91356977722E+02 0.  0.
          5    1    3    3  502    0 -0.89602989839E+02 -0.41702846753E+01 -0.18332839068E+03  0.20413931099E+03  0.41800000000E+01 0. -1.
         -5    1    3    3    0  502  0.41734263759E+02  0.11785545109E+02 -0.11450500649E+03  0.12251333298E+03  0.41800000000E+01 0. -1.
        -11    1    4    4    0    0 -0.49206585855E+01 -0.14306717422E+02 -0.12005490679E+01  0.15176836376E+02  0.00000000000E+00 0.  1.
         11    1    4    4    0    0  0.52789384665E+02  0.66914569891E+01 -0.26745295159E+03  0.27269502387E+03  0.00000000000E+00 0. -1.
</event>
<event>
 7    1  0.8619230E-006  0.1904614E+03  0.7561462E-02  0.1158046E+00
         -1   -1    0    0    0  501 -0.00000000000E+00  0.00000000000E+00  0.13215155147E+03  0.13215155147E+03  0.00000000000E+00 0.  1.
          1   -1    0    0  501    0  0.00000000000E+00 -0.00000000000E+00 -0.30633071467E+03  0.30633071467E+03  0.00000000000E+00 0. -1.
         23    2    1    2    0    0  0.29059593610E+01 -0.28978862317E+02 -0.67073969040E+02  0.11714458299E+03  0.91518943070E+02 0.  0.
          5    1    1    2  502    0  0.12078927119E+03 -0.73824163024E+02 -0.41460098684E+02  0.14756851718E+03  0.41800000000E+01 0. -1.
         -5    1    1    2    0  502 -0.12369523055E+03  0.10280302534E+03 -0.65645095478E+02  0.17376916597E+03  0.41800000000E+01 0.  1.
        -11    1    3    3    0    0 -0.32460006593E+02 -0.28250919799E+02 -0.69439444524E+02  0.81692122958E+02  0.00000000000E+00 0. -1.
         11    1    3    3    0    0  0.35365965954E+02 -0.72794251844E+00  0.23654754842E+01  0.35452460034E+02  0.00000000000E+00 0.  1.
</event>
<event>
 8    1  0.8619230E-006  0.1190208E+03  0.7561462E-02  0.1244721E+00
         -2   -1    0    0    0  501 -0.00000000000E+00  0.00000000000E+00  0.12775946651E+03  0.12775946651E+03  0.00000000000E+00 0. -1.
          2   -1    0    0  501    0  0.00000000000E+00 -0.00000000000E+00 -0.13286654589E+03  0.13286654589E+03  0.00000000000E+00 0.  1.
         23    2    1    2    0    0  0.13247158501E+02  0.62972577938E+02  0.33021065669E+02  0.14449856033E+03  0.12509360647E+03 0.  0.
         23    2    1    2    0    0 -0.13247158501E+02 -0.62972577938E+02 -0.38128145057E+02  0.11612745207E+03  0.88830157590E+02 0.  0.
          5    1    3    3  502    0 -0.36282263582E+02  0.80152299641E+02  0.21151922252E+02  0.90585153327E+02  0.41800000000E+01 0. -1.
         -5    1    3    3    0  502  0.49529422083E+02 -0.17179721703E+02  0.11869143417E+02  0.53913407007E+02  0.41800000000E+01 0. -1.
        -11    1    4    4    0    0 -0.25540881694E+02  0.68739636256E+01 -0.36642894337E+02  0.45191699670E+02  0.00000000000E+00 0.  1.
         11    1    4    4    0    0  0.12293723194E+02 -0.69846541564E+02 -0.14852507200E+01  0.70935752397E+02  0.00000000000E+00 0. -1.
</event>
<event>
 8    1  0.8619230E-006  0.1842349E+03  0.7561462E-02  0.1163766E+00
          2   -1    0    0  501    0  0.00000000000E+00  0.00000000000E+00  0.88263643789E+03  0.88263643789E+03  0.00000000000E+00 0.  1.
         -2   -1    0    0    0  501 -0.00000000000E+00 -0.00000000000E+00 -0.61962279727E+02  0.61962279727E+02  0.00000000000E+00 0. -1.
         23    2    1    2    0    0  0.73789506724E+02 -0.16146604888E+03  0.20703013033E+03  0.30003531212E+03  0.12507412766E+03 0.  0.
         23    2    1    2    0    0 -0.73789506724E+02  0.16146604888E+03  0.61364402783E+03  0.64456340549E+03  0.85946579733E+02 0.  0.
          5    1    3    3  502    0  0.74592492818E+01 -0.99583308103E+02  0.17896919745E+03  0.20498761350E+03  0.41800000000E+01 0. -1.
         -5    1    3    3    0  502  0.66330257443E+02 -0.61882740776E+02  0.28060932877E+02  0.95047698617E+02  0.41800000000E+01 0. -1.
        -11    1    4    4    0    0 -0.19608799256E+02  0.51847453971E+02  0.81586777961E+02  0.98636027037E+02  0.00000000000E+00 0. -1.
         11    1    4    4    0    0 -0.54180707469E+02  0.10961859491E+03  0.53205724987E+03  0.54592737846E+03  0.00000000000E+00 0.  1.
</event>
<event>
 7    1  0.8619230E-006  0.1988475E+03  0.7561462E-02  0.1150715E+00
         -1   -1    0    0    0  501 -0.00000000000E+00  0.00000000000E+00  0.41108589435E+03  0.41108589435E+03  0.00000000000E+00 0.  1.
          1   -1    0    0  501    0  0.00000000000E+00 -0.00000000000E+00 -0.11026021971E+03  0.11026021971E+03  0.00000000000E+00 0. -1.
         23    2    1    2    0    0  0.34238739248E+02 -0.59745784066E+02  0.44214156729E+02  0.12280614080E+03  0.91567497417E+02 0.  0.
          5    1    1    2  502    0 -0.61424286205E+01 -0.11104130254E+03  0.33678798928E+02  0.11627396181E+03  0.41800000000E+01 0. -1.
         -5    1    1    2    0  502 -0.28096310628E+02  0.17078708660E+03  0.22293271899E+03  0.28226601144E+03  0.41800000000E+01 0.  1.
        -11    1    3    3    0    0  0.95242794101E+01 -0.80461935505E+02  0.39753527626E+02  0.90250639456E+02  0.00000000000E+00 0. -1.
         11    1    3    3    0    0  0.24714459838E+02  0.20716151439E+02  0.44606291022E+01  0.32555501340E+02  0.00000000000E+00 0.  1.
</event>
<event>
 7    1  0.8619230E-006  0.9207453E+02  0.7561462E-02  0.1297904E+00
         -1   -1    0    0    0  501 -0.00000000000E+00  0.00000000000E+00  0.39872787202E+03  0.39872787202E+03  0.00000000000E+00 0.  1.
          1   -1    0    0  501    0  0.00000000000E+00 -0.00000000000E+00 -0.96366156464E+02  0.96366156464E+02  0.00000000000E+00 0. -1.
         23    2    1    2    0    0 -0.46591937563E+02  0.19443486640E+02 -0.51093606108E+02  0.11526994873E+03  0.90154016414E+02 0.  0.
          5    1    1    2  502    0  0.41714898769E+02 -0.46640005906E+02  0.66110079112E+02  0.91123201713E+02  0.41800000000E+01 0. -1.
         -5    1    1    2    0  502  0.48770387945E+01  0.27196519266E+02  0.28734524255E+03  0.28870087805E+03  0.41800000000E+01 0.  1.
        -11    1    3    3    0    0 -0.57008394573E+02  0.40547022682E+02 -0.57857737807E+02  0.90782905463E+02  0.00000000000E+00 0. -1.
         11    1    3    3    0    0  0.10416457010E+02 -0.21103536042E+02  0.67641316991E+01  0.24487043263E+02  0.00000000000E+00 0.  1.
</event>
<event>
 8    1  0.8619230E-006  0.1350777E+03  0.7561462E-02  0.1220110E+00
         -2   -1    0    0    0  501 -0.00000000000E+00  0.00000000000E+00  0.39701813906E+02  0.39701813906E+02  0.00000000000E+00 0.  1.
          2   -1    0    0  501    0  0.00000000000E+00 -0.00000000000E+00 -0.58369373427E+03  0.58369373427E+03  0.00000000000E+00 0. -1.
         23    2    1    2    0    0 -0.89138349325E+02  0.56984641637E+00 -0.17193430788E+03  0.23055314097E+03  0.12508946613E+03 0.  0.
         23    2    1    2    0    0  0.89138349325E+02 -0.56984641637E+00 -0.37205761248E+03  0.39284240721E+03  0.89175780633E+02 0.  0.
          5    1    3    3  502    0 -0.11738880268E+03  0.19708835294E+02 -0.12958436809E+03  0.17600610796E+03  0.41800000000E+01 0. -1.
         -5    1    3    3    0  502  0.28250453357E+02 -0.19138988878E+02 -0.42349939788E+02  0.54547033010E+02  0.41800000000E+01 0. -1.
        -11    1    4    4    0    0  0.51320526531E+02  0.37075087873E+02 -0.12536550615E+03  0.14044525167E+03  0.00000000000E+00 0.  1.
         11    1    4    4    0    0  0.37817822793E+02 -0.37644934289E+02 -0.24669210633E+03  0.25239715554E+03  0.00000000000E+00 0. -1.
</event>
<event>
 8    1  0.8619230E-006  0.8803458E+02  0.7561462E-02  0.1307682E+00
          1   -1    0    0  501    0  0.00000000000E+00  0.00000000000E+00  0.59160777384E+02  0.59160777384E+02  0.00000000000E+00 0. -1.
         -1   -1    0    0    0  501 -0.00000000000E+00 -0.00000000000E+00 -0.24657839171E+03  0.24657839171E+03  0.00000000000E+00 0.  1.
         23    2    1    2    0    0  0.30448654739E+02 -0.34115245924E+02 -0.14786376162E+03  0.19900612903E+03  0.12509507108E+03 0.  0.
         23    2    1    2    0    0 -0.30448654739E+02  0.34115245924E+02 -0.39553852708E+02  0.10673304007E+03  0.87957171389E+02 0.  0.
          5    1    3    3  502    0 -0.36570529663E+02  0.91111786617E+01 -0.92472006108E+01  0.39030761402E+02  0.41800000000E+01 0. -1.
         -5    1    3    3    0  502  0.67019184402E+02 -0.43226424585E+02 -0.13861656101E+03  0.15997536762E+03  0.41800000000E+01 0. -1.
        -11    1    4    4    0    0 -0.23465934513E+02 -0.15497827015E-02 -0.61326590097E+02  0.65662780461E+02  0.00000000000E+00 0.  1.
         11    1    4    4    0    0 -0.69827202260E+01  0.34116795706E+02  0.21772737388E+02  0.41070259610E+02  0.00000000000E+00 0. -1.
</event>
<event>
 8    1  0.8619230E-006  0.1411066E+03  0.7561462E-02  0.1211848E+00
         -1   -1    0    0    0  501 -0.00000000000E+00  0.00000000000E+00  0.10634185984E+03  0.10634185984E+03  0.00000000000E+00 0.  1.
          1   -1    0    0  501    0  0.00000000000E+00 -0.00000000000E+00 -0.24361130113E+03  0.24361130113E+03  0.00000000000E+00 0. -1.
         23    2    1    2    0    0 -0.67698162554E+02  0.79811780693E+02 -0.12357289779E+02  0.16358924209E+03  0.12512304330E+03 0.  0.
         23    2    1    2    0    0  0.67698162554E+02 -0.79811780693E+02 -0.12491215151E+03  0.18636391888E+03  0.90418488788E+02 0.  0.
          5    1    3    3  502    0 -0.25213080730E+01  0.95053144365E+02  0.11098130986E+01  0.95184879751E+02  0.41800000000E+01 0.  1.
         -5    1    3    3    0  502 -0.65176854481E+02 -0.15241363672E+02 -0.13467102878E+02  0.68404362335E+02  0.41800000000E+01 0.  1.
        -11    1    4    4    0    0  0.61570860742E+02 -0.27728140345E+02 -0.11445292535E+03  0.13288827179E+03  0.00000000000E+00 0. -1.
         11    1    4    4    0    0  0.61273018122E+01 -0.52083640349E+02 -0.10459226163E+02  0.53475647087E+02  0.00000000000E+00 0.  1.
</event>
<event>
 7    1  0.8619230E-006  0.2018986E+03  0.7561462E-02  0.1148147E+00
          2   -1    0    0  501    0  0.00000000000E+00  0.00000000000E+00  0.39955855329E+03  0.39955855329E+03  0.00000000000E+00 0. -1.
         -2   -1    0    0    0  501 -0.00000000000E+00 -0.00000000000E+00 -0.26886792744E+03  0.26886792744E+03  0.00000000000E+00 0.  1.
         23    2    1    2    0    0 -0.39270903216E+00  0.17314513920E+03  0.30996689746E+03  0.36677164374E+03  0.91992215360E+02 0.  0.
          5    1    1    2  502    0  0.53571644717E+02 -0.16656872162E+03 -0.88411831706E+02  0.19608463613E+03  0.41800000000E+01 0. -1.
         -5    1    1    2    0  502 -0.53178935685E+02 -0.65764175784E+01 -0.90864439907E+02  0.10557020085E+03  0.41800000000E+01 0.  1.
        -11    1    3    3    0    0  0.12604277804E+02  0.83055452267E+02  0.67443346152E+02  0.10772966588E+03  0.00000000000E+00 0.  1.
         11    1    3    3    0    0 -0.12996986836E+02  0.90089686930E+02  0.24252355131E+03  0.25904197786E+03  0.00000000000E+00 0. -1.
</event>
<event>
 8    1  0.8619230E-006  0.1130750E+03  0.7561462E-02  0.1254979E+00
          1   -1    0    0  501    0  0.00000000000E+00  0.00000000000E+00  0.21972727035E+02  0.21972727035E+02  0.00000000000E+00 0. -1.
         -1   -1    0    0    0  501 -0.00000000000E+00 -0.00000000000E+00 -0.13249311864E+04  0.13249311864E+04  0.00000000000E+00 0.  1.
         23    2    1    2    0    0 -0.63693698231E+02  0.25118166794E+02 -0.11237800656E+04  0.11327918450E+04  0.12509164096E+03 0.  0.
         23    2    1    2    0    0  0.63693698231E+02 -0.25118166794E+02 -0.17917839374E+03  0.21411206846E+03  0.95138171004E+02 0.  0.
          5    1    3    3  502    0 -0.30393352741E+02 -0.45649190539E+02 -0.27769667379E+03  0.28309100926E+03  0.41800000000E+01 0. -1.
         -5    1    3    3    0  502 -0.33300345490E+02  0.70767357333E+02 -0.84608339183E+03  0.84970083571E+03  0.41800000000E+01 0. -1.
        -11    1    4    4    0    0  0.27930571209E+02  0.20655647798E+02 -0.13951318085E+03  0.14377308589E+03  0.00000000000E+00 0.  1.
         11    1    4    4    0    0  0.35763127022E+02 -0.45773814592E+02 -0.39665212885E+02  0.70338982576E+02  0.00000000000E+00 0. -1.
</event>
<event>
 8    1  0.8619230E-006  0.1081803E+03  0.7561462E-02  0.1263977E+00
         -2   -1    0    0    0  501 -0.00000000000E+00  0.00000000000E+00  0.31174275604E+02  0.31174275604E+02  0.00000000000E+00 0.  1.
          2   -1    0    0  501    0  0.00000000000E+00 -0.00000000000E+00 -0.48805361063E+03  0.48805361063E+03  0.00000000000E+00 0. -1.
         23    2    1    2    0    0  0.59928723108E+02  0.49510723738E+00 -0.26881804893E+03  0.30249329359E+03  0.12508937706E+03 0.  0.
         23    2    1    2    0    0 -0.59928723108E+02 -0.49510723738E+00 -0.18806128609E+03  0.21673459264E+03  0.89527310550E+02 0.  0.
          5    1    3    3  502    0  0.83931231527E+02 -0.38647973365E+02 -0.18480425504E+03  0.20665962971E+03  0.41800000000E+01 0.  1.
         -5    1    3    3    0  502 -0.24002508419E+02  0.39143080602E+02 -0.84013793893E+02  0.95833663886E+02  0.41800000000E+01 0.  1.
        -11    1    4    4    0    0 -0.32739624982E+02 -0.24970544251E+02 -0.17186208616E+03  0.17672574171E+03  0.00000000000E+00 0. -1.
         11    1    4    4    0    0 -0.27189098126E+02  0.24475437013E+02 -0.16199199931E+02  0.40008850925E+02  0.00000000000E+00 0.  1.
</event>
<event>
 7    1  0.8619230E-006  0.1589405E+03  0.7561462E-02  0.1189898E+00
         -1   -1    0    0    0  501 -0.00000000000E+00  0.00000000000E+00  0.10376845088E+03  0.10376845088E+03  0.00000000000E+00 0.  1.
          1   -1    0    0  501    0  0.00000000000E+00 -0.00000000000E+00 -0.52579718642E+03  0.52579718642E+03  0.00000000000E+00 0. -1.
         23    2    1    2    0    0  0.68810553034E+02 -0.99628155163E+02 -0.34442309941E+03  0.37640527196E+03  0.91613295099E+02 0.  0.
          5    1    1    2  502    0 -0.35507953717E+02 -0.33656362764E+02 -0.10233716421E+03  0.11350741434E+03  0.41800000000E+01 0. -1.
         -5    1    1    2    0  502 -0.33302599317E+02  0.13328451793E+03  0.24731528094E+02  0.13965295100E+03  0.41800000000E+01 0.  1.
        -11    1    3    3    0    0  0.40802652076E+02 -0.17205701362E+02 -0.22087047298E+03  0.22526575064E+03  0.00000000000E+00 0. -1.
         11    1    3    3    0    0  0.28007900958E+02 -0.82422453801E+02 -0.12355262643E+03  0.15113952132E+03  0.00000000000E+00 0.  1.
</event>
<event>
 8    1  0.8619230E-006  0.1738507E+03  0.7561462E-02  0.1173891E+00
          1   -1    0    0  501    0  0.00000000000E+00  0.00000000000E+00  0.46573618164E+03  0.46573618164E+03  0.00000000000E+00 0. -1.
         -1   -1    0    0    0  501 -0.00000000000E+00 -0.00000000000E+00 -0.70577017725E+02  0.70577017725E+02  0.00000000000E+00 0.  1.
         23    2    1    2    0    0 -0.64224238211E+01  0.14682461089E+03  0.17803991347E+03  0.26257286910E+03  0.12509031501E+03 0.  0.
         23    2    1    2    0    0  0.64224238211E+01 -0.14682461089E+03  0.21711925045E+03  0.27374033027E+03  0.78703783946E+02 0.  0.
          5    1    3    3  502    0  0.28081085480E+02  0.15451532398E+03  0.13934620967E+03  0.20999612200E+03  0.41800000000E+01 0.  1.
         -5    1    3    3    0  502 -0.34503509301E+02 -0.76907130916E+01  0.38693703800E+02  0.52576747101E+02  0.41800000000E+01 0.  1.
        -11    1    4    4    0    0 -0.21491426758E+02 -0.55854812904E+02  0.37935086936E+02  0.70856985325E+02  0.00000000000E+00 0.  1.
         11    1    4    4    0    0  0.27913850579E+02 -0.90969797986E+02  0.17918416352E+03  0.20288334494E+03  0.00000000000E+00 0. -1.
</event>
<event>
 8    1  0.1172966E-005  0.2360655E+03  0.7561462E-02  0.1122442E+00
         -2   -1    0    0    0  501 -0.00000000000E+00  0.00000000000E+00  0.14545373178E+03  0.14545373178E+03  0.00000000000E+00 0. -1.
          2   -1    0    0  501    0  0.00000000000E+00 -0.00000000000E+00 -0.45690414982E+03  0.45690414982E+03  0.00000000000E+00 0.  1.
         23    2    1    2    0    0 -0.15794012899E+03 -0.14632452194E+03 -0.53384890805E+02  0.25466416321E+03  0.12509172391E+03 0.  0.
         23    2    1    2    0    0  0.15794012899E+03  0.14632452194E+03 -0.25806552723E+03  0.34769371839E+03  0.89090714402E+02 0.  0.
          5    1    3    3  502    0 -0.94229140810E+02 -0.56304721668E+01 -0.19024256262E+02  0.96385828424E+02  0.41800000000E+01 0.  1.
         -5    1    3    3    0  502 -0.63710988176E+02 -0.14069404978E+03 -0.34360634544E+02  0.15827833479E+03  0.41800000000E+01 0.  1.
        -11    1    4    4    0    0  0.90346459451E+02  0.43970022275E+02 -0.16710724680E+03  0.19498891642E+03  0.00000000000E+00 0.  1.
         11    1    4    4    0    0  0.67593669535E+02  0.10235449967E+03 -0.90958280433E+02  0.15270480196E+03  0.00000000000E+00 0. -1.
</event>
<event>
 8    1  0.8619230E-006  0.7926550E+02  0.7561462E-02  0.1331149E+00
          1   -1    0    0  501    0  0.00000000000E+00  0.00000000000E+00  0.97466438760E+02  0.97466438760E+02  0.00000000000E+00 0. -1.
         -1   -1    0    0    0  501 -0.00000000000E+00 -0.00000000000E+00 -0.29334068455E+03  0.29334068455E+03  0.00000000000E+00 0.  1.
         23    2    1    2    0    0 -0.49874724902E+02  0.32187169070E+02 -0.23663347095E+03  0.27416402043E+03  0.12508800298E+03 0.  0.
         23    2    1    2    0    0  0.49874724902E+02 -0.32187169070E+02  0.40759225156E+02  0.11664310288E+03  0.91764900572E+02 0.  0.
          5    1    3    3  502    0 -0.37480332205E+02 -0.16905279820E+01 -0.31593977099E+01  0.37882547181E+02  0.41800000000E+01 0.  1.
         -5    1    3    3    0  502 -0.12394392697E+02  0.33877697052E+02 -0.23347407324E+03  0.23628147325E+03  0.41800000000E+01 0.  1.
        -11    1    4    4    0    0 -0.13497135871E+02 -0.24724152816E+00 -0.19382780895E+02  0.23620457242E+02  0.00000000000E+00 0.  1.
         11    1    4    4    0    0  0.63371860773E+02 -0.31939927541E+02  0.60142006051E+02  0.93022645636E+02  0.00000000000E+00 0. -1.
</event>
<event>
 8    1  0.8619230E-006  0.1099453E+03  0.7561462E-02  0.1260671E+00
          1   -1    0    0  501    0  0.00000000000E+00  0.00000000000E+00  0.11178287302E+02  0.11178287302E+02  0.00000000000E+00 0. -1.
         -1   -1    0    0    0  501 -0.00000000000E+00 -0.00000000000E+00 -0.16691885734E+04  0.16691885734E+04  0.00000000000E+00 0.  1.
         23    2    1    2    0    0 -0.39414816350E+02 -0.43867408430E+02 -0.12515066583E+04  0.12591244323E+04  0.12509013907E+03 0.  0.
         23    2    1    2    0    0  0.39414816350E+02  0.43867408430E+02 -0.40650362773E+03  0.42124242837E+03  0.93392220391E+02 0.  0.
          5    1    3    3  502    0  0.23490917062E+02  0.11269991443E+02 -0.72606684392E+02  0.77253083498E+02  0.41800000000E+01 0.  1.
         -5    1    3    3    0  502 -0.62905733412E+02 -0.55137399873E+02 -0.11788999740E+04  0.11818713488E+04  0.41800000000E+01 0.  1.
        -11    1    4    4    0    0  0.58506985986E+02  0.60692623720E+02 -0.29076080610E+03  0.30273504645E+03  0.00000000000E+00 0. -1.
         11    1    4    4    0    0 -0.19092169636E+02 -0.16825215290E+02 -0.11574282163E+03  0.11850738193E+03  0.00000000000E+00 0.  1.
</event>
<event>
 8    1  0.8619230E-006  0.1329959E+03  0.7561462E-02  0.1223077E+00
          3   -1    0    0  501    0  0.00000000000E+00  0.00000000000E+00  0.39062921575E+02  0.39062921575E+02  0.00000000000E+00 0. -1.
         -3   -1    0    0    0  501 -0.00000000000E+00 -0.00000000000E+00 -0.46883447064E+03  0.46883447064E+03  0.00000000000E+00 0.  1.
         23    2    1    2    0    0  0.12781795418E+02 -0.84171086870E+02 -0.23983553446E+03  0.28358502641E+03  0.12510490579E+03 0.  0.
         23    2    1    2    0    0 -0.12781795418E+02  0.84171086870E+02 -0.18993601461E+03  0.22431236581E+03  0.83619385624E+02 0.  0.
          5    1    3    3  502    0  0.55311291649E+02 -0.89787767283E+02 -0.19273596375E+03  0.21974031551E+03  0.41800000000E+01 0.  1.
         -5    1    3    3    0  502 -0.42529496231E+02  0.56166804128E+01 -0.47099570715E+02  0.63844710901E+02  0.41800000000E+01 0.  1.
        -11    1    4    4    0    0  0.32481435827E+02  0.17872341549E+02 -0.80137235388E+02  0.88297456144E+02  0.00000000000E+00 0.  1.
         11    1    4    4    0    0 -0.45263231245E+02  0.66298745321E+02 -0.10979877922E+03  0.13601490967E+03  0.00000000000E+00 0. -1.
</event>
<event>
 8    1  0.8619230E-006  0.1439034E+03  0.7561462E-02  0.1208171E+00
         -2   -1    0    0    0  501 -0.00000000000E+00  0.00000000000E+00  0.13077329550E+03  0.13077329550E+03  0.00000000000E+00 0.  1.
          2   -1    0    0  501    0  0.00000000000E+00 -0.00000000000E+00 -0.17079816735E+03  0.17079816735E+03  0.00000000000E+00 0. -1.
         23    2    1    2    0    0 -0.61966911473E+02 -0.77810167756E+02  0.12787150770E+01  0.15982722034E+03  0.12509510353E+03 0.  0.
         23    2    1    2    0    0  0.61966911473E+02  0.77810167756E+02 -0.41303586924E+02  0.14174424251E+03  0.92147293333E+02 0.  0.
          5    1    3    3  502    0 -0.75391462065E+02  0.50019535037E+01  0.40870415482E+01  0.75783035040E+02  0.41800000000E+01 0.  1.
         -5    1    3    3    0  502  0.13424550592E+02 -0.82812121259E+02 -0.28083264712E+01  0.84044185305E+02  0.41800000000E+01 0.  1.
        -11    1    4    4    0    0  0.21459624922E+02  0.84410250772E+02 -0.54804261007E+01  0.87267640093E+02  0.00000000000E+00 0.  1.
         11    1    4    4    0    0  0.40507286552E+02 -0.66000830167E+01 -0.35823160824E+02  0.54476602418E+02  0.00000000000E+00 0. -1.
</event>
<event>
 8    1  0.8619230E-006  0.1111227E+03  0.7561462E-02  0.1258505E+00
          3   -1    0    0  501    0  0.00000000000E+00  0.00000000000E+00  0.38971036191E+03  0.38971036191E+03  0.00000000000E+00 0. -1.
         -3   -1    0    0    0  501 -0.00000000000E+00 -0.00000000000E+00 -0.49425427982E+02  0.49425427982E+02  0.00000000000E+00 0.  1.
         23    2    1    2    0    0  0.56274637951E+02  0.15460994084E+02  0.91755228011E+02  0.16779099042E+03  0.12778465238E+03 0.  0.
         23    2    1    2    0    0 -0.56274637951E+02 -0.15460994084E+02  0.24852970592E+03  0.27134479947E+03  0.91951662644E+02 0.  0.
          5    1    3    3  502    0  0.24147278485E+02 -0.44620841095E+02  0.85155886025E+02  0.99212437945E+02  0.41800000000E+01 0. -1.
         -5    1    3    3    0  502  0.32127359466E+02  0.60081835179E+02  0.65993419858E+01  0.68578552474E+02  0.41800000000E+01 0.  1.
        -11    1    4    4    0    0 -0.62153048499E+02  0.21412682133E+02  0.11265150481E+03  0.13042954393E+03  0.00000000000E+00 0.  1.
         11    1    4    4    0    0  0.58784105483E+01 -0.36873676218E+02  0.13587820111E+03  0.14091525555E+03  0.00000000000E+00 0. -1.
</event>
<event>
 8    1  0.8619230E-006  0.1198223E+03  0.7561462E-02  0.1243390E+00
         -1   -1    0    0    0  501 -0.00000000000E+00  0.00000000000E+00  0.69816082545E+02  0.69816082545E+02  0.00000000000E+00 0.  1.
          1   -1    0    0  501    0  0.00000000000E+00 -0.00000000000E+00 -0.24023943341E+03  0.24023943341E+03  0.00000000000E+00 0. -1.
         23    2    1    2    0    0 -0.49417889673E+02  0.46466355633E+02 -0.72600696615E+02  0.15974710932E+03  0.12508808001E+03 0.  0.
         23    2    1    2    0    0  0.49417889673E+02 -0.46466355633E+02 -0.97822654251E+02  0.15030840664E+03  0.91771975005E+02 0.  0.
          5    1    3    3  502    0  0.30161411827E+02  0.42011504320E+02 -0.59364687181E+02  0.78843615738E+02  0.41800000000E+01 0.  1.
         -5    1    3    3    0  502 -0.79579301500E+02  0.44548513128E+01 -0.13236009434E+02  0.80903493578E+02  0.41800000000E+01 0.  1.
        -11    1    4    4    0    0 -0.20415461205E+02  0.52114089507E+01 -0.42156907069E+02  0.47129127438E+02  0.00000000000E+00 0.  1.
         11    1    4    4    0    0  0.69833350878E+02 -0.51677764583E+02 -0.55665747183E+02  0.10317927920E+03  0.00000000000E+00 0. -1.
</event>
<event>
 8    1  0.8619230E-006  0.9499306E+02  0.7561462E-02  0.1291192E+00
         -1   -1    0    0    0  501 -0.00000000000E+00  0.00000000000E+00  0.18434901740E+03  0.18434901740E+03  0.00000000000E+00 0. -1.
          1   -1    0    0  501    0  0.00000000000E+00 -0.00000000000E+00 -0.68621103694E+02  0.68621103694E+02  0.00000000000E+00 0.  1.
         23    2    1    2    0    0 -0.28327620535E+02 -0.10474611015E+02  0.78170140808E+02  0.15056170221E+03  0.12508430636E+03 0.  0.
         23    2    1    2    0    0  0.28327620535E+02  0.10474611015E+02  0.37557772900E+02  0.10240841888E+03  0.90358875559E+02 0.  0.
          5    1    3    3  502    0  0.28378765520E+02 -0.25024038139E+02  0.83360349719E+02  0.91640477533E+02  0.41800000000E+01 0. -1.
         -5    1    3    3    0  502 -0.56706386055E+02  0.14549427124E+02 -0.51902089112E+01  0.58921224678E+02  0.41800000000E+01 0. -1.
        -11    1    4    4    0    0 -0.32093886184E+02  0.13597213063E+01  0.31370241898E+01  0.32275490596E+02  0.00000000000E+00 0.  1.
         11    1    4    4    0    0  0.60421506720E+02  0.91148897091E+01  0.34420748710E+02  0.70132928289E+02  0.00000000000E+00 0. -1.
</event>
<event>
 8    1  0.8619230E-006  0.1075506E+03  0.7561462E-02  0.1265174E+00
          1   -1    0    0  501    0  0.00000000000E+00  0.00000000000E+00  0.36277568601E+03  0.36277568601E+03  0.00000000000E+00 0. -1.
         -1   -1    0    0    0  501 -0.00000000000E+00 -0.00000000000E+00 -0.42303692826E+02  0.42303692826E+02  0.00000000000E+00 0.  1.
         23    2    1    2    0    0  0.60215574129E+00 -0.44058409384E+02  0.18795477928E+03  0.23002064847E+03  0.12506395819E+03 0.  0.
         23    2    1    2    0    0 -0.60215574129E+00  0.44058409384E+02  0.13251721390E+03  0.17505873036E+03  0.10556155109E+03 0.  0.
          5    1    3    3  502    0  0.39642765600E+02  0.70000678725E+01  0.11345320618E+02  0.42032588721E+02  0.41800000000E+01 0. -1.
         -5    1    3    3    0  502 -0.39040609859E+02 -0.51058477257E+02  0.17660945866E+03  0.18798805975E+03  0.41800000000E+01 0. -1.
        -11    1    4    4    0    0 -0.48626911098E+02  0.38202528391E+02  0.97024134593E+02  0.11505517090E+03  0.00000000000E+00 0. -1.
         11    1    4    4    0    0  0.48024755357E+02  0.58558809935E+01  0.35493079307E+02  0.60003559461E+02  0.00000000000E+00 0.  1.
</event>
<event>
 8    1  0.8619230E-006  0.1370281E+03  0.7561462E-02  0.1217385E+00
          2   -1    0    0  501    0  0.00000000000E+00  0.00000000000E+00  0.19636992436E+03  0.19636992436E+03  0.00000000000E+00 0. -1.
         -2   -1    0    0    0  501 -0.00000000000E+00 -0.00000000000E+00 -0.14671610282E+03  0.14671610282E+03  0.00000000000E+00 0.  1.
         23    2    1    2    0    0 -0.33573318166E+02 -0.12503564419E+03  0.13072066657E+02  0.18049968432E+03  0.12509267406E+03 0.  0.
         23    2    1    2    0    0  0.33573318166E+02  0.12503564419E+03  0.36581754886E+02  0.16258634285E+03  0.91296298290E+02 0.  0.
          5    1    3    3  502    0 -0.48052567994E+02 -0.75448867342E+02  0.62245379642E+02  0.10905751034E+03  0.41800000000E+01 0. -1.
         -5    1    3    3    0  502  0.14479249828E+02 -0.49586776847E+02 -0.49173312985E+02  0.71442173984E+02  0.41800000000E+01 0. -1.
        -11    1    4    4    0    0  0.99097327072E+00  0.59347160201E+02  0.61183828619E+02  0.85243934309E+02  0.00000000000E+00 0. -1.
         11    1    4    4    0    0  0.32582344895E+02  0.65688483988E+02 -0.24602073733E+02  0.77342408545E+02  0.00000000000E+00 0.  1.
</event>
<event>
 7    1  0.8619230E-006  0.1879051E+03  0.7561462E-02  0.1160364E+00
          2   -1    0    0  501    0  0.00000000000E+00  0.00000000000E+00  0.15910796611E+03  0.15910796611E+03  0.00000000000E+00 0. -1.
         -2   -1    0    0    0  501 -0.00000000000E+00 -0.00000000000E+00 -0.73215738921E+03  0.73215738921E+03  0.00000000000E+00 0.  1.
         23    2    1    2    0    0  0.46861229278E+02  0.15595604442E+03  0.75298452012E+02  0.19984156312E+03  0.88025739847E+02 0.  0.
          5    1    1    2  502    0 -0.72576602895E+02 -0.21355533470E+02 -0.95907734122E+02  0.12222597090E+03  0.41800000000E+01 0. -1.
         -5    1    1    2    0  502  0.25715373617E+02 -0.13460051095E+03 -0.55244014100E+03  0.56919782130E+03  0.41800000000E+01 0.  1.
        -11    1    3    3    0    0  0.10945937766E+02  0.28730354554E+02 -0.20174420968E+02  0.36773007598E+02  0.00000000000E+00 0.  1.
         11    1    3    3    0    0  0.35915291512E+02  0.12722568986E+03  0.95472872980E+02  0.16306855552E+03  0.00000000000E+00 0. -1.
</event>
<event>
 8    1  0.8619230E-006  0.1260396E+03  0.7561462E-02  0.1233453E+00
         -1   -1    0    0    0  501 -0.00000000000E+00  0.00000000000E+00  0.18531374076E+03  0.18531374076E+03  0.00000000000E+00 0.  1.
          1   -1    0    0  501    0  0.00000000000E+00 -0.00000000000E+00 -0.11131304736E+03  0.11131304736E+03  0.00000000000E+00 0. -1.
         23    2    1    2    0    0  0.53638153642E+02 -0.77157250857E+02  0.46044656756E+02  0.16308883316E+03  0.12509022424E+03 0.  0.
         23    2    1    2    0    0 -0.53638153642E+02  0.77157250857E+02  0.27956036648E+02  0.13353795496E+03  0.90667262794E+02 0.  0.
          5    1    3    3  502    0  0.77385570809E+02 -0.26600285687E+01  0.15731016769E+02  0.79123571772E+02  0.41800000000E+01 0.  1.
         -5    1    3    3    0  502 -0.23747417166E+02 -0.74497222288E+02  0.30313639988E+02  0.83965261389E+02  0.41800000000E+01 0.  1.
        -11    1    4    4    0    0 -0.44155374630E+02  0.46421335501E+02  0.60257889621E+02  0.87952548343E+02  0.00000000000E+00 0.  1.
         11    1    4    4    0    0 -0.94827790128E+01  0.30735915356E+02 -0.32301852973E+02  0.45585406613E+02  0.00000000000E+00 0. -1.
</event>
<event>
 7    1  0.8619230E-006  0.1325960E+03  0.7561462E-02  0.1223654E+00
         -1   -1    0    0    0  501 -0.00000000000E+00  0.00000000000E+00  0.53937090224E+02  0.53937090224E+02  0.00000000000E+00 0.  1.
          1   -1    0    0  501    0  0.00000000000E+00 -0.00000000000E+00 -0.62616099395E+03  0.62616099395E+03  0.00000000000E+00 0. -1.
         23    2    1    2    0    0  0.35805189668E+00 -0.38234675626E+01 -0.43303995867E+03  0.44376296214E+03  0.96887634152E+02 0.  0.
          5    1    1    2  502    0  0.83149219185E+02 -0.12284834126E+02 -0.12397238011E+03  0.14983768962E+03  0.41800000000E+01 0. -1.
         -5    1    1    2    0  502 -0.83507271081E+02  0.16108301689E+02 -0.15211564941E+02  0.86497432417E+02  0.41800000000E+01 0.  1.
        -11    1    3    3    0    0 -0.47725230092E+02 -0.22256693575E+01 -0.18281025894E+03  0.18895036906E+03  0.00000000000E+00 0.  1.
         11    1    3    3    0    0  0.48083281988E+02 -0.15977982050E+01 -0.25022969973E+03  0.25481259308E+03  0.00000000000E+00 0. -1.
</event>
<event>
 8    1  0.8619230E-006  0.1206179E+03  0.7561462E-02  0.1242081E+00
          1   -1    0    0  501    0  0.00000000000E+00  0.00000000000E+00  0.53032229953E+03  0.53032229953E+03  0.00000000000E+00 0. -1.
         -1   -1    0    0    0  501 -0.00000000000E+00 -0.00000000000E+00 -0.33995353318E+02  0.33995353318E+02  0.00000000000E+00 0.  1.
         23    2    1    2    0    0 -0.70680459042E+02  0.15391069472E+02  0.21178587282E+03  0.25638484874E+03  0.12508925784E+03 0.  0.
         23    2    1    2    0    0  0.70680459042E+02 -0.15391069472E+02  0.28454107339E+03  0.30793280411E+03  0.92878291803E+02 0.  0.
          5    1    3    3  502    0  0.35166942278E+02  0.23662889779E+01  0.74238820437E+02  0.82287228733E+02  0.41800000000E+01 0.  1.
         -5    1    3    3    0  502 -0.10584740132E+03  0.13024780494E+02  0.13754705238E+03  0.17409762001E+03  0.41800000000E+01 0.  1.
        -11    1    4    4    0    0  0.46251598904E+02  0.24422841243E+02  0.23114477187E+03  0.23698858863E+03  0.00000000000E+00 0. -1.
         11    1    4    4    0    0  0.24428860138E+02 -0.39813910715E+02  0.53396301520E+02  0.70944215480E+02  0.00000000000E+00 0.  1.
</event>
<event>
 8    1  0.8619230E-006  0.2283152E+03  0.7561462E-02  0.1127831E+00
         -4   -1    0    0    0  501 -0.00000000000E+00  0.00000000000E+00  0.47980283637E+03  0.47980283637E+03  0.00000000000E+00 0. -1.
          4   -1    0    0  501    0  0.00000000000E+00 -0.00000000000E+00 -0.12895692920E+03  0.12895692920E+03  0.00000000000E+00 0.  1.
         23    2    1    2    0    0 -0.18257079017E+03 -0.12916617873E+03  0.20852251989E+03  0.33037152930E+03  0.12509081069E+03 0.  0.
         23    2    1    2    0    0  0.18257079017E+03  0.12916617873E+03  0.14232338727E+03  0.27838823627E+03  0.85018047385E+02 0.  0.
          5    1    3    3  502    0 -0.15068391638E+03 -0.10812833375E+03  0.90812735950E+02  0.20654734233E+03  0.41800000000E+01 0.  1.
         -5    1    3    3    0  502 -0.31886873785E+02 -0.21037844983E+02  0.11770978394E+03  0.12382418696E+03  0.41800000000E+01 0.  1.
        -11    1    4    4    0    0  0.12754116283E+03  0.51598863010E+02  0.51570721046E+02  0.14693103875E+03  0.00000000000E+00 0.  1.
         11    1    4    4    0    0  0.55029627336E+02  0.77567315720E+02  0.90752666224E+02  0.13145719752E+03  0.00000000000E+00 0. -1.
</event>
<event>
 8    1  0.8619230E-006  0.1132271E+03  0.7561462E-02  0.1254708E+00
          2   -1    0    0  501    0  0.00000000000E+00  0.00000000000E+00  0.28660500726E+02  0.28660500726E+02  0.00000000000E+00 0.  1.
         -2   -1    0    0    0  501 -0.00000000000E+00 -0.00000000000E+00 -0.10096643800E+04  0.10096643800E+04  0.00000000000E+00 0. -1.
         23    2    1    2    0    0  0.10103529706E+03 -0.45013696438E+02 -0.70019207665E+03  0.71982833003E+03  0.12509802714E+03 0.  0.
         23    2    1    2    0    0 -0.10103529706E+03  0.45013696438E+02 -0.28081180258E+03  0.31849655065E+03  0.10173701484E+03 0.  0.
          5    1    3    3  502    0  0.75081323240E+02 -0.46522840889E+02 -0.68226969200E+03  0.68797600601E+03  0.41800000000E+01 0. -1.
         -5    1    3    3    0  502  0.25953973819E+02  0.15091444513E+01 -0.17922384647E+02  0.31852324019E+02  0.41800000000E+01 0. -1.
        -11    1    4    4    0    0 -0.44356646721E+02  0.28259974429E+02 -0.29446435646E+02  0.60276287504E+02  0.00000000000E+00 0.  1.
         11    1    4    4    0    0 -0.56678650338E+02  0.16753722009E+02 -0.25136536694E+03  0.25822026315E+03  0.00000000000E+00 0. -1.
</event>
<event>
 8    1  0.8619230E-006  0.9428744E+02  0.7561462E-02  0.1292789E+00
         -4   -1    0    0    0  501 -0.00000000000E+00  0.00000000000E+00  0.13459279482E+03  0.13459279482E+03  0.00000000000E+00 0.  1.
          4   -1    0    0  501    0  0.00000000000E+00 -0.00000000000E+00 -0.95364820054E+02  0.95364820054E+02  0.00000000000E+00 0. -1.
         23    2    1    2    0    0 -0.15561326549E+02 -0.28591245156E+02  0.40184569924E+02  0.13535928534E+03  0.12509085611E+03 0.  0.
         23    2    1    2    0    0  0.15561326549E+02  0.28591245156E+02 -0.95659516248E+00  0.94598329534E+02  0.88816184858E+02 0.  0.
          5    1    3    3  502    0 -0.80288219576E+01  0.38786010384E+02  0.52937221712E+02  0.66246799365E+02  0.41800000000E+01 0. -1.
         -5    1    3    3    0  502 -0.75325045914E+01 -0.67377255539E+02 -0.12752651788E+02  0.69112485971E+02  0.41800000000E+01 0. -1.
        -11    1    4    4    0    0 -0.28319014358E+02  0.23203476463E+02 -0.24943254342E+02  0.44300494708E+02  0.00000000000E+00 0. -1.
         11    1    4    4    0    0  0.43880340907E+02  0.53877686921E+01  0.23986659180E+02  0.50297834826E+02  0.00000000000E+00 0.  1.
</event>
<event>
 8    1  0.8619230E-006  0.1124608E+03  0.7561462E-02  0.1256080E+00
          2   -1    0    0  501    0  0.00000000000E+00  0.00000000000E+00  0.27752895563E+02  0.27752895563E+02  0.00000000000E+00 0. -1.
         -2   -1    0    0    0  501 -0.00000000000E+00 -0.00000000000E+00 -0.66853749976E+03  0.66853749976E+03  0.00000000000E+00 0.  1.
         23    2    1    2    0    0  0.21752635893E+02 -0.39367850591E+02 -0.52294633037E+03  0.53957531704E+03  0.12508258666E+03 0.  0.
         23    2    1    2    0    0 -0.21752635893E+02  0.39367850591E+02 -0.11783827383E+03  0.15671507828E+03  0.93009419706E+02 0.  0.
          5    1    3    3  502    0 -0.48306634014E+02 -0.22234876371E+02 -0.31383391248E+03  0.31833491427E+03  0.41800000000E+01 0. -1.
         -5    1    3    3    0  502  0.70059269907E+02 -0.17132974219E+02 -0.20911241789E+03  0.22124040278E+03  0.41800000000E+01 0. -1.
        -11    1    4    4    0    0 -0.22278161491E+02  0.67559516042E+02 -0.62875743272E+02  0.94941896859E+02  0.00000000000E+00 0. -1.
         11    1    4    4    0    0  0.52552559836E+00 -0.28191665451E+02 -0.54962530557E+02  0.61773181424E+02  0.00000000000E+00 0.  1.
</event>
<event>
 8    1  0.8619230E-006  0.2146340E+03  0.7561462E-02  0.1137948E+00
          1   -1    0    0  501    0  0.00000000000E+00  0.00000000000E+00  0.81344988971E+03  0.81344988971E+03  0.00000000000E+00 0. -1.
         -1   -1    0    0    0  501 -0.00000000000E+00 -0.00000000000E+00 -0.71698933350E+02  0.71698933350E+02  0.00000000000E+00 0.  1.
         23    2    1    2    0    0 -0.16997277139E+03 -0.10878797571E+03  0.51564987432E+03  0.56768629806E+03  0.12508946176E+03 0.  0.
         23    2    1    2    0    0  0.16997277139E+03  0.10878797571E+03  0.22610108204E+03  0.31746252500E+03  0.94526127657E+02 0.  0.
          5    1    3    3  502    0 -0.10404966505E+03 -0.24458464691E+02  0.38040469796E+03  0.39515788734E+03  0.41800000000E+01 0. -1.
         -5    1    3    3    0  502 -0.65923106337E+02 -0.84329511018E+02  0.13524517636E+03  0.17252841072E+03  0.41800000000E+01 0. -1.
        -11    1    4    4    0    0  0.23489569261E+02  0.53820780187E+02  0.10227197328E+03  0.11793215321E+03  0.00000000000E+00 0. -1.
         11    1    4    4    0    0  0.14648320213E+03  0.54967195522E+02  0.12382910876E+03  0.19953037178E+03  0.00000000000E+00 0.  1.
</event>
<event>
 8    1  0.8619230E-006  0.1111520E+03  0.7561462E-02  0.1258451E+00
         -2   -1    0    0    0  501 -0.00000000000E+00  0.00000000000E+00  0.43665862312E+02  0.43665862312E+02  0.00000000000E+00 0.  1.
          2   -1    0    0  501    0  0.00000000000E+00 -0.00000000000E+00 -0.51270474756E+03  0.51270474756E+03  0.00000000000E+00 0. -1.
         23    2    1    2    0    0  0.40060020216E+02  0.94231444778E+02 -0.24078100467E+03  0.29001326315E+03  0.12509128742E+03 0.  0.
         23    2    1    2    0    0 -0.40060020216E+02 -0.94231444778E+02 -0.22825788058E+03  0.26635734673E+03  0.91434160481E+02 0.  0.
          5    1    3    3  502    0  0.12154137109E+02  0.90135109790E+02 -0.64836707543E+02  0.11177357519E+03  0.41800000000E+01 0.  1.
         -5    1    3    3    0  502  0.27905883107E+02  0.40963349883E+01 -0.17594429713E+03  0.17823968796E+03  0.41800000000E+01 0.  1.
        -11    1    4    4    0    0 -0.86492670058E+01 -0.12646853924E+02  0.58952156209E+01  0.16416647073E+02  0.00000000000E+00 0.  1.
         11    1    4    4    0    0 -0.31410753210E+02 -0.81584590854E+02 -0.23415309620E+03  0.24994069965E+03  0.00000000000E+00 0. -1.
</event>
<event>
 8    1  0.8619230E-006  0.1029279E+03  0.7561462E-02  0.1274257E+00
         -2   -1    0    0    0  501 -0.00000000000E+00  0.00000000000E+00  0.62665682796E+02  0.62665682796E+02  0.00000000000E+00 0.  1.
          2   -1    0    0  501    0  0.00000000000E+00 -0.00000000000E+00 -0.25732679741E+03  0.25732679741E+03  0.00000000000E+00 0. -1.
         23    2    1    2    0    0  0.80692186573E+01 -0.63147647886E+02 -0.94145741044E+02  0.16900826937E+03  0.12509051456E+03 0.  0.
         23    2    1    2    0    0 -0.80692186573E+01  0.63147647886E+02 -0.10051537357E+03  0.15098421084E+03  0.92952428026E+02 0.  0.
          5    1    3    3  502    0 -0.30291774875E+02 -0.34530199805E+02 -0.10929981452E+03  0.11863325073E+03  0.41800000000E+01 0. -1.
         -5    1    3    3    0  502  0.38360993532E+02 -0.28617448081E+02  0.15154073481E+02  0.50375018635E+02  0.41800000000E+01 0. -1.
        -11    1    4    4    0    0 -0.29362770096E+02  0.79560308645E+02 -0.84360898477E+02  0.11961929682E+03  0.00000000000E+00 0. -1.
         11    1    4    4    0    0  0.21293551439E+02 -0.16412660760E+02 -0.16154475093E+02  0.31364914022E+02  0.00000000000E+00 0.  1.
</event>
<event>
 8    1  0.8619230E-006  0.2272175E+03  0.7561462E-02  0.1128614E+00
         -2   -1    0    0    0  501 -0.00000000000E+00  0.00000000000E+00  0.23351174800E+03  0.23351174800E+03  0.00000000000E+00 0.  1.
          2   -1    0    0  501    0  0.00000000000E+00 -0.00000000000E+00 -0.30023349154E+03  0.30023349154E+03  0.00000000000E+00 0. -1.
         23    2    1    2    0    0  0.20081097280E+03 -0.42838969732E+02  0.93303172237E+02  0.25790100399E+03  0.12508885555E+03 0.  0.
         23    2    1    2    0    0 -0.20081097280E+03  0.42838969732E+02 -0.16002491577E+03  0.27584423555E+03  0.91224144259E+02 0.  0.
          5    1    3    3  502    0  0.19341209718E+03 -0.67152229096E+02  0.55518372472E+02  0.21217309747E+03  0.41800000000E+01 0.  1.
         -5    1    3    3    0  502  0.73988756210E+01  0.24313259363E+02  0.37784799765E+02  0.45727906519E+02  0.41800000000E+01 0.  1.
        -11    1    4    4    0    0 -0.64486065801E+02 -0.27958849005E+02 -0.39755370103E+02  0.80750475988E+02  0.00000000000E+00 0.  1.
         11    1    4    4    0    0 -0.13632490700E+03  0.70797818737E+02 -0.12026954567E+03  0.19509375956E+03  0.00000000000E+00 0. -1.
</event>
<event>
 8    1  0.8619230E-006  0.1963131E+03  0.7561462E-02  0.1152887E+00
          2   -1    0    0  501    0  0.00000000000E+00  0.00000000000E+00  0.12334175238E+04  0.12334175238E+04  0.00000000000E+00 0.  1.
         -2   -1    0    0    0  501 -0.00000000000E+00 -0.00000000000E+00 -0.48360409815E+02  0.48360409815E+02  0.00000000000E+00 0. -1.
         23    2    1    2    0    0  0.12398659368E+03  0.14425062071E+03  0.32877905479E+03  0.39990383066E+03  0.12508593013E+03 0.  0.
         23    2    1    2    0    0 -0.12398659368E+03 -0.14425062071E+03  0.85627805922E+03  0.88187410299E+03  0.91153177836E+02 0.  0.
          5    1    3    3  502    0  0.12721081541E+03  0.13289959510E+03  0.20493329259E+03  0.27542697897E+03  0.41800000000E+01 0.  1.
         -5    1    3    3    0  502 -0.32242217335E+01  0.11351025606E+02  0.12384576221E+03  0.12447685168E+03  0.41800000000E+01 0.  1.
        -11    1    4    4    0    0 -0.11628822625E+03 -0.10690919824E+03  0.78795624524E+03  0.80363397928E+03  0.00000000000E+00 0.  1.
         11    1    4    4    0    0 -0.76983674342E+01 -0.37341422466E+02  0.68321813982E+02  0.78240123713E+02  0.00000000000E+00 0. -1.
</event>
<event>
 8    1  0.8619230E-006  0.3148721E+03  0.7561462E-02  0.1078034E+00
         -2   -1    0    0    0  501 -0.00000000000E+00  0.00000000000E+00  0.20844814803E+03  0.20844814803E+03  0.00000000000E+00 0.  1.
          2   -1    0    0  501    0  0.00000000000E+00 -0.00000000000E+00 -0.51198525300E+03  0.51198525300E+03  0.00000000000E+00 0. -1.
         23    2    1    2    0    0 -0.24904758316E+03  0.18042222853E+03 -0.14123955971E+03  0.36079172844E+03  0.12508068939E+03 0.  0.
         23    2    1    2    0    0  0.24904758316E+03 -0.18042222853E+03 -0.16229754526E+03  0.35964167258E+03  0.91786492653E+02 0.  0.
          5    1    3    3  502    0 -0.37767104406E+00  0.69797881423E+01 -0.40460287078E+02  0.41271870667E+02  0.41800000000E+01 0.  1.
         -5    1    3    3    0  502 -0.24866991212E+03  0.17344244039E+03 -0.10077927263E+03  0.31951985777E+03  0.41800000000E+01 0.  1.
        -11    1    4    4    0    0  0.15030322098E+03 -0.15608978373E+03 -0.88875497929E+02  0.23420916496E+03  0.00000000000E+00 0.  1.
         11    1    4    4    0    0  0.98744362183E+02 -0.24332444802E+02 -0.73422047336E+02  0.12543250762E+03  0.00000000000E+00 0. -1.
</event>
<event>
 8    1  0.8619230E-006  0.9531093E+02  0.7561462E-02  0.1290477E+00
         -2   -1    0    0    0  501 -0.00000000000E+00  0.00000000000E+00  0.22053149099E+03  0.22053149099E+03  0.00000000000E+00 0.  1.
          2   -1    0    0  501    0  0.00000000000E+00 -0.00000000000E+00 -0.10312858328E+03  0.10312858328E+03  0.00000000000E+00 0. -1.
         23    2    1    2    0    0 -0.13692569445E+02  0.73863417254E+02  0.14053314893E+03  0.20258411544E+03  0.12508983577E+03 0.  0.
         23    2    1    2    0    0  0.13692569445E+02 -0.73863417254E+02 -0.23130241210E+02  0.12107595884E+03  0.92092827533E+02 0.  0.
          5    1    3    3  502    0 -0.28780137500E+01  0.47010222074E+02 -0.10757786432E+02  0.48491713844E+02  0.41800000000E+01 0. -1.
         -5    1    3    3    0  502 -0.10814555695E+02  0.26853195180E+02  0.15129093536E+03  0.15409240159E+03  0.41800000000E+01 0. -1.
        -11    1    4    4    0    0  0.23574267980E+02 -0.91165447905E+02 -0.31740993518E+02  0.99369893187E+02  0.00000000000E+00 0. -1.
         11    1    4    4    0    0 -0.98816985348E+01  0.17302030652E+02  0.86107523079E+01  0.21706065648E+02  0.00000000000E+00 0.  1.
</event>
<event>
 8    1  0.8619230E-006  0.8022195E+02  0.7561462E-02  0.1328423E+00
          1   -1    0    0  501    0  0.00000000000E+00  0.00000000000E+00  0.22323981416E+03  0.22323981416E+03  0.00000000000E+00 0. -1.
         -1   -1    0    0    0  501 -0.00000000000E+00 -0.00000000000E+00 -0.66460763692E+02  0.66460763692E+02  0.00000000000E+00 0.  1.
         23    2    1    2    0    0  0.45060099160E+01 -0.42925559100E+02  0.44888686579E+02  0.13973497416E+03  0.12509181057E+03 0.  0.
         23    2    1    2    0    0 -0.45060099160E+01  0.42925559100E+02  0.11189036389E+03  0.14996560369E+03  0.90040663091E+02 0.  0.
          5    1    3    3  502    0  0.97857198491E+01 -0.52863935264E+02 -0.31471923295E+02  0.62436450255E+02  0.41800000000E+01 0. -1.
         -5    1    3    3    0  502 -0.52797099331E+01  0.99383761638E+01  0.76360609875E+02  0.77298523907E+02  0.41800000000E+01 0. -1.
        -11    1    4    4    0    0  0.39839824171E+02  0.21315568220E+02  0.29581777591E+02  0.54005986742E+02  0.00000000000E+00 0.  1.
         11    1    4    4    0    0 -0.44345834087E+02  0.21609990880E+02  0.82308586298E+02  0.95959616950E+02  0.00000000000E+00 0. -1.
</event>
<event>
 8    1  0.8619230E-006  0.1404068E+03  0.7561462E-02  0.1212783E+00
         -1   -1    0    0    0  501 -0.00000000000E+00  0.00000000000E+00  0.39487813151E+02  0.39487813151E+02  0.00000000000E+00 0.  1.
          1   -1    0    0  501    0  0.00000000000E+00 -0.00000000000E+00 -0.59979250844E+03  0.59979250844E+03  0.00000000000E+00 0. -1.
         23    2    1    2    0    0 -0.78574519954E+00  0.10705506096E+03 -0.26418759146E+03  0.31127215558E+03  0.12503546651E+03 0.  0.
         23    2    1    2    0    0  0.78574519954E+00 -0.10705506096E+03 -0.29611710383E+03  0.32800816601E+03  0.91883699935E+02 0.  0.
          5    1    3    3  502    0  0.10416660511E+02  0.13013152124E+03 -0.24897786351E+03  0.28115861814E+03  0.41800000000E+01 0. -1.
         -5    1    3    3    0  502 -0.11202405711E+02 -0.23076460281E+02 -0.15209727946E+02  0.30113537437E+02  0.41800000000E+01 0. -1.
        -11    1    4    4    0    0  0.30319776774E+02 -0.73497055163E+02 -0.10484234529E+03  0.13157896241E+03  0.00000000000E+00 0.  1.
         11    1    4    4    0    0 -0.29534031575E+02 -0.33558005801E+02 -0.19127475853E+03  0.19642920360E+03  0.00000000000E+00 0. -1.
</event>
<event>
 8    1  0.8619230E-006  0.1039475E+03  0.7561462E-02  0.1272207E+00
         -4   -1    0    0    0  501 -0.00000000000E+00  0.00000000000E+00  0.47532110519E+02  0.47532110519E+02  0.00000000000E+00 0.  1.
          4   -1    0    0  501    0  0.00000000000E+00 -0.00000000000E+00 -0.32535988823E+03  0.32535988823E+03  0.00000000000E+00 0. -1.
         23    2    1    2    0    0 -0.55615088579E+02 -0.31901383990E+02 -0.15807645651E+03  0.21153316701E+03  0.12508948103E+03 0.  0.
         23    2    1    2    0    0  0.55615088579E+02  0.31901383990E+02 -0.11975132120E+03  0.16135883174E+03  0.87095104754E+02 0.  0.
          5    1    3    3  502    0 -0.58370436341E+02 -0.57985220390E+02 -0.16470446630E+03  0.18415870124E+03  0.41800000000E+01 0. -1.
         -5    1    3    3    0  502  0.27553477620E+01  0.26083836400E+02  0.66280097899E+01  0.27374465774E+02  0.41800000000E+01 0. -1.
        -11    1    4    4    0    0  0.56089379593E+02 -0.10063529951E+02 -0.35240939255E+02  0.67001618919E+02  0.00000000000E+00 0.  1.
         11    1    4    4    0    0 -0.47429101389E+00  0.41964913941E+02 -0.84510381947E+02  0.94357212819E+02  0.00000000000E+00 0. -1.
</event>
<event>
 6    1  0.8619230E-006  0.3357316E+03  0.7561462E-02  0.1068629E+00
         -1   -1    0    0    0  501 -0.00000000000E+00  0.00000000000E+00  0.40932282224E+03  0.40932282224E+03  0.00000000000E+00 0.  1.
          1   -1    0    0  501    0  0.00000000000E+00 -0.00000000000E+00 -0.33509524055E+03  0.33509524055E+03  0.00000000000E+00 0. -1.
          5    1    1    2  502    0 -0.57496081439E+02  0.14120762988E+03 -0.23673489051E+02  0.15434798541E+03  0.41800000000E+01 0. -1.
         -5    1    1    2    0  502  0.24032306504E+03 -0.18256814621E+03  0.17336750467E+03  0.34808054768E+03  0.41800000000E+01 0.  1.
        -11    1    1    2    0    0  0.14796042479E+02 -0.15576094006E+01 -0.31787063231E+02  0.35096529870E+02  0.00000000000E+00 0.  1.
         11    1    1    2    0    0 -0.19762302608E+03  0.42918125734E+02 -0.43679370688E+02  0.20689299982E+03  0.00000000000E+00 0. -1.
</event>
<event>
 8    1  0.8619230E-006  0.2207564E+03  0.7561462E-02  0.1133320E+00
          1   -1    0    0  501    0  0.00000000000E+00  0.00000000000E+00  0.10908605891E+04  0.10908605891E+04  0.00000000000E+00 0. -1.
         -1   -1    0    0    0  501 -0.00000000000E+00 -0.00000000000E+00 -0.45576034043E+02  0.45576034043E+02  0.00000000000E+00 0.  1.
         23    2    1    2    0    0  0.56600845675E+02  0.18528832932E+03  0.59127244621E+03  0.63465455501E+03  0.12509147785E+03 0.  0.
         23    2    1    2    0    0 -0.56600845675E+02 -0.18528832932E+03  0.45401210880E+03  0.50178206809E+03  0.90126734120E+02 0.  0.
          5    1    3    3  502    0 -0.20573193039E+02  0.13384008015E+03  0.30587287725E+03  0.33453267817E+03  0.41800000000E+01 0.  1.
         -5    1    3    3    0  502  0.77174038714E+02  0.51448249175E+02  0.28539956896E+03  0.30012187684E+03  0.41800000000E+01 0.  1.
        -11    1    4    4    0    0 -0.22940239403E+02  0.18826510328E+01  0.60372745223E+02  0.64611665545E+02  0.00000000000E+00 0.  1.
         11    1    4    4    0    0 -0.33660606272E+02 -0.18717098036E+03  0.39363936358E+03  0.43717040254E+03  0.00000000000E+00 0. -1.
</event>
<event>
 8    1  0.8619230E-006  0.1011945E+03  0.7561462E-02  0.1277804E+00
         -2   -1    0    0    0  501 -0.00000000000E+00  0.00000000000E+00  0.77078703710E+02  0.77078703710E+02  0.00000000000E+00 0.  1.
          2   -1    0    0  501    0  0.00000000000E+00 -0.00000000000E+00 -0.20176985098E+03  0.20176985098E+03  0.00000000000E+00 0. -1.
         23    2    1    2    0    0  0.20780210521E+02  0.36431282043E+02 -0.18728913334E+02  0.13325748708E+03  0.12509088778E+03 0.  0.
         23    2    1    2    0    0 -0.20780210521E+02 -0.36431282043E+02 -0.10596223394E+03  0.14559106761E+03  0.90607441677E+02 0.  0.
          5    1    3    3  502    0 -0.27410614752E+02  0.51194849217E+02 -0.47439743813E+02  0.75101638334E+02  0.41800000000E+01 0.  1.
         -5    1    3    3    0  502  0.48190825273E+02 -0.14763567174E+02  0.28710830479E+02  0.58155848743E+02  0.41800000000E+01 0.  1.
        -11    1    4    4    0    0 -0.35006580395E+02  0.16559656990E+02 -0.69970519341E+02  0.79972223224E+02  0.00000000000E+00 0. -1.
         11    1    4    4    0    0  0.14226369874E+02 -0.52990939033E+02 -0.35991714595E+02  0.65618844388E+02  0.00000000000E+00 0.  1.
</event>
<event>
 8    1  0.8619230E-006  0.1211701E+03  0.7561462E-02  0.1241179E+00
         -1   -1    0    0    0  501 -0.00000000000E+00  0.00000000000E+00  0.24278351989E+02  0.24278351989E+02  0.00000000000E+00 0.  1.
          1   -1    0    0  501    0  0.00000000000E+00 -0.00000000000E+00 -0.66177878714E+03  0.66177878714E+03  0.00000000000E+00 0. -1.
         23    2    1    2    0    0 -0.57550504730E+02 -0.81312027134E-01 -0.36620093101E+03  0.39123144414E+03  0.12508738466E+03 0.  0.
         23    2    1    2    0    0  0.57550504730E+02  0.81312027134E-01 -0.27129950414E+03  0.29482569499E+03  0.10003350576E+03 0.  0.
          5    1    3    3  502    0  0.23209729790E+02 -0.36426155173E+02 -0.73049637717E+02  0.84966336323E+02  0.41800000000E+01 0. -1.
         -5    1    3    3    0  502 -0.80760234519E+02  0.36344843146E+02 -0.29315129330E+03  0.30626510781E+03  0.41800000000E+01 0. -1.
        -11    1    4    4    0    0  0.23082894805E+02  0.46826936837E+02 -0.85685957740E+02  0.10033775660E+03  0.00000000000E+00 0.  1.
         11    1    4    4    0    0  0.34467609925E+02 -0.46745624810E+02 -0.18561354640E+03  0.19448793839E+03  0.00000000000E+00 0. -1.
</event>
<event>
 8    1  0.8619230E-006  0.8638315E+02  0.7561462E-02  0.1311855E+00
         -1   -1    0    0    0  501 -0.00000000000E+00  0.00000000000E+00  0.19883620112E+03  0.19883620112E+03  0.00000000000E+00 0.  1.
          1   -1    0    0  501    0  0.00000000000E+00 -0.00000000000E+00 -0.88643629385E+02  0.88643629385E+02  0.00000000000E+00 0. -1.
         23    2    1    2    0    0 -0.65051688557E+02  0.30244163121E+02  0.97932761833E+02  0.17431152826E+03  0.12508897416E+03 0.  0.
         23    2    1    2    0    0  0.65051688557E+02 -0.30244163121E+02  0.12259809902E+02  0.11316830225E+03  0.86662160760E+02 0.  0.
          5    1    3    3  502    0 -0.22530086511E+02  0.23075319806E+02 -0.26881560882E+02  0.42192012251E+02  0.41800000000E+01 0.  1.
         -5    1    3    3    0  502 -0.42521602047E+02  0.71688433155E+01  0.12481432272E+03  0.13211951601E+03  0.41800000000E+01 0.  1.
        -11    1    4    4    0    0 -0.75592246052E+01  0.11051962931E+02  0.25299126362E+02  0.28624003143E+02  0.00000000000E+00 0.  1.
         11    1    4    4    0    0  0.72610913163E+02 -0.41296126052E+02 -0.13039316460E+02  0.84544299104E+02  0.00000000000E+00 0. -1.
</event>
<event>
 8    1  0.8619230E-006  0.9149460E+02  0.7561462E-02  0.1299272E+00
         -1   -1    0    0    0  501 -0.00000000000E+00  0.00000000000E+00  0.65641351855E+02  0.65641351855E+02  0.00000000000E+00 0.  1.
          1   -1    0    0  501    0  0.00000000000E+00 -0.00000000000E+00 -0.22193581812E+03  0.22193581812E+03  0.00000000000E+00 0. -1.
         23    2    1    2    0    0 -0.72661857695E+01 -0.28844878378E+00 -0.24497768334E+02  0.12767298907E+03  0.12508945130E+03 0.  0.
         23    2    1    2    0    0  0.72661857695E+01  0.28844878378E+00 -0.13179669793E+03  0.15990418090E+03  0.90255730156E+02 0.  0.
          5    1    3    3  502    0  0.50167554341E+02 -0.19827244716E+02  0.13762158874E+02  0.55828062464E+02  0.41800000000E+01 0. -1.
         -5    1    3    3    0  502 -0.57433740110E+02  0.19538795933E+02 -0.38259927208E+02  0.71844926610E+02  0.41800000000E+01 0. -1.
        -11    1    4    4    0    0 -0.66191617853E+01 -0.32131137282E+02 -0.11850706527E+02  0.34880689944E+02  0.00000000000E+00 0.  1.
         11    1    4    4    0    0  0.13885347555E+02  0.32419586066E+02 -0.11994599140E+03  0.12502349096E+03  0.00000000000E+00 0. -1.
</event>
<event>
 8    1  0.8619230E-006  0.1437709E+03  0.7561462E-02  0.1208343E+00
          1   -1    0    0  501    0  0.00000000000E+00  0.00000000000E+00  0.16259151053E+03  0.16259151053E+03  0.00000000000E+00 0. -1.
         -1   -1    0    0    0  501 -0.00000000000E+00 -0.00000000000E+00 -0.50867012779E+03  0.50867012779E+03  0.00000000000E+00 0.  1.
         23    2    1    2    0    0 -0.91630232729E+02  0.92959797722E+02 -0.44848467522E+03  0.48355288991E+03  0.12508904785E+03 0.  0.
         23    2    1    2    0    0  0.91630232729E+02 -0.92959797722E+02  0.10240605796E+03  0.18770874841E+03  0.87806320843E+02 0.  0.
          5    1    3    3  502    0 -0.10809307166E+03  0.83801879473E+02 -0.44276299203E+03  0.46342572939E+03  0.41800000000E+01 0. -1.
         -5    1    3    3    0  502  0.16462838927E+02  0.91579182488E+01 -0.57216831836E+01  0.20127160521E+02  0.41800000000E+01 0. -1.
        -11    1    4    4    0    0  0.55563474293E+02 -0.45605410291E+02  0.10600040513E+03  0.12807513034E+03  0.00000000000E+00 0. -1.
         11    1    4    4    0    0  0.36066758436E+02 -0.47354387430E+02 -0.35943471662E+01  0.59633618073E+02  0.00000000000E+00 0.  1.
</event>
