<event>
 7    1  0.2784086E-009  0.1454499E+03  0.7561462E-02  0.1206178E+00
         -1   -1    0    0    0  501 -0.00000000000E+00  0.00000000000E+00  0.22769915530E+02  0.22769915530E+02  0.00000000000E+00 0.  1.
          1   -1    0    0  501    0  0.00000000000E+00 -0.00000000000E+00 -0.10599637485E+04  0.10599637485E+04  0.00000000000E+00 0. -1.
         25    2    1    2    0    0  0.22131187819E+02  0.10662589404E+03 -0.48088659806E+03  0.50868324586E+03  0.12509138127E+03 0.  0.
          5    1    3    3  502    0 -0.54120588080E+00  0.12906151160E+03 -0.42516651408E+03  0.44434356503E+03  0.41800000000E+01 0.  1.
         -5    1    3    3    0  502  0.22672393700E+02 -0.22435617559E+02 -0.55720083979E+02  0.64339680835E+02  0.41800000000E+01 0.  1.
        -11    1    1    2    0    0  0.23888715815E+02 -0.57608920972E+02 -0.15375221816E+03  0.16591926684E+03  0.00000000000E+00 0.  1.
         11    1    1    2    0    0 -0.46019903635E+02 -0.49016973073E+02 -0.40255501671E+03  0.40813115129E+03  0.00000000000E+00 0. -1.
</event>
<event>
 7    1  0.2440960E-009  0.1132531E+03  0.7561462E-02  0.1254662E+00
         -3   -1    0    0    0  501 -0.00000000000E+00  0.00000000000E+00  0.67250986450E+03  0.67250986450E+03  0.00000000000E+00 0.  1.
          3   -1    0    0  501    0  0.00000000000E+00 -0.00000000000E+00 -0.34185017238E+02  0.34185017238E+02  0.00000000000E+00 0. -1.
         25    2    1    2    0    0 -0.88915839191E+02  0.49717522341E+02  0.41144885008E+03  0.44194979505E+03  0.12510638122E+03 0.  0.
          5    1    3    3  502    0 -0.86582930841E+02  0.14501128708E+02  0.12218556027E+03  0.15051136232E+03  0.41800000000E+01 0.  1.
         -5    1    3    3    0  502 -0.23329083500E+01  0.35216393633E+02  0.28926328981E+03  0.29143843273E+03  0.41800000000E+01 0.  1.
        -11    1    1    2    0    0  0.39376805316E+02 -0.31019927929E+02  0.24952737562E+02  0.55994712585E+02  0.00000000000E+00 0. -1.
         11    1    1    2    0    0  0.49539033875E+02 -0.18697594412E+02  0.20192325962E+03  0.20875037411E+03  0.00000000000E+00 0.  1.
</event>
<event>
 7    1  0.2440960E-009  0.1051670E+03  0.7561462E-02  0.1269791E+00
          1   -1    0    0  501    0  0.00000000000E+00  0.00000000000E+00  0.67306248097E+02  0.67306248097E+02  0.00000000000E+00 0. -1.
         -1   -1    0    0    0  501 -0.00000000000E+00 -0.00000000000E+00 -0.29790368725E+03  0.29790368725E+03  0.00000000000E+00 0.  1.
         25    2    1    2    0    0 -0.23831469019E+01 -0.31000925990E+02 -0.23663772848E+03  0.26946641595E+03  0.12509195809E+03 0.  0.
          5    1    3    3  502    0 -0.16067016376E+02 -0.77925868343E+02 -0.13975483285E+03  0.16087099078E+03  0.41800000000E+01 0. -1.
         -5    1    3    3    0  502  0.13683869474E+02  0.46924942353E+02 -0.96882895639E+02  0.10859542516E+03  0.41800000000E+01 0. -1.
        -11    1    1    2    0    0 -0.20361886765E+02 -0.18255464790E+02 -0.21605130093E+02  0.34851830277E+02  0.00000000000E+00 0. -1.
         11    1    1    2    0    0  0.22745033667E+02  0.49256390780E+02  0.27645419426E+02  0.60891689124E+02  0.00000000000E+00 0.  1.
</event>
<event>
 7    1  0.2440960E-009  0.8024442E+02  0.7561462E-02  0.1328359E+00
         -2   -1    0    0    0  501 -0.00000000000E+00  0.00000000000E+00  0.79519216660E+02  0.79519216660E+02  0.00000000000E+00 0.  1.
          2   -1    0    0  501    0  0.00000000000E+00 -0.00000000000E+00 -0.15792278621E+03  0.15792278621E+03  0.00000000000E+00 0. -1.
         25    2    1    2    0    0  0.14397683404E+02  0.96135978343E+01 -0.73306600008E+02  0.14601569897E+03  0.12508801777E+03 0.  0.
          5    1    3    3  502    0  0.33578743128E+01 -0.29808290879E+02 -0.94848687167E+02  0.99566838768E+02  0.41800000000E+01 0.  1.
         -5    1    3    3    0  502  0.11039809091E+02  0.39421888714E+02  0.21542087159E+02  0.46448860198E+02  0.41800000000E+01 0.  1.
        -11    1    1    2    0    0  0.32158069736E+02 -0.24218872380E+02  0.76898012215E+01  0.40985708135E+02  0.00000000000E+00 0.  1.
         11    1    1    2    0    0 -0.46555753140E+02  0.14605274546E+02 -0.12786770764E+02  0.50440595769E+02  0.00000000000E+00 0. -1.
</event>
<event>
 7    1  0.2440960E-009  0.1607987E+03  0.7561462E-02  0.1187798E+00
          1   -1    0    0  501    0  0.00000000000E+00  0.00000000000E+00  0.74519279944E+03  0.74519279944E+03  0.00000000000E+00 0. -1.
         -1   -1    0    0    0  501 -0.00000000000E+00 -0.00000000000E+00 -0.44477198624E+02  0.44477198624E+02  0.00000000000E+00 0.  1.
         25    2    1    2    0    0  0.14703876019E+02 -0.14428783732E+03  0.41273089860E+03  0.45500457932E+03  0.12508872280E+03 0.  0.
          5    1    3    3  502    0  0.32926632999E+02 -0.77208783039E+02  0.35421183569E+03  0.36404512945E+03  0.41800000000E+01 0.  1.
         -5    1    3    3    0  502 -0.18222756980E+02 -0.67079054279E+02  0.58519062912E+02  0.90959449861E+02  0.41800000000E+01 0.  1.
        -11    1    1    2    0    0 -0.50202745020E+02  0.78872922547E+02  0.13111491193E+03  0.16103531802E+03  0.00000000000E+00 0.  1.
         11    1    1    2    0    0  0.35498869001E+02  0.65414914771E+02  0.15686979029E+03  0.17363010073E+03  0.00000000000E+00 0. -1.
</event>
<event>
 7    1  0.2440960E-009  0.9748763E+02  0.7561462E-02  0.1285670E+00
         -2   -1    0    0    0  501 -0.00000000000E+00  0.00000000000E+00  0.32246851857E+02  0.32246851857E+02  0.00000000000E+00 0.  1.
          2   -1    0    0  501    0  0.00000000000E+00 -0.00000000000E+00 -0.45205675476E+03  0.45205675476E+03  0.00000000000E+00 0. -1.
         25    2    1    2    0    0  0.41275480177E+01 -0.36538820779E+02 -0.31292445135E+03  0.33900344911E+03  0.12509797832E+03 0.  0.
          5    1    3    3  502    0  0.41988845569E+02 -0.40513557985E+02 -0.62257303065E+02  0.85427488068E+02  0.41800000000E+01 0.  1.
         -5    1    3    3    0  502 -0.37861297551E+02  0.39747372062E+01 -0.25066714828E+03  0.25357596104E+03  0.41800000000E+01 0.  1.
        -11    1    1    2    0    0 -0.47267829303E+02  0.25241388345E+02 -0.63419151078E+02  0.83026285573E+02  0.00000000000E+00 0.  1.
         11    1    1    2    0    0  0.43140281285E+02  0.11297432434E+02 -0.43466300480E+02  0.62273871940E+02  0.00000000000E+00 0. -1.
</event>
<event>
 7    1  0.2440960E-009  0.7019892E+02  0.7561462E-02  0.1359418E+00
          3   -1    0    0  501    0  0.00000000000E+00  0.00000000000E+00  0.41904716842E+02  0.41904716842E+02  0.00000000000E+00 0. -1.
         -3   -1    0    0    0  501 -0.00000000000E+00 -0.00000000000E+00 -0.34006047937E+03  0.34006047937E+03  0.00000000000E+00 0.  1.
         25    2    1    2    0    0 -0.86843229443E+01  0.82844580911E+01 -0.77528874086E+02  0.14766344493E+03  0.12509882869E+03 0.  0.
          5    1    3    3  502    0  0.16819130567E+02  0.29083415209E+02  0.23575780254E+02  0.41255520938E+02  0.41800000000E+01 0.  1.
         -5    1    3    3    0  502 -0.25503453511E+02 -0.20798957118E+02 -0.10110465434E+03  0.10640792399E+03  0.41800000000E+01 0.  1.
        -11    1    1    2    0    0  0.13461197187E+02 -0.39530433994E+02 -0.16616184662E+03  0.17132897686E+03  0.00000000000E+00 0.  1.
         11    1    1    2    0    0 -0.47768742423E+01  0.31245975903E+02 -0.54465041826E+02  0.62972774425E+02  0.00000000000E+00 0. -1.
</event>
<event>
 7    1  0.2440960E-009  0.1041360E+03  0.7561462E-02  0.1271831E+00
          2   -1    0    0  501    0  0.00000000000E+00  0.00000000000E+00  0.11313629344E+03  0.11313629344E+03  0.00000000000E+00 0. -1.
         -2   -1    0    0    0  501 -0.00000000000E+00 -0.00000000000E+00 -0.12059732195E+03  0.12059732195E+03  0.00000000000E+00 0.  1.
         25    2    1    2    0    0  0.13932073926E+02 -0.33593606291E+02  0.19950579341E+02  0.13178676928E+03  0.12508834427E+03 0.  0.
          5    1    3    3  502    0 -0.31286824064E+02  0.24561511480E+02  0.38703609621E+02  0.55655862260E+02  0.41800000000E+01 0. -1.
         -5    1    3    3    0  502  0.45218897990E+02 -0.58155117771E+02 -0.18753030281E+02  0.76130907016E+02  0.41800000000E+01 0. -1.
        -11    1    1    2    0    0 -0.38664643475E+02 -0.13783191513E+02  0.17102556329E+01  0.41083524650E+02  0.00000000000E+00 0. -1.
         11    1    1    2    0    0  0.24732569549E+02  0.47376797803E+02 -0.29121863481E+02  0.60863321461E+02  0.00000000000E+00 0.  1.
</event>
<event>
 7    1  0.2440960E-009  0.1082729E+03  0.7561462E-02  0.1263802E+00
          1   -1    0    0  501    0  0.00000000000E+00  0.00000000000E+00  0.11875225403E+03  0.11875225403E+03  0.00000000000E+00 0. -1.
         -1   -1    0    0    0  501 -0.00000000000E+00 -0.00000000000E+00 -0.10587010225E+03  0.10587010225E+03  0.00000000000E+00 0.  1.
         25    2    1    2    0    0 -0.24560664931E+02 -0.34384729788E+02 -0.10261759033E+02  0.13242596134E+03  0.12508315487E+03 0.  0.
          5    1    3    3  502    0  0.25708680134E+02  0.34479838730E+02 -0.17792574072E+02  0.46731612482E+02  0.41800000000E+01 0.  1.
         -5    1    3    3    0  502 -0.50269345065E+02 -0.68864568518E+02  0.75308150388E+01  0.85694348854E+02  0.41800000000E+01 0.  1.
        -11    1    1    2    0    0  0.38488517427E+02 -0.11378643380E+02  0.18317384993E+02  0.44117639238E+02  0.00000000000E+00 0. -1.
         11    1    1    2    0    0 -0.13927852496E+02  0.45763373167E+02  0.48265258144E+01  0.48078755706E+02  0.00000000000E+00 0.  1.
</event>
<event>
 7    1  0.2440960E-009  0.1055556E+03  0.7561462E-02  0.1269029E+00
          2   -1    0    0  501    0  0.00000000000E+00  0.00000000000E+00  0.29665947927E+03  0.29665947927E+03  0.00000000000E+00 0. -1.
         -2   -1    0    0    0  501 -0.00000000000E+00 -0.00000000000E+00 -0.43922586372E+02  0.43922586372E+02  0.00000000000E+00 0.  1.
         25    2    1    2    0    0  0.30750559582E+02  0.17210920790E+02  0.14131645928E+03  0.19198981919E+03  0.12509171155E+03 0.  0.
          5    1    3    3  502    0 -0.11972649749E+02 -0.39717625737E+02  0.10284199346E+03  0.11097198815E+03  0.41800000000E+01 0.  1.
         -5    1    3    3    0  502  0.42723209331E+02  0.56928546527E+02  0.38474465820E+02  0.81017831033E+02  0.41800000000E+01 0.  1.
        -11    1    1    2    0    0 -0.42440025183E+02 -0.48660029889E+02  0.68839493493E+02  0.94381301701E+02  0.00000000000E+00 0. -1.
         11    1    1    2    0    0  0.11689465601E+02  0.31449109099E+02  0.42580940123E+02  0.54210944752E+02  0.00000000000E+00 0.  1.
</event>
<event>
 7    1  0.2440960E-009  0.1041529E+03  0.7561462E-02  0.1271798E+00
          4   -1    0    0  501    0  0.00000000000E+00  0.00000000000E+00  0.14785531124E+03  0.14785531124E+03  0.00000000000E+00 0. -1.
         -4   -1    0    0    0  501 -0.00000000000E+00 -0.00000000000E+00 -0.84345119767E+02  0.84345119767E+02  0.00000000000E+00 0.  1.
         25    2    1    2    0    0  0.51933487321E+01 -0.69176483192E+01  0.26895233946E+01  0.12541974153E+03  0.12509217921E+03 0.  0.
          5    1    3    3  502    0  0.17823410816E+01 -0.65071124121E+02  0.11865773125E+02  0.66300052081E+02  0.41800000000E+01 0.  1.
         -5    1    3    3    0  502  0.34110076504E+01  0.58153475802E+02 -0.91762497304E+01  0.59119689445E+02  0.41800000000E+01 0.  1.
        -11    1    1    2    0    0 -0.43258080658E+02 -0.76247638542E+01  0.45513167597E+02  0.63252248899E+02  0.00000000000E+00 0.  1.
         11    1    1    2    0    0  0.38064731926E+02  0.14542412173E+02  0.15307500479E+02  0.43528440580E+02  0.00000000000E+00 0. -1.
</event>
<event>
 7    1  0.2440960E-009  0.1029659E+03  0.7561462E-02  0.1274180E+00
          1   -1    0    0  501    0  0.00000000000E+00  0.00000000000E+00  0.11191235124E+03  0.11191235124E+03  0.00000000000E+00 0. -1.
         -1   -1    0    0    0  501 -0.00000000000E+00 -0.00000000000E+00 -0.38079207746E+03  0.38079207746E+03  0.00000000000E+00 0.  1.
         25    2    1    2    0    0  0.30310676937E+02  0.56937583556E+01 -0.34580600201E+03  0.36902464903E+03  0.12508494931E+03 0.  0.
          5    1    3    3  502    0 -0.42882792022E+02  0.10333304003E+02 -0.21000682789E+03  0.21463003328E+03  0.41800000000E+01 0.  1.
         -5    1    3    3    0  502  0.73193468959E+02 -0.46395456471E+01 -0.13579917412E+03  0.15439461575E+03  0.41800000000E+01 0.  1.
        -11    1    1    2    0    0 -0.42286786566E+02  0.29123377133E+02  0.18414861111E+02  0.54547690358E+02  0.00000000000E+00 0.  1.
         11    1    1    2    0    0  0.11976109629E+02 -0.34817135489E+02  0.58511414673E+02  0.69132089311E+02  0.00000000000E+00 0. -1.
</event>
<event>
 7    1  0.2440960E-009  0.1810677E+03  0.7561462E-02  0.1166774E+00
          2   -1    0    0  501    0  0.00000000000E+00  0.00000000000E+00  0.13256293543E+03  0.13256293543E+03  0.00000000000E+00 0. -1.
         -2   -1    0    0    0  501 -0.00000000000E+00 -0.00000000000E+00 -0.32275047542E+03  0.32275047542E+03  0.00000000000E+00 0.  1.
         25    2    1    2    0    0 -0.14527750684E+03  0.31204230063E+02 -0.20188136449E+03  0.28014795595E+03  0.12509010325E+03 0.  0.
          5    1    3    3  502    0 -0.12395174514E+03  0.72430856319E+02 -0.12580030147E+03  0.19092787204E+03  0.41800000000E+01 0.  1.
         -5    1    3    3    0  502 -0.21325761697E+02 -0.41226626256E+02 -0.76081063015E+02  0.89220083916E+02  0.41800000000E+01 0.  1.
        -11    1    1    2    0    0  0.93853591905E+02 -0.61514351217E+02 -0.74915813587E+01  0.11246615451E+03  0.00000000000E+00 0.  1.
         11    1    1    2    0    0  0.51423914934E+02  0.30310121154E+02  0.19185405850E+02  0.62699300388E+02  0.00000000000E+00 0. -1.
</event>
<event>
 7    1  0.2440960E-009  0.7497683E+02  0.7561462E-02  0.1343943E+00
          1   -1    0    0  501    0  0.00000000000E+00  0.00000000000E+00  0.57377759230E+03  0.57377759230E+03  0.00000000000E+00 0. -1.
         -1   -1    0    0    0  501 -0.00000000000E+00 -0.00000000000E+00 -0.25759414325E+02  0.25759414325E+02  0.00000000000E+00 0.  1.
         25    2    1    2    0    0 -0.16388907881E+02  0.44441279205E+02  0.23378544327E+03  0.26934544996E+03  0.12509082432E+03 0.  0.
          5    1    3    3  502    0 -0.17922025889E+02  0.14505036682E+02  0.23767832945E+03  0.23883060062E+03  0.41800000000E+01 0. -1.
         -5    1    3    3    0  502  0.15331180076E+01  0.29936242523E+02 -0.38928861843E+01  0.30514849337E+02  0.41800000000E+01 0. -1.
        -11    1    1    2    0    0  0.45853542456E+02 -0.37356739485E+01  0.98950211912E+02  0.10912216573E+03  0.00000000000E+00 0. -1.
         11    1    1    2    0    0 -0.29464634575E+02 -0.40705605257E+02  0.21528252279E+03  0.22106939094E+03  0.00000000000E+00 0.  1.
</event>
<event>
 7    1  0.3146834E-009  0.1539344E+03  0.7561462E-02  0.1195720E+00
          3   -1    0    0  501    0  0.00000000000E+00  0.00000000000E+00  0.81252202264E+03  0.81252202264E+03  0.00000000000E+00 0. -1.
         -3   -1    0    0    0  501 -0.00000000000E+00 -0.00000000000E+00 -0.39598209316E+02  0.39598209316E+02  0.00000000000E+00 0.  1.
         25    2    1    2    0    0 -0.99102387312E+02 -0.98094590927E+02  0.48132837391E+03  0.51649660255E+03  0.12509158637E+03 0.  0.
          5    1    3    3  502    0 -0.82316573869E+02 -0.11603467372E+03  0.46597087764E+03  0.48722314708E+03  0.41800000000E+01 0.  1.
         -5    1    3    3    0  502 -0.16785813443E+02  0.17940082797E+02  0.15357496264E+02  0.29273455471E+02  0.41800000000E+01 0.  1.
        -11    1    1    2    0    0  0.55776188797E+02  0.42435171191E+02  0.56038991072E+02  0.89733469291E+02  0.00000000000E+00 0.  1.
         11    1    1    2    0    0  0.43326198516E+02  0.55659419735E+02  0.23555644835E+03  0.24589016011E+03  0.00000000000E+00 0. -1.
</event>
<event>
 7    1  0.2440960E-009  0.1095009E+03  0.7561462E-02  0.1261497E+00
         -1   -1    0    0    0  501 -0.00000000000E+00  0.00000000000E+00  0.21155031122E+02  0.21155031122E+02  0.00000000000E+00 0.  1.
          1   -1    0    0  501    0  0.00000000000E+00 -0.00000000000E+00 -0.65493404795E+03  0.65493404795E+03  0.00000000000E+00 0. -1.
         25    2    1    2    0    0 -0.27462558291E+02  0.33451507746E+02 -0.31305611664E+03  0.33988823545E+03  0.12508670976E+03 0.  0.
          5    1    3    3  502    0  0.19260836808E+02 -0.39882059221E+02 -0.88589566199E+02  0.99131942993E+02  0.41800000000E+01 0. -1.
         -5    1    3    3    0  502 -0.46723395099E+02  0.73333566968E+02 -0.22446655044E+03  0.24075629246E+03  0.41800000000E+01 0. -1.
        -11    1    1    2    0    0  0.45195190601E+02 -0.46955786188E+02 -0.29522996060E+03  0.30233785861E+03  0.00000000000E+00 0. -1.
         11    1    1    2    0    0 -0.17732632310E+02  0.13504278442E+02 -0.25492939584E+02  0.33862985006E+02  0.00000000000E+00 0.  1.
</event>
<event>
 7    1  0.2440960E-009  0.1084723E+03  0.7561462E-02  0.1263425E+00
          2   -1    0    0  501    0  0.00000000000E+00  0.00000000000E+00  0.33035202828E+03  0.33035202828E+03  0.00000000000E+00 0. -1.
         -2   -1    0    0    0  501 -0.00000000000E+00 -0.00000000000E+00 -0.44763567326E+02  0.44763567326E+02  0.00000000000E+00 0.  1.
         25    2    1    2    0    0 -0.21058774180E+02 -0.91206897903E+01  0.24194571318E+03  0.27333419392E+03  0.12508874644E+03 0.  0.
          5    1    3    3  502    0 -0.68520970065E+01  0.57736590566E+02  0.10042596172E+03  0.11611766150E+03  0.41800000000E+01 0. -1.
         -5    1    3    3    0  502 -0.14206677174E+02 -0.66857280356E+02  0.14151975146E+03  0.15721653242E+03  0.41800000000E+01 0. -1.
        -11    1    1    2    0    0 -0.34194031608E+02  0.12239998710E+00  0.26418080859E+02  0.43210667382E+02  0.00000000000E+00 0.  1.
         11    1    1    2    0    0  0.55252805788E+02  0.89982898032E+01  0.17224666910E+02  0.58570734305E+02  0.00000000000E+00 0. -1.
</event>
<event>
 7    1  0.2440960E-009  0.7860405E+02  0.7561462E-02  0.1333060E+00
         -1   -1    0    0    0  501 -0.00000000000E+00  0.00000000000E+00  0.40899869217E+03  0.40899869217E+03  0.00000000000E+00 0.  1.
          1   -1    0    0  501    0  0.00000000000E+00 -0.00000000000E+00 -0.36972488094E+02  0.36972488094E+02  0.00000000000E+00 0. -1.
         25    2    1    2    0    0 -0.14219111694E+02  0.84506515025E+01  0.10764887785E+03  0.16585694168E+03  0.12508656024E+03 0.  0.
          5    1    3    3  502    0  0.30514196255E+00 -0.33702541644E+02  0.11550304106E+03  0.12039260492E+03  0.41800000000E+01 0.  1.
         -5    1    3    3    0  502 -0.14524253657E+02  0.42153193146E+02 -0.78541632163E+01  0.45464336755E+02  0.41800000000E+01 0.  1.
        -11    1    1    2    0    0 -0.29088074647E+02  0.10858021849E+02  0.18551029693E+03  0.18809062441E+03  0.00000000000E+00 0.  1.
         11    1    1    2    0    0  0.43307186342E+02 -0.19308673351E+02  0.78867029298E+02  0.92023614174E+02  0.00000000000E+00 0. -1.
</event>
<event>
 7    1  0.2440960E-009  0.1047930E+03  0.7561462E-02  0.1270528E+00
          3   -1    0    0  501    0  0.00000000000E+00  0.00000000000E+00  0.44288762510E+02  0.44288762510E+02  0.00000000000E+00 0. -1.
         -3   -1    0    0    0  501 -0.00000000000E+00 -0.00000000000E+00 -0.36530640619E+03  0.36530640619E+03  0.00000000000E+00 0.  1.
         25    2    1    2    0    0  0.34370149557E+02 -0.21703049981E+02 -0.95322993610E+02  0.16243559462E+03  0.12508604929E+03 0.  0.
          5    1    3    3  502    0 -0.36530575683E+02  0.23239007331E+02 -0.14550332019E+02  0.45866316435E+02  0.41800000000E+01 0. -1.
         -5    1    3    3    0  502  0.70900725240E+02 -0.44942057312E+02 -0.80772661591E+02  0.11656927818E+03  0.41800000000E+01 0. -1.
        -11    1    1    2    0    0 -0.56171255097E+02  0.21760830500E+02 -0.21420891010E+03  0.22251786627E+03  0.00000000000E+00 0.  1.
         11    1    1    2    0    0  0.21801105540E+02 -0.57780518458E-01 -0.11485739969E+02  0.24641707814E+02  0.00000000000E+00 0. -1.
</event>
<event>
 7    1  0.2440960E-009  0.1221043E+03  0.7561462E-02  0.1239665E+00
          2   -1    0    0  501    0  0.00000000000E+00  0.00000000000E+00  0.52841009694E+02  0.52841009694E+02  0.00000000000E+00 0. -1.
         -2   -1    0    0    0  501 -0.00000000000E+00 -0.00000000000E+00 -0.28691034087E+03  0.28691034087E+03  0.00000000000E+00 0.  1.
         25    2    1    2    0    0 -0.10130768088E+02  0.52351424984E+02 -0.10872860043E+03  0.17411362333E+03  0.12510132341E+03 0.  0.
          5    1    3    3  502    0  0.56756827614E+02  0.34762153803E+02 -0.54661681139E+02  0.86227122199E+02  0.41800000000E+01 0.  1.
         -5    1    3    3    0  502 -0.66887595702E+02  0.17589271181E+02 -0.54066919288E+02  0.87886501130E+02  0.41800000000E+01 0.  1.
        -11    1    1    2    0    0 -0.41250477364E+02 -0.34700677015E+02 -0.59877570024E+02  0.80567128905E+02  0.00000000000E+00 0. -1.
         11    1    1    2    0    0  0.51381245452E+02 -0.17650747970E+02 -0.65463160726E+02  0.85070598331E+02  0.00000000000E+00 0.  1.
</event>
<event>
 7    1  0.2440960E-009  0.1360690E+03  0.7561462E-02  0.1218718E+00
         -2   -1    0    0    0  501 -0.00000000000E+00  0.00000000000E+00  0.34265823014E+02  0.34265823014E+02  0.00000000000E+00 0.  1.
          2   -1    0    0  501    0  0.00000000000E+00 -0.00000000000E+00 -0.68313063765E+03  0.68313063765E+03  0.00000000000E+00 0. -1.
         25    2    1    2    0    0  0.83749183227E+02 -0.36663119803E+02 -0.47993163664E+03  0.50432158767E+03  0.12509107842E+03 0.  0.
          5    1    3    3  502    0  0.82067308818E+02 -0.77874647331E+02 -0.36407307972E+03  0.38126917480E+03  0.41800000000E+01 0.  1.
         -5    1    3    3    0  502  0.16818744093E+01  0.41211527529E+02 -0.11585855691E+03  0.12305241287E+03  0.41800000000E+01 0.  1.
        -11    1    1    2    0    0 -0.95841889613E+02  0.41504806999E+02 -0.10600710051E+03  0.14881472429E+03  0.00000000000E+00 0.  1.
         11    1    1    2    0    0  0.12092706386E+02 -0.48416871965E+01 -0.62926077489E+02  0.64260148699E+02  0.00000000000E+00 0. -1.
</event>
<event>
 7    1  0.2440960E-009  0.7495193E+02  0.7561462E-02  0.1344020E+00
          2   -1    0    0  501    0  0.00000000000E+00  0.00000000000E+00  0.76811408973E+02  0.76811408973E+02  0.00000000000E+00 0.  1.
         -2   -1    0    0    0  501 -0.00000000000E+00 -0.00000000000E+00 -0.15542534848E+03  0.15542534848E+03  0.00000000000E+00 0. -1.
         25    2    1    2    0    0 -0.13725964569E+02  0.54027463003E+01 -0.45157832077E+02  0.13380882528E+03  0.12509188684E+03 0.  0.
          5    1    3    3  502    0  0.24557852907E+02  0.31724615427E+01 -0.78749838099E+02  0.82656893556E+02  0.41800000000E+01 0. -1.
         -5    1    3    3    0  502 -0.38283817477E+02  0.22302847576E+01  0.33592006022E+02  0.51151931726E+02  0.41800000000E+01 0. -1.
        -11    1    1    2    0    0  0.23079463795E+02 -0.42280916351E+02 -0.62352258964E+00  0.48173917393E+02  0.00000000000E+00 0. -1.
         11    1    1    2    0    0 -0.93534992257E+01  0.36878170051E+02 -0.32832584839E+02  0.50254014778E+02  0.00000000000E+00 0.  1.
</event>
<event>
 7    1  0.2440960E-009  0.9232109E+02  0.7561462E-02  0.1297326E+00
          1   -1    0    0  501    0  0.00000000000E+00  0.00000000000E+00  0.61407838393E+03  0.61407838393E+03  0.00000000000E+00 0. -1.
         -1   -1    0    0    0  501 -0.00000000000E+00 -0.00000000000E+00 -0.26219485363E+02  0.26219485363E+02  0.00000000000E+00 0.  1.
         25    2    1    2    0    0 -0.33491356701E+02 -0.25290414013E+02  0.40102607918E+03  0.42217282890E+03  0.12508679091E+03 0.  0.
          5    1    3    3  502    0  0.93058984211E+01 -0.39707953559E+02  0.36668456309E+02  0.55003358165E+02  0.41800000000E+01 0. -1.
         -5    1    3    3    0  502 -0.42797255123E+02  0.14417539547E+02  0.36435762288E+03  0.36716947074E+03  0.41800000000E+01 0. -1.
        -11    1    1    2    0    0  0.57458424782E+02 -0.72102788057E+01  0.15862960731E+03  0.16886921274E+03  0.00000000000E+00 0. -1.
         11    1    1    2    0    0 -0.23967068081E+02  0.32500692818E+02  0.28203212080E+02  0.49255827652E+02  0.00000000000E+00 0.  1.
</event>
<event>
 7    1  0.2440960E-009  0.1085556E+03  0.7561462E-02  0.1263268E+00
         -2   -1    0    0    0  501 -0.00000000000E+00  0.00000000000E+00  0.29413026974E+02  0.29413026974E+02  0.00000000000E+00 0.  1.
          2   -1    0    0  501    0  0.00000000000E+00 -0.00000000000E+00 -0.84269972871E+03  0.84269972871E+03  0.00000000000E+00 0. -1.
         25    2    1    2    0    0  0.67679506454E+02  0.35706792559E+02 -0.70099269222E+03  0.71616878003E+03  0.12510586040E+03 0.  0.
          5    1    3    3  502    0  0.90285703504E+02  0.18814628685E+02 -0.29346437771E+03  0.30764315675E+03  0.41800000000E+01 0.  1.
         -5    1    3    3    0  502 -0.22606197050E+02  0.16892163874E+02 -0.40752831451E+03  0.40852562328E+03  0.41800000000E+01 0.  1.
        -11    1    1    2    0    0 -0.19965932705E+02  0.16234373090E+02 -0.30538878807E+01  0.25913694634E+02  0.00000000000E+00 0.  1.
         11    1    1    2    0    0 -0.47713573749E+02 -0.51941165649E+02 -0.10924012164E+03  0.13003028103E+03  0.00000000000E+00 0. -1.
</event>
<event>
 7    1  0.2440960E-009  0.2671074E+03  0.7561462E-02  0.1102947E+00
         -2   -1    0    0    0  501 -0.00000000000E+00  0.00000000000E+00  0.25411787125E+03  0.25411787125E+03  0.00000000000E+00 0.  1.
          2   -1    0    0  501    0  0.00000000000E+00 -0.00000000000E+00 -0.32895009771E+03  0.32895009771E+03  0.00000000000E+00 0. -1.
         25    2    1    2    0    0  0.18920265478E+03  0.18515315691E+03  0.80466357454E+01  0.29290114494E+03  0.12508795415E+03 0.  0.
          5    1    3    3  502    0  0.15175269344E+03  0.13668983949E+03 -0.47924091943E+02  0.20982655498E+03  0.41800000000E+01 0. -1.
         -5    1    3    3    0  502  0.37449961335E+02  0.48463317420E+02  0.55970727689E+02  0.83074589962E+02  0.41800000000E+01 0. -1.
        -11    1    1    2    0    0 -0.43136763512E+02 -0.71361526487E+02  0.82580695105E+01  0.83794054329E+02  0.00000000000E+00 0.  1.
         11    1    1    2    0    0 -0.14606589126E+03 -0.11379163042E+03 -0.91136931718E+02  0.20637276968E+03  0.00000000000E+00 0. -1.
</event>
<event>
 7    1  0.2440960E-009  0.1736132E+03  0.7561462E-02  0.1174131E+00
          1   -1    0    0  501    0  0.00000000000E+00  0.00000000000E+00  0.17624729857E+04  0.17624729857E+04  0.00000000000E+00 0. -1.
         -1   -1    0    0    0  501 -0.00000000000E+00 -0.00000000000E+00 -0.43345359684E+02  0.43345359684E+02  0.00000000000E+00 0.  1.
         25    2    1    2    0    0  0.16490324761E+03  0.24924194134E+02  0.15034243564E+04  0.15178098600E+04  0.12509068488E+03 0.  0.
          5    1    3    3  502    0  0.64345622316E+02 -0.21330975564E+02  0.10019076439E+04  0.10042070349E+04  0.41800000000E+01 0.  1.
         -5    1    3    3    0  502  0.10055762529E+03  0.46255169699E+02  0.50151671242E+03  0.51360282511E+03  0.41800000000E+01 0.  1.
        -11    1    1    2    0    0 -0.44409284294E+02  0.41160896736E+01  0.12968573161E+03  0.13714049624E+03  0.00000000000E+00 0. -1.
         11    1    1    2    0    0 -0.12049396331E+03 -0.29040283808E+02  0.86017538023E+02  0.15086798907E+03  0.00000000000E+00 0.  1.
</event>
<event>
 7    1  0.2440960E-009  0.1448241E+03  0.7561462E-02  0.1206981E+00
         -1   -1    0    0    0  501 -0.00000000000E+00  0.00000000000E+00  0.57827337897E+03  0.57827337897E+03  0.00000000000E+00 0.  1.
          1   -1    0    0  501    0  0.00000000000E+00 -0.00000000000E+00 -0.49134901917E+02  0.49134901917E+02  0.00000000000E+00 0. -1.
         25    2    1    2    0    0  0.23129916491E+02 -0.10540263851E+03  0.42057218517E+03  0.45185529953E+03  0.12509012565E+03 0.  0.
          5    1    3    3  502    0 -0.41048266224E+01  0.28127464397E+02  0.66634788494E+02  0.72564945343E+02  0.41800000000E+01 0. -1.
         -5    1    3    3    0  502  0.27234743114E+02 -0.13353010291E+03  0.35393739667E+03  0.37929035419E+03  0.41800000000E+01 0. -1.
        -11    1    1    2    0    0  0.13615507312E+02  0.72580530332E+00  0.46445678353E+02  0.48405680146E+02  0.00000000000E+00 0.  1.
         11    1    1    2    0    0 -0.36745423803E+02  0.10467683321E+03  0.62120613539E+02  0.12714730122E+03  0.00000000000E+00 0. -1.
</event>
<event>
 7    1  0.2440960E-009  0.7058537E+02  0.7561462E-02  0.1358114E+00
          1   -1    0    0  501    0  0.00000000000E+00  0.00000000000E+00  0.27471641951E+03  0.27471641951E+03  0.00000000000E+00 0. -1.
         -1   -1    0    0    0  501 -0.00000000000E+00 -0.00000000000E+00 -0.48924483905E+02  0.48924483905E+02  0.00000000000E+00 0.  1.
         25    2    1    2    0    0 -0.29159773062E+02  0.27470668160E+02  0.13394795819E+03  0.18760085672E+03  0.12508835263E+03 0.  0.
          5    1    3    3  502    0 -0.24495811752E+02  0.49175674247E+02  0.15005854101E+03  0.15985408928E+03  0.41800000000E+01 0. -1.
         -5    1    3    3    0  502 -0.46639613100E+01 -0.21705006087E+02 -0.16110582820E+02  0.27746767436E+02  0.41800000000E+01 0. -1.
        -11    1    1    2    0    0 -0.64519051605E+01 -0.27111833507E+02 -0.88446118512E+01  0.29238771437E+02  0.00000000000E+00 0.  1.
         11    1    1    2    0    0  0.35611678223E+02 -0.35883465249E+00  0.10068858927E+03  0.10680127526E+03  0.00000000000E+00 0. -1.
</event>
<event>
 7    1  0.2440960E-009  0.9411705E+02  0.7561462E-02  0.1293177E+00
         -1   -1    0    0    0  501 -0.00000000000E+00  0.00000000000E+00  0.13837069764E+02  0.13837069764E+02  0.00000000000E+00 0.  1.
          1   -1    0    0  501    0  0.00000000000E+00 -0.00000000000E+00 -0.10106798143E+04  0.10106798143E+04  0.00000000000E+00 0. -1.
         25    2    1    2    0    0  0.28911006616E+02  0.33586163441E+02 -0.65435620525E+03  0.66767793163E+03  0.12509156792E+03 0.  0.
          5    1    3    3  502    0  0.55982536288E+02  0.14909438093E+02 -0.60754622573E+03  0.61031649536E+03  0.41800000000E+01 0. -1.
         -5    1    3    3    0  502 -0.27071529671E+02  0.18676725349E+02 -0.46809979519E+02  0.57361436271E+02  0.41800000000E+01 0. -1.
        -11    1    1    2    0    0 -0.59780138551E+02 -0.26116513329E+02 -0.18455143670E+03  0.19574210079E+03  0.00000000000E+00 0.  1.
         11    1    1    2    0    0  0.30869131935E+02 -0.74696501119E+01 -0.15793510262E+03  0.16109685167E+03  0.00000000000E+00 0. -1.
</event>
<event>
 7    1  0.2440960E-009  0.8737827E+02  0.7561462E-02  0.1309328E+00
          2   -1    0    0  501    0  0.00000000000E+00  0.00000000000E+00  0.15140665868E+03  0.15140665868E+03  0.00000000000E+00 0. -1.
         -2   -1    0    0    0  501 -0.00000000000E+00 -0.00000000000E+00 -0.84183952921E+02  0.84183952921E+02  0.00000000000E+00 0.  1.
         25    2    1    2    0    0 -0.11546433238E+01  0.24863859484E+02  0.60159990388E+02  0.14101633556E+03  0.12508732047E+03 0.  0.
          5    1    3    3  502    0  0.51346246208E+02  0.74270978210E+01 -0.85058671148E+01  0.52739178578E+02  0.41800000000E+01 0.  1.
         -5    1    3    3    0  502 -0.52500889532E+02  0.17436761663E+02  0.68665857502E+02  0.88277156986E+02  0.41800000000E+01 0.  1.
        -11    1    1    2    0    0  0.19770107539E+02  0.13940541707E+02 -0.29465795014E+02  0.38123863012E+02  0.00000000000E+00 0.  1.
         11    1    1    2    0    0 -0.18615464215E+02 -0.38804401190E+02  0.36528510386E+02  0.56450413025E+02  0.00000000000E+00 0. -1.
</event>
<event>
 7    1  0.2440960E-009  0.1470314E+03  0.7561462E-02  0.1204169E+00
         -1   -1    0    0    0  501 -0.00000000000E+00  0.00000000000E+00  0.33413047715E+03  0.33413047715E+03  0.00000000000E+00 0.  1.
          1   -1    0    0  501    0  0.00000000000E+00 -0.00000000000E+00 -0.92453080723E+02  0.92453080723E+02  0.00000000000E+00 0. -1.
         25    2    1    2    0    0 -0.40470632984E+02 -0.11562484612E+03  0.54096504923E+02  0.18325352919E+03  0.12509375261E+03 0.  0.
          5    1    3    3  502    0 -0.68984788228E+02 -0.11754013218E+03  0.66638518517E+02  0.15176543819E+03  0.41800000000E+01 0. -1.
         -5    1    3    3    0  502  0.28514155244E+02  0.19152860570E+01 -0.12542013594E+02  0.31488091002E+02  0.41800000000E+01 0. -1.
        -11    1    1    2    0    0 -0.79863838108E+01  0.11762494765E+02 -0.82417281385E+01  0.16433645128E+02  0.00000000000E+00 0. -1.
         11    1    1    2    0    0  0.48457016795E+02  0.10386235135E+03  0.19582261964E+03  0.22689638355E+03  0.00000000000E+00 0.  1.
</event>
<event>
 7    1  0.2440960E-009  0.5829511E+02  0.7561462E-02  0.1405129E+00
         -4   -1    0    0    0  501 -0.00000000000E+00  0.00000000000E+00  0.25779012863E+02  0.25779012863E+02  0.00000000000E+00 0.  1.
          4   -1    0    0  501    0  0.00000000000E+00 -0.00000000000E+00 -0.38912524872E+03  0.38912524872E+03  0.00000000000E+00 0. -1.
         25    2    1    2    0    0 -0.82548318586E+01 -0.69124703365E+01 -0.23708491599E+03  0.26827620516E+03  0.12508773069E+03 0.  0.
          5    1    3    3  502    0 -0.70949037694E+01 -0.24618472557E+02 -0.24642814593E+03  0.24779166724E+03  0.41800000000E+01 0. -1.
         -5    1    3    3    0  502 -0.11599280892E+01  0.17706002221E+02  0.93432299401E+01  0.20484537913E+02  0.41800000000E+01 0. -1.
        -11    1    1    2    0    0 -0.31382330349E+02  0.91857991370E+01 -0.39969717240E+02  0.51641145032E+02  0.00000000000E+00 0.  1.
         11    1    1    2    0    0  0.39637162207E+02 -0.22733288005E+01 -0.86291602627E+02  0.94986911391E+02  0.00000000000E+00 0. -1.
</event>
<event>
 7    1  0.2440960E-009  0.1711708E+03  0.7561462E-02  0.1176632E+00
          1   -1    0    0  501    0  0.00000000000E+00  0.00000000000E+00  0.19810889390E+04  0.19810889390E+04  0.00000000000E+00 0. -1.
         -1   -1    0    0    0  501 -0.00000000000E+00 -0.00000000000E+00 -0.15659951129E+02  0.15659951129E+02  0.00000000000E+00 0.  1.
         25    2    1    2    0    0  0.87728724177E+02 -0.10193704383E+03  0.12140975224E+04  0.12279112349E+04  0.12508284042E+03 0.  0.
          5    1    3    3  502    0 -0.21138107412E+02 -0.61370552020E+02  0.34559176771E+03  0.35165936153E+03  0.41800000000E+01 0. -1.
         -5    1    3    3    0  502  0.10886683159E+03 -0.40566491812E+02  0.86850575466E+03  0.87625187336E+03  0.41800000000E+01 0. -1.
        -11    1    1    2    0    0  0.11661738694E+02  0.45028564074E+02  0.16530326955E+03  0.17172285421E+03  0.00000000000E+00 0.  1.
         11    1    1    2    0    0 -0.99390462871E+02  0.56908479758E+02  0.58602819592E+03  0.59711480101E+03  0.00000000000E+00 0. -1.
</event>
<event>
 7    1  0.2440960E-009  0.1504458E+03  0.7561462E-02  0.1199926E+00
         -1   -1    0    0    0  501 -0.00000000000E+00  0.00000000000E+00  0.31703505035E+03  0.31703505035E+03  0.00000000000E+00 0.  1.
          1   -1    0    0  501    0  0.00000000000E+00 -0.00000000000E+00 -0.98134647559E+02  0.98134647559E+02  0.00000000000E+00 0. -1.
         25    2    1    2    0    0 -0.70400172852E+02 -0.11324718740E+03  0.70029481668E+02  0.19579129315E+03  0.12509593270E+03 0.  0.
          5    1    3    3  502    0  0.45441448616E+01  0.67283489542E+01  0.52384296064E+02  0.53174305885E+02  0.41800000000E+01 0. -1.
         -5    1    3    3    0  502 -0.74944317713E+02 -0.11997553636E+03  0.17645185604E+02  0.14261698726E+03  0.41800000000E+01 0. -1.
        -11    1    1    2    0    0 -0.13960292367E+02  0.11648931507E+02  0.53441994635E+02  0.56450280414E+02  0.00000000000E+00 0.  1.
         11    1    1    2    0    0  0.84360465218E+02  0.10159825589E+03  0.95428926492E+02  0.16292812435E+03  0.00000000000E+00 0. -1.
</event>
<event>
 7    1  0.2440960E-009  0.1029054E+03  0.7561462E-02  0.1274302E+00
         -1   -1    0    0    0  501 -0.00000000000E+00  0.00000000000E+00  0.93761729411E+02  0.93761729411E+02  0.00000000000E+00 0.  1.
          1   -1    0    0  501    0  0.00000000000E+00 -0.00000000000E+00 -0.16570343782E+03  0.16570343782E+03  0.00000000000E+00 0. -1.
         25    2    1    2    0    0 -0.40453068324E+02 -0.25569742355E+02 -0.12616817513E+01  0.13393893777E+03  0.12509110580E+03 0.  0.
          5    1    3    3  502    0 -0.46243747277E+02  0.43047626214E+02  0.97958264662E+01  0.64070374598E+02  0.41800000000E+01 0.  1.
         -5    1    3    3    0  502  0.57906789538E+01 -0.68617368569E+02 -0.11057508218E+02  0.69868563175E+02  0.41800000000E+01 0.  1.
        -11    1    1    2    0    0  0.47374162613E+02  0.37022064138E+02 -0.86160109684E+02  0.10506430896E+03  0.00000000000E+00 0. -1.
         11    1    1    2    0    0 -0.69210942892E+01 -0.11452321783E+02  0.15480083021E+02  0.20461920504E+02  0.00000000000E+00 0.  1.
</event>
<event>
 7    1  0.2440960E-009  0.7958937E+02  0.7561462E-02  0.1330221E+00
         -2   -1    0    0    0  501 -0.00000000000E+00  0.00000000000E+00  0.25872836617E+02  0.25872836617E+02  0.00000000000E+00 0.  1.
          2   -1    0    0  501    0  0.00000000000E+00 -0.00000000000E+00 -0.57633766285E+03  0.57633766285E+03  0.00000000000E+00 0. -1.
         25    2    1    2    0    0 -0.34969984383E+02 -0.26152694355E+02 -0.40357081700E+03  0.42476353080E+03  0.12509112492E+03 0.  0.
          5    1    3    3  502    0 -0.36198056149E+02 -0.34540811922E+02 -0.41017270320E+03  0.41323417792E+03  0.41800000000E+01 0.  1.
         -5    1    3    3    0  502  0.12280717664E+01  0.83881175665E+01  0.66018861904E+01  0.11529352880E+02  0.41800000000E+01 0.  1.
        -11    1    1    2    0    0  0.48532611206E+02  0.51503832352E+02 -0.10635055421E+03  0.12774388235E+03  0.00000000000E+00 0. -1.
         11    1    1    2    0    0 -0.13562626823E+02 -0.25351137997E+02 -0.40543455014E+02  0.49703086308E+02  0.00000000000E+00 0.  1.
</event>
<event>
 7    1  0.2440960E-009  0.9699586E+02  0.7561462E-02  0.1286743E+00
          1   -1    0    0  501    0  0.00000000000E+00  0.00000000000E+00  0.20715833956E+04  0.20715833956E+04  0.00000000000E+00 0. -1.
         -1   -1    0    0    0  501 -0.00000000000E+00 -0.00000000000E+00 -0.96299964747E+01  0.96299964747E+01  0.00000000000E+00 0.  1.
         25    2    1    2    0    0  0.37704883891E+02 -0.65244027149E+01  0.17370053245E+04  0.17419239820E+04  0.12508971029E+03 0.  0.
          5    1    3    3  502    0 -0.22506894621E+02 -0.24416881976E+02  0.15078605512E+03  0.15445598483E+03  0.41800000000E+01 0. -1.
         -5    1    3    3    0  502  0.60211778511E+02  0.17892479261E+02  0.15862192693E+04  0.15874679971E+04  0.41800000000E+01 0. -1.
        -11    1    1    2    0    0 -0.42914867544E+02 -0.35210109029E+02  0.18053447216E+03  0.18887597326E+03  0.00000000000E+00 0.  1.
         11    1    1    2    0    0  0.52099836528E+01  0.41734511744E+02  0.14441360249E+03  0.15041343684E+03  0.00000000000E+00 0. -1.
</event>
<event>
 7    1  0.2440960E-009  0.1151721E+03  0.7561462E-02  0.1251281E+00
          1   -1    0    0  501    0  0.00000000000E+00  0.00000000000E+00  0.89230999160E+02  0.89230999160E+02  0.00000000000E+00 0. -1.
         -1   -1    0    0    0  501 -0.00000000000E+00 -0.00000000000E+00 -0.18654537236E+03  0.18654537236E+03  0.00000000000E+00 0.  1.
         25    2    1    2    0    0 -0.33993369642E+02 -0.60964349890E+02 -0.57601616429E+02  0.15439127603E+03  0.12508604544E+03 0.  0.
          5    1    3    3  502    0  0.38261689671E+01 -0.80220034158E+02 -0.73433190640E+02  0.10890270583E+03  0.41800000000E+01 0. -1.
         -5    1    3    3    0  502 -0.37819538609E+02  0.19255684267E+02  0.15831574211E+02  0.45488570204E+02  0.41800000000E+01 0. -1.
        -11    1    1    2    0    0  0.35773094310E+02 -0.93242888622E+01  0.60964275703E+01  0.37467626939E+02  0.00000000000E+00 0. -1.
         11    1    1    2    0    0 -0.17797246677E+01  0.70288638752E+02 -0.45809184341E+02  0.83917468548E+02  0.00000000000E+00 0.  1.
</event>
<event>
 7    1  0.2440960E-009  0.1758719E+03  0.7561462E-02  0.1171859E+00
          2   -1    0    0  501    0  0.00000000000E+00  0.00000000000E+00  0.18006421975E+04  0.18006421975E+04  0.00000000000E+00 0. -1.
         -2   -1    0    0    0  501 -0.00000000000E+00 -0.00000000000E+00 -0.28419577362E+02  0.28419577362E+02  0.00000000000E+00 0.  1.
         25    2    1    2    0    0  0.14109454006E+03 -0.92997167525E+01  0.14735460976E+04  0.14855907840E+04  0.12509085477E+03 0.  0.
          5    1    3    3  502    0  0.88072878748E+02 -0.66671672177E+02  0.87257940851E+03  0.87955343237E+03  0.41800000000E+01 0.  1.
         -5    1    3    3    0  502  0.53021661313E+02  0.57371955425E+02  0.60096668906E+03  0.60603735165E+03  0.41800000000E+01 0.  1.
        -11    1    1    2    0    0  0.82765895485E+01 -0.92950799121E+01  0.48978944817E+01  0.13374969738E+02  0.00000000000E+00 0.  1.
         11    1    1    2    0    0 -0.14937112961E+03  0.18594796665E+02  0.29377862806E+03  0.33009602107E+03  0.00000000000E+00 0. -1.
</event>
<event>
 7    1  0.2440960E-009  0.8388257E+02  0.7561462E-02  0.1318381E+00
          1   -1    0    0  501    0  0.00000000000E+00  0.00000000000E+00  0.50140367357E+02  0.50140367357E+02  0.00000000000E+00 0. -1.
         -1   -1    0    0    0  501 -0.00000000000E+00 -0.00000000000E+00 -0.30260198257E+03  0.30260198257E+03  0.00000000000E+00 0.  1.
         25    2    1    2    0    0 -0.52884989108E+02 -0.12846829993E+02 -0.10868593070E+03  0.17441975624E+03  0.12509099376E+03 0.  0.
          5    1    3    3  502    0  0.40781684393E+01  0.50991528082E+01  0.25944292096E+02  0.27077878601E+02  0.41800000000E+01 0.  1.
         -5    1    3    3    0  502 -0.56963157547E+02 -0.17945982802E+02 -0.13463022279E+03  0.14734187764E+03  0.41800000000E+01 0.  1.
        -11    1    1    2    0    0  0.22014318405E+02 -0.36094992404E+02 -0.89515609848E+02  0.98997591374E+02  0.00000000000E+00 0.  1.
         11    1    1    2    0    0  0.30870670703E+02  0.48941822397E+02 -0.54260074670E+02  0.79325002316E+02  0.00000000000E+00 0. -1.
</event>
<event>
 7    1  0.2440960E-009  0.1184196E+03  0.7561462E-02  0.1245727E+00
          1   -1    0    0  501    0  0.00000000000E+00  0.00000000000E+00  0.63111187503E+03  0.63111187503E+03  0.00000000000E+00 0. -1.
         -1   -1    0    0    0  501 -0.00000000000E+00 -0.00000000000E+00 -0.23798628581E+02  0.23798628581E+02  0.00000000000E+00 0.  1.
         25    2    1    2    0    0 -0.37597124501E+02 -0.36179315241E+02  0.35255222966E+03  0.37770839551E+03  0.12509224908E+03 0.  0.
          5    1    3    3  502    0  0.43112119163E+02 -0.11868503282E+01  0.16359235357E+03  0.16923354862E+03  0.41800000000E+01 0. -1.
         -5    1    3    3    0  502 -0.80709243663E+02 -0.34992464912E+02  0.18895987609E+03  0.20847484689E+03  0.41800000000E+01 0. -1.
        -11    1    1    2    0    0 -0.25891885558E+02  0.32901193969E+02  0.13856122283E+03  0.14474837054E+03  0.00000000000E+00 0. -1.
         11    1    1    2    0    0  0.63489010059E+02  0.32781212715E+01  0.11619979396E+03  0.13245373756E+03  0.00000000000E+00 0.  1.
</event>
<event>
 7    1  0.2440960E-009  0.1448529E+03  0.7561462E-02  0.1206944E+00
         -1   -1    0    0    0  501 -0.00000000000E+00  0.00000000000E+00  0.78191933450E+02  0.78191933450E+02  0.00000000000E+00 0.  1.
          1   -1    0    0  501    0  0.00000000000E+00 -0.00000000000E+00 -0.15703533687E+04  0.15703533687E+04  0.00000000000E+00 0. -1.
         25    2    1    2    0    0  0.34587642387E+02  0.94257836415E+02 -0.15038383399E+04  0.15123682533E+04  0.12508851383E+03 0.  0.
          5    1    3    3  502    0  0.25140606504E+02 -0.25755485753E+02 -0.50381606648E+03  0.50511730953E+03  0.41800000000E+01 0.  1.
         -5    1    3    3    0  502  0.94470358826E+01  0.12001332217E+03 -0.10000222735E+04  0.10072509438E+04  0.41800000000E+01 0.  1.
        -11    1    1    2    0    0 -0.64176602320E+02 -0.67157146692E+02  0.20425709756E+02  0.95110084935E+02  0.00000000000E+00 0. -1.
         11    1    1    2    0    0  0.29588959933E+02 -0.27100689723E+02 -0.87488050838E+01  0.41066963898E+02  0.00000000000E+00 0.  1.
</event>
<event>
 7    1  0.2440960E-009  0.1576273E+03  0.7561462E-02  0.1191402E+00
          1   -1    0    0  501    0  0.00000000000E+00  0.00000000000E+00  0.28950913784E+03  0.28950913784E+03  0.00000000000E+00 0. -1.
         -1   -1    0    0    0  501 -0.00000000000E+00 -0.00000000000E+00 -0.11145324800E+03  0.11145324800E+03  0.00000000000E+00 0.  1.
         25    2    1    2    0    0 -0.12149990297E+03  0.34163310058E+02  0.10707282792E+03  0.20746529012E+03  0.12509155827E+03 0.  0.
          5    1    3    3  502    0 -0.10943546329E+03  0.46245810058E+02  0.22380106879E+02  0.12096750455E+03  0.41800000000E+01 0. -1.
         -5    1    3    3    0  502 -0.12064439677E+02 -0.12082500000E+02  0.84692721040E+02  0.86497785568E+02  0.41800000000E+01 0. -1.
        -11    1    1    2    0    0  0.27112556387E+02 -0.72131780695E+02  0.19563920569E+02  0.79503657073E+02  0.00000000000E+00 0.  1.
         11    1    1    2    0    0  0.94387346580E+02  0.37968470637E+02  0.51419141353E+02  0.11399343865E+03  0.00000000000E+00 0. -1.
</event>
<event>
 7    1  0.2440960E-009  0.4276709E+03  0.7561462E-02  0.1034598E+00
         -1   -1    0    0    0  501 -0.00000000000E+00  0.00000000000E+00  0.37592406446E+03  0.37592406446E+03  0.00000000000E+00 0.  1.
          1   -1    0    0  501    0  0.00000000000E+00 -0.00000000000E+00 -0.50735695050E+03  0.50735695050E+03  0.00000000000E+00 0. -1.
         25    2    1    2    0    0  0.41260351090E+03 -0.79553543550E+02 -0.11622633470E+03  0.45357163320E+03  0.12509293369E+03 0.  0.
          5    1    3    3  502    0  0.70635902222E+02  0.13720508306E+02 -0.61777831945E+02  0.94929742182E+02  0.41800000000E+01 0. -1.
         -5    1    3    3    0  502  0.34196760868E+03 -0.93274051856E+02 -0.54448502757E+02  0.35864189101E+03  0.41800000000E+01 0. -1.
        -11    1    1    2    0    0 -0.23067269675E+03  0.11542099678E+01  0.36979107490E+01  0.23070522268E+03  0.00000000000E+00 0. -1.
         11    1    1    2    0    0 -0.18193081415E+03  0.78399333583E+02 -0.18904462088E+02  0.19900415908E+03  0.00000000000E+00 0.  1.
</event>
<event>
 7    1  0.2440960E-009  0.1105589E+03  0.7561462E-02  0.1259538E+00
          1   -1    0    0  501    0  0.00000000000E+00  0.00000000000E+00  0.18967893572E+02  0.18967893572E+02  0.00000000000E+00 0. -1.
         -1   -1    0    0    0  501 -0.00000000000E+00 -0.00000000000E+00 -0.89194482862E+03  0.89194482862E+03  0.00000000000E+00 0.  1.
         25    2    1    2    0    0  0.46497585650E+02 -0.31512784417E+02 -0.62764923053E+03  0.64245217271E+03  0.12508459770E+03 0.  0.
          5    1    3    3  502    0  0.79276054307E+02 -0.43139790573E+02 -0.31061689311E+03  0.32349043417E+03  0.41800000000E+01 0. -1.
         -5    1    3    3    0  502 -0.32778468657E+02  0.11627006156E+02 -0.31703233742E+03  0.31896173853E+03  0.41800000000E+01 0. -1.
        -11    1    1    2    0    0 -0.54636890262E+02  0.50924003677E+02 -0.23156437067E+03  0.24331153218E+03  0.00000000000E+00 0.  1.
         11    1    1    2    0    0  0.81393046121E+01 -0.19411219260E+02 -0.13763333853E+02  0.25149017306E+02  0.00000000000E+00 0. -1.
</event>
<event>
 7    1  0.2666818E-009  0.2448628E+03  0.7561462E-02  0.1116595E+00
          2   -1    0    0  501    0  0.00000000000E+00  0.00000000000E+00  0.11779936899E+04  0.11779936899E+04  0.00000000000E+00 0. -1.
         -2   -1    0    0    0  501 -0.00000000000E+00 -0.00000000000E+00 -0.54016373936E+02  0.54016373936E+02  0.00000000000E+00 0.  1.
         25    2    1    2    0    0  0.16392335240E+02 -0.22442253783E+03  0.65674937452E+03  0.70540861887E+03  0.12508954598E+03 0.  0.
          5    1    3    3  502    0 -0.38209477125E+02 -0.34256966807E+02  0.75416689639E+02  0.91316227436E+02  0.41800000000E+01 0. -1.
         -5    1    3    3    0  502  0.54601812364E+02 -0.19016557102E+03  0.58133268488E+03  0.61409239144E+03  0.41800000000E+01 0. -1.
        -11    1    1    2    0    0  0.33901299978E+02  0.11547732089E+03  0.27214753532E+03  0.29757115243E+03  0.00000000000E+00 0. -1.
         11    1    1    2    0    0 -0.50293635218E+02  0.10894521694E+03  0.19508040610E+03  0.22903029249E+03  0.00000000000E+00 0.  1.
</event>
<event>
 7    1  0.2440960E-009  0.1197075E+03  0.7561462E-02  0.1243580E+00
          4   -1    0    0  501    0  0.00000000000E+00  0.00000000000E+00  0.15761617716E+02  0.15761617716E+02  0.00000000000E+00 0. -1.
         -4   -1    0    0    0  501 -0.00000000000E+00 -0.00000000000E+00 -0.12932729030E+04  0.12932729030E+04  0.00000000000E+00 0.  1.
         25    2    1    2    0    0 -0.18681843058E+02 -0.86673269888E+02 -0.83016886476E+03  0.84420885666E+03  0.12508789979E+03 0.  0.
          5    1    3    3  502    0  0.10236866150E+02 -0.85127921399E+02 -0.27091376540E+03  0.28418884059E+03  0.41800000000E+01 0. -1.
         -5    1    3    3    0  502 -0.28918709208E+02 -0.15453484892E+01 -0.55925509936E+03  0.56002001607E+03  0.41800000000E+01 0. -1.
        -11    1    1    2    0    0 -0.17172200697E+02 -0.10913723489E+02 -0.10854114450E+03  0.11043176122E+03  0.00000000000E+00 0.  1.
         11    1    1    2    0    0  0.35854043755E+02  0.97586993377E+02 -0.33880127599E+03  0.35439390280E+03  0.00000000000E+00 0. -1.
</event>
<event>
 7    1  0.2440960E-009  0.1106677E+03  0.7561462E-02  0.1259338E+00
         -1   -1    0    0    0  501 -0.00000000000E+00  0.00000000000E+00  0.15994955720E+02  0.15994955720E+02  0.00000000000E+00 0.  1.
          1   -1    0    0  501    0  0.00000000000E+00 -0.00000000000E+00 -0.86811211534E+03  0.86811211534E+03  0.00000000000E+00 0. -1.
         25    2    1    2    0    0  0.15221536390E+02  0.25392402882E+02 -0.61691908627E+03  0.63016911337E+03  0.12508990028E+03 0.  0.
          5    1    3    3  502    0 -0.22793407730E+02  0.65927457638E+02 -0.27510528121E+03  0.28384213439E+03  0.41800000000E+01 0.  1.
         -5    1    3    3    0  502  0.38014944120E+02 -0.40535054757E+02 -0.34181380506E+03  0.34632697898E+03  0.41800000000E+01 0.  1.
        -11    1    1    2    0    0 -0.17613184161E+02  0.32934801651E+02 -0.89499944057E+02  0.96980232019E+02  0.00000000000E+00 0.  1.
         11    1    1    2    0    0  0.23916477717E+01 -0.58327204533E+02 -0.14569812930E+03  0.15695772567E+03  0.00000000000E+00 0. -1.
</event>
<event>
 7    1  0.2440960E-009  0.2609298E+03  0.7561462E-02  0.1106586E+00
          1   -1    0    0  501    0  0.00000000000E+00  0.00000000000E+00  0.29577798225E+04  0.29577798225E+04  0.00000000000E+00 0. -1.
         -1   -1    0    0    0  501 -0.00000000000E+00 -0.00000000000E+00 -0.30668396010E+02  0.30668396010E+02  0.00000000000E+00 0.  1.
         25    2    1    2    0    0 -0.16709413836E+03  0.18680472753E+03  0.21261536162E+04  0.21445264984E+04  0.12509294713E+03 0.  0.
          5    1    3    3  502    0 -0.17749564385E+03  0.17582530284E+03  0.20928232114E+04  0.21076872888E+04  0.41800000000E+01 0.  1.
         -5    1    3    3    0  502  0.10401505486E+02  0.10979424682E+02  0.33330404836E+02  0.36839209671E+02  0.41800000000E+01 0.  1.
        -11    1    1    2    0    0  0.11098853904E+03 -0.84055140544E+02  0.54431722937E+03  0.56184069685E+03  0.00000000000E+00 0.  1.
         11    1    1    2    0    0  0.56105599325E+02 -0.10274958698E+03  0.25664058094E+03  0.28208102326E+03  0.00000000000E+00 0. -1.
</event>
<event>
 7    1  0.2440960E-009  0.1051723E+03  0.7561462E-02  0.1269780E+00
          2   -1    0    0  501    0  0.00000000000E+00  0.00000000000E+00  0.49979869357E+03  0.49979869357E+03  0.00000000000E+00 0.  1.
         -2   -1    0    0    0  501 -0.00000000000E+00 -0.00000000000E+00 -0.42648106521E+02  0.42648106521E+02  0.00000000000E+00 0. -1.
         25    2    1    2    0    0  0.91841534102E+02  0.15808868411E+02  0.19884380965E+03  0.25272746007E+03  0.12509005049E+03 0.  0.
          5    1    3    3  502    0  0.51113580945E+01  0.85200868607E+01 -0.16903682849E+02  0.20048061142E+02  0.41800000000E+01 0. -1.
         -5    1    3    3    0  502  0.86730176008E+02  0.72887815501E+01  0.21574749250E+03  0.23267939893E+03  0.41800000000E+01 0. -1.
        -11    1    1    2    0    0 -0.88144844132E+02 -0.33544875064E+02  0.25421510281E+03  0.27114588451E+03  0.00000000000E+00 0.  1.
         11    1    1    2    0    0 -0.36966899696E+01  0.17736006653E+02  0.40916745945E+01  0.18573455514E+02  0.00000000000E+00 0. -1.
</event>
<event>
 7    1  0.2440960E-009  0.9639044E+02  0.7561462E-02  0.1288075E+00
          1   -1    0    0  501    0  0.00000000000E+00  0.00000000000E+00  0.13561328973E+03  0.13561328973E+03  0.00000000000E+00 0. -1.
         -1   -1    0    0    0  501 -0.00000000000E+00 -0.00000000000E+00 -0.10873822318E+03  0.10873822318E+03  0.00000000000E+00 0.  1.
         25    2    1    2    0    0 -0.41122047460E+02  0.30594428236E+02  0.25627296237E+02  0.13759598157E+03  0.12509537963E+03 0.  0.
          5    1    3    3  502    0 -0.31531579502E+02 -0.46292416152E+02  0.96265358143E+00  0.56174971304E+02  0.41800000000E+01 0. -1.
         -5    1    3    3    0  502 -0.95904679581E+01  0.76886844387E+02  0.24664642656E+02  0.81421010267E+02  0.41800000000E+01 0. -1.
        -11    1    1    2    0    0  0.66073404741E+01 -0.22660257658E+02  0.44790288660E+02  0.50629183121E+02  0.00000000000E+00 0. -1.
         11    1    1    2    0    0  0.34514706986E+02 -0.79341705775E+01 -0.43542518344E+02  0.56126348223E+02  0.00000000000E+00 0.  1.
</event>
<event>
 7    1  0.2440960E-009  0.9205804E+02  0.7561462E-02  0.1297943E+00
         -2   -1    0    0    0  501 -0.00000000000E+00  0.00000000000E+00  0.51692479367E+03  0.51692479367E+03  0.00000000000E+00 0. -1.
          2   -1    0    0  501    0  0.00000000000E+00 -0.00000000000E+00 -0.31602980880E+02  0.31602980880E+02  0.00000000000E+00 0.  1.
         25    2    1    2    0    0  0.55782563308E+02 -0.13312462310E+02  0.34296289013E+03  0.36954035243E+03  0.12509041550E+03 0.  0.
          5    1    3    3  502    0  0.76987816759E+01 -0.25526541857E+02  0.44094621883E+01  0.27345773627E+02  0.41800000000E+01 0. -1.
         -5    1    3    3    0  502  0.48083781632E+02  0.12214079547E+02  0.33855342794E+03  0.34219457881E+03  0.41800000000E+01 0. -1.
        -11    1    1    2    0    0 -0.78697704578E+02 -0.37263974743E+01  0.92265810429E+02  0.12132680874E+03  0.00000000000E+00 0.  1.
         11    1    1    2    0    0  0.22915141269E+02  0.17038859784E+02  0.50093112234E+02  0.57660613381E+02  0.00000000000E+00 0. -1.
</event>
<event>
 7    1  0.2440960E-009  0.1295211E+03  0.7561462E-02  0.1228168E+00
         -2   -1    0    0    0  501 -0.00000000000E+00  0.00000000000E+00  0.18814690063E+03  0.18814690063E+03  0.00000000000E+00 0.  1.
          2   -1    0    0  501    0  0.00000000000E+00 -0.00000000000E+00 -0.98097617214E+02  0.98097617214E+02  0.00000000000E+00 0. -1.
         25    2    1    2    0    0 -0.58706190536E+02 -0.45305883615E+02  0.14079107771E+02  0.14609890758E+03  0.12509048574E+03 0.  0.
          5    1    3    3  502    0 -0.87124411575E+02 -0.66256190665E+02  0.14853222674E+02  0.11053794153E+03  0.41800000000E+01 0. -1.
         -5    1    3    3    0  502  0.28418221039E+02  0.20950307050E+02 -0.77411490241E+00  0.35560966050E+02  0.41800000000E+01 0. -1.
        -11    1    1    2    0    0 -0.15959944205E+02  0.35146059716E+02  0.97094146092E+01  0.39802488172E+02  0.00000000000E+00 0.  1.
         11    1    1    2    0    0  0.74666134741E+02  0.10159823898E+02  0.66260761040E+02  0.10034312210E+03  0.00000000000E+00 0. -1.
</event>
<event>
 7    1  0.2825194E-009  0.1116192E+03  0.7561462E-02  0.1257600E+00
          2   -1    0    0  501    0  0.00000000000E+00  0.00000000000E+00  0.99018945878E+02  0.99018945878E+02  0.00000000000E+00 0. -1.
         -2   -1    0    0    0  501 -0.00000000000E+00 -0.00000000000E+00 -0.19305211261E+03  0.19305211261E+03  0.00000000000E+00 0.  1.
         25    2    1    2    0    0 -0.73880458678E+02  0.42805058755E+02 -0.52270017977E+02  0.16021906104E+03  0.12508955796E+03 0.  0.
          5    1    3    3  502    0  0.66490784465E+00  0.27519089809E+02 -0.75561657108E+02  0.80528124474E+02  0.41800000000E+01 0. -1.
         -5    1    3    3    0  502 -0.74545366522E+02  0.15285968946E+02  0.23291639131E+02  0.79690936561E+02  0.41800000000E+01 0. -1.
        -11    1    1    2    0    0  0.11785901581E+02 -0.54704813911E+02  0.21530725131E+00  0.55960436902E+02  0.00000000000E+00 0. -1.
         11    1    1    2    0    0  0.62094557097E+02  0.11899755156E+02 -0.41978456003E+02  0.75891560547E+02  0.00000000000E+00 0.  1.
</event>
<event>
 7    1  0.2440960E-009  0.1253033E+03  0.7561462E-02  0.1234596E+00
         -1   -1    0    0    0  501 -0.00000000000E+00  0.00000000000E+00  0.44028354178E+02  0.44028354178E+02  0.00000000000E+00 0.  1.
          1   -1    0    0  501    0  0.00000000000E+00 -0.00000000000E+00 -0.55733726877E+03  0.55733726877E+03  0.00000000000E+00 0. -1.
         25    2    1    2    0    0  0.48859992839E+02 -0.60995015188E+02 -0.12099462711E+03  0.19077448050E+03  0.12509001496E+03 0.  0.
          5    1    3    3  502    0  0.54154901991E+02 -0.87021400878E+02 -0.12697112809E+03  0.16323179038E+03  0.41800000000E+01 0. -1.
         -5    1    3    3    0  502 -0.52949091515E+01  0.26026385691E+02  0.59765009841E+01  0.27542690120E+02  0.41800000000E+01 0. -1.
        -11    1    1    2    0    0 -0.37812731209E+02 -0.17644607319E+02 -0.13505713507E+03  0.14135616203E+03  0.00000000000E+00 0.  1.
         11    1    1    2    0    0 -0.11047261631E+02  0.78639622507E+02 -0.25725715241E+03  0.26923498043E+03  0.00000000000E+00 0. -1.
</event>
<event>
 7    1  0.2440960E-009  0.1150226E+03  0.7561462E-02  0.1251542E+00
         -2   -1    0    0    0  501 -0.00000000000E+00  0.00000000000E+00  0.12529209348E+03  0.12529209348E+03  0.00000000000E+00 0.  1.
          2   -1    0    0  501    0  0.00000000000E+00 -0.00000000000E+00 -0.13004337900E+03  0.13004337900E+03  0.00000000000E+00 0. -1.
         25    2    1    2    0    0 -0.62073928702E+02  0.16144015625E+02  0.16663108603E+02  0.14155993130E+03  0.12509097928E+03 0.  0.
          5    1    3    3  502    0 -0.18707901842E+02  0.67083971740E+02 -0.78047308932E+01  0.70204209846E+02  0.41800000000E+01 0. -1.
         -5    1    3    3    0  502 -0.43366026860E+02 -0.50939956116E+02  0.24467839496E+02  0.71355721454E+02  0.41800000000E+01 0. -1.
        -11    1    1    2    0    0 -0.14688474824E+02 -0.57923550449E+01 -0.31917541499E+02  0.35609438706E+02  0.00000000000E+00 0. -1.
         11    1    1    2    0    0  0.76762403525E+02 -0.10351660580E+02  0.10503147377E+02  0.78166102478E+02  0.00000000000E+00 0.  1.
</event>
<event>
 7    1  0.2440960E-009  0.1043966E+03  0.7561462E-02  0.1271313E+00
          1   -1    0    0  501    0  0.00000000000E+00  0.00000000000E+00  0.24142723837E+03  0.24142723837E+03  0.00000000000E+00 0. -1.
         -1   -1    0    0    0  501 -0.00000000000E+00 -0.00000000000E+00 -0.64794705208E+02  0.64794705208E+02  0.00000000000E+00 0.  1.
         25    2    1    2    0    0  0.29755080842E+02 -0.26189549679E+02  0.35614064489E+02  0.13596356663E+03  0.12508586056E+03 0.  0.
          5    1    3    3  502    0  0.22923503591E+02 -0.67450565944E+02 -0.12096143403E+02  0.72379934708E+02  0.41800000000E+01 0. -1.
         -5    1    3    3    0  502  0.68315772508E+01  0.41261016266E+02  0.47710207892E+02  0.63583631920E+02  0.41800000000E+01 0. -1.
        -11    1    1    2    0    0  0.25237091094E+02  0.31258508812E+02  0.58732401511E+02  0.71158275185E+02  0.00000000000E+00 0.  1.
         11    1    1    2    0    0 -0.54992171936E+02 -0.50689591333E+01  0.82286067166E+02  0.99100101768E+02  0.00000000000E+00 0. -1.
</event>
<event>
 7    1  0.2440960E-009  0.1059289E+03  0.7561462E-02  0.1268300E+00
          2   -1    0    0  501    0  0.00000000000E+00  0.00000000000E+00  0.32067635405E+03  0.32067635405E+03  0.00000000000E+00 0. -1.
         -2   -1    0    0    0  501 -0.00000000000E+00 -0.00000000000E+00 -0.61958997371E+02  0.61958997371E+02  0.00000000000E+00 0.  1.
         25    2    1    2    0    0 -0.34531511084E+01 -0.44116796476E+02  0.36019305530E+02  0.13748493976E+03  0.12508597965E+03 0.  0.
          5    1    3    3  502    0 -0.52497662233E+02 -0.59291131301E+02  0.10478147018E+02  0.79991916816E+02  0.41800000000E+01 0.  1.
         -5    1    3    3    0  502  0.49044511125E+02  0.15174334825E+02  0.25541158511E+02  0.57493022942E+02  0.41800000000E+01 0.  1.
        -11    1    1    2    0    0 -0.26028333420E+02 -0.22237863348E+01  0.14599800958E+02  0.29926134970E+02  0.00000000000E+00 0.  1.
         11    1    1    2    0    0  0.29481484528E+02  0.46340582810E+02  0.20809825020E+03  0.21522427670E+03  0.00000000000E+00 0. -1.
</event>
<event>
 7    1  0.2440960E-009  0.1789782E+03  0.7561462E-02  0.1168796E+00
          1   -1    0    0  501    0  0.00000000000E+00  0.00000000000E+00  0.17873433891E+04  0.17873433891E+04  0.00000000000E+00 0. -1.
         -1   -1    0    0    0  501 -0.00000000000E+00 -0.00000000000E+00 -0.32142920602E+02  0.32142920602E+02  0.00000000000E+00 0.  1.
         25    2    1    2    0    0  0.90671677345E+02  0.11615135395E+03  0.14904170153E+04  0.15028979262E+04  0.12508719656E+03 0.  0.
          5    1    3    3  502    0  0.31038150831E+02  0.12229108104E+03  0.11787344073E+04  0.11854749051E+04  0.41800000000E+01 0.  1.
         -5    1    3    3    0  502  0.59633526514E+02 -0.61397270887E+01  0.31168260802E+03  0.31742302102E+03  0.41800000000E+01 0.  1.
        -11    1    1    2    0    0 -0.64654613140E+02 -0.13922155123E+02  0.12557793594E+03  0.14192907876E+03  0.00000000000E+00 0.  1.
         11    1    1    2    0    0 -0.26017064205E+02 -0.10222919883E+03  0.13920551724E+03  0.17465930480E+03  0.00000000000E+00 0. -1.
</event>
<event>
 7    1  0.2440960E-009  0.9530523E+02  0.7561462E-02  0.1290490E+00
         -3   -1    0    0    0  501 -0.00000000000E+00  0.00000000000E+00  0.63400335999E+02  0.63400335999E+02  0.00000000000E+00 0.  1.
          3   -1    0    0  501    0  0.00000000000E+00 -0.00000000000E+00 -0.23792955169E+03  0.23792955169E+03  0.00000000000E+00 0. -1.
         25    2    1    2    0    0  0.46442014558E+02  0.18683296746E+02 -0.12970177887E+03  0.18702465561E+03  0.12509893713E+03 0.  0.
          5    1    3    3  502    0  0.49852441741E+02  0.55045663841E+02 -0.13055129694E+03  0.15025446612E+03  0.41800000000E+01 0. -1.
         -5    1    3    3    0  502 -0.34104271826E+01 -0.36362367095E+02  0.84951807773E+00  0.36770189492E+02  0.41800000000E+01 0. -1.
        -11    1    1    2    0    0 -0.47546303841E+02  0.11780286736E+02 -0.62236255054E+02  0.79200868730E+02  0.00000000000E+00 0.  1.
         11    1    1    2    0    0  0.11042892827E+01 -0.30463583482E+02  0.17408818233E+02  0.35104363342E+02  0.00000000000E+00 0. -1.
</event>
<event>
 7    1  0.2440960E-009  0.1228126E+03  0.7561462E-02  0.1238528E+00
          2   -1    0    0  501    0  0.00000000000E+00  0.00000000000E+00  0.93876988236E+03  0.93876988236E+03  0.00000000000E+00 0. -1.
         -2   -1    0    0    0  501 -0.00000000000E+00 -0.00000000000E+00 -0.19502015298E+02  0.19502015298E+02  0.00000000000E+00 0.  1.
         25    2    1    2    0    0  0.41134610246E+02 -0.70988874458E+02  0.62171794440E+03  0.63946266241E+03  0.12509123778E+03 0.  0.
          5    1    3    3  502    0  0.34295242644E+02  0.21962825980E+02  0.81032162589E+02  0.90786635398E+02  0.41800000000E+01 0. -1.
         -5    1    3    3    0  502  0.68393676027E+01 -0.92951700438E+02  0.54068578181E+03  0.54867602701E+03  0.41800000000E+01 0. -1.
        -11    1    1    2    0    0 -0.40935983961E+02  0.53910304909E+00  0.14694190796E+03  0.15253842050E+03  0.00000000000E+00 0. -1.
         11    1    1    2    0    0 -0.19862628509E+00  0.70449771409E+02  0.15060801471E+03  0.16627081475E+03  0.00000000000E+00 0.  1.
</event>
<event>
 7    1  0.2440960E-009  0.9696720E+02  0.7561462E-02  0.1286806E+00
         -2   -1    0    0    0  501 -0.00000000000E+00  0.00000000000E+00  0.16387238595E+03  0.16387238595E+03  0.00000000000E+00 0.  1.
          2   -1    0    0  501    0  0.00000000000E+00 -0.00000000000E+00 -0.10699123645E+03  0.10699123645E+03  0.00000000000E+00 0. -1.
         25    2    1    2    0    0  0.14411875723E+02 -0.38489982062E+02  0.85599749304E+02  0.15704794015E+03  0.12509019763E+03 0.  0.
          5    1    3    3  502    0 -0.11776305033E+01  0.21460433826E+02 -0.23124670329E+02  0.31845875894E+02  0.41800000000E+01 0.  1.
         -5    1    3    3    0  502  0.15589506227E+02 -0.59950415888E+02  0.10872441963E+03  0.12520206426E+03  0.41800000000E+01 0.  1.
        -11    1    1    2    0    0 -0.43095117023E+01  0.73443461315E+02 -0.16147129213E+02  0.75320937878E+02  0.00000000000E+00 0.  1.
         11    1    1    2    0    0 -0.10102364021E+02 -0.34953479253E+02 -0.12571470591E+02  0.38494744363E+02  0.00000000000E+00 0. -1.
</event>
<event>
 7    1  0.2440960E-009  0.1155194E+03  0.7561462E-02  0.1250677E+00
          1   -1    0    0  501    0  0.00000000000E+00  0.00000000000E+00  0.61944340887E+02  0.61944340887E+02  0.00000000000E+00 0. -1.
         -1   -1    0    0    0  501 -0.00000000000E+00 -0.00000000000E+00 -0.29642084446E+03  0.29642084446E+03  0.00000000000E+00 0.  1.
         25    2    1    2    0    0 -0.78871423835E+02 -0.16257300364E+02 -0.12422067455E+03  0.19381311304E+03  0.12509094886E+03 0.  0.
          5    1    3    3  502    0 -0.65621317060E+02 -0.68344633637E+02 -0.80809599501E+02  0.12459859538E+03  0.41800000000E+01 0. -1.
         -5    1    3    3    0  502 -0.13250106775E+02  0.52087333273E+02 -0.43411075052E+02  0.69214517655E+02  0.41800000000E+01 0. -1.
        -11    1    1    2    0    0  0.48072124898E+02  0.18266294723E+02 -0.12131595377E+03  0.13176550138E+03  0.00000000000E+00 0.  1.
         11    1    1    2    0    0  0.30799298938E+02 -0.20089943585E+01  0.11060124755E+02  0.32786570924E+02  0.00000000000E+00 0. -1.
</event>
<event>
 7    1  0.2440960E-009  0.1063884E+03  0.7561462E-02  0.1267408E+00
         -3   -1    0    0    0  501 -0.00000000000E+00  0.00000000000E+00  0.35975395526E+03  0.35975395526E+03  0.00000000000E+00 0.  1.
          3   -1    0    0  501    0  0.00000000000E+00 -0.00000000000E+00 -0.48800565647E+02  0.48800565647E+02  0.00000000000E+00 0. -1.
         25    2    1    2    0    0 -0.27089505210E+02 -0.65200552497E+02  0.21268697951E+03  0.25665004643E+03  0.12509413153E+03 0.  0.
          5    1    3    3  502    0 -0.25369583832E+02  0.30513769610E+02  0.28519576752E+02  0.49046351319E+02  0.41800000000E+01 0.  1.
         -5    1    3    3    0  502 -0.17199213783E+01 -0.95714322107E+02  0.18416740276E+03  0.20760369511E+03  0.41800000000E+01 0.  1.
        -11    1    1    2    0    0 -0.49079511933E+01  0.25965826938E+02 -0.13155886680E+02  0.29519307373E+02  0.00000000000E+00 0. -1.
         11    1    1    2    0    0  0.31997456404E+02  0.39234725560E+02  0.11142229679E+03  0.12238516711E+03  0.00000000000E+00 0.  1.
</event>
<event>
 7    1  0.2440960E-009  0.9565845E+02  0.7561462E-02  0.1289700E+00
          2   -1    0    0  501    0  0.00000000000E+00  0.00000000000E+00  0.56902246308E+03  0.56902246308E+03  0.00000000000E+00 0. -1.
         -2   -1    0    0    0  501 -0.00000000000E+00 -0.00000000000E+00 -0.30676826197E+02  0.30676826197E+02  0.00000000000E+00 0.  1.
         25    2    1    2    0    0  0.73248029126E+02 -0.95238009108E+01  0.32864043901E+03  0.35931655057E+03  0.12509144176E+03 0.  0.
          5    1    3    3  502    0  0.35122157051E+01 -0.20086043842E+01 -0.11021814580E+02  0.12462862727E+02  0.41800000000E+01 0. -1.
         -5    1    3    3    0  502  0.69735813421E+02 -0.75151965266E+01  0.33966225359E+03  0.34685368784E+03  0.41800000000E+01 0. -1.
        -11    1    1    2    0    0 -0.28192625527E+02  0.48211243385E+02  0.12525907803E+03  0.13714585211E+03  0.00000000000E+00 0. -1.
         11    1    1    2    0    0 -0.45055403599E+02 -0.38687442474E+02  0.84446119848E+02  0.10323688661E+03  0.00000000000E+00 0.  1.
</event>
<event>
 7    1  0.2440960E-009  0.1084268E+03  0.7561462E-02  0.1263511E+00
          2   -1    0    0  501    0  0.00000000000E+00  0.00000000000E+00  0.29417125289E+02  0.29417125289E+02  0.00000000000E+00 0.  1.
         -2   -1    0    0    0  501 -0.00000000000E+00 -0.00000000000E+00 -0.52963719194E+03  0.52963719194E+03  0.00000000000E+00 0. -1.
         25    2    1    2    0    0 -0.58079627687E+02 -0.11656095282E+02 -0.32165333651E+03  0.35016923489E+03  0.12509403050E+03 0.  0.
          5    1    3    3  502    0 -0.74746529134E+02 -0.38480619709E+02 -0.30016304785E+03  0.31174208796E+03  0.41800000000E+01 0. -1.
         -5    1    3    3    0  502  0.16666901446E+02  0.26824524427E+02 -0.21490288657E+02  0.38427146930E+02  0.41800000000E+01 0. -1.
        -11    1    1    2    0    0 -0.21029554278E+02  0.29851159657E+01 -0.76871193927E+02  0.79751699206E+02  0.00000000000E+00 0. -1.
         11    1    1    2    0    0  0.79109181966E+02  0.86709793163E+01 -0.10169553622E+03  0.12913338314E+03  0.00000000000E+00 0.  1.
</event>
<event>
 7    1  0.2440960E-009  0.1099489E+03  0.7561462E-02  0.1260665E+00
          2   -1    0    0  501    0  0.00000000000E+00  0.00000000000E+00  0.35177163582E+02  0.35177163582E+02  0.00000000000E+00 0. -1.
         -2   -1    0    0    0  501 -0.00000000000E+00 -0.00000000000E+00 -0.62458293605E+03  0.62458293605E+03  0.00000000000E+00 0.  1.
         25    2    1    2    0    0  0.24877114981E+01 -0.25063291229E+02 -0.53365788945E+03  0.54870110248E+03  0.12509116519E+03 0.  0.
          5    1    3    3  502    0  0.24453584023E+02  0.44405940846E+02 -0.28702927810E+03  0.29150153386E+03  0.41800000000E+01 0. -1.
         -5    1    3    3    0  502 -0.21965872524E+02 -0.69469232076E+02 -0.24662861135E+03  0.25719956862E+03  0.41800000000E+01 0. -1.
        -11    1    1    2    0    0 -0.46625289611E+02  0.30358306726E+01 -0.26916143861E+02  0.53922283886E+02  0.00000000000E+00 0.  1.
         11    1    1    2    0    0  0.44137578113E+02  0.22027460557E+02 -0.28831739150E+02  0.57136713264E+02  0.00000000000E+00 0. -1.
</event>
<event>
 7    1  0.2440960E-009  0.1430141E+03  0.7561462E-02  0.1209330E+00
         -2   -1    0    0    0  501 -0.00000000000E+00  0.00000000000E+00  0.21322012457E+03  0.21322012457E+03  0.00000000000E+00 0. -1.
          2   -1    0    0  501    0  0.00000000000E+00 -0.00000000000E+00 -0.12203721328E+03  0.12203721328E+03  0.00000000000E+00 0.  1.
         25    2    1    2    0    0 -0.85976021645E+02 -0.84902974933E+02  0.49669433649E+02  0.18086889788E+03  0.12508442802E+03 0.  0.
          5    1    3    3  502    0 -0.95450188457E+01 -0.86774565013E+02  0.56383125808E+02  0.10400702762E+03  0.41800000000E+01 0. -1.
         -5    1    3    3    0  502 -0.76431002799E+02  0.18715900799E+01 -0.67136921587E+01  0.76861870266E+02  0.41800000000E+01 0. -1.
        -11    1    1    2    0    0  0.37609039146E+02  0.25407345694E+02 -0.25930409443E+02  0.52271973127E+02  0.00000000000E+00 0.  1.
         11    1    1    2    0    0  0.48366982499E+02  0.59495629239E+02  0.67443887089E+02  0.10211646684E+03  0.00000000000E+00 0. -1.
</event>
<event>
 7    1  0.2440960E-009  0.1665126E+03  0.7561462E-02  0.1181534E+00
          1   -1    0    0  501    0  0.00000000000E+00  0.00000000000E+00  0.45897213940E+03  0.45897213940E+03  0.00000000000E+00 0. -1.
         -1   -1    0    0    0  501 -0.00000000000E+00 -0.00000000000E+00 -0.10341278513E+03  0.10341278513E+03  0.00000000000E+00 0.  1.
         25    2    1    2    0    0  0.13471639964E+03  0.94331465862E+02  0.30353341547E+03  0.36718662093E+03  0.12508615632E+03 0.  0.
          5    1    3    3  502    0  0.86898700406E+02  0.80670428806E+02  0.92806589199E+02  0.15063079902E+03  0.41800000000E+01 0.  1.
         -5    1    3    3    0  502  0.47817699235E+02  0.13661037055E+02  0.21072682627E+03  0.21655582191E+03  0.41800000000E+01 0.  1.
        -11    1    1    2    0    0 -0.10091079039E+03 -0.69492288233E+02  0.78573331772E+02  0.14555388764E+03  0.00000000000E+00 0. -1.
         11    1    1    2    0    0 -0.33805609253E+02 -0.24839177629E+02 -0.26547392970E+02  0.49644415958E+02  0.00000000000E+00 0.  1.
</event>
<event>
 7    1  0.2440960E-009  0.1185420E+03  0.7561462E-02  0.1245522E+00
         -2   -1    0    0    0  501 -0.00000000000E+00  0.00000000000E+00  0.76886554031E+02  0.76886554031E+02  0.00000000000E+00 0. -1.
          2   -1    0    0  501    0  0.00000000000E+00 -0.00000000000E+00 -0.22622568532E+03  0.22622568532E+03  0.00000000000E+00 0.  1.
         25    2    1    2    0    0 -0.43757497372E+02  0.40015436100E+02 -0.13218659969E+03  0.19140799846E+03  0.12509105098E+03 0.  0.
          5    1    3    3  502    0  0.28678699583E+02 -0.17740770746E+02 -0.55264852646E+01  0.34426983542E+02  0.41800000000E+01 0. -1.
         -5    1    3    3    0  502 -0.72436196956E+02  0.57756206846E+02 -0.12666011442E+03  0.15698101492E+03  0.41800000000E+01 0. -1.
        -11    1    1    2    0    0  0.60908501555E+02 -0.58987824135E+02 -0.13915017068E+02  0.85924598678E+02  0.00000000000E+00 0.  1.
         11    1    1    2    0    0 -0.17151004183E+02  0.18972388035E+02 -0.32375145319E+01  0.25779642212E+02  0.00000000000E+00 0. -1.
</event>
<event>
 7    1  0.2440960E-009  0.3444645E+03  0.7561462E-02  0.1064910E+00
         -1   -1    0    0    0  501 -0.00000000000E+00  0.00000000000E+00  0.23325450748E+03  0.23325450748E+03  0.00000000000E+00 0.  1.
          1   -1    0    0  501    0  0.00000000000E+00 -0.00000000000E+00 -0.55184954096E+03  0.55184954096E+03  0.00000000000E+00 0. -1.
         25    2    1    2    0    0 -0.29520991348E+03 -0.16634236495E+03 -0.11624749666E+03  0.37944393423E+03  0.12508214642E+03 0.  0.
          5    1    3    3  502    0 -0.19669431634E+03 -0.14218594488E+03 -0.13262910793E+03  0.27661064635E+03  0.41800000000E+01 0. -1.
         -5    1    3    3    0  502 -0.98515597132E+02 -0.24156420077E+02  0.16381611274E+02  0.10283328788E+03  0.41800000000E+01 0. -1.
        -11    1    1    2    0    0  0.85057436033E+02  0.82233365660E+02 -0.32582619312E+02  0.12271398019E+03  0.00000000000E+00 0.  1.
         11    1    1    2    0    0  0.21015247744E+03  0.84108999293E+02 -0.16976491751E+03  0.28294613401E+03  0.00000000000E+00 0. -1.
</event>
<event>
 7    1  0.2440960E-009  0.1279843E+03  0.7561462E-02  0.1230478E+00
         -2   -1    0    0    0  501 -0.00000000000E+00  0.00000000000E+00  0.39741850121E+03  0.39741850121E+03  0.00000000000E+00 0.  1.
          2   -1    0    0  501    0  0.00000000000E+00 -0.00000000000E+00 -0.44970485291E+02  0.44970485291E+02  0.00000000000E+00 0. -1.
         25    2    1    2    0    0  0.73445758360E+02 -0.24903473930E+02  0.19425370027E+03  0.24371184194E+03  0.12508596804E+03 0.  0.
          5    1    3    3  502    0  0.85299731565E+02  0.29813972096E+02  0.13017009735E+03  0.15851385990E+03  0.41800000000E+01 0. -1.
         -5    1    3    3    0  502 -0.11853973205E+02 -0.54717446026E+02  0.64083602920E+02  0.85197982039E+02  0.41800000000E+01 0. -1.
        -11    1    1    2    0    0 -0.60954285676E+02 -0.18901957893E+02  0.13075954898E+03  0.14550178214E+03  0.00000000000E+00 0.  1.
         11    1    1    2    0    0 -0.12491472684E+02  0.43805431823E+02  0.27434766668E+02  0.53175362426E+02  0.00000000000E+00 0. -1.
</event>
<event>
 7    1  0.2440960E-009  0.2781307E+03  0.7561462E-02  0.1096714E+00
          2   -1    0    0  501    0  0.00000000000E+00  0.00000000000E+00  0.99921298693E+03  0.99921298693E+03  0.00000000000E+00 0. -1.
         -2   -1    0    0    0  501 -0.00000000000E+00 -0.00000000000E+00 -0.86641712158E+02  0.86641712158E+02  0.00000000000E+00 0.  1.
         25    2    1    2    0    0  0.57312889988E+02  0.26708655876E+03  0.44209205100E+03  0.53452131757E+03  0.12509060776E+03 0.  0.
          5    1    3    3  502    0  0.74654162745E+02  0.22377290564E+03  0.28181214483E+03  0.36753654878E+03  0.41800000000E+01 0. -1.
         -5    1    3    3    0  502 -0.17341272757E+02  0.43313653125E+02  0.16027990617E+03  0.16698476879E+03  0.41800000000E+01 0. -1.
        -11    1    1    2    0    0 -0.16728945335E+02 -0.10874546366E+03  0.27698528058E+03  0.29803737876E+03  0.00000000000E+00 0. -1.
         11    1    1    2    0    0 -0.40583944653E+02 -0.15834109510E+03  0.19349394318E+03  0.25329600275E+03  0.00000000000E+00 0.  1.
</event>
<event>
 7    1  0.2440960E-009  0.1351923E+03  0.7561462E-02  0.1219948E+00
         -2   -1    0    0    0  501 -0.00000000000E+00  0.00000000000E+00  0.16769160158E+03  0.16769160158E+03  0.00000000000E+00 0.  1.
          2   -1    0    0  501    0  0.00000000000E+00 -0.00000000000E+00 -0.20452258184E+03  0.20452258184E+03  0.00000000000E+00 0. -1.
         25    2    1    2    0    0 -0.84872102835E+02 -0.72935486233E+02  0.81123232632E+02  0.18641751744E+03  0.12509057895E+03 0.  0.
          5    1    3    3  502    0  0.18549267994E+02  0.35539430985E+01 -0.16063107046E+02  0.25143620714E+02  0.41800000000E+01 0. -1.
         -5    1    3    3    0  502 -0.10342137083E+03 -0.76489429331E+02  0.97186339678E+02  0.16127389672E+03  0.41800000000E+01 0. -1.
        -11    1    1    2    0    0  0.40621290813E+02  0.66070896803E+02 -0.23136841810E+02  0.80936803252E+02  0.00000000000E+00 0.  1.
         11    1    1    2    0    0  0.44250812022E+02  0.68645894291E+01 -0.94817371085E+02  0.10485986273E+03  0.00000000000E+00 0. -1.
</event>
<event>
 7    1  0.2993147E-009  0.1276196E+03  0.7561462E-02  0.1231031E+00
         -1   -1    0    0    0  501 -0.00000000000E+00  0.00000000000E+00  0.24847758993E+02  0.24847758993E+02  0.00000000000E+00 0.  1.
          1   -1    0    0  501    0  0.00000000000E+00 -0.00000000000E+00 -0.90199320100E+03  0.90199320100E+03  0.00000000000E+00 0. -1.
         25    2    1    2    0    0  0.79109336914E+02 -0.52064925982E+02 -0.34967926129E+03  0.38326793372E+03  0.12509867921E+03 0.  0.
          5    1    3    3  502    0  0.58503722762E+02  0.18738683136E+02 -0.25948726610E+03  0.26669258987E+03  0.41800000000E+01 0.  1.
         -5    1    3    3    0  502  0.20605614151E+02 -0.70803609118E+02 -0.90191995186E+02  0.11657534385E+03  0.41800000000E+01 0.  1.
        -11    1    1    2    0    0 -0.33773491031E+02 -0.16515638030E+02 -0.77252460493E+02  0.85914827871E+02  0.00000000000E+00 0.  1.
         11    1    1    2    0    0 -0.45335845882E+02  0.68580564012E+02 -0.45021372023E+03  0.45765819840E+03  0.00000000000E+00 0. -1.
</event>
<event>
 7    1  0.2440960E-009  0.1252417E+03  0.7561462E-02  0.1234692E+00
         -1   -1    0    0    0  501 -0.00000000000E+00  0.00000000000E+00  0.87012541305E+02  0.87012541305E+02  0.00000000000E+00 0.  1.
          1   -1    0    0  501    0  0.00000000000E+00 -0.00000000000E+00 -0.24560568191E+03  0.24560568191E+03  0.00000000000E+00 0. -1.
         25    2    1    2    0    0 -0.79440167642E+02  0.55386120466E+02 -0.83465490386E+02  0.17886003686E+03  0.12508422012E+03 0.  0.
          5    1    3    3  502    0  0.29505869994E+02  0.23654952811E+01 -0.40284273026E+02  0.50164598924E+02  0.41800000000E+01 0.  1.
         -5    1    3    3    0  502 -0.10894603764E+03  0.53020625185E+02 -0.43181217361E+02  0.12869543793E+03  0.41800000000E+01 0.  1.
        -11    1    1    2    0    0  0.27757123594E+02 -0.32752971663E+02 -0.86163764332E+02  0.96267384648E+02  0.00000000000E+00 0. -1.
         11    1    1    2    0    0  0.51683044049E+02 -0.22633148802E+02  0.11036114112E+02  0.57490801712E+02  0.00000000000E+00 0.  1.
</event>
<event>
 7    1  0.2440960E-009  0.9619904E+02  0.7561462E-02  0.1288498E+00
          2   -1    0    0  501    0  0.00000000000E+00  0.00000000000E+00  0.12777743794E+03  0.12777743794E+03  0.00000000000E+00 0. -1.
         -2   -1    0    0    0  501 -0.00000000000E+00 -0.00000000000E+00 -0.10652628274E+03  0.10652628274E+03  0.00000000000E+00 0.  1.
         25    2    1    2    0    0 -0.17547393625E+02  0.40636593793E+02  0.23964820054E+02  0.13483673290E+03  0.12508952059E+03 0.  0.
          5    1    3    3  502    0  0.53956749122E+02  0.23020816008E+02  0.13459600115E+02  0.60331765934E+02  0.41800000000E+01 0. -1.
         -5    1    3    3    0  502 -0.71504142747E+02  0.17615777785E+02  0.10505219939E+02  0.74504966969E+02  0.41800000000E+01 0. -1.
        -11    1    1    2    0    0  0.30369582511E+02 -0.23376335649E+02 -0.40645817538E+02  0.55864542364E+02  0.00000000000E+00 0.  1.
         11    1    1    2    0    0 -0.12822188886E+02 -0.17260258144E+02  0.37932152681E+02  0.43602445413E+02  0.00000000000E+00 0. -1.
</event>
<event>
 7    1  0.2440960E-009  0.1651892E+03  0.7561462E-02  0.1182960E+00
         -2   -1    0    0    0  501 -0.00000000000E+00  0.00000000000E+00  0.55161403199E+02  0.55161403199E+02  0.00000000000E+00 0.  1.
          2   -1    0    0  501    0  0.00000000000E+00 -0.00000000000E+00 -0.49572169469E+03  0.49572169469E+03  0.00000000000E+00 0. -1.
         25    2    1    2    0    0  0.92240589566E+02  0.82799092959E+02 -0.23670483785E+03  0.29502616094E+03  0.12508892523E+03 0.  0.
          5    1    3    3  502    0  0.12116173098E+03  0.48162653656E+02 -0.18340142803E+03  0.22506301888E+03  0.41800000000E+01 0. -1.
         -5    1    3    3    0  502 -0.28921141413E+02  0.34636439303E+02 -0.53303409820E+02  0.69963142059E+02  0.41800000000E+01 0. -1.
        -11    1    1    2    0    0  0.11940095217E+01  0.17496840690E+02 -0.23646114678E+02  0.29439834107E+02  0.00000000000E+00 0. -1.
         11    1    1    2    0    0 -0.93434599088E+02 -0.10029593365E+03 -0.18020933896E+03  0.22641710284E+03  0.00000000000E+00 0.  1.
</event>
<event>
 7    1  0.2440960E-009  0.4140277E+03  0.7561462E-02  0.1039028E+00
          1   -1    0    0  501    0  0.00000000000E+00  0.00000000000E+00  0.12555130624E+03  0.12555130624E+03  0.00000000000E+00 0. -1.
         -1   -1    0    0    0  501 -0.00000000000E+00 -0.00000000000E+00 -0.16936621436E+04  0.16936621436E+04  0.00000000000E+00 0.  1.
         25    2    1    2    0    0  0.40670430551E+03 -0.21702379719E+01 -0.41745441161E+03  0.59609385906E+03  0.12508637410E+03 0.  0.
          5    1    3    3  502    0  0.36201697172E+03  0.34048671348E+02 -0.38635859704E+03  0.53057142567E+03  0.41800000000E+01 0. -1.
         -5    1    3    3    0  502  0.44687333798E+02 -0.36218909320E+02 -0.31095814574E+02  0.65522433398E+02  0.41800000000E+01 0. -1.
        -11    1    1    2    0    0 -0.24668978821E+03  0.38477196725E+01 -0.81016582926E+03  0.84689983319E+03  0.00000000000E+00 0. -1.
         11    1    1    2    0    0 -0.16001451730E+03 -0.16774817006E+01 -0.34049059648E+03  0.37621975757E+03  0.00000000000E+00 0.  1.
</event>
<event>
 7    1  0.2440960E-009  0.1283490E+03  0.7561462E-02  0.1229926E+00
          2   -1    0    0  501    0  0.00000000000E+00  0.00000000000E+00  0.25152249870E+03  0.25152249870E+03  0.00000000000E+00 0. -1.
         -2   -1    0    0    0  501 -0.00000000000E+00 -0.00000000000E+00 -0.11072285100E+03  0.11072285100E+03  0.00000000000E+00 0.  1.
         25    2    1    2    0    0  0.33655228955E+02  0.77731165891E+02 -0.26786914958E+02  0.15342695217E+03  0.12508989668E+03 0.  0.
          5    1    3    3  502    0  0.40278170758E+02  0.10537807472E+03  0.17848426676E+01  0.11290495000E+03  0.41800000000E+01 0.  1.
         -5    1    3    3    0  502 -0.66229418022E+01 -0.27646908829E+02 -0.28571757626E+02  0.40522002169E+02  0.41800000000E+01 0.  1.
        -11    1    1    2    0    0  0.22159211663E+02 -0.45527371982E+02  0.35459779902E+02  0.61815598774E+02  0.00000000000E+00 0.  1.
         11    1    1    2    0    0 -0.55814440618E+02 -0.32203793909E+02  0.13212678275E+03  0.14700279876E+03  0.00000000000E+00 0. -1.
</event>
<event>
 7    1  0.2440960E-009  0.9435736E+02  0.7561462E-02  0.1292630E+00
         -2   -1    0    0    0  501 -0.00000000000E+00  0.00000000000E+00  0.40697288903E+02  0.40697288903E+02  0.00000000000E+00 0.  1.
          2   -1    0    0  501    0  0.00000000000E+00 -0.00000000000E+00 -0.46326557605E+03  0.46326557605E+03  0.00000000000E+00 0. -1.
         25    2    1    2    0    0 -0.98912485477E+01 -0.42084789144E+02 -0.36246553239E+03  0.38587257133E+03  0.12508961932E+03 0.  0.
          5    1    3    3  502    0  0.23940798557E+02 -0.68938725849E+02 -0.30626622160E+03  0.31486851328E+03  0.41800000000E+01 0.  1.
         -5    1    3    3    0  502 -0.33832047105E+02  0.26853936705E+02 -0.56199310784E+02  0.71004058057E+02  0.41800000000E+01 0.  1.
        -11    1    1    2    0    0  0.31257019633E+02  0.84578349129E+01  0.12954213289E+02  0.34876179402E+02  0.00000000000E+00 0.  1.
         11    1    1    2    0    0 -0.21365771085E+02  0.33626954231E+02 -0.73056968045E+02  0.83214114217E+02  0.00000000000E+00 0. -1.
</event>
<event>
 7    1  0.2440960E-009  0.9637652E+02  0.7561462E-02  0.1288106E+00
         -2   -1    0    0    0  501 -0.00000000000E+00  0.00000000000E+00  0.30858428738E+03  0.30858428738E+03  0.00000000000E+00 0.  1.
          2   -1    0    0  501    0  0.00000000000E+00 -0.00000000000E+00 -0.57684866002E+02  0.57684866002E+02  0.00000000000E+00 0. -1.
         25    2    1    2    0    0 -0.55407131879E+02  0.18885716486E+02  0.69547130107E+02  0.15463154069E+03  0.12508992573E+03 0.  0.
          5    1    3    3  502    0  0.24792903964E+01 -0.15495515344E+02  0.84074416390E+02  0.85628486895E+02  0.41800000000E+01 0. -1.
         -5    1    3    3    0  502 -0.57886422275E+02  0.34381231829E+02 -0.14527286283E+02  0.69003053792E+02  0.41800000000E+01 0. -1.
        -11    1    1    2    0    0 -0.21912705970E+02 -0.22819483039E+02  0.55195207191E+02  0.63619229687E+02  0.00000000000E+00 0.  1.
         11    1    1    2    0    0  0.77319837849E+02  0.39337665528E+01  0.12615708407E+03  0.14801838300E+03  0.00000000000E+00 0. -1.
</event>
<event>
 7    1  0.2440960E-009  0.9235318E+02  0.7561462E-02  0.1297251E+00
         -2   -1    0    0    0  501 -0.00000000000E+00  0.00000000000E+00  0.33506789394E+03  0.33506789394E+03  0.00000000000E+00 0.  1.
          2   -1    0    0  501    0  0.00000000000E+00 -0.00000000000E+00 -0.42301066861E+02  0.42301066861E+02  0.00000000000E+00 0. -1.
         25    2    1    2    0    0  0.30723282229E+02 -0.38121565189E+02  0.17432513413E+03  0.22007744448E+03  0.12509058869E+03 0.  0.
          5    1    3    3  502    0  0.51074098565E+02 -0.52040292706E+02  0.39658303478E+02  0.83108417408E+02  0.41800000000E+01 0.  1.
         -5    1    3    3    0  502 -0.20350816336E+02  0.13918727517E+02  0.13466683065E+03  0.13696902708E+03  0.41800000000E+01 0.  1.
        -11    1    1    2    0    0  0.21958198235E+02  0.23124243503E+02  0.63248794188E+01  0.32509955506E+02  0.00000000000E+00 0. -1.
         11    1    1    2    0    0 -0.52681480464E+02  0.14997321686E+02  0.11211681353E+03  0.12478156081E+03  0.00000000000E+00 0.  1.
</event>
<event>
 7    1  0.2440960E-009  0.1104508E+03  0.7561462E-02  0.1259737E+00
         -1   -1    0    0    0  501 -0.00000000000E+00  0.00000000000E+00  0.16733454256E+03  0.16733454256E+03  0.00000000000E+00 0.  1.
          1   -1    0    0  501    0  0.00000000000E+00 -0.00000000000E+00 -0.10363350868E+03  0.10363350868E+03  0.00000000000E+00 0. -1.
         25    2    1    2    0    0  0.72783745793E+02  0.80832247924E+00  0.54804871535E+02  0.15475291183E+03  0.12508702067E+03 0.  0.
          5    1    3    3  502    0 -0.46613043967E+01 -0.39593239516E+02  0.54059558779E+02  0.67299782090E+02  0.41800000000E+01 0.  1.
         -5    1    3    3    0  502  0.77445050190E+02  0.40401561995E+02  0.74531275658E+00  0.87453129742E+02  0.41800000000E+01 0.  1.
        -11    1    1    2    0    0 -0.54085443725E+02  0.26532671872E+02  0.38745128653E+02  0.71626830824E+02  0.00000000000E+00 0.  1.
         11    1    1    2    0    0 -0.18698302068E+02 -0.27340994351E+02 -0.29848966305E+02  0.44588308578E+02  0.00000000000E+00 0. -1.
</event>
<event>
 7    1  0.2440960E-009  0.9427516E+02  0.7561462E-02  0.1292817E+00
          2   -1    0    0  501    0  0.00000000000E+00  0.00000000000E+00  0.10558408941E+04  0.10558408941E+04  0.00000000000E+00 0. -1.
         -2   -1    0    0    0  501 -0.00000000000E+00 -0.00000000000E+00 -0.25365981233E+02  0.25365981233E+02  0.00000000000E+00 0.  1.
         25    2    1    2    0    0  0.57518709290E+02  0.30475647957E+02  0.89313095877E+03  0.90419430878E+03  0.12508905419E+03 0.  0.
          5    1    3    3  502    0  0.73851479547E+01  0.27713941228E+02  0.39062713188E+02  0.48641247006E+02  0.41800000000E+01 0. -1.
         -5    1    3    3    0  502  0.50133561335E+02  0.27617067281E+01  0.85406824558E+03  0.85555306177E+03  0.41800000000E+01 0. -1.
        -11    1    1    2    0    0  0.20879820586E+02 -0.21994657302E+02  0.22765599198E+02  0.37921027997E+02  0.00000000000E+00 0.  1.
         11    1    1    2    0    0 -0.78398529876E+02 -0.84809906550E+01  0.11457835494E+03  0.13909153860E+03  0.00000000000E+00 0. -1.
</event>
<event>
 7    1  0.2440960E-009  0.6370729E+02  0.7561462E-02  0.1382901E+00
          2   -1    0    0  501    0  0.00000000000E+00  0.00000000000E+00  0.18371942419E+02  0.18371942419E+02  0.00000000000E+00 0. -1.
         -2   -1    0    0    0  501 -0.00000000000E+00 -0.00000000000E+00 -0.64279737108E+03  0.64279737108E+03  0.00000000000E+00 0.  1.
         25    2    1    2    0    0  0.12478197185E+02  0.36749334956E+01 -0.38036784371E+03  0.40061913122E+03  0.12508709456E+03 0.  0.
          5    1    3    3  502    0  0.22663100294E+02 -0.85530812901E+01 -0.52438672987E+01  0.25134475501E+02  0.41800000000E+01 0.  1.
         -5    1    3    3    0  502 -0.10184903109E+02  0.12228014786E+02 -0.37512397641E+03  0.37548465572E+03  0.41800000000E+01 0.  1.
        -11    1    1    2    0    0  0.36365138576E+02 -0.83541968840E+01 -0.14869167470E+03  0.15330176135E+03  0.00000000000E+00 0.  1.
         11    1    1    2    0    0 -0.48843335762E+02  0.46792633885E+01 -0.95365910255E+02  0.10724842093E+03  0.00000000000E+00 0. -1.
</event>
<event>
 7    1  0.2440960E-009  0.1657813E+03  0.7561462E-02  0.1182320E+00
         -2   -1    0    0    0  501 -0.00000000000E+00  0.00000000000E+00  0.45473601080E+02  0.45473601080E+02  0.00000000000E+00 0.  1.
          2   -1    0    0  501    0  0.00000000000E+00 -0.00000000000E+00 -0.65177116120E+03  0.65177116120E+03  0.00000000000E+00 0. -1.
         25    2    1    2    0    0  0.72807810874E+01 -0.13305392070E+03 -0.33661172054E+03  0.38302903808E+03  0.12508971990E+03 0.  0.
          5    1    3    3  502    0  0.44949781394E+02 -0.12324560681E+03 -0.30719425562E+03  0.33405949400E+03  0.41800000000E+01 0.  1.
         -5    1    3    3    0  502 -0.37669000307E+02 -0.98083138940E+01 -0.29417464912E+02  0.48969544080E+02  0.41800000000E+01 0.  1.
        -11    1    1    2    0    0  0.12661941787E+02  0.13959830444E+03 -0.23095752642E+03  0.27016548702E+03  0.00000000000E+00 0.  1.
         11    1    1    2    0    0 -0.19942722875E+02 -0.65443837348E+01 -0.38728313166E+02  0.44050237171E+02  0.00000000000E+00 0. -1.
</event>
<event>
 7    1  0.2440960E-009  0.1366960E+03  0.7561462E-02  0.1217845E+00
         -1   -1    0    0    0  501 -0.00000000000E+00  0.00000000000E+00  0.71924390593E+02  0.71924390593E+02  0.00000000000E+00 0.  1.
          1   -1    0    0  501    0  0.00000000000E+00 -0.00000000000E+00 -0.26334937204E+03  0.26334937204E+03  0.00000000000E+00 0. -1.
         25    2    1    2    0    0  0.77907425718E+02 -0.34754235493E+02 -0.12118820511E+03  0.19393539528E+03  0.12508769970E+03 0.  0.
          5    1    3    3  502    0  0.36617001261E+02 -0.81023604305E+02 -0.76710280941E+02  0.11750561194E+03  0.41800000000E+01 0. -1.
         -5    1    3    3    0  502  0.41290424457E+02  0.46269368813E+02 -0.44477924172E+02  0.76429783336E+02  0.41800000000E+01 0. -1.
        -11    1    1    2    0    0 -0.39479339365E+02  0.63128608517E+02 -0.36990612171E+02  0.83139309828E+02  0.00000000000E+00 0.  1.
         11    1    1    2    0    0 -0.38428086354E+02 -0.28374373024E+02 -0.33246164164E+02  0.58199057526E+02  0.00000000000E+00 0. -1.
</event>
<event>
 7    1  0.2440960E-009  0.1080276E+03  0.7561462E-02  0.1264267E+00
          2   -1    0    0  501    0  0.00000000000E+00  0.00000000000E+00  0.47248975869E+03  0.47248975869E+03  0.00000000000E+00 0. -1.
         -2   -1    0    0    0  501 -0.00000000000E+00 -0.00000000000E+00 -0.34559672954E+02  0.34559672954E+02  0.00000000000E+00 0.  1.
         25    2    1    2    0    0  0.32802788661E+02  0.25586671824E+02  0.14560261285E+03  0.19641624836E+03  0.12509404874E+03 0.  0.
          5    1    3    3  502    0  0.79738657957E+02  0.27182476177E+02  0.86595107727E+02  0.12088558916E+03  0.41800000000E+01 0.  1.
         -5    1    3    3    0  502 -0.46935869296E+02 -0.15958043534E+01  0.59007505123E+02  0.75530659199E+02  0.41800000000E+01 0.  1.
        -11    1    1    2    0    0  0.12307913301E+02 -0.36183723945E+02  0.45172716931E+02  0.59171960955E+02  0.00000000000E+00 0.  1.
         11    1    1    2    0    0 -0.45110701962E+02  0.10597052121E+02  0.24715475595E+03  0.25146122233E+03  0.00000000000E+00 0. -1.
</event>
<event>
 7    1  0.2440960E-009  0.7213262E+02  0.7561462E-02  0.1352988E+00
         -3   -1    0    0    0  501 -0.00000000000E+00  0.00000000000E+00  0.16868661918E+03  0.16868661918E+03  0.00000000000E+00 0.  1.
          3   -1    0    0  501    0  0.00000000000E+00 -0.00000000000E+00 -0.77201821082E+02  0.77201821082E+02  0.00000000000E+00 0. -1.
         25    2    1    2    0    0 -0.70090935203E+01 -0.21408041746E+02  0.21737093552E+02  0.12894383661E+03  0.12508629069E+03 0.  0.
          5    1    3    3  502    0  0.83707115181E+01 -0.54998841201E+02  0.55520313954E+02  0.78707807785E+02  0.41800000000E+01 0. -1.
         -5    1    3    3    0  502 -0.15379805038E+02  0.33590799455E+02 -0.33783220403E+02  0.50236028822E+02  0.41800000000E+01 0. -1.
        -11    1    1    2    0    0 -0.18318222077E+02  0.29113967888E+00 -0.16470338245E+02  0.24635625916E+02  0.00000000000E+00 0. -1.
         11    1    1    2    0    0  0.25327315598E+02  0.21116902068E+02  0.86218042794E+02  0.92308977741E+02  0.00000000000E+00 0.  1.
</event>
<event>
 7    1  0.2440960E-009  0.1358928E+03  0.7561462E-02  0.1218965E+00
         -4   -1    0    0    0  501 -0.00000000000E+00  0.00000000000E+00  0.81572778309E+02  0.81572778309E+02  0.00000000000E+00 0.  1.
          4   -1    0    0  501    0  0.00000000000E+00 -0.00000000000E+00 -0.27058390878E+03  0.27058390878E+03  0.00000000000E+00 0. -1.
         25    2    1    2    0    0 -0.60337874701E+02 -0.75706055707E+02 -0.79690363429E+02  0.17711681473E+03  0.12509095108E+03 0.  0.
          5    1    3    3  502    0  0.10728913288E+02 -0.61692265737E+02 -0.83507545974E+02  0.10446065224E+03  0.41800000000E+01 0.  1.
         -5    1    3    3    0  502 -0.71066787989E+02 -0.14013789970E+02  0.38171825453E+01  0.72656162484E+02  0.41800000000E+01 0.  1.
        -11    1    1    2    0    0 -0.24779599312E+02  0.38441479440E+01 -0.24152539778E+02  0.34815961759E+02  0.00000000000E+00 0. -1.
         11    1    1    2    0    0  0.85117474013E+02  0.71861907763E+02 -0.85168227263E+02  0.14022391060E+03  0.00000000000E+00 0.  1.
</event>
<event>
 7    1  0.2440960E-009  0.2404422E+03  0.7561462E-02  0.1119499E+00
          2   -1    0    0  501    0  0.00000000000E+00  0.00000000000E+00  0.11430520943E+03  0.11430520943E+03  0.00000000000E+00 0. -1.
         -2   -1    0    0    0  501 -0.00000000000E+00 -0.00000000000E+00 -0.56727686319E+03  0.56727686319E+03  0.00000000000E+00 0.  1.
         25    2    1    2    0    0 -0.22109315589E+03 -0.57545375567E+02 -0.25841197468E+03  0.36690643146E+03  0.12509966811E+03 0.  0.
          5    1    3    3  502    0 -0.18677382376E+03 -0.26980207240E+02 -0.12668453469E+03  0.22732979689E+03  0.41800000000E+01 0.  1.
         -5    1    3    3    0  502 -0.34319332130E+02 -0.30565168328E+02 -0.13172743999E+03  0.13957663457E+03  0.41800000000E+01 0.  1.
        -11    1    1    2    0    0  0.26923943304E+02 -0.23343709183E+02 -0.40515411171E+02  0.53956705087E+02  0.00000000000E+00 0.  1.
         11    1    1    2    0    0  0.19416921258E+03  0.80889084750E+02 -0.15404426791E+03  0.26071893607E+03  0.00000000000E+00 0. -1.
</event>
<event>
 7    1  0.2440960E-009  0.1224829E+03  0.7561462E-02  0.1239056E+00
         -1   -1    0    0    0  501 -0.00000000000E+00  0.00000000000E+00  0.54066171314E+02  0.54066171314E+02  0.00000000000E+00 0.  1.
          1   -1    0    0  501    0  0.00000000000E+00 -0.00000000000E+00 -0.38341772850E+03  0.38341772850E+03  0.00000000000E+00 0. -1.
         25    2    1    2    0    0 -0.85402267147E+02  0.76730152805E+01 -0.15227996784E+03  0.21491990302E+03  0.12509577815E+03 0.  0.
          5    1    3    3  502    0 -0.10781385478E+03 -0.24913512012E+02 -0.99778607294E+02  0.14905620831E+03  0.41800000000E+01 0. -1.
         -5    1    3    3    0  502  0.22411587632E+02  0.32586527293E+02 -0.52501360548E+02  0.65863694708E+02  0.41800000000E+01 0. -1.
        -11    1    1    2    0    0  0.58346121048E+02  0.13758454184E+02 -0.22251248470E+02  0.63942810084E+02  0.00000000000E+00 0.  1.
         11    1    1    2    0    0  0.27056146099E+02 -0.21431469465E+02 -0.15482034087E+03  0.15862118671E+03  0.00000000000E+00 0. -1.
</event>
<event>
 7    1  0.2440960E-009  0.1181611E+03  0.7561462E-02  0.1246162E+00
          1   -1    0    0  501    0  0.00000000000E+00  0.00000000000E+00  0.65751792739E+02  0.65751792739E+02  0.00000000000E+00 0. -1.
         -1   -1    0    0    0  501 -0.00000000000E+00 -0.00000000000E+00 -0.23946039826E+03  0.23946039826E+03  0.00000000000E+00 0.  1.
         25    2    1    2    0    0  0.37917730498E+02  0.49719996088E+02 -0.10768144057E+03  0.17650324319E+03  0.12509304503E+03 0.  0.
          5    1    3    3  502    0 -0.44244317869E+02  0.67941654860E+01 -0.50013712963E+02  0.67250012882E+02  0.41800000000E+01 0.  1.
         -5    1    3    3    0  502  0.82162048366E+02  0.42925830602E+02 -0.57667727606E+02  0.10925323030E+03  0.41800000000E+01 0.  1.
        -11    1    1    2    0    0  0.18890831263E+02 -0.35179735784E+02  0.62154023271E+00  0.39935743738E+02  0.00000000000E+00 0. -1.
         11    1    1    2    0    0 -0.56808561761E+02 -0.14540260304E+02 -0.66648705185E+02  0.88773204076E+02  0.00000000000E+00 0.  1.
</event>
<event>
 7    1  0.2440960E-009  0.1693979E+03  0.7561462E-02  0.1178477E+00
         -1   -1    0    0    0  501 -0.00000000000E+00  0.00000000000E+00  0.35788673520E+02  0.35788673520E+02  0.00000000000E+00 0.  1.
          1   -1    0    0  501    0  0.00000000000E+00 -0.00000000000E+00 -0.88620925778E+03  0.88620925778E+03  0.00000000000E+00 0. -1.
         25    2    1    2    0    0  0.33287934852E+02 -0.13437187059E+03 -0.52716989791E+03  0.55921332680E+03  0.12509019706E+03 0.  0.
          5    1    3    3  502    0  0.27232573745E+02  0.18481919018E+02 -0.81089825353E+02  0.87614077517E+02  0.41800000000E+01 0.  1.
         -5    1    3    3    0  502  0.60553611069E+01 -0.15285378961E+03 -0.44608007255E+03  0.47159924928E+03  0.41800000000E+01 0.  1.
        -11    1    1    2    0    0  0.55764042431E+00  0.11203597860E+03 -0.28810373614E+03  0.30912155254E+03  0.00000000000E+00 0. -1.
         11    1    1    2    0    0 -0.33845575276E+02  0.22335891993E+02 -0.35146950214E+02  0.53663051965E+02  0.00000000000E+00 0.  1.
</event>
<event>
 7    1  0.2440960E-009  0.1316381E+03  0.7561462E-02  0.1225045E+00
          2   -1    0    0  501    0  0.00000000000E+00  0.00000000000E+00  0.18969855280E+04  0.18969855280E+04  0.00000000000E+00 0. -1.
         -2   -1    0    0    0  501 -0.00000000000E+00 -0.00000000000E+00 -0.12949333079E+02  0.12949333079E+02  0.00000000000E+00 0.  1.
         25    2    1    2    0    0  0.21948501905E+02  0.95276890832E+02  0.13996901099E+04  0.14086658705E+04  0.12509079963E+03 0.  0.
          5    1    3    3  502    0 -0.33325220801E+02 -0.61098505767E+01  0.15994597252E+03  0.16354842445E+03  0.41800000000E+01 0.  1.
         -5    1    3    3    0  502  0.55273722706E+02  0.10138674141E+03  0.12397441374E+04  0.12451174460E+04  0.41800000000E+01 0.  1.
        -11    1    1    2    0    0  0.94503817632E+01 -0.76335640459E+02  0.42188330800E+03  0.42883792427E+03  0.00000000000E+00 0. -1.
         11    1    1    2    0    0 -0.31398883668E+02 -0.18941250373E+02  0.62462777013E+02  0.72431066356E+02  0.00000000000E+00 0.  1.
</event>
<event>
 7    1  0.2440960E-009  0.1531592E+03  0.7561462E-02  0.1196644E+00
          2   -1    0    0  501    0  0.00000000000E+00  0.00000000000E+00  0.29158156405E+03  0.29158156405E+03  0.00000000000E+00 0. -1.
         -2   -1    0    0    0  501 -0.00000000000E+00 -0.00000000000E+00 -0.96927710004E+02  0.96927710004E+02  0.00000000000E+00 0.  1.
         25    2    1    2    0    0 -0.10927684070E+03 -0.23057193858E+02  0.17396190260E+03  0.24162724350E+03  0.12509164298E+03 0.  0.
          5    1    3    3  502    0 -0.28714130099E+02  0.48753643530E+02  0.39358378357E+02  0.69050513189E+02  0.41800000000E+01 0. -1.
         -5    1    3    3    0  502 -0.80562710599E+02 -0.71810837388E+02  0.13460352424E+03  0.17257673031E+03  0.41800000000E+01 0. -1.
        -11    1    1    2    0    0  0.33620666579E+02 -0.33238473769E+02 -0.87701229400E+01  0.48083889361E+02  0.00000000000E+00 0.  1.
         11    1    1    2    0    0  0.75656174120E+02  0.56295667628E+02  0.29462074383E+02  0.98798141192E+02  0.00000000000E+00 0. -1.
</event>
<event>
 7    1  0.2440960E-009  0.2740293E+03  0.7561462E-02  0.1098995E+00
          1   -1    0    0  501    0  0.00000000000E+00  0.00000000000E+00  0.56349421928E+02  0.56349421928E+02  0.00000000000E+00 0. -1.
         -1   -1    0    0    0  501 -0.00000000000E+00 -0.00000000000E+00 -0.14359652428E+04  0.14359652428E+04  0.00000000000E+00 0.  1.
         25    2    1    2    0    0 -0.16880532819E+03  0.19957099469E+03 -0.76914969073E+03  0.82192619787E+03  0.12509039629E+03 0.  0.
          5    1    3    3  502    0 -0.40694725496E+02  0.43802465010E+01 -0.24057492241E+03  0.24406764008E+03  0.41800000000E+01 0.  1.
         -5    1    3    3    0  502 -0.12811060270E+03  0.19519074819E+03 -0.52857476832E+03  0.57785855779E+03  0.41800000000E+01 0.  1.
        -11    1    1    2    0    0  0.15807328384E+03 -0.13479572837E+03 -0.50621254840E+03  0.54718204978E+03  0.00000000000E+00 0.  1.
         11    1    1    2    0    0  0.10732044354E+02 -0.64775266319E+02 -0.10425358174E+03  0.12320641708E+03  0.00000000000E+00 0. -1.
</event>
<event>
 7    1  0.2440960E-009  0.9560989E+02  0.7561462E-02  0.1289808E+00
          1   -1    0    0  501    0  0.00000000000E+00  0.00000000000E+00  0.20282053390E+02  0.20282053390E+02  0.00000000000E+00 0. -1.
         -1   -1    0    0    0  501 -0.00000000000E+00 -0.00000000000E+00 -0.88891286001E+03  0.88891286001E+03  0.00000000000E+00 0.  1.
         25    2    1    2    0    0 -0.59906443253E+02 -0.39426688003E+02 -0.36581950318E+03  0.39321061319E+03  0.12508969482E+03 0.  0.
          5    1    3    3  502    0 -0.35907907376E+02 -0.35829872290E+02 -0.36504311181E+03  0.36857442049E+03  0.41800000000E+01 0. -1.
         -5    1    3    3    0  502 -0.23998535877E+02 -0.35968157130E+01 -0.77639137487E+00  0.24636192706E+02  0.41800000000E+01 0. -1.
        -11    1    1    2    0    0  0.56390149280E+02  0.67187202209E+02 -0.36963418698E+03  0.37989919882E+03  0.00000000000E+00 0.  1.
         11    1    1    2    0    0  0.35162939727E+01 -0.27760514207E+02 -0.13317711646E+03  0.13608510139E+03  0.00000000000E+00 0. -1.
</event>
<event>
 7    1  0.2440960E-009  0.1300777E+03  0.7561462E-02  0.1227340E+00
         -1   -1    0    0    0  501 -0.00000000000E+00  0.00000000000E+00  0.34926299552E+02  0.34926299552E+02  0.00000000000E+00 0.  1.
          1   -1    0    0  501    0  0.00000000000E+00 -0.00000000000E+00 -0.52046912504E+03  0.52046912504E+03  0.00000000000E+00 0. -1.
         25    2    1    2    0    0  0.22786396286E+02 -0.73377492434E+02 -0.30929612896E+03  0.34236609471E+03  0.12508785377E+03 0.  0.
          5    1    3    3  502    0  0.60789958442E+02 -0.86680828724E+02 -0.23424218800E+03  0.25709115145E+03  0.41800000000E+01 0. -1.
         -5    1    3    3    0  502 -0.38003562156E+02  0.13303336290E+02 -0.75053940961E+02  0.85274943252E+02  0.41800000000E+01 0. -1.
        -11    1    1    2    0    0  0.30382041525E+02  0.42475277500E+02 -0.11467823875E+03  0.12600919050E+03  0.00000000000E+00 0.  1.
         11    1    1    2    0    0 -0.53168437811E+02  0.30902214934E+02 -0.61568457769E+02  0.87020139389E+02  0.00000000000E+00 0. -1.
</event>
<event>
 7    1  0.2440960E-009  0.1172673E+03  0.7561462E-02  0.1247674E+00
         -2   -1    0    0    0  501 -0.00000000000E+00  0.00000000000E+00  0.10352045104E+03  0.10352045104E+03  0.00000000000E+00 0.  1.
          2   -1    0    0  501    0  0.00000000000E+00 -0.00000000000E+00 -0.23392419336E+03  0.23392419336E+03  0.00000000000E+00 0. -1.
         25    2    1    2    0    0 -0.71726200536E+02 -0.32145896600E+02  0.15583518577E+02  0.14855793878E+03  0.12509439880E+03 0.  0.
          5    1    3    3  502    0 -0.77727884204E+02  0.63831711617E+01  0.52974586663E+02  0.94372390502E+02  0.41800000000E+01 0. -1.
         -5    1    3    3    0  502  0.60016836682E+01 -0.38529067761E+02 -0.37391068086E+02  0.54185548276E+02  0.41800000000E+01 0. -1.
        -11    1    1    2    0    0 -0.10864633202E+02 -0.17685906116E+02 -0.12618196904E+02  0.24290953519E+02  0.00000000000E+00 0.  1.
         11    1    1    2    0    0  0.82590833738E+02  0.49831802715E+02 -0.13336906400E+03  0.16459575211E+03  0.00000000000E+00 0. -1.
</event>
<event>
 7    1  0.2440960E-009  0.1028221E+03  0.7561462E-02  0.1274471E+00
         -4   -1    0    0    0  501 -0.00000000000E+00  0.00000000000E+00  0.54972692821E+02  0.54972692821E+02  0.00000000000E+00 0. -1.
          4   -1    0    0  501    0  0.00000000000E+00 -0.00000000000E+00 -0.24432553813E+03  0.24432553813E+03  0.00000000000E+00 0.  1.
         25    2    1    2    0    0 -0.36572546164E+02 -0.22271297606E+02 -0.12276405625E+03  0.18042288049E+03  0.12509132851E+03 0.  0.
          5    1    3    3  502    0  0.10764052944E+02 -0.57352018130E+02 -0.19879000129E+02  0.61788072194E+02  0.41800000000E+01 0.  1.
         -5    1    3    3    0  502 -0.47336599107E+02  0.35080720524E+02 -0.10288505612E+03  0.11863480830E+03  0.41800000000E+01 0.  1.
        -11    1    1    2    0    0  0.21313139718E+02  0.51149636710E+02 -0.66040971817E+02  0.86208730525E+02  0.00000000000E+00 0.  1.
         11    1    1    2    0    0  0.15259406446E+02 -0.28878339104E+02 -0.54781725115E+00  0.32666619939E+02  0.00000000000E+00 0. -1.
</event>
<event>
 7    1  0.2478384E-009  0.1065912E+03  0.7561462E-02  0.1267016E+00
          1   -1    0    0  501    0  0.00000000000E+00  0.00000000000E+00  0.52090749262E+03  0.52090749262E+03  0.00000000000E+00 0. -1.
         -1   -1    0    0    0  501 -0.00000000000E+00 -0.00000000000E+00 -0.32349863012E+02  0.32349863012E+02  0.00000000000E+00 0.  1.
         25    2    1    2    0    0 -0.60958980204E+02  0.29995453500E+02  0.31275548402E+03  0.34362631797E+03  0.12508928458E+03 0.  0.
          5    1    3    3  502    0  0.19806264996E+02  0.44667189298E+02  0.58072789704E+02  0.76008994447E+02  0.41800000000E+01 0. -1.
         -5    1    3    3    0  502 -0.80765245200E+02 -0.14671735797E+02  0.25468269432E+03  0.26761732352E+03  0.41800000000E+01 0. -1.
        -11    1    1    2    0    0  0.36170046616E+02 -0.41132114923E+02  0.17397548284E+03  0.18239405632E+03  0.00000000000E+00 0. -1.
         11    1    1    2    0    0  0.24788933588E+02  0.11136661422E+02  0.18266627459E+01  0.27236981346E+02  0.00000000000E+00 0.  1.
</event>
<event>
 7    1  0.2440960E-009  0.1626801E+03  0.7561462E-02  0.1185704E+00
         -2   -1    0    0    0  501 -0.00000000000E+00  0.00000000000E+00  0.92534176156E+02  0.92534176156E+02  0.00000000000E+00 0.  1.
          2   -1    0    0  501    0  0.00000000000E+00 -0.00000000000E+00 -0.31711473264E+03  0.31711473264E+03  0.00000000000E+00 0. -1.
         25    2    1    2    0    0 -0.64878043429E+02 -0.11166776703E+03 -0.84290969672E+02  0.19857275687E+03  0.12508925410E+03 0.  0.
          5    1    3    3  502    0 -0.99870394076E+02 -0.72066495796E+02 -0.76366642648E+02  0.14497245234E+03  0.41800000000E+01 0. -1.
         -5    1    3    3    0  502  0.34992350646E+02 -0.39601271233E+02 -0.79243270241E+01  0.53600304531E+02  0.41800000000E+01 0. -1.
        -11    1    1    2    0    0 -0.27630318828E+01  0.69195930087E+02 -0.31405862048E+02  0.76039721573E+02  0.00000000000E+00 0.  1.
         11    1    1    2    0    0  0.67641075312E+02  0.42471836942E+02 -0.10888372476E+03  0.13503643035E+03  0.00000000000E+00 0. -1.
</event>
<event>
 7    1  0.2440960E-009  0.1136521E+03  0.7561462E-02  0.1253952E+00
         -4   -1    0    0    0  501 -0.00000000000E+00  0.00000000000E+00  0.48231625509E+02  0.48231625509E+02  0.00000000000E+00 0.  1.
          4   -1    0    0  501    0  0.00000000000E+00 -0.00000000000E+00 -0.37795136287E+03  0.37795136287E+03  0.00000000000E+00 0. -1.
         25    2    1    2    0    0  0.75746696030E+02 -0.15640824050E+02 -0.17619796214E+03  0.22950522697E+03  0.12507889514E+03 0.  0.
          5    1    3    3  502    0  0.43448968112E+02 -0.70244592044E+02 -0.11120461449E+03  0.13858590919E+03  0.41800000000E+01 0. -1.
         -5    1    3    3    0  502  0.32297727918E+02  0.54603767994E+02 -0.64993347651E+02  0.90919317786E+02  0.41800000000E+01 0. -1.
        -11    1    1    2    0    0 -0.35255765344E+02  0.19604204601E+02 -0.15057697963E+03  0.15588688406E+03  0.00000000000E+00 0. -1.
         11    1    1    2    0    0 -0.40490930686E+02 -0.39633805507E+01 -0.29447955877E+01  0.40790877341E+02  0.00000000000E+00 0.  1.
</event>
<event>
 7    1  0.2440960E-009  0.9450739E+02  0.7561462E-02  0.1292289E+00
          4   -1    0    0  501    0  0.00000000000E+00  0.00000000000E+00  0.12682418123E+03  0.12682418123E+03  0.00000000000E+00 0. -1.
         -4   -1    0    0    0  501 -0.00000000000E+00 -0.00000000000E+00 -0.16506368202E+03  0.16506368202E+03  0.00000000000E+00 0.  1.
         25    2    1    2    0    0 -0.82975294615E+01 -0.27916803870E+02 -0.11285138292E+03  0.17097020430E+03  0.12508868532E+03 0.  0.
          5    1    3    3  502    0 -0.28366252152E+02 -0.72770687695E+02 -0.59176762771E+02  0.98079451980E+02  0.41800000000E+01 0. -1.
         -5    1    3    3    0  502  0.20068722691E+02  0.44853883825E+02 -0.53674620154E+02  0.72890752317E+02  0.41800000000E+01 0. -1.
        -11    1    1    2    0    0  0.28867815467E+02  0.28954222200E+02 -0.26358446740E+01  0.40971275672E+02  0.00000000000E+00 0.  1.
         11    1    1    2    0    0 -0.20570286005E+02 -0.10374183301E+01  0.77247726809E+02  0.79946383285E+02  0.00000000000E+00 0. -1.
</event>
<event>
 7    1  0.2440960E-009  0.1659466E+03  0.7561462E-02  0.1182142E+00
         -1   -1    0    0    0  501 -0.00000000000E+00  0.00000000000E+00  0.16448067967E+03  0.16448067967E+03  0.00000000000E+00 0.  1.
          1   -1    0    0  501    0  0.00000000000E+00 -0.00000000000E+00 -0.23121234977E+03  0.23121234977E+03  0.00000000000E+00 0. -1.
         25    2    1    2    0    0 -0.11096316706E+03 -0.10434800227E+03  0.30293790912E+02  0.19941626104E+03  0.12509117225E+03 0.  0.
          5    1    3    3  502    0 -0.10116667902E+03 -0.34185286056E+02  0.59912824956E+02  0.12251673242E+03  0.41800000000E+01 0.  1.
         -5    1    3    3    0  502 -0.97964880371E+01 -0.70162716213E+02 -0.29619034045E+02  0.76899528620E+02  0.41800000000E+01 0.  1.
        -11    1    1    2    0    0  0.49405514600E+02  0.31101074073E+02  0.22193576505E+01  0.58421804404E+02  0.00000000000E+00 0.  1.
         11    1    1    2    0    0  0.61557652462E+02  0.73246928197E+02 -0.99244818670E+02  0.13785496400E+03  0.00000000000E+00 0. -1.
</event>
<event>
 7    1  0.2440960E-009  0.1234368E+03  0.7561462E-02  0.1237533E+00
         -3   -1    0    0    0  501 -0.00000000000E+00  0.00000000000E+00  0.39160759425E+02  0.39160759425E+02  0.00000000000E+00 0.  1.
          3   -1    0    0  501    0  0.00000000000E+00 -0.00000000000E+00 -0.41985080662E+03  0.41985080662E+03  0.00000000000E+00 0. -1.
         25    2    1    2    0    0  0.61726697062E+02  0.16500954239E+02 -0.16843902112E+03  0.21932051160E+03  0.12508923355E+03 0.  0.
          5    1    3    3  502    0 -0.29678198352E+02  0.32142698953E+02 -0.79081658929E+02  0.90472812117E+02  0.41800000000E+01 0. -1.
         -5    1    3    3    0  502  0.91404895414E+02 -0.15641744714E+02 -0.89357362196E+02  0.12884769948E+03  0.41800000000E+01 0. -1.
        -11    1    1    2    0    0  0.23454558744E+02 -0.71022719646E+00 -0.31786310690E+02  0.39509369722E+02  0.00000000000E+00 0.  1.
         11    1    1    2    0    0 -0.85181255806E+02 -0.15790727042E+02 -0.18046471538E+03  0.20018168473E+03  0.00000000000E+00 0. -1.
</event>
<event>
 7    1  0.2440960E-009  0.7839147E+02  0.7561462E-02  0.1333679E+00
         -3   -1    0    0    0  501 -0.00000000000E+00  0.00000000000E+00  0.49010703027E+02  0.49010703027E+02  0.00000000000E+00 0.  1.
          3   -1    0    0  501    0  0.00000000000E+00 -0.00000000000E+00 -0.29150008038E+03  0.29150008038E+03  0.00000000000E+00 0. -1.
         25    2    1    2    0    0 -0.46686103457E+02 -0.22728528149E+02 -0.16152614498E+03  0.21079347695E+03  0.12508803365E+03 0.  0.
          5    1    3    3  502    0 -0.22100849752E+02 -0.20769112100E+02  0.13878692639E+02  0.33613897223E+02  0.41800000000E+01 0. -1.
         -5    1    3    3    0  502 -0.24585253705E+02 -0.19594160491E+01 -0.17540483762E+03  0.17717957972E+03  0.41800000000E+01 0. -1.
        -11    1    1    2    0    0 -0.24073478054E+02  0.18328736827E+02 -0.27969285764E+02  0.41203833383E+02  0.00000000000E+00 0. -1.
         11    1    1    2    0    0  0.70759581511E+02  0.43997913219E+01 -0.52993946610E+02  0.88513473079E+02  0.00000000000E+00 0.  1.
</event>
<event>
 7    1  0.2440960E-009  0.2002687E+03  0.7561462E-02  0.1149512E+00
         -2   -1    0    0    0  501 -0.00000000000E+00  0.00000000000E+00  0.23942675566E+02  0.23942675566E+02  0.00000000000E+00 0.  1.
          2   -1    0    0  501    0  0.00000000000E+00 -0.00000000000E+00 -0.19687665593E+04  0.19687665593E+04  0.00000000000E+00 0. -1.
         25    2    1    2    0    0 -0.11368229447E+02  0.18033493128E+03 -0.12337476527E+04  0.12531685745E+04  0.12509309167E+03 0.  0.
          5    1    3    3  502    0 -0.50214596055E+02  0.13060188292E+03 -0.10395275889E+04  0.10489105958E+04  0.41800000000E+01 0. -1.
         -5    1    3    3    0  502  0.38846366608E+02  0.49733048363E+02 -0.19422006376E+03  0.20425797871E+03  0.41800000000E+01 0. -1.
        -11    1    1    2    0    0 -0.34236748864E+02 -0.70191057005E+02 -0.37227003762E+03  0.38037339597E+03  0.00000000000E+00 0. -1.
         11    1    1    2    0    0  0.45604978311E+02 -0.11014387427E+03 -0.33880619338E+03  0.35916726432E+03  0.00000000000E+00 0.  1.
</event>
<event>
 7    1  0.2440960E-009  0.6784737E+02  0.7561462E-02  0.1367570E+00
          2   -1    0    0  501    0  0.00000000000E+00  0.00000000000E+00  0.20593319989E+03  0.20593319989E+03  0.00000000000E+00 0. -1.
         -2   -1    0    0    0  501 -0.00000000000E+00 -0.00000000000E+00 -0.15536487476E+03  0.15536487476E+03  0.00000000000E+00 0.  1.
         25    2    1    2    0    0 -0.31690281614E+01  0.25459861594E+02  0.16723077226E+03  0.21040802745E+03  0.12508860673E+03 0.  0.
          5    1    3    3  502    0 -0.22084454305E+02  0.36238249663E+02  0.94724627495E+00  0.42653294552E+02  0.41800000000E+01 0.  1.
         -5    1    3    3    0  502  0.18915426144E+02 -0.10778388069E+02  0.16628352599E+03  0.16775473290E+03  0.41800000000E+01 0.  1.
        -11    1    1    2    0    0 -0.11134176450E+02 -0.45174746673E+02 -0.19034620038E+02  0.50269716353E+02  0.00000000000E+00 0. -1.
         11    1    1    2    0    0  0.14303204611E+02  0.19714885079E+02 -0.97627827094E+02  0.10062033084E+03  0.00000000000E+00 0.  1.
</event>
<event>
 7    1  0.2440960E-009  0.8061951E+02  0.7561462E-02  0.1327302E+00
          1   -1    0    0  501    0  0.00000000000E+00  0.00000000000E+00  0.55745127533E+03  0.55745127533E+03  0.00000000000E+00 0. -1.
         -1   -1    0    0    0  501 -0.00000000000E+00 -0.00000000000E+00 -0.26070605773E+02  0.26070605773E+02  0.00000000000E+00 0.  1.
         25    2    1    2    0    0  0.82012589697E+01 -0.28099254076E+02  0.42775264741E+03  0.44662893833E+03  0.12509297525E+03 0.  0.
          5    1    3    3  502    0  0.18331853862E+02 -0.54962515291E+02  0.40658835727E+03  0.41071705543E+03  0.41800000000E+01 0.  1.
         -5    1    3    3    0  502 -0.10130594892E+02  0.26863261215E+02  0.21164290134E+02  0.35911882892E+02  0.41800000000E+01 0.  1.
        -11    1    1    2    0    0 -0.38124764499E+02  0.20395538168E+02  0.19807543239E+02  0.47558536715E+02  0.00000000000E+00 0.  1.
         11    1    1    2    0    0  0.29923505530E+02  0.77037159080E+01  0.83820478905E+02  0.89334406059E+02  0.00000000000E+00 0. -1.
</event>
<event>
 7    1  0.2440960E-009  0.2514166E+03  0.7561462E-02  0.1112413E+00
         -1   -1    0    0    0  501 -0.00000000000E+00  0.00000000000E+00  0.95614267919E+02  0.95614267919E+02  0.00000000000E+00 0.  1.
          1   -1    0    0  501    0  0.00000000000E+00 -0.00000000000E+00 -0.75953340299E+03  0.75953340299E+03  0.00000000000E+00 0. -1.
         25    2    1    2    0    0  0.16624420894E+03  0.16714628473E+03 -0.22361588739E+03  0.34817601697E+03  0.12508979252E+03 0.  0.
          5    1    3    3  502    0  0.18501808974E+03  0.16234897303E+03 -0.21376876663E+03  0.32604208404E+03  0.41800000000E+01 0. -1.
         -5    1    3    3    0  502 -0.18773880797E+02  0.47973116941E+01 -0.98471207593E+01  0.22133932929E+02  0.41800000000E+01 0. -1.
        -11    1    1    2    0    0 -0.60302427834E+02 -0.76412494614E+02 -0.10176662358E+03  0.14082506102E+03  0.00000000000E+00 0.  1.
         11    1    1    2    0    0 -0.10594178111E+03 -0.90733790114E+02 -0.33853662410E+03  0.36614659292E+03  0.00000000000E+00 0. -1.
</event>
<event>
 7    1  0.2440960E-009  0.1516081E+03  0.7561462E-02  0.1198511E+00
          1   -1    0    0  501    0  0.00000000000E+00  0.00000000000E+00  0.58688241149E+03  0.58688241149E+03  0.00000000000E+00 0. -1.
         -1   -1    0    0    0  501 -0.00000000000E+00 -0.00000000000E+00 -0.46103474073E+02  0.46103474073E+02  0.00000000000E+00 0.  1.
         25    2    1    2    0    0  0.64984064674E+01  0.12181629181E+03  0.32812174349E+03  0.37174460093E+03  0.12509489010E+03 0.  0.
          5    1    3    3  502    0  0.43899240127E+02  0.11589312014E+03  0.29931228284E+03  0.32398097728E+03  0.41800000000E+01 0. -1.
         -5    1    3    3    0  502 -0.37400833660E+02  0.59231716790E+01  0.28809460655E+02  0.47763623652E+02  0.41800000000E+01 0. -1.
        -11    1    1    2    0    0 -0.16572973390E+02  0.21794181831E+01  0.23305362454E+01  0.16877343091E+02  0.00000000000E+00 0.  1.
         11    1    1    2    0    0  0.10074566923E+02 -0.12399571000E+03  0.21032665768E+03  0.24436394154E+03  0.00000000000E+00 0. -1.
</event>
<event>
 7    1  0.2440960E-009  0.8077457E+02  0.7561462E-02  0.1326868E+00
          2   -1    0    0  501    0  0.00000000000E+00  0.00000000000E+00  0.44854308619E+02  0.44854308619E+02  0.00000000000E+00 0. -1.
         -2   -1    0    0    0  501 -0.00000000000E+00 -0.00000000000E+00 -0.37004306911E+03  0.37004306911E+03  0.00000000000E+00 0.  1.
         25    2    1    2    0    0 -0.53871559688E+02  0.81409698406E+01 -0.24946243252E+03  0.28432853184E+03  0.12507113355E+03 0.  0.
          5    1    3    3  502    0 -0.94301924550E+01  0.15128118347E+01  0.13761325799E+02  0.17264519024E+02  0.41800000000E+01 0. -1.
         -5    1    3    3    0  502 -0.44441367233E+02  0.66281580059E+01 -0.26322375832E+03  0.26706401282E+03  0.41800000000E+01 0. -1.
        -11    1    1    2    0    0  0.17921965298E+02 -0.48644194649E+02 -0.31607486263E+02  0.60716453297E+02  0.00000000000E+00 0. -1.
         11    1    1    2    0    0  0.35949594390E+02  0.40503224808E+02 -0.44118841707E+02  0.69852392588E+02  0.00000000000E+00 0.  1.
</event>
<event>
 7    1  0.2440960E-009  0.1123529E+03  0.7561462E-02  0.1256274E+00
          2   -1    0    0  501    0  0.00000000000E+00  0.00000000000E+00  0.55439754676E+03  0.55439754676E+03  0.00000000000E+00 0. -1.
         -2   -1    0    0    0  501 -0.00000000000E+00 -0.00000000000E+00 -0.27853128591E+02  0.27853128591E+02  0.00000000000E+00 0.  1.
         25    2    1    2    0    0 -0.42871082299E+02  0.31950160416E+02  0.35434392152E+03  0.37956048189E+03  0.12509117573E+03 0.  0.
          5    1    3    3  502    0 -0.43462063928E+02 -0.37380051162E+02  0.23060059724E+03  0.23765590057E+03  0.41800000000E+01 0.  1.
         -5    1    3    3    0  502  0.59098162941E+00  0.69330211577E+02  0.12374332428E+03  0.14190458132E+03  0.41800000000E+01 0.  1.
        -11    1    1    2    0    0  0.28063596084E+02 -0.59895139534E+02  0.72710128313E+02  0.98294231389E+02  0.00000000000E+00 0.  1.
         11    1    1    2    0    0  0.14807486214E+02  0.27944979119E+02  0.99490368327E+02  0.10439596207E+03  0.00000000000E+00 0. -1.
</event>
<event>
 7    1  0.2440960E-009  0.1823214E+03  0.7561462E-02  0.1165575E+00
          2   -1    0    0  501    0  0.00000000000E+00  0.00000000000E+00  0.47886712596E+03  0.47886712596E+03  0.00000000000E+00 0.  1.
         -2   -1    0    0    0  501 -0.00000000000E+00 -0.00000000000E+00 -0.81797447234E+02  0.81797447234E+02  0.00000000000E+00 0. -1.
         25    2    1    2    0    0 -0.13481045533E+03 -0.90860209215E+02  0.16541848093E+03  0.26351786911E+03  0.12509579138E+03 0.  0.
          5    1    3    3  502    0 -0.13096906726E+03 -0.54786744081E+02  0.64106533203E+02  0.15582555601E+03  0.41800000000E+01 0. -1.
         -5    1    3    3    0  502 -0.38413880741E+01 -0.36073465134E+02  0.10131194773E+03  0.10769231311E+03  0.41800000000E+01 0. -1.
        -11    1    1    2    0    0  0.73599965264E+02  0.10004537526E+03  0.15556818479E+03  0.19906655197E+03  0.00000000000E+00 0. -1.
         11    1    1    2    0    0  0.61210490069E+02 -0.91851660400E+01  0.76083013009E+02  0.98080152112E+02  0.00000000000E+00 0.  1.
</event>
<event>
 7    1  0.2440960E-009  0.1420024E+03  0.7561462E-02  0.1210660E+00
          1   -1    0    0  501    0  0.00000000000E+00  0.00000000000E+00  0.23522232877E+03  0.23522232877E+03  0.00000000000E+00 0. -1.
         -1   -1    0    0    0  501 -0.00000000000E+00 -0.00000000000E+00 -0.18966053450E+03  0.18966053450E+03  0.00000000000E+00 0.  1.
         25    2    1    2    0    0 -0.12531702607E+03 -0.61393862722E+02  0.13946986522E+03  0.23360981708E+03  0.12509252547E+03 0.  0.
          5    1    3    3  502    0 -0.55189783132E+02 -0.40860932724E+02 -0.77182628365E+01  0.69228404333E+02  0.41800000000E+01 0. -1.
         -5    1    3    3    0  502 -0.70127242938E+02 -0.20532929998E+02  0.14718812806E+03  0.16438141275E+03  0.41800000000E+01 0. -1.
        -11    1    1    2    0    0  0.80496327402E+02  0.25023300236E+02 -0.10272304470E+03  0.13288283634E+03  0.00000000000E+00 0.  1.
         11    1    1    2    0    0  0.44820698668E+02  0.36370562486E+02  0.88149737473E+01  0.58390209854E+02  0.00000000000E+00 0. -1.
</event>
<event>
 7    1  0.2440960E-009  0.8053792E+02  0.7561462E-02  0.1327532E+00
         -4   -1    0    0    0  501 -0.00000000000E+00  0.00000000000E+00  0.15538494722E+03  0.15538494722E+03  0.00000000000E+00 0. -1.
          4   -1    0    0  501    0  0.00000000000E+00 -0.00000000000E+00 -0.12716031565E+03  0.12716031565E+03  0.00000000000E+00 0.  1.
         25    2    1    2    0    0  0.20779965540E+02  0.67198980378E+01  0.10311697005E+03  0.16357784916E+03  0.12509052413E+03 0.  0.
          5    1    3    3  502    0  0.21265087970E+02  0.37789022700E+02  0.12021600385E+03  0.12786545344E+03  0.41800000000E+01 0. -1.
         -5    1    3    3    0  502 -0.48512242929E+00 -0.31069124662E+02 -0.17099033798E+02  0.35712395717E+02  0.41800000000E+01 0. -1.
        -11    1    1    2    0    0  0.32550792064E+02 -0.17256559355E+01 -0.50510333846E+02  0.60115104405E+02  0.00000000000E+00 0.  1.
         11    1    1    2    0    0 -0.53330757604E+02 -0.49942421023E+01 -0.24382004634E+02  0.58852309307E+02  0.00000000000E+00 0. -1.
</event>
<event>
 7    1  0.2440960E-009  0.1239266E+03  0.7561462E-02  0.1236756E+00
          1   -1    0    0  501    0  0.00000000000E+00  0.00000000000E+00  0.53403775976E+02  0.53403775976E+02  0.00000000000E+00 0. -1.
         -1   -1    0    0    0  501 -0.00000000000E+00 -0.00000000000E+00 -0.49969439008E+03  0.49969439008E+03  0.00000000000E+00 0.  1.
         25    2    1    2    0    0 -0.99081937946E+01 -0.91861318264E+02 -0.10342768645E+03  0.18676681420E+03  0.12509149638E+03 0.  0.
          5    1    3    3  502    0 -0.47923973589E+02  0.76297299499E+01 -0.27905649594E+02  0.56134817207E+02  0.41800000000E+01 0.  1.
         -5    1    3    3    0  502  0.38015779794E+02 -0.99491048214E+02 -0.75522036854E+02  0.13063199699E+03  0.41800000000E+01 0.  1.
        -11    1    1    2    0    0  0.47641206670E+01  0.22148397660E+02 -0.76563440647E+01  0.23913761082E+02  0.00000000000E+00 0. -1.
         11    1    1    2    0    0  0.51440731275E+01  0.69712920604E+02 -0.33520658359E+03  0.34241759078E+03  0.00000000000E+00 0.  1.
</event>
<event>
 7    1  0.2440960E-009  0.1168240E+03  0.7561462E-02  0.1248430E+00
         -2   -1    0    0    0  501 -0.00000000000E+00  0.00000000000E+00  0.27606659429E+03  0.27606659429E+03  0.00000000000E+00 0. -1.
          2   -1    0    0  501    0  0.00000000000E+00 -0.00000000000E+00 -0.63830591341E+02  0.63830591341E+02  0.00000000000E+00 0.  1.
         25    2    1    2    0    0 -0.69000215058E+02  0.56584572079E+01  0.74715087275E+02  0.16132994219E+03  0.12510778619E+03 0.  0.
          5    1    3    3  502    0 -0.78610729106E+02 -0.28893688966E+02  0.89198443235E+02  0.12242682169E+03  0.41800000000E+01 0. -1.
         -5    1    3    3    0  502  0.96105140477E+01  0.34552146174E+02 -0.14483355960E+02  0.38903120509E+02  0.41800000000E+01 0. -1.
        -11    1    1    2    0    0  0.32772425070E+02 -0.47898402528E+02  0.64655394429E+02  0.86882730381E+02  0.00000000000E+00 0.  1.
         11    1    1    2    0    0  0.36227789988E+02  0.42239945320E+02  0.72865521249E+02  0.91684513060E+02  0.00000000000E+00 0. -1.
</event>
<event>
 7    1  0.2440960E-009  0.1114635E+03  0.7561462E-02  0.1257883E+00
          1   -1    0    0  501    0  0.00000000000E+00  0.00000000000E+00  0.79265939855E+03  0.79265939855E+03  0.00000000000E+00 0.  1.
         -1   -1    0    0    0  501 -0.00000000000E+00 -0.00000000000E+00 -0.17135116562E+02  0.17135116562E+02  0.00000000000E+00 0. -1.
         25    2    1    2    0    0 -0.29413951640E+02 -0.18629221847E+02  0.36829048112E+03  0.39050907988E+03  0.12508890650E+03 0.  0.
          5    1    3    3  502    0  0.11949664371E+02  0.45285928870E+02  0.20456968264E+03  0.20990435271E+03  0.41800000000E+01 0. -1.
         -5    1    3    3    0  502 -0.41363616011E+02 -0.63915150717E+02  0.16372079848E+03  0.18060472716E+03  0.41800000000E+01 0. -1.
        -11    1    1    2    0    0 -0.74417193008E+01 -0.34335220910E+02  0.13289826514E+03  0.13746357866E+03  0.00000000000E+00 0. -1.
         11    1    1    2    0    0  0.36855670941E+02  0.52964442757E+02  0.27433553573E+03  0.28182185657E+03  0.00000000000E+00 0.  1.
</event>
<event>
 7    1  0.2440960E-009  0.1375279E+03  0.7561462E-02  0.1216695E+00
          1   -1    0    0  501    0  0.00000000000E+00  0.00000000000E+00  0.13519051545E+04  0.13519051545E+04  0.00000000000E+00 0. -1.
         -1   -1    0    0    0  501 -0.00000000000E+00 -0.00000000000E+00 -0.21910914772E+02  0.21910914772E+02  0.00000000000E+00 0.  1.
         25    2    1    2    0    0 -0.10791474981E+03 -0.28091826277E+02  0.99287333153E+03  0.10069162190E+04  0.12509226897E+03 0.  0.
          5    1    3    3  502    0 -0.64285488639E+02  0.37674642096E+02  0.28366257876E+03  0.29331541674E+03  0.41800000000E+01 0.  1.
         -5    1    3    3    0  502 -0.43629261166E+02 -0.65766468373E+02  0.70921075276E+03  0.71360080229E+03  0.41800000000E+01 0.  1.
        -11    1    1    2    0    0  0.67864909066E+01 -0.11039602581E+02  0.20103202005E+00  0.12960312413E+02  0.00000000000E+00 0.  1.
         11    1    1    2    0    0  0.10112825890E+03  0.39131428858E+02  0.33691987615E+03  0.35393953780E+03  0.00000000000E+00 0. -1.
</event>
<event>
 7    1  0.2440960E-009  0.1452891E+03  0.7561462E-02  0.1206384E+00
         -2   -1    0    0    0  501 -0.00000000000E+00  0.00000000000E+00  0.24080127310E+02  0.24080127310E+02  0.00000000000E+00 0.  1.
          2   -1    0    0  501    0  0.00000000000E+00 -0.00000000000E+00 -0.99291623869E+03  0.99291623869E+03  0.00000000000E+00 0. -1.
         25    2    1    2    0    0  0.10622553250E+03 -0.27649458164E+02 -0.54985914278E+03  0.57449211464E+03  0.12509099328E+03 0.  0.
          5    1    3    3  502    0  0.95430589984E+02  0.24994663495E+02 -0.23264330694E+03  0.25272932432E+03  0.41800000000E+01 0. -1.
         -5    1    3    3    0  502  0.10794942513E+02 -0.52644121659E+02 -0.31721583584E+03  0.32176279032E+03  0.41800000000E+01 0. -1.
        -11    1    1    2    0    0 -0.11405397680E+03  0.42040793979E+02 -0.39633716854E+03  0.41455866792E+03  0.00000000000E+00 0. -1.
         11    1    1    2    0    0  0.78284443032E+01 -0.14391335816E+02 -0.22639800068E+02  0.27945583442E+02  0.00000000000E+00 0.  1.
</event>
<event>
 7    1  0.2440960E-009  0.1577344E+03  0.7561462E-02  0.1191279E+00
         -3   -1    0    0    0  501 -0.00000000000E+00  0.00000000000E+00  0.48117668084E+03  0.48117668084E+03  0.00000000000E+00 0.  1.
          3   -1    0    0  501    0  0.00000000000E+00 -0.00000000000E+00 -0.12277657175E+03  0.12277657175E+03  0.00000000000E+00 0. -1.
         25    2    1    2    0    0 -0.11102035287E+01  0.12983068654E+03  0.39921234274E+03  0.43803476547E+03  0.12508685559E+03 0.  0.
          5    1    3    3  502    0 -0.51128822296E+02  0.12952817643E+02  0.10853671050E+03  0.12074610503E+03  0.41800000000E+01 0.  1.
         -5    1    3    3    0  502  0.50018618767E+02  0.11687786890E+03  0.29067563224E+03  0.31728866044E+03  0.41800000000E+01 0.  1.
        -11    1    1    2    0    0  0.18696879804E+02 -0.45079884505E+02  0.27170036804E+02  0.55856782948E+02  0.00000000000E+00 0.  1.
         11    1    1    2    0    0 -0.17586676275E+02 -0.84750802035E+02 -0.67982270459E+02  0.11006170417E+03  0.00000000000E+00 0. -1.
</event>
<event>
 7    1  0.2440960E-009  0.1472981E+03  0.7561462E-02  0.1203833E+00
         -2   -1    0    0    0  501 -0.00000000000E+00  0.00000000000E+00  0.53152708826E+02  0.53152708826E+02  0.00000000000E+00 0.  1.
          2   -1    0    0  501    0  0.00000000000E+00 -0.00000000000E+00 -0.61045435256E+03  0.61045435256E+03  0.00000000000E+00 0. -1.
         25    2    1    2    0    0 -0.12306622538E+03  0.15528970099E+02 -0.42758007892E+03  0.46245040628E+03  0.12509680106E+03 0.  0.
          5    1    3    3  502    0 -0.66943575110E+02 -0.24915236011E+02 -0.77107813272E+02  0.10519172259E+03  0.41800000000E+01 0.  1.
         -5    1    3    3    0  502 -0.56122650271E+02  0.40444206110E+02 -0.35047226565E+03  0.35725868369E+03  0.41800000000E+01 0.  1.
        -11    1    1    2    0    0  0.11071291692E+03  0.23175771589E+02 -0.95546208218E+02  0.14806601320E+03  0.00000000000E+00 0.  1.
         11    1    1    2    0    0  0.12353308464E+02 -0.38704741689E+02 -0.34175356590E+02  0.53090641899E+02  0.00000000000E+00 0. -1.
</event>
<event>
 7    1  0.2440960E-009  0.1235454E+03  0.7561462E-02  0.1237360E+00
          1   -1    0    0  501    0  0.00000000000E+00  0.00000000000E+00  0.21780419489E+03  0.21780419489E+03  0.00000000000E+00 0. -1.
         -1   -1    0    0    0  501 -0.00000000000E+00 -0.00000000000E+00 -0.11004964329E+03  0.11004964329E+03  0.00000000000E+00 0.  1.
         25    2    1    2    0    0 -0.44533444497E+02  0.75664758057E+02 -0.11603524185E+02  0.15326529453E+03  0.12508887018E+03 0.  0.
          5    1    3    3  502    0  0.38608034894E+02  0.53994266238E+02 -0.33693637005E+00  0.66509751699E+02  0.41800000000E+01 0.  1.
         -5    1    3    3    0  502 -0.83141479391E+02  0.21670491819E+02 -0.11266587815E+02  0.86755542832E+02  0.41800000000E+01 0.  1.
        -11    1    1    2    0    0 -0.60396391012E+01 -0.99412884204E+01 -0.13595030720E+02  0.17892213843E+02  0.00000000000E+00 0.  1.
         11    1    1    2    0    0  0.50573083598E+02 -0.65723469637E+02  0.13295310650E+03  0.15669632980E+03  0.00000000000E+00 0. -1.
</event>
<event>
 7    1  0.2440960E-009  0.1053350E+03  0.7561462E-02  0.1269461E+00
          1   -1    0    0  501    0  0.00000000000E+00  0.00000000000E+00  0.93635948491E+02  0.93635948491E+02  0.00000000000E+00 0. -1.
         -1   -1    0    0    0  501 -0.00000000000E+00 -0.00000000000E+00 -0.13669729355E+03  0.13669729355E+03  0.00000000000E+00 0.  1.
         25    2    1    2    0    0  0.31431919653E+02  0.88440254997E+01 -0.29563656706E+02  0.13261870705E+03  0.12509008474E+03 0.  0.
          5    1    3    3  502    0 -0.41313904862E+02  0.16245498434E+01 -0.41152328642E+02  0.58484736896E+02  0.41800000000E+01 0.  1.
         -5    1    3    3    0  502  0.72745824515E+02  0.72194756563E+01  0.11588671936E+02  0.74133970151E+02  0.41800000000E+01 0.  1.
        -11    1    1    2    0    0  0.27465277501E+02  0.16203561561E+02  0.16955644052E+01  0.31933866257E+02  0.00000000000E+00 0.  1.
         11    1    1    2    0    0 -0.58897197154E+02 -0.25047587061E+02 -0.15193252760E+02  0.65780668738E+02  0.00000000000E+00 0. -1.
</event>
<event>
 7    1  0.2440960E-009  0.1011112E+03  0.7561462E-02  0.1277976E+00
         -1   -1    0    0    0  501 -0.00000000000E+00  0.00000000000E+00  0.73942280313E+02  0.73942280313E+02  0.00000000000E+00 0.  1.
          1   -1    0    0  501    0  0.00000000000E+00 -0.00000000000E+00 -0.17648144928E+03  0.17648144928E+03  0.00000000000E+00 0. -1.
         25    2    1    2    0    0 -0.37703956254E+02  0.26684218216E+01 -0.60742287128E+02  0.14410307313E+03  0.12508941382E+03 0.  0.
          5    1    3    3  502    0 -0.35146924641E+02 -0.44794429624E+02  0.10805592840E+02  0.58104048686E+02  0.41800000000E+01 0. -1.
         -5    1    3    3    0  502 -0.25570316130E+01  0.47462851445E+02 -0.71547879968E+02  0.85999024447E+02  0.41800000000E+01 0. -1.
        -11    1    1    2    0    0 -0.23429833707E+01  0.39321805576E+02 -0.21300419552E+02  0.44781713209E+02  0.00000000000E+00 0. -1.
         11    1    1    2    0    0  0.40046939625E+02 -0.41990227397E+02 -0.20496462289E+02  0.61538943252E+02  0.00000000000E+00 0.  1.
</event>
<event>
 7    1  0.2440960E-009  0.6055015E+02  0.7561462E-02  0.1395537E+00
         -1   -1    0    0    0  501 -0.00000000000E+00  0.00000000000E+00  0.64541159332E+02  0.64541159332E+02  0.00000000000E+00 0.  1.
          1   -1    0    0  501    0  0.00000000000E+00 -0.00000000000E+00 -0.19307885220E+03  0.19307885220E+03  0.00000000000E+00 0. -1.
         25    2    1    2    0    0  0.31023174431E+02  0.16500328430E+02 -0.81238309854E+02  0.15323761394E+03  0.12508958849E+03 0.  0.
          5    1    3    3  502    0  0.32241905139E+02  0.34471976338E+01 -0.11352606727E+03  0.11814001848E+03  0.41800000000E+01 0. -1.
         -5    1    3    3    0  502 -0.12187307077E+01  0.13053130796E+02  0.32287757411E+02  0.35097595456E+02  0.41800000000E+01 0. -1.
        -11    1    1    2    0    0 -0.44100993606E+02 -0.31910238764E+02 -0.16512193198E+01  0.54459962360E+02  0.00000000000E+00 0.  1.
         11    1    1    2    0    0  0.13077819175E+02  0.15409910335E+02 -0.45648163692E+02  0.49922435230E+02  0.00000000000E+00 0. -1.
</event>
<event>
 7    1  0.2440960E-009  0.2093358E+03  0.7561462E-02  0.1142093E+00
         -3   -1    0    0    0  501 -0.00000000000E+00  0.00000000000E+00  0.21509671531E+03  0.21509671531E+03  0.00000000000E+00 0.  1.
          3   -1    0    0  501    0  0.00000000000E+00 -0.00000000000E+00 -0.35874649120E+03  0.35874649120E+03  0.00000000000E+00 0. -1.
         25    2    1    2    0    0 -0.10880234264E+03  0.17274063568E+03 -0.23150320756E+03  0.33304474090E+03  0.12509111620E+03 0.  0.
          5    1    3    3  502    0 -0.77666861308E+02  0.92457707756E+02 -0.21298380831E+03  0.24486760519E+03  0.41800000000E+01 0. -1.
         -5    1    3    3    0  502 -0.31135481332E+02  0.80282927921E+02 -0.18519399251E+02  0.88177135710E+02  0.41800000000E+01 0. -1.
        -11    1    1    2    0    0  0.84878954909E+02 -0.82819184486E+02  0.88126080527E+02  0.14774863916E+03  0.00000000000E+00 0.  1.
         11    1    1    2    0    0  0.23923387731E+02 -0.89921451192E+02 -0.27264886340E+00  0.93049826450E+02  0.00000000000E+00 0. -1.
</event>
<event>
 7    1  0.2440960E-009  0.1034345E+03  0.7561462E-02  0.1273235E+00
         -2   -1    0    0    0  501 -0.00000000000E+00  0.00000000000E+00  0.12984647020E+03  0.12984647020E+03  0.00000000000E+00 0.  1.
          2   -1    0    0  501    0  0.00000000000E+00 -0.00000000000E+00 -0.13105285972E+03  0.13105285972E+03  0.00000000000E+00 0. -1.
         25    2    1    2    0    0  0.55533705006E+02 -0.26767577286E+02  0.44689445824E+02  0.14644070241E+03  0.12508891705E+03 0.  0.
          5    1    3    3  502    0  0.71733641428E+02 -0.39611095705E+02 -0.14754109994E+02  0.83366122479E+02  0.41800000000E+01 0. -1.
         -5    1    3    3    0  502 -0.16199936422E+02  0.12843518419E+02  0.59443555818E+02  0.63074579933E+02  0.41800000000E+01 0. -1.
        -11    1    1    2    0    0  0.54179252700E+01  0.40818732981E+02 -0.10128134299E+02  0.42404032600E+02  0.00000000000E+00 0.  1.
         11    1    1    2    0    0 -0.60951630276E+02 -0.14051155695E+02 -0.35767701045E+02  0.72054594910E+02  0.00000000000E+00 0. -1.
</event>
<event>
 7    1  0.2440960E-009  0.1201259E+03  0.7561462E-02  0.1242889E+00
         -3   -1    0    0    0  501 -0.00000000000E+00  0.00000000000E+00  0.40059997067E+02  0.40059997067E+02  0.00000000000E+00 0.  1.
          3   -1    0    0  501    0  0.00000000000E+00 -0.00000000000E+00 -0.49272609961E+03  0.49272609961E+03  0.00000000000E+00 0. -1.
         25    2    1    2    0    0  0.13669644367E+02 -0.49590720202E+02 -0.38347410793E+03  0.40662902016E+03  0.12509464367E+03 0.  0.
          5    1    3    3  502    0 -0.49457729215E+02 -0.52071951162E+02 -0.20590999301E+03  0.21811454032E+03  0.41800000000E+01 0.  1.
         -5    1    3    3    0  502  0.63127373581E+02  0.24812309600E+01 -0.17756411492E+03  0.18851447984E+03  0.41800000000E+01 0.  1.
        -11    1    1    2    0    0  0.84495004209E+01 -0.25424432021E+02 -0.23113061575E+02  0.35383745087E+02  0.00000000000E+00 0. -1.
         11    1    1    2    0    0 -0.22119144788E+02  0.75015152224E+02 -0.46078933040E+02  0.90773331433E+02  0.00000000000E+00 0.  1.
</event>
<event>
 7    1  0.2440960E-009  0.5397502E+02  0.7561462E-02  0.1425009E+00
         -1   -1    0    0    0  501 -0.00000000000E+00  0.00000000000E+00  0.16931892089E+03  0.16931892089E+03  0.00000000000E+00 0.  1.
          1   -1    0    0  501    0  0.00000000000E+00 -0.00000000000E+00 -0.80316264814E+02  0.80316264814E+02  0.00000000000E+00 0. -1.
         25    2    1    2    0    0 -0.37740772334E+01  0.26087583414E+02  0.89291120229E+02  0.15593607773E+03  0.12509336721E+03 0.  0.
          5    1    3    3  502    0  0.59629418743E+01 -0.13274799315E+02  0.10942756717E+03  0.11047009473E+03  0.41800000000E+01 0.  1.
         -5    1    3    3    0  502 -0.97370191077E+01  0.39362382729E+02 -0.20136446939E+02  0.45465983004E+02  0.41800000000E+01 0.  1.
        -11    1    1    2    0    0 -0.51781683101E+01 -0.37322446957E+02 -0.37896492946E+02  0.53440833185E+02  0.00000000000E+00 0. -1.
         11    1    1    2    0    0  0.89522455435E+01  0.11234863543E+02  0.37608028796E+02  0.40258274790E+02  0.00000000000E+00 0.  1.
</event>
<event>
 7    1  0.2440960E-009  0.1362139E+03  0.7561462E-02  0.1218516E+00
         -1   -1    0    0    0  501 -0.00000000000E+00  0.00000000000E+00  0.10243320879E+03  0.10243320879E+03  0.00000000000E+00 0.  1.
          1   -1    0    0  501    0  0.00000000000E+00 -0.00000000000E+00 -0.20153571931E+03  0.20153571931E+03  0.00000000000E+00 0. -1.
         25    2    1    2    0    0 -0.30344672547E+02  0.87376501492E+02 -0.40594277772E+02  0.16078384703E+03  0.12509235753E+03 0.  0.
          5    1    3    3  502    0  0.39149645865E+02  0.56023644242E+02  0.99816085322E+01  0.69198615553E+02  0.41800000000E+01 0. -1.
         -5    1    3    3    0  502 -0.69494318412E+02  0.31352857250E+02 -0.50575886304E+02  0.91585231477E+02  0.41800000000E+01 0. -1.
        -11    1    1    2    0    0 -0.31279504487E+02 -0.26871053665E+02 -0.48744895673E+01  0.41523747116E+02  0.00000000000E+00 0.  1.
         11    1    1    2    0    0  0.61624177034E+02 -0.60505447827E+02 -0.53633743181E+02  0.10166133394E+03  0.00000000000E+00 0. -1.
</event>
<event>
 7    1  0.2440960E-009  0.1222640E+03  0.7561462E-02  0.1239408E+00
         -1   -1    0    0    0  501 -0.00000000000E+00  0.00000000000E+00  0.10111642625E+03  0.10111642625E+03  0.00000000000E+00 0.  1.
          1   -1    0    0  501    0  0.00000000000E+00 -0.00000000000E+00 -0.18488755896E+03  0.18488755896E+03  0.00000000000E+00 0. -1.
         25    2    1    2    0    0 -0.13768431848E+02  0.77004584236E+02 -0.16667099043E+02  0.14847434931E+03  0.12509022546E+03 0.  0.
          5    1    3    3  502    0  0.26578942548E+01 -0.27343033133E+02  0.22481114100E+02  0.35743233681E+02  0.41800000000E+01 0. -1.
         -5    1    3    3    0  502 -0.16426326102E+02  0.10434761737E+03 -0.39148213144E+02  0.11273111563E+03  0.41800000000E+01 0. -1.
        -11    1    1    2    0    0  0.25755853622E+01  0.16577054619E+02 -0.33506688269E+02  0.37471729858E+02  0.00000000000E+00 0. -1.
         11    1    1    2    0    0  0.11192846485E+02 -0.93581638855E+02 -0.33597345390E+02  0.10005790604E+03  0.00000000000E+00 0.  1.
</event>
<event>
 7    1  0.2440960E-009  0.1073367E+03  0.7561462E-02  0.1265583E+00
         -2   -1    0    0    0  501 -0.00000000000E+00  0.00000000000E+00  0.37063408477E+02  0.37063408477E+02  0.00000000000E+00 0.  1.
          2   -1    0    0  501    0  0.00000000000E+00 -0.00000000000E+00 -0.33312089970E+03  0.33312089970E+03  0.00000000000E+00 0. -1.
         25    2    1    2    0    0 -0.28272687802E+02 -0.65876660868E+01 -0.18625070029E+03  0.22622698764E+03  0.12508630764E+03 0.  0.
          5    1    3    3  502    0 -0.44277559468E+02 -0.58681176427E+02 -0.10196737966E+03  0.12577281762E+03  0.41800000000E+01 0. -1.
         -5    1    3    3    0  502  0.16004871665E+02  0.52093510341E+02 -0.84283320633E+02  0.10045417002E+03  0.41800000000E+01 0. -1.
        -11    1    1    2    0    0  0.54681273271E+02 -0.94462700881E+01 -0.42493325388E+02  0.69892462882E+02  0.00000000000E+00 0.  1.
         11    1    1    2    0    0 -0.26408585469E+02  0.16033936175E+02 -0.67313465545E+02  0.74064857655E+02  0.00000000000E+00 0. -1.
</event>
<event>
 7    1  0.2761556E-009  0.9864485E+02  0.7561462E-02  0.1283172E+00
          1   -1    0    0  501    0  0.00000000000E+00  0.00000000000E+00  0.40002865299E+03  0.40002865299E+03  0.00000000000E+00 0. -1.
         -1   -1    0    0    0  501 -0.00000000000E+00 -0.00000000000E+00 -0.49700270278E+02  0.49700270278E+02  0.00000000000E+00 0.  1.
         25    2    1    2    0    0 -0.81899030970E+02 -0.25667354201E+02  0.23163376388E+03  0.27689019064E+03  0.12509081805E+03 0.  0.
          5    1    3    3  502    0 -0.80259509063E+02  0.37145674413E+01  0.23363535471E+03  0.24709985467E+03  0.41800000000E+01 0.  1.
         -5    1    3    3    0  502 -0.16395219068E+01 -0.29381921642E+02 -0.20015908337E+01  0.29790335972E+02  0.41800000000E+01 0.  1.
        -11    1    1    2    0    0  0.13341177440E+02 -0.13798219648E+01 -0.15033219392E+02  0.20146677380E+02  0.00000000000E+00 0.  1.
         11    1    1    2    0    0  0.68557853529E+02  0.27047176166E+02  0.13372783822E+03  0.15269205525E+03  0.00000000000E+00 0. -1.
</event>
<event>
 7    1  0.2440960E-009  0.2236513E+03  0.7561462E-02  0.1131190E+00
         -2   -1    0    0    0  501 -0.00000000000E+00  0.00000000000E+00  0.19058941339E+03  0.19058941339E+03  0.00000000000E+00 0.  1.
          2   -1    0    0  501    0  0.00000000000E+00 -0.00000000000E+00 -0.31483738703E+03  0.31483738703E+03  0.00000000000E+00 0. -1.
         25    2    1    2    0    0  0.12527846196E+03  0.17275980372E+03 -0.11649947947E+03  0.27342340809E+03  0.12509032160E+03 0.  0.
          5    1    3    3  502    0  0.28213259332E+02  0.69780410553E+02 -0.10784851395E+03  0.13158293226E+03  0.41800000000E+01 0.  1.
         -5    1    3    3    0  502  0.97065202630E+02  0.10297939317E+03 -0.86509655151E+01  0.14184047583E+03  0.41800000000E+01 0.  1.
        -11    1    1    2    0    0 -0.12369478229E+03 -0.10411689253E+03  0.67756491833E+01  0.16182285345E+03  0.00000000000E+00 0. -1.
         11    1    1    2    0    0 -0.15836796677E+01 -0.68642911194E+02 -0.14524143354E+02  0.70180538888E+02  0.00000000000E+00 0.  1.
</event>
<event>
 7    1  0.2440960E-009  0.6091942E+02  0.7561462E-02  0.1394013E+00
          3   -1    0    0  501    0  0.00000000000E+00  0.00000000000E+00  0.74916372762E+02  0.74916372762E+02  0.00000000000E+00 0.  1.
         -3   -1    0    0    0  501 -0.00000000000E+00 -0.00000000000E+00 -0.21549562236E+03  0.21549562236E+03  0.00000000000E+00 0. -1.
         25    2    1    2    0    0 -0.11752709384E+02 -0.49540364750E+02 -0.12729979220E+03  0.18559374474E+03  0.12508967614E+03 0.  0.
          5    1    3    3  502    0 -0.12589204703E+02 -0.16660479048E+02 -0.14598889895E+03  0.14753403219E+03  0.41800000000E+01 0. -1.
         -5    1    3    3    0  502  0.83649531945E+00 -0.32879885702E+02  0.18689106755E+02  0.38059712551E+02  0.41800000000E+01 0. -1.
        -11    1    1    2    0    0 -0.11457612701E+02  0.41136916670E+02 -0.46693139585E+02  0.63275367136E+02  0.00000000000E+00 0. -1.
         11    1    1    2    0    0  0.23210322085E+02  0.84034480803E+01  0.33413682186E+02  0.41542883243E+02  0.00000000000E+00 0.  1.
</event>
<event>
 7    1  0.2440960E-009  0.1940678E+03  0.7561462E-02  0.1154843E+00
          1   -1    0    0  501    0  0.00000000000E+00  0.00000000000E+00  0.42025644631E+03  0.42025644631E+03  0.00000000000E+00 0. -1.
         -1   -1    0    0    0  501 -0.00000000000E+00 -0.00000000000E+00 -0.10317783834E+03  0.10317783834E+03  0.00000000000E+00 0.  1.
         25    2    1    2    0    0  0.14502754650E+03 -0.98762028706E+02  0.20123859899E+03  0.29484280731E+03  0.12509348400E+03 0.  0.
          5    1    3    3  502    0 -0.18437740212E+02  0.34746995562E+01  0.53443123143E+01  0.19951387802E+02  0.41800000000E+01 0. -1.
         -5    1    3    3    0  502  0.16346528671E+03 -0.10223672826E+03  0.19589428667E+03  0.27489141950E+03  0.41800000000E+01 0. -1.
        -11    1    1    2    0    0 -0.52472310724E+02  0.44318709126E+02 -0.25842909531E+01  0.68732597296E+02  0.00000000000E+00 0.  1.
         11    1    1    2    0    0 -0.92555235774E+02  0.54443319580E+02  0.11842429994E+03  0.15985888005E+03  0.00000000000E+00 0. -1.
</event>
<event>
 7    1  0.2440960E-009  0.1368315E+03  0.7561462E-02  0.1217657E+00
         -2   -1    0    0    0  501 -0.00000000000E+00  0.00000000000E+00  0.61561228883E+02  0.61561228883E+02  0.00000000000E+00 0.  1.
          2   -1    0    0  501    0  0.00000000000E+00 -0.00000000000E+00 -0.39987120864E+03  0.39987120864E+03  0.00000000000E+00 0. -1.
         25    2    1    2    0    0  0.84038379487E+02  0.36464490697E+02 -0.83613474044E+02  0.17615703705E+03  0.12509188763E+03 0.  0.
          5    1    3    3  502    0  0.47881646848E+02  0.78925984739E+02 -0.26300874713E+02  0.96078986165E+02  0.41800000000E+01 0.  1.
         -5    1    3    3    0  502  0.36156732638E+02 -0.42461494042E+02 -0.57312599331E+02  0.80078050884E+02  0.41800000000E+01 0.  1.
        -11    1    1    2    0    0 -0.16899186847E+02 -0.53462714138E+02 -0.14592448394E+03  0.15632593941E+03  0.00000000000E+00 0.  1.
         11    1    1    2    0    0 -0.67139192640E+02  0.16998223441E+02 -0.10877202178E+03  0.12894946107E+03  0.00000000000E+00 0. -1.
</event>
<event>
 7    1  0.2440960E-009  0.2088874E+03  0.7561462E-02  0.1142450E+00
          4   -1    0    0  501    0  0.00000000000E+00  0.00000000000E+00  0.22289148783E+03  0.22289148783E+03  0.00000000000E+00 0. -1.
         -4   -1    0    0    0  501 -0.00000000000E+00 -0.00000000000E+00 -0.20803403061E+03  0.20803403061E+03  0.00000000000E+00 0.  1.
         25    2    1    2    0    0  0.15193695100E+03 -0.10420318516E+03  0.29663096579E+02  0.22466099918E+03  0.12509805905E+03 0.  0.
          5    1    3    3  502    0  0.56511112058E+02  0.17119090845E+02  0.37462598925E+02  0.70053463694E+02  0.41800000000E+01 0. -1.
         -5    1    3    3    0  502  0.95425838939E+02 -0.12132227600E+03 -0.77995023457E+01  0.15460753548E+03  0.41800000000E+01 0. -1.
        -11    1    1    2    0    0 -0.35190125151E+02 -0.14146352369E+02 -0.12739818693E+02  0.40009588523E+02  0.00000000000E+00 0.  1.
         11    1    1    2    0    0 -0.11674682585E+03  0.11834953753E+03 -0.20658206675E+01  0.16625493073E+03  0.00000000000E+00 0. -1.
</event>
<event>
 7    1  0.2440960E-009  0.7956132E+02  0.7561462E-02  0.1330301E+00
          1   -1    0    0  501    0  0.00000000000E+00  0.00000000000E+00  0.23421511019E+03  0.23421511019E+03  0.00000000000E+00 0. -1.
         -1   -1    0    0    0  501 -0.00000000000E+00 -0.00000000000E+00 -0.77869151032E+02  0.77869151032E+02  0.00000000000E+00 0.  1.
         25    2    1    2    0    0  0.46774153550E+02  0.15261966437E+02  0.12372681318E+02  0.13498692344E+03  0.12509051601E+03 0.  0.
          5    1    3    3  502    0  0.49117410196E+02 -0.22940235623E+02 -0.41760721225E+02  0.68558038420E+02  0.41800000000E+01 0.  1.
         -5    1    3    3    0  502 -0.23432566460E+01  0.38202202060E+02  0.54133402542E+02  0.66428885018E+02  0.41800000000E+01 0.  1.
        -11    1    1    2    0    0 -0.54204098640E+02 -0.62400059684E+01  0.15293039959E+03  0.16237219313E+03  0.00000000000E+00 0. -1.
         11    1    1    2    0    0  0.74299450896E+01 -0.90219604683E+01 -0.89571217553E+01  0.14725144647E+02  0.00000000000E+00 0.  1.
</event>
<event>
 7    1  0.2440960E-009  0.1200113E+03  0.7561462E-02  0.1243078E+00
          1   -1    0    0  501    0  0.00000000000E+00  0.00000000000E+00  0.19800784478E+03  0.19800784478E+03  0.00000000000E+00 0. -1.
         -1   -1    0    0    0  501 -0.00000000000E+00 -0.00000000000E+00 -0.86920260328E+02  0.86920260328E+02  0.00000000000E+00 0.  1.
         25    2    1    2    0    0 -0.46467795216E+02  0.29734441282E+02  0.11858823385E+02  0.13723056036E+03  0.12509277363E+03 0.  0.
          5    1    3    3  502    0 -0.13042759129E+02  0.76234747857E+02  0.17892473447E+02  0.79495052378E+02  0.41800000000E+01 0.  1.
         -5    1    3    3    0  502 -0.33425036087E+02 -0.46500306575E+02 -0.60336500617E+01  0.57735507983E+02  0.41800000000E+01 0.  1.
        -11    1    1    2    0    0  0.50587544368E+02 -0.57783049208E+02  0.89011884018E+02  0.11756315714E+03  0.00000000000E+00 0.  1.
         11    1    1    2    0    0 -0.41197491520E+01  0.28048607926E+02  0.10216877047E+02  0.30134387604E+02  0.00000000000E+00 0. -1.
</event>
<event>
 7    1  0.2440960E-009  0.1231868E+03  0.7561462E-02  0.1237931E+00
         -2   -1    0    0    0  501 -0.00000000000E+00  0.00000000000E+00  0.11768228411E+03  0.11768228411E+03  0.00000000000E+00 0. -1.
          2   -1    0    0  501    0  0.00000000000E+00 -0.00000000000E+00 -0.17411478999E+03  0.17411478999E+03  0.00000000000E+00 0.  1.
         25    2    1    2    0    0 -0.17848333624E+01  0.93231719797E+02 -0.41533322347E+02  0.16145669795E+03  0.12509160340E+03 0.  0.
          5    1    3    3  502    0 -0.57021178063E+02  0.75988611528E+02 -0.10531117131E+02  0.95676855391E+02  0.41800000000E+01 0.  1.
         -5    1    3    3    0  502  0.55236344700E+02  0.17243108270E+02 -0.31002205216E+02  0.65779842557E+02  0.41800000000E+01 0.  1.
        -11    1    1    2    0    0  0.57729028937E-01 -0.44115504839E+02  0.37934352065E+02  0.58182438643E+02  0.00000000000E+00 0. -1.
         11    1    1    2    0    0  0.17271043335E+01 -0.49116214959E+02 -0.52833535605E+02  0.72157937511E+02  0.00000000000E+00 0.  1.
</event>
<event>
 7    1  0.2440960E-009  0.1038622E+03  0.7561462E-02  0.1272378E+00
          2   -1    0    0  501    0  0.00000000000E+00  0.00000000000E+00  0.43433026694E+03  0.43433026694E+03  0.00000000000E+00 0. -1.
         -2   -1    0    0    0  501 -0.00000000000E+00 -0.00000000000E+00 -0.36606548611E+02  0.36606548611E+02  0.00000000000E+00 0.  1.
         25    2    1    2    0    0 -0.15234869282E+02 -0.46442437332E+02  0.30426520049E+03  0.33258559104E+03  0.12508741708E+03 0.  0.
          5    1    3    3  502    0  0.49950929459E+02 -0.20136723991E+02  0.19699695670E+03  0.20426907832E+03  0.41800000000E+01 0. -1.
         -5    1    3    3    0  502 -0.65185798740E+02 -0.26305713341E+02  0.10726824379E+03  0.12831651272E+03  0.41800000000E+01 0. -1.
        -11    1    1    2    0    0 -0.20075012376E+02 -0.51909585502E+01 -0.53434085404E+01  0.21412710884E+02  0.00000000000E+00 0.  1.
         11    1    1    2    0    0  0.35309881658E+02  0.51633395882E+02  0.98801926377E+02  0.11693851362E+03  0.00000000000E+00 0. -1.
</event>
<event>
 7    1  0.2440960E-009  0.1189801E+03  0.7561462E-02  0.1244789E+00
          2   -1    0    0  501    0  0.00000000000E+00  0.00000000000E+00  0.17193451841E+04  0.17193451841E+04  0.00000000000E+00 0. -1.
         -2   -1    0    0    0  501 -0.00000000000E+00 -0.00000000000E+00 -0.96244004077E+01  0.96244004077E+01  0.00000000000E+00 0.  1.
         25    2    1    2    0    0 -0.27723226785E+02  0.39334584145E+02  0.12396940660E+04  0.12469181854E+04  0.12509115434E+03 0.  0.
          5    1    3    3  502    0  0.16525214688E+02  0.73643898822E+02  0.82177667726E+03  0.82524595500E+03  0.41800000000E+01 0.  1.
         -5    1    3    3    0  502 -0.44248441473E+02 -0.34309314678E+02  0.41791738873E+03  0.42167223035E+03  0.41800000000E+01 0.  1.
        -11    1    1    2    0    0 -0.22819844450E+02 -0.49644424361E+02  0.27062713385E+03  0.27608759434E+03  0.00000000000E+00 0.  1.
         11    1    1    2    0    0  0.50543071235E+02  0.10309840216E+02  0.19939958382E+03  0.20596380479E+03  0.00000000000E+00 0. -1.
</event>
<event>
 7    1  0.2440960E-009  0.1445701E+03  0.7561462E-02  0.1207309E+00
         -2   -1    0    0    0  501 -0.00000000000E+00  0.00000000000E+00  0.12713538967E+03  0.12713538967E+03  0.00000000000E+00 0.  1.
          2   -1    0    0  501    0  0.00000000000E+00 -0.00000000000E+00 -0.22967880265E+03  0.22967880265E+03  0.00000000000E+00 0. -1.
         25    2    1    2    0    0  0.62224358624E+02 -0.11011813729E+03 -0.93356849705E+02  0.20089877617E+03  0.12508773687E+03 0.  0.
          5    1    3    3  502    0 -0.12684405487E+01 -0.40271335501E+02  0.26404257668E+02  0.48353351771E+02  0.41800000000E+01 0. -1.
         -5    1    3    3    0  502  0.63492799173E+02 -0.69846801784E+02 -0.11976110737E+03  0.15254542440E+03  0.41800000000E+01 0. -1.
        -11    1    1    2    0    0  0.22379021815E+02  0.31610259883E+02  0.70334737032E+01  0.39363674874E+02  0.00000000000E+00 0.  1.
         11    1    1    2    0    0 -0.84603380439E+02  0.78507877402E+02 -0.16220036979E+02  0.11655174128E+03  0.00000000000E+00 0. -1.
</event>
<event>
 7    1  0.2440960E-009  0.1539359E+03  0.7561462E-02  0.1195718E+00
          1   -1    0    0  501    0  0.00000000000E+00  0.00000000000E+00  0.82112338264E+02  0.82112338264E+02  0.00000000000E+00 0. -1.
         -1   -1    0    0    0  501 -0.00000000000E+00 -0.00000000000E+00 -0.40189744453E+03  0.40189744453E+03  0.00000000000E+00 0.  1.
         25    2    1    2    0    0  0.12775508409E+02  0.12296077351E+03 -0.27112096413E+03  0.32316704586E+03  0.12509115436E+03 0.  0.
          5    1    3    3  502    0 -0.40832471172E+02  0.35347645248E+01 -0.96167991500E+02  0.10462093601E+03  0.41800000000E+01 0. -1.
         -5    1    3    3    0  502  0.53607979581E+02  0.11942600899E+03 -0.17495297263E+03  0.21854610985E+03  0.41800000000E+01 0. -1.
        -11    1    1    2    0    0  0.21556949185E+02 -0.63265149718E+02 -0.61460531306E+02  0.90799659336E+02  0.00000000000E+00 0.  1.
         11    1    1    2    0    0 -0.34332457594E+02 -0.59695623794E+02  0.12796389166E+02  0.70043077604E+02  0.00000000000E+00 0. -1.
</event>
<event>
 7    1  0.2440960E-009  0.1337904E+03  0.7561462E-02  0.1221937E+00
          2   -1    0    0  501    0  0.00000000000E+00  0.00000000000E+00  0.20541404343E+03  0.20541404343E+03  0.00000000000E+00 0. -1.
         -2   -1    0    0    0  501 -0.00000000000E+00 -0.00000000000E+00 -0.12244503319E+03  0.12244503319E+03  0.00000000000E+00 0.  1.
         25    2    1    2    0    0  0.86198843227E+02  0.83951488245E+02  0.77550650976E+02  0.19010398987E+03  0.12508929028E+03 0.  0.
          5    1    3    3  502    0 -0.24707905162E+01 -0.50560378381E+01 -0.26194158657E+02  0.27115948668E+02  0.41800000000E+01 0. -1.
         -5    1    3    3    0  502  0.88669633743E+02  0.89007526083E+02  0.10374480963E+03  0.16298804120E+03  0.41800000000E+01 0. -1.
        -11    1    1    2    0    0 -0.27671975941E+02 -0.69169617733E+02 -0.10728788069E+02  0.75268062040E+02  0.00000000000E+00 0. -1.
         11    1    1    2    0    0 -0.58526867286E+02 -0.14781870512E+02  0.16147147333E+02  0.62487024710E+02  0.00000000000E+00 0.  1.
</event>
<event>
 7    1  0.2440960E-009  0.9951019E+02  0.7561462E-02  0.1281329E+00
          1   -1    0    0  501    0  0.00000000000E+00  0.00000000000E+00  0.29436060489E+03  0.29436060489E+03  0.00000000000E+00 0. -1.
         -1   -1    0    0    0  501 -0.00000000000E+00 -0.00000000000E+00 -0.42339274322E+02  0.42339274322E+02  0.00000000000E+00 0.  1.
         25    2    1    2    0    0  0.17652403306E+02 -0.19894241483E+02  0.15511104288E+03  0.20103231756E+03  0.12508864415E+03 0.  0.
          5    1    3    3  502    0  0.78098761796E+01  0.52977154667E+02  0.56563735424E+02  0.78003215624E+02  0.41800000000E+01 0.  1.
         -5    1    3    3    0  502  0.98425271262E+01 -0.72871396150E+02  0.98547307452E+02  0.12302910194E+03  0.41800000000E+01 0.  1.
        -11    1    1    2    0    0 -0.30750667428E+02  0.38267499323E+02  0.15944214154E+02  0.51616111987E+02  0.00000000000E+00 0.  1.
         11    1    1    2    0    0  0.13098264123E+02 -0.18373257839E+02  0.80966073538E+02  0.84051449665E+02  0.00000000000E+00 0. -1.
</event>
<event>
 7    1  0.2440960E-009  0.1278805E+03  0.7561462E-02  0.1230635E+00
          2   -1    0    0  501    0  0.00000000000E+00  0.00000000000E+00  0.10063437912E+04  0.10063437912E+04  0.00000000000E+00 0. -1.
         -2   -1    0    0    0  501 -0.00000000000E+00 -0.00000000000E+00 -0.18210508959E+02  0.18210508959E+02  0.00000000000E+00 0.  1.
         25    2    1    2    0    0  0.15669726739E+02 -0.78328247876E+02  0.54889535412E+03  0.56860734710E+03  0.12508937063E+03 0.  0.
          5    1    3    3  502    0  0.47722119541E+01 -0.10622918368E+03  0.30897054225E+03  0.32678384576E+03  0.41800000000E+01 0. -1.
         -5    1    3    3    0  502  0.10897514784E+02  0.27900935800E+02  0.23992481187E+03  0.24182350134E+03  0.41800000000E+01 0. -1.
        -11    1    1    2    0    0  0.31891805528E+02  0.58735329819E+01  0.78311528309E+02  0.84760138718E+02  0.00000000000E+00 0.  1.
         11    1    1    2    0    0 -0.47561532266E+02  0.72454714894E+02  0.36092639981E+03  0.37118681434E+03  0.00000000000E+00 0. -1.
</event>
<event>
 7    1  0.2440960E-009  0.1025507E+03  0.7561462E-02  0.1275022E+00
          2   -1    0    0  501    0  0.00000000000E+00  0.00000000000E+00  0.43937188635E+02  0.43937188635E+02  0.00000000000E+00 0. -1.
         -2   -1    0    0    0  501 -0.00000000000E+00 -0.00000000000E+00 -0.27015017537E+03  0.27015017537E+03  0.00000000000E+00 0.  1.
         25    2    1    2    0    0 -0.50274191885E+01  0.22109029373E+01 -0.11371792992E+03  0.16914133567E+03  0.12508741268E+03 0.  0.
          5    1    3    3  502    0  0.55069874689E+02 -0.64483025597E+01 -0.85658082677E+02  0.10212272633E+03  0.41800000000E+01 0.  1.
         -5    1    3    3    0  502 -0.60097293878E+02  0.86592054969E+01 -0.28059847242E+02  0.67018609345E+02  0.41800000000E+01 0.  1.
        -11    1    1    2    0    0  0.78008934593E+01  0.42817644383E+02 -0.37609331665E+02  0.57521008663E+02  0.00000000000E+00 0.  1.
         11    1    1    2    0    0 -0.27734742708E+01 -0.45028547321E+02 -0.74885725152E+02  0.87425019673E+02  0.00000000000E+00 0. -1.
</event>
<event>
 7    1  0.2440960E-009  0.2654330E+03  0.7561462E-02  0.1103922E+00
         -1   -1    0    0    0  501 -0.00000000000E+00  0.00000000000E+00  0.32963289056E+03  0.32963289056E+03  0.00000000000E+00 0.  1.
          1   -1    0    0  501    0  0.00000000000E+00 -0.00000000000E+00 -0.22986684875E+03  0.22986684875E+03  0.00000000000E+00 0. -1.
         25    2    1    2    0    0 -0.24449494963E+03  0.58560752902E+01  0.11249230441E+03  0.29684296025E+03  0.12509656465E+03 0.  0.
          5    1    3    3  502    0 -0.13292617292E+03  0.58370226158E+02  0.29657069368E+02  0.14823449299E+03  0.41800000000E+01 0. -1.
         -5    1    3    3    0  502 -0.11156877671E+03 -0.52514150868E+02  0.82835235038E+02  0.14860846727E+03  0.41800000000E+01 0. -1.
        -11    1    1    2    0    0  0.13985248085E+03 -0.50211192718E+02 -0.10811681012E+02  0.14898581382E+03  0.00000000000E+00 0.  1.
         11    1    1    2    0    0  0.10464246878E+03  0.44355117428E+02 -0.19145815907E+01  0.11367096524E+03  0.00000000000E+00 0. -1.
</event>
<event>
 7    1  0.2440960E-009  0.9205008E+02  0.7561462E-02  0.1297962E+00
         -1   -1    0    0    0  501 -0.00000000000E+00  0.00000000000E+00  0.26359250498E+03  0.26359250498E+03  0.00000000000E+00 0.  1.
          1   -1    0    0  501    0  0.00000000000E+00 -0.00000000000E+00 -0.68333740132E+02  0.68333740132E+02  0.00000000000E+00 0. -1.
         25    2    1    2    0    0 -0.65664166670E+02  0.15613659958E+02  0.15569865103E+03  0.21081973017E+03  0.12508924629E+03 0.  0.
          5    1    3    3  502    0 -0.11578380648E+02  0.15469409744E+02 -0.19286466562E+02  0.27618865449E+02  0.41800000000E+01 0.  1.
         -5    1    3    3    0  502 -0.54085786022E+02  0.14425021359E+00  0.17498511759E+03  0.18320086473E+03  0.41800000000E+01 0.  1.
        -11    1    1    2    0    0 -0.20942768671E+02  0.39062157918E+01 -0.48349493824E+01  0.21845704771E+02  0.00000000000E+00 0.  1.
         11    1    1    2    0    0  0.86606935341E+02 -0.19519875750E+02  0.44395063206E+02  0.99260810169E+02  0.00000000000E+00 0. -1.
</event>
<event>
 7    1  0.2440960E-009  0.1865668E+03  0.7561462E-02  0.1161595E+00
          1   -1    0    0  501    0  0.00000000000E+00  0.00000000000E+00  0.10922636011E+04  0.10922636011E+04  0.00000000000E+00 0. -1.
         -1   -1    0    0    0  501 -0.00000000000E+00 -0.00000000000E+00 -0.54287343942E+02  0.54287343942E+02  0.00000000000E+00 0.  1.
         25    2    1    2    0    0  0.15535966502E+03  0.22820520042E+02  0.88831750591E+03  0.91071970732E+03  0.12507994378E+03 0.  0.
          5    1    3    3  502    0 -0.15008408549E+02  0.17054901240E+02  0.21129469432E+03  0.21255362202E+03  0.41800000000E+01 0. -1.
         -5    1    3    3    0  502  0.17036807357E+03  0.57656188026E+01  0.67702281159E+03  0.69816608530E+03  0.41800000000E+01 0. -1.
        -11    1    1    2    0    0 -0.23282400278E+02 -0.40044958982E+02  0.21783114559E+02  0.51187625286E+02  0.00000000000E+00 0.  1.
         11    1    1    2    0    0 -0.13207726474E+03  0.17224438940E+02  0.12787563672E+03  0.18464361247E+03  0.00000000000E+00 0. -1.
</event>
<event>
 7    1  0.2440960E-009  0.1341491E+03  0.7561462E-02  0.1221426E+00
          1   -1    0    0  501    0  0.00000000000E+00  0.00000000000E+00  0.12969689666E+03  0.12969689666E+03  0.00000000000E+00 0. -1.
         -1   -1    0    0    0  501 -0.00000000000E+00 -0.00000000000E+00 -0.14798672227E+03  0.14798672227E+03  0.00000000000E+00 0.  1.
         25    2    1    2    0    0 -0.65732542393E+02 -0.53164931050E+02  0.56808577825E+01  0.15108683733E+03  0.12509070007E+03 0.  0.
          5    1    3    3  502    0 -0.96840487663E+02 -0.56963500814E+02 -0.14824957432E+02  0.11340269943E+03  0.41800000000E+01 0. -1.
         -5    1    3    3    0  502  0.31107945270E+02  0.37985697637E+01  0.20505815214E+02  0.37684137893E+02  0.41800000000E+01 0. -1.
        -11    1    1    2    0    0 -0.19672931369E+02  0.29800581385E+02 -0.85890313853E+01  0.36726970195E+02  0.00000000000E+00 0.  1.
         11    1    1    2    0    0  0.85405473762E+02  0.23364349665E+02 -0.15381652008E+02  0.89869811407E+02  0.00000000000E+00 0. -1.
</event>
<event>
 7    1  0.2440960E-009  0.8704053E+02  0.7561462E-02  0.1310181E+00
          2   -1    0    0  501    0  0.00000000000E+00  0.00000000000E+00  0.50236772538E+03  0.50236772538E+03  0.00000000000E+00 0. -1.
         -2   -1    0    0    0  501 -0.00000000000E+00 -0.00000000000E+00 -0.26039423019E+02  0.26039423019E+02  0.00000000000E+00 0.  1.
         25    2    1    2    0    0  0.23281328502E+02 -0.24940468281E+02  0.27636405487E+03  0.30526726781E+03  0.12508783616E+03 0.  0.
          5    1    3    3  502    0 -0.24057865794E+02 -0.89572311959E+01  0.24445681811E+03  0.24583657421E+03  0.41800000000E+01 0.  1.
         -5    1    3    3    0  502  0.47339194295E+02 -0.15983237086E+02  0.31907236764E+02  0.59430693603E+02  0.41800000000E+01 0.  1.
        -11    1    1    2    0    0 -0.35950498509E+02 -0.26687127583E+02  0.75149983103E+02  0.87476631634E+02  0.00000000000E+00 0.  1.
         11    1    1    2    0    0  0.12669170007E+02  0.51627595865E+02  0.12481426438E+03  0.13566324896E+03  0.00000000000E+00 0. -1.
</event>
<event>
 7    1  0.2440960E-009  0.1216971E+03  0.7561462E-02  0.1240323E+00
          1   -1    0    0  501    0  0.00000000000E+00  0.00000000000E+00  0.70659874725E+02  0.70659874725E+02  0.00000000000E+00 0. -1.
         -1   -1    0    0    0  501 -0.00000000000E+00 -0.00000000000E+00 -0.23400344616E+03  0.23400344616E+03  0.00000000000E+00 0.  1.
         25    2    1    2    0    0  0.40919637286E+02  0.54214176854E+02 -0.99614500284E+02  0.17373942841E+03  0.12509495046E+03 0.  0.
          5    1    3    3  502    0  0.78173090927E+02  0.63851299294E+02 -0.56302042022E+02  0.11565212018E+03  0.41800000000E+01 0.  1.
         -5    1    3    3    0  502 -0.37253453641E+02 -0.96371224399E+01 -0.43312458261E+02  0.58087308233E+02  0.41800000000E+01 0.  1.
        -11    1    1    2    0    0 -0.60669844920E+02 -0.19500068935E+02 -0.10829287689E+02  0.64640206087E+02  0.00000000000E+00 0. -1.
         11    1    1    2    0    0  0.19750207634E+02 -0.34714107919E+02 -0.52899783464E+02  0.66283686385E+02  0.00000000000E+00 0.  1.
</event>
<event>
 7    1  0.2440960E-009  0.8568392E+02  0.7561462E-02  0.1313654E+00
          3   -1    0    0  501    0  0.00000000000E+00  0.00000000000E+00  0.39046365459E+03  0.39046365459E+03  0.00000000000E+00 0. -1.
         -3   -1    0    0    0  501 -0.00000000000E+00 -0.00000000000E+00 -0.38104470090E+02  0.38104470090E+02  0.00000000000E+00 0.  1.
         25    2    1    2    0    0  0.47135468645E+02  0.99365153840E+01  0.14486297503E+03  0.19736514616E+03  0.12508889896E+03 0.  0.
          5    1    3    3  502    0 -0.14337636983E+02 -0.36915928762E+02  0.87354701022E+01  0.40769283395E+02  0.41800000000E+01 0.  1.
         -5    1    3    3    0  502  0.61473105629E+02  0.46852444146E+02  0.13612750493E+03  0.15659586277E+03  0.41800000000E+01 0.  1.
        -11    1    1    2    0    0 -0.29720183901E+02 -0.18214457714E+02  0.20897648580E+03  0.21186370010E+03  0.00000000000E+00 0. -1.
         11    1    1    2    0    0 -0.17415284745E+02  0.82779423299E+01 -0.14802763274E+01  0.19339278424E+02  0.00000000000E+00 0.  1.
</event>
<event>
 7    1  0.2440960E-009  0.6806639E+02  0.7561462E-02  0.1366795E+00
         -2   -1    0    0    0  501 -0.00000000000E+00  0.00000000000E+00  0.33254269663E+03  0.33254269663E+03  0.00000000000E+00 0.  1.
          2   -1    0    0  501    0  0.00000000000E+00 -0.00000000000E+00 -0.42973759974E+02  0.42973759974E+02  0.00000000000E+00 0. -1.
         25    2    1    2    0    0 -0.74343132990E+01 -0.21432665362E+02  0.15997066369E+03  0.20433870001E+03  0.12509621465E+03 0.  0.
          5    1    3    3  502    0 -0.10205709423E+02  0.50815569997E+01 -0.19434146022E+02  0.22915871312E+02  0.41800000000E+01 0. -1.
         -5    1    3    3    0  502  0.27713961238E+01 -0.26514222362E+02  0.17940480971E+03  0.18142282870E+03  0.41800000000E+01 0. -1.
        -11    1    1    2    0    0  0.11855428642E+02  0.58492997646E+02  0.34311906710E+02  0.68842493447E+02  0.00000000000E+00 0. -1.
         11    1    1    2    0    0 -0.44211153431E+01 -0.37060332284E+02  0.95286366253E+02  0.10233526315E+03  0.00000000000E+00 0.  1.
</event>
<event>
 7    1  0.2440960E-009  0.1084299E+03  0.7561462E-02  0.1263505E+00
          2   -1    0    0  501    0  0.00000000000E+00  0.00000000000E+00  0.15986671802E+03  0.15986671802E+03  0.00000000000E+00 0.  1.
         -2   -1    0    0    0  501 -0.00000000000E+00 -0.00000000000E+00 -0.79075934060E+02  0.79075934060E+02  0.00000000000E+00 0. -1.
         25    2    1    2    0    0 -0.11337938809E+02 -0.34064805307E+02  0.55071914421E+02  0.14131330258E+03  0.12509026305E+03 0.  0.
          5    1    3    3  502    0 -0.47533407375E+02 -0.61091063770E+02  0.11415432563E+02  0.78353860082E+02  0.41800000000E+01 0. -1.
         -5    1    3    3    0  502  0.36195468566E+02  0.27026258462E+02  0.43656481858E+02  0.62959442496E+02  0.41800000000E+01 0. -1.
        -11    1    1    2    0    0 -0.36116534271E+02  0.28873098570E+02  0.94441140708E+01  0.47193761869E+02  0.00000000000E+00 0.  1.
         11    1    1    2    0    0  0.47454473080E+02  0.51917067378E+01  0.16274755466E+02  0.50435587630E+02  0.00000000000E+00 0. -1.
</event>
<event>
 7    1  0.2440960E-009  0.9377756E+02  0.7561462E-02  0.1293953E+00
         -2   -1    0    0    0  501 -0.00000000000E+00  0.00000000000E+00  0.93748788753E+01  0.93748788753E+01  0.00000000000E+00 0.  1.
          2   -1    0    0  501    0  0.00000000000E+00 -0.00000000000E+00 -0.14200983677E+04  0.14200983677E+04  0.00000000000E+00 0. -1.
         25    2    1    2    0    0 -0.13062262193E+02 -0.79780141414E+01 -0.10346297591E+04  0.10422772568E+04  0.12509544404E+03 0.  0.
          5    1    3    3  502    0 -0.14005220748E+02 -0.51867495253E+02 -0.87530863620E+03  0.87696582845E+03  0.41800000000E+01 0. -1.
         -5    1    3    3    0  502  0.94295855506E+00  0.43889481112E+02 -0.15932112293E+03  0.16531142832E+03  0.41800000000E+01 0. -1.
        -11    1    1    2    0    0  0.29280801256E+02  0.42394300809E+02 -0.25904066029E+03  0.26411494798E+03  0.00000000000E+00 0. -1.
         11    1    1    2    0    0 -0.16218539063E+02 -0.34416286668E+02 -0.11705306943E+03  0.12308104183E+03  0.00000000000E+00 0.  1.
</event>
<event>
 7    1  0.2440960E-009  0.1120693E+03  0.7561462E-02  0.1256785E+00
         -2   -1    0    0    0  501 -0.00000000000E+00  0.00000000000E+00  0.49692979993E+02  0.49692979993E+02  0.00000000000E+00 0.  1.
          2   -1    0    0  501    0  0.00000000000E+00 -0.00000000000E+00 -0.48144948880E+03  0.48144948880E+03  0.00000000000E+00 0. -1.
         25    2    1    2    0    0  0.90864372043E+02 -0.28300390762E+01 -0.34374985227E+03  0.37692944727E+03  0.12508998382E+03 0.  0.
          5    1    3    3  502    0  0.54865318176E+02  0.41796490404E+02 -0.74502783297E+02  0.10161341874E+03  0.41800000000E+01 0.  1.
         -5    1    3    3    0  502  0.35999053867E+02 -0.44626529480E+02 -0.26924706898E+03  0.27531602853E+03  0.41800000000E+01 0.  1.
        -11    1    1    2    0    0 -0.61293943660E+02  0.18579963987E+02 -0.44648574344E+01  0.64203563321E+02  0.00000000000E+00 0.  1.
         11    1    1    2    0    0 -0.29570428383E+02 -0.15749924910E+02 -0.83541799102E+02  0.90009458207E+02  0.00000000000E+00 0. -1.
</event>
<event>
 7    1  0.2440960E-009  0.1184327E+03  0.7561462E-02  0.1245705E+00
         -1   -1    0    0    0  501 -0.00000000000E+00  0.00000000000E+00  0.15521254264E+02  0.15521254264E+02  0.00000000000E+00 0.  1.
          1   -1    0    0  501    0  0.00000000000E+00 -0.00000000000E+00 -0.15720866129E+04  0.15720866129E+04  0.00000000000E+00 0. -1.
         25    2    1    2    0    0  0.69939028971E+02  0.68983431991E+02 -0.12132077979E+04  0.12235910372E+04  0.12510668948E+03 0.  0.
          5    1    3    3  502    0 -0.14643641869E+02 -0.48852519818E+00 -0.63011297696E+03  0.63029716089E+03  0.41800000000E+01 0.  1.
         -5    1    3    3    0  502  0.84582670840E+02  0.69471957189E+02 -0.58309482098E+03  0.59329387633E+03  0.41800000000E+01 0.  1.
        -11    1    1    2    0    0 -0.77481692583E+02 -0.51454560364E+02 -0.32295137259E+03  0.33607822531E+03  0.00000000000E+00 0. -1.
         11    1    1    2    0    0  0.75426636115E+01 -0.17528871627E+02 -0.20406188074E+02  0.27938604592E+02  0.00000000000E+00 0.  1.
</event>
<event>
 7    1  0.2440960E-009  0.9610744E+02  0.7561462E-02  0.1288701E+00
          4   -1    0    0  501    0  0.00000000000E+00  0.00000000000E+00  0.14858807236E+03  0.14858807236E+03  0.00000000000E+00 0. -1.
         -4   -1    0    0    0  501 -0.00000000000E+00 -0.00000000000E+00 -0.67366990857E+02  0.67366990857E+02  0.00000000000E+00 0.  1.
         25    2    1    2    0    0  0.90240181636E+01 -0.13908124609E+02  0.38785725474E+02  0.13202550486E+03  0.12510608538E+03 0.  0.
          5    1    3    3  502    0 -0.51340306341E+02  0.20351257480E+02  0.79191024776E+01  0.55948059129E+02  0.41800000000E+01 0. -1.
         -5    1    3    3    0  502  0.60364324505E+02 -0.34259382089E+02  0.30866622996E+02  0.76077445733E+02  0.41800000000E+01 0. -1.
        -11    1    1    2    0    0 -0.34177767113E+02  0.22264758136E+02  0.40296241647E+02  0.57337826175E+02  0.00000000000E+00 0. -1.
         11    1    1    2    0    0  0.25153748949E+02 -0.83566335269E+01  0.21391143862E+01  0.26591732183E+02  0.00000000000E+00 0.  1.
</event>
<event>
 7    1  0.2440960E-009  0.1131163E+03  0.7561462E-02  0.1254905E+00
          1   -1    0    0  501    0  0.00000000000E+00  0.00000000000E+00  0.19385480904E+04  0.19385480904E+04  0.00000000000E+00 0. -1.
         -1   -1    0    0    0  501 -0.00000000000E+00 -0.00000000000E+00 -0.97937514176E+01  0.97937514176E+01  0.00000000000E+00 0.  1.
         25    2    1    2    0    0 -0.70892953808E+02 -0.13478033915E+01  0.13709897981E+04  0.13785088475E+04  0.12508392668E+03 0.  0.
          5    1    3    3  502    0  0.11982771111E+02 -0.21805817985E+02  0.64989263111E+02  0.69714827844E+02  0.41800000000E+01 0.  1.
         -5    1    3    3    0  502 -0.82875724918E+02  0.20458014594E+02  0.13060005350E+04  0.13087940197E+04  0.41800000000E+01 0.  1.
        -11    1    1    2    0    0  0.92635633781E+02  0.75051964372E+01  0.47682527091E+03  0.48579834046E+03  0.00000000000E+00 0. -1.
         11    1    1    2    0    0 -0.21742679973E+02 -0.61573930457E+01  0.80939269940E+02  0.84034653804E+02  0.00000000000E+00 0.  1.
</event>
<event>
 7    1  0.2440960E-009  0.1566910E+03  0.7561462E-02  0.1192484E+00
         -2   -1    0    0    0  501 -0.00000000000E+00  0.00000000000E+00  0.13359019095E+02  0.13359019095E+02  0.00000000000E+00 0.  1.
          2   -1    0    0  501    0  0.00000000000E+00 -0.00000000000E+00 -0.22511974315E+04  0.22511974315E+04  0.00000000000E+00 0. -1.
         25    2    1    2    0    0  0.11498033308E+03  0.41481499015E+02 -0.15592331525E+04  0.15690120097E+04  0.12509784654E+03 0.  0.
          5    1    3    3  502    0 -0.23721121857E+02  0.71003530488E+01 -0.11440992663E+03  0.11713330161E+03  0.41800000000E+01 0.  1.
         -5    1    3    3    0  502  0.13870145494E+03  0.34381145966E+02 -0.14448232258E+04  0.14518787081E+04  0.41800000000E+01 0.  1.
        -11    1    1    2    0    0 -0.11880487295E+02  0.21450804597E+02 -0.53168887178E+02  0.58550948412E+02  0.00000000000E+00 0.  1.
         11    1    1    2    0    0 -0.10309984579E+03 -0.62932303612E+02 -0.62543637281E+03  0.63699349249E+03  0.00000000000E+00 0. -1.
</event>
<event>
 7    1  0.2440960E-009  0.1362286E+03  0.7561462E-02  0.1218496E+00
         -3   -1    0    0    0  501 -0.00000000000E+00  0.00000000000E+00  0.30347139936E+03  0.30347139936E+03  0.00000000000E+00 0.  1.
          3   -1    0    0  501    0  0.00000000000E+00 -0.00000000000E+00 -0.89305530361E+02  0.89305530361E+02  0.00000000000E+00 0. -1.
         25    2    1    2    0    0 -0.21340531436E+02 -0.88720962527E+02  0.14897803688E+02  0.15556257183E+03  0.12510372387E+03 0.  0.
          5    1    3    3  502    0 -0.31671290529E+02 -0.11790503685E+03  0.31796625011E+01  0.12219759004E+03  0.41800000000E+01 0. -1.
         -5    1    3    3    0  502  0.10330759093E+02  0.29184074320E+02  0.11718141187E+02  0.33364981795E+02  0.41800000000E+01 0. -1.
        -11    1    1    2    0    0  0.46707942329E+02  0.31130205134E+02  0.49798354000E+02  0.75037308117E+02  0.00000000000E+00 0. -1.
         11    1    1    2    0    0 -0.25367410893E+02  0.57590757393E+02  0.14946971131E+03  0.16217704977E+03  0.00000000000E+00 0.  1.
</event>
<event>
 7    1  0.2440960E-009  0.9233974E+02  0.7561462E-02  0.1297283E+00
         -1   -1    0    0    0  501 -0.00000000000E+00  0.00000000000E+00  0.14445239224E+02  0.14445239224E+02  0.00000000000E+00 0.  1.
          1   -1    0    0  501    0  0.00000000000E+00 -0.00000000000E+00 -0.10724682676E+04  0.10724682676E+04  0.00000000000E+00 0. -1.
         25    2    1    2    0    0  0.24282263590E+01  0.92667627854E+01 -0.84711420611E+03  0.85635454933E+03  0.12509543072E+03 0.  0.
          5    1    3    3  502    0 -0.50204163530E+02  0.25639432932E+02 -0.23305771360E+03  0.23981494704E+03  0.41800000000E+01 0. -1.
         -5    1    3    3    0  502  0.52632389889E+02 -0.16372670147E+02 -0.61405649252E+03  0.61653960229E+03  0.41800000000E+01 0. -1.
        -11    1    1    2    0    0 -0.11867843887E+02 -0.39477510456E+02 -0.42523410571E+02  0.59224657001E+02  0.00000000000E+00 0.  1.
         11    1    1    2    0    0  0.94396175285E+01  0.30210747671E+02 -0.16838541168E+03  0.17133430048E+03  0.00000000000E+00 0. -1.
</event>
<event>
 7    1  0.2440960E-009  0.1782685E+03  0.7561462E-02  0.1169489E+00
         -1   -1    0    0    0  501 -0.00000000000E+00  0.00000000000E+00  0.33837058682E+03  0.33837058682E+03  0.00000000000E+00 0.  1.
          1   -1    0    0  501    0  0.00000000000E+00 -0.00000000000E+00 -0.11020447213E+03  0.11020447213E+03  0.00000000000E+00 0. -1.
         25    2    1    2    0    0  0.42621421580E+02  0.15323991369E+03  0.13405088769E+03  0.24272507743E+03  0.12508703369E+03 0.  0.
          5    1    3    3  502    0 -0.31067164863E+02  0.79824164261E+02  0.19519978585E+02  0.87952077273E+02  0.41800000000E+01 0. -1.
         -5    1    3    3    0  502  0.73688586442E+02  0.73415749426E+02  0.11453090911E+03  0.15477300015E+03  0.41800000000E+01 0. -1.
        -11    1    1    2    0    0 -0.31652313110E+02 -0.32243421872E+02  0.67903018508E+02  0.81561799279E+02  0.00000000000E+00 0.  1.
         11    1    1    2    0    0 -0.10969108469E+02 -0.12099649181E+03  0.26212208495E+02  0.12428818225E+03  0.00000000000E+00 0. -1.
</event>
<event>
 7    1  0.2440960E-009  0.9543496E+02  0.7561462E-02  0.1290199E+00
         -3   -1    0    0    0  501 -0.00000000000E+00  0.00000000000E+00  0.20882946013E+03  0.20882946013E+03  0.00000000000E+00 0.  1.
          3   -1    0    0  501    0  0.00000000000E+00 -0.00000000000E+00 -0.58189268319E+02  0.58189268319E+02  0.00000000000E+00 0. -1.
         25    2    1    2    0    0  0.26840972300E+02  0.23114132181E+02  0.50341324134E+02  0.13941174696E+03  0.12508671143E+03 0.  0.
          5    1    3    3  502    0  0.21755135828E+02  0.73938108225E+02  0.40719176759E+02  0.87267711892E+02  0.41800000000E+01 0. -1.
         -5    1    3    3    0  502  0.50858364713E+01 -0.50823976045E+02  0.96221473751E+01  0.52144035073E+02  0.41800000000E+01 0. -1.
        -11    1    1    2    0    0  0.13441566501E+02 -0.17031426155E+02  0.27215819441E+01  0.21866691454E+02  0.00000000000E+00 0. -1.
         11    1    1    2    0    0 -0.40282538801E+02 -0.60827060258E+01  0.97577285732E+02  0.10574029003E+03  0.00000000000E+00 0.  1.
</event>
<event>
 7    1  0.2440960E-009  0.1570534E+03  0.7561462E-02  0.1192064E+00
         -2   -1    0    0    0  501 -0.00000000000E+00  0.00000000000E+00  0.62840730224E+02  0.62840730224E+02  0.00000000000E+00 0.  1.
          2   -1    0    0  501    0  0.00000000000E+00 -0.00000000000E+00 -0.71566928620E+03  0.71566928620E+03  0.00000000000E+00 0. -1.
         25    2    1    2    0    0  0.12598287670E+03  0.56331762200E+02 -0.55660229289E+03  0.58694172525E+03  0.12509805648E+03 0.  0.
          5    1    3    3  502    0  0.13927741231E+03  0.47503949632E+02 -0.35024558296E+03  0.37992665554E+03  0.41800000000E+01 0.  1.
         -5    1    3    3    0  502 -0.13294535613E+02  0.88278125676E+01 -0.20635670993E+03  0.20701506971E+03  0.41800000000E+01 0.  1.
        -11    1    1    2    0    0 -0.57176895615E+01  0.11121247388E+02  0.11187415112E+02  0.16778926494E+02  0.00000000000E+00 0.  1.
         11    1    1    2    0    0 -0.12026518714E+03 -0.67453009588E+02 -0.10741367820E+03  0.17478936468E+03  0.00000000000E+00 0. -1.
</event>
<event>
 7    1  0.2440960E-009  0.1400120E+03  0.7561462E-02  0.1213313E+00
          1   -1    0    0  501    0  0.00000000000E+00  0.00000000000E+00  0.47227898007E+03  0.47227898007E+03  0.00000000000E+00 0. -1.
         -1   -1    0    0    0  501 -0.00000000000E+00 -0.00000000000E+00 -0.99562888305E+02  0.99562888305E+02  0.00000000000E+00 0.  1.
         25    2    1    2    0    0 -0.94804768861E+02  0.92970634619E+02  0.97674472996E+01  0.18268845580E+03  0.12509270864E+03 0.  0.
          5    1    3    3  502    0 -0.92080727946E+02  0.54631691806E+02 -0.44529024739E+02  0.11603356692E+03  0.41800000000E+01 0. -1.
         -5    1    3    3    0  502 -0.27240409146E+01  0.38338942813E+02  0.54296472039E+02  0.66654888874E+02  0.41800000000E+01 0. -1.
        -11    1    1    2    0    0  0.53771807775E+02 -0.65901399632E+02  0.17066221693E+03  0.19068296744E+03  0.00000000000E+00 0.  1.
         11    1    1    2    0    0  0.41032961086E+02 -0.27069234987E+02  0.19228642754E+03  0.19847044514E+03  0.00000000000E+00 0. -1.
</event>
<event>
 7    1  0.2440960E-009  0.1132252E+03  0.7561462E-02  0.1254711E+00
         -2   -1    0    0    0  501 -0.00000000000E+00  0.00000000000E+00  0.28708998766E+02  0.28708998766E+02  0.00000000000E+00 0.  1.
          2   -1    0    0  501    0  0.00000000000E+00 -0.00000000000E+00 -0.63519973974E+03  0.63519973974E+03  0.00000000000E+00 0. -1.
         25    2    1    2    0    0  0.53508339212E+02 -0.29949276574E+02 -0.46549082562E+03  0.48588943076E+03  0.12508688440E+03 0.  0.
          5    1    3    3  502    0  0.90288826251E+02 -0.12098819461E+02 -0.24116689451E+03  0.25783211007E+03  0.41800000000E+01 0. -1.
         -5    1    3    3    0  502 -0.36780487038E+02 -0.17850457113E+02 -0.22432393112E+03  0.22805732068E+03  0.41800000000E+01 0. -1.
        -11    1    1    2    0    0 -0.45514529893E+02  0.52943412054E+02 -0.55702524839E+02  0.89316004079E+02  0.00000000000E+00 0.  1.
         11    1    1    2    0    0 -0.79938093190E+01 -0.22994135480E+02 -0.85297390516E+02  0.88703303674E+02  0.00000000000E+00 0. -1.
</event>
<event>
 7    1  0.2440960E-009  0.1734222E+03  0.7561462E-02  0.1174325E+00
         -2   -1    0    0    0  501 -0.00000000000E+00  0.00000000000E+00  0.50697495529E+02  0.50697495529E+02  0.00000000000E+00 0.  1.
          2   -1    0    0  501    0  0.00000000000E+00 -0.00000000000E+00 -0.67932023247E+03  0.67932023247E+03  0.00000000000E+00 0. -1.
         25    2    1    2    0    0  0.10964479965E+03  0.90793568710E+02 -0.42545729414E+03  0.46575405534E+03  0.12508987460E+03 0.  0.
          5    1    3    3  502    0  0.10251589181E+03  0.11507107560E+03 -0.29559554426E+03  0.33338425082E+03  0.41800000000E+01 0.  1.
         -5    1    3    3    0  502  0.71289078430E+01 -0.24277506889E+02 -0.12986174988E+03  0.13236980452E+03  0.41800000000E+01 0.  1.
        -11    1    1    2    0    0  0.11347339537E+02 -0.29061912493E+02 -0.23641683197E+02  0.39144425614E+02  0.00000000000E+00 0.  1.
         11    1    1    2    0    0 -0.12099213919E+03 -0.61731656217E+02 -0.17952375961E+03  0.22511924704E+03  0.00000000000E+00 0. -1.
</event>
<event>
 7    1  0.2440960E-009  0.1586703E+03  0.7561462E-02  0.1190206E+00
          2   -1    0    0  501    0  0.00000000000E+00  0.00000000000E+00  0.65707038492E+02  0.65707038492E+02  0.00000000000E+00 0.  1.
         -2   -1    0    0    0  501 -0.00000000000E+00 -0.00000000000E+00 -0.42802723611E+03  0.42802723611E+03  0.00000000000E+00 0. -1.
         25    2    1    2    0    0 -0.12124791934E+03  0.28994523804E+02 -0.15200171391E+03  0.23300563480E+03  0.12508143131E+03 0.  0.
          5    1    3    3  502    0 -0.12564055677E+03 -0.10356792082E+02 -0.76153069162E+02  0.14734169468E+03  0.41800000000E+01 0.  1.
         -5    1    3    3    0  502  0.43926374315E+01  0.39351315885E+02 -0.75848644753E+02  0.85663940117E+02  0.41800000000E+01 0.  1.
        -11    1    1    2    0    0  0.97166403187E+02  0.17779510922E+02 -0.15932429943E+03  0.18746107144E+03  0.00000000000E+00 0.  1.
         11    1    1    2    0    0  0.24081516153E+02 -0.46774034725E+02 -0.50994184277E+02  0.73267568370E+02  0.00000000000E+00 0. -1.
</event>
<event>
 7    1  0.2440960E-009  0.1045681E+03  0.7561462E-02  0.1270973E+00
          4   -1    0    0  501    0  0.00000000000E+00  0.00000000000E+00  0.96430886408E+02  0.96430886408E+02  0.00000000000E+00 0. -1.
         -4   -1    0    0    0  501 -0.00000000000E+00 -0.00000000000E+00 -0.59469722117E+03  0.59469722117E+03  0.00000000000E+00 0.  1.
         25    2    1    2    0    0  0.57689334070E+02  0.33533035212E+02 -0.54962443387E+03  0.56761445376E+03  0.12508647444E+03 0.  0.
          5    1    3    3  502    0  0.60386178621E+02 -0.22869822449E+02 -0.14165074034E+03  0.15573029245E+03  0.41800000000E+01 0. -1.
         -5    1    3    3    0  502 -0.26968445507E+01  0.56402857661E+02 -0.40797369353E+03  0.41188416130E+03  0.41800000000E+01 0. -1.
        -11    1    1    2    0    0 -0.27083250973E+01 -0.32708398900E+02  0.59475842413E+02  0.67930480744E+02  0.00000000000E+00 0. -1.
         11    1    1    2    0    0 -0.54981008973E+02 -0.82463631187E+00 -0.81177433007E+01  0.55583173074E+02  0.00000000000E+00 0.  1.
</event>
<event>
 7    1  0.2440960E-009  0.7997300E+02  0.7561462E-02  0.1329128E+00
         -1   -1    0    0    0  501 -0.00000000000E+00  0.00000000000E+00  0.31924084429E+03  0.31924084429E+03  0.00000000000E+00 0.  1.
          1   -1    0    0  501    0  0.00000000000E+00 -0.00000000000E+00 -0.50990815047E+02  0.50990815047E+02  0.00000000000E+00 0. -1.
         25    2    1    2    0    0 -0.66687148566E+02  0.97471684963E+01  0.12878327171E+03  0.19176667074E+03  0.12508853607E+03 0.  0.
          5    1    3    3  502    0 -0.13479610747E+02  0.14653752011E+01 -0.25015926491E+02  0.28759628103E+02  0.41800000000E+01 0. -1.
         -5    1    3    3    0  502 -0.53207537819E+02  0.82817932952E+01  0.15379919820E+03  0.16300704263E+03  0.41800000000E+01 0. -1.
        -11    1    1    2    0    0  0.25143391321E+02  0.26560165786E+02  0.10998961055E+03  0.11591094410E+03  0.00000000000E+00 0. -1.
         11    1    1    2    0    0  0.41543757246E+02 -0.36307334283E+02  0.29477146984E+02  0.62554044498E+02  0.00000000000E+00 0.  1.
</event>
<event>
 7    1  0.2440960E-009  0.8350041E+02  0.7561462E-02  0.1319401E+00
         -4   -1    0    0    0  501 -0.00000000000E+00  0.00000000000E+00  0.20222869108E+03  0.20222869108E+03  0.00000000000E+00 0.  1.
          4   -1    0    0  501    0  0.00000000000E+00 -0.00000000000E+00 -0.95907088084E+02  0.95907088084E+02  0.00000000000E+00 0. -1.
         25    2    1    2    0    0 -0.32374620789E+02 -0.63937109775E+02  0.11409273602E+03  0.18384836149E+03  0.12508795919E+03 0.  0.
          5    1    3    3  502    0  0.80051695048E+01 -0.15294083547E+02 -0.25196090956E+02  0.30827051916E+02  0.41800000000E+01 0. -1.
         -5    1    3    3    0  502 -0.40379790294E+02 -0.48643026228E+02  0.13928882697E+03  0.15302130958E+03  0.41800000000E+01 0. -1.
        -11    1    1    2    0    0  0.28194016707E+02  0.73438405653E+01  0.33292862256E+02  0.44240809775E+02  0.00000000000E+00 0.  1.
         11    1    1    2    0    0  0.41806040820E+01  0.56593269209E+02 -0.41063995275E+02  0.70046607899E+02  0.00000000000E+00 0. -1.
</event>
<event>
 7    1  0.2440960E-009  0.1083848E+03  0.7561462E-02  0.1263591E+00
         -1   -1    0    0    0  501 -0.00000000000E+00  0.00000000000E+00  0.12744681636E+03  0.12744681636E+03  0.00000000000E+00 0.  1.
          1   -1    0    0  501    0  0.00000000000E+00 -0.00000000000E+00 -0.11684722413E+03  0.11684722413E+03  0.00000000000E+00 0. -1.
         25    2    1    2    0    0 -0.49214364592E+02 -0.44286162416E+01 -0.19385165609E+02  0.13588471925E+03  0.12508879229E+03 0.  0.
          5    1    3    3  502    0 -0.15700503657E+02 -0.58434089383E+02 -0.35373107205E+02  0.70212375907E+02  0.41800000000E+01 0. -1.
         -5    1    3    3    0  502 -0.33513860935E+02  0.54005473142E+02  0.15987941596E+02  0.65672343346E+02  0.41800000000E+01 0. -1.
        -11    1    1    2    0    0  0.26826565395E+02  0.41322655121E+02 -0.91998812221E+01  0.50118502089E+02  0.00000000000E+00 0. -1.
         11    1    1    2    0    0  0.22387799197E+02 -0.36894038879E+02  0.39184639062E+02  0.58290819141E+02  0.00000000000E+00 0.  1.
</event>
<event>
 7    1  0.2440960E-009  0.1092903E+03  0.7561462E-02  0.1261890E+00
          2   -1    0    0  501    0  0.00000000000E+00  0.00000000000E+00  0.11458699366E+04  0.11458699366E+04  0.00000000000E+00 0. -1.
         -2   -1    0    0    0  501 -0.00000000000E+00 -0.00000000000E+00 -0.14976459869E+02  0.14976459869E+02  0.00000000000E+00 0.  1.
         25    2    1    2    0    0  0.34413311223E+02  0.64921655989E+02  0.69670667669E+03  0.71165054609E+03  0.12508880449E+03 0.  0.
          5    1    3    3  502    0  0.47703314953E+02  0.91038118043E+01  0.91128749759E+02  0.10334605498E+03  0.41800000000E+01 0.  1.
         -5    1    3    3    0  502 -0.13290003731E+02  0.55817844185E+02  0.60557792693E+03  0.60830449111E+03  0.41800000000E+01 0.  1.
        -11    1    1    2    0    0  0.24005524114E+02  0.12490544137E+01  0.57836328782E+02  0.62632788952E+02  0.00000000000E+00 0.  1.
         11    1    1    2    0    0 -0.58418835337E+02 -0.66170710403E+02  0.37635047123E+03  0.38656306139E+03  0.00000000000E+00 0. -1.
</event>
<event>
 7    1  0.2440960E-009  0.8999113E+02  0.7561462E-02  0.1302873E+00
         -1   -1    0    0    0  501 -0.00000000000E+00  0.00000000000E+00  0.70137836545E+03  0.70137836545E+03  0.00000000000E+00 0.  1.
          1   -1    0    0  501    0  0.00000000000E+00 -0.00000000000E+00 -0.22671091338E+02  0.22671091338E+02  0.00000000000E+00 0. -1.
         25    2    1    2    0    0 -0.16849130869E+02 -0.19970323453E+02  0.54581275298E+03  0.56057244225E+03  0.12508874715E+03 0.  0.
          5    1    3    3  502    0 -0.13658106334E+02 -0.58698216782E+02  0.13494613376E+03  0.14785112762E+03  0.41800000000E+01 0.  1.
         -5    1    3    3    0  502 -0.31910245352E+01  0.38727893328E+02  0.41086661922E+03  0.41272131463E+03  0.41800000000E+01 0.  1.
        -11    1    1    2    0    0  0.39213633417E+02 -0.12413939006E+02  0.23846622708E+02  0.47544466996E+02  0.00000000000E+00 0. -1.
         11    1    1    2    0    0 -0.22364502548E+02  0.32384262459E+02  0.10904789843E+03  0.11593254755E+03  0.00000000000E+00 0.  1.
</event>
<event>
 7    1  0.2440960E-009  0.1092450E+03  0.7561462E-02  0.1261974E+00
         -1   -1    0    0    0  501 -0.00000000000E+00  0.00000000000E+00  0.56741135252E+02  0.56741135252E+02  0.00000000000E+00 0.  1.
          1   -1    0    0  501    0  0.00000000000E+00 -0.00000000000E+00 -0.38484825647E+03  0.38484825647E+03  0.00000000000E+00 0. -1.
         25    2    1    2    0    0  0.80518028657E+02 -0.52225584622E+02 -0.14165702350E+03  0.21195374965E+03  0.12508802922E+03 0.  0.
          5    1    3    3  502    0  0.68028048864E+02 -0.69340596342E+02 -0.15755257282E+03  0.18513837888E+03  0.41800000000E+01 0. -1.
         -5    1    3    3    0  502  0.12489979792E+02  0.17115011720E+02  0.15895549314E+02  0.26815370767E+02  0.41800000000E+01 0. -1.
        -11    1    1    2    0    0 -0.40217672617E+02  0.41868146219E+02 -0.17793081112E+03  0.18716243321E+03  0.00000000000E+00 0. -1.
         11    1    1    2    0    0 -0.40300356040E+02  0.10357438403E+02 -0.85192865937E+01  0.42473208865E+02  0.00000000000E+00 0.  1.
</event>
<event>
 7    1  0.2440960E-009  0.1113951E+03  0.7561462E-02  0.1258008E+00
         -2   -1    0    0    0  501 -0.00000000000E+00  0.00000000000E+00  0.82327576145E+01  0.82327576145E+01  0.00000000000E+00 0.  1.
          2   -1    0    0  501    0  0.00000000000E+00 -0.00000000000E+00 -0.24665490557E+04  0.24665490557E+04  0.00000000000E+00 0. -1.
         25    2    1    2    0    0 -0.23596529114E+01 -0.34778206528E+02 -0.20797935292E+04  0.20838436702E+04  0.12509286934E+03 0.  0.
          5    1    3    3  502    0  0.25793269184E+02  0.38469377983E+02 -0.52128135589E+03  0.52335161238E+03  0.41800000000E+01 0.  1.
         -5    1    3    3    0  502 -0.28152922096E+02 -0.73247584510E+02 -0.15585121733E+04  0.15604920578E+04  0.41800000000E+01 0.  1.
        -11    1    1    2    0    0  0.43488134433E+02  0.36150396178E+02 -0.22440648599E+03  0.23142242747E+03  0.00000000000E+00 0. -1.
         11    1    1    2    0    0 -0.41128481522E+02 -0.13721896503E+01 -0.15411628286E+03  0.15951571565E+03  0.00000000000E+00 0.  1.
</event>
<event>
 7    1  0.2440960E-009  0.9396150E+02  0.7561462E-02  0.1293532E+00
         -1   -1    0    0    0  501 -0.00000000000E+00  0.00000000000E+00  0.48740710495E+02  0.48740710495E+02  0.00000000000E+00 0.  1.
          1   -1    0    0  501    0  0.00000000000E+00 -0.00000000000E+00 -0.26836622649E+03  0.26836622649E+03  0.00000000000E+00 0. -1.
         25    2    1    2    0    0  0.65651367477E+01 -0.48196681903E+01 -0.77061776136E+02  0.14714804980E+03  0.12509077103E+03 0.  0.
          5    1    3    3  502    0  0.61875737871E+02 -0.21257016548E+02 -0.27979018800E+02  0.71279489214E+02  0.41800000000E+01 0.  1.
         -5    1    3    3    0  502 -0.55310601123E+02  0.16437348358E+02 -0.49082757336E+02  0.75868560586E+02  0.41800000000E+01 0.  1.
        -11    1    1    2    0    0 -0.16227197985E+02 -0.26865608277E+02 -0.13125598727E+03  0.13495635241E+03  0.00000000000E+00 0. -1.
         11    1    1    2    0    0  0.96620612376E+01  0.31685276467E+02 -0.11307752596E+02  0.35002534779E+02  0.00000000000E+00 0.  1.
</event>
<event>
 7    1  0.2440960E-009  0.1929290E+03  0.7561462E-02  0.1155846E+00
         -1   -1    0    0    0  501 -0.00000000000E+00  0.00000000000E+00  0.38704190761E+02  0.38704190761E+02  0.00000000000E+00 0.  1.
          1   -1    0    0  501    0  0.00000000000E+00 -0.00000000000E+00 -0.10116919658E+04  0.10116919658E+04  0.00000000000E+00 0. -1.
         25    2    1    2    0    0 -0.15739741866E+03  0.75025992159E+01 -0.39548466452E+03  0.44371969348E+03  0.12509520422E+03 0.  0.
          5    1    3    3  502    0 -0.37211994369E+02  0.59180114912E+02 -0.14896982225E+03  0.16461014206E+03  0.41800000000E+01 0.  1.
         -5    1    3    3    0  502 -0.12018542429E+03 -0.51677515696E+02 -0.24651484226E+03  0.27910955142E+03  0.41800000000E+01 0.  1.
        -11    1    1    2    0    0  0.84871007452E+02  0.44367577307E+02 -0.26862984724E+03  0.28519040070E+03  0.00000000000E+00 0.  1.
         11    1    1    2    0    0  0.72526411204E+02 -0.51870176522E+02 -0.30887326326E+03  0.32148606236E+03  0.00000000000E+00 0. -1.
</event>
<event>
 7    1  0.2779017E-009  0.1098569E+03  0.7561462E-02  0.1260835E+00
         -2   -1    0    0    0  501 -0.00000000000E+00  0.00000000000E+00  0.41712076667E+02  0.41712076667E+02  0.00000000000E+00 0.  1.
          2   -1    0    0  501    0  0.00000000000E+00 -0.00000000000E+00 -0.49621862359E+03  0.49621862359E+03  0.00000000000E+00 0. -1.
         25    2    1    2    0    0  0.78479518362E+02 -0.31068327446E+02 -0.32989784348E+03  0.36277348485E+03  0.12509092053E+03 0.  0.
          5    1    3    3  502    0  0.20224440435E+01 -0.53831223702E+02 -0.22225093236E+03  0.22872437618E+03  0.41800000000E+01 0.  1.
         -5    1    3    3    0  502  0.76457074319E+02  0.22762896256E+02 -0.10764691113E+03  0.13404910867E+03  0.41800000000E+01 0.  1.
        -11    1    1    2    0    0 -0.19426780259E+02  0.15159139196E+02 -0.10939390122E+03  0.11213485148E+03  0.00000000000E+00 0. -1.
         11    1    1    2    0    0 -0.59052738103E+02  0.15909188251E+02 -0.15214802214E+02  0.63022363925E+02  0.00000000000E+00 0.  1.
</event>
<event>
 7    1  0.2440960E-009  0.1345286E+03  0.7561462E-02  0.1220887E+00
          2   -1    0    0  501    0  0.00000000000E+00  0.00000000000E+00  0.40689315695E+03  0.40689315695E+03  0.00000000000E+00 0. -1.
         -2   -1    0    0    0  501 -0.00000000000E+00 -0.00000000000E+00 -0.59474887140E+02  0.59474887140E+02  0.00000000000E+00 0.  1.
         25    2    1    2    0    0 -0.53477543165E+02 -0.93399954341E+02  0.22936901694E+03  0.28255763213E+03  0.12508105553E+03 0.  0.
          5    1    3    3  502    0 -0.60124081716E+02 -0.10075993401E+03  0.10435872976E+03  0.15708496548E+03  0.41800000000E+01 0.  1.
         -5    1    3    3    0  502  0.66465385517E+01  0.73599796691E+01  0.12501028718E+03  0.12547266665E+03  0.41800000000E+01 0.  1.
        -11    1    1    2    0    0 -0.49523752807E+01  0.81004453633E+02  0.68862237579E+02  0.10643427687E+03  0.00000000000E+00 0. -1.
         11    1    1    2    0    0  0.58429918445E+02  0.12395500708E+02  0.49187015297E+02  0.77376135088E+02  0.00000000000E+00 0.  1.
</event>
<event>
 7    1  0.2440960E-009  0.1737486E+03  0.7561462E-02  0.1173994E+00
         -2   -1    0    0    0  501 -0.00000000000E+00  0.00000000000E+00  0.47198149988E+03  0.47198149988E+03  0.00000000000E+00 0. -1.
          2   -1    0    0  501    0  0.00000000000E+00 -0.00000000000E+00 -0.67799009755E+02  0.67799009755E+02  0.00000000000E+00 0.  1.
         25    2    1    2    0    0  0.12587245374E+03 -0.63759536942E+02  0.19122670757E+03  0.26856019006E+03  0.12509104218E+03 0.  0.
          5    1    3    3  502    0  0.98582783581E+02  0.19306184687E+02  0.11183935916E+03  0.15038885811E+03  0.41800000000E+01 0.  1.
         -5    1    3    3    0  502  0.27289670163E+02 -0.83065721629E+02  0.79387348402E+02  0.11817133195E+03  0.41800000000E+01 0.  1.
        -11    1    1    2    0    0 -0.12263211754E+03  0.30983745597E+02  0.19822161937E+03  0.23513919097E+03  0.00000000000E+00 0. -1.
         11    1    1    2    0    0 -0.32403362080E+01  0.32775791345E+02  0.14734163186E+02  0.36081128611E+02  0.00000000000E+00 0.  1.
</event>
<event>
 7    1  0.2440960E-009  0.1417292E+03  0.7561462E-02  0.1211021E+00
          1   -1    0    0  501    0  0.00000000000E+00  0.00000000000E+00  0.13347256106E+04  0.13347256106E+04  0.00000000000E+00 0. -1.
         -1   -1    0    0    0  501 -0.00000000000E+00 -0.00000000000E+00 -0.33946636789E+02  0.33946636789E+02  0.00000000000E+00 0.  1.
         25    2    1    2    0    0  0.21614932324E+02  0.94852834039E+02  0.11740230810E+04  0.11846695823E+04  0.12509020380E+03 0.  0.
          5    1    3    3  502    0  0.60411548068E+02  0.97514454441E+02  0.73519824309E+03  0.74410520292E+03  0.41800000000E+01 0.  1.
         -5    1    3    3    0  502 -0.38796615744E+02 -0.26616204023E+01  0.43882483792E+03  0.44056437940E+03  0.41800000000E+01 0.  1.
        -11    1    1    2    0    0  0.90997469120E+01 -0.98238137440E+02  0.11348125174E+03  0.15037131222E+03  0.00000000000E+00 0. -1.
         11    1    1    2    0    0 -0.30714679236E+02  0.33853034009E+01  0.13274641056E+02  0.33631352855E+02  0.00000000000E+00 0.  1.
</event>
<event>
 7    1  0.2440960E-009  0.4120721E+03  0.7561462E-02  0.1039678E+00
          2   -1    0    0  501    0  0.00000000000E+00  0.00000000000E+00  0.94428482834E+03  0.94428482834E+03  0.00000000000E+00 0. -1.
         -2   -1    0    0    0  501 -0.00000000000E+00 -0.00000000000E+00 -0.20050160506E+03  0.20050160506E+03  0.00000000000E+00 0.  1.
         25    2    1    2    0    0 -0.39635767177E+03 -0.59896478750E+02  0.54394436509E+03  0.68717543890E+03  0.12509044476E+03 0.  0.
          5    1    3    3  502    0 -0.19494934384E+03 -0.86240621895E+02  0.23390913882E+03  0.31650221034E+03  0.41800000000E+01 0. -1.
         -5    1    3    3    0  502 -0.20140832794E+03  0.26344143145E+02  0.31003522627E+03  0.37067322856E+03  0.41800000000E+01 0. -1.
        -11    1    1    2    0    0  0.13082985673E+03  0.55724337999E+02  0.40260834858E+02  0.14779238168E+03  0.00000000000E+00 0.  1.
         11    1    1    2    0    0  0.26552781504E+03  0.41721407504E+01  0.15957802334E+03  0.30981861282E+03  0.00000000000E+00 0. -1.
</event>
<event>
 7    1  0.2440960E-009  0.1077062E+03  0.7561462E-02  0.1264877E+00
         -2   -1    0    0    0  501 -0.00000000000E+00  0.00000000000E+00  0.41464073275E+02  0.41464073275E+02  0.00000000000E+00 0.  1.
          2   -1    0    0  501    0  0.00000000000E+00 -0.00000000000E+00 -0.43870883466E+03  0.43870883466E+03  0.00000000000E+00 0. -1.
         25    2    1    2    0    0  0.49670875850E+02  0.52502676046E+02 -0.20217399071E+03  0.24848774611E+03  0.12509240803E+03 0.  0.
          5    1    3    3  502    0  0.25932299254E+02 -0.20784310252E+02 -0.15386677164E+01  0.33530755965E+02  0.41800000000E+01 0.  1.
         -5    1    3    3    0  502  0.23738576596E+02  0.73286986298E+02 -0.20063532300E+03  0.21495699015E+03  0.41800000000E+01 0.  1.
        -11    1    1    2    0    0 -0.24309801291E+01 -0.57239617240E+02 -0.40960655238E+02  0.70427684355E+02  0.00000000000E+00 0.  1.
         11    1    1    2    0    0 -0.47239895721E+02  0.47369411940E+01 -0.15411011543E+03  0.16125747746E+03  0.00000000000E+00 0. -1.
</event>
<event>
 7    1  0.2440960E-009  0.1394039E+03  0.7561462E-02  0.1214133E+00
         -3   -1    0    0    0  501 -0.00000000000E+00  0.00000000000E+00  0.53544491323E+03  0.53544491323E+03  0.00000000000E+00 0.  1.
          3   -1    0    0  501    0  0.00000000000E+00 -0.00000000000E+00 -0.49691125417E+02  0.49691125417E+02  0.00000000000E+00 0. -1.
         25    2    1    2    0    0 -0.77643668641E+02 -0.70036242287E+02  0.29076139135E+03  0.33335065366E+03  0.12508739778E+03 0.  0.
          5    1    3    3  502    0  0.81115008041E-01 -0.36435768109E+02  0.21966550771E+03  0.22270603821E+03  0.41800000000E+01 0.  1.
         -5    1    3    3    0  502 -0.77724783649E+02 -0.33600474177E+02  0.71095883636E+02  0.11064461545E+03  0.41800000000E+01 0.  1.
        -11    1    1    2    0    0  0.49496351158E+02 -0.26955143595E+02  0.89306675746E+02  0.10560374462E+03  0.00000000000E+00 0.  1.
         11    1    1    2    0    0  0.28147317483E+02  0.96991385882E+02  0.10568572072E+03  0.14618164037E+03  0.00000000000E+00 0. -1.
</event>
<event>
 7    1  0.2440960E-009  0.1013133E+03  0.7561462E-02  0.1277558E+00
          4   -1    0    0  501    0  0.00000000000E+00  0.00000000000E+00  0.99799029038E+03  0.99799029038E+03  0.00000000000E+00 0. -1.
         -4   -1    0    0    0  501 -0.00000000000E+00 -0.00000000000E+00 -0.13176002487E+02  0.13176002487E+02  0.00000000000E+00 0.  1.
         25    2    1    2    0    0 -0.67173282209E-01  0.12173038318E+02  0.72110588822E+03  0.73197608536E+03  0.12508836932E+03 0.  0.
          5    1    3    3  502    0  0.21362393927E+01 -0.55480979292E+02  0.25875747352E+03  0.26468019398E+03  0.41800000000E+01 0. -1.
         -5    1    3    3    0  502 -0.22034126749E+01  0.67654017610E+02  0.46234841470E+03  0.46729589138E+03  0.41800000000E+01 0. -1.
        -11    1    1    2    0    0 -0.36965752251E+02 -0.18856352018E+02  0.66216719243E+02  0.78145267024E+02  0.00000000000E+00 0.  1.
         11    1    1    2    0    0  0.37032925533E+02  0.66833136995E+01  0.19749168043E+03  0.20104494048E+03  0.00000000000E+00 0. -1.
</event>
<event>
 7    1  0.2440960E-009  0.8395244E+02  0.7561462E-02  0.1318195E+00
         -1   -1    0    0    0  501 -0.00000000000E+00  0.00000000000E+00  0.40189117192E+02  0.40189117192E+02  0.00000000000E+00 0.  1.
          1   -1    0    0  501    0  0.00000000000E+00 -0.00000000000E+00 -0.34643344656E+03  0.34643344656E+03  0.00000000000E+00 0. -1.
         25    2    1    2    0    0  0.44699488008E+02  0.47232329672E+01 -0.15207440041E+03  0.20197264663E+03  0.12508386614E+03 0.  0.
          5    1    3    3  502    0  0.14691055754E+02  0.41729707869E+02 -0.14735895191E+03  0.15391338066E+03  0.41800000000E+01 0. -1.
         -5    1    3    3    0  502  0.30008432255E+02 -0.37006474902E+02 -0.47154484985E+01  0.48059265970E+02  0.41800000000E+01 0. -1.
        -11    1    1    2    0    0 -0.42230147064E+02 -0.29006071347E+02 -0.32760011570E+02  0.60810820206E+02  0.00000000000E+00 0.  1.
         11    1    1    2    0    0 -0.24693409446E+01  0.24282838380E+02 -0.12140991739E+03  0.12383909691E+03  0.00000000000E+00 0. -1.
</event>
<event>
 7    1  0.2440960E-009  0.1320421E+03  0.7561462E-02  0.1224457E+00
         -2   -1    0    0    0  501 -0.00000000000E+00  0.00000000000E+00  0.61331913759E+02  0.61331913759E+02  0.00000000000E+00 0.  1.
          2   -1    0    0  501    0  0.00000000000E+00 -0.00000000000E+00 -0.32902521643E+03  0.32902521643E+03  0.00000000000E+00 0. -1.
         25    2    1    2    0    0  0.79773072300E+02 -0.35093249288E+02 -0.17811688139E+03  0.23444718886E+03  0.12507830235E+03 0.  0.
          5    1    3    3  502    0 -0.33684382349E+02 -0.53807619079E+01 -0.31248226565E+02  0.46449050328E+02  0.41800000000E+01 0.  1.
         -5    1    3    3    0  502  0.11345745465E+03 -0.29712487380E+02 -0.14686865483E+03  0.18799813853E+03  0.41800000000E+01 0.  1.
        -11    1    1    2    0    0 -0.25026117421E+02  0.49745383594E+02 -0.81435904604E+02  0.98654530057E+02  0.00000000000E+00 0. -1.
         11    1    1    2    0    0 -0.54746954878E+02 -0.14652134305E+02 -0.81405166778E+01  0.57255411272E+02  0.00000000000E+00 0.  1.
</event>
<event>
 7    1  0.2440960E-009  0.1032319E+03  0.7561462E-02  0.1273643E+00
          2   -1    0    0  501    0  0.00000000000E+00  0.00000000000E+00  0.88443130919E+03  0.88443130919E+03  0.00000000000E+00 0.  1.
         -2   -1    0    0    0  501 -0.00000000000E+00 -0.00000000000E+00 -0.18282176115E+02  0.18282176115E+02  0.00000000000E+00 0. -1.
         25    2    1    2    0    0 -0.24460369177E+02 -0.53658451420E+02  0.58506118509E+03  0.60118321371E+03  0.12508847698E+03 0.  0.
          5    1    3    3  502    0  0.36140021011E+02  0.10968601263E+02  0.82170066637E+02  0.90530677582E+02  0.41800000000E+01 0.  1.
         -5    1    3    3    0  502 -0.60600390188E+02 -0.64627052683E+02  0.50289111845E+03  0.51065253612E+03  0.41800000000E+01 0.  1.
        -11    1    1    2    0    0  0.26174167951E+02  0.64075206531E+02  0.28252161283E+03  0.29087657327E+03  0.00000000000E+00 0.  1.
         11    1    1    2    0    0 -0.17137987744E+01 -0.10416755111E+02 -0.14336648440E+01  0.10653698333E+02  0.00000000000E+00 0. -1.
</event>
<event>
 7    1  0.2440960E-009  0.1007114E+03  0.7561462E-02  0.1278807E+00
          1   -1    0    0  501    0  0.00000000000E+00  0.00000000000E+00  0.23995230983E+03  0.23995230983E+03  0.00000000000E+00 0. -1.
         -1   -1    0    0    0  501 -0.00000000000E+00 -0.00000000000E+00 -0.55569359076E+02  0.55569359076E+02  0.00000000000E+00 0.  1.
         25    2    1    2    0    0  0.34774140827E+02  0.15023223267E+02  0.11922356695E+03  0.17691848784E+03  0.12510377418E+03 0.  0.
          5    1    3    3  502    0 -0.35564257466E+02  0.26686761862E+02  0.89673130805E+01  0.45550903083E+02  0.41800000000E+01 0.  1.
         -5    1    3    3    0  502  0.70338398293E+02 -0.11663538595E+02  0.11025625387E+03  0.13136758475E+03  0.41800000000E+01 0.  1.
        -11    1    1    2    0    0  0.63597873005E+01  0.26286752750E+02 -0.48745420603E+01  0.27480928386E+02  0.00000000000E+00 0.  1.
         11    1    1    2    0    0 -0.41133928127E+02 -0.41309976018E+02  0.70033925867E+02  0.91122252683E+02  0.00000000000E+00 0. -1.
</event>
<event>
 7    1  0.2440960E-009  0.1010840E+03  0.7561462E-02  0.1278033E+00
         -4   -1    0    0    0  501 -0.00000000000E+00  0.00000000000E+00  0.80701104899E+02  0.80701104899E+02  0.00000000000E+00 0.  1.
          4   -1    0    0  501    0  0.00000000000E+00 -0.00000000000E+00 -0.15274193619E+03  0.15274193619E+03  0.00000000000E+00 0. -1.
         25    2    1    2    0    0  0.24221409758E+02  0.58865314747E+01 -0.39020668787E+02  0.13338268781E+03  0.12508797253E+03 0.  0.
          5    1    3    3  502    0  0.40519858088E+02  0.58835179812E+02 -0.16527817691E+02  0.73444390124E+02  0.41800000000E+01 0.  1.
         -5    1    3    3    0  502 -0.16298448331E+02 -0.52948648338E+02 -0.22492851096E+02  0.59938297684E+02  0.41800000000E+01 0.  1.
        -11    1    1    2    0    0 -0.41205779209E+02 -0.26001183065E+02  0.98908810892E+01  0.49717273554E+02  0.00000000000E+00 0.  1.
         11    1    1    2    0    0  0.16984369451E+02  0.20114651590E+02 -0.42911043594E+02  0.50343079729E+02  0.00000000000E+00 0. -1.
</event>
<event>
 7    1  0.2440960E-009  0.9126290E+02  0.7561462E-02  0.1299822E+00
         -2   -1    0    0    0  501 -0.00000000000E+00  0.00000000000E+00  0.34821403423E+02  0.34821403423E+02  0.00000000000E+00 0.  1.
          2   -1    0    0  501    0  0.00000000000E+00 -0.00000000000E+00 -0.50178545086E+03  0.50178545086E+03  0.00000000000E+00 0. -1.
         25    2    1    2    0    0 -0.33935028265E+02  0.46919755167E+02 -0.16540809621E+03  0.21531484898E+03  0.12509035266E+03 0.  0.
          5    1    3    3  502    0  0.15270238767E+02  0.66610554064E+01 -0.14837240048E+03  0.14936328691E+03  0.41800000000E+01 0.  1.
         -5    1    3    3    0  502 -0.49205267032E+02  0.40258699761E+02 -0.17035695728E+02  0.65951562067E+02  0.41800000000E+01 0.  1.
        -11    1    1    2    0    0 -0.70356787901E+01 -0.58609660791E+02 -0.23473572409E+03  0.24204432089E+03  0.00000000000E+00 0. -1.
         11    1    1    2    0    0  0.40970707055E+02  0.11689905624E+02 -0.66820227136E+02  0.79247684411E+02  0.00000000000E+00 0.  1.
</event>
<event>
 7    1  0.2440960E-009  0.1834495E+03  0.7561462E-02  0.1164506E+00
          1   -1    0    0  501    0  0.00000000000E+00  0.00000000000E+00  0.63756453149E+03  0.63756453149E+03  0.00000000000E+00 0. -1.
         -1   -1    0    0    0  501 -0.00000000000E+00 -0.00000000000E+00 -0.69757730107E+02  0.69757730107E+02  0.00000000000E+00 0.  1.
         25    2    1    2    0    0  0.80312521919E+02 -0.15733099475E+03  0.22103512279E+03  0.30936775041E+03  0.12509490957E+03 0.  0.
          5    1    3    3  502    0  0.67435715044E+02 -0.12986493312E+03  0.83634283281E+02  0.16859609206E+03  0.41800000000E+01 0.  1.
         -5    1    3    3    0  502  0.12876806875E+02 -0.27466061629E+02  0.13740083951E+03  0.14077165835E+03  0.41800000000E+01 0.  1.
        -11    1    1    2    0    0 -0.79877269517E+02  0.81713813283E+02  0.25210959141E+03  0.27679734744E+03  0.00000000000E+00 0. -1.
         11    1    1    2    0    0 -0.43525240199E+00  0.75617181469E+02  0.94662087182E+02  0.12115716375E+03  0.00000000000E+00 0.  1.
</event>
<event>
 7    1  0.2440960E-009  0.8170938E+02  0.7561462E-02  0.1324269E+00
         -2   -1    0    0    0  501 -0.00000000000E+00  0.00000000000E+00  0.13163677462E+02  0.13163677462E+02  0.00000000000E+00 0.  1.
          2   -1    0    0  501    0  0.00000000000E+00 -0.00000000000E+00 -0.10032220756E+04  0.10032220756E+04  0.00000000000E+00 0. -1.
         25    2    1    2    0    0 -0.14355184639E+02 -0.23463285381E+02 -0.69887192348E+03  0.71051185615E+03  0.12509410548E+03 0.  0.
          5    1    3    3  502    0 -0.18623064377E+02 -0.46015780982E+02 -0.67602430636E+03  0.67785736392E+03  0.41800000000E+01 0.  1.
         -5    1    3    3    0  502  0.42678797375E+01  0.22552495601E+02 -0.22847617111E+02  0.32654492232E+02  0.41800000000E+01 0.  1.
        -11    1    1    2    0    0 -0.34741014297E+02  0.22063887556E+02 -0.93131897535E+02  0.10181995653E+03  0.00000000000E+00 0. -1.
         11    1    1    2    0    0  0.49096198936E+02  0.13993978257E+01 -0.19805457708E+03  0.20405394034E+03  0.00000000000E+00 0.  1.
</event>
<event>
 7    1  0.2440960E-009  0.1155734E+03  0.7561462E-02  0.1250584E+00
         -3   -1    0    0    0  501 -0.00000000000E+00  0.00000000000E+00  0.75870422105E+02  0.75870422105E+02  0.00000000000E+00 0.  1.
          3   -1    0    0  501    0  0.00000000000E+00 -0.00000000000E+00 -0.22136967885E+03  0.22136967885E+03  0.00000000000E+00 0. -1.
         25    2    1    2    0    0  0.54344830967E+02 -0.31299704438E+02 -0.11420082664E+03  0.18061934114E+03  0.12509390648E+03 0.  0.
          5    1    3    3  502    0  0.11226740145E+02  0.40719497054E+02 -0.48774958923E+01  0.42724460216E+02  0.41800000000E+01 0.  1.
         -5    1    3    3    0  502  0.43118090822E+02 -0.72019201491E+02 -0.10932333075E+03  0.13789488093E+03  0.41800000000E+01 0.  1.
        -11    1    1    2    0    0 -0.23033825606E+02  0.58695506655E+02  0.23732436446E+01  0.63097954872E+02  0.00000000000E+00 0. -1.
         11    1    1    2    0    0 -0.31311005360E+02 -0.27395802217E+02 -0.33671673753E+02  0.53522804944E+02  0.00000000000E+00 0.  1.
</event>
<event>
 7    1  0.2440960E-009  0.1006151E+03  0.7561462E-02  0.1279008E+00
          2   -1    0    0  501    0  0.00000000000E+00  0.00000000000E+00  0.23943503464E+03  0.23943503464E+03  0.00000000000E+00 0. -1.
         -2   -1    0    0    0  501 -0.00000000000E+00 -0.00000000000E+00 -0.55710231754E+02  0.55710231754E+02  0.00000000000E+00 0.  1.
         25    2    1    2    0    0 -0.12227336426E+02  0.49866598568E+01  0.14728522256E+03  0.19369121648E+03  0.12509586733E+03 0.  0.
          5    1    3    3  502    0  0.13870612654E+02 -0.52242552644E+02  0.33840254783E+02  0.63908633579E+02  0.41800000000E+01 0. -1.
         -5    1    3    3    0  502 -0.26097949080E+02  0.57229212501E+02  0.11344496778E+03  0.12978258290E+03  0.41800000000E+01 0. -1.
        -11    1    1    2    0    0 -0.35785368678E+02 -0.32813670532E+01  0.39391758521E+02  0.53320452179E+02  0.00000000000E+00 0. -1.
         11    1    1    2    0    0  0.48012705104E+02 -0.17052928037E+01 -0.29521781971E+01  0.48133597737E+02  0.00000000000E+00 0.  1.
</event>
<event>
 7    1  0.2440960E-009  0.1290791E+03  0.7561462E-02  0.1228829E+00
          2   -1    0    0  501    0  0.00000000000E+00  0.00000000000E+00  0.87321555117E+03  0.87321555117E+03  0.00000000000E+00 0. -1.
         -2   -1    0    0    0  501 -0.00000000000E+00 -0.00000000000E+00 -0.27535825374E+02  0.27535825374E+02  0.00000000000E+00 0.  1.
         25    2    1    2    0    0  0.96533876620E+02 -0.51761579968E+01  0.30245396144E+03  0.34127855880E+03  0.12508826467E+03 0.  0.
          5    1    3    3  502    0  0.72767138408E+01 -0.31172321416E+02  0.20113053098E+03  0.20370475468E+03  0.41800000000E+01 0. -1.
         -5    1    3    3    0  502  0.89257162780E+02  0.25996163419E+02  0.10132343046E+03  0.13757380412E+03  0.41800000000E+01 0. -1.
        -11    1    1    2    0    0 -0.98292256244E+02  0.33948979581E+02  0.45165929932E+03  0.46347602259E+03  0.00000000000E+00 0. -1.
         11    1    1    2    0    0  0.17583796233E+01 -0.28772821585E+02  0.91566465030E+02  0.95996795150E+02  0.00000000000E+00 0.  1.
</event>
<event>
 7    1  0.2440960E-009  0.1016908E+03  0.7561462E-02  0.1276780E+00
          1   -1    0    0  501    0  0.00000000000E+00  0.00000000000E+00  0.28891602690E+02  0.28891602690E+02  0.00000000000E+00 0. -1.
         -1   -1    0    0    0  501 -0.00000000000E+00 -0.00000000000E+00 -0.48609394749E+03  0.48609394749E+03  0.00000000000E+00 0.  1.
         25    2    1    2    0    0 -0.29361166532E+02  0.25690584332E+02 -0.19956153913E+03  0.23873220723E+03  0.12508466991E+03 0.  0.
          5    1    3    3  502    0 -0.69294954622E+02  0.33961858664E+02 -0.75374168999E+02  0.10795339889E+03  0.41800000000E+01 0.  1.
         -5    1    3    3    0  502  0.39933788090E+02 -0.82712743323E+01 -0.12418737014E+03  0.13077880834E+03  0.41800000000E+01 0.  1.
        -11    1    1    2    0    0  0.50613139322E+02 -0.35373728081E+02 -0.23755698608E+03  0.24545124189E+03  0.00000000000E+00 0.  1.
         11    1    1    2    0    0 -0.21251972790E+02  0.96831437493E+01 -0.20083819589E+02  0.30802101058E+02  0.00000000000E+00 0. -1.
</event>
<event>
 7    1  0.2440960E-009  0.1738996E+03  0.7561462E-02  0.1173841E+00
         -2   -1    0    0    0  501 -0.00000000000E+00  0.00000000000E+00  0.24437969176E+03  0.24437969176E+03  0.00000000000E+00 0.  1.
          2   -1    0    0  501    0  0.00000000000E+00 -0.00000000000E+00 -0.13635015198E+03  0.13635015198E+03  0.00000000000E+00 0. -1.
         25    2    1    2    0    0  0.19608210944E+02 -0.13440078379E+03  0.16541067805E+02  0.18538961203E+03  0.12509056201E+03 0.  0.
          5    1    3    3  502    0  0.60565279303E+02 -0.11788937290E+03 -0.11194799662E+02  0.13307461530E+03  0.41800000000E+01 0.  1.
         -5    1    3    3    0  502 -0.40957068359E+02 -0.16511410894E+02  0.27735867467E+02  0.52314996726E+02  0.41800000000E+01 0.  1.
        -11    1    1    2    0    0  0.12564326543E+02 -0.14104183248E+02  0.19676345873E+02  0.27275426183E+02  0.00000000000E+00 0. -1.
         11    1    1    2    0    0 -0.32172537486E+02  0.14850496704E+03  0.71812126101E+02  0.16806480553E+03  0.00000000000E+00 0.  1.
</event>
<event>
 7    1  0.2440960E-009  0.1109491E+03  0.7561462E-02  0.1258822E+00
         -1   -1    0    0    0  501 -0.00000000000E+00  0.00000000000E+00  0.19092672331E+03  0.19092672331E+03  0.00000000000E+00 0.  1.
          1   -1    0    0  501    0  0.00000000000E+00 -0.00000000000E+00 -0.91080139811E+02  0.91080139811E+02  0.00000000000E+00 0. -1.
         25    2    1    2    0    0  0.27052719378E+02  0.15385148087E+01  0.12803966547E+03  0.18103973336E+03  0.12508801889E+03 0.  0.
          5    1    3    3  502    0 -0.28526850336E+02  0.46520641284E+02  0.41381436498E+02  0.68613751845E+02  0.41800000000E+01 0. -1.
         -5    1    3    3    0  502  0.55579569714E+02 -0.44982126476E+02  0.86658228972E+02  0.11242598152E+03  0.41800000000E+01 0. -1.
        -11    1    1    2    0    0 -0.45416063990E+02 -0.35025021764E+02 -0.25242539575E+02  0.62662243992E+02  0.00000000000E+00 0.  1.
         11    1    1    2    0    0  0.18363344612E+02  0.33486506955E+02 -0.29505423909E+01  0.38304885769E+02  0.00000000000E+00 0. -1.
</event>
<event>
 7    1  0.2440960E-009  0.8421675E+02  0.7561462E-02  0.1317494E+00
         -1   -1    0    0    0  501 -0.00000000000E+00  0.00000000000E+00  0.44686199232E+02  0.44686199232E+02  0.00000000000E+00 0.  1.
          1   -1    0    0  501    0  0.00000000000E+00 -0.00000000000E+00 -0.28928239492E+03  0.28928239492E+03  0.00000000000E+00 0. -1.
         25    2    1    2    0    0 -0.91265145290E+01 -0.58338938669E+01 -0.19121995602E+03  0.22875764249E+03  0.12509060648E+03 0.  0.
          5    1    3    3  502    0 -0.17511255259E+02 -0.63971839701E+02 -0.10802427723E+03  0.12682963852E+03  0.41800000000E+01 0. -1.
         -5    1    3    3    0  502  0.83847407303E+01  0.58137945834E+02 -0.83195678791E+02  0.10192800397E+03  0.41800000000E+01 0. -1.
        -11    1    1    2    0    0 -0.31448582461E+01 -0.16934412525E+02  0.20595058395E+02  0.26848107778E+02  0.00000000000E+00 0.  1.
         11    1    1    2    0    0  0.12271372775E+02  0.22768306392E+02 -0.73971298062E+02  0.78362843891E+02  0.00000000000E+00 0. -1.
</event>
<event>
 7    1  0.2440960E-009  0.1253205E+03  0.7561462E-02  0.1234569E+00
          1   -1    0    0  501    0  0.00000000000E+00  0.00000000000E+00  0.16303918205E+03  0.16303918205E+03  0.00000000000E+00 0. -1.
         -1   -1    0    0    0  501 -0.00000000000E+00 -0.00000000000E+00 -0.14013610144E+03  0.14013610144E+03  0.00000000000E+00 0.  1.
         25    2    1    2    0    0  0.10259727628E+03 -0.22516882294E+02  0.24385022299E+02  0.16515293210E+03  0.12509056951E+03 0.  0.
          5    1    3    3  502    0 -0.17552675610E+02  0.52690666529E+01 -0.25820833450E+02  0.31938179731E+02  0.41800000000E+01 0. -1.
         -5    1    3    3    0  502  0.12014995189E+03 -0.27785948947E+02  0.50205855749E+02  0.13321475237E+03  0.41800000000E+01 0. -1.
        -11    1    1    2    0    0 -0.81435307419E+02  0.28798435122E+02 -0.38778475104E+02  0.94682782444E+02  0.00000000000E+00 0.  1.
         11    1    1    2    0    0 -0.21161968859E+02 -0.62815528274E+01  0.37296533415E+02  0.43339568949E+02  0.00000000000E+00 0. -1.
</event>
<event>
 7    1  0.2440960E-009  0.1036463E+03  0.7561462E-02  0.1272810E+00
         -1   -1    0    0    0  501 -0.00000000000E+00  0.00000000000E+00  0.73272853856E+02  0.73272853856E+02  0.00000000000E+00 0.  1.
          1   -1    0    0  501    0  0.00000000000E+00 -0.00000000000E+00 -0.23596065251E+03  0.23596065251E+03  0.00000000000E+00 0. -1.
         25    2    1    2    0    0  0.43067480599E+02 -0.33265927529E+02 -0.33949017001E+02  0.14057482916E+03  0.12508923622E+03 0.  0.
          5    1    3    3  502    0  0.20447302410E+02 -0.61183938848E+02 -0.65897707205E+02  0.92312224346E+02  0.41800000000E+01 0.  1.
         -5    1    3    3    0  502  0.22620178189E+02  0.27918011319E+02  0.31948690204E+02  0.48262604810E+02  0.41800000000E+01 0.  1.
        -11    1    1    2    0    0  0.80812873181E+01  0.51531039766E+02 -0.81035155438E+02  0.96371425645E+02  0.00000000000E+00 0.  1.
         11    1    1    2    0    0 -0.51148767917E+02 -0.18265112237E+02 -0.47703626212E+02  0.72287251561E+02  0.00000000000E+00 0. -1.
</event>
<event>
 7    1  0.2440960E-009  0.1386833E+03  0.7561462E-02  0.1215112E+00
         -1   -1    0    0    0  501 -0.00000000000E+00  0.00000000000E+00  0.13794287654E+03  0.13794287654E+03  0.00000000000E+00 0.  1.
          1   -1    0    0  501    0  0.00000000000E+00 -0.00000000000E+00 -0.16458531743E+03  0.16458531743E+03  0.00000000000E+00 0. -1.
         25    2    1    2    0    0  0.46625960853E+02 -0.93197584357E+02 -0.77945028768E+01  0.16299713098E+03  0.12509012941E+03 0.  0.
          5    1    3    3  502    0  0.67867457014E+01 -0.10299755751E+03  0.29458070057E+02  0.10742349399E+03  0.41800000000E+01 0.  1.
         -5    1    3    3    0  502  0.39839215151E+02  0.97999731497E+01 -0.37252572933E+02  0.55573636985E+02  0.41800000000E+01 0.  1.
        -11    1    1    2    0    0  0.52559742031E+01  0.78805806269E+02  0.79677175020E+01  0.79381766727E+02  0.00000000000E+00 0.  1.
         11    1    1    2    0    0 -0.51881935056E+02  0.14391778088E+02 -0.26815655512E+02  0.60149296274E+02  0.00000000000E+00 0. -1.
</event>
<event>
 7    1  0.2440960E-009  0.1038974E+03  0.7561462E-02  0.1272307E+00
          1   -1    0    0  501    0  0.00000000000E+00  0.00000000000E+00  0.14076295894E+03  0.14076295894E+03  0.00000000000E+00 0. -1.
         -1   -1    0    0    0  501 -0.00000000000E+00 -0.00000000000E+00 -0.10713599507E+03  0.10713599507E+03  0.00000000000E+00 0.  1.
         25    2    1    2    0    0  0.11381098503E+02 -0.48578730687E+02 -0.12327348430E+02  0.13523475905E+03  0.12508818513E+03 0.  0.
          5    1    3    3  502    0  0.27929596229E+02 -0.71996470193E+02  0.30826376723E+02  0.83254381072E+02  0.41800000000E+01 0.  1.
         -5    1    3    3    0  502 -0.16548497726E+02  0.23417739506E+02 -0.43153725153E+02  0.51980377982E+02  0.41800000000E+01 0.  1.
        -11    1    1    2    0    0  0.37223759657E+02  0.77952974757E+01  0.26307317912E+02  0.46243377055E+02  0.00000000000E+00 0. -1.
         11    1    1    2    0    0 -0.48604858160E+02  0.40783433211E+02  0.19646994389E+02  0.66420817895E+02  0.00000000000E+00 0.  1.
</event>
<event>
 7    1  0.2440960E-009  0.9912894E+02  0.7561462E-02  0.1282138E+00
          2   -1    0    0  501    0  0.00000000000E+00  0.00000000000E+00  0.60115310529E+02  0.60115310529E+02  0.00000000000E+00 0. -1.
         -2   -1    0    0    0  501 -0.00000000000E+00 -0.00000000000E+00 -0.24837940183E+03  0.24837940183E+03  0.00000000000E+00 0.  1.
         25    2    1    2    0    0  0.22687962097E+02  0.38653816200E+02 -0.15078118577E+03  0.20097666484E+03  0.12509113756E+03 0.  0.
          5    1    3    3  502    0  0.23774641594E+02  0.73736766036E+02 -0.45556241384E+02  0.89973261458E+02  0.41800000000E+01 0. -1.
         -5    1    3    3    0  502 -0.10866794975E+01 -0.35082949836E+02 -0.10522494438E+03  0.11100340338E+03  0.41800000000E+01 0. -1.
        -11    1    1    2    0    0 -0.49202382163E+02 -0.28954978530E+02  0.41217109639E+01  0.57238568234E+02  0.00000000000E+00 0. -1.
         11    1    1    2    0    0  0.26514420066E+02 -0.96988376695E+01 -0.41604616497E+02  0.50279479288E+02  0.00000000000E+00 0.  1.
</event>
<event>
 7    1  0.2440960E-009  0.1395565E+03  0.7561462E-02  0.1213927E+00
          2   -1    0    0  501    0  0.00000000000E+00  0.00000000000E+00  0.37667516361E+03  0.37667516361E+03  0.00000000000E+00 0. -1.
         -2   -1    0    0    0  501 -0.00000000000E+00 -0.00000000000E+00 -0.79946332458E+02  0.79946332458E+02  0.00000000000E+00 0.  1.
         25    2    1    2    0    0  0.76781959096E+02  0.79631170526E+02  0.57197184153E+02  0.17650976078E+03  0.12509030823E+03 0.  0.
          5    1    3    3  502    0  0.40373857120E+02  0.11031461746E+03  0.51651151546E+02  0.12839266732E+03  0.41800000000E+01 0.  1.
         -5    1    3    3    0  502  0.36408101976E+02 -0.30683446936E+02  0.55460326063E+01  0.48117093460E+02  0.41800000000E+01 0.  1.
        -11    1    1    2    0    0 -0.63614202875E+02 -0.48575431855E+02  0.23217867489E+03  0.24558761463E+03  0.00000000000E+00 0. -1.
         11    1    1    2    0    0 -0.13167756221E+02 -0.31055738671E+02  0.73529721063E+01  0.34524120656E+02  0.00000000000E+00 0.  1.
</event>
<event>
 7    1  0.2440960E-009  0.9558801E+02  0.7561462E-02  0.1289857E+00
         -4   -1    0    0    0  501 -0.00000000000E+00  0.00000000000E+00  0.25971272766E+02  0.25971272766E+02  0.00000000000E+00 0.  1.
          4   -1    0    0  501    0  0.00000000000E+00 -0.00000000000E+00 -0.54947051073E+03  0.54947051073E+03  0.00000000000E+00 0. -1.
         25    2    1    2    0    0  0.73575083026E+01 -0.41716174274E+02 -0.37157482826E+03  0.39434752592E+03  0.12509095123E+03 0.  0.
          5    1    3    3  502    0 -0.15467127991E+02  0.22051986633E+02 -0.27481943291E+03  0.27616791137E+03  0.41800000000E+01 0. -1.
         -5    1    3    3    0  502  0.22824636294E+02 -0.63768160907E+02 -0.96755395352E+02  0.11817961456E+03  0.41800000000E+01 0. -1.
        -11    1    1    2    0    0  0.20662635190E+02  0.59423225267E+02 -0.79000596700E+02  0.10099088312E+03  0.00000000000E+00 0. -1.
         11    1    1    2    0    0 -0.28020143492E+02 -0.17707050994E+02 -0.72923813004E+02  0.80103374456E+02  0.00000000000E+00 0.  1.
</event>
<event>
 7    1  0.2440960E-009  0.1113804E+03  0.7561462E-02  0.1258035E+00
          2   -1    0    0  501    0  0.00000000000E+00  0.00000000000E+00  0.74067908992E+03  0.74067908992E+03  0.00000000000E+00 0. -1.
         -2   -1    0    0    0  501 -0.00000000000E+00 -0.00000000000E+00 -0.20918441110E+02  0.20918441110E+02  0.00000000000E+00 0.  1.
         25    2    1    2    0    0  0.43288163169E+02  0.37480603064E+02  0.37638083523E+03  0.40073542220E+03  0.12509070628E+03 0.  0.
          5    1    3    3  502    0 -0.21487088008E+02 -0.24994001580E+02  0.37579657821E+02  0.50160723161E+02  0.41800000000E+01 0. -1.
         -5    1    3    3    0  502  0.64775251178E+02  0.62474604644E+02  0.33880117741E+03  0.35057469904E+03  0.41800000000E+01 0. -1.
        -11    1    1    2    0    0 -0.18342726451E+02 -0.61885924982E+02  0.28992976390E+03  0.29702793020E+03  0.00000000000E+00 0. -1.
         11    1    1    2    0    0 -0.24945436718E+02  0.24405321917E+02  0.53450049679E+02  0.63834178632E+02  0.00000000000E+00 0.  1.
</event>
<event>
 7    1  0.2440960E-009  0.1104004E+03  0.7561462E-02  0.1259830E+00
          1   -1    0    0  501    0  0.00000000000E+00  0.00000000000E+00  0.20243294279E+03  0.20243294279E+03  0.00000000000E+00 0. -1.
         -1   -1    0    0    0  501 -0.00000000000E+00 -0.00000000000E+00 -0.67897526706E+02  0.67897526706E+02  0.00000000000E+00 0.  1.
         25    2    1    2    0    0  0.90351982764E+01  0.37604246199E+02  0.48930606620E+02  0.13977109034E+03  0.12508412885E+03 0.  0.
          5    1    3    3  502    0  0.32460107359E+02  0.77352973064E+02  0.37914213991E+02  0.92152596459E+02  0.41800000000E+01 0.  1.
         -5    1    3    3    0  502 -0.23424909083E+02 -0.39748726865E+02  0.11016392629E+02  0.47618493881E+02  0.41800000000E+01 0.  1.
        -11    1    1    2    0    0  0.35717641861E+02 -0.26207749104E+02  0.16150814073E+02  0.47153418205E+02  0.00000000000E+00 0.  1.
         11    1    1    2    0    0 -0.44752840137E+02 -0.11396497094E+02  0.69453995391E+02  0.83405960951E+02  0.00000000000E+00 0. -1.
</event>
<event>
 7    1  0.2440960E-009  0.1828879E+03  0.7561462E-02  0.1165037E+00
         -1   -1    0    0    0  501 -0.00000000000E+00  0.00000000000E+00  0.44614174440E+02  0.44614174440E+02  0.00000000000E+00 0.  1.
          1   -1    0    0  501    0  0.00000000000E+00 -0.00000000000E+00 -0.96190317767E+03  0.96190317767E+03  0.00000000000E+00 0. -1.
         25    2    1    2    0    0  0.16364072303E+03  0.41201201116E+02 -0.60526938692E+03  0.64068197154E+03  0.12508610121E+03 0.  0.
          5    1    3    3  502    0  0.10136217858E+03  0.26339930384E+01 -0.51226095178E+03  0.52221641519E+03  0.41800000000E+01 0. -1.
         -5    1    3    3    0  502  0.62278544448E+02  0.38567208077E+02 -0.93008435131E+02  0.11846555636E+03  0.41800000000E+01 0. -1.
        -11    1    1    2    0    0 -0.46660641658E+02 -0.56130259404E+02 -0.11434610487E+03  0.13565711628E+03  0.00000000000E+00 0.  1.
         11    1    1    2    0    0 -0.11698008137E+03  0.14929058288E+02 -0.19767351145E+03  0.23017826428E+03  0.00000000000E+00 0. -1.
</event>
<event>
 7    1  0.2440960E-009  0.1147428E+03  0.7561462E-02  0.1252031E+00
         -2   -1    0    0    0  501 -0.00000000000E+00  0.00000000000E+00  0.25462888692E+02  0.25462888692E+02  0.00000000000E+00 0.  1.
          2   -1    0    0  501    0  0.00000000000E+00 -0.00000000000E+00 -0.55206968938E+03  0.55206968938E+03  0.00000000000E+00 0. -1.
         25    2    1    2    0    0 -0.38911068842E+02  0.20805321275E+02 -0.24834520026E+03  0.28154909806E+03  0.12509046108E+03 0.  0.
          5    1    3    3  502    0  0.31438676859E+01 -0.47839304208E+02 -0.12754674471E+03  0.13632361284E+03  0.41800000000E+01 0.  1.
         -5    1    3    3    0  502 -0.42054936528E+02  0.68644625483E+02 -0.12079845555E+03  0.14522548522E+03  0.41800000000E+01 0.  1.
        -11    1    1    2    0    0 -0.99363065199E+00  0.33414049210E+02 -0.85379869328E+02  0.91690828729E+02  0.00000000000E+00 0.  1.
         11    1    1    2    0    0  0.39904699494E+02 -0.54219370485E+02 -0.19288173110E+03  0.20429265129E+03  0.00000000000E+00 0. -1.
</event>
<event>
 7    1  0.2440960E-009  0.5959003E+02  0.7561462E-02  0.1399560E+00
         -1   -1    0    0    0  501 -0.00000000000E+00  0.00000000000E+00  0.93481771403E+02  0.93481771403E+02  0.00000000000E+00 0.  1.
          1   -1    0    0  501    0  0.00000000000E+00 -0.00000000000E+00 -0.15636291727E+03  0.15636291727E+03  0.00000000000E+00 0. -1.
         25    2    1    2    0    0  0.34230802008E+02  0.48354311724E+01 -0.50191617719E+02  0.13915630995E+03  0.12510056319E+03 0.  0.
          5    1    3    3  502    0  0.41702970510E+02 -0.10977942817E+02  0.32735238641E+02  0.54302129118E+02  0.41800000000E+01 0.  1.
         -5    1    3    3    0  502 -0.74721685020E+01  0.15813373989E+02 -0.82926856360E+02  0.84854180833E+02  0.41800000000E+01 0.  1.
        -11    1    1    2    0    0 -0.19912155793E+01 -0.21491710685E+02  0.40738038897E+02  0.46102563712E+02  0.00000000000E+00 0.  1.
         11    1    1    2    0    0 -0.32239586429E+02  0.16656279513E+02 -0.53427567048E+02  0.64585815013E+02  0.00000000000E+00 0. -1.
</event>
<event>
 7    1  0.2440960E-009  0.1286086E+03  0.7561462E-02  0.1229535E+00
         -2   -1    0    0    0  501 -0.00000000000E+00  0.00000000000E+00  0.12407758121E+03  0.12407758121E+03  0.00000000000E+00 0. -1.
          2   -1    0    0  501    0  0.00000000000E+00 -0.00000000000E+00 -0.26635477654E+03  0.26635477654E+03  0.00000000000E+00 0.  1.
         25    2    1    2    0    0  0.78529519191E+01 -0.71552478140E+02 -0.21077331391E+03  0.25544145208E+03  0.12507405647E+03 0.  0.
          5    1    3    3  502    0 -0.40511139036E+02  0.13550188200E+02 -0.40609135488E+02  0.59087513667E+02  0.41800000000E+01 0.  1.
         -5    1    3    3    0  502  0.48364090955E+02 -0.85102666340E+02 -0.17016417842E+03  0.19635393841E+03  0.41800000000E+01 0.  1.
        -11    1    1    2    0    0  0.39781812789E+02  0.15331663478E+02  0.24892383513E+02  0.49368849397E+02  0.00000000000E+00 0.  1.
         11    1    1    2    0    0 -0.47634764708E+02  0.56220814661E+02  0.43603735068E+02  0.85622056281E+02  0.00000000000E+00 0. -1.
</event>
<event>
 7    1  0.2440960E-009  0.1057601E+03  0.7561462E-02  0.1268629E+00
         -1   -1    0    0    0  501 -0.00000000000E+00  0.00000000000E+00  0.16478020649E+02  0.16478020649E+02  0.00000000000E+00 0.  1.
          1   -1    0    0  501    0  0.00000000000E+00 -0.00000000000E+00 -0.74696304237E+03  0.74696304237E+03  0.00000000000E+00 0. -1.
         25    2    1    2    0    0  0.30881486363E+01 -0.27361288150E+02 -0.43346906198E+03  0.45199700295E+03  0.12509071198E+03 0.  0.
          5    1    3    3  502    0 -0.53132340653E+02 -0.39662972128E+02 -0.17550995845E+03  0.18766303551E+03  0.41800000000E+01 0.  1.
         -5    1    3    3    0  502  0.56220489289E+02  0.12301683978E+02 -0.25795910354E+03  0.26433396744E+03  0.41800000000E+01 0.  1.
        -11    1    1    2    0    0 -0.17986217532E+02 -0.26204605945E+02 -0.16765269890E+03  0.17063883743E+03  0.00000000000E+00 0. -1.
         11    1    1    2    0    0  0.14898068896E+02  0.53565894095E+02 -0.12936326084E+03  0.14080522264E+03  0.00000000000E+00 0.  1.
</event>
<event>
 7    1  0.2440960E-009  0.9436165E+02  0.7561462E-02  0.1292620E+00
         -1   -1    0    0    0  501 -0.00000000000E+00  0.00000000000E+00  0.20562996795E+03  0.20562996795E+03  0.00000000000E+00 0.  1.
          1   -1    0    0  501    0  0.00000000000E+00 -0.00000000000E+00 -0.83747356871E+02  0.83747356871E+02  0.00000000000E+00 0. -1.
         25    2    1    2    0    0  0.34629414567E+02 -0.23721383538E+02 -0.85757087913E+00  0.13194813775E+03  0.12509066807E+03 0.  0.
          5    1    3    3  502    0 -0.20632892092E+02 -0.47029373068E+02  0.34678579477E+02  0.62109213824E+02  0.41800000000E+01 0.  1.
         -5    1    3    3    0  502  0.55262306659E+02  0.23307989530E+02 -0.35536150356E+02  0.69838923927E+02  0.41800000000E+01 0.  1.
        -11    1    1    2    0    0 -0.21233832072E+02 -0.21316259273E+02  0.47927128873E+01  0.30466844777E+02  0.00000000000E+00 0. -1.
         11    1    1    2    0    0 -0.13395582495E+02  0.45037642811E+02  0.11794746907E+03  0.12696234229E+03  0.00000000000E+00 0.  1.
</event>
<event>
 7    1  0.2440960E-009  0.1589093E+03  0.7561462E-02  0.1189934E+00
          2   -1    0    0  501    0  0.00000000000E+00  0.00000000000E+00  0.23633392683E+03  0.23633392683E+03  0.00000000000E+00 0.  1.
         -2   -1    0    0    0  501 -0.00000000000E+00 -0.00000000000E+00 -0.12972378580E+03  0.12972378580E+03  0.00000000000E+00 0. -1.
         25    2    1    2    0    0  0.64362382855E+02  0.12063420348E+03  0.63231311561E+02  0.19580821813E+03  0.12509009613E+03 0.  0.
          5    1    3    3  502    0 -0.92177660055E+01 -0.18984517546E+02  0.25729750291E+02  0.33539105036E+02  0.41800000000E+01 0. -1.
         -5    1    3    3    0  502  0.73580148861E+02  0.13961872102E+03  0.37501561269E+02  0.16226911309E+03  0.41800000000E+01 0. -1.
        -11    1    1    2    0    0 -0.56800752328E+02 -0.86610710868E+02 -0.12567669480E+02  0.10433449582E+03  0.00000000000E+00 0. -1.
         11    1    1    2    0    0 -0.75616305273E+01 -0.34023492608E+02  0.55946498951E+02  0.65914998675E+02  0.00000000000E+00 0.  1.
</event>
<event>
 7    1  0.2440960E-009  0.8288561E+02  0.7561462E-02  0.1321056E+00
         -2   -1    0    0    0  501 -0.00000000000E+00  0.00000000000E+00  0.31319250094E+02  0.31319250094E+02  0.00000000000E+00 0.  1.
          2   -1    0    0  501    0  0.00000000000E+00 -0.00000000000E+00 -0.53922722415E+03  0.53922722415E+03  0.00000000000E+00 0. -1.
         25    2    1    2    0    0 -0.61238062350E+01 -0.24267424284E+02 -0.13707324371E+03  0.18725288355E+03  0.12509260319E+03 0.  0.
          5    1    3    3  502    0  0.85705029945E+01 -0.48512574353E+02 -0.14841478841E+03  0.15643319728E+03  0.41800000000E+01 0. -1.
         -5    1    3    3    0  502 -0.14694309230E+02  0.24245150069E+02  0.11341544700E+02  0.30819686270E+02  0.41800000000E+01 0. -1.
        -11    1    1    2    0    0 -0.38476046417E+02  0.39965666406E+01 -0.86312763393E+02  0.94584733532E+02  0.00000000000E+00 0.  1.
         11    1    1    2    0    0  0.44599852652E+02  0.20270857644E+02 -0.28452196695E+03  0.28870885716E+03  0.00000000000E+00 0. -1.
</event>
<event>
 7    1  0.2662384E-009  0.9990704E+02  0.7561462E-02  0.1280492E+00
         -1   -1    0    0    0  501 -0.00000000000E+00  0.00000000000E+00  0.96599604321E+02  0.96599604321E+02  0.00000000000E+00 0.  1.
          1   -1    0    0  501    0  0.00000000000E+00 -0.00000000000E+00 -0.20024311180E+03  0.20024311180E+03  0.00000000000E+00 0. -1.
         25    2    1    2    0    0  0.72001986903E+02  0.38380271808E+02 -0.89326867574E+02  0.17401926826E+03  0.12508431185E+03 0.  0.
          5    1    3    3  502    0  0.21350415274E+02 -0.22675401546E+02 -0.89205225590E+02  0.94578320667E+02  0.41800000000E+01 0.  1.
         -5    1    3    3    0  502  0.50651571630E+02  0.61055673354E+02 -0.12164198419E+00  0.79440947590E+02  0.41800000000E+01 0.  1.
        -11    1    1    2    0    0 -0.14129527508E+02 -0.26261390723E+02  0.34890739363E+02  0.45898451864E+02  0.00000000000E+00 0.  1.
         11    1    1    2    0    0 -0.57872459396E+02 -0.12118881085E+02 -0.49207379269E+02  0.76924996001E+02  0.00000000000E+00 0. -1.
</event>
<event>
 7    1  0.2440960E-009  0.2463193E+03  0.7561462E-02  0.1115653E+00
          2   -1    0    0  501    0  0.00000000000E+00  0.00000000000E+00  0.42704984953E+03  0.42704984953E+03  0.00000000000E+00 0. -1.
         -2   -1    0    0    0  501 -0.00000000000E+00 -0.00000000000E+00 -0.16990223981E+03  0.16990223981E+03  0.00000000000E+00 0.  1.
         25    2    1    2    0    0  0.77560891924E+02  0.21360775125E+03  0.21119935725E+03  0.33450811351E+03  0.12508615492E+03 0.  0.
          5    1    3    3  502    0  0.21047254421E+02  0.15249480880E+03  0.66966915305E+02  0.16792764446E+03  0.41800000000E+01 0. -1.
         -5    1    3    3    0  502  0.56513637503E+02  0.61112942450E+02  0.14423244195E+03  0.16658046905E+03  0.41800000000E+01 0. -1.
        -11    1    1    2    0    0 -0.99994358615E+02 -0.20997984834E+03  0.53218127694E+02  0.23858452921E+03  0.00000000000E+00 0. -1.
         11    1    1    2    0    0  0.22433466691E+02 -0.36279029061E+01 -0.72698752258E+01  0.23859446622E+02  0.00000000000E+00 0.  1.
</event>
<event>
 7    1  0.2440960E-009  0.9695137E+02  0.7561462E-02  0.1286841E+00
          2   -1    0    0  501    0  0.00000000000E+00  0.00000000000E+00  0.16350260189E+03  0.16350260189E+03  0.00000000000E+00 0.  1.
         -2   -1    0    0    0  501 -0.00000000000E+00 -0.00000000000E+00 -0.82014963093E+02  0.82014963093E+02  0.00000000000E+00 0. -1.
         25    2    1    2    0    0  0.40965181143E+02  0.46863756271E+00  0.61995168578E+02  0.14549761006E+03  0.12509111846E+03 0.  0.
          5    1    3    3  502    0  0.43328536725E+02  0.45685102289E+02  0.75180945225E+02  0.98153642779E+02  0.41800000000E+01 0. -1.
         -5    1    3    3    0  502 -0.23633555825E+01 -0.45216464726E+02 -0.13185776647E+02  0.47343967279E+02  0.41800000000E+01 0. -1.
        -11    1    1    2    0    0 -0.36353670798E+02 -0.35016357462E+02  0.35456437813E+02  0.61683820024E+02  0.00000000000E+00 0.  1.
         11    1    1    2    0    0 -0.46115103445E+01  0.34547719899E+02 -0.15963967593E+02  0.38336134902E+02  0.00000000000E+00 0. -1.
</event>
<event>
 7    1  0.2440960E-009  0.8778909E+02  0.7561462E-02  0.1308296E+00
          1   -1    0    0  501    0  0.00000000000E+00  0.00000000000E+00  0.90439159580E+03  0.90439159580E+03  0.00000000000E+00 0. -1.
         -1   -1    0    0    0  501 -0.00000000000E+00 -0.00000000000E+00 -0.15286145685E+02  0.15286145685E+02  0.00000000000E+00 0.  1.
         25    2    1    2    0    0 -0.43916056571E+02  0.12032899953E+02  0.46906669819E+03  0.48758956301E+03  0.12508638576E+03 0.  0.
          5    1    3    3  502    0  0.95340375034E+01 -0.11945619195E+02  0.38337889192E+03  0.38370619341E+03  0.41800000000E+01 0. -1.
         -5    1    3    3    0  502 -0.53450094075E+02  0.23978519149E+02  0.85687806265E+02  0.10388336960E+03  0.41800000000E+01 0. -1.
        -11    1    1    2    0    0  0.26809972988E+02  0.38916495201E+02  0.17929720376E+03  0.18542048303E+03  0.00000000000E+00 0.  1.
         11    1    1    2    0    0  0.17106083583E+02 -0.50949395154E+02  0.24074154818E+03  0.24666769545E+03  0.00000000000E+00 0. -1.
</event>
<event>
 7    1  0.2440960E-009  0.1003240E+03  0.7561462E-02  0.1279616E+00
          2   -1    0    0  501    0  0.00000000000E+00  0.00000000000E+00  0.97055543610E+03  0.97055543610E+03  0.00000000000E+00 0.  1.
         -2   -1    0    0    0  501 -0.00000000000E+00 -0.00000000000E+00 -0.29081920789E+02  0.29081920789E+02  0.00000000000E+00 0. -1.
         25    2    1    2    0    0  0.14642562764E+02  0.47455620052E+02  0.85300729585E+03  0.86355920115E+03  0.12508639655E+03 0.  0.
          5    1    3    3  502    0 -0.49480533283E+02  0.38072797004E+02  0.28129599075E+03  0.28817142096E+03  0.41800000000E+01 0.  1.
         -5    1    3    3    0  502  0.64123096047E+02  0.93828230481E+01  0.57171130509E+03  0.57538778019E+03  0.41800000000E+01 0.  1.
        -11    1    1    2    0    0 -0.21465635937E+02  0.34785954962E+01  0.81340729888E+02  0.84197318791E+02  0.00000000000E+00 0.  1.
         11    1    1    2    0    0  0.68230731738E+01 -0.50934215548E+02  0.71254895761E+01  0.51880836951E+02  0.00000000000E+00 0. -1.
</event>
<event>
 7    1  0.2440960E-009  0.1277026E+03  0.7561462E-02  0.1230905E+00
          2   -1    0    0  501    0  0.00000000000E+00  0.00000000000E+00  0.83615815952E+03  0.83615815952E+03  0.00000000000E+00 0. -1.
         -2   -1    0    0    0  501 -0.00000000000E+00 -0.00000000000E+00 -0.29935961529E+02  0.29935961529E+02  0.00000000000E+00 0.  1.
         25    2    1    2    0    0 -0.94759954497E+02 -0.10340857936E+02  0.60767071062E+03  0.62769076700E+03  0.12508246922E+03 0.  0.
          5    1    3    3  502    0 -0.75294241969E+02 -0.64544222873E+02  0.36653291203E+03  0.37973547053E+03  0.41800000000E+01 0.  1.
         -5    1    3    3    0  502 -0.19465712527E+02  0.54203364937E+02  0.24113779859E+03  0.24795529646E+03  0.41800000000E+01 0.  1.
        -11    1    1    2    0    0  0.74897019037E+02 -0.21652429856E+01  0.20127921058E+03  0.21477330455E+03  0.00000000000E+00 0. -1.
         11    1    1    2    0    0  0.19862935459E+02  0.12506100922E+02 -0.27277232105E+01  0.23630049497E+02  0.00000000000E+00 0.  1.
</event>
<event>
 7    1  0.2440960E-009  0.1874696E+03  0.7561462E-02  0.1160764E+00
         -2   -1    0    0    0  501 -0.00000000000E+00  0.00000000000E+00  0.12108313078E+03  0.12108313078E+03  0.00000000000E+00 0. -1.
          2   -1    0    0  501    0  0.00000000000E+00 -0.00000000000E+00 -0.31937420809E+03  0.31937420809E+03  0.00000000000E+00 0.  1.
         25    2    1    2    0    0 -0.11497446798E+03  0.11313865099E+03 -0.13313407543E+03  0.24370502125E+03  0.12509185707E+03 0.  0.
          5    1    3    3  502    0 -0.12582004291E+03  0.12922667574E+03 -0.13251480765E+03  0.22384785809E+03  0.41800000000E+01 0.  1.
         -5    1    3    3    0  502  0.10845574936E+02 -0.16088024755E+02 -0.61926777668E+00  0.19857163161E+02  0.41800000000E+01 0.  1.
        -11    1    1    2    0    0  0.58058065452E+02 -0.12995864972E+02  0.83962471895E+01  0.60084344361E+02  0.00000000000E+00 0. -1.
         11    1    1    2    0    0  0.56916402526E+02 -0.10014278602E+03 -0.73553249064E+02  0.13666797326E+03  0.00000000000E+00 0.  1.
</event>
<event>
 7    1  0.2440960E-009  0.7229982E+02  0.7561462E-02  0.1352443E+00
          2   -1    0    0  501    0  0.00000000000E+00  0.00000000000E+00  0.31214283225E+02  0.31214283225E+02  0.00000000000E+00 0. -1.
         -2   -1    0    0    0  501 -0.00000000000E+00 -0.00000000000E+00 -0.49012908880E+03  0.49012908880E+03  0.00000000000E+00 0.  1.
         25    2    1    2    0    0 -0.88055069257E+01  0.29937284612E+02 -0.36173469733E+03  0.38402672741E+03  0.12510299017E+03 0.  0.
          5    1    3    3  502    0  0.18301093107E+02  0.43279355283E+01  0.10625043144E+01  0.19294101437E+02  0.41800000000E+01 0.  1.
         -5    1    3    3    0  502 -0.27106600033E+02  0.25609349083E+02 -0.36279720164E+03  0.36473262597E+03  0.41800000000E+01 0.  1.
        -11    1    1    2    0    0  0.13054778908E+02 -0.57988177690E+02 -0.90327176345E+02  0.10812980528E+03  0.00000000000E+00 0.  1.
         11    1    1    2    0    0 -0.42492719828E+01  0.28050893079E+02 -0.68529319037E+01  0.29186839338E+02  0.00000000000E+00 0. -1.
</event>
<event>
 7    1  0.2440960E-009  0.1112879E+03  0.7561462E-02  0.1258203E+00
          1   -1    0    0  501    0  0.00000000000E+00  0.00000000000E+00  0.29915077962E+03  0.29915077962E+03  0.00000000000E+00 0. -1.
         -1   -1    0    0    0  501 -0.00000000000E+00 -0.00000000000E+00 -0.75958084284E+02  0.75958084284E+02  0.00000000000E+00 0.  1.
         25    2    1    2    0    0 -0.41278995284E+02 -0.70822084728E+02  0.34221847086E+02  0.15341733889E+03  0.12508405940E+03 0.  0.
          5    1    3    3  502    0 -0.80056115575E+02 -0.54729700866E+02  0.48974546126E+02  0.10872120477E+03  0.41800000000E+01 0. -1.
         -5    1    3    3    0  502  0.38777120290E+02 -0.16092383862E+02 -0.14752699040E+02  0.44696134121E+02  0.41800000000E+01 0. -1.
        -11    1    1    2    0    0  0.23537101037E+02  0.25781731245E+02  0.10035500658E+02  0.36323602033E+02  0.00000000000E+00 0.  1.
         11    1    1    2    0    0  0.17741894248E+02  0.45040353483E+02  0.17893534759E+03  0.18536792298E+03  0.00000000000E+00 0. -1.
</event>
<event>
 7    1  0.2440960E-009  0.1256086E+03  0.7561462E-02  0.1234121E+00
         -2   -1    0    0    0  501 -0.00000000000E+00  0.00000000000E+00  0.56700809450E+02  0.56700809450E+02  0.00000000000E+00 0.  1.
          2   -1    0    0  501    0  0.00000000000E+00 -0.00000000000E+00 -0.39619972211E+03  0.39619972211E+03  0.00000000000E+00 0. -1.
         25    2    1    2    0    0  0.17480023567E+02 -0.98118035401E+02 -0.14326190890E+03  0.21472190795E+03  0.12509525616E+03 0.  0.
          5    1    3    3  502    0 -0.12396703760E+02  0.22111623355E+02 -0.60353135934E+02  0.65594020829E+02  0.41800000000E+01 0.  1.
         -5    1    3    3    0  502  0.29876727327E+02 -0.12022965876E+03 -0.82908772969E+02  0.14912788712E+03  0.41800000000E+01 0.  1.
        -11    1    1    2    0    0 -0.21230216263E+02  0.68511108135E+02 -0.46460877750E+02  0.85458218924E+02  0.00000000000E+00 0.  1.
         11    1    1    2    0    0  0.37501926959E+01  0.29606927266E+02 -0.14977612601E+03  0.15272040469E+03  0.00000000000E+00 0. -1.
</event>
<event>
 7    1  0.2440960E-009  0.1151517E+03  0.7561462E-02  0.1251316E+00
          2   -1    0    0  501    0  0.00000000000E+00  0.00000000000E+00  0.12823239401E+03  0.12823239401E+03  0.00000000000E+00 0. -1.
         -2   -1    0    0    0  501 -0.00000000000E+00 -0.00000000000E+00 -0.14274359806E+03  0.14274359806E+03  0.00000000000E+00 0.  1.
         25    2    1    2    0    0  0.16341172684E+02  0.58353784804E+02 -0.61475017080E+02  0.15199851699E+03  0.12510864605E+03 0.  0.
          5    1    3    3  502    0 -0.46868919996E+02  0.41288269968E+02 -0.59493825369E+02  0.86362055068E+02  0.41800000000E+01 0.  1.
         -5    1    3    3    0  502  0.63210092680E+02  0.17065514836E+02 -0.19811917113E+01  0.65636461923E+02  0.41800000000E+01 0.  1.
        -11    1    1    2    0    0  0.29112514144E+02 -0.12892129147E+01  0.34171169420E+02  0.44909568794E+02  0.00000000000E+00 0. -1.
         11    1    1    2    0    0 -0.45453686828E+02 -0.57064571889E+02  0.12792643615E+02  0.74067906287E+02  0.00000000000E+00 0.  1.
</event>
<event>
 7    1  0.2440960E-009  0.1005680E+03  0.7561462E-02  0.1279106E+00
         -1   -1    0    0    0  501 -0.00000000000E+00  0.00000000000E+00  0.20719093950E+02  0.20719093950E+02  0.00000000000E+00 0.  1.
          1   -1    0    0  501    0  0.00000000000E+00 -0.00000000000E+00 -0.77393233517E+03  0.77393233517E+03  0.00000000000E+00 0. -1.
         25    2    1    2    0    0 -0.50849573248E+02  0.40246312314E+02 -0.44976550293E+03  0.47132239327E+03  0.12510134298E+03 0.  0.
          5    1    3    3  502    0 -0.43021604810E+02 -0.10056182413E+02 -0.39079046754E+03  0.39330223392E+03  0.41800000000E+01 0. -1.
         -5    1    3    3    0  502 -0.78279684383E+01  0.50302494727E+02 -0.58975035392E+02  0.78020159351E+02  0.41800000000E+01 0. -1.
        -11    1    1    2    0    0  0.38411995392E+02  0.20590734315E+02 -0.76543807676E+02  0.88081860921E+02  0.00000000000E+00 0.  1.
         11    1    1    2    0    0  0.12437577856E+02 -0.60837046629E+02 -0.22690393061E+03  0.23524717493E+03  0.00000000000E+00 0. -1.
</event>
<event>
 7    1  0.2528766E-009  0.1665713E+03  0.7561462E-02  0.1181471E+00
          1   -1    0    0  501    0  0.00000000000E+00  0.00000000000E+00  0.59808350582E+03  0.59808350582E+03  0.00000000000E+00 0.  1.
         -1   -1    0    0    0  501 -0.00000000000E+00 -0.00000000000E+00 -0.62410852617E+02  0.62410852617E+02  0.00000000000E+00 0. -1.
         25    2    1    2    0    0 -0.13981178363E+03 -0.25015849276E+02  0.15716310575E+03  0.24600875562E+03  0.12508772313E+03 0.  0.
          5    1    3    3  502    0  0.10833973007E+02 -0.48965068277E+01 -0.12801630158E+02  0.17963988559E+02  0.41800000000E+01 0.  1.
         -5    1    3    3    0  502 -0.15064575663E+03 -0.20119342449E+02  0.16996473591E+03  0.22804476706E+03  0.41800000000E+01 0.  1.
        -11    1    1    2    0    0  0.99567655728E+02 -0.26589633230E+02  0.24529044958E+03  0.26606039036E+03  0.00000000000E+00 0. -1.
         11    1    1    2    0    0  0.40244127899E+02  0.51605482506E+02  0.13321909788E+03  0.14842521246E+03  0.00000000000E+00 0.  1.
</event>
<event>
 7    1  0.2440960E-009  0.1353196E+03  0.7561462E-02  0.1219769E+00
         -1   -1    0    0    0  501 -0.00000000000E+00  0.00000000000E+00  0.20343438638E+03  0.20343438638E+03  0.00000000000E+00 0.  1.
          1   -1    0    0  501    0  0.00000000000E+00 -0.00000000000E+00 -0.12560695299E+03  0.12560695299E+03  0.00000000000E+00 0. -1.
         25    2    1    2    0    0 -0.11945267159E+03  0.11525367386E+02  0.84046121756E+02  0.19264412857E+03  0.12508491055E+03 0.  0.
          5    1    3    3  502    0 -0.12273295215E+03 -0.14742417465E+02  0.22770835446E+02  0.12576446145E+03  0.41800000000E+01 0. -1.
         -5    1    3    3    0  502  0.32802805656E+01  0.26267784851E+02  0.61275286310E+02  0.66879667119E+02  0.41800000000E+01 0. -1.
        -11    1    1    2    0    0  0.53683691976E+02 -0.22194668798E+01  0.29166884852E+02  0.61135685073E+02  0.00000000000E+00 0.  1.
         11    1    1    2    0    0  0.65768979612E+02 -0.93059005066E+01 -0.35385573220E+02  0.75261525733E+02  0.00000000000E+00 0. -1.
</event>
<event>
 7    1  0.2440960E-009  0.1107904E+03  0.7561462E-02  0.1259113E+00
          1   -1    0    0  501    0  0.00000000000E+00  0.00000000000E+00  0.15189542726E+03  0.15189542726E+03  0.00000000000E+00 0. -1.
         -1   -1    0    0    0  501 -0.00000000000E+00 -0.00000000000E+00 -0.96141858324E+02  0.96141858324E+02  0.00000000000E+00 0.  1.
         25    2    1    2    0    0 -0.31282045833E+02 -0.42223300283E+02  0.33678564113E+02  0.13979740285E+03  0.12509074580E+03 0.  0.
          5    1    3    3  502    0 -0.42452456275E+02 -0.72590418365E+02  0.55231760689E+02  0.10069557920E+03  0.41800000000E+01 0. -1.
         -5    1    3    3    0  502  0.11170410442E+02  0.30367118083E+02 -0.21553196575E+02  0.39101823649E+02  0.41800000000E+01 0. -1.
        -11    1    1    2    0    0  0.44898335058E+02  0.64537102549E+02  0.23515026188E+02  0.82060066738E+02  0.00000000000E+00 0. -1.
         11    1    1    2    0    0 -0.13616289225E+02 -0.22313802266E+02 -0.14400213671E+01  0.26179815992E+02  0.00000000000E+00 0.  1.
</event>
<event>
 7    1  0.2440960E-009  0.9327094E+02  0.7561462E-02  0.1295119E+00
          2   -1    0    0  501    0  0.00000000000E+00  0.00000000000E+00  0.88523176448E+02  0.88523176448E+02  0.00000000000E+00 0. -1.
         -2   -1    0    0    0  501 -0.00000000000E+00 -0.00000000000E+00 -0.13388099665E+03  0.13388099665E+03  0.00000000000E+00 0.  1.
         25    2    1    2    0    0 -0.70900524197E+01  0.64504922271E+01 -0.18687405204E+02  0.12684220198E+03  0.12509135621E+03 0.  0.
          5    1    3    3  502    0  0.29534791949E+02 -0.45374146032E+02 -0.30315802085E+02  0.62190331401E+02  0.41800000000E+01 0. -1.
         -5    1    3    3    0  502 -0.36624844369E+02  0.51824638260E+02  0.11628396882E+02  0.64651870583E+02  0.41800000000E+01 0. -1.
        -11    1    1    2    0    0  0.13357312158E+02 -0.36020082111E+02 -0.45809190660E+02  0.59785834880E+02  0.00000000000E+00 0.  1.
         11    1    1    2    0    0 -0.62672597382E+01  0.29569589884E+02  0.19138775657E+02  0.35776136239E+02  0.00000000000E+00 0. -1.
</event>
<event>
 7    1  0.2440960E-009  0.1190251E+03  0.7561462E-02  0.1244714E+00
         -2   -1    0    0    0  501 -0.00000000000E+00  0.00000000000E+00  0.13640379470E+03  0.13640379470E+03  0.00000000000E+00 0.  1.
          2   -1    0    0  501    0  0.00000000000E+00 -0.00000000000E+00 -0.18755452000E+03  0.18755452000E+03  0.00000000000E+00 0. -1.
         25    2    1    2    0    0  0.11524853192E+03  0.18485994105E+02 -0.21024592203E+02  0.17238258943E+03  0.12509903107E+03 0.  0.
          5    1    3    3  502    0  0.68495390949E+02  0.32481205174E+01  0.50655891478E+02  0.85356081268E+02  0.41800000000E+01 0.  1.
         -5    1    3    3    0  502  0.46753140971E+02  0.15237873587E+02 -0.71680483681E+02  0.87026508162E+02  0.41800000000E+01 0.  1.
        -11    1    1    2    0    0 -0.80799410754E+02 -0.25729362208E+02  0.22985524853E+02  0.87857152302E+02  0.00000000000E+00 0.  1.
         11    1    1    2    0    0 -0.34449121165E+02  0.72433681028E+01 -0.53111657953E+02  0.63718572968E+02  0.00000000000E+00 0. -1.
</event>
<event>
 7    1  0.2440960E-009  0.7900936E+02  0.7561462E-02  0.1331886E+00
         -2   -1    0    0    0  501 -0.00000000000E+00  0.00000000000E+00  0.20941598642E+02  0.20941598642E+02  0.00000000000E+00 0.  1.
          2   -1    0    0  501    0  0.00000000000E+00 -0.00000000000E+00 -0.71176301688E+03  0.71176301688E+03  0.00000000000E+00 0. -1.
         25    2    1    2    0    0 -0.26285803207E+02 -0.10223520460E+02 -0.53684358371E+03  0.55194447159E+03  0.12508478138E+03 0.  0.
          5    1    3    3  502    0 -0.47822563780E+02 -0.27924154763E+01 -0.72341292141E+02  0.86865011019E+02  0.41800000000E+01 0.  1.
         -5    1    3    3    0  502  0.21536760572E+02 -0.74311049842E+01 -0.46450229157E+03  0.46507946058E+03  0.41800000000E+01 0.  1.
        -11    1    1    2    0    0  0.50076236911E+02  0.27721420504E+02 -0.63043254375E+02  0.85150211862E+02  0.00000000000E+00 0.  1.
         11    1    1    2    0    0 -0.23790433704E+02 -0.17497900044E+02 -0.90934580151E+02  0.95609932062E+02  0.00000000000E+00 0. -1.
</event>
<event>
 7    1  0.2440960E-009  0.1180057E+03  0.7561462E-02  0.1246424E+00
          2   -1    0    0  501    0  0.00000000000E+00  0.00000000000E+00  0.80023301004E+03  0.80023301004E+03  0.00000000000E+00 0.  1.
         -2   -1    0    0    0  501 -0.00000000000E+00 -0.00000000000E+00 -0.23423006838E+02  0.23423006838E+02  0.00000000000E+00 0. -1.
         25    2    1    2    0    0  0.26680563532E+02 -0.69915465558E+02  0.50862373438E+03  0.52909903308E+03  0.12509060249E+03 0.  0.
          5    1    3    3  502    0 -0.44724650458E+02 -0.53396024098E+02  0.19856650913E+03  0.21046985698E+03  0.41800000000E+01 0.  1.
         -5    1    3    3    0  502  0.71405213991E+02 -0.16519441461E+02  0.31005722525E+03  0.31862917610E+03  0.41800000000E+01 0.  1.
        -11    1    1    2    0    0 -0.37717179352E+02  0.22023210887E+02  0.34222359927E+02  0.55486731342E+02  0.00000000000E+00 0.  1.
         11    1    1    2    0    0  0.11036615820E+02  0.47892254671E+02  0.23396390889E+03  0.23907025246E+03  0.00000000000E+00 0. -1.
</event>
<event>
 7    1  0.2440960E-009  0.2423259E+03  0.7561462E-02  0.1118253E+00
         -2   -1    0    0    0  501 -0.00000000000E+00  0.00000000000E+00  0.23012902293E+03  0.23012902293E+03  0.00000000000E+00 0.  1.
          2   -1    0    0  501    0  0.00000000000E+00 -0.00000000000E+00 -0.35487569187E+03  0.35487569187E+03  0.00000000000E+00 0. -1.
         25    2    1    2    0    0  0.21900864182E+03  0.82375320137E+02 -0.18864654931E+03  0.32555552218E+03  0.12509356057E+03 0.  0.
          5    1    3    3  502    0  0.22955602601E+02  0.23426058936E+02  0.15405664205E+02  0.36476661273E+02  0.41800000000E+01 0. -1.
         -5    1    3    3    0  502  0.19605303922E+03  0.58949261201E+02 -0.20405221351E+03  0.28907886091E+03  0.41800000000E+01 0. -1.
        -11    1    1    2    0    0 -0.19788421244E+03 -0.43547380486E+02  0.32452235374E+02  0.20520156789E+03  0.00000000000E+00 0.  1.
         11    1    1    2    0    0 -0.21124429377E+02 -0.38827939651E+02  0.31447644996E+02  0.54247624739E+02  0.00000000000E+00 0. -1.
</event>
<event>
 7    1  0.2440960E-009  0.8023358E+02  0.7561462E-02  0.1328390E+00
         -2   -1    0    0    0  501 -0.00000000000E+00  0.00000000000E+00  0.24735086658E+02  0.24735086658E+02  0.00000000000E+00 0.  1.
          2   -1    0    0  501    0  0.00000000000E+00 -0.00000000000E+00 -0.50409385784E+03  0.50409385784E+03  0.00000000000E+00 0. -1.
         25    2    1    2    0    0 -0.15478139111E+02  0.40627181848E+01 -0.23188972494E+03  0.26396585769E+03  0.12509616711E+03 0.  0.
          5    1    3    3  502    0 -0.41305749207E+02 -0.15196025397E+02 -0.22681605113E+03  0.23108456797E+03  0.41800000000E+01 0.  1.
         -5    1    3    3    0  502  0.25827610096E+02  0.19258743581E+02 -0.50736738069E+01  0.32881289718E+02  0.41800000000E+01 0.  1.
        -11    1    1    2    0    0 -0.29364743973E+02  0.17317007622E+02 -0.16582194798E+03  0.16928994469E+03  0.00000000000E+00 0. -1.
         11    1    1    2    0    0  0.44842883084E+02 -0.21379725807E+02 -0.81647098271E+02  0.95573142122E+02  0.00000000000E+00 0.  1.
</event>
<event>
 7    1  0.2440960E-009  0.8311728E+02  0.7561462E-02  0.1320431E+00
         -2   -1    0    0    0  501 -0.00000000000E+00  0.00000000000E+00  0.81546883845E+02  0.81546883845E+02  0.00000000000E+00 0.  1.
          2   -1    0    0  501    0  0.00000000000E+00 -0.00000000000E+00 -0.56768632284E+03  0.56768632284E+03  0.00000000000E+00 0. -1.
         25    2    1    2    0    0  0.52807082220E+02  0.14451964193E+02 -0.52423513582E+03  0.54172615315E+03  0.12508916890E+03 0.  0.
          5    1    3    3  502    0 -0.29621946695E+01 -0.30248954400E+02 -0.32073110635E+02  0.44383900970E+02  0.41800000000E+01 0. -1.
         -5    1    3    3    0  502  0.55769276890E+02  0.44700918594E+02 -0.49216202519E+03  0.49734225218E+03  0.41800000000E+01 0. -1.
        -11    1    1    2    0    0 -0.30014333596E+02 -0.24793690016E+02 -0.20349301030E+02  0.43928138342E+02  0.00000000000E+00 0. -1.
         11    1    1    2    0    0 -0.22792748624E+02  0.10341725822E+02  0.58444997855E+02  0.63578915193E+02  0.00000000000E+00 0.  1.
</event>
<event>
 7    1  0.2440960E-009  0.1062591E+03  0.7561462E-02  0.1267659E+00
         -2   -1    0    0    0  501 -0.00000000000E+00  0.00000000000E+00  0.15509267628E+03  0.15509267628E+03  0.00000000000E+00 0.  1.
          2   -1    0    0  501    0  0.00000000000E+00 -0.00000000000E+00 -0.22912748866E+03  0.22912748866E+03  0.00000000000E+00 0. -1.
         25    2    1    2    0    0  0.28569506242E+02 -0.77511931059E+02  0.92886562827E+02  0.17635283751E+03  0.12509234030E+03 0.  0.
          5    1    3    3  502    0  0.37221307082E+02 -0.52315761168E+02 -0.14228102637E+02  0.65895947312E+02  0.41800000000E+01 0.  1.
         -5    1    3    3    0  502 -0.86518008392E+01 -0.25196169891E+02  0.10711466546E+03  0.11045689020E+03  0.41800000000E+01 0.  1.
        -11    1    1    2    0    0 -0.44184675223E+02  0.21382989370E+01 -0.41185081392E+02  0.60440621904E+02  0.00000000000E+00 0.  1.
         11    1    1    2    0    0  0.15615168980E+02  0.75373632122E+02 -0.12573629382E+03  0.14742670553E+03  0.00000000000E+00 0. -1.
</event>
<event>
 7    1  0.2660682E-009  0.1100498E+03  0.7561462E-02  0.1260478E+00
          1   -1    0    0  501    0  0.00000000000E+00  0.00000000000E+00  0.33196000789E+03  0.33196000789E+03  0.00000000000E+00 0. -1.
         -1   -1    0    0    0  501 -0.00000000000E+00 -0.00000000000E+00 -0.54368242185E+02  0.54368242185E+02  0.00000000000E+00 0.  1.
         25    2    1    2    0    0 -0.66874425665E+02  0.60377699420E+01  0.93146832381E+02  0.16980259621E+03  0.12509174963E+03 0.  0.
          5    1    3    3  502    0 -0.90780136058E+02 -0.19289831270E+02  0.97242267480E+02  0.13448665985E+03  0.41800000000E+01 0. -1.
         -5    1    3    3    0  502  0.23905710393E+02  0.25327601212E+02 -0.40954350988E+01  0.35315936363E+02  0.41800000000E+01 0. -1.
        -11    1    1    2    0    0  0.53447022782E+02  0.24474944473E+02  0.47486195675E+02  0.75568154211E+02  0.00000000000E+00 0.  1.
         11    1    1    2    0    0  0.13427402883E+02 -0.30512714415E+02  0.13695873765E+03  0.14095749965E+03  0.00000000000E+00 0. -1.
</event>
<event>
 7    1  0.2440960E-009  0.7605689E+02  0.7561462E-02  0.1340629E+00
          2   -1    0    0  501    0  0.00000000000E+00  0.00000000000E+00  0.23150282732E+03  0.23150282732E+03  0.00000000000E+00 0. -1.
         -2   -1    0    0    0  501 -0.00000000000E+00 -0.00000000000E+00 -0.60492848633E+02  0.60492848633E+02  0.00000000000E+00 0.  1.
         25    2    1    2    0    0 -0.30654777720E+02 -0.20362564673E+02  0.56599751462E+02  0.14214657571E+03  0.12509103758E+03 0.  0.
          5    1    3    3  502    0 -0.23498133934E+02 -0.43549519106E+02  0.88720454582E+02  0.10167356773E+03  0.41800000000E+01 0.  1.
         -5    1    3    3    0  502 -0.71566437860E+01  0.23186954433E+02 -0.32120703120E+02  0.40473007982E+02  0.41800000000E+01 0.  1.
        -11    1    1    2    0    0 -0.13924801834E+02  0.29229096665E+02  0.95107744274E+02  0.10046752320E+03  0.00000000000E+00 0. -1.
         11    1    1    2    0    0  0.44579579553E+02 -0.88665319926E+01  0.19302482947E+02  0.49381577037E+02  0.00000000000E+00 0.  1.
</event>
<event>
 7    1  0.2440960E-009  0.1419037E+03  0.7561462E-02  0.1210790E+00
         -1   -1    0    0    0  501 -0.00000000000E+00  0.00000000000E+00  0.87430549132E+02  0.87430549132E+02  0.00000000000E+00 0.  1.
          1   -1    0    0  501    0  0.00000000000E+00 -0.00000000000E+00 -0.27402235765E+03  0.27402235765E+03  0.00000000000E+00 0. -1.
         25    2    1    2    0    0  0.10538378580E+03 -0.32516797520E+02 -0.92154499274E+02  0.19053094494E+03  0.12508598967E+03 0.  0.
          5    1    3    3  502    0  0.76622698141E+02 -0.67073728572E+02 -0.10213463752E+03  0.14428748912E+03  0.41800000000E+01 0.  1.
         -5    1    3    3    0  502  0.28761087662E+02  0.34556931052E+02  0.99801382435E+01  0.46243455824E+02  0.41800000000E+01 0.  1.
        -11    1    1    2    0    0  0.11088852452E+02  0.15452008785E+02  0.14790417607E+01  0.19076550756E+02  0.00000000000E+00 0.  1.
         11    1    1    2    0    0 -0.11647263826E+03  0.17064788735E+02 -0.95916351001E+02  0.15184541108E+03  0.00000000000E+00 0. -1.
</event>
<event>
 7    1  0.2440960E-009  0.1309812E+03  0.7561462E-02  0.1226007E+00
          2   -1    0    0  501    0  0.00000000000E+00  0.00000000000E+00  0.12360678067E+04  0.12360678067E+04  0.00000000000E+00 0. -1.
         -2   -1    0    0    0  501 -0.00000000000E+00 -0.00000000000E+00 -0.17060416047E+02  0.17060416047E+02  0.00000000000E+00 0.  1.
         25    2    1    2    0    0  0.88017827192E+02  0.60693542771E+01  0.84220217726E+03  0.85600021305E+03  0.12509149604E+03 0.  0.
          5    1    3    3  502    0  0.28761219807E+02 -0.50023598519E+02  0.18757463976E+03  0.19629387676E+03  0.41800000000E+01 0.  1.
         -5    1    3    3    0  502  0.59256607386E+02  0.56092952796E+02  0.65462753751E+03  0.65970633629E+03  0.41800000000E+01 0.  1.
        -11    1    1    2    0    0 -0.52961801387E+02  0.38664206536E+02  0.24433066438E+03  0.25297696897E+03  0.00000000000E+00 0. -1.
         11    1    1    2    0    0 -0.35056025806E+02 -0.44733560813E+02  0.13247454900E+03  0.14415104072E+03  0.00000000000E+00 0.  1.
</event>
<event>
 7    1  0.2440960E-009  0.9700249E+02  0.7561462E-02  0.1286729E+00
         -2   -1    0    0    0  501 -0.00000000000E+00  0.00000000000E+00  0.38294660853E+02  0.38294660853E+02  0.00000000000E+00 0. -1.
          2   -1    0    0  501    0  0.00000000000E+00 -0.00000000000E+00 -0.50390278462E+03  0.50390278462E+03  0.00000000000E+00 0.  1.
         25    2    1    2    0    0 -0.24303937958E+02  0.73349255453E+02 -0.18197945788E+03  0.23395469412E+03  0.12508989222E+03 0.  0.
          5    1    3    3  502    0  0.21635971326E+02  0.57138465646E+02 -0.17393635938E+03  0.18440241057E+03  0.41800000000E+01 0. -1.
         -5    1    3    3    0  502 -0.45939909284E+02  0.16210789806E+02 -0.80430985017E+01  0.49552283546E+02  0.41800000000E+01 0. -1.
        -11    1    1    2    0    0  0.59668059230E+01 -0.62037814094E+02 -0.27942508088E+03  0.28629123105E+03  0.00000000000E+00 0.  1.
         11    1    1    2    0    0  0.18337132035E+02 -0.11311441358E+02 -0.42035850096E+01  0.21951520307E+02  0.00000000000E+00 0. -1.
</event>
<event>
 7    1  0.2440960E-009  0.1269605E+03  0.7561462E-02  0.1232037E+00
         -1   -1    0    0    0  501 -0.00000000000E+00  0.00000000000E+00  0.17277971158E+03  0.17277971158E+03  0.00000000000E+00 0. -1.
          1   -1    0    0  501    0  0.00000000000E+00 -0.00000000000E+00 -0.97632163420E+02  0.97632163420E+02  0.00000000000E+00 0.  1.
         25    2    1    2    0    0  0.27223276171E+02 -0.65716957645E+02  0.43953524613E+02  0.15046209207E+03  0.12508838290E+03 0.  0.
          5    1    3    3  502    0  0.41467589951E+02 -0.97151883271E+02  0.18368701663E+02  0.10729832729E+03  0.41800000000E+01 0.  1.
         -5    1    3    3    0  502 -0.14244313780E+02  0.31434925626E+02  0.25584822950E+02  0.43163764775E+02  0.41800000000E+01 0.  1.
        -11    1    1    2    0    0 -0.56490306282E+02  0.62105286271E+02  0.33455462219E+02  0.90374162452E+02  0.00000000000E+00 0.  1.
         11    1    1    2    0    0  0.29267030111E+02  0.36116713743E+01 -0.22614386743E+01  0.29575620476E+02  0.00000000000E+00 0. -1.
</event>
<event>
 7    1  0.2440960E-009  0.1037685E+03  0.7561462E-02  0.1272565E+00
          1   -1    0    0  501    0  0.00000000000E+00  0.00000000000E+00  0.21141071547E+03  0.21141071547E+03  0.00000000000E+00 0. -1.
         -1   -1    0    0    0  501 -0.00000000000E+00 -0.00000000000E+00 -0.81900170181E+02  0.81900170181E+02  0.00000000000E+00 0.  1.
         25    2    1    2    0    0  0.63854710632E+02  0.41891019092E+02  0.11065155158E+03  0.18364109919E+03  0.12509198973E+03 0.  0.
          5    1    3    3  502    0 -0.23815394663E+02 -0.13143489282E+02 -0.54331041850E+01  0.28052011596E+02  0.41800000000E+01 0.  1.
         -5    1    3    3    0  502  0.87670105295E+02  0.55034508374E+02  0.11608465577E+03  0.15558908760E+03  0.41800000000E+01 0.  1.
        -11    1    1    2    0    0 -0.54150420690E+02 -0.34310493471E+02 -0.21389625170E+02  0.67579538974E+02  0.00000000000E+00 0.  1.
         11    1    1    2    0    0 -0.97042899418E+01 -0.75805256217E+01  0.40248618871E+02  0.42090247481E+02  0.00000000000E+00 0. -1.
</event>
<event>
 7    1  0.2440960E-009  0.1361018E+03  0.7561462E-02  0.1218673E+00
          2   -1    0    0  501    0  0.00000000000E+00  0.00000000000E+00  0.66105122179E+02  0.66105122179E+02  0.00000000000E+00 0. -1.
         -2   -1    0    0    0  501 -0.00000000000E+00 -0.00000000000E+00 -0.49004325320E+03  0.49004325320E+03  0.00000000000E+00 0.  1.
         25    2    1    2    0    0 -0.10032747951E+03  0.39587218090E+02 -0.36828521692E+03  0.40362628036E+03  0.12508965669E+03 0.  0.
          5    1    3    3  502    0 -0.11376711410E+03  0.31206136516E+02 -0.36880645077E+03  0.38723694263E+03  0.41800000000E+01 0.  1.
         -5    1    3    3    0  502  0.13439634593E+02  0.83810815737E+01  0.52123385241E+00  0.16389337725E+02  0.41800000000E+01 0.  1.
        -11    1    1    2    0    0  0.64940735302E+02  0.20453934752E+02 -0.45988019376E+02  0.82161794494E+02  0.00000000000E+00 0.  1.
         11    1    1    2    0    0  0.35386744206E+02 -0.60041152842E+02 -0.96648947214E+01  0.70360300526E+02  0.00000000000E+00 0. -1.
</event>
<event>
 7    1  0.2440960E-009  0.2389454E+03  0.7561462E-02  0.1120497E+00
         -1   -1    0    0    0  501 -0.00000000000E+00  0.00000000000E+00  0.11269616902E+03  0.11269616902E+03  0.00000000000E+00 0.  1.
          1   -1    0    0  501    0  0.00000000000E+00 -0.00000000000E+00 -0.12087866738E+04  0.12087866738E+04  0.00000000000E+00 0. -1.
         25    2    1    2    0    0  0.17548050744E+03  0.14875312087E+03 -0.10358727524E+04  0.10684569695E+04  0.12508811716E+03 0.  0.
          5    1    3    3  502    0  0.73668774263E+02  0.82298133135E+02 -0.25165513231E+03  0.27485968973E+03  0.41800000000E+01 0.  1.
         -5    1    3    3    0  502  0.10181173317E+03  0.66454987738E+02 -0.78421762009E+03  0.79359727978E+03  0.41800000000E+01 0.  1.
        -11    1    1    2    0    0 -0.15815325411E+03 -0.84814316640E+02 -0.41696044678E+02  0.18424027854E+03  0.00000000000E+00 0.  1.
         11    1    1    2    0    0 -0.17327253325E+02 -0.63938804232E+02 -0.18521707721E+02  0.68785594796E+02  0.00000000000E+00 0. -1.
</event>
<event>
 7    1  0.2440960E-009  0.1726407E+03  0.7561462E-02  0.1175122E+00
          2   -1    0    0  501    0  0.00000000000E+00  0.00000000000E+00  0.41855659689E+03  0.41855659689E+03  0.00000000000E+00 0. -1.
         -2   -1    0    0    0  501 -0.00000000000E+00 -0.00000000000E+00 -0.10076215726E+03  0.10076215726E+03  0.00000000000E+00 0.  1.
         25    2    1    2    0    0 -0.16232822935E+03 -0.32747923895E+02  0.24014488159E+03  0.31739432651E+03  0.12508682498E+03 0.  0.
          5    1    3    3  502    0 -0.17975800503E+02 -0.11799263142E+02 -0.12803541080E+02  0.25372328994E+02  0.41800000000E+01 0.  1.
         -5    1    3    3    0  502 -0.14435242885E+03 -0.20948660753E+02  0.25294842267E+03  0.29202199752E+03  0.41800000000E+01 0.  1.
        -11    1    1    2    0    0  0.24940626143E+02  0.31345751961E+02  0.45876747350E+02  0.60903751492E+02  0.00000000000E+00 0. -1.
         11    1    1    2    0    0  0.13738760321E+03  0.14021719340E+01  0.31772810681E+02  0.14102067615E+03  0.00000000000E+00 0.  1.
</event>
<event>
 7    1  0.2440960E-009  0.8806249E+02  0.7561462E-02  0.1307613E+00
          1   -1    0    0  501    0  0.00000000000E+00  0.00000000000E+00  0.28745280960E+02  0.28745280960E+02  0.00000000000E+00 0. -1.
         -1   -1    0    0    0  501 -0.00000000000E+00 -0.00000000000E+00 -0.40986117561E+03  0.40986117561E+03  0.00000000000E+00 0.  1.
         25    2    1    2    0    0  0.10336977226E+02  0.25444642962E+02 -0.20747122104E+03  0.24381955238E+03  0.12509749641E+03 0.  0.
          5    1    3    3  502    0  0.48498051473E+02  0.27207392060E-01 -0.23274510828E+02  0.53955880043E+02  0.41800000000E+01 0. -1.
         -5    1    3    3    0  502 -0.38161074247E+02  0.25417435570E+02 -0.18419671022E+03  0.18986367234E+03  0.41800000000E+01 0. -1.
        -11    1    1    2    0    0 -0.43184434512E+02 -0.70421363447E+01 -0.12989568158E+03  0.13706704623E+03  0.00000000000E+00 0.  1.
         11    1    1    2    0    0  0.32847457286E+02 -0.18402506618E+02 -0.43748992027E+02  0.57719857964E+02  0.00000000000E+00 0. -1.
</event>
<event>
 7    1  0.2440960E-009  0.1591601E+03  0.7561462E-02  0.1189648E+00
         -1   -1    0    0    0  501 -0.00000000000E+00  0.00000000000E+00  0.31934776236E+03  0.31934776236E+03  0.00000000000E+00 0.  1.
          1   -1    0    0  501    0  0.00000000000E+00 -0.00000000000E+00 -0.10683283984E+03  0.10683283984E+03  0.00000000000E+00 0. -1.
         25    2    1    2    0    0 -0.91831149977E+02 -0.10141626424E+03  0.42381769700E+02  0.19016389787E+03  0.12509146610E+03 0.  0.
          5    1    3    3  502    0 -0.26275648069E+01 -0.90686122851E+02  0.20128145611E+00  0.90820646820E+02  0.41800000000E+01 0. -1.
         -5    1    3    3    0  502 -0.89203585170E+02 -0.10730141394E+02  0.42180488244E+02  0.99343251054E+02  0.41800000000E+01 0. -1.
        -11    1    1    2    0    0  0.29736954433E+02  0.23366519412E+02  0.11710215593E+03  0.12305769221E+03  0.00000000000E+00 0.  1.
         11    1    1    2    0    0  0.62094195544E+02  0.78049744832E+02  0.53030996892E+02  0.11295901212E+03  0.00000000000E+00 0. -1.
</event>
<event>
 7    1  0.2440960E-009  0.1002965E+03  0.7561462E-02  0.1279674E+00
         -2   -1    0    0    0  501 -0.00000000000E+00  0.00000000000E+00  0.28284037507E+02  0.28284037507E+02  0.00000000000E+00 0. -1.
          2   -1    0    0  501    0  0.00000000000E+00 -0.00000000000E+00 -0.43961218169E+03  0.43961218169E+03  0.00000000000E+00 0.  1.
         25    2    1    2    0    0 -0.26022792257E+02  0.10221716285E+01 -0.23462064720E+03  0.26715764793E+03  0.12509248660E+03 0.  0.
          5    1    3    3  502    0 -0.18467289416E+01  0.54997392683E+02 -0.54630096596E+02  0.77653354491E+02  0.41800000000E+01 0. -1.
         -5    1    3    3    0  502 -0.24176063316E+02 -0.53975221054E+02 -0.17999055060E+03  0.18950429344E+03  0.41800000000E+01 0. -1.
        -11    1    1    2    0    0  0.14861589387E+02  0.40489302032E+02 -0.13134070064E+03  0.13824120248E+03  0.00000000000E+00 0.  1.
         11    1    1    2    0    0  0.11161202870E+02 -0.41511473660E+02 -0.45366796350E+02  0.62497368793E+02  0.00000000000E+00 0. -1.
</event>
<event>
 7    1  0.2440960E-009  0.3009314E+03  0.7561462E-02  0.1084776E+00
          2   -1    0    0  501    0  0.00000000000E+00  0.00000000000E+00  0.32740868637E+03  0.32740868637E+03  0.00000000000E+00 0.  1.
         -2   -1    0    0    0  501 -0.00000000000E+00 -0.00000000000E+00 -0.30055443988E+03  0.30055443988E+03  0.00000000000E+00 0. -1.
         25    2    1    2    0    0  0.29160656262E+03 -0.26618125421E+02 -0.12884817879E+02  0.31867892790E+03  0.12508928249E+03 0.  0.
          5    1    3    3  502    0  0.10191832506E+03  0.30835033961E+02 -0.48807516593E+02  0.11720832043E+03  0.41800000000E+01 0. -1.
         -5    1    3    3    0  502  0.18968823756E+03 -0.57453159382E+02  0.35922698713E+02  0.20147060747E+03  0.41800000000E+01 0. -1.
        -11    1    1    2    0    0 -0.90141401134E+02 -0.14885354659E+02  0.48430605686E+02  0.10340488165E+03  0.00000000000E+00 0.  1.
         11    1    1    2    0    0 -0.20146516149E+03  0.41503480080E+02 -0.86915413215E+01  0.20587931670E+03  0.00000000000E+00 0. -1.
</event>
<event>
 7    1  0.2440960E-009  0.1121891E+03  0.7561462E-02  0.1256569E+00
         -1   -1    0    0    0  501 -0.00000000000E+00  0.00000000000E+00  0.14205371430E+03  0.14205371430E+03  0.00000000000E+00 0.  1.
          1   -1    0    0  501    0  0.00000000000E+00 -0.00000000000E+00 -0.14498210563E+03  0.14498210563E+03  0.00000000000E+00 0. -1.
         25    2    1    2    0    0  0.41606916258E+02 -0.40837622020E+02  0.70706151447E+02  0.15506755222E+03  0.12509092312E+03 0.  0.
          5    1    3    3  502    0  0.61577879576E+02  0.80633540837E+01 -0.52396166931E+01  0.62464221081E+02  0.41800000000E+01 0.  1.
         -5    1    3    3    0  502 -0.19970963318E+02 -0.48900976104E+02  0.75945768140E+02  0.92603331140E+02  0.41800000000E+01 0.  1.
        -11    1    1    2    0    0 -0.64587182184E+02  0.52632501621E+02 -0.60678479256E+02  0.10307066593E+03  0.00000000000E+00 0. -1.
         11    1    1    2    0    0  0.22980265926E+02 -0.11794879601E+02 -0.12956063528E+02  0.28897601786E+02  0.00000000000E+00 0.  1.
</event>
<event>
 7    1  0.2440960E-009  0.8434252E+02  0.7561462E-02  0.1317161E+00
         -1   -1    0    0    0  501 -0.00000000000E+00  0.00000000000E+00  0.24852662299E+02  0.24852662299E+02  0.00000000000E+00 0.  1.
          1   -1    0    0  501    0  0.00000000000E+00 -0.00000000000E+00 -0.61514666995E+03  0.61514666995E+03  0.00000000000E+00 0. -1.
         25    2    1    2    0    0  0.44333927760E+02 -0.37479337551E+02 -0.35235005102E+03  0.37837566418E+03  0.12508951553E+03 0.  0.
          5    1    3    3  502    0  0.25471465451E+02 -0.32302584943E+02 -0.35570019153E+03  0.35809544985E+03  0.41800000000E+01 0.  1.
         -5    1    3    3    0  502  0.18862462309E+02 -0.51767526077E+01  0.33501405114E+01  0.20280214332E+02  0.41800000000E+01 0.  1.
        -11    1    1    2    0    0  0.25719525501E+02  0.25586254299E+02 -0.10145941140E+03  0.10775046433E+03  0.00000000000E+00 0. -1.
         11    1    1    2    0    0 -0.70053453260E+02  0.11893083251E+02 -0.13648454523E+03  0.15387320374E+03  0.00000000000E+00 0.  1.
</event>
<event>
 7    1  0.2440960E-009  0.9059378E+02  0.7561462E-02  0.1301420E+00
         -1   -1    0    0    0  501 -0.00000000000E+00  0.00000000000E+00  0.27677707022E+02  0.27677707022E+02  0.00000000000E+00 0.  1.
          1   -1    0    0  501    0  0.00000000000E+00 -0.00000000000E+00 -0.61772670251E+03  0.61772670251E+03  0.00000000000E+00 0. -1.
         25    2    1    2    0    0 -0.49707090201E+02  0.45527822971E+02 -0.26037635396E+03  0.29662911024E+03  0.12509758535E+03 0.  0.
          5    1    3    3  502    0 -0.41775032508E+02  0.25162877958E+02 -0.16372154237E+02  0.51612436510E+02  0.41800000000E+01 0. -1.
         -5    1    3    3    0  502 -0.79320576927E+01  0.20364945013E+02 -0.24400419972E+03  0.24501667373E+03  0.41800000000E+01 0. -1.
        -11    1    1    2    0    0  0.66081065426E+02 -0.59151961609E+02 -0.22284750289E+03  0.23984718326E+03  0.00000000000E+00 0. -1.
         11    1    1    2    0    0 -0.16373975225E+02  0.13624138638E+02 -0.10682513864E+03  0.10892811604E+03  0.00000000000E+00 0.  1.
</event>
<event>
 7    1  0.2440960E-009  0.1164695E+03  0.7561462E-02  0.1249038E+00
          2   -1    0    0  501    0  0.00000000000E+00  0.00000000000E+00  0.15706713583E+03  0.15706713583E+03  0.00000000000E+00 0. -1.
         -2   -1    0    0    0  501 -0.00000000000E+00 -0.00000000000E+00 -0.95493993811E+02  0.95493993811E+02  0.00000000000E+00 0.  1.
         25    2    1    2    0    0  0.39938829445E+02 -0.41214230165E+02  0.30869226582E+02  0.14104590674E+03  0.12508923132E+03 0.  0.
          5    1    3    3  502    0  0.67192708750E+01 -0.83396160396E+02  0.18526877737E+02  0.85795021817E+02  0.41800000000E+01 0.  1.
         -5    1    3    3    0  502  0.33219558570E+02  0.42181930232E+02  0.12342348845E+02  0.55250884922E+02  0.41800000000E+01 0.  1.
        -11    1    1    2    0    0  0.64762530534E+01  0.47973666313E+02  0.41064417086E+02  0.63479924888E+02  0.00000000000E+00 0. -1.
         11    1    1    2    0    0 -0.46415082498E+02 -0.67594361483E+01 -0.10360501653E+02  0.48035298010E+02  0.00000000000E+00 0.  1.
</event>
<event>
 7    1  0.2440960E-009  0.1313522E+03  0.7561462E-02  0.1225463E+00
          1   -1    0    0  501    0  0.00000000000E+00  0.00000000000E+00  0.22682703069E+03  0.22682703069E+03  0.00000000000E+00 0. -1.
         -1   -1    0    0    0  501 -0.00000000000E+00 -0.00000000000E+00 -0.10416889412E+03  0.10416889412E+03  0.00000000000E+00 0.  1.
         25    2    1    2    0    0  0.10065001106E+03  0.23641446441E+01  0.22601376399E+02  0.16215506968E+03  0.12508968982E+03 0.  0.
          5    1    3    3  502    0  0.76151145627E+02  0.53375300163E+02  0.42085748764E+02  0.10215969018E+03  0.41800000000E+01 0.  1.
         -5    1    3    3    0  502  0.24498865436E+02 -0.51011155518E+02 -0.19484372365E+02  0.59995379501E+02  0.41800000000E+01 0.  1.
        -11    1    1    2    0    0 -0.84280985754E+02  0.18566434102E+02  0.25956662072E+02  0.90120726478E+02  0.00000000000E+00 0.  1.
         11    1    1    2    0    0 -0.16369025309E+02 -0.20930578747E+02  0.74100098098E+02  0.78720128648E+02  0.00000000000E+00 0. -1.
</event>
<event>
 7    1  0.2440960E-009  0.1834717E+03  0.7561462E-02  0.1164485E+00
         -2   -1    0    0    0  501 -0.00000000000E+00  0.00000000000E+00  0.16935151738E+02  0.16935151738E+02  0.00000000000E+00 0.  1.
          2   -1    0    0  501    0  0.00000000000E+00 -0.00000000000E+00 -0.21664069016E+04  0.21664069016E+04  0.00000000000E+00 0. -1.
         25    2    1    2    0    0 -0.10138458680E+03 -0.11592221760E+03 -0.12891913391E+04  0.13043690746E+04  0.12509028326E+03 0.  0.
          5    1    3    3  502    0  0.19071399005E+02 -0.51492953405E+02 -0.54120054228E+03  0.54399516714E+03  0.41800000000E+01 0.  1.
         -5    1    3    3    0  502 -0.12045598581E+03 -0.64429264199E+02 -0.74799079679E+03  0.76037390742E+03  0.41800000000E+01 0.  1.
        -11    1    1    2    0    0  0.46770958887E+02  0.11090202347E+03 -0.67873855855E+03  0.68932779739E+03  0.00000000000E+00 0.  1.
         11    1    1    2    0    0  0.54613627916E+02  0.50201941336E+01 -0.18154185222E+03  0.18964518136E+03  0.00000000000E+00 0. -1.
</event>
<event>
 7    1  0.2440960E-009  0.1280655E+03  0.7561462E-02  0.1230355E+00
          1   -1    0    0  501    0  0.00000000000E+00  0.00000000000E+00  0.18295828849E+03  0.18295828849E+03  0.00000000000E+00 0. -1.
         -1   -1    0    0    0  501 -0.00000000000E+00 -0.00000000000E+00 -0.94741339180E+02  0.94741339180E+02  0.00000000000E+00 0.  1.
         25    2    1    2    0    0 -0.68861990244E+02 -0.35712290857E+02  0.58549254236E+02  0.15840683958E+03  0.12508944894E+03 0.  0.
          5    1    3    3  502    0 -0.10493061456E+03 -0.17757176829E+02  0.45865367725E+02  0.11596057760E+03  0.41800000000E+01 0. -1.
         -5    1    3    3    0  502  0.36068624311E+02 -0.17955114027E+02  0.12683886511E+02  0.42446261985E+02  0.41800000000E+01 0. -1.
        -11    1    1    2    0    0  0.75354278328E+01 -0.23009866627E+02 -0.92141243799E+01  0.25906306624E+02  0.00000000000E+00 0.  1.
         11    1    1    2    0    0  0.61326562411E+02  0.58722157484E+02  0.38881819458E+02  0.93386481469E+02  0.00000000000E+00 0. -1.
</event>
<event>
 7    1  0.2440960E-009  0.1594801E+03  0.7561462E-02  0.1189285E+00
          2   -1    0    0  501    0  0.00000000000E+00  0.00000000000E+00  0.35359648617E+03  0.35359648617E+03  0.00000000000E+00 0. -1.
         -2   -1    0    0    0  501 -0.00000000000E+00 -0.00000000000E+00 -0.82000890550E+02  0.82000890550E+02  0.00000000000E+00 0.  1.
         25    2    1    2    0    0 -0.44138733370E+02  0.11836270630E+03  0.18721208310E+03  0.25817546994E+03  0.12509297020E+03 0.  0.
          5    1    3    3  502    0  0.22592911898E+02  0.95654405568E+02  0.14710273434E+03  0.17696579280E+03  0.41800000000E+01 0. -1.
         -5    1    3    3    0  502 -0.66731645269E+02  0.22708300732E+02  0.40109348764E+02  0.81209677137E+02  0.41800000000E+01 0. -1.
        -11    1    1    2    0    0 -0.18929483144E+02 -0.63891531651E+02  0.13438459098E+02  0.67978271026E+02  0.00000000000E+00 0.  1.
         11    1    1    2    0    0  0.63068216515E+02 -0.54471174649E+02  0.70945053416E+02  0.10944363575E+03  0.00000000000E+00 0. -1.
</event>
<event>
 7    1  0.2440960E-009  0.1291892E+03  0.7561462E-02  0.1228664E+00
          2   -1    0    0  501    0  0.00000000000E+00  0.00000000000E+00  0.36667604402E+03  0.36667604402E+03  0.00000000000E+00 0. -1.
         -2   -1    0    0    0  501 -0.00000000000E+00 -0.00000000000E+00 -0.81375042718E+02  0.81375042718E+02  0.00000000000E+00 0.  1.
         25    2    1    2    0    0 -0.34524863737E+02 -0.11661139907E+03  0.77055309662E+02  0.19072167071E+03  0.12508817019E+03 0.  0.
          5    1    3    3  502    0 -0.34826455387E+02 -0.11712813630E+03  0.90680007132E+01  0.12260335781E+03  0.41800000000E+01 0.  1.
         -5    1    3    3    0  502  0.30159164949E+00  0.51673722870E+00  0.67987308948E+02  0.68118312904E+02  0.41800000000E+01 0.  1.
        -11    1    1    2    0    0 -0.97319207496E+01  0.55997646279E+02  0.30757466906E+02  0.64625602053E+02  0.00000000000E+00 0.  1.
         11    1    1    2    0    0  0.44256784487E+02  0.60613752793E+02  0.17748822473E+03  0.19270381397E+03  0.00000000000E+00 0. -1.
</event>
<event>
 7    1  0.2440960E-009  0.1204783E+03  0.7561462E-02  0.1242310E+00
         -2   -1    0    0    0  501 -0.00000000000E+00  0.00000000000E+00  0.15879449874E+02  0.15879449874E+02  0.00000000000E+00 0.  1.
          2   -1    0    0  501    0  0.00000000000E+00 -0.00000000000E+00 -0.11979932239E+04  0.11979932239E+04  0.00000000000E+00 0. -1.
         25    2    1    2    0    0 -0.80326236460E+02  0.30300963614E+02 -0.64818742526E+03  0.66570869495E+03  0.12510266024E+03 0.  0.
          5    1    3    3  502    0 -0.56912796287E+02 -0.23350907620E+02 -0.12646028343E+03  0.14069117582E+03  0.41800000000E+01 0. -1.
         -5    1    3    3    0  502 -0.23413440173E+02  0.53651871234E+02 -0.52172714183E+03  0.52501751912E+03  0.41800000000E+01 0. -1.
        -11    1    1    2    0    0 -0.86547351769E+01  0.17558294924E+02 -0.47872414779E+02  0.51720075971E+02  0.00000000000E+00 0.  1.
         11    1    1    2    0    0  0.88980971637E+02 -0.47859258538E+02 -0.48605393400E+03  0.49644390287E+03  0.00000000000E+00 0. -1.
</event>
<event>
 7    1  0.2440960E-009  0.1130875E+03  0.7561462E-02  0.1254957E+00
          2   -1    0    0  501    0  0.00000000000E+00  0.00000000000E+00  0.24631280026E+03  0.24631280026E+03  0.00000000000E+00 0. -1.
         -2   -1    0    0    0  501 -0.00000000000E+00 -0.00000000000E+00 -0.79988345834E+02  0.79988345834E+02  0.00000000000E+00 0.  1.
         25    2    1    2    0    0 -0.53220324138E+02  0.45252800143E+02  0.28312609454E+02  0.14604439466E+03  0.12508853878E+03 0.  0.
          5    1    3    3  502    0  0.31411123130E+02 -0.13836724282E+01 -0.20437460698E+02  0.37732418495E+02  0.41800000000E+01 0.  1.
         -5    1    3    3    0  502 -0.84631447267E+02  0.46636472571E+02  0.48750070153E+02  0.10831197616E+03  0.41800000000E+01 0.  1.
        -11    1    1    2    0    0 -0.11150414944E+02  0.83814365494E+01 -0.47398745997E+01  0.14732502954E+02  0.00000000000E+00 0.  1.
         11    1    1    2    0    0  0.64370739082E+02 -0.53634236692E+02  0.14275171957E+03  0.16552424848E+03  0.00000000000E+00 0. -1.
</event>
<event>
 7    1  0.2440960E-009  0.2861941E+03  0.7561462E-02  0.1092353E+00
         -1   -1    0    0    0  501 -0.00000000000E+00  0.00000000000E+00  0.37859279463E+03  0.37859279463E+03  0.00000000000E+00 0.  1.
          1   -1    0    0  501    0  0.00000000000E+00 -0.00000000000E+00 -0.41559545334E+03  0.41559545334E+03  0.00000000000E+00 0. -1.
         25    2    1    2    0    0 -0.22576308709E+03 -0.16315205044E+03 -0.27936177690E+03  0.41385669678E+03  0.12508716970E+03 0.  0.
          5    1    3    3  502    0  0.37275297126E+01 -0.24450858431E+02  0.19941814462E+01  0.25163229432E+02  0.41800000000E+01 0.  1.
         -5    1    3    3    0  502 -0.22949061680E+03 -0.13870119201E+03 -0.28135595834E+03  0.38869346735E+03  0.41800000000E+01 0.  1.
        -11    1    1    2    0    0  0.32722489720E+02  0.31817831389E+02  0.26675902813E+01  0.45719271272E+02  0.00000000000E+00 0. -1.
         11    1    1    2    0    0  0.19304059737E+03  0.13133421905E+03  0.23969152791E+03  0.33461227992E+03  0.00000000000E+00 0.  1.
</event>
<event>
 7    1  0.2440960E-009  0.1257586E+03  0.7561462E-02  0.1233888E+00
          1   -1    0    0  501    0  0.00000000000E+00  0.00000000000E+00  0.76634705602E+03  0.76634705602E+03  0.00000000000E+00 0. -1.
         -1   -1    0    0    0  501 -0.00000000000E+00 -0.00000000000E+00 -0.25553924986E+02  0.25553924986E+02  0.00000000000E+00 0.  1.
         25    2    1    2    0    0 -0.45432762229E+02  0.77164340857E+02  0.40465892190E+03  0.43291402737E+03  0.12508893091E+03 0.  0.
          5    1    3    3  502    0 -0.36732656282E+02  0.10283213170E+03  0.38205737925E+03  0.39737771552E+03  0.41800000000E+01 0.  1.
         -5    1    3    3    0  502 -0.87001059469E+01 -0.25667790840E+02  0.22601542649E+02  0.35536311854E+02  0.41800000000E+01 0.  1.
        -11    1    1    2    0    0  0.56516124284E+02 -0.25541604490E+02  0.25309781456E+03  0.26058578165E+03  0.00000000000E+00 0. -1.
         11    1    1    2    0    0 -0.11083362055E+02 -0.51622736367E+02  0.83036394571E+02  0.98401171984E+02  0.00000000000E+00 0.  1.
</event>
<event>
 7    1  0.2440960E-009  0.1003950E+03  0.7561462E-02  0.1279468E+00
         -4   -1    0    0    0  501 -0.00000000000E+00  0.00000000000E+00  0.77945396236E+02  0.77945396236E+02  0.00000000000E+00 0.  1.
          4   -1    0    0  501    0  0.00000000000E+00 -0.00000000000E+00 -0.17504962056E+03  0.17504962056E+03  0.00000000000E+00 0. -1.
         25    2    1    2    0    0  0.20968685246E+02  0.32586372871E+02 -0.33396690559E+02  0.13513925702E+03  0.12508286209E+03 0.  0.
          5    1    3    3  502    0 -0.26757750524E+02 -0.19112109909E+02  0.26660745656E+02  0.42538426361E+02  0.41800000000E+01 0.  1.
         -5    1    3    3    0  502  0.47726435770E+02  0.51698482781E+02 -0.60057436215E+02  0.92600830654E+02  0.41800000000E+01 0.  1.
        -11    1    1    2    0    0 -0.37682308159E+02 -0.56542429572E+02 -0.54873193534E+02  0.87338823319E+02  0.00000000000E+00 0. -1.
         11    1    1    2    0    0  0.16713622913E+02  0.23956056701E+02 -0.88343402282E+01  0.30516936459E+02  0.00000000000E+00 0.  1.
</event>
<event>
 7    1  0.2440960E-009  0.7095419E+02  0.7561462E-02  0.1356878E+00
          2   -1    0    0  501    0  0.00000000000E+00  0.00000000000E+00  0.15868911140E+03  0.15868911140E+03  0.00000000000E+00 0.  1.
         -2   -1    0    0    0  501 -0.00000000000E+00 -0.00000000000E+00 -0.94265917648E+02  0.94265917648E+02  0.00000000000E+00 0. -1.
         25    2    1    2    0    0  0.16424210071E+02  0.33557925915E+02  0.81536830215E+02  0.15392420668E+03  0.12509403524E+03 0.  0.
          5    1    3    3  502    0  0.93650711628E+01  0.35152458070E+02  0.11434661577E+03  0.12006673479E+03  0.41800000000E+01 0.  1.
         -5    1    3    3    0  502  0.70591389085E+01 -0.15945321546E+01 -0.32809785553E+02  0.33857471892E+02  0.41800000000E+01 0.  1.
        -11    1    1    2    0    0 -0.46911704107E+02 -0.44383886065E+02 -0.16575764956E+02  0.66673782766E+02  0.00000000000E+00 0.  1.
         11    1    1    2    0    0  0.30487494036E+02  0.10825960150E+02 -0.53787150579E+00  0.32357039597E+02  0.00000000000E+00 0. -1.
</event>
<event>
 7    1  0.2440960E-009  0.1484763E+03  0.7561462E-02  0.1202358E+00
         -1   -1    0    0    0  501 -0.00000000000E+00  0.00000000000E+00  0.16323456419E+02  0.16323456419E+02  0.00000000000E+00 0.  1.
          1   -1    0    0  501    0  0.00000000000E+00 -0.00000000000E+00 -0.15804263776E+04  0.15804263776E+04  0.00000000000E+00 0. -1.
         25    2    1    2    0    0 -0.28725012009E+02 -0.11702978750E+03 -0.81636014246E+03  0.83463320474E+03  0.12509039442E+03 0.  0.
          5    1    3    3  502    0  0.82197837683E+01 -0.11609795596E+03 -0.74611244420E+03  0.75514737105E+03  0.41800000000E+01 0. -1.
         -5    1    3    3    0  502 -0.36944795777E+02 -0.93183153601E+00 -0.70247698262E+02  0.79485833682E+02  0.41800000000E+01 0. -1.
        -11    1    1    2    0    0  0.14095198144E+02 -0.88017664508E+01 -0.43400461743E+02  0.46473065134E+02  0.00000000000E+00 0.  1.
         11    1    1    2    0    0  0.14629813865E+02  0.12583155395E+03 -0.70434231697E+03  0.71564356414E+03  0.00000000000E+00 0. -1.
</event>
<event>
 7    1  0.2440960E-009  0.1095842E+03  0.7561462E-02  0.1261342E+00
         -1   -1    0    0    0  501 -0.00000000000E+00  0.00000000000E+00  0.47064949874E+02  0.47064949874E+02  0.00000000000E+00 0.  1.
          1   -1    0    0  501    0  0.00000000000E+00 -0.00000000000E+00 -0.36333672616E+03  0.36333672616E+03  0.00000000000E+00 0. -1.
         25    2    1    2    0    0  0.92361751169E+01  0.32279319930E+02 -0.27635392532E+03  0.30519820902E+03  0.12508874179E+03 0.  0.
          5    1    3    3  502    0 -0.39639392340E+02  0.57840258108E+02 -0.11643196073E+03  0.13598033226E+03  0.41800000000E+01 0. -1.
         -5    1    3    3    0  502  0.48875567457E+02 -0.25560938177E+02 -0.15992196460E+03  0.16921787676E+03  0.41800000000E+01 0. -1.
        -11    1    1    2    0    0 -0.42690311874E+02  0.56189471314E+01 -0.41091758464E+01  0.43254139928E+02  0.00000000000E+00 0.  1.
         11    1    1    2    0    0  0.33454136757E+02 -0.37898267062E+02 -0.35808675113E+02  0.61949327081E+02  0.00000000000E+00 0. -1.
</event>
<event>
 7    1  0.2440960E-009  0.1165113E+03  0.7561462E-02  0.1248966E+00
          1   -1    0    0  501    0  0.00000000000E+00  0.00000000000E+00  0.39056227892E+02  0.39056227892E+02  0.00000000000E+00 0. -1.
         -1   -1    0    0    0  501 -0.00000000000E+00 -0.00000000000E+00 -0.53711353658E+03  0.53711353658E+03  0.00000000000E+00 0.  1.
         25    2    1    2    0    0 -0.20058481195E+02 -0.88519249150E+02 -0.22538304189E+03  0.27328134660E+03  0.12508868330E+03 0.  0.
          5    1    3    3  502    0 -0.41071807690E+02  0.71256292857E+01 -0.12973074105E+03  0.13632756711E+03  0.41800000000E+01 0.  1.
         -5    1    3    3    0  502  0.21013326495E+02 -0.95644878436E+02 -0.95652300842E+02  0.13695377949E+03  0.41800000000E+01 0.  1.
        -11    1    1    2    0    0  0.12532162566E+02  0.16591428155E+02 -0.63091949832E-02  0.20792561810E+02  0.00000000000E+00 0. -1.
         11    1    1    2    0    0  0.75263186295E+01  0.71927820995E+02 -0.27266795760E+03  0.28209585606E+03  0.00000000000E+00 0.  1.
</event>
<event>
 7    1  0.2440960E-009  0.1441817E+03  0.7561462E-02  0.1207810E+00
         -1   -1    0    0    0  501 -0.00000000000E+00  0.00000000000E+00  0.59404004615E+02  0.59404004615E+02  0.00000000000E+00 0.  1.
          1   -1    0    0  501    0  0.00000000000E+00 -0.00000000000E+00 -0.41276046876E+03  0.41276046876E+03  0.00000000000E+00 0. -1.
         25    2    1    2    0    0 -0.10428153787E+03 -0.41307040093E+02 -0.16486401257E+03  0.23539036421E+03  0.12509024831E+03 0.  0.
          5    1    3    3  502    0  0.23095586270E+02 -0.10326111587E+02 -0.67019366754E+02  0.71757247758E+02  0.41800000000E+01 0.  1.
         -5    1    3    3    0  502 -0.12737712414E+03 -0.30980928506E+02 -0.97844645813E+02  0.16363311645E+03  0.41800000000E+01 0.  1.
        -11    1    1    2    0    0  0.97474780336E+02  0.82607347503E+01 -0.90991126750E+02  0.13359999135E+03  0.00000000000E+00 0.  1.
         11    1    1    2    0    0  0.68067575338E+01  0.33046305343E+02 -0.97501324830E+02  0.10317411782E+03  0.00000000000E+00 0. -1.
</event>
<event>
 7    1  0.2440960E-009  0.9618632E+02  0.7561462E-02  0.1288526E+00
         -2   -1    0    0    0  501 -0.00000000000E+00  0.00000000000E+00  0.24779634974E+02  0.24779634974E+02  0.00000000000E+00 0. -1.
          2   -1    0    0  501    0  0.00000000000E+00 -0.00000000000E+00 -0.16047511948E+04  0.16047511948E+04  0.00000000000E+00 0.  1.
         25    2    1    2    0    0 -0.53053148023E+02 -0.34310089030E+02 -0.14583856792E+04  0.14651032968E+04  0.12508821808E+03 0.  0.
          5    1    3    3  502    0 -0.69729202606E+02 -0.11434889813E+02 -0.39237237729E+03  0.39870599853E+03  0.41800000000E+01 0.  1.
         -5    1    3    3    0  502  0.16676054582E+02 -0.22875199217E+02 -0.10660133019E+04  0.10663972983E+04  0.41800000000E+01 0.  1.
        -11    1    1    2    0    0  0.59692064624E+02  0.17232425167E+01 -0.29672249835E+02  0.66682490611E+02  0.00000000000E+00 0. -1.
         11    1    1    2    0    0 -0.66389166006E+01  0.32586846513E+02 -0.91913630761E+02  0.97745042324E+02  0.00000000000E+00 0.  1.
</event>
<event>
 7    1  0.2440960E-009  0.1094557E+03  0.7561462E-02  0.1261581E+00
          2   -1    0    0  501    0  0.00000000000E+00  0.00000000000E+00  0.61739178247E+03  0.61739178247E+03  0.00000000000E+00 0. -1.
         -2   -1    0    0    0  501 -0.00000000000E+00 -0.00000000000E+00 -0.20745149537E+02  0.20745149537E+02  0.00000000000E+00 0.  1.
         25    2    1    2    0    0  0.16316404140E+02  0.27651279297E+02  0.32912841128E+03  0.35355901626E+03  0.12509056150E+03 0.  0.
          5    1    3    3  502    0  0.26476823727E+02  0.73061946310E+02  0.15739831035E+03  0.17558693201E+03  0.41800000000E+01 0.  1.
         -5    1    3    3    0  502 -0.10160419587E+02 -0.45410667013E+02  0.17173010094E+03  0.17797208425E+03  0.41800000000E+01 0.  1.
        -11    1    1    2    0    0  0.34577857497E+02  0.34054937351E+01  0.13253377111E+03  0.13701250345E+03  0.00000000000E+00 0. -1.
         11    1    1    2    0    0 -0.50894261638E+02 -0.31056773032E+02  0.13498445054E+03  0.14756541230E+03  0.00000000000E+00 0.  1.
</event>
<event>
 7    1  0.2440960E-009  0.1024758E+03  0.7561462E-02  0.1275174E+00
          2   -1    0    0  501    0  0.00000000000E+00  0.00000000000E+00  0.42051693170E+03  0.42051693170E+03  0.00000000000E+00 0. -1.
         -2   -1    0    0    0  501 -0.00000000000E+00 -0.00000000000E+00 -0.40529504709E+02  0.40529504709E+02  0.00000000000E+00 0.  1.
         25    2    1    2    0    0 -0.45900004714E+02  0.47872799752E+02  0.26581521780E+03  0.30117896503E+03  0.12510964620E+03 0.  0.
          5    1    3    3  502    0 -0.55979490402E+02  0.55152358765E+01  0.35278544379E+02  0.66529461638E+02  0.41800000000E+01 0.  1.
         -5    1    3    3    0  502  0.10079485688E+02  0.42357563876E+02  0.23053667342E+03  0.23464950339E+03  0.41800000000E+01 0.  1.
        -11    1    1    2    0    0 -0.22965906023E+02 -0.44513896664E+01  0.54106409928E+01  0.24010888059E+02  0.00000000000E+00 0. -1.
         11    1    1    2    0    0  0.68865910736E+02 -0.43421410086E+02  0.10876156820E+03  0.13585658333E+03  0.00000000000E+00 0.  1.
</event>
<event>
 7    1  0.2440960E-009  0.1103787E+03  0.7561462E-02  0.1259870E+00
          2   -1    0    0  501    0  0.00000000000E+00  0.00000000000E+00  0.17955752794E+03  0.17955752794E+03  0.00000000000E+00 0. -1.
         -2   -1    0    0    0  501 -0.00000000000E+00 -0.00000000000E+00 -0.99278205381E+02  0.99278205381E+02  0.00000000000E+00 0.  1.
         25    2    1    2    0    0  0.70893822586E+02 -0.29574961619E+02  0.34276672135E+02  0.15074355904E+03  0.12509243743E+03 0.  0.
          5    1    3    3  502    0  0.15022892307E+02 -0.49350987613E+02  0.65615125771E+02  0.83570475657E+02  0.41800000000E+01 0. -1.
         -5    1    3    3    0  502  0.55870930279E+02  0.19776025994E+02 -0.31338453635E+02  0.67173083379E+02  0.41800000000E+01 0. -1.
        -11    1    1    2    0    0 -0.66469149179E+02  0.53456952565E+02  0.11752518549E+02  0.86104095502E+02  0.00000000000E+00 0.  1.
         11    1    1    2    0    0 -0.44246734078E+01 -0.23881990946E+02  0.34250131871E+02  0.41988078778E+02  0.00000000000E+00 0. -1.
</event>
<event>
 7    1  0.2440960E-009  0.1521577E+03  0.7561462E-02  0.1197846E+00
          2   -1    0    0  501    0  0.00000000000E+00  0.00000000000E+00  0.11317166997E+03  0.11317166997E+03  0.00000000000E+00 0. -1.
         -2   -1    0    0    0  501 -0.00000000000E+00 -0.00000000000E+00 -0.28081601861E+03  0.28081601861E+03  0.00000000000E+00 0.  1.
         25    2    1    2    0    0  0.10962165636E+03 -0.30069391156E+02 -0.18198734314E+03  0.24836840516E+03  0.12508555388E+03 0.  0.
          5    1    3    3  502    0  0.37190519446E+02  0.46228369363E+02 -0.93606761212E+02  0.11090489176E+03  0.41800000000E+01 0.  1.
         -5    1    3    3    0  502  0.72431136915E+02 -0.76297760519E+02 -0.88380581924E+02  0.13746351340E+03  0.41800000000E+01 0.  1.
        -11    1    1    2    0    0 -0.72919609713E+02  0.58208818539E+02 -0.91416934036E+01  0.93750235171E+02  0.00000000000E+00 0. -1.
         11    1    1    2    0    0 -0.36702046649E+02 -0.28139427383E+02  0.23484687897E+02  0.51869048259E+02  0.00000000000E+00 0.  1.
</event>
<event>
 7    1  0.2440960E-009  0.1740183E+03  0.7561462E-02  0.1173721E+00
         -2   -1    0    0    0  501 -0.00000000000E+00  0.00000000000E+00  0.17014732216E+02  0.17014732216E+02  0.00000000000E+00 0.  1.
          2   -1    0    0  501    0  0.00000000000E+00 -0.00000000000E+00 -0.20322789090E+04  0.20322789090E+04  0.00000000000E+00 0. -1.
         25    2    1    2    0    0  0.13934394321E+03  0.48779585195E+02 -0.12210176747E+04  0.12362551961E+04  0.12508623250E+03 0.  0.
          5    1    3    3  502    0  0.94411294396E+02 -0.32767774516E+02 -0.66504829023E+03  0.67252800707E+03  0.41800000000E+01 0.  1.
         -5    1    3    3    0  502  0.44932648814E+02  0.81547359711E+02 -0.55596938447E+03  0.56372718905E+03  0.41800000000E+01 0.  1.
        -11    1    1    2    0    0 -0.15818030548E+02 -0.24127626456E+02 -0.46253720038E+02  0.54513842886E+02  0.00000000000E+00 0.  1.
         11    1    1    2    0    0 -0.12352591266E+03 -0.24651958739E+02 -0.74799278210E+03  0.75852460226E+03  0.00000000000E+00 0. -1.
</event>
<event>
 7    1  0.2440960E-009  0.9353448E+02  0.7561462E-02  0.1294511E+00
         -1   -1    0    0    0  501 -0.00000000000E+00  0.00000000000E+00  0.15631950406E+02  0.15631950406E+02  0.00000000000E+00 0.  1.
          1   -1    0    0  501    0  0.00000000000E+00 -0.00000000000E+00 -0.76431671154E+03  0.76431671154E+03  0.00000000000E+00 0. -1.
         25    2    1    2    0    0  0.14061938079E+02  0.12460337238E+02 -0.48050878227E+03  0.49687966085E+03  0.12509080471E+03 0.  0.
          5    1    3    3  502    0 -0.16263690716E+02  0.54916988373E+02 -0.37199727586E+03  0.37640381094E+03  0.41800000000E+01 0. -1.
         -5    1    3    3    0  502  0.30325628795E+02 -0.42456651135E+02 -0.10851150641E+03  0.12047584991E+03  0.41800000000E+01 0. -1.
        -11    1    1    2    0    0 -0.11694267694E+02  0.31332246698E+02 -0.47592354921E+02  0.58167841862E+02  0.00000000000E+00 0.  1.
         11    1    1    2    0    0 -0.23676703848E+01 -0.43792583936E+02 -0.22058362395E+03  0.22490115923E+03  0.00000000000E+00 0. -1.
</event>
<event>
 7    1  0.2440960E-009  0.1042070E+03  0.7561462E-02  0.1271690E+00
          2   -1    0    0  501    0  0.00000000000E+00  0.00000000000E+00  0.79709853168E+03  0.79709853168E+03  0.00000000000E+00 0. -1.
         -2   -1    0    0    0  501 -0.00000000000E+00 -0.00000000000E+00 -0.18451645971E+02  0.18451645971E+02  0.00000000000E+00 0.  1.
         25    2    1    2    0    0  0.13886595031E+02  0.50306796383E+02  0.37329886447E+03  0.39714534273E+03  0.12509504288E+03 0.  0.
          5    1    3    3  502    0 -0.42094960234E+02  0.33274738932E+02  0.70391108587E+02  0.88609110684E+02  0.41800000000E+01 0.  1.
         -5    1    3    3    0  502  0.55981555265E+02  0.17032057451E+02  0.30290775588E+03  0.30853623205E+03  0.41800000000E+01 0.  1.
        -11    1    1    2    0    0 -0.46613679166E+02 -0.18076745093E+02  0.28945717195E+03  0.29374318408E+03  0.00000000000E+00 0. -1.
         11    1    1    2    0    0  0.32727084135E+02 -0.32230051289E+02  0.11589084929E+03  0.12466165085E+03  0.00000000000E+00 0.  1.
</event>
<event>
 7    1  0.2440960E-009  0.1289139E+03  0.7561462E-02  0.1229076E+00
          2   -1    0    0  501    0  0.00000000000E+00  0.00000000000E+00  0.20686788099E+03  0.20686788099E+03  0.00000000000E+00 0.  1.
         -2   -1    0    0    0  501 -0.00000000000E+00 -0.00000000000E+00 -0.19083372994E+03  0.19083372994E+03  0.00000000000E+00 0. -1.
         25    2    1    2    0    0 -0.61542974619E+02 -0.10512879217E+03  0.12221144932E+03  0.21312710562E+03  0.12509166294E+03 0.  0.
          5    1    3    3  502    0 -0.23920688415E+02 -0.19852062677E+02 -0.24130260660E+02  0.39573294104E+02  0.41800000000E+01 0. -1.
         -5    1    3    3    0  502 -0.37622286204E+02 -0.85276729495E+02  0.14634170998E+03  0.17355381152E+03  0.41800000000E+01 0. -1.
        -11    1    1    2    0    0  0.43714937035E+02  0.10665749260E+03 -0.50052740847E+02  0.12566659586E+03  0.00000000000E+00 0.  1.
         11    1    1    2    0    0  0.17828037584E+02 -0.15287004331E+01 -0.56124557423E+02  0.58907909444E+02  0.00000000000E+00 0. -1.
</event>
<event>
 7    1  0.2440960E-009  0.9884620E+02  0.7561462E-02  0.1282741E+00
         -1   -1    0    0    0  501 -0.00000000000E+00  0.00000000000E+00  0.82827962325E+02  0.82827962325E+02  0.00000000000E+00 0.  1.
          1   -1    0    0  501    0  0.00000000000E+00 -0.00000000000E+00 -0.43152628507E+03  0.43152628507E+03  0.00000000000E+00 0. -1.
         25    2    1    2    0    0 -0.14013256074E+01 -0.26026446533E+02  0.23770925012E+02  0.12996992250E+03  0.12509110379E+03 0.  0.
          5    1    3    3  502    0  0.49265625859E+02  0.45091440345E+01 -0.22734513402E+02  0.54605537914E+02  0.41800000000E+01 0. -1.
         -5    1    3    3    0  502 -0.50666951466E+02 -0.30535590567E+02  0.46505438415E+02  0.75364384588E+02  0.41800000000E+01 0. -1.
        -11    1    1    2    0    0  0.32932275361E+02 -0.15664729696E+02 -0.89797574827E+02  0.96920188618E+02  0.00000000000E+00 0.  1.
         11    1    1    2    0    0 -0.31530949754E+02  0.41691176229E+02 -0.28267167293E+03  0.28746413628E+03  0.00000000000E+00 0. -1.
</event>
<event>
 7    1  0.2440960E-009  0.9316245E+02  0.7561462E-02  0.1295369E+00
         -2   -1    0    0    0  501 -0.00000000000E+00  0.00000000000E+00  0.56042625916E+02  0.56042625916E+02  0.00000000000E+00 0.  1.
          2   -1    0    0  501    0  0.00000000000E+00 -0.00000000000E+00 -0.26819051714E+03  0.26819051714E+03  0.00000000000E+00 0. -1.
         25    2    1    2    0    0  0.21516458684E+02  0.24772896166E+02 -0.18235248696E+03  0.22355591848E+03  0.12509262491E+03 0.  0.
          5    1    3    3  502    0  0.48652901365E+02 -0.19213304745E+02 -0.15758427307E+03  0.16609193661E+03  0.41800000000E+01 0. -1.
         -5    1    3    3    0  502 -0.27136442681E+02  0.43986200911E+02 -0.24768213895E+02  0.57463981863E+02  0.41800000000E+01 0. -1.
        -11    1    1    2    0    0 -0.17355824858E+01  0.26750480397E+02  0.13980956638E+02  0.30233550843E+02  0.00000000000E+00 0.  1.
         11    1    1    2    0    0 -0.19780876198E+02 -0.51523376563E+02 -0.43776360899E+02  0.70443673734E+02  0.00000000000E+00 0. -1.
</event>
<event>
 7    1  0.2440960E-009  0.1049251E+03  0.7561462E-02  0.1270267E+00
         -1   -1    0    0    0  501 -0.00000000000E+00  0.00000000000E+00  0.47335129869E+02  0.47335129869E+02  0.00000000000E+00 0.  1.
          1   -1    0    0  501    0  0.00000000000E+00 -0.00000000000E+00 -0.37122845345E+03  0.37122845345E+03  0.00000000000E+00 0. -1.
         25    2    1    2    0    0  0.39440068540E+02 -0.59325157831E+02 -0.13394247643E+03  0.19662859201E+03  0.12508885979E+03 0.  0.
          5    1    3    3  502    0 -0.11318744503E+02 -0.43998251315E+02 -0.13595292756E+03  0.14340373429E+03  0.41800000000E+01 0. -1.
         -5    1    3    3    0  502  0.50758813043E+02 -0.15326906517E+02  0.20104511314E+01  0.53224857713E+02  0.41800000000E+01 0. -1.
        -11    1    1    2    0    0 -0.51621865234E+02  0.75086861126E+02 -0.12994543519E+03  0.15870938791E+03  0.00000000000E+00 0. -1.
         11    1    1    2    0    0  0.12181796695E+02 -0.15761703294E+02 -0.60005411956E+02  0.63225603401E+02  0.00000000000E+00 0.  1.
</event>
<event>
 7    1  0.2440960E-009  0.1053819E+03  0.7561462E-02  0.1269369E+00
         -3   -1    0    0    0  501 -0.00000000000E+00  0.00000000000E+00  0.11838074735E+02  0.11838074735E+02  0.00000000000E+00 0.  1.
          3   -1    0    0  501    0  0.00000000000E+00 -0.00000000000E+00 -0.14314725033E+04  0.14314725033E+04  0.00000000000E+00 0. -1.
         25    2    1    2    0    0 -0.39842153975E+01 -0.37189046023E+02 -0.11428516959E+04  0.11502850282E+04  0.12508696218E+03 0.  0.
          5    1    3    3  502    0 -0.52996375467E+02 -0.56396671498E+02 -0.64443719032E+03  0.64908086171E+03  0.41800000000E+01 0. -1.
         -5    1    3    3    0  502  0.49012160070E+02  0.19207625475E+02 -0.49841450557E+03  0.50120416646E+03  0.41800000000E+01 0. -1.
        -11    1    1    2    0    0 -0.15064039415E+01 -0.21477857362E+02 -0.19391108798E+02  0.28975553664E+02  0.00000000000E+00 0.  1.
         11    1    1    2    0    0  0.54906193390E+01  0.58666903386E+02 -0.25739162386E+03  0.26404999619E+03  0.00000000000E+00 0. -1.
</event>
<event>
 7    1  0.2440960E-009  0.1103643E+03  0.7561462E-02  0.1259897E+00
          2   -1    0    0  501    0  0.00000000000E+00  0.00000000000E+00  0.27741919502E+03  0.27741919502E+03  0.00000000000E+00 0. -1.
         -2   -1    0    0    0  501 -0.00000000000E+00 -0.00000000000E+00 -0.58458507361E+02  0.58458507361E+02  0.00000000000E+00 0.  1.
         25    2    1    2    0    0 -0.25074139721E+02 -0.29627564660E+02  0.54546304547E+02  0.14187580374E+03  0.12508772633E+03 0.  0.
          5    1    3    3  502    0 -0.53096889641E+02 -0.61268183671E+02  0.12549600047E+02  0.82146423423E+02  0.41800000000E+01 0.  1.
         -5    1    3    3    0  502  0.28022749920E+02  0.31640619011E+02  0.41996704500E+02  0.59729380319E+02  0.41800000000E+01 0.  1.
        -11    1    1    2    0    0  0.36414787113E+02 -0.23111525609E+02  0.41874270950E+02  0.60113508499E+02  0.00000000000E+00 0.  1.
         11    1    1    2    0    0 -0.11340647392E+02  0.52739090270E+02  0.12254011217E+03  0.13388839014E+03  0.00000000000E+00 0. -1.
</event>
<event>
 7    1  0.2440960E-009  0.1259852E+03  0.7561462E-02  0.1233538E+00
          2   -1    0    0  501    0  0.00000000000E+00  0.00000000000E+00  0.59394105793E+02  0.59394105793E+02  0.00000000000E+00 0.  1.
         -2   -1    0    0    0  501 -0.00000000000E+00 -0.00000000000E+00 -0.88667554809E+03  0.88667554809E+03  0.00000000000E+00 0. -1.
         25    2    1    2    0    0  0.13915816681E+01 -0.93510890613E+02 -0.79139291992E+03  0.80665772402E+03  0.12509079443E+03 0.  0.
          5    1    3    3  502    0 -0.60538818409E+02 -0.38510585280E+02 -0.31453234003E+03  0.32263923977E+03  0.41800000000E+01 0.  1.
         -5    1    3    3    0  502  0.61930400077E+02 -0.55000305333E+02 -0.47686057989E+03  0.48401848424E+03  0.41800000000E+01 0.  1.
        -11    1    1    2    0    0  0.11774787171E+02  0.60332299557E+02  0.26968737520E+02  0.67126334521E+02  0.00000000000E+00 0.  1.
         11    1    1    2    0    0 -0.13166368839E+02  0.33178591056E+02 -0.62857259894E+02  0.72285595344E+02  0.00000000000E+00 0. -1.
</event>
<event>
 7    1  0.2616717E-009  0.1577281E+03  0.7561462E-02  0.1191286E+00
          2   -1    0    0  501    0  0.00000000000E+00  0.00000000000E+00  0.15047774428E+04  0.15047774428E+04  0.00000000000E+00 0. -1.
         -2   -1    0    0    0  501 -0.00000000000E+00 -0.00000000000E+00 -0.21322095198E+02  0.21322095198E+02  0.00000000000E+00 0.  1.
         25    2    1    2    0    0  0.10524126845E+03  0.85161539535E+02  0.96876417006E+03  0.98614377744E+03  0.12508924890E+03 0.  0.
          5    1    3    3  502    0  0.25264219054E+02 -0.14733276599E+02  0.47934472470E+03  0.48025429482E+03  0.41800000000E+01 0. -1.
         -5    1    3    3    0  502  0.79977049396E+02  0.99894816134E+02  0.48941944537E+03  0.50588948262E+03  0.41800000000E+01 0. -1.
        -11    1    1    2    0    0 -0.93348945611E+02 -0.25119231438E+02  0.24446819895E+03  0.26288724148E+03  0.00000000000E+00 0.  1.
         11    1    1    2    0    0 -0.11892322840E+02 -0.60042308097E+02  0.27022297854E+03  0.27706851903E+03  0.00000000000E+00 0. -1.
</event>
<event>
 7    1  0.2440960E-009  0.2920033E+03  0.7561462E-02  0.1089308E+00
         -1   -1    0    0    0  501 -0.00000000000E+00  0.00000000000E+00  0.69033702650E+03  0.69033702650E+03  0.00000000000E+00 0.  1.
          1   -1    0    0  501    0  0.00000000000E+00 -0.00000000000E+00 -0.16500688200E+03  0.16500688200E+03  0.00000000000E+00 0. -1.
         25    2    1    2    0    0 -0.22300584250E+03 -0.16701347375E+03  0.46446477138E+03  0.55587702574E+03  0.12508652079E+03 0.  0.
          5    1    3    3  502    0 -0.14250366423E+03 -0.52661756901E+02  0.15930195758E+03  0.22017070888E+03  0.41800000000E+01 0. -1.
         -5    1    3    3    0  502 -0.80502178276E+02 -0.11435171685E+03  0.30516281380E+03  0.33570631686E+03  0.41800000000E+01 0. -1.
        -11    1    1    2    0    0  0.13771361903E+03  0.15271058377E+03  0.54585322672E+02  0.21275601217E+03  0.00000000000E+00 0.  1.
         11    1    1    2    0    0  0.85292223469E+02  0.14302889982E+02  0.62800504496E+01  0.86710870598E+02  0.00000000000E+00 0. -1.
</event>
<event>
 7    1  0.2440960E-009  0.6231771E+02  0.7561462E-02  0.1388355E+00
          1   -1    0    0  501    0  0.00000000000E+00  0.00000000000E+00  0.21115088948E+03  0.21115088948E+03  0.00000000000E+00 0. -1.
         -1   -1    0    0    0  501 -0.00000000000E+00 -0.00000000000E+00 -0.70751838021E+02  0.70751838021E+02  0.00000000000E+00 0.  1.
         25    2    1    2    0    0  0.32207813087E+02  0.33574603823E+02  0.46793414750E+02  0.14141877967E+03  0.12508017562E+03 0.  0.
          5    1    3    3  502    0  0.12227760650E+02 -0.10501358743E+02 -0.39236427253E+02  0.42623541494E+02  0.41800000000E+01 0. -1.
         -5    1    3    3    0  502  0.19980052437E+02  0.44075962566E+02  0.86029842003E+02  0.98795238177E+02  0.41800000000E+01 0. -1.
        -11    1    1    2    0    0  0.64062558844E+01 -0.15508153286E+02  0.96315775035E+02  0.97766412706E+02  0.00000000000E+00 0. -1.
         11    1    1    2    0    0 -0.38614068972E+02 -0.18066450537E+02 -0.27101383232E+01  0.42717535127E+02  0.00000000000E+00 0.  1.
</event>
<event>
 7    1  0.2440960E-009  0.1565796E+03  0.7561462E-02  0.1192613E+00
         -1   -1    0    0    0  501 -0.00000000000E+00  0.00000000000E+00  0.48889470176E+03  0.48889470176E+03  0.00000000000E+00 0.  1.
          1   -1    0    0  501    0  0.00000000000E+00 -0.00000000000E+00 -0.58555334615E+02  0.58555334615E+02  0.00000000000E+00 0. -1.
         25    2    1    2    0    0  0.84169888864E+02  0.94335045442E+02  0.26703234655E+03  0.32083956764E+03  0.12509229820E+03 0.  0.
          5    1    3    3  502    0 -0.32999227945E+02  0.24348981381E+02  0.57752393945E+02  0.70955150240E+02  0.41800000000E+01 0.  1.
         -5    1    3    3    0  502  0.11716911681E+03  0.69986064061E+02  0.20927995260E+03  0.24988441740E+03  0.41800000000E+01 0.  1.
        -11    1    1    2    0    0 -0.76934479986E+02 -0.52984626952E+02  0.15900103956E+03  0.18441153838E+03  0.00000000000E+00 0.  1.
         11    1    1    2    0    0 -0.72354088785E+01 -0.41350418490E+02  0.43059810330E+01  0.42198930361E+02  0.00000000000E+00 0. -1.
</event>
<event>
 7    1  0.2440960E-009  0.1269845E+03  0.7561462E-02  0.1232000E+00
          3   -1    0    0  501    0  0.00000000000E+00  0.00000000000E+00  0.35717308032E+02  0.35717308032E+02  0.00000000000E+00 0. -1.
         -3   -1    0    0    0  501 -0.00000000000E+00 -0.00000000000E+00 -0.48863333442E+03  0.48863333442E+03  0.00000000000E+00 0.  1.
         25    2    1    2    0    0 -0.59026535671E+02  0.45896287607E+02 -0.26306781685E+03  0.30073688628E+03  0.12508955744E+03 0.  0.
          5    1    3    3  502    0  0.23474888383E+02 -0.22763467243E+02 -0.32096408251E+02  0.46009756011E+02  0.41800000000E+01 0. -1.
         -5    1    3    3    0  502 -0.82501424054E+02  0.68659754850E+02 -0.23097140860E+03  0.25472713027E+03  0.41800000000E+01 0. -1.
        -11    1    1    2    0    0 -0.22093245167E+02 -0.46216600265E+01 -0.16967024314E+02  0.28237406706E+02  0.00000000000E+00 0. -1.
         11    1    1    2    0    0  0.81119780838E+02 -0.41274627580E+02 -0.17288118523E+03  0.19537634946E+03  0.00000000000E+00 0.  1.
</event>
<event>
 7    1  0.2440960E-009  0.1898047E+03  0.7561462E-02  0.1158638E+00
         -3   -1    0    0    0  501 -0.00000000000E+00  0.00000000000E+00  0.86032867140E+03  0.86032867140E+03  0.00000000000E+00 0.  1.
          3   -1    0    0  501    0  0.00000000000E+00 -0.00000000000E+00 -0.10052397117E+03  0.10052397117E+03  0.00000000000E+00 0. -1.
         25    2    1    2    0    0 -0.76995255905E+02  0.16378025187E+03  0.72199726007E+03  0.75477127585E+03  0.12508954781E+03 0.  0.
          5    1    3    3  502    0 -0.65470459965E+02  0.10575615754E+03  0.64848799367E+03  0.66032181269E+03  0.41800000000E+01 0. -1.
         -5    1    3    3    0  502 -0.11524795940E+02  0.58024094332E+02  0.73509266395E+02  0.94449463156E+02  0.41800000000E+01 0. -1.
        -11    1    1    2    0    0  0.75015711590E+02 -0.71761406556E+02 -0.63300077618E+01  0.10400541070E+03  0.00000000000E+00 0. -1.
         11    1    1    2    0    0  0.19795443153E+01 -0.92018845313E+02  0.44137447923E+02  0.10207595602E+03  0.00000000000E+00 0.  1.
</event>
<event>
 7    1  0.2440960E-009  0.3094331E+03  0.7561462E-02  0.1080618E+00
         -2   -1    0    0    0  501 -0.00000000000E+00  0.00000000000E+00  0.18057846069E+03  0.18057846069E+03  0.00000000000E+00 0.  1.
          2   -1    0    0  501    0  0.00000000000E+00 -0.00000000000E+00 -0.59540028260E+03  0.59540028260E+03  0.00000000000E+00 0. -1.
         25    2    1    2    0    0 -0.10041890541E+03  0.28069931847E+03 -0.30599064585E+03  0.44515018372E+03  0.12510933924E+03 0.  0.
          5    1    3    3  502    0 -0.12728640212E+03  0.24048220117E+03 -0.27843274076E+03  0.38932734399E+03  0.41800000000E+01 0. -1.
         -5    1    3    3    0  502  0.26867496709E+02  0.40217117302E+02 -0.27557905081E+02  0.55822839734E+02  0.41800000000E+01 0. -1.
        -11    1    1    2    0    0  0.66804166552E+02 -0.17711948525E+03 -0.20109577202E+02  0.19036413480E+03  0.00000000000E+00 0. -1.
         11    1    1    2    0    0  0.33614738863E+02 -0.10357983322E+03 -0.88721598868E+02  0.14046442477E+03  0.00000000000E+00 0.  1.
</event>
<event>
 7    1  0.2440960E-009  0.1305573E+03  0.7561462E-02  0.1226631E+00
          3   -1    0    0  501    0  0.00000000000E+00  0.00000000000E+00  0.95096557826E+03  0.95096557826E+03  0.00000000000E+00 0. -1.
         -3   -1    0    0    0  501 -0.00000000000E+00 -0.00000000000E+00 -0.37451718028E+02  0.37451718028E+02  0.00000000000E+00 0.  1.
         25    2    1    2    0    0  0.73602612752E+02  0.94269773194E+02  0.73664366925E+03  0.75670051507E+03  0.12509052448E+03 0.  0.
          5    1    3    3  502    0  0.30043415047E+02  0.35029194725E+02  0.59726134368E+03  0.59905612118E+03  0.41800000000E+01 0. -1.
         -5    1    3    3    0  502  0.43559197705E+02  0.59240578469E+02  0.13938232557E+03  0.15764439389E+03  0.41800000000E+01 0. -1.
        -11    1    1    2    0    0 -0.30134399743E+02 -0.92870065910E+02  0.82566625274E+02  0.12786781768E+03  0.00000000000E+00 0.  1.
         11    1    1    2    0    0 -0.43468213009E+02 -0.13997072834E+01  0.94303565703E+02  0.10384896353E+03  0.00000000000E+00 0. -1.
</event>
<event>
 7    1  0.2440960E-009  0.1522394E+03  0.7561462E-02  0.1197748E+00
          3   -1    0    0  501    0  0.00000000000E+00  0.00000000000E+00  0.22120482410E+02  0.22120482410E+02  0.00000000000E+00 0.  1.
         -3   -1    0    0    0  501 -0.00000000000E+00 -0.00000000000E+00 -0.13131175212E+04  0.13131175212E+04  0.00000000000E+00 0. -1.
         25    2    1    2    0    0 -0.12306145488E+03 -0.14908999263E+02 -0.84509631808E+03  0.86325083259E+03  0.12509121948E+03 0.  0.
          5    1    3    3  502    0 -0.10986729461E+03 -0.45059534413E+02 -0.40943345391E+03  0.42632664665E+03  0.41800000000E+01 0.  1.
         -5    1    3    3    0  502 -0.13194160270E+02  0.30150535149E+02 -0.43566286417E+03  0.43692418594E+03  0.41800000000E+01 0.  1.
        -11    1    1    2    0    0  0.56063187027E+02  0.51513080157E+02 -0.18247965186E+03  0.19772582459E+03  0.00000000000E+00 0. -1.
         11    1    1    2    0    0  0.66998267854E+02 -0.36604080894E+02 -0.26342106881E+03  0.27426134640E+03  0.00000000000E+00 0.  1.
</event>
<event>
 7    1  0.2440960E-009  0.1289728E+03  0.7561462E-02  0.1228988E+00
         -1   -1    0    0    0  501 -0.00000000000E+00  0.00000000000E+00  0.91180495950E+02  0.91180495950E+02  0.00000000000E+00 0.  1.
          1   -1    0    0  501    0  0.00000000000E+00 -0.00000000000E+00 -0.23989924279E+03  0.23989924279E+03  0.00000000000E+00 0. -1.
         25    2    1    2    0    0 -0.89323610205E+02 -0.41896571327E+02 -0.10385410606E+03  0.19017708877E+03  0.12509044614E+03 0.  0.
          5    1    3    3  502    0 -0.10498022786E+03 -0.19617898199E+02 -0.11800050814E+03  0.15920836188E+03  0.41800000000E+01 0.  1.
         -5    1    3    3    0  502  0.15656617658E+02 -0.22278673128E+02  0.14146402081E+02  0.30968726882E+02  0.41800000000E+01 0.  1.
        -11    1    1    2    0    0  0.19213779638E+02  0.49402049940E+02  0.68678514660E+01  0.53449969598E+02  0.00000000000E+00 0.  1.
         11    1    1    2    0    0  0.70109830567E+02 -0.75054786131E+01 -0.51732492247E+02  0.87452680379E+02  0.00000000000E+00 0. -1.
</event>
<event>
 7    1  0.2440960E-009  0.7286360E+02  0.7561462E-02  0.1350617E+00
          2   -1    0    0  501    0  0.00000000000E+00  0.00000000000E+00  0.25111541428E+02  0.25111541428E+02  0.00000000000E+00 0. -1.
         -2   -1    0    0    0  501 -0.00000000000E+00 -0.00000000000E+00 -0.50312913080E+03  0.50312913080E+03  0.00000000000E+00 0.  1.
         25    2    1    2    0    0  0.88369262088E+01 -0.13708887655E+02 -0.32948577714E+03  0.35281086833E+03  0.12509439079E+03 0.  0.
          5    1    3    3  502    0 -0.16220191205E+02  0.14972444012E+02 -0.30812856548E+03  0.30894652280E+03  0.41800000000E+01 0.  1.
         -5    1    3    3    0  502  0.25057117414E+02 -0.28681331667E+02 -0.21357211661E+02  0.43864345535E+02  0.41800000000E+01 0.  1.
        -11    1    1    2    0    0 -0.32137689899E+02  0.39015268281E+02 -0.50137045496E+02  0.71195123443E+02  0.00000000000E+00 0. -1.
         11    1    1    2    0    0  0.23300763690E+02 -0.25306380626E+02 -0.98394766735E+02  0.10423468046E+03  0.00000000000E+00 0.  1.
</event>
<event>
 7    1  0.2440960E-009  0.1105428E+03  0.7561462E-02  0.1259568E+00
          4   -1    0    0  501    0  0.00000000000E+00  0.00000000000E+00  0.38373029208E+02  0.38373029208E+02  0.00000000000E+00 0. -1.
         -4   -1    0    0    0  501 -0.00000000000E+00 -0.00000000000E+00 -0.36900698345E+03  0.36900698345E+03  0.00000000000E+00 0.  1.
         25    2    1    2    0    0 -0.28877722654E+02 -0.16087326971E+02 -0.25071760470E+03  0.28213539896E+03  0.12509332952E+03 0.  0.
          5    1    3    3  502    0 -0.65579584582E+02  0.26479041686E+02 -0.16478725861E+03  0.17937149875E+03  0.41800000000E+01 0.  1.
         -5    1    3    3    0  502  0.36701861928E+02 -0.42566368657E+02 -0.85930346087E+02  0.10276390022E+03  0.41800000000E+01 0.  1.
        -11    1    1    2    0    0  0.30902291486E+02 -0.32733714307E+02 -0.24097493595E+02  0.51060129935E+02  0.00000000000E+00 0. -1.
         11    1    1    2    0    0 -0.20245688315E+01  0.48821041278E+02 -0.55818855948E+02  0.74184483754E+02  0.00000000000E+00 0.  1.
</event>
<event>
 7    1  0.3189904E-009  0.9700325E+02  0.7561462E-02  0.1286727E+00
          2   -1    0    0  501    0  0.00000000000E+00  0.00000000000E+00  0.52018837030E+03  0.52018837030E+03  0.00000000000E+00 0.  1.
         -2   -1    0    0    0  501 -0.00000000000E+00 -0.00000000000E+00 -0.44451194003E+02  0.44451194003E+02  0.00000000000E+00 0. -1.
         25    2    1    2    0    0 -0.91041923332E+02  0.30630040633E+02  0.33929918450E+03  0.37416164068E+03  0.12508463360E+03 0.  0.
          5    1    3    3  502    0 -0.31926203958E+02  0.18777523927E+02  0.89552155062E+01  0.38334660410E+02  0.41800000000E+01 0. -1.
         -5    1    3    3    0  502 -0.59115719374E+02  0.11852516707E+02  0.33034396899E+03  0.33582698027E+03  0.41800000000E+01 0. -1.
        -11    1    1    2    0    0  0.52505479621E+02 -0.14116811925E+02  0.74877772089E+01  0.54883299616E+02  0.00000000000E+00 0. -1.
         11    1    1    2    0    0  0.38536443711E+02 -0.16513228708E+02  0.12895021459E+03  0.13559462401E+03  0.00000000000E+00 0.  1.
</event>
<event>
 7    1  0.2440960E-009  0.1281831E+03  0.7561462E-02  0.1230177E+00
          2   -1    0    0  501    0  0.00000000000E+00  0.00000000000E+00  0.38540241076E+03  0.38540241076E+03  0.00000000000E+00 0. -1.
         -2   -1    0    0    0  501 -0.00000000000E+00 -0.00000000000E+00 -0.77300482569E+02  0.77300482569E+02  0.00000000000E+00 0.  1.
         25    2    1    2    0    0  0.32108289948E+01 -0.95796978694E+02  0.28642828660E+03  0.32692194543E+03  0.12509765981E+03 0.  0.
          5    1    3    3  502    0  0.63601410888E+02 -0.46755759416E+02  0.15897385385E+03  0.17754266843E+03  0.41800000000E+01 0. -1.
         -5    1    3    3    0  502 -0.60390581893E+02 -0.49041219277E+02  0.12745443274E+03  0.14937927699E+03  0.41800000000E+01 0. -1.
        -11    1    1    2    0    0  0.11290827271E+02  0.54031785894E+02 -0.33891524657E+02  0.64773081685E+02  0.00000000000E+00 0.  1.
         11    1    1    2    0    0 -0.14501656266E+02  0.41765192800E+02  0.55565166258E+02  0.71007866221E+02  0.00000000000E+00 0. -1.
</event>
<event>
 7    1  0.2440960E-009  0.9110057E+02  0.7561462E-02  0.1300208E+00
         -1   -1    0    0    0  501 -0.00000000000E+00  0.00000000000E+00  0.14519481547E+03  0.14519481547E+03  0.00000000000E+00 0.  1.
          1   -1    0    0  501    0  0.00000000000E+00 -0.00000000000E+00 -0.94695008715E+02  0.94695008715E+02  0.00000000000E+00 0. -1.
         25    2    1    2    0    0 -0.22639217257E+02 -0.30500296941E+02  0.52696203272E+02  0.14095039515E+03  0.12508925526E+03 0.  0.
          5    1    3    3  502    0 -0.43134782537E+02  0.42629703713E+01  0.80668051252E+02  0.91671092901E+02  0.41800000000E+01 0.  1.
         -5    1    3    3    0  502  0.20495565281E+02 -0.34763267312E+02 -0.27971847980E+02  0.49279302246E+02  0.41800000000E+01 0.  1.
        -11    1    1    2    0    0  0.16418541646E+02  0.62943543238E+02  0.46043906185E+01  0.65212411074E+02  0.00000000000E+00 0.  1.
         11    1    1    2    0    0  0.62206756107E+01 -0.32443246297E+02 -0.68007871326E+01  0.33727017967E+02  0.00000000000E+00 0. -1.
</event>
<event>
 7    1  0.2440960E-009  0.9286756E+02  0.7561462E-02  0.1296052E+00
          2   -1    0    0  501    0  0.00000000000E+00  0.00000000000E+00  0.38728253822E+03  0.38728253822E+03  0.00000000000E+00 0. -1.
         -2   -1    0    0    0  501 -0.00000000000E+00 -0.00000000000E+00 -0.39884870560E+02  0.39884870560E+02  0.00000000000E+00 0.  1.
         25    2    1    2    0    0 -0.24261489057E+02  0.46924438911E+02  0.14238531412E+03  0.19675336493E+03  0.12509111126E+03 0.  0.
          5    1    3    3  502    0  0.11436085943E+02 -0.38329399840E+02  0.25250963992E+02  0.47486951221E+02  0.41800000000E+01 0. -1.
         -5    1    3    3    0  502 -0.35697575000E+02  0.85253838751E+02  0.11713435013E+03  0.14926641371E+03  0.41800000000E+01 0. -1.
        -11    1    1    2    0    0  0.65432659532E+01 -0.17076441550E+02 -0.38491933358E+01  0.18687842965E+02  0.00000000000E+00 0.  1.
         11    1    1    2    0    0  0.17718223104E+02 -0.29847997362E+02  0.20886154687E+03  0.21172620088E+03  0.00000000000E+00 0. -1.
</event>
<event>
 7    1  0.2440960E-009  0.1521813E+03  0.7561462E-02  0.1197818E+00
         -2   -1    0    0    0  501 -0.00000000000E+00  0.00000000000E+00  0.52589463888E+03  0.52589463888E+03  0.00000000000E+00 0.  1.
          2   -1    0    0  501    0  0.00000000000E+00 -0.00000000000E+00 -0.62571062351E+02  0.62571062351E+02  0.00000000000E+00 0. -1.
         25    2    1    2    0    0 -0.12426804204E+02  0.11759468983E+03  0.10933225113E+03  0.20392249585E+03  0.12509159300E+03 0.  0.
          5    1    3    3  502    0 -0.64787545208E+02  0.77012861858E+02  0.89235577896E+02  0.13456919286E+03  0.41800000000E+01 0. -1.
         -5    1    3    3    0  502  0.52360741004E+02  0.40581827977E+02  0.20096673230E+02  0.69353302988E+02  0.41800000000E+01 0. -1.
        -11    1    1    2    0    0 -0.15632948014E+02 -0.10558551461E+03  0.19174706189E+03  0.21945301480E+03  0.00000000000E+00 0. -1.
         11    1    1    2    0    0  0.28059752219E+02 -0.12009175222E+02  0.16224426351E+03  0.16509019058E+03  0.00000000000E+00 0.  1.
</event>
<event>
 7    1  0.2440960E-009  0.1506125E+03  0.7561462E-02  0.1199722E+00
          1   -1    0    0  501    0  0.00000000000E+00  0.00000000000E+00  0.15423173226E+03  0.15423173226E+03  0.00000000000E+00 0. -1.
         -1   -1    0    0    0  501 -0.00000000000E+00 -0.00000000000E+00 -0.18357277099E+03  0.18357277099E+03  0.00000000000E+00 0.  1.
         25    2    1    2    0    0  0.39490444154E+02 -0.11787236405E+03  0.23332412223E+02  0.17788530702E+03  0.12508153983E+03 0.  0.
          5    1    3    3  502    0  0.69329909505E+02 -0.32765369568E+02 -0.17551494313E+02  0.78776475851E+02  0.41800000000E+01 0. -1.
         -5    1    3    3    0  502 -0.29839465351E+02 -0.85106994484E+02  0.40883906535E+02  0.99108831171E+02  0.41800000000E+01 0. -1.
        -11    1    1    2    0    0  0.12249052077E+02  0.24729265473E+02  0.17186049256E+02  0.32510554235E+02  0.00000000000E+00 0. -1.
         11    1    1    2    0    0 -0.51739496231E+02  0.93143098579E+02 -0.69859500212E+02  0.12740864199E+03  0.00000000000E+00 0.  1.
</event>
<event>
 7    1  0.2440960E-009  0.1381380E+03  0.7561462E-02  0.1215857E+00
          1   -1    0    0  501    0  0.00000000000E+00  0.00000000000E+00  0.72778681280E+02  0.72778681280E+02  0.00000000000E+00 0. -1.
         -1   -1    0    0    0  501 -0.00000000000E+00 -0.00000000000E+00 -0.40605772273E+03  0.40605772273E+03  0.00000000000E+00 0.  1.
         25    2    1    2    0    0  0.91866161925E+02 -0.87099745870E+02 -0.23398138489E+03  0.29397265156E+03  0.12508746521E+03 0.  0.
          5    1    3    3  502    0  0.95872148383E+01  0.98975873519E+01 -0.12672460643E+03  0.12754009251E+03  0.41800000000E+01 0. -1.
         -5    1    3    3    0  502  0.82278947087E+02 -0.96997333221E+02 -0.10725677847E+03  0.16643255905E+03  0.41800000000E+01 0. -1.
        -11    1    1    2    0    0  0.40232746066E+01  0.12475621180E+02 -0.53389172651E+02  0.54974827137E+02  0.00000000000E+00 0.  1.
         11    1    1    2    0    0 -0.95889436532E+02  0.74624124689E+02 -0.45908483909E+02  0.12988892531E+03  0.00000000000E+00 0. -1.
</event>
<event>
 7    1  0.2440960E-009  0.1826133E+03  0.7561462E-02  0.1165298E+00
          4   -1    0    0  501    0  0.00000000000E+00  0.00000000000E+00  0.12306076353E+03  0.12306076353E+03  0.00000000000E+00 0. -1.
         -4   -1    0    0    0  501 -0.00000000000E+00 -0.00000000000E+00 -0.34546257399E+03  0.34546257399E+03  0.00000000000E+00 0.  1.
         25    2    1    2    0    0  0.42305966383E+02  0.16665421417E+03 -0.15365051204E+03  0.26233378725E+03  0.12508842548E+03 0.  0.
          5    1    3    3  502    0  0.28077569900E+02  0.13970074077E+03 -0.45117422162E+02  0.14952491794E+03  0.41800000000E+01 0.  1.
         -5    1    3    3    0  502  0.14228396483E+02  0.26953473398E+02 -0.10853308988E+03  0.11280886931E+03  0.41800000000E+01 0.  1.
        -11    1    1    2    0    0  0.25442622233E+02 -0.64423551485E+02 -0.92647873552E+01  0.69882453425E+02  0.00000000000E+00 0.  1.
         11    1    1    2    0    0 -0.67748588616E+02 -0.10223066268E+03 -0.59486511058E+02  0.13630709684E+03  0.00000000000E+00 0. -1.
</event>
<event>
 7    1  0.2440960E-009  0.1045663E+03  0.7561462E-02  0.1270976E+00
         -1   -1    0    0    0  501 -0.00000000000E+00  0.00000000000E+00  0.47547856653E+02  0.47547856653E+02  0.00000000000E+00 0.  1.
          1   -1    0    0  501    0  0.00000000000E+00 -0.00000000000E+00 -0.41153100229E+03  0.41153100229E+03  0.00000000000E+00 0. -1.
         25    2    1    2    0    0 -0.80610965978E+02  0.25116212772E+02 -0.15750586087E+03  0.21814147606E+03  0.12509458576E+03 0.  0.
          5    1    3    3  502    0 -0.75997328431E+02  0.65721532830E+01 -0.17559785887E+03  0.19149639048E+03  0.41800000000E+01 0. -1.
         -5    1    3    3    0  502 -0.46136375465E+01  0.18544059489E+02  0.18091997997E+02  0.26645085575E+02  0.41800000000E+01 0. -1.
        -11    1    1    2    0    0 -0.13798508124E+02  0.40212305238E+01 -0.29169408174E+01  0.14665526418E+02  0.00000000000E+00 0.  1.
         11    1    1    2    0    0  0.94409474102E+02 -0.29137443296E+02 -0.20356034395E+03  0.22627185647E+03  0.00000000000E+00 0. -1.
</event>
<event>
 7    1  0.2440961E-009  0.2114276E+03  0.7561462E-02  0.1140440E+00
          2   -1    0    0  501    0  0.00000000000E+00  0.00000000000E+00  0.45766707840E+03  0.45766707840E+03  0.00000000000E+00 0. -1.
         -2   -1    0    0    0  501 -0.00000000000E+00 -0.00000000000E+00 -0.14189373846E+03  0.14189373846E+03  0.00000000000E+00 0.  1.
         25    2    1    2    0    0 -0.19850434004E+03  0.19521064751E+02  0.29763813995E+03  0.37950238158E+03  0.12509416568E+03 0.  0.
          5    1    3    3  502    0 -0.46122595918E+02  0.26621682886E+02  0.10658424481E+02  0.54470930471E+02  0.41800000000E+01 0.  1.
         -5    1    3    3    0  502 -0.15238174412E+03 -0.71006181342E+01  0.28697971547E+03  0.32503145111E+03  0.41800000000E+01 0.  1.
        -11    1    1    2    0    0  0.12967333866E+03 -0.53251252751E+02  0.27447726557E+02  0.14284344008E+03  0.00000000000E+00 0. -1.
         11    1    1    2    0    0  0.68831001377E+02  0.33730187999E+02 -0.93125265602E+01  0.77214995201E+02  0.00000000000E+00 0.  1.
</event>
<event>
 7    1  0.2440960E-009  0.2165472E+03  0.7561462E-02  0.1136484E+00
          2   -1    0    0  501    0  0.00000000000E+00  0.00000000000E+00  0.62920643014E+03  0.62920643014E+03  0.00000000000E+00 0. -1.
         -2   -1    0    0    0  501 -0.00000000000E+00 -0.00000000000E+00 -0.10035210230E+03  0.10035210230E+03  0.00000000000E+00 0.  1.
         25    2    1    2    0    0 -0.98847381358E+02 -0.16402964068E+03  0.45046800520E+03  0.50521834345E+03  0.12509045937E+03 0.  0.
          5    1    3    3  502    0 -0.27116763691E+02 -0.15155223515E+03  0.33403324856E+03  0.36783023584E+03  0.41800000000E+01 0. -1.
         -5    1    3    3    0  502 -0.71730617667E+02 -0.12477405531E+02  0.11643475664E+03  0.13738810761E+03  0.41800000000E+01 0. -1.
        -11    1    1    2    0    0  0.62416700390E+02  0.33921702714E+02  0.66084154082E+01  0.71345620446E+02  0.00000000000E+00 0. -1.
         11    1    1    2    0    0  0.36430680968E+02  0.13010793797E+03  0.71777907233E+02  0.15299456855E+03  0.00000000000E+00 0.  1.
</event>
<event>
 7    1  0.2440960E-009  0.1461518E+03  0.7561462E-02  0.1205283E+00
         -2   -1    0    0    0  501 -0.00000000000E+00  0.00000000000E+00  0.68210652596E+02  0.68210652596E+02  0.00000000000E+00 0.  1.
          2   -1    0    0  501    0  0.00000000000E+00 -0.00000000000E+00 -0.50847547108E+03  0.50847547108E+03  0.00000000000E+00 0. -1.
         25    2    1    2    0    0  0.10785723630E+03  0.49787304384E+02 -0.87742506955E+02  0.19353846265E+03  0.12508569023E+03 0.  0.
          5    1    3    3  502    0  0.22086746408E+02  0.76933852317E+02 -0.25679361564E+02  0.84163792747E+02  0.41800000000E+01 0. -1.
         -5    1    3    3    0  502  0.85770489896E+02 -0.27146547933E+02 -0.62063145391E+02  0.10937466991E+03  0.41800000000E+01 0. -1.
        -11    1    1    2    0    0 -0.31189909571E+02 -0.29160866602E+02 -0.24926871332E+03  0.25289930415E+03  0.00000000000E+00 0. -1.
         11    1    1    2    0    0 -0.76667326733E+02 -0.20626437781E+02 -0.10325359820E+03  0.13024835686E+03  0.00000000000E+00 0.  1.
</event>
<event>
 7    1  0.2440960E-009  0.1403892E+03  0.7561462E-02  0.1212806E+00
         -2   -1    0    0    0  501 -0.00000000000E+00  0.00000000000E+00  0.15847037849E+03  0.15847037849E+03  0.00000000000E+00 0.  1.
          2   -1    0    0  501    0  0.00000000000E+00 -0.00000000000E+00 -0.13514372341E+03  0.13514372341E+03  0.00000000000E+00 0. -1.
         25    2    1    2    0    0 -0.84523627128E+02 -0.26177002106E+02 -0.28057276918E+02  0.15577035110E+03  0.12509081705E+03 0.  0.
          5    1    3    3  502    0 -0.88901563126E+01  0.46720426648E+02 -0.38911785421E+01  0.47900384298E+02  0.41800000000E+01 0. -1.
         -5    1    3    3    0  502 -0.75633470816E+02 -0.72897428754E+02 -0.24166098376E+02  0.10786996680E+03  0.41800000000E+01 0. -1.
        -11    1    1    2    0    0  0.10265566107E+03  0.34029222363E+02  0.43575178485E+02  0.11659746526E+03  0.00000000000E+00 0.  1.
         11    1    1    2    0    0 -0.18132033946E+02 -0.78522202564E+01  0.78087535176E+01  0.21246285545E+02  0.00000000000E+00 0. -1.
</event>
<event>
 7    1  0.2440960E-009  0.9805002E+02  0.7561462E-02  0.1284451E+00
          4   -1    0    0  501    0  0.00000000000E+00  0.00000000000E+00  0.32916613088E+03  0.32916613088E+03  0.00000000000E+00 0. -1.
         -4   -1    0    0    0  501 -0.00000000000E+00 -0.00000000000E+00 -0.42471015344E+02  0.42471015344E+02  0.00000000000E+00 0.  1.
         25    2    1    2    0    0  0.29908192070E+01  0.44632852697E+02  0.15302157072E+03  0.20264242868E+03  0.12508923317E+03 0.  0.
          5    1    3    3  502    0 -0.27071873005E+02 -0.28615537156E+02  0.99188742926E+02  0.10680643425E+03  0.41800000000E+01 0.  1.
         -5    1    3    3    0  502  0.30062692212E+02  0.73248389853E+02  0.53832827799E+02  0.95835994427E+02  0.41800000000E+01 0.  1.
        -11    1    1    2    0    0 -0.26720459761E+02 -0.79831992872E-01  0.66408935767E+00  0.26728830084E+02  0.00000000000E+00 0.  1.
         11    1    1    2    0    0  0.23729640554E+02 -0.44553020704E+02  0.13300945546E+03  0.14226588746E+03  0.00000000000E+00 0. -1.
</event>
<event>
 7    1  0.2440960E-009  0.1159577E+03  0.7561462E-02  0.1249919E+00
         -1   -1    0    0    0  501 -0.00000000000E+00  0.00000000000E+00  0.37343639357E+03  0.37343639357E+03  0.00000000000E+00 0.  1.
          1   -1    0    0  501    0  0.00000000000E+00 -0.00000000000E+00 -0.39809835529E+02  0.39809835529E+02  0.00000000000E+00 0. -1.
         25    2    1    2    0    0 -0.28193163994E+02 -0.37048601861E+02  0.14328986998E+03  0.19582434542E+03  0.12509090304E+03 0.  0.
          5    1    3    3  502    0 -0.63395189592E+02  0.16052201440E+02  0.96594190391E+02  0.11672417595E+03  0.41800000000E+01 0. -1.
         -5    1    3    3    0  502  0.35202025597E+02 -0.53100803301E+02  0.46695679593E+02  0.79100169469E+02  0.41800000000E+01 0. -1.
        -11    1    1    2    0    0 -0.33292009203E+02  0.19572375085E+02  0.95922562514E+02  0.10340490193E+03  0.00000000000E+00 0. -1.
         11    1    1    2    0    0  0.61485173197E+02  0.17476226777E+02  0.94414125543E+02  0.11401698175E+03  0.00000000000E+00 0.  1.
</event>
<event>
 7    1  0.2440960E-009  0.1267132E+03  0.7561462E-02  0.1232416E+00
          1   -1    0    0  501    0  0.00000000000E+00  0.00000000000E+00  0.80097920550E+02  0.80097920550E+02  0.00000000000E+00 0. -1.
         -1   -1    0    0    0  501 -0.00000000000E+00 -0.00000000000E+00 -0.50932532297E+03  0.50932532297E+03  0.00000000000E+00 0.  1.
         25    2    1    2    0    0 -0.54428338459E+02  0.10401611402E+03 -0.45300498095E+02  0.17743202643E+03  0.12509273709E+03 0.  0.
          5    1    3    3  502    0 -0.68359430378E+02  0.93698044624E+02 -0.78244282282E+02  0.13997133777E+03  0.41800000000E+01 0.  1.
         -5    1    3    3    0  502  0.13931091919E+02  0.10318069397E+02  0.32943784187E+02  0.37460688658E+02  0.41800000000E+01 0.  1.
        -11    1    1    2    0    0  0.25843943327E+02 -0.72586670917E+02 -0.34777288233E+03  0.35620599642E+03  0.00000000000E+00 0.  1.
         11    1    1    2    0    0  0.28584395132E+02 -0.31429443104E+02 -0.36154022000E+02  0.55785220674E+02  0.00000000000E+00 0. -1.
</event>
<event>
 7    1  0.2440960E-009  0.9795249E+02  0.7561462E-02  0.1284661E+00
         -2   -1    0    0    0  501 -0.00000000000E+00  0.00000000000E+00  0.49736685653E+02  0.49736685653E+02  0.00000000000E+00 0.  1.
          2   -1    0    0  501    0  0.00000000000E+00 -0.00000000000E+00 -0.28760506592E+03  0.28760506592E+03  0.00000000000E+00 0. -1.
         25    2    1    2    0    0 -0.17354629620E+02  0.25788251107E+02 -0.77869554550E+02  0.15059071120E+03  0.12509067795E+03 0.  0.
          5    1    3    3  502    0  0.38749499017E+02  0.34925182502E+01 -0.81038519959E+02  0.89991307774E+02  0.41800000000E+01 0.  1.
         -5    1    3    3    0  502 -0.56104128638E+02  0.22295732857E+02  0.31689654084E+01  0.60599403426E+02  0.41800000000E+01 0.  1.
        -11    1    1    2    0    0 -0.31664508251E+02 -0.34105333399E+02 -0.74186057681E+02  0.87575030706E+02  0.00000000000E+00 0. -1.
         11    1    1    2    0    0  0.49019137871E+02  0.83170822921E+01 -0.85812768036E+02  0.99176009667E+02  0.00000000000E+00 0.  1.
</event>
<event>
 7    1  0.2440960E-009  0.7874479E+02  0.7561462E-02  0.1332652E+00
          2   -1    0    0  501    0  0.00000000000E+00  0.00000000000E+00  0.16901145458E+03  0.16901145458E+03  0.00000000000E+00 0. -1.
         -2   -1    0    0    0  501 -0.00000000000E+00 -0.00000000000E+00 -0.77589319543E+02  0.77589319543E+02  0.00000000000E+00 0.  1.
         25    2    1    2    0    0 -0.11141180221E+02 -0.41904517980E+00  0.12246385521E+02  0.12618278809E+03  0.12509124892E+03 0.  0.
          5    1    3    3  502    0 -0.36163598896E+02  0.51398837091E+02  0.23819723814E+02  0.67338681172E+02  0.41800000000E+01 0. -1.
         -5    1    3    3    0  502  0.25022418674E+02 -0.51817882271E+02 -0.11573338293E+02  0.58844106915E+02  0.41800000000E+01 0. -1.
        -11    1    1    2    0    0  0.30428601472E+01 -0.17174430236E+02  0.94265603978E+02  0.95865656756E+02  0.00000000000E+00 0. -1.
         11    1    1    2    0    0  0.80983200739E+01  0.17593475416E+02 -0.15089854465E+02  0.24552329279E+02  0.00000000000E+00 0.  1.
</event>
<event>
 7    1  0.2440960E-009  0.9363037E+02  0.7561462E-02  0.1294291E+00
         -1   -1    0    0    0  501 -0.00000000000E+00  0.00000000000E+00  0.38747036546E+02  0.38747036546E+02  0.00000000000E+00 0.  1.
          1   -1    0    0  501    0  0.00000000000E+00 -0.00000000000E+00 -0.37201833049E+03  0.37201833049E+03  0.00000000000E+00 0. -1.
         25    2    1    2    0    0 -0.47240017423E+02  0.90801080653E+00 -0.15239455378E+03  0.20273904937E+03  0.12508628377E+03 0.  0.
          5    1    3    3  502    0 -0.62235780806E+02 -0.15434217740E+02 -0.18375727142E+02  0.66832980165E+02  0.41800000000E+01 0. -1.
         -5    1    3    3    0  502  0.14995763383E+02  0.16342228546E+02 -0.13401882664E+03  0.13590606920E+03  0.41800000000E+01 0. -1.
        -11    1    1    2    0    0  0.49606889370E+02  0.37354149375E+02 -0.13226872053E+03  0.14612046530E+03  0.00000000000E+00 0. -1.
         11    1    1    2    0    0 -0.23668719470E+01 -0.38262160182E+02 -0.48608019635E+02  0.61905852368E+02  0.00000000000E+00 0.  1.
</event>
<event>
 7    1  0.2440960E-009  0.2730045E+03  0.7561462E-02  0.1099572E+00
         -3   -1    0    0    0  501 -0.00000000000E+00  0.00000000000E+00  0.96351179003E+02  0.96351179003E+02  0.00000000000E+00 0.  1.
          3   -1    0    0  501    0  0.00000000000E+00 -0.00000000000E+00 -0.84254928655E+03  0.84254928655E+03  0.00000000000E+00 0. -1.
         25    2    1    2    0    0 -0.21406500747E+03 -0.14088640758E+03 -0.28550277518E+03  0.40352529742E+03  0.12509206114E+03 0.  0.
          5    1    3    3  502    0 -0.28480727011E+02 -0.84977692025E+02 -0.71165534119E+02  0.11451797064E+03  0.41800000000E+01 0. -1.
         -5    1    3    3    0  502 -0.18558428046E+03 -0.55908715554E+02 -0.21433724107E+03  0.28900732678E+03  0.41800000000E+01 0. -1.
        -11    1    1    2    0    0  0.10048902674E+03  0.32994220414E+02 -0.26064982392E+03  0.28129165253E+03  0.00000000000E+00 0.  1.
         11    1    1    2    0    0  0.11357598073E+03  0.10789218717E+03 -0.20004550845E+03  0.25408351560E+03  0.00000000000E+00 0. -1.
</event>
<event>
 7    1  0.2440960E-009  0.1456814E+03  0.7561462E-02  0.1205882E+00
         -2   -1    0    0    0  501 -0.00000000000E+00  0.00000000000E+00  0.68800585564E+02  0.68800585564E+02  0.00000000000E+00 0.  1.
          2   -1    0    0  501    0  0.00000000000E+00 -0.00000000000E+00 -0.36543013109E+03  0.36543013109E+03  0.00000000000E+00 0. -1.
         25    2    1    2    0    0  0.65751431558E+02  0.84827830854E+02 -0.21817096672E+03  0.27342488498E+03  0.12507431937E+03 0.  0.
          5    1    3    3  502    0  0.97823604980E+02  0.84234526675E+02 -0.14984474591E+03  0.19782778736E+03  0.41800000000E+01 0. -1.
         -5    1    3    3    0  502 -0.32072173422E+02  0.59330417890E+00 -0.68326220816E+02  0.75597097622E+02  0.41800000000E+01 0. -1.
        -11    1    1    2    0    0  0.51515298441E+01 -0.51061807439E+02 -0.62144762344E+02  0.80596637185E+02  0.00000000000E+00 0. -1.
         11    1    1    2    0    0 -0.70902961403E+02 -0.33766023415E+02 -0.16313816457E+02  0.80209194487E+02  0.00000000000E+00 0.  1.
</event>
<event>
 7    1  0.2440960E-009  0.1853020E+03  0.7561462E-02  0.1162768E+00
         -2   -1    0    0    0  501 -0.00000000000E+00  0.00000000000E+00  0.47568871635E+03  0.47568871635E+03  0.00000000000E+00 0.  1.
          2   -1    0    0  501    0  0.00000000000E+00 -0.00000000000E+00 -0.87942603733E+02  0.87942603733E+02  0.00000000000E+00 0. -1.
         25    2    1    2    0    0  0.45631487057E+02  0.15787500298E+03  0.27711674109E+03  0.34561142727E+03  0.12508725468E+03 0.  0.
          5    1    3    3  502    0  0.84965283434E+02  0.13770704766E+03  0.21008175178E+03  0.26520585437E+03  0.41800000000E+01 0.  1.
         -5    1    3    3    0  502 -0.39333796377E+02  0.20167955323E+02  0.67034989319E+02  0.80405572893E+02  0.41800000000E+01 0.  1.
        -11    1    1    2    0    0 -0.16119370908E+02 -0.54036824553E+02  0.92825227636E+02  0.10861093597E+03  0.00000000000E+00 0.  1.
         11    1    1    2    0    0 -0.29512116149E+02 -0.10383817843E+03  0.17804143885E+02  0.10940895685E+03  0.00000000000E+00 0. -1.
</event>
<event>
 7    1  0.2440960E-009  0.7612778E+02  0.7561462E-02  0.1340414E+00
         -1   -1    0    0    0  501 -0.00000000000E+00  0.00000000000E+00  0.41394928470E+02  0.41394928470E+02  0.00000000000E+00 0.  1.
          1   -1    0    0  501    0  0.00000000000E+00 -0.00000000000E+00 -0.29343466762E+03  0.29343466762E+03  0.00000000000E+00 0. -1.
         25    2    1    2    0    0  0.20150766601E+02 -0.24738663732E+01 -0.12893654406E+03  0.18078852451E+03  0.12509070626E+03 0.  0.
          5    1    3    3  502    0 -0.15852206525E+02 -0.49419389541E+02 -0.18177202586E+02  0.55149357278E+02  0.41800000000E+01 0.  1.
         -5    1    3    3    0  502  0.36002973127E+02  0.46945523168E+02 -0.11075934147E+03  0.12563916723E+03  0.41800000000E+01 0.  1.
        -11    1    1    2    0    0 -0.18536988382E+02  0.17662684257E+02 -0.13326036548E+03  0.13569788267E+03  0.00000000000E+00 0. -1.
         11    1    1    2    0    0 -0.16137782193E+01 -0.15188817884E+02  0.10157170392E+02  0.18343188906E+02  0.00000000000E+00 0.  1.
</event>
<event>
 7    1  0.2440960E-009  0.2698306E+03  0.7561462E-02  0.1101377E+00
          2   -1    0    0  501    0  0.00000000000E+00  0.00000000000E+00  0.18387736626E+04  0.18387736626E+04  0.00000000000E+00 0. -1.
         -2   -1    0    0    0  501 -0.00000000000E+00 -0.00000000000E+00 -0.54169895045E+02  0.54169895045E+02  0.00000000000E+00 0.  1.
         25    2    1    2    0    0 -0.18039275568E+03  0.18203797988E+03  0.13426146709E+04  0.13725672838E+04  0.12508965444E+03 0.  0.
          5    1    3    3  502    0 -0.19153802133E+03  0.18935997718E+03  0.12341034397E+04  0.12631598422E+04  0.41800000000E+01 0. -1.
         -5    1    3    3    0  502  0.11145265650E+02 -0.73219973078E+01  0.10851123122E+03  0.10940744166E+03  0.41800000000E+01 0. -1.
        -11    1    1    2    0    0  0.70431336333E+02 -0.68196496856E+02  0.84545169324E+02  0.12945740990E+03  0.00000000000E+00 0.  1.
         11    1    1    2    0    0  0.10996141934E+03 -0.11384148302E+03  0.35744392734E+03  0.39091886395E+03  0.00000000000E+00 0. -1.
</event>
<event>
 7    1  0.2440960E-009  0.7774418E+02  0.7561462E-02  0.1335578E+00
          1   -1    0    0  501    0  0.00000000000E+00  0.00000000000E+00  0.20282338420E+03  0.20282338420E+03  0.00000000000E+00 0. -1.
         -1   -1    0    0    0  501 -0.00000000000E+00 -0.00000000000E+00 -0.71388098654E+02  0.71388098654E+02  0.00000000000E+00 0.  1.
         25    2    1    2    0    0  0.50369131571E+02  0.16314985701E+02  0.10068250925E+03  0.16908136502E+03  0.12509321385E+03 0.  0.
          5    1    3    3  502    0  0.26993150473E+02  0.25960867638E+02  0.12692360692E+03  0.13239966471E+03  0.41800000000E+01 0. -1.
         -5    1    3    3    0  502  0.23375981099E+02 -0.96458819375E+01 -0.26241097667E+02  0.36681700308E+02  0.41800000000E+01 0. -1.
        -11    1    1    2    0    0  0.86559622645E+01 -0.30301753425E+02 -0.87940049727E+01  0.32717831022E+02  0.00000000000E+00 0.  1.
         11    1    1    2    0    0 -0.59025093836E+02  0.13986767724E+02  0.39546781267E+02  0.72412286818E+02  0.00000000000E+00 0. -1.
</event>
<event>
 7    1  0.2440960E-009  0.1038138E+03  0.7561462E-02  0.1272474E+00
         -2   -1    0    0    0  501 -0.00000000000E+00  0.00000000000E+00  0.28811233770E+03  0.28811233770E+03  0.00000000000E+00 0.  1.
          2   -1    0    0  501    0  0.00000000000E+00 -0.00000000000E+00 -0.64949625937E+02  0.64949625937E+02  0.00000000000E+00 0. -1.
         25    2    1    2    0    0  0.84374367655E+02 -0.51396908224E+01  0.11627114278E+03  0.19055936400E+03  0.12509373375E+03 0.  0.
          5    1    3    3  502    0  0.24968111522E+02  0.40432774141E+02 -0.50106408578E+01  0.47966600250E+02  0.41800000000E+01 0.  1.
         -5    1    3    3    0  502  0.59406256133E+02 -0.45572464964E+02  0.12128178364E+03  0.14259276375E+03  0.41800000000E+01 0.  1.
        -11    1    1    2    0    0 -0.31191140797E+02 -0.20924661254E+01  0.10417145004E+03  0.10876100718E+03  0.00000000000E+00 0.  1.
         11    1    1    2    0    0 -0.53183226857E+02  0.72321569478E+01  0.27201189402E+01  0.53741592460E+02  0.00000000000E+00 0. -1.
</event>
<event>
 7    1  0.2440960E-009  0.9947031E+02  0.7561462E-02  0.1281414E+00
          2   -1    0    0  501    0  0.00000000000E+00  0.00000000000E+00  0.69226406572E+02  0.69226406572E+02  0.00000000000E+00 0. -1.
         -2   -1    0    0    0  501 -0.00000000000E+00 -0.00000000000E+00 -0.22992450982E+03  0.22992450982E+03  0.00000000000E+00 0.  1.
         25    2    1    2    0    0 -0.15444632394E+02  0.56786576167E+00 -0.16450174617E+03  0.20723749607E+03  0.12509075162E+03 0.  0.
          5    1    3    3  502    0  0.36285126040E+02 -0.37475013407E+02 -0.11400381293E+03  0.12544053876E+03  0.41800000000E+01 0. -1.
         -5    1    3    3    0  502 -0.51729758434E+02  0.38042879169E+02 -0.50497933246E+02  0.81796957310E+02  0.41800000000E+01 0. -1.
        -11    1    1    2    0    0 -0.30938526541E+02 -0.14020919369E+02  0.21815162607E+02  0.40369294321E+02  0.00000000000E+00 0.  1.
         11    1    1    2    0    0  0.46383158934E+02  0.13453053608E+02 -0.18011519679E+02  0.51544126001E+02  0.00000000000E+00 0. -1.
</event>
<event>
 7    1  0.2440960E-009  0.1324808E+03  0.7561462E-02  0.1223820E+00
         -1   -1    0    0    0  501 -0.00000000000E+00  0.00000000000E+00  0.14262964325E+03  0.14262964325E+03  0.00000000000E+00 0.  1.
          1   -1    0    0  501    0  0.00000000000E+00 -0.00000000000E+00 -0.22024860744E+03  0.22024860744E+03  0.00000000000E+00 0. -1.
         25    2    1    2    0    0 -0.10022753154E+03  0.26077395283E+02 -0.13794014808E+03  0.21307451269E+03  0.12509066665E+03 0.  0.
          5    1    3    3  502    0 -0.33681889008E+02  0.57525235490E+02 -0.11979000991E+03  0.13715225569E+03  0.41800000000E+01 0. -1.
         -5    1    3    3    0  502 -0.66545642532E+02 -0.31447840207E+02 -0.18150138171E+02  0.75922257008E+02  0.41800000000E+01 0. -1.
        -11    1    1    2    0    0 -0.97988218812E+01  0.36845791804E+01  0.30123531747E+02  0.31890754129E+02  0.00000000000E+00 0.  1.
         11    1    1    2    0    0  0.11002635342E+03 -0.29761974463E+02  0.30197652142E+02  0.11791298387E+03  0.00000000000E+00 0. -1.
</event>
<event>
 7    1  0.2440960E-009  0.1194249E+03  0.7561462E-02  0.1244049E+00
          1   -1    0    0  501    0  0.00000000000E+00  0.00000000000E+00  0.10466274850E+04  0.10466274850E+04  0.00000000000E+00 0. -1.
         -1   -1    0    0    0  501 -0.00000000000E+00 -0.00000000000E+00 -0.17379573662E+02  0.17379573662E+02  0.00000000000E+00 0.  1.
         25    2    1    2    0    0  0.83607284420E+01 -0.59728328203E+02  0.81351290670E+03  0.82528011931E+03  0.12508657399E+03 0.  0.
          5    1    3    3  502    0  0.47858770794E+02  0.18109217769E+02  0.28336360841E+03  0.28797710444E+03  0.41800000000E+01 0. -1.
         -5    1    3    3    0  502 -0.39498042352E+02 -0.77837545972E+02  0.53014929829E+03  0.53730301487E+03  0.41800000000E+01 0. -1.
        -11    1    1    2    0    0 -0.91229288756E+01  0.79658165266E+02  0.18955913327E+03  0.20581864865E+03  0.00000000000E+00 0.  1.
         11    1    1    2    0    0  0.76220043367E+00 -0.19929837063E+02  0.26175871347E+02  0.32908290683E+02  0.00000000000E+00 0. -1.
</event>
<event>
 7    1  0.2440960E-009  0.1568723E+03  0.7561462E-02  0.1192274E+00
         -1   -1    0    0    0  501 -0.00000000000E+00  0.00000000000E+00  0.51771872122E+02  0.51771872122E+02  0.00000000000E+00 0.  1.
          1   -1    0    0  501    0  0.00000000000E+00 -0.00000000000E+00 -0.48700960136E+03  0.48700960136E+03  0.00000000000E+00 0. -1.
         25    2    1    2    0    0 -0.11294707697E+03 -0.85739520811E+01 -0.27454747104E+03  0.32226494222E+03  0.12509126382E+03 0.  0.
          5    1    3    3  502    0 -0.13508606755E+03  0.15052009138E+02 -0.21642007153E+03  0.25559719949E+03  0.41800000000E+01 0. -1.
         -5    1    3    3    0  502  0.22138990586E+02 -0.23625961219E+02 -0.58127399502E+02  0.66667742729E+02  0.41800000000E+01 0. -1.
        -11    1    1    2    0    0 -0.33880197583E+01 -0.24051049397E+02 -0.26451525283E+02  0.35911207788E+02  0.00000000000E+00 0.  1.
         11    1    1    2    0    0  0.11633509672E+03  0.32625001478E+02 -0.13423873292E+03  0.18060532347E+03  0.00000000000E+00 0. -1.
</event>
<event>
 7    1  0.2440960E-009  0.1079872E+03  0.7561462E-02  0.1264343E+00
         -1   -1    0    0    0  501 -0.00000000000E+00  0.00000000000E+00  0.12594929507E+03  0.12594929507E+03  0.00000000000E+00 0.  1.
          1   -1    0    0  501    0  0.00000000000E+00 -0.00000000000E+00 -0.16105632885E+03  0.16105632885E+03  0.00000000000E+00 0. -1.
         25    2    1    2    0    0  0.69423133990E+01  0.13831480505E+02  0.71917309411E+02  0.14511675936E+03  0.12508904383E+03 0.  0.
          5    1    3    3  502    0 -0.33425781890E+01  0.68599151794E+02  0.29057561783E+02  0.74691570827E+02  0.41800000000E+01 0.  1.
         -5    1    3    3    0  502  0.10284891588E+02 -0.54767671290E+02  0.42859747628E+02  0.70425188535E+02  0.41800000000E+01 0.  1.
        -11    1    1    2    0    0 -0.28771249236E+02 -0.44892492187E+02 -0.76112969393E+02  0.92931720888E+02  0.00000000000E+00 0. -1.
         11    1    1    2    0    0  0.21828935837E+02  0.31061011683E+02 -0.30911373795E+02  0.48957143671E+02  0.00000000000E+00 0.  1.
</event>
<event>
 7    1  0.2440960E-009  0.1381632E+03  0.7561462E-02  0.1215822E+00
          2   -1    0    0  501    0  0.00000000000E+00  0.00000000000E+00  0.27616328548E+03  0.27616328548E+03  0.00000000000E+00 0. -1.
         -2   -1    0    0    0  501 -0.00000000000E+00 -0.00000000000E+00 -0.10505196440E+03  0.10505196440E+03  0.00000000000E+00 0.  1.
         25    2    1    2    0    0  0.14851872000E+02 -0.12601971563E+03  0.54597519769E+02  0.18636123302E+03  0.12509225866E+03 0.  0.
          5    1    3    3  502    0 -0.24649410420E+02 -0.87246301498E+02  0.83896698267E+02  0.12359465579E+03  0.41800000000E+01 0.  1.
         -5    1    3    3    0  502  0.39501282420E+02 -0.38773414136E+02 -0.29299178498E+02  0.62766577231E+02  0.41800000000E+01 0.  1.
        -11    1    1    2    0    0 -0.41981140134E+01  0.11367974374E+03  0.46377293715E+02  0.12284771740E+03  0.00000000000E+00 0.  1.
         11    1    1    2    0    0 -0.10653757987E+02  0.12339971894E+02  0.70136507595E+02  0.72006299469E+02  0.00000000000E+00 0. -1.
</event>
<event>
 7    1  0.2440960E-009  0.9729077E+02  0.7561462E-02  0.1286098E+00
         -1   -1    0    0    0  501 -0.00000000000E+00  0.00000000000E+00  0.19878892568E+03  0.19878892568E+03  0.00000000000E+00 0.  1.
          1   -1    0    0  501    0  0.00000000000E+00 -0.00000000000E+00 -0.11193479940E+03  0.11193479940E+03  0.00000000000E+00 0. -1.
         25    2    1    2    0    0  0.30708862144E+02  0.28425820650E+02  0.14421554735E+03  0.19543640199E+03  0.12508477778E+03 0.  0.
          5    1    3    3  502    0  0.51510391175E+02  0.68103359017E+02  0.10758429285E+03  0.13741630317E+03  0.41800000000E+01 0.  1.
         -5    1    3    3    0  502 -0.20801529031E+02 -0.39677538368E+02  0.36631254497E+02  0.58020098819E+02  0.41800000000E+01 0.  1.
        -11    1    1    2    0    0 -0.35718634454E+02 -0.49829692075E+00  0.14096199899E+02  0.38402760300E+02  0.00000000000E+00 0.  1.
         11    1    1    2    0    0  0.50097723101E+01 -0.27927523729E+02 -0.71457620971E+02  0.76884562788E+02  0.00000000000E+00 0. -1.
</event>
<event>
 7    1  0.2440960E-009  0.1164165E+03  0.7561462E-02  0.1249129E+00
         -2   -1    0    0    0  501 -0.00000000000E+00  0.00000000000E+00  0.53135540907E+03  0.53135540907E+03  0.00000000000E+00 0.  1.
          2   -1    0    0  501    0  0.00000000000E+00 -0.00000000000E+00 -0.33725266034E+02  0.33725266034E+02  0.00000000000E+00 0. -1.
         25    2    1    2    0    0 -0.25866489284E+01  0.45918515934E+02  0.40512382614E+03  0.42648305274E+03  0.12508908390E+03 0.  0.
          5    1    3    3  502    0  0.37485765191E+02 -0.26974931494E+02  0.19539339869E+03  0.20082052229E+03  0.41800000000E+01 0.  1.
         -5    1    3    3    0  502 -0.40072414119E+02  0.72893447428E+02  0.20973042745E+03  0.22566253045E+03  0.41800000000E+01 0.  1.
        -11    1    1    2    0    0  0.47387923259E+02 -0.20175758998E+02  0.44418772431E+02  0.68012527274E+02  0.00000000000E+00 0. -1.
         11    1    1    2    0    0 -0.44801274330E+02 -0.25742756937E+02  0.48087544469E+02  0.70585095094E+02  0.00000000000E+00 0.  1.
</event>
<event>
 7    1  0.2440960E-009  0.1442376E+03  0.7561462E-02  0.1207738E+00
          1   -1    0    0  501    0  0.00000000000E+00  0.00000000000E+00  0.49486155475E+03  0.49486155475E+03  0.00000000000E+00 0. -1.
         -1   -1    0    0    0  501 -0.00000000000E+00 -0.00000000000E+00 -0.44160485587E+02  0.44160485587E+02  0.00000000000E+00 0.  1.
         25    2    1    2    0    0 -0.55752183717E+02 -0.82194421371E+02  0.25269786824E+03  0.29895248024E+03  0.12510852862E+03 0.  0.
          5    1    3    3  502    0 -0.63536433534E+02  0.93675199317E+01  0.13513851118E+03  0.14968138969E+03  0.41800000000E+01 0.  1.
         -5    1    3    3    0  502  0.77842498173E+01 -0.91561941303E+02  0.11755935706E+03  0.14927109055E+03  0.41800000000E+01 0.  1.
        -11    1    1    2    0    0  0.45580457680E+02 -0.36103664414E+01  0.43848835526E+02  0.63350874068E+02  0.00000000000E+00 0. -1.
         11    1    1    2    0    0  0.10171726037E+02  0.85804787813E+02  0.15415436540E+03  0.17671868603E+03  0.00000000000E+00 0.  1.
</event>
<event>
 7    1  0.2440960E-009  0.1297598E+03  0.7561462E-02  0.1227813E+00
         -1   -1    0    0    0  501 -0.00000000000E+00  0.00000000000E+00  0.14269932266E+03  0.14269932266E+03  0.00000000000E+00 0.  1.
          1   -1    0    0  501    0  0.00000000000E+00 -0.00000000000E+00 -0.13216098203E+03  0.13216098203E+03  0.00000000000E+00 0. -1.
         25    2    1    2    0    0 -0.71489484063E+02  0.46432648038E+02  0.17463900901E+02  0.15238188575E+03  0.12509402118E+03 0.  0.
          5    1    3    3  502    0  0.30134829289E+02  0.31550076549E+02  0.22888315977E+02  0.49445552629E+02  0.41800000000E+01 0. -1.
         -5    1    3    3    0  502 -0.10162431335E+03  0.14882571488E+02 -0.54244150760E+01  0.10293633312E+03  0.41800000000E+01 0. -1.
        -11    1    1    2    0    0 -0.10921516987E+02  0.85141560234E+01  0.15641707912E+02  0.20890988787E+02  0.00000000000E+00 0.  1.
         11    1    1    2    0    0  0.82411001050E+02 -0.54946804061E+02 -0.22567268192E+02  0.10158743015E+03  0.00000000000E+00 0. -1.
</event>
<event>
 7    1  0.2440960E-009  0.2227373E+03  0.7561462E-02  0.1131859E+00
         -2   -1    0    0    0  501 -0.00000000000E+00  0.00000000000E+00  0.21908080432E+03  0.21908080432E+03  0.00000000000E+00 0.  1.
          2   -1    0    0  501    0  0.00000000000E+00 -0.00000000000E+00 -0.31586670978E+03  0.31586670978E+03  0.00000000000E+00 0. -1.
         25    2    1    2    0    0  0.21130771598E+03  0.23839340711E+02  0.62110431719E+02  0.25441070641E+03  0.12509131388E+03 0.  0.
          5    1    3    3  502    0  0.14915720919E+03  0.29084420829E+02 -0.17680672446E+02  0.15304853860E+03  0.41800000000E+01 0.  1.
         -5    1    3    3    0  502  0.62150506791E+02 -0.52450801181E+01  0.79791104165E+02  0.10136216781E+03  0.41800000000E+01 0.  1.
        -11    1    1    2    0    0 -0.86173736600E+02 -0.54683802646E+02 -0.63644290312E+02  0.12027812287E+03  0.00000000000E+00 0.  1.
         11    1    1    2    0    0 -0.12513397938E+03  0.30844461935E+02 -0.95252046863E+02  0.16025868482E+03  0.00000000000E+00 0. -1.
</event>
<event>
 7    1  0.4032965E-009  0.7745947E+02  0.7561462E-02  0.1336420E+00
          1   -1    0    0  501    0  0.00000000000E+00  0.00000000000E+00  0.12929719815E+04  0.12929719815E+04  0.00000000000E+00 0. -1.
         -1   -1    0    0    0  501 -0.00000000000E+00 -0.00000000000E+00 -0.13121021135E+02  0.13121021135E+02  0.00000000000E+00 0.  1.
         25    2    1    2    0    0 -0.67963488251E+01  0.49166455433E+01  0.10654023160E+04  0.10727534923E+04  0.12509035376E+03 0.  0.
          5    1    3    3  502    0 -0.26147722511E+02 -0.33179888109E+02  0.13855405775E+03  0.14491137874E+03  0.41800000000E+01 0. -1.
         -5    1    3    3    0  502  0.19351373686E+02  0.38096533652E+02  0.92684825820E+03  0.92784211354E+03  0.41800000000E+01 0. -1.
        -11    1    1    2    0    0  0.18897742096E+02  0.28386041717E+02  0.29693301580E+02  0.45217078404E+02  0.00000000000E+00 0.  1.
         11    1    1    2    0    0 -0.12101393271E+02 -0.33302687261E+02  0.18475534286E+03  0.18812243198E+03  0.00000000000E+00 0. -1.
</event>
<event>
 7    1  0.2446527E-009  0.1598082E+03  0.7561462E-02  0.1188914E+00
          1   -1    0    0  501    0  0.00000000000E+00  0.00000000000E+00  0.53741849496E+03  0.53741849496E+03  0.00000000000E+00 0. -1.
         -1   -1    0    0    0  501 -0.00000000000E+00 -0.00000000000E+00 -0.64593270621E+02  0.64593270621E+02  0.00000000000E+00 0.  1.
         25    2    1    2    0    0  0.66073816555E+02 -0.13288205023E+03  0.20175399859E+03  0.27995460054E+03  0.12508602604E+03 0.  0.
          5    1    3    3  502    0  0.81883316354E+02 -0.99074122678E+02  0.77496245293E+02  0.15014559506E+03  0.41800000000E+01 0.  1.
         -5    1    3    3    0  502 -0.15809499800E+02 -0.33807927548E+02  0.12425775329E+03  0.12980900548E+03  0.41800000000E+01 0.  1.
        -11    1    1    2    0    0 -0.46154632723E+02  0.49280130935E+02  0.47546674192E+02  0.82580068138E+02  0.00000000000E+00 0.  1.
         11    1    1    2    0    0 -0.19919183831E+02  0.83601919291E+02  0.22352455156E+03  0.23947709691E+03  0.00000000000E+00 0. -1.
</event>
<event>
 7    1  0.2440960E-009  0.1338326E+03  0.7561462E-02  0.1221877E+00
         -1   -1    0    0    0  501 -0.00000000000E+00  0.00000000000E+00  0.14122270686E+03  0.14122270686E+03  0.00000000000E+00 0.  1.
          1   -1    0    0  501    0  0.00000000000E+00 -0.00000000000E+00 -0.23281937102E+03  0.23281937102E+03  0.00000000000E+00 0. -1.
         25    2    1    2    0    0  0.19873470470E+02  0.83328518297E+02 -0.16727963949E+03  0.22576244285E+03  0.12509039141E+03 0.  0.
          5    1    3    3  502    0 -0.46261117787E+02  0.33616824385E+02 -0.28239983354E+02  0.63915185680E+02  0.41800000000E+01 0. -1.
         -5    1    3    3    0  502  0.66134588257E+02  0.49711693911E+02 -0.13903965613E+03  0.16184725717E+03  0.41800000000E+01 0. -1.
        -11    1    1    2    0    0 -0.55361741796E+02 -0.70748688436E+02  0.54630327077E+02  0.10514167588E+03  0.00000000000E+00 0.  1.
         11    1    1    2    0    0  0.35488271326E+02 -0.12579829861E+02  0.21052648255E+02  0.43137959149E+02  0.00000000000E+00 0. -1.
</event>
<event>
 7    1  0.2440960E-009  0.7580168E+02  0.7561462E-02  0.1341406E+00
          2   -1    0    0  501    0  0.00000000000E+00  0.00000000000E+00  0.66974089603E+02  0.66974089603E+02  0.00000000000E+00 0. -1.
         -2   -1    0    0    0  501 -0.00000000000E+00 -0.00000000000E+00 -0.29714043960E+03  0.29714043960E+03  0.00000000000E+00 0.  1.
         25    2    1    2    0    0 -0.62538004835E+02  0.13371000722E+01 -0.20790376169E+03  0.25056806931E+03  0.12509034075E+03 0.  0.
          5    1    3    3  502    0  0.19348005305E+00 -0.11066316891E+02  0.14731216966E+02  0.18893966163E+02  0.41800000000E+01 0.  1.
         -5    1    3    3    0  502 -0.62731484888E+02  0.12403416963E+02 -0.22263497865E+03  0.23167410315E+03  0.41800000000E+01 0.  1.
        -11    1    1    2    0    0  0.59356198071E+02 -0.15359314438E+02  0.23437099415E+02  0.65638132350E+02  0.00000000000E+00 0. -1.
         11    1    1    2    0    0  0.31818067639E+01  0.14022214366E+02 -0.45699687723E+02  0.47908327543E+02  0.00000000000E+00 0.  1.
</event>
<event>
 7    1  0.2440960E-009  0.1970909E+03  0.7561462E-02  0.1152217E+00
          2   -1    0    0  501    0  0.00000000000E+00  0.00000000000E+00  0.40446860034E+03  0.40446860034E+03  0.00000000000E+00 0.  1.
         -2   -1    0    0    0  501 -0.00000000000E+00 -0.00000000000E+00 -0.12580417562E+03  0.12580417562E+03  0.00000000000E+00 0. -1.
         25    2    1    2    0    0  0.12345086608E+03  0.13849942012E+03  0.22357010882E+03  0.31631145378E+03  0.12508851476E+03 0.  0.
          5    1    3    3  502    0  0.36533593241E+02  0.15582928576E+02  0.13678232720E+03  0.14249353857E+03  0.41800000000E+01 0.  1.
         -5    1    3    3    0  502  0.86917272837E+02  0.12291649154E+03  0.86787781615E+02  0.17381791521E+03  0.41800000000E+01 0.  1.
        -11    1    1    2    0    0 -0.26841270432E+02 -0.93112064250E+02  0.44699929880E+02  0.10671641879E+03  0.00000000000E+00 0.  1.
         11    1    1    2    0    0 -0.96609595646E+02 -0.45387355869E+02  0.10394386023E+02  0.10724490340E+03  0.00000000000E+00 0. -1.
</event>
<event>
 7    1  0.2440960E-009  0.1128745E+03  0.7561462E-02  0.1255338E+00
          2   -1    0    0  501    0  0.00000000000E+00  0.00000000000E+00  0.40093761330E+03  0.40093761330E+03  0.00000000000E+00 0. -1.
         -2   -1    0    0    0  501 -0.00000000000E+00 -0.00000000000E+00 -0.49521291065E+02  0.49521291065E+02  0.00000000000E+00 0.  1.
         25    2    1    2    0    0 -0.19491585127E+02 -0.79065202507E+02  0.13134151290E+03  0.19882316241E+03  0.12509527874E+03 0.  0.
          5    1    3    3  502    0 -0.43090399902E+02 -0.66045082916E+02  0.14736472114E+03  0.16719021795E+03  0.41800000000E+01 0. -1.
         -5    1    3    3    0  502  0.23598814775E+02 -0.13020119591E+02 -0.16023208243E+02  0.31632944462E+02  0.41800000000E+01 0. -1.
        -11    1    1    2    0    0  0.49723965831E+02  0.20871872037E+02  0.74473009268E+02  0.91947468316E+02  0.00000000000E+00 0. -1.
         11    1    1    2    0    0 -0.30232380704E+02  0.58193330470E+02  0.14560180007E+03  0.15968827364E+03  0.00000000000E+00 0.  1.
</event>
<event>
 7    1  0.2440960E-009  0.1160290E+03  0.7561462E-02  0.1249796E+00
         -1   -1    0    0    0  501 -0.00000000000E+00  0.00000000000E+00  0.16572564778E+02  0.16572564778E+02  0.00000000000E+00 0.  1.
          1   -1    0    0  501    0  0.00000000000E+00 -0.00000000000E+00 -0.92076332063E+03  0.92076332063E+03  0.00000000000E+00 0. -1.
         25    2    1    2    0    0  0.40788497086E+02 -0.43093250528E+02 -0.47768644925E+03  0.49734656562E+03  0.12509409579E+03 0.  0.
          5    1    3    3  502    0 -0.46926568284E+01 -0.79226313144E+02 -0.30066377152E+03  0.31099036259E+03  0.41800000000E+01 0.  1.
         -5    1    3    3    0  502  0.45481153914E+02  0.36133062616E+02 -0.17702267773E+03  0.18635620302E+03  0.41800000000E+01 0.  1.
        -11    1    1    2    0    0 -0.10937131865E+02 -0.20979860566E+02 -0.35596657010E+02  0.42742220264E+02  0.00000000000E+00 0.  1.
         11    1    1    2    0    0 -0.29851365221E+02  0.64073111094E+02 -0.39090764960E+03  0.39724709953E+03  0.00000000000E+00 0. -1.
</event>
<event>
 7    1  0.2440960E-009  0.1356433E+03  0.7561462E-02  0.1219314E+00
          2   -1    0    0  501    0  0.00000000000E+00  0.00000000000E+00  0.12400441235E+03  0.12400441235E+03  0.00000000000E+00 0. -1.
         -2   -1    0    0    0  501 -0.00000000000E+00 -0.00000000000E+00 -0.22943081917E+03  0.22943081917E+03  0.00000000000E+00 0.  1.
         25    2    1    2    0    0 -0.12477089191E+03  0.28069561686E+02 -0.40888306776E+02  0.18350653055E+03  0.12508843817E+03 0.  0.
          5    1    3    3  502    0 -0.10822287168E+03  0.45885088494E+02 -0.76406158118E+02  0.14026048874E+03  0.41800000000E+01 0.  1.
         -5    1    3    3    0  502 -0.16548020222E+02 -0.17815526808E+02  0.35517851342E+02  0.43246041815E+02  0.41800000000E+01 0.  1.
        -11    1    1    2    0    0  0.10929111601E+03 -0.30148831412E+02 -0.86763954186E+02  0.14276373426E+03  0.00000000000E+00 0.  1.
         11    1    1    2    0    0  0.15479775898E+02  0.20792697260E+01  0.22225854135E+02  0.27164966712E+02  0.00000000000E+00 0. -1.
</event>
<event>
 7    1  0.2440960E-009  0.7082784E+02  0.7561462E-02  0.1357300E+00
          1   -1    0    0  501    0  0.00000000000E+00  0.00000000000E+00  0.41689125863E+02  0.41689125863E+02  0.00000000000E+00 0.  1.
         -1   -1    0    0    0  501 -0.00000000000E+00 -0.00000000000E+00 -0.33167508119E+03  0.33167508119E+03  0.00000000000E+00 0. -1.
         25    2    1    2    0    0 -0.23077315358E+02  0.22122782353E+02 -0.11687604115E+03  0.17415205989E+03  0.12508777313E+03 0.  0.
          5    1    3    3  502    0 -0.13866205685E+02  0.38648219627E+02  0.12663388507E+02  0.43171638247E+02  0.41800000000E+01 0. -1.
         -5    1    3    3    0  502 -0.92111096737E+01 -0.16525437274E+02 -0.12953942966E+03  0.13098042165E+03  0.41800000000E+01 0. -1.
        -11    1    1    2    0    0 -0.21247435049E+02  0.12599317047E+02 -0.99862167594E+01  0.26644339199E+02  0.00000000000E+00 0.  1.
         11    1    1    2    0    0  0.44324750407E+02 -0.34722099400E+02 -0.16312369741E+03  0.17256780796E+03  0.00000000000E+00 0. -1.
</event>
<event>
 7    1  0.2440960E-009  0.1086665E+03  0.7561462E-02  0.1263059E+00
         -3   -1    0    0    0  501 -0.00000000000E+00  0.00000000000E+00  0.66129360366E+01  0.66129360366E+01  0.00000000000E+00 0.  1.
          3   -1    0    0  501    0  0.00000000000E+00 -0.00000000000E+00 -0.26764731217E+04  0.26764731217E+04  0.00000000000E+00 0. -1.
         25    2    1    2    0    0 -0.35721959559E+02 -0.19498346714E+02 -0.21883114825E+04  0.21922616625E+04  0.12509120020E+03 0.  0.
          5    1    3    3  502    0 -0.22835934486E+01  0.47796696656E+02 -0.12556986212E+04  0.12566169817E+04  0.41800000000E+01 0. -1.
         -5    1    3    3    0  502 -0.33438366111E+02 -0.67295043371E+02 -0.93261286135E+03  0.93564468082E+03  0.41800000000E+01 0. -1.
        -11    1    1    2    0    0 -0.27957296931E+02  0.21575976055E+01 -0.11404539621E+03  0.11744197749E+03  0.00000000000E+00 0. -1.
         11    1    1    2    0    0  0.63679256490E+02  0.17340749109E+02 -0.36750330691E+03  0.37338241774E+03  0.00000000000E+00 0.  1.
</event>
<event>
 7    1  0.2440960E-009  0.1033247E+03  0.7561462E-02  0.1273456E+00
         -2   -1    0    0    0  501 -0.00000000000E+00  0.00000000000E+00  0.11588694861E+03  0.11588694861E+03  0.00000000000E+00 0.  1.
          2   -1    0    0  501    0  0.00000000000E+00 -0.00000000000E+00 -0.18635148400E+03  0.18635148400E+03  0.00000000000E+00 0. -1.
         25    2    1    2    0    0  0.14067799558E+01  0.46371060855E+02  0.51770425152E+02  0.14310907088E+03  0.12509106656E+03 0.  0.
          5    1    3    3  502    0  0.13752736418E+01  0.89315291118E+02  0.42352262002E+02  0.98945940300E+02  0.41800000000E+01 0. -1.
         -5    1    3    3    0  502  0.31506314045E-01 -0.42944230263E+02  0.94181631505E+01  0.44163130581E+02  0.41800000000E+01 0. -1.
        -11    1    1    2    0    0 -0.19264016238E+02  0.48237439060E+01 -0.97556853980E+02  0.99557574224E+02  0.00000000000E+00 0.  1.
         11    1    1    2    0    0  0.17857236283E+02 -0.51194804761E+02 -0.24678106565E+02  0.59571787499E+02  0.00000000000E+00 0. -1.
</event>
<event>
 7    1  0.2440960E-009  0.9065834E+02  0.7561462E-02  0.1301265E+00
          2   -1    0    0  501    0  0.00000000000E+00  0.00000000000E+00  0.24723206832E+03  0.24723206832E+03  0.00000000000E+00 0. -1.
         -2   -1    0    0    0  501 -0.00000000000E+00 -0.00000000000E+00 -0.57542776134E+02  0.57542776134E+02  0.00000000000E+00 0.  1.
         25    2    1    2    0    0  0.33807813736E+02  0.54471169907E+01  0.59088816269E+02  0.14251762537E+03  0.12508855256E+03 0.  0.
          5    1    3    3  502    0  0.17382842193E+02 -0.49157827721E+02  0.66780471839E+02  0.84827820012E+02  0.41800000000E+01 0.  1.
         -5    1    3    3    0  502  0.16424971544E+02  0.54604944712E+02 -0.76916555706E+01  0.57689805361E+02  0.41800000000E+01 0.  1.
        -11    1    1    2    0    0 -0.32878280996E+02 -0.31636951777E+02  0.22214424408E+02  0.50747992382E+02  0.00000000000E+00 0.  1.
         11    1    1    2    0    0 -0.92953274073E+00  0.26189834787E+02  0.10838605151E+03  0.11150922670E+03  0.00000000000E+00 0. -1.
</event>
<event>
 7    1  0.2440960E-009  0.1047590E+03  0.7561462E-02  0.1270595E+00
         -1   -1    0    0    0  501 -0.00000000000E+00  0.00000000000E+00  0.28584691530E+02  0.28584691530E+02  0.00000000000E+00 0.  1.
          1   -1    0    0  501    0  0.00000000000E+00 -0.00000000000E+00 -0.64912884455E+03  0.64912884455E+03  0.00000000000E+00 0. -1.
         25    2    1    2    0    0  0.54682165930E+02  0.55895461784E+02 -0.29217044017E+03  0.32730003607E+03  0.12508919050E+03 0.  0.
          5    1    3    3  502    0  0.28612001000E+02 -0.25411065154E+01 -0.88589598803E+00  0.29040678973E+02  0.41800000000E+01 0.  1.
         -5    1    3    3    0  502  0.26070164930E+02  0.58436568300E+02 -0.29128454419E+03  0.29825935710E+03  0.41800000000E+01 0.  1.
        -11    1    1    2    0    0  0.15365242421E+02 -0.42309936239E+02 -0.18324726080E+03  0.18869493891E+03  0.00000000000E+00 0. -1.
         11    1    1    2    0    0 -0.70047408351E+02 -0.13585525545E+02 -0.14512645204E+03  0.16171856110E+03  0.00000000000E+00 0.  1.
</event>
<event>
 7    1  0.2520235E-009  0.1616519E+03  0.7561462E-02  0.1186844E+00
         -2   -1    0    0    0  501 -0.00000000000E+00  0.00000000000E+00  0.15463050391E+02  0.15463050391E+02  0.00000000000E+00 0.  1.
          2   -1    0    0  501    0  0.00000000000E+00 -0.00000000000E+00 -0.17501098228E+04  0.17501098228E+04  0.00000000000E+00 0. -1.
         25    2    1    2    0    0 -0.35611687053E+01  0.12092209959E+03 -0.10552451021E+04  0.10694972748E+04  0.12508940472E+03 0.  0.
          5    1    3    3  502    0 -0.58709349614E+02  0.96162190821E+02 -0.64016374655E+03  0.65001619170E+03  0.41800000000E+01 0.  1.
         -5    1    3    3    0  502  0.55148180909E+02  0.24759908764E+02 -0.41508135553E+03  0.41948108307E+03  0.41800000000E+01 0.  1.
        -11    1    1    2    0    0  0.41319565269E+02 -0.28695669441E+02 -0.27595425817E+03  0.28050222908E+03  0.00000000000E+00 0. -1.
         11    1    1    2    0    0 -0.37758396563E+02 -0.92226430144E+02 -0.40344741212E+03  0.41557336930E+03  0.00000000000E+00 0.  1.
</event>
<event>
 7    1  0.2440960E-009  0.9460797E+02  0.7561462E-02  0.1292061E+00
         -1   -1    0    0    0  501 -0.00000000000E+00  0.00000000000E+00  0.19463757202E+03  0.19463757202E+03  0.00000000000E+00 0.  1.
          1   -1    0    0  501    0  0.00000000000E+00 -0.00000000000E+00 -0.98100168996E+02  0.98100168996E+02  0.00000000000E+00 0. -1.
         25    2    1    2    0    0 -0.38764433011E+02  0.69052318399E+02  0.72701004640E+02  0.16493710017E+03  0.12509159441E+03 0.  0.
          5    1    3    3  502    0 -0.34308460668E+02  0.33312636361E+02 -0.29603656337E+02  0.56397261310E+02  0.41800000000E+01 0.  1.
         -5    1    3    3    0  502 -0.44559723429E+01  0.35739682038E+02  0.10230466098E+03  0.10853983886E+03  0.41800000000E+01 0.  1.
        -11    1    1    2    0    0  0.54199804191E+02 -0.71080259653E+02  0.46146467306E+02  0.10059581766E+03  0.00000000000E+00 0.  1.
         11    1    1    2    0    0 -0.15435371180E+02  0.20279412534E+01 -0.22310068921E+02  0.27204823184E+02  0.00000000000E+00 0. -1.
</event>
<event>
 7    1  0.2440960E-009  0.1585339E+03  0.7561462E-02  0.1190362E+00
          2   -1    0    0  501    0  0.00000000000E+00  0.00000000000E+00  0.13352873546E+04  0.13352873546E+04  0.00000000000E+00 0. -1.
         -2   -1    0    0    0  501 -0.00000000000E+00 -0.00000000000E+00 -0.23971493667E+02  0.23971493667E+02  0.00000000000E+00 0.  1.
         25    2    1    2    0    0 -0.59032076020E+02  0.12694942589E+03  0.63890876806E+03  0.66592110677E+03  0.12508222816E+03 0.  0.
          5    1    3    3  502    0 -0.72127430836E+01  0.78486913799E+02  0.13008181371E+03  0.15215442800E+03  0.41800000000E+01 0. -1.
         -5    1    3    3    0  502 -0.51819332936E+02  0.48462512094E+02  0.50882695435E+03  0.51376667877E+03  0.41800000000E+01 0. -1.
        -11    1    1    2    0    0 -0.10647062504E+02 -0.85147230843E+02  0.39838853206E+03  0.40752525485E+03  0.00000000000E+00 0. -1.
         11    1    1    2    0    0  0.69679138524E+02 -0.41802195051E+02  0.27401856082E+03  0.28581248666E+03  0.00000000000E+00 0.  1.
</event>
<event>
 7    1  0.2440960E-009  0.9529300E+02  0.7561462E-02  0.1290518E+00
         -1   -1    0    0    0  501 -0.00000000000E+00  0.00000000000E+00  0.16904156216E+03  0.16904156216E+03  0.00000000000E+00 0.  1.
          1   -1    0    0  501    0  0.00000000000E+00 -0.00000000000E+00 -0.93295246709E+02  0.93295246709E+02  0.00000000000E+00 0. -1.
         25    2    1    2    0    0 -0.13139573401E+02 -0.24337692512E+02 -0.19103228463E+02  0.12953127579E+03  0.12509375046E+03 0.  0.
          5    1    3    3  502    0  0.61832505328E+01  0.45544975512E+02 -0.31469952459E+02  0.55860609461E+02  0.41800000000E+01 0. -1.
         -5    1    3    3    0  502 -0.19322823933E+02 -0.69882668024E+02  0.12366723996E+02  0.73670666329E+02  0.41800000000E+01 0. -1.
        -11    1    1    2    0    0  0.40204582232E+02  0.11273918018E+02  0.10205199253E+02  0.42984366364E+02  0.00000000000E+00 0. -1.
         11    1    1    2    0    0 -0.27065008831E+02  0.13063774494E+02  0.84644344661E+02  0.89821166715E+02  0.00000000000E+00 0.  1.
</event>
<event>
 7    1  0.2440960E-009  0.1169399E+03  0.7561462E-02  0.1248232E+00
          2   -1    0    0  501    0  0.00000000000E+00  0.00000000000E+00  0.24207898333E+03  0.24207898333E+03  0.00000000000E+00 0.  1.
         -2   -1    0    0    0  501 -0.00000000000E+00 -0.00000000000E+00 -0.85320981154E+02  0.85320981154E+02  0.00000000000E+00 0. -1.
         25    2    1    2    0    0  0.39874096876E+02 -0.37157013137E+02  0.17285221685E+03  0.22021701808E+03  0.12508820470E+03 0.  0.
          5    1    3    3  502    0  0.58109765010E+02 -0.74342364556E+02  0.12725601795E+03  0.15847743834E+03  0.41800000000E+01 0. -1.
         -5    1    3    3    0  502 -0.18235668134E+02  0.37185351419E+02  0.45596198900E+02  0.61739579741E+02  0.41800000000E+01 0. -1.
        -11    1    1    2    0    0  0.18198444064E+02 -0.11932459405E+02  0.13474554082E+02  0.25595518387E+02  0.00000000000E+00 0.  1.
         11    1    1    2    0    0 -0.58072540940E+02  0.49089472541E+02 -0.29568768755E+02  0.81587428022E+02  0.00000000000E+00 0. -1.
</event>
<event>
 7    1  0.2440960E-009  0.1507759E+03  0.7561462E-02  0.1199523E+00
          3   -1    0    0  501    0  0.00000000000E+00  0.00000000000E+00  0.47562970803E+03  0.47562970803E+03  0.00000000000E+00 0.  1.
         -3   -1    0    0    0  501 -0.00000000000E+00 -0.00000000000E+00 -0.63028272481E+02  0.63028272481E+02  0.00000000000E+00 0. -1.
         25    2    1    2    0    0  0.10758208998E+03 -0.34559865021E+02  0.10340666954E+03  0.19775873688E+03  0.12508912164E+03 0.  0.
          5    1    3    3  502    0  0.11386221815E+03  0.85193942709E+01  0.40663854504E+02  0.12127739387E+03  0.41800000000E+01 0. -1.
         -5    1    3    3    0  502 -0.62801281695E+01 -0.43079259292E+02  0.62742815032E+02  0.76481343014E+02  0.41800000000E+01 0. -1.
        -11    1    1    2    0    0 -0.55837292600E+02 -0.27925325897E+02  0.13586017755E+03  0.14951794178E+03  0.00000000000E+00 0. -1.
         11    1    1    2    0    0 -0.51744797376E+02  0.62485190919E+02  0.17333458846E+03  0.19138130185E+03  0.00000000000E+00 0.  1.
</event>
<event>
 7    1  0.2440960E-009  0.1987476E+03  0.7561462E-02  0.1150800E+00
          1   -1    0    0  501    0  0.00000000000E+00  0.00000000000E+00  0.61880789684E+03  0.61880789684E+03  0.00000000000E+00 0. -1.
         -1   -1    0    0    0  501 -0.00000000000E+00 -0.00000000000E+00 -0.81438365117E+02  0.81438365117E+02  0.00000000000E+00 0.  1.
         25    2    1    2    0    0  0.80172427914E+02  0.17859138919E+03  0.28158529397E+03  0.36504841094E+03  0.12509021570E+03 0.  0.
          5    1    3    3  502    0  0.70532162627E+02  0.10218049097E+03  0.76393694630E+02  0.14583932144E+03  0.41800000000E+01 0.  1.
         -5    1    3    3    0  502  0.96402652865E+01  0.76410898223E+02  0.20519159934E+03  0.21920908950E+03  0.41800000000E+01 0.  1.
        -11    1    1    2    0    0 -0.31893630363E+02 -0.85789202687E+02  0.49858828081E+02  0.10422520661E+03  0.00000000000E+00 0.  1.
         11    1    1    2    0    0 -0.48278797551E+02 -0.92802186503E+02  0.20592540968E+03  0.23097264441E+03  0.00000000000E+00 0. -1.
</event>
<event>
 7    1  0.2440960E-009  0.3494611E+03  0.7561462E-02  0.1062836E+00
         -2   -1    0    0    0  501 -0.00000000000E+00  0.00000000000E+00  0.49843490523E+03  0.49843490523E+03  0.00000000000E+00 0.  1.
          2   -1    0    0  501    0  0.00000000000E+00 -0.00000000000E+00 -0.25627721872E+03  0.25627721872E+03  0.00000000000E+00 0. -1.
         25    2    1    2    0    0 -0.21256769358E+03  0.26544353524E+03  0.12983968682E+03  0.38490478411E+03  0.12509218123E+03 0.  0.
          5    1    3    3  502    0 -0.10137979527E+03  0.21226930952E+03  0.11103990054E+03  0.26016044005E+03  0.41800000000E+01 0.  1.
         -5    1    3    3    0  502 -0.11118789831E+03  0.53174225713E+02  0.18799786272E+02  0.12474434406E+03  0.41800000000E+01 0.  1.
        -11    1    1    2    0    0  0.12687658417E+02 -0.11210362458E+02 -0.14638753467E+02  0.22381733749E+02  0.00000000000E+00 0.  1.
         11    1    1    2    0    0  0.19988003516E+03 -0.25423317278E+03  0.12695675317E+03  0.34742560610E+03  0.00000000000E+00 0. -1.
</event>
<event>
 7    1  0.2440960E-009  0.1914473E+03  0.7561462E-02  0.1157162E+00
          1   -1    0    0  501    0  0.00000000000E+00  0.00000000000E+00  0.65897863166E+03  0.65897863166E+03  0.00000000000E+00 0. -1.
         -1   -1    0    0    0  501 -0.00000000000E+00 -0.00000000000E+00 -0.63540905818E+02  0.63540905818E+02  0.00000000000E+00 0.  1.
         25    2    1    2    0    0 -0.15538801084E+03  0.68696836877E+02  0.25115077048E+03  0.32800559061E+03  0.12508504567E+03 0.  0.
          5    1    3    3  502    0 -0.97045583659E+02  0.10301585769E+03  0.15044918536E+03  0.20659753633E+03  0.41800000000E+01 0. -1.
         -5    1    3    3    0  502 -0.58342427184E+02 -0.34319020809E+02  0.10070158512E+03  0.12140805428E+03  0.41800000000E+01 0. -1.
        -11    1    1    2    0    0  0.80301082463E+02 -0.54558645374E+02  0.10354640931E+03  0.14193931277E+03  0.00000000000E+00 0.  1.
         11    1    1    2    0    0  0.75086928380E+02 -0.14138191502E+02  0.24074054606E+03  0.25257463409E+03  0.00000000000E+00 0. -1.
</event>
<event>
 7    1  0.2440960E-009  0.2001320E+03  0.7561462E-02  0.1149628E+00
         -2   -1    0    0    0  501 -0.00000000000E+00  0.00000000000E+00  0.53629203056E+02  0.53629203056E+02  0.00000000000E+00 0. -1.
          2   -1    0    0  501    0  0.00000000000E+00 -0.00000000000E+00 -0.95295259959E+03  0.95295259959E+03  0.00000000000E+00 0.  1.
         25    2    1    2    0    0  0.11148355302E+03 -0.13838067591E+03 -0.26966527591E+03  0.34633039019E+03  0.12509030371E+03 0.  0.
          5    1    3    3  502    0  0.96479141365E+02 -0.41476961407E+02 -0.20012425978E+03  0.22604370108E+03  0.41800000000E+01 0. -1.
         -5    1    3    3    0  502  0.15004411653E+02 -0.96903714501E+02 -0.69541016131E+02  0.12028668911E+03  0.41800000000E+01 0. -1.
        -11    1    1    2    0    0 -0.67821908513E+02  0.19800275956E+02 -0.26784467640E+03  0.27700655746E+03  0.00000000000E+00 0.  1.
         11    1    1    2    0    0 -0.43661644504E+02  0.11858039995E+03 -0.36181344423E+03  0.38324485499E+03  0.00000000000E+00 0. -1.
</event>
<event>
 7    1  0.2440960E-009  0.6796391E+02  0.7561462E-02  0.1367157E+00
          2   -1    0    0  501    0  0.00000000000E+00  0.00000000000E+00  0.73346314470E+02  0.73346314470E+02  0.00000000000E+00 0. -1.
         -2   -1    0    0    0  501 -0.00000000000E+00 -0.00000000000E+00 -0.12809029946E+03  0.12809029946E+03  0.00000000000E+00 0.  1.
         25    2    1    2    0    0 -0.12932713486E+02  0.21372169282E+01 -0.13499566852E+02  0.12649477349E+03  0.12508743599E+03 0.  0.
          5    1    3    3  502    0  0.42050385371E+02  0.77180389027E+00 -0.46003881967E+02  0.62471274575E+02  0.41800000000E+01 0. -1.
         -5    1    3    3    0  502 -0.54983098856E+02  0.13654130380E+01  0.32504315115E+02  0.64023498918E+02  0.41800000000E+01 0. -1.
        -11    1    1    2    0    0  0.25232513364E+02  0.25077432513E+01  0.58699451801E+01  0.26027384873E+02  0.00000000000E+00 0. -1.
         11    1    1    2    0    0 -0.12299799879E+02 -0.46449601796E+01 -0.47114363316E+02  0.48914455561E+02  0.00000000000E+00 0.  1.
</event>
<event>
 7    1  0.2440960E-009  0.1000280E+03  0.7561462E-02  0.1280237E+00
          3   -1    0    0  501    0  0.00000000000E+00  0.00000000000E+00  0.21338542100E+03  0.21338542100E+03  0.00000000000E+00 0. -1.
         -3   -1    0    0    0  501 -0.00000000000E+00 -0.00000000000E+00 -0.79402427047E+02  0.79402427047E+02  0.00000000000E+00 0.  1.
         25    2    1    2    0    0 -0.57356907157E+02  0.14845767788E+02  0.12038209210E+03  0.18343791716E+03  0.12508960682E+03 0.  0.
          5    1    3    3  502    0 -0.85510206485E+02  0.11484124318E+02  0.12740845707E+03  0.15392942492E+03  0.41800000000E+01 0.  1.
         -5    1    3    3    0  502  0.28153299328E+02  0.33616434703E+01 -0.70263649657E+01  0.29508492244E+02  0.41800000000E+01 0.  1.
        -11    1    1    2    0    0  0.12826721016E+02  0.23159091491E+02 -0.27227061393E+02  0.37976060391E+02  0.00000000000E+00 0.  1.
         11    1    1    2    0    0  0.44530186140E+02 -0.38004859279E+02  0.40827963250E+02  0.71373870496E+02  0.00000000000E+00 0. -1.
</event>
<event>
 7    1  0.2440960E-009  0.1432151E+03  0.7561462E-02  0.1209067E+00
         -2   -1    0    0    0  501 -0.00000000000E+00  0.00000000000E+00  0.55515977897E+02  0.55515977897E+02  0.00000000000E+00 0.  1.
          2   -1    0    0  501    0  0.00000000000E+00 -0.00000000000E+00 -0.42226530571E+03  0.42226530571E+03  0.00000000000E+00 0. -1.
         25    2    1    2    0    0 -0.31269698134E+02  0.10168679811E+03 -0.18896483968E+03  0.25034648828E+03  0.12509058568E+03 0.  0.
          5    1    3    3  502    0  0.32830450545E+02  0.63449985657E+02 -0.36034575759E+02  0.80123044207E+02  0.41800000000E+01 0. -1.
         -5    1    3    3    0  502 -0.64100148679E+02  0.38236812455E+02 -0.15293026392E+03  0.17022344407E+03  0.41800000000E+01 0. -1.
        -11    1    1    2    0    0 -0.11142988393E+02  0.13418316232E+02 -0.35623788449E+02  0.39664489210E+02  0.00000000000E+00 0. -1.
         11    1    1    2    0    0  0.42412686527E+02 -0.11510511434E+03 -0.14216069968E+03  0.18777030612E+03  0.00000000000E+00 0.  1.
</event>
<event>
 7    1  0.2440960E-009  0.1153465E+03  0.7561462E-02  0.1250977E+00
         -2   -1    0    0    0  501 -0.00000000000E+00  0.00000000000E+00  0.47516874237E+02  0.47516874237E+02  0.00000000000E+00 0.  1.
          2   -1    0    0  501    0  0.00000000000E+00 -0.00000000000E+00 -0.34463689615E+03  0.34463689615E+03  0.00000000000E+00 0. -1.
         25    2    1    2    0    0 -0.34259761899E+02 -0.40694254776E+02 -0.22811369157E+03  0.26554162684E+03  0.12508695234E+03 0.  0.
          5    1    3    3  502    0  0.46809406770E+02 -0.25035913056E+02 -0.90650767722E+02  0.10513301857E+03  0.41800000000E+01 0.  1.
         -5    1    3    3    0  502 -0.81069168668E+02 -0.15658341720E+02 -0.13746292385E+03  0.16040860827E+03  0.41800000000E+01 0.  1.
        -11    1    1    2    0    0 -0.87986521681E+01 -0.19133641281E+02 -0.43989859449E+02  0.48771100490E+02  0.00000000000E+00 0. -1.
         11    1    1    2    0    0  0.43058414067E+02  0.59827896057E+02 -0.25016470892E+02  0.77841043059E+02  0.00000000000E+00 0.  1.
</event>
<event>
 7    1  0.2440960E-009  0.1894079E+03  0.7561462E-02  0.1158996E+00
          2   -1    0    0  501    0  0.00000000000E+00  0.00000000000E+00  0.13359260304E+04  0.13359260304E+04  0.00000000000E+00 0. -1.
         -2   -1    0    0    0  501 -0.00000000000E+00 -0.00000000000E+00 -0.31593128887E+02  0.31593128887E+02  0.00000000000E+00 0.  1.
         25    2    1    2    0    0 -0.50734237558E+02 -0.15625183160E+03  0.87690679454E+03  0.90088960938E+03  0.12509182325E+03 0.  0.
          5    1    3    3  502    0 -0.78835807091E+02 -0.90922733211E+02  0.37255162787E+03  0.39152805228E+03  0.41800000000E+01 0. -1.
         -5    1    3    3    0  502  0.28101569533E+02 -0.65329098392E+02  0.50435516667E+03  0.50936155710E+03  0.41800000000E+01 0. -1.
        -11    1    1    2    0    0  0.12350531587E+02  0.14721121331E+03  0.34187788656E+03  0.37243008240E+03  0.00000000000E+00 0. -1.
         11    1    1    2    0    0  0.38383705971E+02  0.90406182895E+01  0.85548220443E+02  0.94199467536E+02  0.00000000000E+00 0.  1.
</event>
<event>
 7    1  0.2440960E-009  0.9944356E+02  0.7561462E-02  0.1281470E+00
         -3   -1    0    0    0  501 -0.00000000000E+00  0.00000000000E+00  0.10032886865E+03  0.10032886865E+03  0.00000000000E+00 0.  1.
          3   -1    0    0  501    0  0.00000000000E+00 -0.00000000000E+00 -0.20271964710E+03  0.20271964710E+03  0.00000000000E+00 0. -1.
         25    2    1    2    0    0 -0.56345031744E+02 -0.24528975808E+02  0.18127966808E+02  0.14054614319E+03  0.12509261340E+03 0.  0.
          5    1    3    3  502    0 -0.49865601009E+01 -0.68512754531E+02  0.23155953999E+02  0.72612216057E+02  0.41800000000E+01 0. -1.
         -5    1    3    3    0  502 -0.51358471643E+02  0.43983778724E+02 -0.50279871915E+01  0.67933927131E+02  0.41800000000E+01 0. -1.
        -11    1    1    2    0    0  0.12850709499E+02  0.10569315566E+02  0.13172986570E+02  0.21222128576E+02  0.00000000000E+00 0.  1.
         11    1    1    2    0    0  0.43494322245E+02  0.13959660242E+02 -0.13369173183E+03  0.14128024399E+03  0.00000000000E+00 0. -1.
</event>
<event>
 7    1  0.2440960E-009  0.9734147E+02  0.7561462E-02  0.1285988E+00
         -1   -1    0    0    0  501 -0.00000000000E+00  0.00000000000E+00  0.10520978919E+03  0.10520978919E+03  0.00000000000E+00 0.  1.
          1   -1    0    0  501    0  0.00000000000E+00 -0.00000000000E+00 -0.13310953694E+03  0.13310953694E+03  0.00000000000E+00 0. -1.
         25    2    1    2    0    0 -0.40189574083E+02 -0.22640124156E+02 -0.10398044490E+02  0.13372688886E+03  0.12508790665E+03 0.  0.
          5    1    3    3  502    0 -0.51870021838E+02 -0.59448810930E+02  0.23227952944E+02  0.82350898504E+02  0.41800000000E+01 0.  1.
         -5    1    3    3    0  502  0.11680447755E+02  0.36808686775E+02 -0.33625997434E+02  0.51375990358E+02  0.41800000000E+01 0.  1.
        -11    1    1    2    0    0 -0.63218079373E+00  0.34356898579E+02  0.26533112210E+02  0.43414308426E+02  0.00000000000E+00 0.  1.
         11    1    1    2    0    0  0.40821754877E+02 -0.11716774424E+02 -0.44034815478E+02  0.61178128840E+02  0.00000000000E+00 0. -1.
</event>
<event>
 7    1  0.2440960E-009  0.1107839E+03  0.7561462E-02  0.1259125E+00
          1   -1    0    0  501    0  0.00000000000E+00  0.00000000000E+00  0.68395187693E+03  0.68395187693E+03  0.00000000000E+00 0. -1.
         -1   -1    0    0    0  501 -0.00000000000E+00 -0.00000000000E+00 -0.26944475939E+02  0.26944475939E+02  0.00000000000E+00 0.  1.
         25    2    1    2    0    0 -0.80614148298E+02  0.15583656908E+01  0.41064591687E+03  0.43678333339E+03  0.12509413204E+03 0.  0.
          5    1    3    3  502    0 -0.49603515862E+00  0.39968047421E+02  0.44384784727E+02  0.59876309011E+02  0.41800000000E+01 0. -1.
         -5    1    3    3    0  502 -0.80118113140E+02 -0.38409681730E+02  0.36626113215E+03  0.37690702438E+03  0.41800000000E+01 0. -1.
        -11    1    1    2    0    0  0.11919683189E+02  0.17470708014E+02  0.40491198327E+01  0.21533691213E+02  0.00000000000E+00 0.  1.
         11    1    1    2    0    0  0.68694465109E+02 -0.19029073705E+02  0.24231236428E+03  0.25257932827E+03  0.00000000000E+00 0. -1.
</event>
<event>
 7    1  0.2440960E-009  0.6405045E+02  0.7561462E-02  0.1381579E+00
          4   -1    0    0  501    0  0.00000000000E+00  0.00000000000E+00  0.48289484048E+02  0.48289484048E+02  0.00000000000E+00 0.  1.
         -4   -1    0    0    0  501 -0.00000000000E+00 -0.00000000000E+00 -0.28509376721E+03  0.28509376721E+03  0.00000000000E+00 0. -1.
         25    2    1    2    0    0 -0.42879696027E+02 -0.48298258333E+01 -0.12191256517E+03  0.17992348947E+03  0.12509113865E+03 0.  0.
          5    1    3    3  502    0  0.13930378451E+01  0.93964684838E+01 -0.13179194936E+03  0.13219994134E+03  0.41800000000E+01 0.  1.
         -5    1    3    3    0  502 -0.44272733872E+02 -0.14226294317E+02  0.98793841896E+01  0.47723548134E+02  0.41800000000E+01 0.  1.
        -11    1    1    2    0    0 -0.40371711543E+01  0.21017690255E+02  0.64562872771E+01  0.22354545399E+02  0.00000000000E+00 0.  1.
         11    1    1    2    0    0  0.46916867181E+02 -0.16187864422E+02 -0.12134800527E+03  0.13110521639E+03  0.00000000000E+00 0. -1.
</event>
<event>
 7    1  0.2440960E-009  0.1176198E+03  0.7561462E-02  0.1247076E+00
          2   -1    0    0  501    0  0.00000000000E+00  0.00000000000E+00  0.15083734297E+04  0.15083734297E+04  0.00000000000E+00 0.  1.
         -2   -1    0    0    0  501 -0.00000000000E+00 -0.00000000000E+00 -0.12536243027E+02  0.12536243027E+02  0.00000000000E+00 0. -1.
         25    2    1    2    0    0  0.16321190423E+02  0.63592916039E+02  0.11048703594E+04  0.11138662058E+04  0.12509585635E+03 0.  0.
          5    1    3    3  502    0  0.68819747172E+02  0.21524957639E+02  0.48637819268E+03  0.49171200933E+03  0.41800000000E+01 0.  1.
         -5    1    3    3    0  502 -0.52498556749E+02  0.42067958401E+02  0.61849216668E+03  0.62215419650E+03  0.41800000000E+01 0.  1.
        -11    1    1    2    0    0 -0.17293771047E+02 -0.78644850124E+02  0.37988835120E+03  0.38832878640E+03  0.00000000000E+00 0.  1.
         11    1    1    2    0    0  0.97258062384E+00  0.15051934085E+02  0.11078476094E+02  0.18714680476E+02  0.00000000000E+00 0. -1.
</event>
<event>
 7    1  0.2440960E-009  0.7104323E+02  0.7561462E-02  0.1356581E+00
         -1   -1    0    0    0  501 -0.00000000000E+00  0.00000000000E+00  0.34117263792E+03  0.34117263792E+03  0.00000000000E+00 0.  1.
          1   -1    0    0  501    0  0.00000000000E+00 -0.00000000000E+00 -0.50042323603E+02  0.50042323603E+02  0.00000000000E+00 0. -1.
         25    2    1    2    0    0 -0.28144258010E+02 -0.10411792994E+02  0.25939329208E+03  0.28953904381E+03  0.12508986059E+03 0.  0.
          5    1    3    3  502    0 -0.97464873104E+01  0.25054960350E+02  0.24554321066E+03  0.24704591831E+03  0.41800000000E+01 0.  1.
         -5    1    3    3    0  502 -0.18397770700E+02 -0.35466753343E+02  0.13850081423E+02  0.42493125501E+02  0.41800000000E+01 0.  1.
        -11    1    1    2    0    0  0.17644954080E+02 -0.28985916907E+02  0.47146118234E+02  0.58088589654E+02  0.00000000000E+00 0.  1.
         11    1    1    2    0    0  0.10499303930E+02  0.39397709901E+02 -0.15409095993E+02  0.43587328064E+02  0.00000000000E+00 0. -1.
</event>
<event>
 7    1  0.2440960E-009  0.1130479E+03  0.7561462E-02  0.1255028E+00
         -1   -1    0    0    0  501 -0.00000000000E+00  0.00000000000E+00  0.36687475442E+02  0.36687475442E+02  0.00000000000E+00 0.  1.
          1   -1    0    0  501    0  0.00000000000E+00 -0.00000000000E+00 -0.45959038183E+03  0.45959038183E+03  0.00000000000E+00 0. -1.
         25    2    1    2    0    0 -0.18803260654E+02  0.45818676262E+02 -0.13750577792E+03  0.19238746886E+03  0.12510869477E+03 0.  0.
          5    1    3    3  502    0 -0.66167354051E+01  0.86930878816E+02 -0.68139540277E+02  0.11073043045E+03  0.41800000000E+01 0. -1.
         -5    1    3    3    0  502 -0.12186525249E+02 -0.41112202554E+02 -0.69366237641E+02  0.81657038404E+02  0.41800000000E+01 0. -1.
        -11    1    1    2    0    0  0.14373427059E+02 -0.69839822514E+02 -0.14730967117E+03  0.16365920516E+03  0.00000000000E+00 0.  1.
         11    1    1    2    0    0  0.44298335947E+01  0.24021146252E+02 -0.13808745730E+03  0.14023118325E+03  0.00000000000E+00 0. -1.
</event>
<event>
 7    1  0.2440960E-009  0.1020767E+03  0.7561462E-02  0.1275989E+00
         -1   -1    0    0    0  501 -0.00000000000E+00  0.00000000000E+00  0.13482926933E+03  0.13482926933E+03  0.00000000000E+00 0. -1.
          1   -1    0    0  501    0  0.00000000000E+00 -0.00000000000E+00 -0.13878744039E+03  0.13878744039E+03  0.00000000000E+00 0.  1.
         25    2    1    2    0    0  0.25963616742E+02 -0.30909516000E+02 -0.74495411893E+02  0.15108459773E+03  0.12508989449E+03 0.  0.
          5    1    3    3  502    0  0.60325364189E+02  0.37079527544E+01 -0.81584804675E+02  0.10161914796E+03  0.41800000000E+01 0.  1.
         -5    1    3    3    0  502 -0.34361747447E+02 -0.34617468754E+02  0.70893927823E+01  0.49465449766E+02  0.41800000000E+01 0.  1.
        -11    1    1    2    0    0 -0.11289533355E+02 -0.29952255569E+02  0.59041006526E+01  0.32549187111E+02  0.00000000000E+00 0.  1.
         11    1    1    2    0    0 -0.14674083387E+02  0.60861771569E+02  0.64633140182E+02  0.89982924888E+02  0.00000000000E+00 0. -1.
</event>
<event>
 7    1  0.2440960E-009  0.1278199E+03  0.7561462E-02  0.1230727E+00
         -3   -1    0    0    0  501 -0.00000000000E+00  0.00000000000E+00  0.44891686191E+03  0.44891686191E+03  0.00000000000E+00 0.  1.
          3   -1    0    0  501    0  0.00000000000E+00 -0.00000000000E+00 -0.95084003078E+02  0.95084003078E+02  0.00000000000E+00 0. -1.
         25    2    1    2    0    0  0.19595322042E+02  0.93251273746E+02  0.37749338547E+03  0.40893550190E+03  0.12508881622E+03 0.  0.
          5    1    3    3  502    0 -0.12370488224E+02  0.93630871108E+02  0.13796474032E+03  0.16724685640E+03  0.41800000000E+01 0. -1.
         -5    1    3    3    0  502  0.31965810266E+02 -0.37959736132E+00  0.23952864515E+03  0.24168864551E+03  0.41800000000E+01 0. -1.
        -11    1    1    2    0    0 -0.52613490082E+02 -0.73491198963E+02 -0.95865235741E+00  0.90388354770E+02  0.00000000000E+00 0.  1.
         11    1    1    2    0    0  0.33018168040E+02 -0.19760074783E+02 -0.22701874279E+02  0.44677008314E+02  0.00000000000E+00 0. -1.
</event>
<event>
 7    1  0.2440960E-009  0.1041011E+03  0.7561462E-02  0.1271901E+00
          1   -1    0    0  501    0  0.00000000000E+00  0.00000000000E+00  0.71141241942E+03  0.71141241942E+03  0.00000000000E+00 0. -1.
         -1   -1    0    0    0  501 -0.00000000000E+00 -0.00000000000E+00 -0.22196889851E+02  0.22196889851E+02  0.00000000000E+00 0.  1.
         25    2    1    2    0    0  0.24602522578E+02 -0.31075034669E+02  0.52820881713E+03  0.54426224790E+03  0.12508356448E+03 0.  0.
          5    1    3    3  502    0 -0.51149249005E+02 -0.16534806432E+02  0.20996014245E+03  0.21677264429E+03  0.41800000000E+01 0. -1.
         -5    1    3    3    0  502  0.75751771583E+02 -0.14540228237E+02  0.31824867468E+03  0.32748960361E+03  0.41800000000E+01 0. -1.
        -11    1    1    2    0    0  0.22700422638E+02  0.59132613922E+01  0.44504744206E+01  0.23876401965E+02  0.00000000000E+00 0.  1.
         11    1    1    2    0    0 -0.47302945216E+02  0.25161773277E+02  0.15655623802E+03  0.16547065941E+03  0.00000000000E+00 0. -1.
</event>
<event>
 7    1  0.2440960E-009  0.1065623E+03  0.7561462E-02  0.1267072E+00
          1   -1    0    0  501    0  0.00000000000E+00  0.00000000000E+00  0.71252243774E+03  0.71252243774E+03  0.00000000000E+00 0. -1.
         -1   -1    0    0    0  501 -0.00000000000E+00 -0.00000000000E+00 -0.24259645799E+02  0.24259645799E+02  0.00000000000E+00 0.  1.
         25    2    1    2    0    0 -0.37155428980E+02 -0.47953718304E+02  0.49406136862E+03  0.51324905553E+03  0.12509145468E+03 0.  0.
          5    1    3    3  502    0  0.25056376066E+02 -0.37255416600E+02  0.38127070336E+03  0.38392787042E+03  0.41800000000E+01 0. -1.
         -5    1    3    3    0  502 -0.62211805047E+02 -0.10698301704E+02  0.11279066526E+03  0.12932118510E+03  0.41800000000E+01 0. -1.
        -11    1    1    2    0    0  0.20229252544E+02 -0.23691018752E+02  0.95153652995E+02  0.10012344734E+03  0.00000000000E+00 0. -1.
         11    1    1    2    0    0  0.16926176436E+02  0.71644737057E+02  0.99047770327E+02  0.12340958068E+03  0.00000000000E+00 0.  1.
</event>
<event>
 7    1  0.2440960E-009  0.1084820E+03  0.7561462E-02  0.1263407E+00
         -2   -1    0    0    0  501 -0.00000000000E+00  0.00000000000E+00  0.16512122868E+02  0.16512122868E+02  0.00000000000E+00 0.  1.
          2   -1    0    0  501    0  0.00000000000E+00 -0.00000000000E+00 -0.89701045276E+03  0.89701045276E+03  0.00000000000E+00 0. -1.
         25    2    1    2    0    0  0.51403158180E+02 -0.17461428745E+02 -0.52205397918E+03  0.53956985799E+03  0.12509231916E+03 0.  0.
          5    1    3    3  502    0  0.84212318656E+02  0.12739600335E+02 -0.41235746517E+03  0.42108213392E+03  0.41800000000E+01 0. -1.
         -5    1    3    3    0  502 -0.32809160476E+02 -0.30201029080E+02 -0.10969651401E+03  0.11848772407E+03  0.41800000000E+01 0. -1.
        -11    1    1    2    0    0 -0.62790722864E+02  0.30318701963E+02 -0.34544731911E+03  0.35241417232E+03  0.00000000000E+00 0. -1.
         11    1    1    2    0    0  0.11387564684E+02 -0.12857273218E+02 -0.12997031594E+02  0.21538545315E+02  0.00000000000E+00 0.  1.
</event>
<event>
 7    1  0.2440960E-009  0.1476659E+03  0.7561462E-02  0.1203371E+00
         -2   -1    0    0    0  501 -0.00000000000E+00  0.00000000000E+00  0.40346144827E+03  0.40346144827E+03  0.00000000000E+00 0. -1.
          2   -1    0    0  501    0  0.00000000000E+00 -0.00000000000E+00 -0.13877855607E+03  0.13877855607E+03  0.00000000000E+00 0.  1.
         25    2    1    2    0    0 -0.13789969942E+03  0.43290786433E+02  0.31114797343E+03  0.36517616664E+03  0.12510056762E+03 0.  0.
          5    1    3    3  502    0 -0.44018393165E+02 -0.54844476757E+01  0.22299941529E+03  0.22740692541E+03  0.41800000000E+01 0.  1.
         -5    1    3    3    0  502 -0.93881306259E+02  0.48775234109E+02  0.88148558142E+02  0.13776924123E+03  0.41800000000E+01 0.  1.
        -11    1    1    2    0    0  0.68255550606E+02 -0.26800422904E+02 -0.70345762016E+02  0.10161500426E+03  0.00000000000E+00 0.  1.
         11    1    1    2    0    0  0.69644148818E+02 -0.16490363530E+02  0.23880680781E+02  0.75448833447E+02  0.00000000000E+00 0. -1.
</event>
<event>
 7    1  0.2440960E-009  0.1056701E+03  0.7561462E-02  0.1268805E+00
         -2   -1    0    0    0  501 -0.00000000000E+00  0.00000000000E+00  0.10094612184E+03  0.10094612184E+03  0.00000000000E+00 0. -1.
          2   -1    0    0  501    0  0.00000000000E+00 -0.00000000000E+00 -0.15858500390E+03  0.15858500390E+03  0.00000000000E+00 0.  1.
         25    2    1    2    0    0 -0.47767688567E+02  0.25413907500E+02  0.51686673017E+01  0.13638591316E+03  0.12508710333E+03 0.  0.
          5    1    3    3  502    0  0.26676898686E+02  0.11525172479E+01 -0.38190338488E+02  0.46786318228E+02  0.41800000000E+01 0. -1.
         -5    1    3    3    0  502 -0.74444587253E+02  0.24261390253E+02  0.43359005790E+02  0.89599594929E+02  0.41800000000E+01 0. -1.
        -11    1    1    2    0    0  0.49132049037E+02 -0.56450276255E+02 -0.45490385400E+02  0.87578348327E+02  0.00000000000E+00 0.  1.
         11    1    1    2    0    0 -0.13643604705E+01  0.31036368755E+02 -0.17317163965E+02  0.35566864252E+02  0.00000000000E+00 0. -1.
</event>
<event>
 7    1  0.2440960E-009  0.1243627E+03  0.7561462E-02  0.1236069E+00
          1   -1    0    0  501    0  0.00000000000E+00  0.00000000000E+00  0.73527840420E+03  0.73527840420E+03  0.00000000000E+00 0. -1.
         -1   -1    0    0    0  501 -0.00000000000E+00 -0.00000000000E+00 -0.22683186683E+02  0.22683186683E+02  0.00000000000E+00 0.  1.
         25    2    1    2    0    0 -0.72391620708E+02 -0.95750027057E+01  0.32497517135E+03  0.35579316278E+03  0.12509070811E+03 0.  0.
          5    1    3    3  502    0  0.17142100330E+02  0.37063479342E+02  0.65033131100E+02  0.76904704962E+02  0.41800000000E+01 0.  1.
         -5    1    3    3    0  502 -0.89533721038E+02 -0.46638482047E+02  0.25994204025E+03  0.27888845781E+03  0.41800000000E+01 0.  1.
        -11    1    1    2    0    0  0.50607666973E+02  0.43222773254E+02  0.22161858182E+03  0.23139606715E+03  0.00000000000E+00 0.  1.
         11    1    1    2    0    0  0.21783953736E+02 -0.33647770548E+02  0.16600146434E+03  0.17077236095E+03  0.00000000000E+00 0. -1.
</event>
<event>
 7    1  0.2440960E-009  0.9959368E+02  0.7561462E-02  0.1281153E+00
          3   -1    0    0  501    0  0.00000000000E+00  0.00000000000E+00  0.49794757805E+03  0.49794757805E+03  0.00000000000E+00 0. -1.
         -3   -1    0    0    0  501 -0.00000000000E+00 -0.00000000000E+00 -0.37467427517E+02  0.37467427517E+02  0.00000000000E+00 0.  1.
         25    2    1    2    0    0  0.17203015896E+02 -0.48868109291E+02  0.37528468034E+03  0.39896063599E+03  0.12508781681E+03 0.  0.
          5    1    3    3  502    0 -0.52898371613E+02 -0.27023581576E+02  0.13216558766E+03  0.14496112114E+03  0.41800000000E+01 0. -1.
         -5    1    3    3    0  502  0.70101387509E+02 -0.21844527716E+02  0.24311909268E+03  0.25399951486E+03  0.41800000000E+01 0. -1.
        -11    1    1    2    0    0 -0.30352163499E+02  0.40091892357E+02  0.10179098830E+03  0.11353421933E+03  0.00000000000E+00 0. -1.
         11    1    1    2    0    0  0.13149147603E+02  0.87762169347E+01 -0.16595518094E+02  0.22920150243E+02  0.00000000000E+00 0.  1.
</event>
<event>
 7    1  0.2440960E-009  0.7711233E+02  0.7561462E-02  0.1337452E+00
          1   -1    0    0  501    0  0.00000000000E+00  0.00000000000E+00  0.14005646330E+03  0.14005646330E+03  0.00000000000E+00 0. -1.
         -1   -1    0    0    0  501 -0.00000000000E+00 -0.00000000000E+00 -0.99340951157E+02  0.99340951157E+02  0.00000000000E+00 0.  1.
         25    2    1    2    0    0 -0.99236387464E+01 -0.14880627533E+02 -0.19657118557E+02  0.12788154536E+03  0.12508947059E+03 0.  0.
          5    1    3    3  502    0 -0.36956071949E+02 -0.45146284055E+02 -0.50071100254E+02  0.76996920059E+02  0.41800000000E+01 0.  1.
         -5    1    3    3    0  502  0.27032433202E+02  0.30265656522E+02  0.30413981697E+02  0.50884625303E+02  0.41800000000E+01 0.  1.
        -11    1    1    2    0    0 -0.11741528430E+02 -0.14357064490E+02  0.71178745869E+02  0.73555439324E+02  0.00000000000E+00 0. -1.
         11    1    1    2    0    0  0.21665167176E+02  0.29237692023E+02 -0.10806115166E+02  0.37960429774E+02  0.00000000000E+00 0.  1.
</event>
<event>
 7    1  0.2440960E-009  0.1668742E+03  0.7561462E-02  0.1181147E+00
          1   -1    0    0  501    0  0.00000000000E+00  0.00000000000E+00  0.18192900610E+03  0.18192900610E+03  0.00000000000E+00 0. -1.
         -1   -1    0    0    0  501 -0.00000000000E+00 -0.00000000000E+00 -0.21013712777E+03  0.21013712777E+03  0.00000000000E+00 0.  1.
         25    2    1    2    0    0 -0.16746166091E+02 -0.14582912941E+03 -0.81258968254E+02  0.20927821662E+03  0.12509109868E+03 0.  0.
          5    1    3    3  502    0  0.40374086429E+02 -0.11489198004E+03 -0.27647017434E+02  0.12494824491E+03  0.41800000000E+01 0. -1.
         -5    1    3    3    0  502 -0.57120252520E+02 -0.30937149364E+02 -0.53611950820E+02  0.84329971715E+02  0.41800000000E+01 0. -1.
        -11    1    1    2    0    0  0.57523870568E+01  0.59152501248E+02  0.72025947431E+02  0.93380112787E+02  0.00000000000E+00 0. -1.
         11    1    1    2    0    0  0.10993779034E+02  0.86676628157E+02 -0.18975100852E+02  0.89407804460E+02  0.00000000000E+00 0.  1.
</event>
<event>
 7    1  0.2440960E-009  0.1489746E+03  0.7561462E-02  0.1201739E+00
         -1   -1    0    0    0  501 -0.00000000000E+00  0.00000000000E+00  0.63566924771E+02  0.63566924771E+02  0.00000000000E+00 0.  1.
          1   -1    0    0  501    0  0.00000000000E+00 -0.00000000000E+00 -0.48978028449E+03  0.48978028449E+03  0.00000000000E+00 0. -1.
         25    2    1    2    0    0  0.12358007322E+03 -0.44092361534E+02 -0.29890774955E+03  0.34958684711E+03  0.12509576368E+03 0.  0.
          5    1    3    3  502    0  0.54336364356E+02 -0.63427892084E+02 -0.24711861923E+03  0.26088430837E+03  0.41800000000E+01 0. -1.
         -5    1    3    3    0  502  0.69243708868E+02  0.19335530550E+02 -0.51789130317E+02  0.88702538737E+02  0.41800000000E+01 0. -1.
        -11    1    1    2    0    0 -0.11497818920E+03  0.19968425667E+02 -0.13359522251E+03  0.17738772644E+03  0.00000000000E+00 0. -1.
         11    1    1    2    0    0 -0.86018840264E+01  0.24123935867E+02  0.62896123427E+01  0.26372635703E+02  0.00000000000E+00 0.  1.
</event>
<event>
 7    1  0.2440960E-009  0.2202004E+03  0.7561462E-02  0.1133734E+00
         -1   -1    0    0    0  501 -0.00000000000E+00  0.00000000000E+00  0.21898374953E+03  0.21898374953E+03  0.00000000000E+00 0.  1.
          1   -1    0    0  501    0  0.00000000000E+00 -0.00000000000E+00 -0.34932637964E+03  0.34932637964E+03  0.00000000000E+00 0. -1.
         25    2    1    2    0    0 -0.17753990257E+03  0.98545819520E+02  0.91327235946E+02  0.25538001665E+03  0.12508634349E+03 0.  0.
          5    1    3    3  502    0 -0.68127913921E+02 -0.24108474800E+02  0.42156356177E+02  0.83769099186E+02  0.41800000000E+01 0.  1.
         -5    1    3    3    0  502 -0.10941198865E+03  0.12265429432E+03  0.49170879769E+02  0.17161091746E+03  0.41800000000E+01 0.  1.
        -11    1    1    2    0    0  0.73447085716E+02 -0.49171925176E+02 -0.38204940504E+02  0.96291069703E+02  0.00000000000E+00 0.  1.
         11    1    1    2    0    0  0.10409281685E+03 -0.49373894344E+02 -0.18346492555E+03  0.21663904281E+03  0.00000000000E+00 0. -1.
</event>
<event>
 7    1  0.2440960E-009  0.1863625E+03  0.7561462E-02  0.1161784E+00
          1   -1    0    0  501    0  0.00000000000E+00  0.00000000000E+00  0.44721889781E+03  0.44721889781E+03  0.00000000000E+00 0. -1.
         -1   -1    0    0    0  501 -0.00000000000E+00 -0.00000000000E+00 -0.91594951636E+02  0.91594951636E+02  0.00000000000E+00 0.  1.
         25    2    1    2    0    0  0.14743402105E+03  0.73258035797E+02  0.13074569503E+03  0.24462740858E+03  0.12507838299E+03 0.  0.
          5    1    3    3  502    0  0.11503868687E+03  0.10757539598E+03  0.11361635571E+03  0.19424858811E+03  0.41800000000E+01 0.  1.
         -5    1    3    3    0  502  0.32395334175E+02 -0.34317360187E+02  0.17129339318E+02  0.50378820470E+02  0.41800000000E+01 0.  1.
        -11    1    1    2    0    0 -0.95547038808E+02 -0.64219998248E+02  0.20995244267E+03  0.23944409156E+03  0.00000000000E+00 0. -1.
         11    1    1    2    0    0 -0.51886982241E+02 -0.90380375488E+01  0.14925808481E+02  0.54742349307E+02  0.00000000000E+00 0.  1.
</event>
<event>
 7    1  0.2440960E-009  0.9463556E+02  0.7561462E-02  0.1291999E+00
          1   -1    0    0  501    0  0.00000000000E+00  0.00000000000E+00  0.35641342367E+03  0.35641342367E+03  0.00000000000E+00 0. -1.
         -1   -1    0    0    0  501 -0.00000000000E+00 -0.00000000000E+00 -0.48101585428E+02  0.48101585428E+02  0.00000000000E+00 0.  1.
         25    2    1    2    0    0 -0.61472070922E+02 -0.12849094792E+02  0.22868244028E+03  0.26811747944E+03  0.12508960607E+03 0.  0.
          5    1    3    3  502    0  0.54678086615E+01  0.18445419073E+02 -0.71486682684E+01  0.20945316287E+02  0.41800000000E+01 0. -1.
         -5    1    3    3    0  502 -0.66939879583E+02 -0.31294513865E+02  0.23583110855E+03  0.24717216315E+03  0.41800000000E+01 0. -1.
        -11    1    1    2    0    0  0.34369654095E+02 -0.29499145412E+02  0.72684543931E+02  0.85641786699E+02  0.00000000000E+00 0.  1.
         11    1    1    2    0    0  0.27102416827E+02  0.42348240203E+02  0.69448540307E+01  0.50755742963E+02  0.00000000000E+00 0. -1.
</event>
<event>
 7    1  0.2440960E-009  0.2709807E+03  0.7561462E-02  0.1100720E+00
         -2   -1    0    0    0  501 -0.00000000000E+00  0.00000000000E+00  0.35169267647E+03  0.35169267647E+03  0.00000000000E+00 0. -1.
          2   -1    0    0  501    0  0.00000000000E+00 -0.00000000000E+00 -0.27046294190E+03  0.27046294190E+03  0.00000000000E+00 0.  1.
         25    2    1    2    0    0 -0.26957933788E+03  0.60866333916E+01  0.14504019448E+03  0.33074792868E+03  0.12508983889E+03 0.  0.
          5    1    3    3  502    0 -0.23552923779E+03  0.32704813493E+01  0.66187784670E+02  0.24471005934E+03  0.41800000000E+01 0. -1.
         -5    1    3    3    0  502 -0.34050100093E+02  0.28161520423E+01  0.78852409808E+02  0.86037869343E+02  0.41800000000E+01 0. -1.
        -11    1    1    2    0    0  0.17789761336E+03  0.12752191452E+02 -0.40245416833E+00  0.17835453792E+03  0.00000000000E+00 0.  1.
         11    1    1    2    0    0  0.91681724523E+02 -0.18838824844E+02 -0.63408005744E+02  0.11305315177E+03  0.00000000000E+00 0. -1.
</event>
<event>
 7    1  0.2440960E-009  0.1153995E+03  0.7561462E-02  0.1250885E+00
          2   -1    0    0  501    0  0.00000000000E+00  0.00000000000E+00  0.10597185606E+04  0.10597185606E+04  0.00000000000E+00 0. -1.
         -2   -1    0    0    0  501 -0.00000000000E+00 -0.00000000000E+00 -0.19879868036E+02  0.19879868036E+02  0.00000000000E+00 0.  1.
         25    2    1    2    0    0  0.71971865479E+02 -0.23849260405E+02  0.78792547009E+03  0.80138789586E+03  0.12508907452E+03 0.  0.
          5    1    3    3  502    0  0.99136418328E+02 -0.40831456307E+02  0.48403139142E+03  0.49578130012E+03  0.41800000000E+01 0. -1.
         -5    1    3    3    0  502 -0.27164552849E+02  0.16982195903E+02  0.30389407867E+03  0.30560659574E+03  0.41800000000E+01 0. -1.
        -11    1    1    2    0    0 -0.75393824760E+02  0.89689480468E+01  0.25174037606E+03  0.26294084464E+03  0.00000000000E+00 0. -1.
         11    1    1    2    0    0  0.34219592813E+01  0.14880312358E+02  0.17284645190E+00  0.15269688179E+02  0.00000000000E+00 0.  1.
</event>
<event>
 7    1  0.2440960E-009  0.2099627E+03  0.7561462E-02  0.1141596E+00
         -1   -1    0    0    0  501 -0.00000000000E+00  0.00000000000E+00  0.21792227256E+03  0.21792227256E+03  0.00000000000E+00 0.  1.
          1   -1    0    0  501    0  0.00000000000E+00 -0.00000000000E+00 -0.23321082299E+03  0.23321082299E+03  0.00000000000E+00 0. -1.
         25    2    1    2    0    0 -0.55124552496E+02 -0.18784715062E+03 -0.32267836979E+02  0.23455045018E+03  0.12508969620E+03 0.  0.
          5    1    3    3  502    0 -0.70627085939E+02 -0.17954922040E+03 -0.59425777906E+02  0.20192821322E+03  0.41800000000E+01 0. -1.
         -5    1    3    3    0  502  0.15502533443E+02 -0.82979302179E+01  0.27157940927E+02  0.32622236963E+02  0.41800000000E+01 0. -1.
        -11    1    1    2    0    0  0.31349370284E+02  0.15656540665E+02  0.24237199986E+02  0.42606949503E+02  0.00000000000E+00 0. -1.
         11    1    1    2    0    0  0.23775182212E+02  0.17219060995E+03 -0.72579134361E+01  0.17397569587E+03  0.00000000000E+00 0.  1.
</event>
<event>
 7    1  0.2440960E-009  0.1039882E+03  0.7561462E-02  0.1272126E+00
         -1   -1    0    0    0  501 -0.00000000000E+00  0.00000000000E+00  0.47538851477E+03  0.47538851477E+03  0.00000000000E+00 0.  1.
          1   -1    0    0  501    0  0.00000000000E+00 -0.00000000000E+00 -0.28531998451E+02  0.28531998451E+02  0.00000000000E+00 0. -1.
         25    2    1    2    0    0  0.43970319400E+02 -0.10944526012E+02  0.24361657684E+03  0.27757891476E+03  0.12509134969E+03 0.  0.
          5    1    3    3  502    0  0.29660549408E+02 -0.54990207448E+02  0.21273189514E+03  0.22175662947E+03  0.41800000000E+01 0.  1.
         -5    1    3    3    0  502  0.14309769992E+02  0.44045681436E+02  0.30884681705E+02  0.55822285284E+02  0.41800000000E+01 0.  1.
        -11    1    1    2    0    0 -0.40254253458E+01 -0.36565413109E+02  0.62508671842E+02  0.72529770029E+02  0.00000000000E+00 0. -1.
         11    1    1    2    0    0 -0.39944894054E+02  0.47509939121E+02  0.14073126764E+03  0.15381182844E+03  0.00000000000E+00 0.  1.
</event>
<event>
 7    1  0.2440960E-009  0.1187073E+03  0.7561462E-02  0.1245245E+00
          2   -1    0    0  501    0  0.00000000000E+00  0.00000000000E+00  0.88785491276E+02  0.88785491276E+02  0.00000000000E+00 0. -1.
         -2   -1    0    0    0  501 -0.00000000000E+00 -0.00000000000E+00 -0.22500404992E+03  0.22500404992E+03  0.00000000000E+00 0.  1.
         25    2    1    2    0    0 -0.87216346667E+02  0.80741065922E+01 -0.42885950349E+02  0.15862645801E+03  0.12510502036E+03 0.  0.
          5    1    3    3  502    0 -0.10783487435E+03  0.15617988142E+02  0.13683650681E+01  0.10904873453E+03  0.41800000000E+01 0.  1.
         -5    1    3    3    0  502  0.20618527680E+02 -0.75438815498E+01 -0.44254315417E+02  0.49577723481E+02  0.41800000000E+01 0.  1.
        -11    1    1    2    0    0  0.28152537754E+02 -0.31713038074E+02 -0.79432896253E+02  0.90043695910E+02  0.00000000000E+00 0.  1.
         11    1    1    2    0    0  0.59063808913E+02  0.23638931482E+02 -0.13899712044E+02  0.65119387280E+02  0.00000000000E+00 0. -1.
</event>
<event>
 7    1  0.2440960E-009  0.1002591E+03  0.7561462E-02  0.1279752E+00
          1   -1    0    0  501    0  0.00000000000E+00  0.00000000000E+00  0.31414325807E+03  0.31414325807E+03  0.00000000000E+00 0. -1.
         -1   -1    0    0    0  501 -0.00000000000E+00 -0.00000000000E+00 -0.46937845196E+02  0.46937845196E+02  0.00000000000E+00 0.  1.
         25    2    1    2    0    0 -0.35062608675E+02 -0.36988939116E+02  0.11468742741E+03  0.17719397252E+03  0.12508768823E+03 0.  0.
          5    1    3    3  502    0 -0.55680422826E+02 -0.48406709974E+02  0.12945977077E+03  0.14906650765E+03  0.41800000000E+01 0. -1.
         -5    1    3    3    0  502  0.20617814151E+02  0.11417770858E+02 -0.14772343355E+02  0.28127464869E+02  0.41800000000E+01 0. -1.
        -11    1    1    2    0    0  0.23467249176E+02 -0.28076920432E+02  0.51826401074E+02  0.63442896317E+02  0.00000000000E+00 0. -1.
         11    1    1    2    0    0  0.11595359499E+02  0.65065859548E+02  0.10069158439E+03  0.12044423443E+03  0.00000000000E+00 0.  1.
</event>
<event>
 7    1  0.2440960E-009  0.1147434E+03  0.7561462E-02  0.1252030E+00
          1   -1    0    0  501    0  0.00000000000E+00  0.00000000000E+00  0.11744046245E+04  0.11744046245E+04  0.00000000000E+00 0. -1.
         -1   -1    0    0    0  501 -0.00000000000E+00 -0.00000000000E+00 -0.19261982753E+02  0.19261982753E+02  0.00000000000E+00 0.  1.
         25    2    1    2    0    0 -0.16010288807E+01  0.98361371245E+02  0.78224983803E+03  0.79827315057E+03  0.12509073177E+03 0.  0.
          5    1    3    3  502    0 -0.51190089262E+01  0.18208304358E+02  0.58458045961E+03  0.58490130173E+03  0.41800000000E+01 0.  1.
         -5    1    3    3    0  502  0.35179800455E+01  0.80153066887E+02  0.19766937842E+03  0.21337184885E+03  0.41800000000E+01 0.  1.
        -11    1    1    2    0    0  0.37337302801E+02 -0.17224068171E+02  0.14947178655E+03  0.15502437770E+03  0.00000000000E+00 0. -1.
         11    1    1    2    0    0 -0.35736273920E+02 -0.81137303074E+02  0.22342101721E+03  0.24036907903E+03  0.00000000000E+00 0.  1.
</event>
<event>
 7    1  0.2440960E-009  0.1317170E+03  0.7561462E-02  0.1224930E+00
          2   -1    0    0  501    0  0.00000000000E+00  0.00000000000E+00  0.24107084252E+03  0.24107084252E+03  0.00000000000E+00 0. -1.
         -2   -1    0    0    0  501 -0.00000000000E+00 -0.00000000000E+00 -0.78202921478E+02  0.78202921478E+02  0.00000000000E+00 0.  1.
         25    2    1    2    0    0  0.76027829558E+02  0.24358536422E+02  0.12649743150E+03  0.19499168620E+03  0.12508632359E+03 0.  0.
          5    1    3    3  502    0  0.17548436210E+02 -0.49873770568E+02  0.55108882911E+02  0.76483998194E+02  0.41800000000E+01 0.  1.
         -5    1    3    3    0  502  0.58479393348E+02  0.74232306990E+02  0.71388548587E+02  0.11850768801E+03  0.41800000000E+01 0.  1.
        -11    1    1    2    0    0  0.14915570380E+02 -0.19744672558E+02 -0.32837306315E+01  0.24962155777E+02  0.00000000000E+00 0.  1.
         11    1    1    2    0    0 -0.90943399938E+02 -0.46138638643E+01  0.39654220175E+02  0.99319922018E+02  0.00000000000E+00 0. -1.
</event>
<event>
 7    1  0.2440960E-009  0.1262517E+03  0.7561462E-02  0.1233126E+00
         -2   -1    0    0    0  501 -0.00000000000E+00  0.00000000000E+00  0.11429259648E+04  0.11429259648E+04  0.00000000000E+00 0.  1.
          2   -1    0    0  501    0  0.00000000000E+00 -0.00000000000E+00 -0.16743866131E+02  0.16743866131E+02  0.00000000000E+00 0. -1.
         25    2    1    2    0    0 -0.84625778121E+02 -0.15117425432E+01  0.64384791002E+03  0.66132560341E+03  0.12509042649E+03 0.  0.
          5    1    3    3  502    0 -0.10526973309E+03 -0.11286424230E+02  0.61609545796E+03  0.62514013292E+03  0.41800000000E+01 0.  1.
         -5    1    3    3    0  502  0.20643954968E+02  0.97746816870E+01  0.27752452067E+02  0.36185470489E+02  0.41800000000E+01 0.  1.
        -11    1    1    2    0    0 -0.18952667782E+02 -0.48189890111E+01  0.11426160675E+03  0.11592299620E+03  0.00000000000E+00 0.  1.
         11    1    1    2    0    0  0.10357844590E+03  0.63307315544E+01  0.36807258189E+03  0.38242123131E+03  0.00000000000E+00 0. -1.
</event>
<event>
 7    1  0.2440960E-009  0.3959552E+03  0.7561462E-02  0.1045189E+00
          1   -1    0    0  501    0  0.00000000000E+00  0.00000000000E+00  0.16492982942E+04  0.16492982942E+04  0.00000000000E+00 0. -1.
         -1   -1    0    0    0  501 -0.00000000000E+00 -0.00000000000E+00 -0.10343199213E+03  0.10343199213E+03  0.00000000000E+00 0.  1.
         25    2    1    2    0    0 -0.37642227834E+03 -0.11078106320E+03  0.64989354680E+03  0.76939991886E+03  0.12509371437E+03 0.  0.
          5    1    3    3  502    0 -0.93545742514E+02  0.32621032783E+01  0.24618901468E+03  0.26341592702E+03  0.41800000000E+01 0. -1.
         -5    1    3    3    0  502 -0.28287653583E+03 -0.11404316648E+03  0.40370453212E+03  0.50598399184E+03  0.41800000000E+01 0. -1.
        -11    1    1    2    0    0  0.20964337284E+02  0.12430972451E+02  0.15895281937E+02  0.29097981058E+02  0.00000000000E+00 0.  1.
         11    1    1    2    0    0  0.35545794106E+03  0.98350090750E+02  0.88007747333E+03  0.95423238641E+03  0.00000000000E+00 0. -1.
</event>
<event>
 7    1  0.2440960E-009  0.1767111E+03  0.7561462E-02  0.1171025E+00
         -1   -1    0    0    0  501 -0.00000000000E+00  0.00000000000E+00  0.44849221774E+03  0.44849221774E+03  0.00000000000E+00 0.  1.
          1   -1    0    0  501    0  0.00000000000E+00 -0.00000000000E+00 -0.10189860021E+03  0.10189860021E+03  0.00000000000E+00 0. -1.
         25    2    1    2    0    0  0.13541473731E+03 -0.65166813876E+02  0.31644042890E+03  0.37197194212E+03  0.12507883901E+03 0.  0.
          5    1    3    3  502    0  0.13589404847E+03 -0.83175417063E+02  0.31547814879E+03  0.35345335926E+03  0.41800000000E+01 0. -1.
         -5    1    3    3    0  502 -0.47931116203E+00  0.18008603187E+02  0.96228011502E+00  0.18518582855E+02  0.41800000000E+01 0. -1.
        -11    1    1    2    0    0 -0.56532250152E+02 -0.19524607659E+02  0.52994179260E+01  0.60043229775E+02  0.00000000000E+00 0. -1.
         11    1    1    2    0    0 -0.78882487158E+02  0.84691421535E+02  0.24853770698E+02  0.11837564606E+03  0.00000000000E+00 0.  1.
</event>
<event>
 7    1  0.2440960E-009  0.8624617E+02  0.7561462E-02  0.1312205E+00
          2   -1    0    0  501    0  0.00000000000E+00  0.00000000000E+00  0.53899737733E+03  0.53899737733E+03  0.00000000000E+00 0. -1.
         -2   -1    0    0    0  501 -0.00000000000E+00 -0.00000000000E+00 -0.31062616808E+02  0.31062616808E+02  0.00000000000E+00 0.  1.
         25    2    1    2    0    0  0.95054709672E+01  0.50819417429E+02  0.25190979083E+03  0.28596452589E+03  0.12507677716E+03 0.  0.
          5    1    3    3  502    0  0.10564118602E+02  0.30420154805E+02 -0.71547162840E+00  0.32480312804E+02  0.41800000000E+01 0. -1.
         -5    1    3    3    0  502 -0.10586476351E+01  0.20399262623E+02  0.25262526246E+03  0.25348421308E+03  0.41800000000E+01 0. -1.
        -11    1    1    2    0    0  0.35082481802E+02 -0.63731965083E+02  0.18942184936E+03  0.20291175648E+03  0.00000000000E+00 0. -1.
         11    1    1    2    0    0 -0.44587952769E+02  0.12912547655E+02  0.66603120340E+02  0.81183711778E+02  0.00000000000E+00 0.  1.
</event>
<event>
 7    1  0.2440960E-009  0.1130639E+03  0.7561462E-02  0.1254999E+00
         -4   -1    0    0    0  501 -0.00000000000E+00  0.00000000000E+00  0.44497893323E+03  0.44497893323E+03  0.00000000000E+00 0.  1.
          4   -1    0    0  501    0  0.00000000000E+00 -0.00000000000E+00 -0.46635463391E+02  0.46635463391E+02  0.00000000000E+00 0. -1.
         25    2    1    2    0    0 -0.29176784225E+02 -0.52861644824E+02  0.92068995930E+02  0.16664210535E+03  0.12508898045E+03 0.  0.
          5    1    3    3  502    0  0.21444482111E+02 -0.67218828562E+02  0.13451758406E+02  0.71949002290E+02  0.41800000000E+01 0.  1.
         -5    1    3    3    0  502 -0.50621266336E+02  0.14357183738E+02  0.78617237524E+02  0.94693103055E+02  0.41800000000E+01 0.  1.
        -11    1    1    2    0    0  0.35494816360E+02  0.73208072070E+02  0.27742488681E+03  0.28910875398E+03  0.00000000000E+00 0.  1.
         11    1    1    2    0    0 -0.63180321342E+01 -0.20346427246E+02  0.28849587095E+02  0.35863537295E+02  0.00000000000E+00 0. -1.
</event>
<event>
 7    1  0.2440960E-009  0.1352980E+03  0.7561462E-02  0.1219800E+00
         -2   -1    0    0    0  501 -0.00000000000E+00  0.00000000000E+00  0.73514958180E+02  0.73514958180E+02  0.00000000000E+00 0.  1.
          2   -1    0    0  501    0  0.00000000000E+00 -0.00000000000E+00 -0.36233231846E+03  0.36233231846E+03  0.00000000000E+00 0. -1.
         25    2    1    2    0    0 -0.92398451798E+02  0.47632137451E+02 -0.23846187668E+03  0.28864042498E+03  0.12507171498E+03 0.  0.
          5    1    3    3  502    0 -0.11082603645E+03  0.31927070341E+02 -0.11560811924E+03  0.16335378113E+03  0.41800000000E+01 0.  1.
         -5    1    3    3    0  502  0.18427584650E+02  0.15705067110E+02 -0.12285375744E+03  0.12528664385E+03  0.41800000000E+01 0.  1.
        -11    1    1    2    0    0  0.59195741024E+02  0.13802806464E+02  0.55481222983E+00  0.60786191181E+02  0.00000000000E+00 0.  1.
         11    1    1    2    0    0  0.33202710774E+02 -0.61434943915E+02 -0.50910295827E+02  0.86420660480E+02  0.00000000000E+00 0. -1.
</event>
<event>
 7    1  0.2440960E-009  0.1083569E+03  0.7561462E-02  0.1263643E+00
         -1   -1    0    0    0  501 -0.00000000000E+00  0.00000000000E+00  0.35920104581E+02  0.35920104581E+02  0.00000000000E+00 0.  1.
          1   -1    0    0  501    0  0.00000000000E+00 -0.00000000000E+00 -0.40052337130E+03  0.40052337130E+03  0.00000000000E+00 0. -1.
         25    2    1    2    0    0 -0.17819595506E+01 -0.50008115136E+02 -0.18396826933E+03  0.22802578110E+03  0.12508975084E+03 0.  0.
          5    1    3    3  502    0 -0.12559403162E+02  0.35942213323E+02 -0.10094638788E+03  0.10796863865E+03  0.41800000000E+01 0. -1.
         -5    1    3    3    0  502  0.10777443612E+02 -0.85950328459E+02 -0.83021881451E+02  0.12005714245E+03  0.41800000000E+01 0. -1.
        -11    1    1    2    0    0  0.33664871003E+02  0.15742873667E+01 -0.23943659118E+02  0.41341271538E+02  0.00000000000E+00 0.  1.
         11    1    1    2    0    0 -0.31882911453E+02  0.48433827769E+02 -0.15669133828E+03  0.16707642325E+03  0.00000000000E+00 0. -1.
</event>
<event>
 7    1  0.2440960E-009  0.8619704E+02  0.7561462E-02  0.1312331E+00
          1   -1    0    0  501    0  0.00000000000E+00  0.00000000000E+00  0.24329156739E+02  0.24329156739E+02  0.00000000000E+00 0. -1.
         -1   -1    0    0    0  501 -0.00000000000E+00 -0.00000000000E+00 -0.84413819959E+03  0.84413819959E+03  0.00000000000E+00 0.  1.
         25    2    1    2    0    0  0.25861757264E+01  0.12542652064E+02 -0.72796869148E+03  0.73874892829E+03  0.12509019484E+03 0.  0.
          5    1    3    3  502    0 -0.49660907750E+02 -0.14106534464E+02 -0.52164880628E+03  0.52421383955E+03  0.41800000000E+01 0.  1.
         -5    1    3    3    0  502  0.52247083477E+02  0.26649186528E+02 -0.20631988520E+03  0.21453508875E+03  0.41800000000E+01 0.  1.
        -11    1    1    2    0    0  0.46788428690E+01 -0.36482803858E+02 -0.97379414509E+02  0.10409436545E+03  0.00000000000E+00 0.  1.
         11    1    1    2    0    0 -0.72650185953E+01  0.23940151794E+02  0.55390631418E+01  0.25624062590E+02  0.00000000000E+00 0. -1.
</event>
<event>
 7    1  0.2440960E-009  0.2038424E+03  0.7561462E-02  0.1146537E+00
          2   -1    0    0  501    0  0.00000000000E+00  0.00000000000E+00  0.22240194187E+03  0.22240194187E+03  0.00000000000E+00 0. -1.
         -2   -1    0    0    0  501 -0.00000000000E+00 -0.00000000000E+00 -0.18925895729E+03  0.18925895729E+03  0.00000000000E+00 0.  1.
         25    2    1    2    0    0  0.15204830176E+03 -0.81961353655E+02 -0.15537301374E+01  0.21327558036E+03  0.12509080518E+03 0.  0.
          5    1    3    3  502    0  0.13548101424E+03 -0.71217514008E+01 -0.97035776626E+01  0.13607886089E+03  0.41800000000E+01 0. -1.
         -5    1    3    3    0  502  0.16567287514E+02 -0.74839602254E+02  0.81498475252E+01  0.77196719462E+02  0.41800000000E+01 0. -1.
        -11    1    1    2    0    0 -0.48768154338E+02  0.77802100270E+02  0.20079685220E+02  0.93993049969E+02  0.00000000000E+00 0. -1.
         11    1    1    2    0    0 -0.10328014742E+03  0.41592533848E+01  0.14617029498E+02  0.10439226883E+03  0.00000000000E+00 0.  1.
</event>
<event>
 7    1  0.2440960E-009  0.6129663E+02  0.7561462E-02  0.1392470E+00
         -4   -1    0    0    0  501 -0.00000000000E+00  0.00000000000E+00  0.54583088166E+02  0.54583088166E+02  0.00000000000E+00 0.  1.
          4   -1    0    0  501    0  0.00000000000E+00 -0.00000000000E+00 -0.23752990107E+03  0.23752990107E+03  0.00000000000E+00 0. -1.
         25    2    1    2    0    0 -0.22377101572E+02  0.75273768994E+01 -0.13460765205E+03  0.18526983832E+03  0.12509315299E+03 0.  0.
          5    1    3    3  502    0 -0.50624901396E+02  0.43194549839E+01 -0.14578167318E+03  0.15443868353E+03  0.41800000000E+01 0. -1.
         -5    1    3    3    0  502  0.28247799824E+02  0.32079219155E+01  0.11174021136E+02  0.30831154799E+02  0.41800000000E+01 0. -1.
        -11    1    1    2    0    0 -0.57842237748E+01  0.86460935780E+01  0.24759118147E+02  0.26855653227E+02  0.00000000000E+00 0.  1.
         11    1    1    2    0    0  0.28161325347E+02 -0.16173470477E+02 -0.73098279006E+02  0.79987497687E+02  0.00000000000E+00 0. -1.
</event>
<event>
 7    1  0.2440960E-009  0.1501698E+03  0.7561462E-02  0.1200265E+00
          2   -1    0    0  501    0  0.00000000000E+00  0.00000000000E+00  0.23273217606E+03  0.23273217606E+03  0.00000000000E+00 0.  1.
         -2   -1    0    0    0  501 -0.00000000000E+00 -0.00000000000E+00 -0.11900668737E+03  0.11900668737E+03  0.00000000000E+00 0. -1.
         25    2    1    2    0    0 -0.86328327630E+02 -0.82215322660E+02  0.87908672475E+02  0.19387629538E+03  0.12509254088E+03 0.  0.
          5    1    3    3  502    0  0.16156589125E+02 -0.44540721021E+02  0.67722575405E+02  0.82757059039E+02  0.41800000000E+01 0.  1.
         -5    1    3    3    0  502 -0.10248491676E+03 -0.37674601639E+02  0.20186097070E+02  0.11111923635E+03  0.41800000000E+01 0.  1.
        -11    1    1    2    0    0  0.68188680362E+02  0.98450087150E+01 -0.18171032951E+02  0.71251714117E+02  0.00000000000E+00 0. -1.
         11    1    1    2    0    0  0.18139647268E+02  0.72370313945E+02  0.43987849167E+02  0.86610853926E+02  0.00000000000E+00 0.  1.
</event>
<event>
 7    1  0.2498897E-009  0.1126711E+03  0.7561462E-02  0.1255702E+00
         -2   -1    0    0    0  501 -0.00000000000E+00  0.00000000000E+00  0.17770549725E+02  0.17770549725E+02  0.00000000000E+00 0.  1.
          2   -1    0    0  501    0  0.00000000000E+00 -0.00000000000E+00 -0.16158788433E+04  0.16158788433E+04  0.00000000000E+00 0. -1.
         25    2    1    2    0    0 -0.35418872078E+02 -0.22796843631E+02 -0.14406566269E+04  0.14466906957E+04  0.12509300474E+03 0.  0.
          5    1    3    3  502    0 -0.73090554360E+02 -0.46979904354E+02 -0.93146233881E+03  0.93551531338E+03  0.41800000000E+01 0.  1.
         -5    1    3    3    0  502  0.37671682282E+02  0.24183060723E+02 -0.50919428812E+03  0.51117538236E+03  0.41800000000E+01 0.  1.
        -11    1    1    2    0    0  0.31200788163E+02  0.53753038102E+02 -0.13458251858E+03  0.14824079261E+03  0.00000000000E+00 0.  1.
         11    1    1    2    0    0  0.42180839151E+01 -0.30956194471E+02 -0.22869148026E+02  0.38717904637E+02  0.00000000000E+00 0. -1.
</event>
<event>
 7    1  0.2440960E-009  0.1320860E+03  0.7561462E-02  0.1224393E+00
          3   -1    0    0  501    0  0.00000000000E+00  0.00000000000E+00  0.23943410083E+02  0.23943410083E+02  0.00000000000E+00 0. -1.
         -3   -1    0    0    0  501 -0.00000000000E+00 -0.00000000000E+00 -0.95882120309E+03  0.95882120309E+03  0.00000000000E+00 0.  1.
         25    2    1    2    0    0  0.75348765676E+02  0.63004223627E+02 -0.65681954817E+03  0.67580137680E+03  0.12509441771E+03 0.  0.
          5    1    3    3  502    0  0.30579178067E+02  0.95729562887E+02 -0.48070117247E+03  0.49111131626E+03  0.41800000000E+01 0. -1.
         -5    1    3    3    0  502  0.44769587609E+02 -0.32725339259E+02 -0.17611837570E+03  0.18469006055E+03  0.41800000000E+01 0. -1.
        -11    1    1    2    0    0 -0.44092869307E+02 -0.62784856218E+02 -0.99261874351E+02  0.12545532668E+03  0.00000000000E+00 0. -1.
         11    1    1    2    0    0 -0.31255896369E+02 -0.21936740973E+00 -0.17879637048E+03  0.18150790968E+03  0.00000000000E+00 0.  1.
</event>
<event>
 7    1  0.2440960E-009  0.7607699E+02  0.7561462E-02  0.1340568E+00
          1   -1    0    0  501    0  0.00000000000E+00  0.00000000000E+00  0.14422088501E+03  0.14422088501E+03  0.00000000000E+00 0. -1.
         -1   -1    0    0    0  501 -0.00000000000E+00 -0.00000000000E+00 -0.95522398817E+02  0.95522398817E+02  0.00000000000E+00 0.  1.
         25    2    1    2    0    0  0.44030840731E+02 -0.11825739742E+02  0.24979452754E+02  0.13546189481E+03  0.12508952327E+03 0.  0.
          5    1    3    3  502    0  0.30733339401E+02  0.30742046916E+02  0.63036495488E+02  0.76685616400E+02  0.41800000000E+01 0. -1.
         -5    1    3    3    0  502  0.13297501331E+02 -0.42567786658E+02 -0.38057042734E+02  0.58776278414E+02  0.41800000000E+01 0. -1.
        -11    1    1    2    0    0 -0.30063799986E+02  0.28852880586E+02 -0.26543921471E+02  0.49405470899E+02  0.00000000000E+00 0.  1.
         11    1    1    2    0    0 -0.13967040746E+02 -0.17027140844E+02  0.50262954912E+02  0.54875918115E+02  0.00000000000E+00 0. -1.
</event>
<event>
 7    1  0.2440960E-009  0.1095507E+03  0.7561462E-02  0.1261404E+00
          2   -1    0    0  501    0  0.00000000000E+00  0.00000000000E+00  0.87282066531E+02  0.87282066531E+02  0.00000000000E+00 0. -1.
         -2   -1    0    0    0  501 -0.00000000000E+00 -0.00000000000E+00 -0.15088632660E+03  0.15088632660E+03  0.00000000000E+00 0.  1.
         25    2    1    2    0    0 -0.37322245587E+02  0.12084642028E+02 -0.33654779801E+02  0.13533655585E+03  0.12507737828E+03 0.  0.
          5    1    3    3  502    0  0.16792396829E+02  0.57613693957E+02 -0.17893337999E+02  0.62761184400E+02  0.41800000000E+01 0.  1.
         -5    1    3    3    0  502 -0.54114642416E+02 -0.45529051928E+02 -0.15761441803E+02  0.72575371449E+02  0.41800000000E+01 0.  1.
        -11    1    1    2    0    0 -0.11128278658E+02 -0.33373771119E+02  0.99437716718E+01  0.36558525403E+02  0.00000000000E+00 0.  1.
         11    1    1    2    0    0  0.48450524246E+02  0.21289129091E+02 -0.39893251942E+02  0.66273311880E+02  0.00000000000E+00 0. -1.
</event>
<event>
 7    1  0.2440960E-009  0.1831616E+03  0.7561462E-02  0.1164778E+00
         -2   -1    0    0    0  501 -0.00000000000E+00  0.00000000000E+00  0.56948371581E+02  0.56948371581E+02  0.00000000000E+00 0.  1.
          2   -1    0    0  501    0  0.00000000000E+00 -0.00000000000E+00 -0.70279130038E+03  0.70279130038E+03  0.00000000000E+00 0. -1.
         25    2    1    2    0    0 -0.56849585290E+02 -0.14485334722E+03 -0.21761159175E+03  0.29532500403E+03  0.12509070945E+03 0.  0.
          5    1    3    3  502    0  0.30421603623E+02 -0.35828155970E+02 -0.10761714539E+03  0.11750767256E+03  0.41800000000E+01 0.  1.
         -5    1    3    3    0  502 -0.87271188913E+02 -0.10902519125E+03 -0.10999444636E+03  0.17781733147E+03  0.41800000000E+01 0.  1.
        -11    1    1    2    0    0 -0.13776317712E+02  0.87116122053E+02 -0.19716607260E+03  0.21599413380E+03  0.00000000000E+00 0.  1.
         11    1    1    2    0    0  0.70625903003E+02  0.57737225169E+02 -0.23106526444E+03  0.24842053413E+03  0.00000000000E+00 0. -1.
</event>
<event>
 7    1  0.2440960E-009  0.1342437E+03  0.7561462E-02  0.1221291E+00
         -1   -1    0    0    0  501 -0.00000000000E+00  0.00000000000E+00  0.26480125753E+02  0.26480125753E+02  0.00000000000E+00 0. -1.
          1   -1    0    0  501    0  0.00000000000E+00 -0.00000000000E+00 -0.13352168775E+04  0.13352168775E+04  0.00000000000E+00 0.  1.
         25    2    1    2    0    0 -0.23242575792E+00  0.83917971239E+02 -0.11495872165E+04  0.11594130832E+04  0.12508256992E+03 0.  0.
          5    1    3    3  502    0 -0.82171422748E+01 -0.32238447993E+02 -0.30213361861E+03  0.30398854395E+03  0.41800000000E+01 0. -1.
         -5    1    3    3    0  502  0.79847165169E+01  0.11615641923E+03 -0.84745359788E+03  0.85542453927E+03  0.41800000000E+01 0. -1.
        -11    1    1    2    0    0  0.38361153569E+02 -0.65962278427E+02 -0.69459246712E+02  0.10318520840E+03  0.00000000000E+00 0. -1.
         11    1    1    2    0    0 -0.38128727811E+02 -0.17955692812E+02 -0.89690288538E+02  0.99098711630E+02  0.00000000000E+00 0.  1.
</event>
<event>
 7    1  0.2440960E-009  0.1501762E+03  0.7561462E-02  0.1200257E+00
         -2   -1    0    0    0  501 -0.00000000000E+00  0.00000000000E+00  0.93523138399E+02  0.93523138399E+02  0.00000000000E+00 0.  1.
          2   -1    0    0  501    0  0.00000000000E+00 -0.00000000000E+00 -0.73192529926E+03  0.73192529926E+03  0.00000000000E+00 0. -1.
         25    2    1    2    0    0 -0.10028675276E+03  0.43700006680E+02  0.49453953543E+01  0.16624848875E+03  0.12508788796E+03 0.  0.
          5    1    3    3  502    0 -0.82391094476E+02  0.86383822277E+02 -0.57545666020E+00  0.11944982524E+03  0.41800000000E+01 0.  1.
         -5    1    3    3    0  502 -0.17895658282E+02 -0.42683815597E+02  0.55208520145E+01  0.46798663509E+02  0.41800000000E+01 0.  1.
        -11    1    1    2    0    0  0.98278315333E+02 -0.79212989022E+01 -0.55784953907E+03  0.56649579212E+03  0.00000000000E+00 0. -1.
         11    1    1    2    0    0  0.20084374247E+01 -0.35778707777E+02 -0.85498017137E+02  0.92704156786E+02  0.00000000000E+00 0.  1.
</event>
<event>
 7    1  0.2440960E-009  0.1735146E+03  0.7561462E-02  0.1174231E+00
         -1   -1    0    0    0  501 -0.00000000000E+00  0.00000000000E+00  0.24610182548E+02  0.24610182548E+02  0.00000000000E+00 0.  1.
          1   -1    0    0  501    0  0.00000000000E+00 -0.00000000000E+00 -0.17773103860E+04  0.17773103860E+04  0.00000000000E+00 0. -1.
         25    2    1    2    0    0 -0.79387030418E+02 -0.13163941607E+03 -0.13065080085E+04  0.13214543150E+04  0.12508834388E+03 0.  0.
          5    1    3    3  502    0  0.44109310712E+01 -0.67073599524E+02 -0.22734905273E+03  0.23711471537E+03  0.41800000000E+01 0. -1.
         -5    1    3    3    0  502 -0.83797961489E+02 -0.64565816546E+02 -0.10791589558E+04  0.10843395996E+04  0.41800000000E+01 0. -1.
        -11    1    1    2    0    0  0.57689900584E+02  0.13932256762E+03 -0.34210700728E+03  0.37386642924E+03  0.00000000000E+00 0.  1.
         11    1    1    2    0    0  0.21697129834E+02 -0.76831515519E+01 -0.10408518766E+03  0.10659982434E+03  0.00000000000E+00 0. -1.
</event>
<event>
 7    1  0.2440960E-009  0.1865966E+03  0.7561462E-02  0.1161567E+00
          1   -1    0    0  501    0  0.00000000000E+00  0.00000000000E+00  0.94520690775E+02  0.94520690775E+02  0.00000000000E+00 0. -1.
         -1   -1    0    0    0  501 -0.00000000000E+00 -0.00000000000E+00 -0.65480900927E+03  0.65480900927E+03  0.00000000000E+00 0.  1.
         25    2    1    2    0    0 -0.15374375569E+03 -0.84721854635E+02 -0.49584147784E+03  0.54066713922E+03  0.12508896522E+03 0.  0.
          5    1    3    3  502    0 -0.15644888391E+03 -0.74659322487E+02 -0.31578417575E+03  0.36026016400E+03  0.41800000000E+01 0.  1.
         -5    1    3    3    0  502  0.27051282262E+01 -0.10062532148E+02 -0.18005730208E+03  0.18040697521E+03  0.41800000000E+01 0.  1.
        -11    1    1    2    0    0  0.13253742461E+03  0.96834930529E+02 -0.30674764442E+02  0.16698537022E+03  0.00000000000E+00 0. -1.
         11    1    1    2    0    0  0.21206331075E+02 -0.12113075894E+02 -0.33772076214E+02  0.41677190610E+02  0.00000000000E+00 0.  1.
</event>
<event>
 7    1  0.2440960E-009  0.1179145E+03  0.7561462E-02  0.1246578E+00
         -4   -1    0    0    0  501 -0.00000000000E+00  0.00000000000E+00  0.20725121434E+02  0.20725121434E+02  0.00000000000E+00 0. -1.
          4   -1    0    0  501    0  0.00000000000E+00 -0.00000000000E+00 -0.83877385542E+03  0.83877385542E+03  0.00000000000E+00 0.  1.
         25    2    1    2    0    0 -0.63503393236E+01  0.54372408036E+02 -0.60636402948E+03  0.62154753337E+03  0.12508922586E+03 0.  0.
          5    1    3    3  502    0 -0.61518735066E+02  0.11104663859E+02 -0.21548705918E+03  0.22441036829E+03  0.41800000000E+01 0.  1.
         -5    1    3    3    0  502  0.55168395742E+02  0.43267744177E+02 -0.39087697030E+03  0.39713716508E+03  0.41800000000E+01 0.  1.
        -11    1    1    2    0    0 -0.12643730656E+02 -0.74324889759E+02 -0.18422614884E+03  0.19905609028E+03  0.00000000000E+00 0.  1.
         11    1    1    2    0    0  0.18994069980E+02  0.19952481723E+02 -0.27458555667E+02  0.38895353201E+02  0.00000000000E+00 0. -1.
</event>
<event>
 7    1  0.2440960E-009  0.9100576E+02  0.7561462E-02  0.1300434E+00
          2   -1    0    0  501    0  0.00000000000E+00  0.00000000000E+00  0.21390815567E+03  0.21390815567E+03  0.00000000000E+00 0. -1.
         -2   -1    0    0    0  501 -0.00000000000E+00 -0.00000000000E+00 -0.63733288287E+02  0.63733288287E+02  0.00000000000E+00 0.  1.
         25    2    1    2    0    0 -0.23279535125E+02 -0.87998466402E+01  0.16238579865E+03  0.20649128896E+03  0.12510048263E+03 0.  0.
          5    1    3    3  502    0 -0.48168687304E+02  0.44838788336E+02  0.65731944215E+02  0.93106929207E+02  0.41800000000E+01 0. -1.
         -5    1    3    3    0  502  0.24889152179E+02 -0.53638634976E+02  0.96653854440E+02  0.11338435975E+03  0.41800000000E+01 0. -1.
        -11    1    1    2    0    0 -0.77425839718E+01  0.21815883909E+02  0.15252110842E+02  0.27721963899E+02  0.00000000000E+00 0. -1.
         11    1    1    2    0    0  0.31022119097E+02 -0.13016037269E+02 -0.27463042117E+02  0.43428191095E+02  0.00000000000E+00 0.  1.
</event>
<event>
 7    1  0.2440960E-009  0.1291792E+03  0.7561462E-02  0.1228679E+00
         -2   -1    0    0    0  501 -0.00000000000E+00  0.00000000000E+00  0.16672389485E+02  0.16672389485E+02  0.00000000000E+00 0. -1.
          2   -1    0    0  501    0  0.00000000000E+00 -0.00000000000E+00 -0.10506737082E+04  0.10506737082E+04  0.00000000000E+00 0.  1.
         25    2    1    2    0    0  0.11958097493E+02  0.74844436133E+02 -0.56424072728E+03  0.58288685735E+03  0.12507919264E+03 0.  0.
          5    1    3    3  502    0  0.27492940687E+02  0.10675541396E+03 -0.41279450677E+03  0.42728135627E+03  0.41800000000E+01 0.  1.
         -5    1    3    3    0  502 -0.15534843193E+02 -0.31910977824E+02 -0.15144622051E+03  0.15560550107E+03  0.41800000000E+01 0.  1.
        -11    1    1    2    0    0 -0.46948080781E+02 -0.31221104906E+02 -0.15884436342E+03  0.16855388299E+03  0.00000000000E+00 0.  1.
         11    1    1    2    0    0  0.34989983288E+02 -0.43623331227E+02 -0.31091622799E+03  0.31590535732E+03  0.00000000000E+00 0. -1.
</event>
<event>
 7    1  0.2440960E-009  0.1754505E+03  0.7561462E-02  0.1172280E+00
         -3   -1    0    0    0  501 -0.00000000000E+00  0.00000000000E+00  0.15859040428E+03  0.15859040428E+03  0.00000000000E+00 0.  1.
          3   -1    0    0  501    0  0.00000000000E+00 -0.00000000000E+00 -0.23392257898E+03  0.23392257898E+03  0.00000000000E+00 0. -1.
         25    2    1    2    0    0 -0.92355032342E+02  0.12948262866E+03 -0.31357671573E+02  0.20475847548E+03  0.12509007391E+03 0.  0.
          5    1    3    3  502    0 -0.63638704565E+02  0.13367995183E+03  0.16086866979E+02  0.14898481107E+03  0.41800000000E+01 0. -1.
         -5    1    3    3    0  502 -0.28716327778E+02 -0.41973231773E+01 -0.47444538551E+02  0.55773664406E+02  0.41800000000E+01 0. -1.
        -11    1    1    2    0    0  0.91971117348E+02 -0.74168871711E+02 -0.56612509415E+02  0.13101406100E+03  0.00000000000E+00 0. -1.
         11    1    1    2    0    0  0.38391499468E+00 -0.55313756946E+02  0.12638006284E+02  0.56740446782E+02  0.00000000000E+00 0.  1.
</event>
<event>
 7    1  0.2440960E-009  0.9500397E+02  0.7561462E-02  0.1291167E+00
          1   -1    0    0  501    0  0.00000000000E+00  0.00000000000E+00  0.11776347667E+03  0.11776347667E+03  0.00000000000E+00 0. -1.
         -1   -1    0    0    0  501 -0.00000000000E+00 -0.00000000000E+00 -0.11761380797E+03  0.11761380797E+03  0.00000000000E+00 0.  1.
         25    2    1    2    0    0  0.25457402092E+02  0.12083340771E+02 -0.38052519335E+02  0.13374554458E+03  0.12508313245E+03 0.  0.
          5    1    3    3  502    0  0.15319258738E+02  0.56940988931E+02 -0.58568420101E+02  0.83214711091E+02  0.41800000000E+01 0. -1.
         -5    1    3    3    0  502  0.10138143354E+02 -0.44857648160E+02  0.20515900766E+02  0.50530833492E+02  0.41800000000E+01 0. -1.
        -11    1    1    2    0    0  0.15613381799E+02 -0.34540973331E+02 -0.46241303443E+01  0.38186897116E+02  0.00000000000E+00 0.  1.
         11    1    1    2    0    0 -0.41070783891E+02  0.22457632560E+02  0.42826318385E+02  0.63444842943E+02  0.00000000000E+00 0. -1.
</event>
<event>
 7    1  0.2931643E-009  0.1501654E+03  0.7561462E-02  0.1200270E+00
          2   -1    0    0  501    0  0.00000000000E+00  0.00000000000E+00  0.94127387198E+03  0.94127387198E+03  0.00000000000E+00 0. -1.
         -2   -1    0    0    0  501 -0.00000000000E+00 -0.00000000000E+00 -0.44100992338E+02  0.44100992338E+02  0.00000000000E+00 0.  1.
         25    2    1    2    0    0  0.77135781485E+02 -0.96044456139E+02  0.75822607086E+03  0.77828615869E+03  0.12509238156E+03 0.  0.
          5    1    3    3  502    0 -0.17020346760E+00 -0.91720085111E+02  0.30661804310E+03  0.32006983572E+03  0.41800000000E+01 0.  1.
         -5    1    3    3    0  502  0.77305984952E+02 -0.43243710285E+01  0.45160802776E+03  0.45821632296E+03  0.41800000000E+01 0.  1.
        -11    1    1    2    0    0 -0.22644945777E+02  0.63707098626E+02  0.12514161958E+03  0.14223857752E+03  0.00000000000E+00 0. -1.
         11    1    1    2    0    0 -0.54490835708E+02  0.32337357513E+02  0.13805189200E+02  0.64850128110E+02  0.00000000000E+00 0.  1.
</event>
<event>
 7    1  0.2440960E-009  0.1460182E+03  0.7561462E-02  0.1205453E+00
         -1   -1    0    0    0  501 -0.00000000000E+00  0.00000000000E+00  0.11841305075E+04  0.11841305075E+04  0.00000000000E+00 0.  1.
          1   -1    0    0  501    0  0.00000000000E+00 -0.00000000000E+00 -0.26008332266E+02  0.26008332266E+02  0.00000000000E+00 0. -1.
         25    2    1    2    0    0  0.13024515576E+03  0.37906233355E+02  0.68256161847E+03  0.70706613205E+03  0.12510583106E+03 0.  0.
          5    1    3    3  502    0  0.62487612066E+02  0.17463175762E+02  0.57227848660E+03  0.57595989687E+03  0.41800000000E+01 0. -1.
         -5    1    3    3    0  502  0.67757543695E+02  0.20443057593E+02  0.11028313187E+03  0.13110623519E+03  0.41800000000E+01 0. -1.
        -11    1    1    2    0    0 -0.56202418768E+02 -0.56592010419E+02  0.16506436764E+03  0.18332379274E+03  0.00000000000E+00 0. -1.
         11    1    1    2    0    0 -0.74042736993E+02  0.18685777065E+02  0.31049618909E+03  0.31974891494E+03  0.00000000000E+00 0.  1.
</event>
<event>
 7    1  0.2440960E-009  0.8789412E+02  0.7561462E-02  0.1308033E+00
          2   -1    0    0  501    0  0.00000000000E+00  0.00000000000E+00  0.90044374838E+02  0.90044374838E+02  0.00000000000E+00 0. -1.
         -2   -1    0    0    0  501 -0.00000000000E+00 -0.00000000000E+00 -0.14271116274E+03  0.14271116274E+03  0.00000000000E+00 0.  1.
         25    2    1    2    0    0 -0.23773310868E+02 -0.21789890846E+02 -0.39395327487E+02  0.13505545408E+03  0.12509202291E+03 0.  0.
          5    1    3    3  502    0 -0.53393988533E+02  0.27137885921E+02  0.81117699303E+01  0.60585939583E+02  0.41800000000E+01 0.  1.
         -5    1    3    3    0  502  0.29620677665E+02 -0.48927776767E+02 -0.47507097418E+02  0.74469514499E+02  0.41800000000E+01 0.  1.
        -11    1    1    2    0    0 -0.90406606961E+01 -0.94607651169E+01 -0.42037107551E+02  0.44026787683E+02  0.00000000000E+00 0.  1.
         11    1    1    2    0    0  0.32813971564E+02  0.31250655963E+02  0.28765647138E+02  0.53673295811E+02  0.00000000000E+00 0. -1.
</event>
<event>
 7    1  0.2440960E-009  0.1387756E+03  0.7561462E-02  0.1214986E+00
          1   -1    0    0  501    0  0.00000000000E+00  0.00000000000E+00  0.49330864182E+03  0.49330864182E+03  0.00000000000E+00 0. -1.
         -1   -1    0    0    0  501 -0.00000000000E+00 -0.00000000000E+00 -0.57760382648E+02  0.57760382648E+02  0.00000000000E+00 0.  1.
         25    2    1    2    0    0  0.11765016741E+03 -0.10710469620E+02  0.33360546772E+03  0.37536142678E+03  0.12508923444E+03 0.  0.
          5    1    3    3  502    0  0.13041459515E+03  0.96229799624E+01  0.32354430098E+03  0.34899707086E+03  0.41800000000E+01 0.  1.
         -5    1    3    3    0  502 -0.12764427733E+02 -0.20333449582E+02  0.10061166738E+02  0.26364355926E+02  0.41800000000E+01 0.  1.
        -11    1    1    2    0    0 -0.67642075975E+02 -0.96983494722E+01  0.99832929117E+01  0.69059210551E+02  0.00000000000E+00 0.  1.
         11    1    1    2    0    0 -0.50008091438E+02  0.20408819092E+02  0.91959498543E+02  0.10664838713E+03  0.00000000000E+00 0. -1.
</event>
<event>
 7    1  0.2440960E-009  0.8053195E+02  0.7561462E-02  0.1327549E+00
          1   -1    0    0  501    0  0.00000000000E+00  0.00000000000E+00  0.37383669149E+03  0.37383669149E+03  0.00000000000E+00 0. -1.
         -1   -1    0    0    0  501 -0.00000000000E+00 -0.00000000000E+00 -0.42149543577E+02  0.42149543577E+02  0.00000000000E+00 0.  1.
         25    2    1    2    0    0 -0.49593865082E+02 -0.23625723371E+02  0.23095021097E+03  0.26833461991E+03  0.12509093508E+03 0.  0.
          5    1    3    3  502    0  0.15937652209E+02  0.90151287992E+01  0.17523788691E+03  0.17624151246E+03  0.41800000000E+01 0. -1.
         -5    1    3    3    0  502 -0.65531517291E+02 -0.32640852170E+02  0.55712324062E+02  0.92093107458E+02  0.41800000000E+01 0. -1.
        -11    1    1    2    0    0  0.19010481644E+02 -0.11625383743E+02  0.98435326037E+02  0.10092601930E+03  0.00000000000E+00 0. -1.
         11    1    1    2    0    0  0.30583383438E+02  0.35251107114E+02  0.23016109081E+01  0.46725595855E+02  0.00000000000E+00 0.  1.
</event>
<event>
 7    1  0.2733762E-009  0.1130075E+03  0.7561462E-02  0.1255100E+00
         -1   -1    0    0    0  501 -0.00000000000E+00  0.00000000000E+00  0.18295679101E+02  0.18295679101E+02  0.00000000000E+00 0.  1.
          1   -1    0    0  501    0  0.00000000000E+00 -0.00000000000E+00 -0.10078790835E+04  0.10078790835E+04  0.00000000000E+00 0. -1.
         25    2    1    2    0    0 -0.27428998612E+02 -0.49470629709E+02 -0.76322143301E+03  0.77547156204E+03  0.12509793990E+03 0.  0.
          5    1    3    3  502    0  0.42260617630E+02 -0.15560789803E+02 -0.46932913262E+03  0.47150334581E+03  0.41800000000E+01 0.  1.
         -5    1    3    3    0  502 -0.69689616242E+02 -0.33909839906E+02 -0.29389230039E+03  0.30396821624E+03  0.41800000000E+01 0.  1.
        -11    1    1    2    0    0  0.58279015995E+02  0.23470826145E+02 -0.10039866085E+03  0.11843654202E+03  0.00000000000E+00 0.  1.
         11    1    1    2    0    0 -0.30850017383E+02  0.25999803564E+02 -0.12596331052E+03  0.13226665852E+03  0.00000000000E+00 0. -1.
</event>
<event>
 7    1  0.2440960E-009  0.9821896E+02  0.7561462E-02  0.1284086E+00
         -3   -1    0    0    0  501 -0.00000000000E+00  0.00000000000E+00  0.18202432271E+03  0.18202432271E+03  0.00000000000E+00 0.  1.
          3   -1    0    0  501    0  0.00000000000E+00 -0.00000000000E+00 -0.96018717230E+02  0.96018717230E+02  0.00000000000E+00 0. -1.
         25    2    1    2    0    0  0.69849760507E+01  0.50970859637E+02  0.34939467973E+02  0.13969815035E+03  0.12509191967E+03 0.  0.
          5    1    3    3  502    0  0.20898906739E+02 -0.16725369368E+02  0.60184988744E+02  0.66001572356E+02  0.41800000000E+01 0. -1.
         -5    1    3    3    0  502 -0.13913930688E+02  0.67696229005E+02 -0.25245520771E+02  0.73696577992E+02  0.41800000000E+01 0. -1.
        -11    1    1    2    0    0  0.35432246055E+02 -0.44996527964E+02 -0.15367600175E+02  0.59298353471E+02  0.00000000000E+00 0. -1.
         11    1    1    2    0    0 -0.42417222105E+02 -0.59743316733E+01  0.66433737680E+02  0.79046536117E+02  0.00000000000E+00 0.  1.
</event>
<event>
 7    1  0.2440960E-009  0.1566470E+03  0.7561462E-02  0.1192535E+00
         -1   -1    0    0    0  501 -0.00000000000E+00  0.00000000000E+00  0.78371131819E+03  0.78371131819E+03  0.00000000000E+00 0.  1.
          1   -1    0    0  501    0  0.00000000000E+00 -0.00000000000E+00 -0.34507644499E+02  0.34507644499E+02  0.00000000000E+00 0. -1.
         25    2    1    2    0    0 -0.10673956061E+03 -0.25039297884E+02  0.33463221054E+03  0.37369288312E+03  0.12508938534E+03 0.  0.
          5    1    3    3  502    0 -0.11713364825E+03 -0.58534258220E+02  0.26231865586E+03  0.29321510969E+03  0.41800000000E+01 0.  1.
         -5    1    3    3    0  502  0.10394087636E+02  0.33494960336E+02  0.72313554678E+02  0.80477773428E+02  0.41800000000E+01 0.  1.
        -11    1    1    2    0    0  0.12221585603E+03  0.36676196125E+02  0.40117892721E+03  0.42098264866E+03  0.00000000000E+00 0. -1.
         11    1    1    2    0    0 -0.15476295420E+02 -0.11636898241E+02  0.13392535945E+02  0.23543430923E+02  0.00000000000E+00 0.  1.
</event>
<event>
 7    1  0.2440960E-009  0.1241858E+03  0.7561462E-02  0.1236347E+00
         -2   -1    0    0    0  501 -0.00000000000E+00  0.00000000000E+00  0.76798452342E+02  0.76798452342E+02  0.00000000000E+00 0. -1.
          2   -1    0    0  501    0  0.00000000000E+00 -0.00000000000E+00 -0.34014917357E+03  0.34014917357E+03  0.00000000000E+00 0.  1.
         25    2    1    2    0    0  0.31807851586E+02 -0.11329278605E+03 -0.11697250507E+03  0.20778877402E+03  0.12508642162E+03 0.  0.
          5    1    3    3  502    0  0.31639795545E+02 -0.76306316362E+02  0.24012454961E+01  0.82746413571E+02  0.41800000000E+01 0. -1.
         -5    1    3    3    0  502  0.16805604109E+00 -0.36986469685E+02 -0.11937375057E+03  0.12504236045E+03  0.41800000000E+01 0. -1.
        -11    1    1    2    0    0  0.13845980646E+02  0.37285145260E+02 -0.21178975368E+01  0.39829370157E+02  0.00000000000E+00 0. -1.
         11    1    1    2    0    0 -0.45653832232E+02  0.76007640787E+02 -0.14426031861E+03  0.16932948173E+03  0.00000000000E+00 0.  1.
</event>
<event>
 7    1  0.2440960E-009  0.1359849E+03  0.7561462E-02  0.1218836E+00
         -1   -1    0    0    0  501 -0.00000000000E+00  0.00000000000E+00  0.14769193769E+03  0.14769193769E+03  0.00000000000E+00 0.  1.
          1   -1    0    0  501    0  0.00000000000E+00 -0.00000000000E+00 -0.17612816824E+03  0.17612816824E+03  0.00000000000E+00 0. -1.
         25    2    1    2    0    0  0.77879226029E+02  0.76539138556E+02  0.35454156868E+02  0.16978648330E+03  0.12508812531E+03 0.  0.
          5    1    3    3  502    0  0.25234586712E+02 -0.32213324512E+02  0.25688541054E+02  0.48495939872E+02  0.41800000000E+01 0.  1.
         -5    1    3    3    0  502  0.52644639317E+02  0.10875246307E+03  0.97656158141E+01  0.12129054343E+03  0.41800000000E+01 0.  1.
        -11    1    1    2    0    0 -0.43167659933E+02 -0.33465997901E+02  0.15949544090E+02  0.56901738429E+02  0.00000000000E+00 0.  1.
         11    1    1    2    0    0 -0.34711566097E+02 -0.43073140656E+02 -0.79839931510E+02  0.97131884211E+02  0.00000000000E+00 0. -1.
</event>
<event>
 7    1  0.2440960E-009  0.9976188E+02  0.7561462E-02  0.1280797E+00
          3   -1    0    0  501    0  0.00000000000E+00  0.00000000000E+00  0.15404317375E+03  0.15404317375E+03  0.00000000000E+00 0. -1.
         -3   -1    0    0    0  501 -0.00000000000E+00 -0.00000000000E+00 -0.12411501033E+03  0.12411501033E+03  0.00000000000E+00 0.  1.
         25    2    1    2    0    0  0.13498515149E+02 -0.44324412847E+01 -0.65945584356E+02  0.14212027345E+03  0.12508994997E+03 0.  0.
          5    1    3    3  502    0  0.59722103045E+02 -0.35817150011E+02 -0.33721844963E+02  0.77486986357E+02  0.41800000000E+01 0.  1.
         -5    1    3    3    0  502 -0.46223587897E+02  0.31384708726E+02 -0.32223739392E+02  0.64633287092E+02  0.41800000000E+01 0.  1.
        -11    1    1    2    0    0 -0.27607344432E+02 -0.27410141261E+02  0.56327071226E+01  0.39309142703E+02  0.00000000000E+00 0.  1.
         11    1    1    2    0    0  0.14108829283E+02  0.31842582546E+02  0.90241040651E+02  0.96728767927E+02  0.00000000000E+00 0. -1.
</event>
<event>
 7    1  0.2440960E-009  0.1082963E+03  0.7561462E-02  0.1263758E+00
         -1   -1    0    0    0  501 -0.00000000000E+00  0.00000000000E+00  0.32960952013E+02  0.32960952013E+02  0.00000000000E+00 0.  1.
          1   -1    0    0  501    0  0.00000000000E+00 -0.00000000000E+00 -0.50980003177E+03  0.50980003177E+03  0.00000000000E+00 0. -1.
         25    2    1    2    0    0 -0.34158002334E+02  0.53286429382E+02 -0.20531018830E+03  0.24860818585E+03  0.12509014339E+03 0.  0.
          5    1    3    3  502    0  0.30640244578E+02  0.36530735914E+02 -0.16165255986E+03  0.16858926942E+03  0.41800000000E+01 0.  1.
         -5    1    3    3    0  502 -0.64798246912E+02  0.16755693468E+02 -0.43657628442E+02  0.80018916436E+02  0.41800000000E+01 0.  1.
        -11    1    1    2    0    0  0.39703158491E+02  0.76911604320E+01 -0.49945739916E+02  0.64265633730E+02  0.00000000000E+00 0.  1.
         11    1    1    2    0    0 -0.55451561566E+01 -0.60977589814E+02 -0.22158315154E+03  0.22988716420E+03  0.00000000000E+00 0. -1.
</event>
<event>
 7    1  0.2440960E-009  0.1249728E+03  0.7561462E-02  0.1235112E+00
         -2   -1    0    0    0  501 -0.00000000000E+00  0.00000000000E+00  0.96972477050E+02  0.96972477050E+02  0.00000000000E+00 0.  1.
          2   -1    0    0  501    0  0.00000000000E+00 -0.00000000000E+00 -0.24372085665E+03  0.24372085665E+03  0.00000000000E+00 0. -1.
         25    2    1    2    0    0  0.88374202596E+01 -0.94802823480E+02 -0.13200899285E+03  0.20527891632E+03  0.12508950378E+03 0.  0.
          5    1    3    3  502    0  0.45276542652E+02 -0.10369784727E+03 -0.12154473397E+03  0.16611382723E+03  0.41800000000E+01 0. -1.
         -5    1    3    3    0  502 -0.36439122393E+02  0.88950237923E+01 -0.10464258886E+02  0.39165089085E+02  0.41800000000E+01 0. -1.
        -11    1    1    2    0    0  0.26590071026E+01  0.80864461652E+02 -0.50481489133E+02  0.95365152033E+02  0.00000000000E+00 0. -1.
         11    1    1    2    0    0 -0.11496427362E+02  0.13938361828E+02  0.35742102382E+02  0.40049265352E+02  0.00000000000E+00 0.  1.
</event>
<event>
 7    1  0.2440960E-009  0.1292199E+03  0.7561462E-02  0.1228618E+00
         -1   -1    0    0    0  501 -0.00000000000E+00  0.00000000000E+00  0.26527903721E+02  0.26527903721E+02  0.00000000000E+00 0.  1.
          1   -1    0    0  501    0  0.00000000000E+00 -0.00000000000E+00 -0.76673791609E+03  0.76673791609E+03  0.00000000000E+00 0. -1.
         25    2    1    2    0    0 -0.83064375310E+02  0.40156386883E+02 -0.47254949933E+03  0.49745590913E+03  0.12508847415E+03 0.  0.
          5    1    3    3  502    0 -0.11048300577E+03  0.41876735719E+02 -0.43476349687E+03  0.45055180187E+03  0.41800000000E+01 0.  1.
         -5    1    3    3    0  502  0.27418630461E+02 -0.17203488363E+01 -0.37786002461E+02  0.46904107267E+02  0.41800000000E+01 0.  1.
        -11    1    1    2    0    0  0.80940092121E+02 -0.92752035764E+01 -0.24281440361E+03  0.25611747795E+03  0.00000000000E+00 0. -1.
         11    1    1    2    0    0  0.21242831898E+01 -0.30881183307E+02 -0.24846109434E+02  0.39692432723E+02  0.00000000000E+00 0.  1.
</event>
<event>
 7    1  0.2440960E-009  0.1321156E+03  0.7561462E-02  0.1224350E+00
          1   -1    0    0  501    0  0.00000000000E+00  0.00000000000E+00  0.14402842832E+03  0.14402842832E+03  0.00000000000E+00 0. -1.
         -1   -1    0    0    0  501 -0.00000000000E+00 -0.00000000000E+00 -0.22669207902E+03  0.22669207902E+03  0.00000000000E+00 0.  1.
         25    2    1    2    0    0  0.87063653129E+02  0.64463873748E+02 -0.13854301539E+03  0.21581691548E+03  0.12508838148E+03 0.  0.
          5    1    3    3  502    0  0.11361205129E+03  0.50629358655E+02 -0.13765991683E+03  0.18557681767E+03  0.41800000000E+01 0.  1.
         -5    1    3    3    0  502 -0.26548398158E+02  0.13834515093E+02 -0.88309855613E+00  0.30240097812E+02  0.41800000000E+01 0.  1.
        -11    1    1    2    0    0 -0.58824337786E+02 -0.33709360844E+02 -0.17906804100E+02  0.70123301103E+02  0.00000000000E+00 0.  1.
         11    1    1    2    0    0 -0.28239315343E+02 -0.30754512905E+02  0.73786168787E+02  0.84780290748E+02  0.00000000000E+00 0. -1.
</event>
<event>
 7    1  0.2440960E-009  0.1156101E+03  0.7561462E-02  0.1250520E+00
         -2   -1    0    0    0  501 -0.00000000000E+00  0.00000000000E+00  0.83576686244E+03  0.83576686244E+03  0.00000000000E+00 0. -1.
          2   -1    0    0  501    0  0.00000000000E+00 -0.00000000000E+00 -0.22078867790E+02  0.22078867790E+02  0.00000000000E+00 0.  1.
         25    2    1    2    0    0 -0.34845656255E+02  0.69418767515E+02  0.36307400284E+03  0.39179622756E+03  0.12509343446E+03 0.  0.
          5    1    3    3  502    0 -0.49881873746E+02  0.27186212452E+01  0.27842562070E+03  0.28290261733E+03  0.41800000000E+01 0. -1.
         -5    1    3    3    0  502  0.15036217491E+02  0.66700146270E+02  0.84648382139E+02  0.10889361022E+03  0.41800000000E+01 0. -1.
        -11    1    1    2    0    0 -0.21434213134E+02 -0.47642746049E+02  0.28579249633E+03  0.29052815302E+03  0.00000000000E+00 0. -1.
         11    1    1    2    0    0  0.56279869389E+02 -0.21776021465E+02  0.16482149548E+03  0.17552134964E+03  0.00000000000E+00 0.  1.
</event>
<event>
 7    1  0.2440960E-009  0.1120852E+03  0.7561462E-02  0.1256756E+00
         -2   -1    0    0    0  501 -0.00000000000E+00  0.00000000000E+00  0.96462213144E+02  0.96462213144E+02  0.00000000000E+00 0.  1.
          2   -1    0    0  501    0  0.00000000000E+00 -0.00000000000E+00 -0.16102604278E+03  0.16102604278E+03  0.00000000000E+00 0. -1.
         25    2    1    2    0    0 -0.37734086893E+02  0.72803945813E+01  0.12457804180E+02  0.13144908829E+03  0.12508717147E+03 0.  0.
          5    1    3    3  502    0 -0.81148448529E+02 -0.10357594291E+02 -0.28839762280E+01  0.81964261584E+02  0.41800000000E+01 0. -1.
         -5    1    3    3    0  502  0.43414361635E+02  0.17637988873E+02  0.15341780408E+02  0.49484826702E+02  0.41800000000E+01 0. -1.
        -11    1    1    2    0    0 -0.11728783509E+01  0.36569358090E+02 -0.48758074097E+02  0.60959358464E+02  0.00000000000E+00 0.  1.
         11    1    1    2    0    0  0.38906965244E+02 -0.43849752672E+02 -0.28263559717E+02  0.65079809171E+02  0.00000000000E+00 0. -1.
</event>
<event>
 7    1  0.2440960E-009  0.1872580E+03  0.7561462E-02  0.1160958E+00
          2   -1    0    0  501    0  0.00000000000E+00  0.00000000000E+00  0.26016405772E+04  0.26016405772E+04  0.00000000000E+00 0. -1.
         -2   -1    0    0    0  501 -0.00000000000E+00 -0.00000000000E+00 -0.17408509467E+02  0.17408509467E+02  0.00000000000E+00 0.  1.
         25    2    1    2    0    0 -0.11776299754E+03  0.12836322823E+03  0.16743148034E+04  0.16879935680E+04  0.12508790016E+03 0.  0.
          5    1    3    3  502    0 -0.79810636321E+01  0.34881180768E+02  0.87667778159E+03  0.87741768804E+03  0.41800000000E+01 0. -1.
         -5    1    3    3    0  502 -0.10978193391E+03  0.93482047463E+02  0.79763702179E+03  0.81057587994E+03  0.41800000000E+01 0. -1.
        -11    1    1    2    0    0  0.48389392518E+01 -0.64154077813E+02  0.22940935594E+03  0.23825997068E+03  0.00000000000E+00 0.  1.
         11    1    1    2    0    0  0.11292405829E+03 -0.64209150418E+02  0.68050790844E+03  0.69279554804E+03  0.00000000000E+00 0. -1.
</event>
<event>
 7    1  0.2440960E-009  0.1232871E+03  0.7561462E-02  0.1237771E+00
          3   -1    0    0  501    0  0.00000000000E+00  0.00000000000E+00  0.78604487754E+03  0.78604487754E+03  0.00000000000E+00 0. -1.
         -3   -1    0    0    0  501 -0.00000000000E+00 -0.00000000000E+00 -0.26163574493E+02  0.26163574493E+02  0.00000000000E+00 0.  1.
         25    2    1    2    0    0 -0.34734736376E+02 -0.67845982642E+02  0.26378163138E+03  0.30172393471E+03  0.12508798685E+03 0.  0.
          5    1    3    3  502    0 -0.30379025181E+02 -0.10118530419E+03  0.23333658214E+03  0.25617334740E+03  0.41800000000E+01 0. -1.
         -5    1    3    3    0  502 -0.43557111945E+01  0.33339321546E+02  0.30445049242E+02  0.45550587312E+02  0.41800000000E+01 0. -1.
        -11    1    1    2    0    0  0.57643472109E+02  0.58773197435E+02  0.45636171792E+03  0.46372737271E+03  0.00000000000E+00 0.  1.
         11    1    1    2    0    0 -0.22908735733E+02  0.90727852073E+01  0.39737953740E+02  0.46757144606E+02  0.00000000000E+00 0. -1.
</event>
<event>
 7    1  0.2440960E-009  0.1378046E+03  0.7561462E-02  0.1216314E+00
         -2   -1    0    0    0  501 -0.00000000000E+00  0.00000000000E+00  0.35330116489E+02  0.35330116489E+02  0.00000000000E+00 0.  1.
          2   -1    0    0  501    0  0.00000000000E+00 -0.00000000000E+00 -0.64311339279E+03  0.64311339279E+03  0.00000000000E+00 0. -1.
         25    2    1    2    0    0  0.96183328294E+01  0.99162796940E+02 -0.40164991687E+03  0.43231684183E+03  0.12509765539E+03 0.  0.
          5    1    3    3  502    0 -0.56806198999E+02  0.36070052216E+02 -0.14920943900E+03  0.16373430305E+03  0.41800000000E+01 0. -1.
         -5    1    3    3    0  502  0.66424531828E+02  0.63092744725E+02 -0.25244047787E+03  0.26858253877E+03  0.41800000000E+01 0. -1.
        -11    1    1    2    0    0 -0.32900341403E+02 -0.34126488183E+02 -0.14939190456E+03  0.15673222645E+03  0.00000000000E+00 0. -1.
         11    1    1    2    0    0  0.23282008573E+02 -0.65036308758E+02 -0.56741454865E+02  0.89394440991E+02  0.00000000000E+00 0.  1.
</event>
<event>
 7    1  0.2440960E-009  0.9004081E+02  0.7561462E-02  0.1302753E+00
         -1   -1    0    0    0  501 -0.00000000000E+00  0.00000000000E+00  0.55262749197E+02  0.55262749197E+02  0.00000000000E+00 0.  1.
          1   -1    0    0  501    0  0.00000000000E+00 -0.00000000000E+00 -0.26493322300E+03  0.26493322300E+03  0.00000000000E+00 0. -1.
         25    2    1    2    0    0 -0.31152229644E+01 -0.53940076247E+02 -0.12921543885E+03  0.18778708416E+03  0.12509245740E+03 0.  0.
          5    1    3    3  502    0 -0.18831157927E+02 -0.57443072504E+02 -0.14964112854E+03  0.16144429020E+03  0.41800000000E+01 0. -1.
         -5    1    3    3    0  502  0.15715934963E+02  0.35029962565E+01  0.20425689683E+02  0.26342793959E+02  0.41800000000E+01 0. -1.
        -11    1    1    2    0    0 -0.42159849453E+02  0.28882774737E+02 -0.26183767413E+02  0.57421749001E+02  0.00000000000E+00 0.  1.
         11    1    1    2    0    0  0.45275072417E+02  0.25057301510E+02 -0.54271267539E+02  0.74987139042E+02  0.00000000000E+00 0. -1.
</event>
<event>
 7    1  0.2440960E-009  0.1127718E+03  0.7561462E-02  0.1255521E+00
         -2   -1    0    0    0  501 -0.00000000000E+00  0.00000000000E+00  0.21014170492E+03  0.21014170492E+03  0.00000000000E+00 0.  1.
          2   -1    0    0  501    0  0.00000000000E+00 -0.00000000000E+00 -0.72333791809E+02  0.72333791809E+02  0.00000000000E+00 0. -1.
         25    2    1    2    0    0  0.24046220367E+02  0.88973520441E+00  0.23203779168E+02  0.12948835211E+03  0.12509918314E+03 0.  0.
          5    1    3    3  502    0  0.46111924671E+02 -0.51227395671E+02  0.22862409161E+02  0.72737320660E+02  0.41800000000E+01 0. -1.
         -5    1    3    3    0  502 -0.22065704304E+02  0.52117130876E+02  0.34137000693E+00  0.56751031450E+02  0.41800000000E+01 0. -1.
        -11    1    1    2    0    0 -0.79554357843E+01 -0.48675097927E+02  0.43138830257E+02  0.65524902080E+02  0.00000000000E+00 0. -1.
         11    1    1    2    0    0 -0.16090784583E+02  0.47785362722E+02  0.71465303690E+02  0.87462242542E+02  0.00000000000E+00 0.  1.
</event>
<event>
 7    1  0.2440960E-009  0.1107117E+03  0.7561462E-02  0.1259258E+00
          1   -1    0    0  501    0  0.00000000000E+00  0.00000000000E+00  0.27311807256E+03  0.27311807256E+03  0.00000000000E+00 0. -1.
         -1   -1    0    0    0  501 -0.00000000000E+00 -0.00000000000E+00 -0.10197973953E+03  0.10197973953E+03  0.00000000000E+00 0.  1.
         25    2    1    2    0    0  0.42020164874E+01 -0.98606797392E+02  0.24471200291E+01  0.15935839692E+03  0.12509257707E+03 0.  0.
          5    1    3    3  502    0  0.65373680038E+01 -0.19969634588E+02  0.58743655349E+02  0.62528496942E+02  0.41800000000E+01 0.  1.
         -5    1    3    3    0  502 -0.23353515165E+01 -0.78637162804E+02 -0.56296535320E+02  0.96829899977E+02  0.41800000000E+01 0.  1.
        -11    1    1    2    0    0 -0.27639143751E+02  0.93134203079E+02  0.16487964859E+03  0.19137189075E+03  0.00000000000E+00 0. -1.
         11    1    1    2    0    0  0.23437127264E+02  0.54725943132E+01  0.38115644030E+01  0.24367524415E+02  0.00000000000E+00 0.  1.
</event>
<event>
 7    1  0.2440960E-009  0.7919389E+02  0.7561462E-02  0.1331355E+00
          2   -1    0    0  501    0  0.00000000000E+00  0.00000000000E+00  0.21612341692E+03  0.21612341692E+03  0.00000000000E+00 0.  1.
         -2   -1    0    0    0  501 -0.00000000000E+00 -0.00000000000E+00 -0.76155044049E+02  0.76155044049E+02  0.00000000000E+00 0. -1.
         25    2    1    2    0    0 -0.19992076585E+02 -0.64077916010E+02  0.64987983025E+02  0.15613336111E+03  0.12509406887E+03 0.  0.
          5    1    3    3  502    0 -0.18542198762E+02 -0.15569035059E+01 -0.33992615301E+02  0.38977010897E+02  0.41800000000E+01 0. -1.
         -5    1    3    3    0  502 -0.14498778231E+01 -0.62521012504E+02  0.98980598326E+02  0.11715635021E+03  0.41800000000E+01 0. -1.
        -11    1    1    2    0    0  0.30140507566E+02  0.56273387709E+02  0.39378117413E+01  0.63958195111E+02  0.00000000000E+00 0. -1.
         11    1    1    2    0    0 -0.10148430981E+02  0.78045283012E+01  0.71042578102E+02  0.72186904746E+02  0.00000000000E+00 0.  1.
</event>
<event>
 7    1  0.2536711E-009  0.1758049E+03  0.7561462E-02  0.1171926E+00
          3   -1    0    0  501    0  0.00000000000E+00  0.00000000000E+00  0.70728677629E+03  0.70728677629E+03  0.00000000000E+00 0.  1.
         -3   -1    0    0    0  501 -0.00000000000E+00 -0.00000000000E+00 -0.56413916062E+02  0.56413916062E+02  0.00000000000E+00 0. -1.
         25    2    1    2    0    0 -0.61998724590E+02  0.15417720405E+03  0.30528715026E+03  0.36940768631E+03  0.12508933806E+03 0.  0.
          5    1    3    3  502    0 -0.21983080569E+02  0.24271411406E+02  0.18477445490E+03  0.18770036981E+03  0.41800000000E+01 0.  1.
         -5    1    3    3    0  502 -0.40015644020E+02  0.12990579265E+03  0.12051269536E+03  0.18170731650E+03  0.41800000000E+01 0.  1.
        -11    1    1    2    0    0  0.79039980423E+01 -0.11629563283E+03  0.16507666122E+03  0.20208278373E+03  0.00000000000E+00 0.  1.
         11    1    1    2    0    0  0.54094726547E+02 -0.37881571223E+02  0.18050904875E+03  0.19221022231E+03  0.00000000000E+00 0. -1.
</event>
<event>
 7    1  0.2440960E-009  0.8310385E+02  0.7561462E-02  0.1320467E+00
         -1   -1    0    0    0  501 -0.00000000000E+00  0.00000000000E+00  0.91088625287E+02  0.91088625287E+02  0.00000000000E+00 0.  1.
          1   -1    0    0  501    0  0.00000000000E+00 -0.00000000000E+00 -0.14361448423E+03  0.14361448423E+03  0.00000000000E+00 0. -1.
         25    2    1    2    0    0  0.10439606333E+02  0.31816072974E+02  0.35746707176E+01  0.12955116384E+03  0.12509787329E+03 0.  0.
          5    1    3    3  502    0 -0.30611506692E+02  0.18801168443E+02 -0.49354800188E+02  0.61187555748E+02  0.41800000000E+01 0.  1.
         -5    1    3    3    0  502  0.41051113025E+02  0.13014904532E+02  0.52929470906E+02  0.68363608089E+02  0.41800000000E+01 0.  1.
        -11    1    1    2    0    0 -0.12467373394E+02 -0.58600885897E+02 -0.27523035052E+02  0.65931909465E+02  0.00000000000E+00 0.  1.
         11    1    1    2    0    0  0.20277670614E+01  0.26784812922E+02 -0.28577494605E+02  0.39220036212E+02  0.00000000000E+00 0. -1.
</event>
<event>
 7    1  0.3019506E-009  0.9416711E+02  0.7561462E-02  0.1293063E+00
         -2   -1    0    0    0  501 -0.00000000000E+00  0.00000000000E+00  0.24414491993E+02  0.24414491993E+02  0.00000000000E+00 0.  1.
          2   -1    0    0  501    0  0.00000000000E+00 -0.00000000000E+00 -0.65804494276E+03  0.65804494276E+03  0.00000000000E+00 0. -1.
         25    2    1    2    0    0  0.74718777246E+01  0.62784106434E+02 -0.30146289277E+03  0.33245270330E+03  0.12508897329E+03 0.  0.
          5    1    3    3  502    0 -0.34141664833E+01  0.80027753458E+02 -0.30113454324E+03  0.31163373276E+03  0.41800000000E+01 0.  1.
         -5    1    3    3    0  502  0.10886044208E+02 -0.17243647024E+02 -0.32834952301E+00  0.20818970546E+02  0.41800000000E+01 0.  1.
        -11    1    1    2    0    0 -0.31381561416E+02 -0.52749150155E+02 -0.30961807577E+03  0.31564319743E+03  0.00000000000E+00 0. -1.
         11    1    1    2    0    0  0.23909683691E+02 -0.10034956279E+02 -0.22549482227E+02  0.34363534022E+02  0.00000000000E+00 0.  1.
</event>
<event>
 7    1  0.2440960E-009  0.2659432E+03  0.7561462E-02  0.1103624E+00
         -2   -1    0    0    0  501 -0.00000000000E+00  0.00000000000E+00  0.67420822060E+02  0.67420822060E+02  0.00000000000E+00 0.  1.
          2   -1    0    0  501    0  0.00000000000E+00 -0.00000000000E+00 -0.11658564027E+04  0.11658564027E+04  0.00000000000E+00 0. -1.
         25    2    1    2    0    0 -0.24198366476E+03 -0.60543093545E+02 -0.41515606955E+03  0.50022335856E+03  0.12508911294E+03 0.  0.
          5    1    3    3  502    0 -0.17259179929E+03  0.30268122646E+01 -0.19326282919E+03  0.25916227411E+03  0.41800000000E+01 0. -1.
         -5    1    3    3    0  502 -0.69391865469E+02 -0.63569905809E+02 -0.22189324036E+03  0.24106108445E+03  0.41800000000E+01 0. -1.
        -11    1    1    2    0    0  0.16528066071E+03 -0.31580871931E+01 -0.44760732906E+03  0.47715824560E+03  0.00000000000E+00 0. -1.
         11    1    1    2    0    0  0.76703004051E+02  0.63701180738E+02 -0.23567218204E+03  0.25589562061E+03  0.00000000000E+00 0.  1.
</event>
<event>
 7    1  0.2440960E-009  0.6931970E+02  0.7561462E-02  0.1362422E+00
          2   -1    0    0  501    0  0.00000000000E+00  0.00000000000E+00  0.16267558950E+03  0.16267558950E+03  0.00000000000E+00 0.  1.
         -2   -1    0    0    0  501 -0.00000000000E+00 -0.00000000000E+00 -0.12646664105E+03  0.12646664105E+03  0.00000000000E+00 0. -1.
         25    2    1    2    0    0  0.19794142852E+02 -0.11073908461E+02 -0.75234095683E+02  0.14772498665E+03  0.12509221793E+03 0.  0.
          5    1    3    3  502    0  0.31391058529E+02 -0.19818827035E+02  0.25906001419E+02  0.45461827615E+02  0.41800000000E+01 0.  1.
         -5    1    3    3    0  502 -0.11596915677E+02  0.87449185737E+01 -0.10114009710E+03  0.10226315903E+03  0.41800000000E+01 0.  1.
        -11    1    1    2    0    0  0.16042142467E+02 -0.28545623308E+02  0.32814129524E+02  0.46356984818E+02  0.00000000000E+00 0. -1.
         11    1    1    2    0    0 -0.35836285319E+02  0.39619531769E+02  0.78628914617E+02  0.95060259083E+02  0.00000000000E+00 0.  1.
</event>
<event>
 7    1  0.2440960E-009  0.1143090E+03  0.7561462E-02  0.1252792E+00
         -2   -1    0    0    0  501 -0.00000000000E+00  0.00000000000E+00  0.32684092527E+02  0.32684092527E+02  0.00000000000E+00 0.  1.
          2   -1    0    0  501    0  0.00000000000E+00 -0.00000000000E+00 -0.41561785088E+03  0.41561785088E+03  0.00000000000E+00 0. -1.
         25    2    1    2    0    0  0.15939476543E+01  0.44515181000E+02 -0.21900030394E+03  0.25610880986E+03  0.12508575999E+03 0.  0.
          5    1    3    3  502    0 -0.81937933840E+01 -0.43203661503E+02 -0.65777073179E+02  0.79232508311E+02  0.41800000000E+01 0.  1.
         -5    1    3    3    0  502  0.97877410383E+01  0.87718842503E+02 -0.15322323076E+03  0.17687630155E+03  0.41800000000E+01 0.  1.
        -11    1    1    2    0    0  0.41557758917E+02 -0.16963530484E+02 -0.49454389383E+02  0.66787314079E+02  0.00000000000E+00 0.  1.
         11    1    1    2    0    0 -0.43151706571E+02 -0.27551650516E+02 -0.11447906503E+03  0.12540581946E+03  0.00000000000E+00 0. -1.
</event>
<event>
 7    1  0.2440960E-009  0.3569477E+03  0.7561462E-02  0.1059799E+00
         -1   -1    0    0    0  501 -0.00000000000E+00  0.00000000000E+00  0.18743886634E+03  0.18743886634E+03  0.00000000000E+00 0.  1.
          1   -1    0    0  501    0  0.00000000000E+00 -0.00000000000E+00 -0.73391015171E+03  0.73391015171E+03  0.00000000000E+00 0. -1.
         25    2    1    2    0    0  0.34711321530E+03 -0.68418991843E+02 -0.25232857031E+03  0.45220364507E+03  0.12509870717E+03 0.  0.
          5    1    3    3  502    0  0.17909638194E+03 -0.16679455112E+01 -0.61787405101E+02  0.18950844808E+03  0.41800000000E+01 0.  1.
         -5    1    3    3    0  502  0.16801683337E+03 -0.66751046331E+02 -0.19054116521E+03  0.26269519699E+03  0.41800000000E+01 0.  1.
        -11    1    1    2    0    0 -0.44621367372E+02  0.57837820542E+01 -0.37125841038E+01  0.45147556321E+02  0.00000000000E+00 0.  1.
         11    1    1    2    0    0 -0.30249184793E+03  0.62635209788E+02 -0.29043013096E+03  0.42399781667E+03  0.00000000000E+00 0. -1.
</event>
<event>
 7    1  0.2440960E-009  0.1314479E+03  0.7561462E-02  0.1225323E+00
          1   -1    0    0  501    0  0.00000000000E+00  0.00000000000E+00  0.55520784279E+03  0.55520784279E+03  0.00000000000E+00 0. -1.
         -1   -1    0    0    0  501 -0.00000000000E+00 -0.00000000000E+00 -0.47665512914E+02  0.47665512914E+02  0.00000000000E+00 0.  1.
         25    2    1    2    0    0  0.10373966181E+03  0.19133247933E+02  0.37146122472E+03  0.40590540504E+03  0.12509099791E+03 0.  0.
          5    1    3    3  502    0 -0.18025907661E+02  0.45686331197E+01  0.16224580712E+03  0.16336150123E+03  0.41800000000E+01 0.  1.
         -5    1    3    3    0  502  0.12176556947E+03  0.14564614813E+02  0.20921541760E+03  0.24254390381E+03  0.41800000000E+01 0.  1.
        -11    1    1    2    0    0 -0.82355348083E+01 -0.24129720084E+02  0.84597162434E+02  0.88355799565E+02  0.00000000000E+00 0. -1.
         11    1    1    2    0    0 -0.95504127003E+02  0.49964721512E+01  0.51483942721E+02  0.10861215110E+03  0.00000000000E+00 0.  1.
</event>
<event>
 7    1  0.2440960E-009  0.1856913E+03  0.7561462E-02  0.1162406E+00
         -1   -1    0    0    0  501 -0.00000000000E+00  0.00000000000E+00  0.17644841559E+03  0.17644841559E+03  0.00000000000E+00 0.  1.
          1   -1    0    0  501    0  0.00000000000E+00 -0.00000000000E+00 -0.21382590213E+03  0.21382590213E+03  0.00000000000E+00 0. -1.
         25    2    1    2    0    0  0.24648528003E+02  0.15660899313E+03 -0.58157004911E+02  0.21015132628E+03  0.12508963208E+03 0.  0.
          5    1    3    3  502    0  0.68097517116E+02  0.98680928828E+02 -0.47242379515E+01  0.12006243532E+03  0.41800000000E+01 0.  1.
         -5    1    3    3    0  502 -0.43448989113E+02  0.57928064300E+02 -0.53432766959E+02  0.90088890955E+02  0.41800000000E+01 0.  1.
        -11    1    1    2    0    0  0.26713496602E+02 -0.94927672882E+02  0.95718786147E+01  0.99078225861E+02  0.00000000000E+00 0. -1.
         11    1    1    2    0    0 -0.51362024605E+02 -0.61681320247E+02  0.11207639752E+02  0.81044765579E+02  0.00000000000E+00 0.  1.
</event>
<event>
 7    1  0.2440960E-009  0.1282249E+03  0.7561462E-02  0.1230114E+00
         -1   -1    0    0    0  501 -0.00000000000E+00  0.00000000000E+00  0.59541601155E+02  0.59541601155E+02  0.00000000000E+00 0.  1.
          1   -1    0    0  501    0  0.00000000000E+00 -0.00000000000E+00 -0.42297674349E+03  0.42297674349E+03  0.00000000000E+00 0. -1.
         25    2    1    2    0    0 -0.85881898560E+01 -0.83834095062E+02 -0.72929939708E+02  0.16753810422E+03  0.12509327623E+03 0.  0.
          5    1    3    3  502    0  0.21690956476E+02 -0.99415733288E+02 -0.83438065960E+02  0.13165625268E+03  0.41800000000E+01 0.  1.
         -5    1    3    3    0  502 -0.30279146332E+02  0.15581638226E+02  0.10508126252E+02  0.35881851537E+02  0.41800000000E+01 0.  1.
        -11    1    1    2    0    0 -0.76203442556E+01 -0.16758983447E+02 -0.29276820794E+02  0.34584178587E+02  0.00000000000E+00 0. -1.
         11    1    1    2    0    0  0.16208534112E+02  0.10059307851E+03 -0.26122838183E+03  0.28039606184E+03  0.00000000000E+00 0.  1.
</event>
<event>
 7    1  0.2440960E-009  0.7611296E+02  0.7561462E-02  0.1340459E+00
         -1   -1    0    0    0  501 -0.00000000000E+00  0.00000000000E+00  0.10387306846E+03  0.10387306846E+03  0.00000000000E+00 0.  1.
          1   -1    0    0  501    0  0.00000000000E+00 -0.00000000000E+00 -0.14183830822E+03  0.14183830822E+03  0.00000000000E+00 0. -1.
         25    2    1    2    0    0  0.49627830529E+02  0.48514324193E+02 -0.56446754755E+02  0.15378740062E+03  0.12509103586E+03 0.  0.
          5    1    3    3  502    0  0.15985676480E+02  0.90711211542E+01  0.39995590718E+02  0.44214779977E+02  0.41800000000E+01 0.  1.
         -5    1    3    3    0  502  0.33642154049E+02  0.39443203039E+02 -0.96442345474E+02  0.10957262065E+03  0.41800000000E+01 0.  1.
        -11    1    1    2    0    0 -0.37911251988E+02 -0.74147223604E+01  0.28528257626E+02  0.48021897278E+02  0.00000000000E+00 0.  1.
         11    1    1    2    0    0 -0.11716578541E+02 -0.41099601833E+02 -0.10046742637E+02  0.43902078779E+02  0.00000000000E+00 0. -1.
</event>
<event>
 7    1  0.2440960E-009  0.9971947E+02  0.7561462E-02  0.1280887E+00
          2   -1    0    0  501    0  0.00000000000E+00  0.00000000000E+00  0.87165738302E+03  0.87165738302E+03  0.00000000000E+00 0. -1.
         -2   -1    0    0    0  501 -0.00000000000E+00 -0.00000000000E+00 -0.38905416118E+02  0.38905416118E+02  0.00000000000E+00 0.  1.
         25    2    1    2    0    0  0.50321141971E+02 -0.22476375609E+02  0.80747664404E+03  0.81896414497E+03  0.12508531205E+03 0.  0.
          5    1    3    3  502    0 -0.39404277897E+02 -0.97193365878E+01  0.15805647870E+03  0.16323751247E+03  0.41800000000E+01 0.  1.
         -5    1    3    3    0  502  0.89725419868E+02 -0.12757039021E+02  0.64942016534E+03  0.65572663250E+03  0.41800000000E+01 0.  1.
        -11    1    1    2    0    0 -0.42152556747E+02 -0.19109683875E+01  0.43092227978E+02  0.60311109694E+02  0.00000000000E+00 0. -1.
         11    1    1    2    0    0 -0.81685852241E+01  0.24387343997E+02 -0.17816905110E+02  0.31287544478E+02  0.00000000000E+00 0.  1.
</event>
<event>
 7    1  0.2440960E-009  0.1035766E+03  0.7561462E-02  0.1272950E+00
          3   -1    0    0  501    0  0.00000000000E+00  0.00000000000E+00  0.30474970420E+03  0.30474970420E+03  0.00000000000E+00 0. -1.
         -3   -1    0    0    0  501 -0.00000000000E+00 -0.00000000000E+00 -0.46768756082E+02  0.46768756082E+02  0.00000000000E+00 0.  1.
         25    2    1    2    0    0 -0.41364844474E+01  0.13724460144E+02  0.81201459940E+02  0.14982300453E+03  0.12509110392E+03 0.  0.
          5    1    3    3  502    0 -0.22954201774E+02 -0.44170743119E+02  0.72707779358E+02  0.88214757869E+02  0.41800000000E+01 0.  1.
         -5    1    3    3    0  502  0.18817717327E+02  0.57895203263E+02  0.84936805820E+01  0.61608246657E+02  0.41800000000E+01 0.  1.
        -11    1    1    2    0    0 -0.32884617903E+02 -0.39254502618E+02  0.10790462244E+03  0.11943919631E+03  0.00000000000E+00 0.  1.
         11    1    1    2    0    0  0.37021102351E+02  0.25530042474E+02  0.68874865735E+02  0.82256259445E+02  0.00000000000E+00 0. -1.
</event>
<event>
 7    1  0.2440960E-009  0.1017662E+03  0.7561462E-02  0.1276625E+00
         -3   -1    0    0    0  501 -0.00000000000E+00  0.00000000000E+00  0.63643110330E+02  0.63643110330E+02  0.00000000000E+00 0.  1.
          3   -1    0    0  501    0  0.00000000000E+00 -0.00000000000E+00 -0.22219909519E+03  0.22219909519E+03  0.00000000000E+00 0. -1.
         25    2    1    2    0    0  0.46253589599E+02 -0.16612706159E+02 -0.79212410179E+02  0.15600522966E+03  0.12509056398E+03 0.  0.
          5    1    3    3  502    0  0.28260356090E+02  0.53108265424E+02 -0.22925473091E+02  0.64515000575E+02  0.41800000000E+01 0. -1.
         -5    1    3    3    0  502  0.17993233509E+02 -0.69720971583E+02 -0.56286937088E+02  0.91490229081E+02  0.41800000000E+01 0. -1.
        -11    1    1    2    0    0 -0.17623705425E+02 -0.18663400032E+02  0.11606113363E+02  0.28171250613E+02  0.00000000000E+00 0.  1.
         11    1    1    2    0    0 -0.28629884173E+02  0.35276106191E+02 -0.90949688039E+02  0.10166572525E+03  0.00000000000E+00 0. -1.
</event>
<event>
 7    1  0.2440960E-009  0.1200300E+03  0.7561462E-02  0.1243047E+00
         -2   -1    0    0    0  501 -0.00000000000E+00  0.00000000000E+00  0.21944578900E+02  0.21944578900E+02  0.00000000000E+00 0.  1.
          2   -1    0    0  501    0  0.00000000000E+00 -0.00000000000E+00 -0.83958742815E+03  0.83958742815E+03  0.00000000000E+00 0. -1.
         25    2    1    2    0    0  0.53023159258E+02 -0.35637432234E+02 -0.60817993302E+03  0.62418902146E+03  0.12509045365E+03 0.  0.
          5    1    3    3  502    0 -0.24382104163E+02  0.29858973203E+02 -0.15355463635E+03  0.15837469503E+03  0.41800000000E+01 0.  1.
         -5    1    3    3    0  502  0.77405263421E+02 -0.65496405437E+02 -0.45462529667E+03  0.46581432643E+03  0.41800000000E+01 0.  1.
        -11    1    1    2    0    0 -0.87549858225E+01  0.51905755424E+02 -0.56263507171E+02  0.77048293051E+02  0.00000000000E+00 0.  1.
         11    1    1    2    0    0 -0.44268173436E+02 -0.16268323190E+02 -0.15319940906E+03  0.16029469254E+03  0.00000000000E+00 0. -1.
</event>
<event>
 7    1  0.2440960E-009  0.3433339E+03  0.7561462E-02  0.1065385E+00
         -1   -1    0    0    0  501 -0.00000000000E+00  0.00000000000E+00  0.82427069849E+02  0.82427069849E+02  0.00000000000E+00 0.  1.
          1   -1    0    0  501    0  0.00000000000E+00 -0.00000000000E+00 -0.16439711885E+04  0.16439711885E+04  0.00000000000E+00 0. -1.
         25    2    1    2    0    0 -0.21464863819E+03 -0.25532710660E+03 -0.10454154855E+04  0.11044488140E+04  0.12509067230E+03 0.  0.
          5    1    3    3  502    0 -0.15408295176E+03 -0.11174684099E+03 -0.70107086186E+03  0.72646179407E+03  0.41800000000E+01 0. -1.
         -5    1    3    3    0  502 -0.60565686426E+02 -0.14358026560E+03 -0.34434462360E+03  0.37798701995E+03  0.41800000000E+01 0. -1.
        -11    1    1    2    0    0  0.16410934288E+03  0.23336286667E+03 -0.38066016146E+03  0.47570186303E+03  0.00000000000E+00 0.  1.
         11    1    1    2    0    0  0.50539295311E+02  0.21964239925E+02 -0.13546847172E+03  0.14624758130E+03  0.00000000000E+00 0. -1.
</event>
<event>
 7    1  0.2440960E-009  0.1083388E+03  0.7561462E-02  0.1263677E+00
          2   -1    0    0  501    0  0.00000000000E+00  0.00000000000E+00  0.87269936390E+02  0.87269936390E+02  0.00000000000E+00 0. -1.
         -2   -1    0    0    0  501 -0.00000000000E+00 -0.00000000000E+00 -0.15539729695E+03  0.15539729695E+03  0.00000000000E+00 0.  1.
         25    2    1    2    0    0  0.33217571138E+02 -0.29274191715E+02 -0.46093370042E+02  0.14047140655E+03  0.12508889625E+03 0.  0.
          5    1    3    3  502    0  0.27713545607E+02 -0.78200700926E+02 -0.25062575439E+02  0.86769783467E+02  0.41800000000E+01 0.  1.
         -5    1    3    3    0  502  0.55040255315E+01  0.48926509210E+02 -0.21030794603E+02  0.53701623087E+02  0.41800000000E+01 0.  1.
        -11    1    1    2    0    0 -0.19322645197E+02 -0.23037639188E+02  0.17845487512E+02  0.34965109199E+02  0.00000000000E+00 0. -1.
         11    1    1    2    0    0 -0.13894925941E+02  0.52311830903E+02 -0.39879478029E+02  0.67230717587E+02  0.00000000000E+00 0.  1.
</event>
<event>
 7    1  0.2440960E-009  0.1168913E+03  0.7561462E-02  0.1248315E+00
         -1   -1    0    0    0  501 -0.00000000000E+00  0.00000000000E+00  0.13681679645E+03  0.13681679645E+03  0.00000000000E+00 0.  1.
          1   -1    0    0  501    0  0.00000000000E+00 -0.00000000000E+00 -0.11411646858E+03  0.11411646858E+03  0.00000000000E+00 0. -1.
         25    2    1    2    0    0  0.39136955204E+02  0.28236043107E+02  0.51930673323E+02  0.14378165710E+03  0.12508954670E+03 0.  0.
          5    1    3    3  502    0  0.42084760848E+02  0.74087357440E+02  0.19846997900E+02  0.87586753300E+02  0.41800000000E+01 0. -1.
         -5    1    3    3    0  502 -0.29478056446E+01 -0.45851314333E+02  0.32083675422E+02  0.56194903797E+02  0.41800000000E+01 0. -1.
        -11    1    1    2    0    0 -0.38484193418E+02 -0.59612270394E+02 -0.14230919465E+02  0.72368328663E+02  0.00000000000E+00 0. -1.
         11    1    1    2    0    0 -0.65276178535E+00  0.31376227288E+02 -0.14999425991E+02  0.34783279270E+02  0.00000000000E+00 0.  1.
</event>
<event>
 7    1  0.2440960E-009  0.2160869E+03  0.7561462E-02  0.1136834E+00
         -2   -1    0    0    0  501 -0.00000000000E+00  0.00000000000E+00  0.35824157992E+02  0.35824157992E+02  0.00000000000E+00 0.  1.
          2   -1    0    0  501    0  0.00000000000E+00 -0.00000000000E+00 -0.15547336033E+04  0.15547336033E+04  0.00000000000E+00 0. -1.
         25    2    1    2    0    0 -0.19790047457E+03  0.11632655818E+01 -0.10144561096E+04  0.10411217526E+04  0.12508938595E+03 0.  0.
          5    1    3    3  502    0 -0.78669108148E+02 -0.60957499756E+02 -0.43460104594E+03  0.44587014577E+03  0.41800000000E+01 0. -1.
         -5    1    3    3    0  502 -0.11923136642E+03  0.62120765337E+02 -0.57985506364E+03  0.59525160685E+03  0.41800000000E+01 0. -1.
        -11    1    1    2    0    0  0.13145592888E+03  0.28850932128E+01 -0.21170567961E+03  0.24921532814E+03  0.00000000000E+00 0.  1.
         11    1    1    2    0    0  0.66444545687E+02 -0.40483587945E+01 -0.29274765614E+03  0.30022068056E+03  0.00000000000E+00 0. -1.
</event>
<event>
 7    1  0.2440960E-009  0.1284968E+03  0.7561462E-02  0.1229703E+00
         -2   -1    0    0    0  501 -0.00000000000E+00  0.00000000000E+00  0.21059911183E+02  0.21059911183E+02  0.00000000000E+00 0.  1.
          2   -1    0    0  501    0  0.00000000000E+00 -0.00000000000E+00 -0.10723897195E+04  0.10723897195E+04  0.00000000000E+00 0. -1.
         25    2    1    2    0    0  0.17987949528E+02 -0.99282346678E+02 -0.52379017395E+03  0.54789079321E+03  0.12509046435E+03 0.  0.
          5    1    3    3  502    0 -0.22350028390E+02 -0.53551490063E+02 -0.74812188400E+02  0.94771418635E+02  0.41800000000E+01 0.  1.
         -5    1    3    3    0  502  0.40337977918E+02 -0.45730856615E+02 -0.44897798555E+03  0.45311937458E+03  0.41800000000E+01 0.  1.
        -11    1    1    2    0    0  0.30511435459E+02  0.39939676420E+01 -0.88864896145E+02  0.94041848334E+02  0.00000000000E+00 0.  1.
         11    1    1    2    0    0 -0.48499384987E+02  0.95288379036E+02 -0.43867473821E+03  0.45151698912E+03  0.00000000000E+00 0. -1.
</event>
<event>
 7    1  0.2440960E-009  0.1043983E+03  0.7561462E-02  0.1271310E+00
         -2   -1    0    0    0  501 -0.00000000000E+00  0.00000000000E+00  0.29940615504E+02  0.29940615504E+02  0.00000000000E+00 0.  1.
          2   -1    0    0  501    0  0.00000000000E+00 -0.00000000000E+00 -0.39291941218E+03  0.39291941218E+03  0.00000000000E+00 0. -1.
         25    2    1    2    0    0 -0.65215147226E+01  0.44594055341E+01 -0.17067369495E+03  0.21175317456E+03  0.12508988902E+03 0.  0.
          5    1    3    3  502    0  0.55337919297E+02  0.19014266053E+02 -0.59026691669E+02  0.83219290762E+02  0.41800000000E+01 0.  1.
         -5    1    3    3    0  502 -0.61859434019E+02 -0.14554860518E+02 -0.11164700328E+03  0.12853388380E+03  0.41800000000E+01 0.  1.
        -11    1    1    2    0    0  0.69348530333E+01  0.40700049279E+02 -0.10469704157E+03  0.11254357695E+03  0.00000000000E+00 0. -1.
         11    1    1    2    0    0 -0.41333831069E+00 -0.45159454813E+02 -0.87608060149E+02  0.98563276176E+02  0.00000000000E+00 0.  1.
</event>
<event>
 7    1  0.2440960E-009  0.1657396E+03  0.7561462E-02  0.1182365E+00
          1   -1    0    0  501    0  0.00000000000E+00  0.00000000000E+00  0.29033623084E+03  0.29033623084E+03  0.00000000000E+00 0. -1.
         -1   -1    0    0    0  501 -0.00000000000E+00 -0.00000000000E+00 -0.15618224270E+03  0.15618224270E+03  0.00000000000E+00 0.  1.
         25    2    1    2    0    0  0.13965618224E+03  0.19046843605E+02 -0.52491809348E+02  0.19562854346E+03  0.12509398658E+03 0.  0.
          5    1    3    3  502    0  0.97020875882E+02  0.51654972046E+02  0.13099121471E+02  0.11077159328E+03  0.41800000000E+01 0.  1.
         -5    1    3    3    0  502  0.42635306357E+02 -0.32608128441E+02 -0.65590930820E+02  0.84856950183E+02  0.41800000000E+01 0.  1.
        -11    1    1    2    0    0 -0.67199760639E+02  0.36385538025E+02  0.83652398868E+02  0.11330242294E+03  0.00000000000E+00 0.  1.
         11    1    1    2    0    0 -0.72456421601E+02 -0.55432381630E+02  0.10299339862E+03  0.13758750715E+03  0.00000000000E+00 0. -1.
</event>
<event>
 7    1  0.2440960E-009  0.6693044E+02  0.7561462E-02  0.1370854E+00
         -1   -1    0    0    0  501 -0.00000000000E+00  0.00000000000E+00  0.24407192826E+02  0.24407192826E+02  0.00000000000E+00 0.  1.
          1   -1    0    0  501    0  0.00000000000E+00 -0.00000000000E+00 -0.55709948224E+03  0.55709948224E+03  0.00000000000E+00 0. -1.
         25    2    1    2    0    0 -0.14469182727E+02 -0.74749476536E+00 -0.40039036745E+03  0.41972757253E+03  0.12509545474E+03 0.  0.
          5    1    3    3  502    0  0.43146561435E+01  0.20790716850E+02 -0.38749194947E+03  0.38809580450E+03  0.41800000000E+01 0. -1.
         -5    1    3    3    0  502 -0.18783838871E+02 -0.21538211615E+02 -0.12898417980E+02  0.31631768030E+02  0.41800000000E+01 0. -1.
        -11    1    1    2    0    0 -0.31935346886E+02 -0.13679283578E+02 -0.93008250290E+02  0.99285063338E+02  0.00000000000E+00 0. -1.
         11    1    1    2    0    0  0.46404529613E+02  0.14426778343E+02 -0.39293671675E+02  0.62494039201E+02  0.00000000000E+00 0.  1.
</event>
<event>
 7    1  0.2440960E-009  0.9948626E+02  0.7561462E-02  0.1281380E+00
         -1   -1    0    0    0  501 -0.00000000000E+00  0.00000000000E+00  0.74706993788E+02  0.74706993788E+02  0.00000000000E+00 0.  1.
          1   -1    0    0  501    0  0.00000000000E+00 -0.00000000000E+00 -0.17855979936E+03  0.17855979936E+03  0.00000000000E+00 0. -1.
         25    2    1    2    0    0  0.30540594318E+02  0.26194077224E+01 -0.91398953335E+02  0.15793014641E+03  0.12509425756E+03 0.  0.
          5    1    3    3  502    0 -0.12746643204E+02 -0.54931471946E+02 -0.36861298121E+02  0.67499416458E+02  0.41800000000E+01 0. -1.
         -5    1    3    3    0  502  0.43287237521E+02  0.57550879668E+02 -0.54537655214E+02  0.90430729948E+02  0.41800000000E+01 0. -1.
        -11    1    1    2    0    0 -0.10433451291E+02  0.30117621380E+02  0.25885184336E+02  0.41060574661E+02  0.00000000000E+00 0.  1.
         11    1    1    2    0    0 -0.20107143026E+02 -0.32737029102E+02 -0.38339036573E+02  0.54276072080E+02  0.00000000000E+00 0. -1.
</event>
<event>
 7    1  0.2440960E-009  0.1342888E+03  0.7561462E-02  0.1221227E+00
          1   -1    0    0  501    0  0.00000000000E+00  0.00000000000E+00  0.28098925580E+03  0.28098925580E+03  0.00000000000E+00 0. -1.
         -1   -1    0    0    0  501 -0.00000000000E+00 -0.00000000000E+00 -0.72525657164E+02  0.72525657164E+02  0.00000000000E+00 0.  1.
         25    2    1    2    0    0  0.23385793219E+02 -0.89488627908E+02  0.12053539268E+03  0.19680102332E+03  0.12508697791E+03 0.  0.
          5    1    3    3  502    0 -0.30106022279E+02  0.10988798594E+02  0.59157869687E+02  0.67411068957E+02  0.41800000000E+01 0.  1.
         -5    1    3    3    0  502  0.53491815498E+02 -0.10047742650E+03  0.61377522990E+02  0.12938995436E+03  0.41800000000E+01 0.  1.
        -11    1    1    2    0    0 -0.52626106869E+02  0.45711130181E+02  0.75228645078E+02  0.10255907364E+03  0.00000000000E+00 0. -1.
         11    1    1    2    0    0  0.29240313650E+02  0.43777497727E+02  0.12699560884E+02  0.54154816002E+02  0.00000000000E+00 0.  1.
</event>
<event>
 7    1  0.2440960E-009  0.1618991E+03  0.7561462E-02  0.1186569E+00
         -1   -1    0    0    0  501 -0.00000000000E+00  0.00000000000E+00  0.51008687463E+02  0.51008687463E+02  0.00000000000E+00 0.  1.
          1   -1    0    0  501    0  0.00000000000E+00 -0.00000000000E+00 -0.56519229212E+03  0.56519229212E+03  0.00000000000E+00 0. -1.
         25    2    1    2    0    0  0.10577618463E+03 -0.73289183486E+02 -0.23651367861E+03  0.29689375043E+03  0.12508906118E+03 0.  0.
          5    1    3    3  502    0  0.72088780210E+02  0.19050372372E+02 -0.14214692041E+03  0.16057063337E+03  0.41800000000E+01 0.  1.
         -5    1    3    3    0  502  0.33687404421E+02 -0.92339555858E+02 -0.94366758196E+02  0.13632311706E+03  0.41800000000E+01 0.  1.
        -11    1    1    2    0    0 -0.11256831029E+02 -0.16759289967E+02 -0.12504021132E+02  0.23747433324E+02  0.00000000000E+00 0.  1.
         11    1    1    2    0    0 -0.94519353603E+02  0.90048473453E+02 -0.26516590492E+03  0.29555979583E+03  0.00000000000E+00 0. -1.
</event>
<event>
 7    1  0.2827474E-009  0.9827570E+02  0.7561462E-02  0.1283964E+00
         -2   -1    0    0    0  501 -0.00000000000E+00  0.00000000000E+00  0.65920261758E+02  0.65920261758E+02  0.00000000000E+00 0.  1.
          2   -1    0    0  501    0  0.00000000000E+00 -0.00000000000E+00 -0.24676754833E+03  0.24676754833E+03  0.00000000000E+00 0. -1.
         25    2    1    2    0    0 -0.59756268733E+02  0.20860803152E+01 -0.64566039711E+02  0.15294403396E+03  0.12509172897E+03 0.  0.
          5    1    3    3  502    0  0.38404244265E+01  0.41229813731E+02 -0.66126098148E+02  0.78133089382E+02  0.41800000000E+01 0.  1.
         -5    1    3    3    0  502 -0.63596693159E+02 -0.39143733416E+02  0.15600584373E+01  0.74810944579E+02  0.41800000000E+01 0.  1.
        -11    1    1    2    0    0  0.12541113010E+02 -0.24764365868E+02  0.44746448866E+01  0.28117179433E+02  0.00000000000E+00 0.  1.
         11    1    1    2    0    0  0.47215155723E+02  0.22678285553E+02 -0.12075589175E+03  0.13162659670E+03  0.00000000000E+00 0. -1.
</event>
<event>
 7    1  0.2440960E-009  0.1048123E+03  0.7561462E-02  0.1270490E+00
         -2   -1    0    0    0  501 -0.00000000000E+00  0.00000000000E+00  0.11642348252E+02  0.11642348252E+02  0.00000000000E+00 0.  1.
          2   -1    0    0  501    0  0.00000000000E+00 -0.00000000000E+00 -0.16897987373E+04  0.16897987373E+04  0.00000000000E+00 0. -1.
         25    2    1    2    0    0  0.13347949594E+02 -0.54971491676E+02 -0.13176216108E+04  0.13247542377E+04  0.12508816211E+03 0.  0.
          5    1    3    3  502    0 -0.23949964109E+02 -0.84154517188E+02 -0.73642045798E+03  0.74161185729E+03  0.41800000000E+01 0. -1.
         -5    1    3    3    0  502  0.37297913703E+02  0.29183025512E+02 -0.58120115282E+03  0.58314238037E+03  0.41800000000E+01 0. -1.
        -11    1    1    2    0    0 -0.11611466444E+02 -0.62863312143E+01 -0.24915664707E+01  0.13436964560E+02  0.00000000000E+00 0.  1.
         11    1    1    2    0    0 -0.17364831499E+01  0.61257822890E+02 -0.35804321175E+03  0.36324988330E+03  0.00000000000E+00 0. -1.
</event>
<event>
 7    1  0.2440960E-009  0.2238995E+03  0.7561462E-02  0.1131009E+00
         -1   -1    0    0    0  501 -0.00000000000E+00  0.00000000000E+00  0.11825372451E+04  0.11825372451E+04  0.00000000000E+00 0.  1.
          1   -1    0    0  501    0  0.00000000000E+00 -0.00000000000E+00 -0.50768182668E+02  0.50768182668E+02  0.00000000000E+00 0. -1.
         25    2    1    2    0    0 -0.18143887611E+03 -0.92093133363E+02  0.79187893507E+03  0.82711536037E+03  0.12508541311E+03 0.  0.
          5    1    3    3  502    0 -0.17102697062E+03 -0.11713186991E+03  0.63903741299E+03  0.67183062392E+03  0.41800000000E+01 0.  1.
         -5    1    3    3    0  502 -0.10411905496E+02  0.25038736551E+02  0.15284152208E+03  0.15528473645E+03  0.41800000000E+01 0.  1.
        -11    1    1    2    0    0  0.33676963443E+02  0.48356966921E+02  0.15303883111E+03  0.16399212769E+03  0.00000000000E+00 0.  1.
         11    1    1    2    0    0  0.14776191267E+03  0.43736166442E+02  0.18685129628E+03  0.24219793974E+03  0.00000000000E+00 0. -1.
</event>
<event>
 7    1  0.2440960E-009  0.1033624E+03  0.7561462E-02  0.1273380E+00
          3   -1    0    0  501    0  0.00000000000E+00  0.00000000000E+00  0.16589673216E+03  0.16589673216E+03  0.00000000000E+00 0. -1.
         -3   -1    0    0    0  501 -0.00000000000E+00 -0.00000000000E+00 -0.76870663301E+02  0.76870663301E+02  0.00000000000E+00 0.  1.
         25    2    1    2    0    0  0.98083933894E+01 -0.29256733407E+02  0.37698450000E+02  0.13424219849E+03  0.12509050201E+03 0.  0.
          5    1    3    3  502    0 -0.55328050221E+02  0.28666497865E+01  0.22391738838E+02  0.59902196875E+02  0.41800000000E+01 0.  1.
         -5    1    3    3    0  502  0.65136443610E+02 -0.32123383193E+02  0.15306711161E+02  0.74340001618E+02  0.41800000000E+01 0.  1.
        -11    1    1    2    0    0 -0.26742014115E+01 -0.24270463549E+02 -0.10374582042E+02  0.26529958662E+02  0.00000000000E+00 0.  1.
         11    1    1    2    0    0 -0.71341919779E+01  0.53527196955E+02  0.61702200903E+02  0.81995238309E+02  0.00000000000E+00 0. -1.
</event>
<event>
 7    1  0.2440960E-009  0.1463017E+03  0.7561462E-02  0.1205093E+00
         -2   -1    0    0    0  501 -0.00000000000E+00  0.00000000000E+00  0.51584175416E+02  0.51584175416E+02  0.00000000000E+00 0.  1.
          2   -1    0    0  501    0  0.00000000000E+00 -0.00000000000E+00 -0.63646306619E+03  0.63646306619E+03  0.00000000000E+00 0. -1.
         25    2    1    2    0    0 -0.87612223890E+02 -0.74963355462E+02 -0.47298976943E+03  0.50265527541E+03  0.12509035724E+03 0.  0.
          5    1    3    3  502    0  0.25176666749E+02 -0.34653927969E-01 -0.15384024659E+03  0.15594280882E+03  0.41800000000E+01 0.  1.
         -5    1    3    3    0  502 -0.11278889064E+03 -0.74928701534E+02 -0.31914952283E+03  0.34671246659E+03  0.41800000000E+01 0.  1.
        -11    1    1    2    0    0  0.18733142336E+02  0.57606680332E+02 -0.10319847556E+02  0.61448836395E+02  0.00000000000E+00 0.  1.
         11    1    1    2    0    0  0.68879081554E+02  0.17356675130E+02 -0.10156927379E+03  0.12394312981E+03  0.00000000000E+00 0. -1.
</event>
<event>
 7    1  0.2440960E-009  0.1180884E+03  0.7561462E-02  0.1246284E+00
          2   -1    0    0  501    0  0.00000000000E+00  0.00000000000E+00  0.23097574129E+03  0.23097574129E+03  0.00000000000E+00 0. -1.
         -2   -1    0    0    0  501 -0.00000000000E+00 -0.00000000000E+00 -0.68545964097E+02  0.68545964097E+02  0.00000000000E+00 0.  1.
         25    2    1    2    0    0  0.25652577792E+02 -0.55696526860E+02  0.10828608176E+03  0.17645087615E+03  0.12509547690E+03 0.  0.
          5    1    3    3  502    0  0.66130227256E+02 -0.94482707692E+01  0.90061141451E+02  0.11220943978E+03  0.41800000000E+01 0. -1.
         -5    1    3    3    0  502 -0.40477649463E+02 -0.46248256091E+02  0.18224940308E+02  0.64241436369E+02  0.41800000000E+01 0. -1.
        -11    1    1    2    0    0 -0.46601749908E+02 -0.16070002993E+01  0.37474933033E+02  0.59822037330E+02  0.00000000000E+00 0.  1.
         11    1    1    2    0    0  0.20949172116E+02  0.57303527159E+02  0.16668762401E+02  0.63248791903E+02  0.00000000000E+00 0. -1.
</event>
<event>
 7    1  0.2440960E-009  0.1314793E+03  0.7561462E-02  0.1225277E+00
          1   -1    0    0  501    0  0.00000000000E+00  0.00000000000E+00  0.53701940807E+03  0.53701940807E+03  0.00000000000E+00 0. -1.
         -1   -1    0    0    0  501 -0.00000000000E+00 -0.00000000000E+00 -0.35070172024E+02  0.35070172024E+02  0.00000000000E+00 0.  1.
         25    2    1    2    0    0  0.47496105830E+02 -0.66391497256E+02  0.31675867710E+03  0.35020666955E+03  0.12507973817E+03 0.  0.
          5    1    3    3  502    0 -0.27650448320E+02 -0.66968051738E+02  0.13061062673E+03  0.14941845756E+03  0.41800000000E+01 0.  1.
         -5    1    3    3    0  502  0.75146554150E+02  0.57655448241E+00  0.18614805037E+03  0.20078821198E+03  0.41800000000E+01 0.  1.
        -11    1    1    2    0    0 -0.68737746101E+02  0.34779412199E+02  0.15569644811E+03  0.17371202954E+03  0.00000000000E+00 0. -1.
         11    1    1    2    0    0  0.21241640271E+02  0.31612085056E+02  0.29494110838E+02  0.48170881008E+02  0.00000000000E+00 0.  1.
</event>
<event>
 7    1  0.2440960E-009  0.1757502E+03  0.7561462E-02  0.1171981E+00
          2   -1    0    0  501    0  0.00000000000E+00  0.00000000000E+00  0.39487628822E+03  0.39487628822E+03  0.00000000000E+00 0. -1.
         -2   -1    0    0    0  501 -0.00000000000E+00 -0.00000000000E+00 -0.99512748109E+02  0.99512748109E+02  0.00000000000E+00 0.  1.
         25    2    1    2    0    0 -0.10125034311E+03  0.97402214130E+02  0.26226063012E+03  0.32275556282E+03  0.12510672215E+03 0.  0.
          5    1    3    3  502    0  0.28830859523E+02  0.24784013715E+02  0.41950353929E+02  0.56769449455E+02  0.41800000000E+01 0. -1.
         -5    1    3    3    0  502 -0.13008120264E+03  0.72618200415E+02  0.22031027619E+03  0.26598611337E+03  0.41800000000E+01 0. -1.
        -11    1    1    2    0    0  0.80905404931E+01 -0.65119989841E+02  0.32059377290E+02  0.73033373157E+02  0.00000000000E+00 0. -1.
         11    1    1    2    0    0  0.93159802620E+02 -0.32282224288E+02  0.10435327094E+01  0.98600100353E+02  0.00000000000E+00 0.  1.
</event>
<event>
 7    1  0.2440960E-009  0.1189974E+03  0.7561462E-02  0.1244760E+00
         -1   -1    0    0    0  501 -0.00000000000E+00  0.00000000000E+00  0.42632758501E+02  0.42632758501E+02  0.00000000000E+00 0.  1.
          1   -1    0    0  501    0  0.00000000000E+00 -0.00000000000E+00 -0.74152054869E+03  0.74152054869E+03  0.00000000000E+00 0. -1.
         25    2    1    2    0    0 -0.25466898073E+02 -0.95140962759E+02 -0.58958232990E+03  0.61070098148E+03  0.12509196359E+03 0.  0.
          5    1    3    3  502    0 -0.64971065562E+01  0.28573338319E+01 -0.36273639169E+03  0.36282990368E+03  0.41800000000E+01 0.  1.
         -5    1    3    3    0  502 -0.18969791516E+02 -0.97998296591E+02 -0.22684593821E+03  0.24787107780E+03  0.41800000000E+01 0.  1.
        -11    1    1    2    0    0  0.52978158673E+02  0.85725809695E+02 -0.10217996768E+03  0.14351426946E+03  0.00000000000E+00 0. -1.
         11    1    1    2    0    0 -0.27511260601E+02  0.94151530645E+01 -0.71254926098E+01  0.29938056250E+02  0.00000000000E+00 0.  1.
</event>
<event>
 7    1  0.2440960E-009  0.2382240E+03  0.7561462E-02  0.1120982E+00
         -1   -1    0    0    0  501 -0.00000000000E+00  0.00000000000E+00  0.31439415806E+03  0.31439415806E+03  0.00000000000E+00 0.  1.
          1   -1    0    0  501    0  0.00000000000E+00 -0.00000000000E+00 -0.19519302131E+03  0.19519302131E+03  0.00000000000E+00 0. -1.
         25    2    1    2    0    0 -0.63229802325E+02  0.21303173122E+03  0.69447989169E+02  0.26429360110E+03  0.12509019934E+03 0.  0.
          5    1    3    3  502    0 -0.60604013203E+02  0.24807824822E+02  0.28837399823E+02  0.71675258055E+02  0.41800000000E+01 0. -1.
         -5    1    3    3    0  502 -0.26257891217E+01  0.18822390640E+03  0.40610589346E+02  0.19261834304E+03  0.41800000000E+01 0. -1.
        -11    1    1    2    0    0  0.51588212269E+02 -0.15520095279E+03  0.76458166952E+02  0.18053955435E+03  0.00000000000E+00 0. -1.
         11    1    1    2    0    0  0.11641590056E+02 -0.57830778436E+02 -0.26705019369E+02  0.64754023914E+02  0.00000000000E+00 0.  1.
</event>
<event>
 7    1  0.2440960E-009  0.1103875E+03  0.7561462E-02  0.1259854E+00
          4   -1    0    0  501    0  0.00000000000E+00  0.00000000000E+00  0.67121887795E+02  0.67121887795E+02  0.00000000000E+00 0.  1.
         -4   -1    0    0    0  501 -0.00000000000E+00 -0.00000000000E+00 -0.24701847869E+03  0.24701847869E+03  0.00000000000E+00 0. -1.
         25    2    1    2    0    0 -0.40673832842E+02 -0.56981519396E+02 -0.97612766045E+02  0.17342667032E+03  0.12508918280E+03 0.  0.
          5    1    3    3  502    0  0.43239604091E+02 -0.27584099036E+02 -0.52958208297E+02  0.73841655640E+02  0.41800000000E+01 0.  1.
         -5    1    3    3    0  502 -0.83913436933E+02 -0.29397420360E+02 -0.44654557748E+02  0.99585014683E+02  0.41800000000E+01 0.  1.
        -11    1    1    2    0    0  0.12969614308E+02 -0.37930456878E+01  0.16588431084E+02  0.21395656959E+02  0.00000000000E+00 0.  1.
         11    1    1    2    0    0  0.27704218534E+02  0.60774565084E+02 -0.98872255936E+02  0.11931803920E+03  0.00000000000E+00 0. -1.
</event>
<event>
 7    1  0.2440960E-009  0.1058433E+03  0.7561462E-02  0.1268467E+00
         -2   -1    0    0    0  501 -0.00000000000E+00  0.00000000000E+00  0.52828349781E+02  0.52828349781E+02  0.00000000000E+00 0.  1.
          2   -1    0    0  501    0  0.00000000000E+00 -0.00000000000E+00 -0.39802351515E+03  0.39802351515E+03  0.00000000000E+00 0. -1.
         25    2    1    2    0    0 -0.79284128512E+02 -0.40763327318E+02 -0.23743195584E+03  0.28279179237E+03  0.12509853032E+03 0.  0.
          5    1    3    3  502    0 -0.52705922399E+02 -0.45178790127E+02 -0.24485076529E+03  0.25453566939E+03  0.41800000000E+01 0. -1.
         -5    1    3    3    0  502 -0.26578206112E+02  0.44154628084E+01  0.74188094430E+01  0.28256122974E+02  0.41800000000E+01 0. -1.
        -11    1    1    2    0    0 -0.42162674640E+01 -0.14264644654E+02  0.64857592892E+01  0.16227201607E+02  0.00000000000E+00 0.  1.
         11    1    1    2    0    0  0.83500395976E+02  0.55027971972E+02 -0.11424896882E+03  0.15183287096E+03  0.00000000000E+00 0. -1.
</event>
<event>
 7    1  0.2440960E-009  0.1250008E+03  0.7561462E-02  0.1235068E+00
         -2   -1    0    0    0  501 -0.00000000000E+00  0.00000000000E+00  0.16457869521E+03  0.16457869521E+03  0.00000000000E+00 0.  1.
          2   -1    0    0  501    0  0.00000000000E+00 -0.00000000000E+00 -0.10884502442E+03  0.10884502442E+03  0.00000000000E+00 0. -1.
         25    2    1    2    0    0 -0.37723826797E+02 -0.70056331533E+02  0.29513717597E+02  0.15116158564E+03  0.12509112179E+03 0.  0.
          5    1    3    3  502    0 -0.86361544822E+01 -0.10337301668E+03  0.19855672248E+02  0.10569902489E+03  0.41800000000E+01 0. -1.
         -5    1    3    3    0  502 -0.29087672315E+02  0.33316685150E+02  0.96580453484E+01  0.45462560751E+02  0.41800000000E+01 0. -1.
        -11    1    1    2    0    0 -0.12041693800E+02  0.43934529625E+02 -0.19750393225E+02  0.49652022269E+02  0.00000000000E+00 0. -1.
         11    1    1    2    0    0  0.49765520597E+02  0.26121801908E+02  0.45970346414E+02  0.72610111724E+02  0.00000000000E+00 0.  1.
</event>
<event>
 7    1  0.2440960E-009  0.1260819E+03  0.7561462E-02  0.1233388E+00
          3   -1    0    0  501    0  0.00000000000E+00  0.00000000000E+00  0.34604445105E+03  0.34604445105E+03  0.00000000000E+00 0. -1.
         -3   -1    0    0    0  501 -0.00000000000E+00 -0.00000000000E+00 -0.67999230641E+02  0.67999230641E+02  0.00000000000E+00 0.  1.
         25    2    1    2    0    0  0.16912892998E+02 -0.76951992534E+02  0.47608070129E+02  0.15531123165E+03  0.12508954884E+03 0.  0.
          5    1    3    3  502    0 -0.28116932508E+02 -0.94823597393E+02  0.27964030168E+02  0.10286659273E+03  0.41800000000E+01 0.  1.
         -5    1    3    3    0  502  0.45029825506E+02  0.17871604859E+02  0.19644039960E+02  0.52444638918E+02  0.41800000000E+01 0.  1.
        -11    1    1    2    0    0 -0.43839369775E+02  0.47393067464E+02  0.78580733252E+02  0.10170017121E+03  0.00000000000E+00 0.  1.
         11    1    1    2    0    0  0.26926476777E+02  0.29558925070E+02  0.15185641703E+03  0.15703227884E+03  0.00000000000E+00 0. -1.
</event>
<event>
 7    1  0.2440960E-009  0.9744722E+02  0.7561462E-02  0.1285758E+00
          1   -1    0    0  501    0  0.00000000000E+00  0.00000000000E+00  0.25862619847E+02  0.25862619847E+02  0.00000000000E+00 0. -1.
         -1   -1    0    0    0  501 -0.00000000000E+00 -0.00000000000E+00 -0.57537717183E+03  0.57537717183E+03  0.00000000000E+00 0.  1.
         25    2    1    2    0    0 -0.52837119027E+01 -0.52989949290E+02 -0.26976770624E+03  0.30208921134E+03  0.12508966358E+03 0.  0.
          5    1    3    3  502    0 -0.17433422084E+02 -0.69428133106E+02 -0.66632647012E+02  0.97885504136E+02  0.41800000000E+01 0. -1.
         -5    1    3    3    0  502  0.12149710181E+02  0.16438183816E+02 -0.20313505923E+03  0.20420370720E+03  0.41800000000E+01 0. -1.
        -11    1    1    2    0    0  0.13708911302E+02 -0.22510356638E+02 -0.42224612009E+02  0.49775177191E+02  0.00000000000E+00 0. -1.
         11    1    1    2    0    0 -0.84251993990E+01  0.75500305929E+02 -0.23752223373E+03  0.24937540315E+03  0.00000000000E+00 0.  1.
</event>
<event>
 7    1  0.2440960E-009  0.8176897E+02  0.7561462E-02  0.1324105E+00
          1   -1    0    0  501    0  0.00000000000E+00  0.00000000000E+00  0.15966253295E+03  0.15966253295E+03  0.00000000000E+00 0. -1.
         -1   -1    0    0    0  501 -0.00000000000E+00 -0.00000000000E+00 -0.75063154083E+02  0.75063154083E+02  0.00000000000E+00 0.  1.
         25    2    1    2    0    0 -0.82607645221E+01 -0.20832425615E+02  0.49526687908E+02  0.13639378612E+03  0.12509253331E+03 0.  0.
          5    1    3    3  502    0  0.22063038627E+02 -0.32004896770E+02 -0.30759714853E+02  0.49746593336E+02  0.41800000000E+01 0.  1.
         -5    1    3    3    0  502 -0.30323803149E+02  0.11172471155E+02  0.80286402760E+02  0.86647192784E+02  0.41800000000E+01 0.  1.
        -11    1    1    2    0    0  0.27422657286E+02 -0.28125169916E+02  0.15681245402E+02  0.42295729959E+02  0.00000000000E+00 0. -1.
         11    1    1    2    0    0 -0.19161892764E+02  0.48957595530E+02  0.19391445557E+02  0.56036170954E+02  0.00000000000E+00 0.  1.
</event>
<event>
 7    1  0.2440960E-009  0.1151095E+03  0.7561462E-02  0.1251390E+00
         -2   -1    0    0    0  501 -0.00000000000E+00  0.00000000000E+00  0.92073756311E+02  0.92073756311E+02  0.00000000000E+00 0.  1.
          2   -1    0    0  501    0  0.00000000000E+00 -0.00000000000E+00 -0.21484772117E+03  0.21484772117E+03  0.00000000000E+00 0. -1.
         25    2    1    2    0    0 -0.50898677148E+02  0.54497986162E+02 -0.12101423497E+03  0.18935982286E+03  0.12510791988E+03 0.  0.
          5    1    3    3  502    0  0.26186021811E+01  0.59437421669E+02 -0.31172496872E+01  0.59723143066E+02  0.41800000000E+01 0. -1.
         -5    1    3    3    0  502 -0.53517279329E+02 -0.49394355075E+01 -0.11789698528E+03  0.12963667979E+03  0.41800000000E+01 0. -1.
        -11    1    1    2    0    0  0.21678929675E+02 -0.76870605964E+02  0.54733801887E+01  0.80056379782E+02  0.00000000000E+00 0.  1.
         11    1    1    2    0    0  0.29219747474E+02  0.22372619802E+02 -0.72331100793E+01  0.37505274838E+02  0.00000000000E+00 0. -1.
</event>
<event>
 7    1  0.2440960E-009  0.1522812E+03  0.7561462E-02  0.1197698E+00
          1   -1    0    0  501    0  0.00000000000E+00  0.00000000000E+00  0.91600315882E+02  0.91600315882E+02  0.00000000000E+00 0. -1.
         -1   -1    0    0    0  501 -0.00000000000E+00 -0.00000000000E+00 -0.37394769251E+03  0.37394769251E+03  0.00000000000E+00 0.  1.
         25    2    1    2    0    0  0.10041220835E+03 -0.10708745132E+03 -0.18002492404E+03  0.26383247760E+03  0.12509304195E+03 0.  0.
          5    1    3    3  502    0  0.96759154405E+02 -0.95565010581E+02 -0.69896867775E+02  0.15296421063E+03  0.41800000000E+01 0. -1.
         -5    1    3    3    0  502  0.36530539463E+01 -0.11522440737E+02 -0.11012805627E+03  0.11086826697E+03  0.41800000000E+01 0. -1.
        -11    1    1    2    0    0 -0.61004965076E+02  0.27529296796E+02 -0.91566677402E+00  0.66935090883E+02  0.00000000000E+00 0. -1.
         11    1    1    2    0    0 -0.39407243275E+02  0.79558154523E+02 -0.10140678581E+03  0.13478043991E+03  0.00000000000E+00 0.  1.
</event>
<event>
 7    1  0.2440960E-009  0.1234250E+03  0.7561462E-02  0.1237551E+00
         -1   -1    0    0    0  501 -0.00000000000E+00  0.00000000000E+00  0.37265964423E+02  0.37265964423E+02  0.00000000000E+00 0.  1.
          1   -1    0    0  501    0  0.00000000000E+00 -0.00000000000E+00 -0.79041735503E+03  0.79041735503E+03  0.00000000000E+00 0. -1.
         25    2    1    2    0    0  0.89744002042E+02 -0.50542850454E+02 -0.19694594617E+03  0.25503668533E+03  0.12508972586E+03 0.  0.
          5    1    3    3  502    0  0.67911095373E+02  0.39537297616E+01 -0.23847871748E+02  0.72206247934E+02  0.41800000000E+01 0. -1.
         -5    1    3    3    0  502  0.21832906669E+02 -0.54496580216E+02 -0.17309807442E+03  0.18283043739E+03  0.41800000000E+01 0. -1.
        -11    1    1    2    0    0 -0.37721418324E+02 -0.10964122116E+02 -0.74210256252E+02  0.83965942543E+02  0.00000000000E+00 0.  1.
         11    1    1    2    0    0 -0.52022583718E+02  0.61506972570E+02 -0.48199518818E+03  0.48868069158E+03  0.00000000000E+00 0. -1.
</event>
<event>
 7    1  0.2440960E-009  0.1078751E+03  0.7561462E-02  0.1264556E+00
          2   -1    0    0  501    0  0.00000000000E+00  0.00000000000E+00  0.55934264215E+03  0.55934264215E+03  0.00000000000E+00 0. -1.
         -2   -1    0    0    0  501 -0.00000000000E+00 -0.00000000000E+00 -0.24953720961E+02  0.24953720961E+02  0.00000000000E+00 0.  1.
         25    2    1    2    0    0 -0.71417180956E+01  0.43328103483E+02  0.25594793596E+03  0.28824475944E+03  0.12508943493E+03 0.  0.
          5    1    3    3  502    0  0.47521015572E+02  0.37651600798E+02  0.20267917113E+03  0.21159444409E+03  0.41800000000E+01 0. -1.
         -5    1    3    3    0  502 -0.54662733668E+02  0.56765026848E+01  0.53268764834E+02  0.76650315340E+02  0.41800000000E+01 0. -1.
        -11    1    1    2    0    0  0.17391956666E+02 -0.69558406625E+02  0.21501374802E+03  0.22665340043E+03  0.00000000000E+00 0. -1.
         11    1    1    2    0    0 -0.10250238570E+02  0.26230303142E+02  0.63427237209E+02  0.69398203245E+02  0.00000000000E+00 0.  1.
</event>
<event>
 7    1  0.2440960E-009  0.1098121E+03  0.7561462E-02  0.1260918E+00
         -2   -1    0    0    0  501 -0.00000000000E+00  0.00000000000E+00  0.88156673459E+02  0.88156673459E+02  0.00000000000E+00 0.  1.
          2   -1    0    0  501    0  0.00000000000E+00 -0.00000000000E+00 -0.18160466659E+03  0.18160466659E+03  0.00000000000E+00 0. -1.
         25    2    1    2    0    0  0.28589418362E+02  0.47828606190E+02 -0.19973997869E+02  0.13840575053E+03  0.12510899558E+03 0.  0.
          5    1    3    3  502    0  0.95929892042E+01 -0.33385563162E+02 -0.39372386017E+02  0.52671419671E+02  0.41800000000E+01 0. -1.
         -5    1    3    3    0  502  0.18996429158E+02  0.81214169353E+02  0.19398388148E+02  0.85734330855E+02  0.41800000000E+01 0. -1.
        -11    1    1    2    0    0 -0.58687429864E+02 -0.35585622052E+02 -0.25094358414E+02  0.73077204005E+02  0.00000000000E+00 0.  1.
         11    1    1    2    0    0  0.30098011502E+02 -0.12242984138E+02 -0.48379636845E+02  0.58278385515E+02  0.00000000000E+00 0. -1.
</event>
<event>
 7    1  0.2440960E-009  0.1927605E+03  0.7561462E-02  0.1155995E+00
          2   -1    0    0  501    0  0.00000000000E+00  0.00000000000E+00  0.83200281804E+03  0.83200281804E+03  0.00000000000E+00 0. -1.
         -2   -1    0    0    0  501 -0.00000000000E+00 -0.00000000000E+00 -0.67727839706E+02  0.67727839706E+02  0.00000000000E+00 0.  1.
         25    2    1    2    0    0 -0.44560473055E+02 -0.16327074769E+03  0.15573933126E+03  0.26181346728E+03  0.12509428260E+03 0.  0.
          5    1    3    3  502    0 -0.87926745440E+02 -0.97196772303E+02  0.91870528134E+02  0.16011243377E+03  0.41800000000E+01 0.  1.
         -5    1    3    3    0  502  0.43366272384E+02 -0.66073975385E+02  0.63868803124E+02  0.10170103351E+03  0.41800000000E+01 0.  1.
        -11    1    1    2    0    0  0.83585165426E+01  0.11292209440E+03  0.25535850507E+03  0.27933712663E+03  0.00000000000E+00 0.  1.
         11    1    1    2    0    0  0.36201956513E+02  0.50348653285E+02  0.35317714200E+03  0.35858006383E+03  0.00000000000E+00 0. -1.
</event>
<event>
 7    1  0.2440960E-009  0.1048064E+03  0.7561462E-02  0.1270502E+00
         -1   -1    0    0    0  501 -0.00000000000E+00  0.00000000000E+00  0.60525337115E+02  0.60525337115E+02  0.00000000000E+00 0.  1.
          1   -1    0    0  501    0  0.00000000000E+00 -0.00000000000E+00 -0.34216303223E+03  0.34216303223E+03  0.00000000000E+00 0. -1.
         25    2    1    2    0    0  0.70824615678E+02 -0.39861584974E+02 -0.85209803822E+02  0.17179372222E+03  0.12508916893E+03 0.  0.
          5    1    3    3  502    0  0.39966302262E+02  0.28937446204E+02  0.97461077793E+01  0.50469199777E+02  0.41800000000E+01 0.  1.
         -5    1    3    3    0  502  0.30858313416E+02 -0.68799031179E+02 -0.94955911601E+02  0.12132452244E+03  0.41800000000E+01 0.  1.
        -11    1    1    2    0    0 -0.54910302635E+02  0.18511930846E+02 -0.19586846512E+03  0.20426034502E+03  0.00000000000E+00 0. -1.
         11    1    1    2    0    0 -0.15914313043E+02  0.21349654128E+02 -0.55942617343E+00  0.26634302106E+02  0.00000000000E+00 0.  1.
</event>
<event>
 7    1  0.2440960E-009  0.1037194E+03  0.7561462E-02  0.1272663E+00
          1   -1    0    0  501    0  0.00000000000E+00  0.00000000000E+00  0.25815941361E+03  0.25815941361E+03  0.00000000000E+00 0. -1.
         -1   -1    0    0    0  501 -0.00000000000E+00 -0.00000000000E+00 -0.68876126181E+02  0.68876126181E+02  0.00000000000E+00 0.  1.
         25    2    1    2    0    0  0.56262115519E+02 -0.42329097641E+01  0.16732991120E+03  0.21640005432E+03  0.12508533551E+03 0.  0.
          5    1    3    3  502    0 -0.12893522579E+02  0.22020036085E+02 -0.71617449427E+01  0.26830726869E+02  0.41800000000E+01 0. -1.
         -5    1    3    3    0  502  0.69155638098E+02 -0.26252945849E+02  0.17449165614E+03  0.18956932745E+03  0.41800000000E+01 0. -1.
        -11    1    1    2    0    0 -0.49949771357E+02 -0.39267289688E+02  0.57813248860E+01  0.63799086322E+02  0.00000000000E+00 0.  1.
         11    1    1    2    0    0 -0.63123441619E+01  0.43500199452E+02  0.16172051351E+02  0.46836399158E+02  0.00000000000E+00 0. -1.
</event>
<event>
 7    1  0.2440960E-009  0.8107233E+02  0.7561462E-02  0.1326036E+00
          1   -1    0    0  501    0  0.00000000000E+00  0.00000000000E+00  0.19537407083E+03  0.19537407083E+03  0.00000000000E+00 0. -1.
         -1   -1    0    0    0  501 -0.00000000000E+00 -0.00000000000E+00 -0.68505543741E+02  0.68505543741E+02  0.00000000000E+00 0.  1.
         25    2    1    2    0    0  0.48108168961E+02  0.18985328516E+02  0.64944528680E+02  0.15013417991E+03  0.12509053342E+03 0.  0.
          5    1    3    3  502    0  0.43370546270E+02 -0.32098436089E+01  0.99449718406E+02  0.10862332287E+03  0.41800000000E+01 0.  1.
         -5    1    3    3    0  502  0.47376226918E+01  0.22195172125E+02 -0.34505189727E+02  0.41510857044E+02  0.41800000000E+01 0.  1.
        -11    1    1    2    0    0 -0.42094211823E+02  0.26339752600E+02  0.33749791232E+02  0.60039600633E+02  0.00000000000E+00 0.  1.
         11    1    1    2    0    0 -0.60139571387E+01 -0.45325081116E+02  0.28174207179E+02  0.53705834029E+02  0.00000000000E+00 0. -1.
</event>
<event>
 7    1  0.2440960E-009  0.1121088E+03  0.7561462E-02  0.1256714E+00
          1   -1    0    0  501    0  0.00000000000E+00  0.00000000000E+00  0.10074843362E+03  0.10074843362E+03  0.00000000000E+00 0. -1.
         -1   -1    0    0    0  501 -0.00000000000E+00 -0.00000000000E+00 -0.15738706561E+03  0.15738706561E+03  0.00000000000E+00 0.  1.
         25    2    1    2    0    0 -0.14295572587E+02  0.51071913007E+02 -0.72050526719E+02  0.15378928274E+03  0.12508861416E+03 0.  0.
          5    1    3    3  502    0  0.43423242203E+02 -0.15657146869E+02 -0.34655071125E+02  0.57872018853E+02  0.41800000000E+01 0. -1.
         -5    1    3    3    0  502 -0.57718814789E+02  0.66729059876E+02 -0.37395455594E+02  0.95917263888E+02  0.41800000000E+01 0. -1.
        -11    1    1    2    0    0 -0.39699418742E+01 -0.65897271482E+02 -0.13180788697E+02  0.67319714927E+02  0.00000000000E+00 0.  1.
         11    1    1    2    0    0  0.18265514461E+02  0.14825358475E+02  0.28592683426E+02  0.37026501562E+02  0.00000000000E+00 0. -1.
</event>
<event>
 7    1  0.2754419E-009  0.9659674E+02  0.7561462E-02  0.1287620E+00
          2   -1    0    0  501    0  0.00000000000E+00  0.00000000000E+00  0.45789781711E+03  0.45789781711E+03  0.00000000000E+00 0. -1.
         -2   -1    0    0    0  501 -0.00000000000E+00 -0.00000000000E+00 -0.35516093131E+02  0.35516093131E+02  0.00000000000E+00 0.  1.
         25    2    1    2    0    0 -0.59487806105E+02 -0.46914961840E+01  0.29300477897E+03  0.32412973612E+03  0.12508987220E+03 0.  0.
          5    1    3    3  502    0  0.22477111458E+02 -0.31387464906E+02  0.35741596675E+02  0.52776203213E+02  0.41800000000E+01 0.  1.
         -5    1    3    3    0  502 -0.81964917564E+02  0.26695968722E+02  0.25726318229E+03  0.27135353291E+03  0.41800000000E+01 0.  1.
        -11    1    1    2    0    0  0.38120904820E+01 -0.98101917398E+01 -0.12408229010E+02  0.16270711201E+02  0.00000000000E+00 0.  1.
         11    1    1    2    0    0  0.55675715623E+02  0.14501687924E+02  0.14178517403E+03  0.15301346292E+03  0.00000000000E+00 0. -1.
</event>
<event>
 7    1  0.2440960E-009  0.9399375E+02  0.7561462E-02  0.1293459E+00
          2   -1    0    0  501    0  0.00000000000E+00  0.00000000000E+00  0.41273429686E+03  0.41273429686E+03  0.00000000000E+00 0. -1.
         -2   -1    0    0    0  501 -0.00000000000E+00 -0.00000000000E+00 -0.45050971536E+02  0.45050971536E+02  0.00000000000E+00 0.  1.
         25    2    1    2    0    0 -0.22969049444E+02  0.57702753895E+02  0.27503893876E+03  0.30846500887E+03  0.12508820418E+03 0.  0.
          5    1    3    3  502    0  0.65042378283E+00  0.54052030848E+02  0.29486626731E+02  0.61716923496E+02  0.41800000000E+01 0. -1.
         -5    1    3    3    0  502 -0.23619473227E+02  0.36507230473E+01  0.24555231203E+03  0.24674808538E+03  0.41800000000E+01 0. -1.
        -11    1    1    2    0    0 -0.31326802652E+02 -0.15017485379E+01  0.53268898468E+02  0.61815850371E+02  0.00000000000E+00 0. -1.
         11    1    1    2    0    0  0.54295852096E+02 -0.56201005357E+02  0.39375488095E+02  0.87504409150E+02  0.00000000000E+00 0.  1.
</event>
<event>
 7    1  0.2440960E-009  0.1066674E+03  0.7561462E-02  0.1266869E+00
          1   -1    0    0  501    0  0.00000000000E+00  0.00000000000E+00  0.26108042903E+03  0.26108042903E+03  0.00000000000E+00 0. -1.
         -1   -1    0    0    0  501 -0.00000000000E+00 -0.00000000000E+00 -0.78056033297E+02  0.78056033297E+02  0.00000000000E+00 0.  1.
         25    2    1    2    0    0  0.42721473974E+02  0.73877701910E+02  0.57287068962E+02  0.16190335758E+03  0.12509136560E+03 0.  0.
          5    1    3    3  502    0  0.22786773958E+02  0.58458680294E+02  0.96454242490E+02  0.11514142462E+03  0.41800000000E+01 0.  1.
         -5    1    3    3    0  502  0.19934700016E+02  0.15419021615E+02 -0.39167173528E+02  0.46761932964E+02  0.41800000000E+01 0.  1.
        -11    1    1    2    0    0 -0.47883318629E+02  0.28854870895E+01  0.48351503620E+02  0.68110249897E+02  0.00000000000E+00 0.  1.
         11    1    1    2    0    0  0.51618446542E+01 -0.76763188999E+02  0.77385823154E+02  0.10912285485E+03  0.00000000000E+00 0. -1.
</event>
<event>
 7    1  0.2440960E-009  0.1391842E+03  0.7561462E-02  0.1214431E+00
         -1   -1    0    0    0  501 -0.00000000000E+00  0.00000000000E+00  0.22749494321E+03  0.22749494321E+03  0.00000000000E+00 0.  1.
          1   -1    0    0  501    0  0.00000000000E+00 -0.00000000000E+00 -0.91307534688E+02  0.91307534688E+02  0.00000000000E+00 0. -1.
         25    2    1    2    0    0 -0.32859128669E+02 -0.87721010954E+02  0.60739891258E+02  0.16766227694E+03  0.12508639662E+03 0.  0.
          5    1    3    3  502    0 -0.72602938031E+02 -0.90112691195E+02  0.50560112625E+02  0.12635379343E+03  0.41800000000E+01 0.  1.
         -5    1    3    3    0  502  0.39743809363E+02  0.23916802413E+01  0.10179778633E+02  0.41308483512E+02  0.41800000000E+01 0.  1.
        -11    1    1    2    0    0 -0.26332683023E+02  0.28621807570E+02  0.60003617208E+00  0.38897019258E+02  0.00000000000E+00 0.  1.
         11    1    1    2    0    0  0.59191811691E+02  0.59099203384E+02  0.74847481092E+02  0.11224318170E+03  0.00000000000E+00 0. -1.
</event>
<event>
 7    1  0.2440960E-009  0.1265560E+03  0.7561462E-02  0.1232657E+00
          1   -1    0    0  501    0  0.00000000000E+00  0.00000000000E+00  0.32209057723E+02  0.32209057723E+02  0.00000000000E+00 0. -1.
         -1   -1    0    0    0  501 -0.00000000000E+00 -0.00000000000E+00 -0.64144520652E+03  0.64144520652E+03  0.00000000000E+00 0.  1.
         25    2    1    2    0    0 -0.75155303137E+02 -0.25607181081E+02 -0.20886759695E+03  0.25608080365E+03  0.12509059769E+03 0.  0.
          5    1    3    3  502    0 -0.16546688420E+02 -0.71451136401E+02 -0.97479026194E+02  0.12206019310E+03  0.41800000000E+01 0. -1.
         -5    1    3    3    0  502 -0.58608614717E+02  0.45843955320E+02 -0.11138857076E+03  0.13402061056E+03  0.41800000000E+01 0. -1.
        -11    1    1    2    0    0  0.45805319309E+02 -0.20727445449E+02 -0.96677559205E+02  0.10896928340E+03  0.00000000000E+00 0.  1.
         11    1    1    2    0    0  0.29349983828E+02  0.46334626530E+02 -0.30369099264E+03  0.30860417718E+03  0.00000000000E+00 0. -1.
</event>
<event>
 7    1  0.2440960E-009  0.1634279E+03  0.7561462E-02  0.1184880E+00
         -2   -1    0    0    0  501 -0.00000000000E+00  0.00000000000E+00  0.85560672221E+02  0.85560672221E+02  0.00000000000E+00 0.  1.
          2   -1    0    0  501    0  0.00000000000E+00 -0.00000000000E+00 -0.35461763956E+03  0.35461763956E+03  0.00000000000E+00 0. -1.
         25    2    1    2    0    0  0.64065611593E+02  0.11887149388E+03 -0.12062490424E+03  0.22007802388E+03  0.12509650046E+03 0.  0.
          5    1    3    3  502    0 -0.29458366970E+02  0.74480376034E+02 -0.46813923288E+02  0.92866235049E+02  0.41800000000E+01 0. -1.
         -5    1    3    3    0  502  0.93523978563E+02  0.44391117849E+02 -0.73810980948E+02  0.12721178884E+03  0.41800000000E+01 0. -1.
        -11    1    1    2    0    0 -0.34771436591E+02 -0.10504512224E+03 -0.59889935535E+02  0.12581865874E+03  0.00000000000E+00 0.  1.
         11    1    1    2    0    0 -0.29294175003E+02 -0.13826371643E+02 -0.88542127569E+02  0.94281629156E+02  0.00000000000E+00 0. -1.
</event>
<event>
 7    1  0.2440960E-009  0.2801592E+03  0.7561462E-02  0.1095602E+00
          2   -1    0    0  501    0  0.00000000000E+00  0.00000000000E+00  0.38342744125E+03  0.38342744125E+03  0.00000000000E+00 0. -1.
         -2   -1    0    0    0  501 -0.00000000000E+00 -0.00000000000E+00 -0.22323005017E+03  0.22323005017E+03  0.00000000000E+00 0.  1.
         25    2    1    2    0    0  0.21166422537E+03 -0.15937669803E+03  0.26538695072E+02  0.29420079389E+03  0.12508848314E+03 0.  0.
          5    1    3    3  502    0  0.33889597885E+02 -0.75376260465E+02 -0.32440686829E+02  0.88881696926E+02  0.41800000000E+01 0.  1.
         -5    1    3    3    0  502  0.17777462749E+03 -0.84000437564E+02  0.58979381901E+02  0.20531909697E+03  0.41800000000E+01 0.  1.
        -11    1    1    2    0    0 -0.70626369142E+02  0.11145086456E+03  0.46650353895E+02  0.13994868612E+03  0.00000000000E+00 0.  1.
         11    1    1    2    0    0 -0.14103785623E+03  0.47925833472E+02  0.87008342109E+02  0.17250801141E+03  0.00000000000E+00 0. -1.
</event>
<event>
 7    1  0.2704608E-009  0.9996766E+02  0.7561462E-02  0.1280364E+00
          1   -1    0    0  501    0  0.00000000000E+00  0.00000000000E+00  0.23655504905E+03  0.23655504905E+03  0.00000000000E+00 0.  1.
         -1   -1    0    0    0  501 -0.00000000000E+00 -0.00000000000E+00 -0.74177192742E+02  0.74177192742E+02  0.00000000000E+00 0. -1.
         25    2    1    2    0    0  0.63792645996E+01 -0.98671372629E+01  0.17750276169E+03  0.21746482510E+03  0.12508263003E+03 0.  0.
          5    1    3    3  502    0  0.70007732324E+01 -0.59176216104E+02  0.14859118492E+03  0.16014883082E+03  0.41800000000E+01 0.  1.
         -5    1    3    3    0  502 -0.62150863278E+00  0.49309078841E+02  0.28911576776E+02  0.57315994285E+02  0.41800000000E+01 0.  1.
        -11    1    1    2    0    0  0.28945083533E+02 -0.27048678507E+02  0.11834510846E+01  0.39633942855E+02  0.00000000000E+00 0.  1.
         11    1    1    2    0    0 -0.35324348133E+02  0.36915815770E+02 -0.16308356467E+02  0.53633473835E+02  0.00000000000E+00 0. -1.
</event>
<event>
 7    1  0.2440960E-009  0.1453181E+03  0.7561462E-02  0.1206347E+00
          2   -1    0    0  501    0  0.00000000000E+00  0.00000000000E+00  0.26016868066E+02  0.26016868066E+02  0.00000000000E+00 0. -1.
         -2   -1    0    0    0  501 -0.00000000000E+00 -0.00000000000E+00 -0.95494343829E+03  0.95494343829E+03  0.00000000000E+00 0.  1.
         25    2    1    2    0    0  0.30359924737E+01 -0.10944155146E+03 -0.58806632666E+03  0.61111091052E+03  0.12509144642E+03 0.  0.
          5    1    3    3  502    0  0.30927334380E+01 -0.12884916090E+03 -0.56954109348E+03  0.58395736217E+03  0.41800000000E+01 0. -1.
         -5    1    3    3    0  502 -0.56740964305E-01  0.19407609442E+02 -0.18525233181E+02  0.27153548353E+02  0.41800000000E+01 0. -1.
        -11    1    1    2    0    0 -0.42968801576E+02  0.28464921629E+02 -0.15235570169E+03  0.16083789824E+03  0.00000000000E+00 0.  1.
         11    1    1    2    0    0  0.39932809103E+02  0.80976629830E+02 -0.18850454187E+03  0.20901149760E+03  0.00000000000E+00 0. -1.
</event>
<event>
 7    1  0.2440960E-009  0.7607308E+02  0.7561462E-02  0.1340580E+00
          2   -1    0    0  501    0  0.00000000000E+00  0.00000000000E+00  0.13781926614E+03  0.13781926614E+03  0.00000000000E+00 0. -1.
         -2   -1    0    0    0  501 -0.00000000000E+00 -0.00000000000E+00 -0.97376601207E+02  0.97376601207E+02  0.00000000000E+00 0.  1.
         25    2    1    2    0    0 -0.11097566938E+02  0.23711186818E+02 -0.11643706048E+02  0.12834099179E+03  0.12510179019E+03 0.  0.
          5    1    3    3  502    0 -0.50000141338E+02  0.27254487323E+02 -0.48165439805E+02  0.74700757726E+02  0.41800000000E+01 0.  1.
         -5    1    3    3    0  502  0.38902574401E+02 -0.35433005053E+01  0.36521733757E+02  0.53640234061E+02  0.41800000000E+01 0.  1.
        -11    1    1    2    0    0  0.23083289893E+01  0.15451881484E+02 -0.19377304762E+02  0.24891142279E+02  0.00000000000E+00 0.  1.
         11    1    1    2    0    0  0.87892379484E+01 -0.39163068302E+02  0.71463675738E+02  0.81963733276E+02  0.00000000000E+00 0. -1.
</event>
<event>
 7    1  0.2440960E-009  0.7464263E+02  0.7561462E-02  0.1344981E+00
         -1   -1    0    0    0  501 -0.00000000000E+00  0.00000000000E+00  0.12697115248E+03  0.12697115248E+03  0.00000000000E+00 0.  1.
          1   -1    0    0  501    0  0.00000000000E+00 -0.00000000000E+00 -0.12642784778E+03  0.12642784778E+03  0.00000000000E+00 0. -1.
         25    2    1    2    0    0  0.86137200781E+01  0.44716503535E+02  0.32041895452E+02  0.13691260954E+03  0.12507844628E+03 0.  0.
          5    1    3    3  502    0  0.12485764407E+01 -0.67959234058E+01  0.71198812751E+02  0.71655333753E+02  0.41800000000E+01 0.  1.
         -5    1    3    3    0  502  0.73651436374E+01  0.51512426941E+02 -0.39156917300E+02  0.65257275782E+02  0.41800000000E+01 0.  1.
        -11    1    1    2    0    0 -0.81938498037E+01  0.21385953368E+02  0.21764594178E+02  0.31594235800E+02  0.00000000000E+00 0.  1.
         11    1    1    2    0    0 -0.41987027433E+00 -0.66102456903E+02 -0.53263184931E+02  0.84892154930E+02  0.00000000000E+00 0. -1.
</event>
<event>
 7    1  0.2440960E-009  0.1057002E+03  0.7561462E-02  0.1268746E+00
         -2   -1    0    0    0  501 -0.00000000000E+00  0.00000000000E+00  0.16170906263E+03  0.16170906263E+03  0.00000000000E+00 0.  1.
          2   -1    0    0  501    0  0.00000000000E+00 -0.00000000000E+00 -0.98524197628E+02  0.98524197628E+02  0.00000000000E+00 0. -1.
         25    2    1    2    0    0 -0.17646919242E+02  0.60523027245E+02  0.25409462847E+02  0.14235232911E+03  0.12507635354E+03 0.  0.
          5    1    3    3  502    0  0.33021119667E+02  0.73375111814E+02 -0.67223623035E+01  0.80851493077E+02  0.41800000000E+01 0.  1.
         -5    1    3    3    0  502 -0.50668038909E+02 -0.12852084569E+02  0.32131825151E+02  0.61500836029E+02  0.41800000000E+01 0.  1.
        -11    1    1    2    0    0 -0.11826559055E+02 -0.87738805196E+00  0.48996216006E+02  0.50410975906E+02  0.00000000000E+00 0.  1.
         11    1    1    2    0    0  0.29473478297E+02 -0.59645639193E+02 -0.11220813851E+02  0.67469955248E+02  0.00000000000E+00 0. -1.
</event>
<event>
 7    1  0.3004521E-009  0.7857133E+02  0.7561462E-02  0.1333155E+00
          2   -1    0    0  501    0  0.00000000000E+00  0.00000000000E+00  0.53333178637E+03  0.53333178637E+03  0.00000000000E+00 0. -1.
         -2   -1    0    0    0  501 -0.00000000000E+00 -0.00000000000E+00 -0.29073899793E+02  0.29073899793E+02  0.00000000000E+00 0.  1.
         25    2    1    2    0    0 -0.50519892993E+02  0.20494618763E+01  0.35753692225E+03  0.38214738115E+03  0.12509000864E+03 0.  0.
          5    1    3    3  502    0 -0.54786192269E+01 -0.33301472114E+02  0.19359139080E+02  0.39131214900E+02  0.41800000000E+01 0. -1.
         -5    1    3    3    0  502 -0.45041273766E+02  0.35350933990E+02  0.33817778317E+03  0.34301616625E+03  0.41800000000E+01 0. -1.
        -11    1    1    2    0    0  0.42646806536E+02  0.16380720188E+02  0.15266506806E+03  0.15935401190E+03  0.00000000000E+00 0. -1.
         11    1    1    2    0    0  0.78730864571E+01 -0.18430182065E+02 -0.59441037405E+01  0.20904293113E+02  0.00000000000E+00 0.  1.
</event>
<event>
 7    1  0.2440960E-009  0.1171817E+03  0.7561462E-02  0.1247820E+00
          1   -1    0    0  501    0  0.00000000000E+00  0.00000000000E+00  0.11844038522E+04  0.11844038522E+04  0.00000000000E+00 0. -1.
         -1   -1    0    0    0  501 -0.00000000000E+00 -0.00000000000E+00 -0.13317203777E+02  0.13317203777E+02  0.00000000000E+00 0.  1.
         25    2    1    2    0    0 -0.54958765079E+02  0.97648859773E+00  0.81422623391E+03  0.82561097442E+03  0.12509077391E+03 0.  0.
          5    1    3    3  502    0 -0.89389751029E+02  0.16418231819E+02  0.68200970230E+03  0.68805144601E+03  0.41800000000E+01 0.  1.
         -5    1    3    3    0  502  0.34430985950E+02 -0.15441743221E+02  0.13221653161E+03  0.13755952841E+03  0.41800000000E+01 0.  1.
        -11    1    1    2    0    0 -0.90998113170E+01  0.32069983230E+02  0.11613789686E+03  0.12082756919E+03  0.00000000000E+00 0. -1.
         11    1    1    2    0    0  0.64058576396E+02 -0.33046471828E+02  0.24072251764E+03  0.25128251235E+03  0.00000000000E+00 0.  1.
</event>
<event>
 7    1  0.2440960E-009  0.8948562E+02  0.7561462E-02  0.1304102E+00
          2   -1    0    0  501    0  0.00000000000E+00  0.00000000000E+00  0.96786913436E+02  0.96786913436E+02  0.00000000000E+00 0. -1.
         -2   -1    0    0    0  501 -0.00000000000E+00 -0.00000000000E+00 -0.12910610190E+03  0.12910610190E+03  0.00000000000E+00 0.  1.
         25    2    1    2    0    0  0.28305879889E+02  0.21898427799E+02 -0.25041118138E+02  0.13249479442E+03  0.12508816480E+03 0.  0.
          5    1    3    3  502    0 -0.33587996973E+02  0.28730730807E+02  0.26368667819E+02  0.51637074626E+02  0.41800000000E+01 0.  1.
         -5    1    3    3    0  502  0.61893876863E+02 -0.68323030084E+01 -0.51409785957E+02  0.80857719790E+02  0.41800000000E+01 0.  1.
        -11    1    1    2    0    0 -0.14059042492E+02  0.21946170215E+02 -0.31852147764E+02  0.41156413596E+02  0.00000000000E+00 0.  1.
         11    1    1    2    0    0 -0.14246837398E+02 -0.43844598014E+02  0.24574077436E+02  0.52241807326E+02  0.00000000000E+00 0. -1.
</event>
<event>
 7    1  0.2987215E-009  0.1120999E+03  0.7561462E-02  0.1256730E+00
         -1   -1    0    0    0  501 -0.00000000000E+00  0.00000000000E+00  0.26028756820E+02  0.26028756820E+02  0.00000000000E+00 0.  1.
          1   -1    0    0  501    0  0.00000000000E+00 -0.00000000000E+00 -0.61635436285E+03  0.61635436285E+03  0.00000000000E+00 0. -1.
         25    2    1    2    0    0 -0.57852517045E+02 -0.26751626810E+02 -0.36232737616E+03  0.38857503773E+03  0.12508744608E+03 0.  0.
          5    1    3    3  502    0  0.87304936992E+01 -0.59597167988E+02 -0.21814202985E+03  0.22634368014E+03  0.41800000000E+01 0. -1.
         -5    1    3    3    0  502 -0.66583010744E+02  0.32845541178E+02 -0.14418534631E+03  0.16223135759E+03  0.41800000000E+01 0. -1.
        -11    1    1    2    0    0  0.35024082920E+02 -0.17883912824E+02 -0.18054084556E+03  0.18477423424E+03  0.00000000000E+00 0. -1.
         11    1    1    2    0    0  0.22828434125E+02  0.44635539634E+02 -0.47457384310E+02  0.69033847702E+02  0.00000000000E+00 0.  1.
</event>
<event>
 7    1  0.2657016E-009  0.1443772E+03  0.7561462E-02  0.1207558E+00
         -2   -1    0    0    0  501 -0.00000000000E+00  0.00000000000E+00  0.24011406423E+02  0.24011406423E+02  0.00000000000E+00 0.  1.
          2   -1    0    0  501    0  0.00000000000E+00 -0.00000000000E+00 -0.10572117309E+04  0.10572117309E+04  0.00000000000E+00 0. -1.
         25    2    1    2    0    0 -0.83195719533E+02 -0.80806524857E+02 -0.56229967857E+03  0.58760467954E+03  0.12508840350E+03 0.  0.
          5    1    3    3  502    0 -0.73603767676E+02 -0.99852813665E+02 -0.54730460390E+03  0.56120219249E+03  0.41800000000E+01 0.  1.
         -5    1    3    3    0  502 -0.95919518568E+01  0.19046288808E+02 -0.14995074672E+02  0.26402487046E+02  0.41800000000E+01 0.  1.
        -11    1    1    2    0    0  0.74846180755E+01  0.65165962859E+02 -0.28162247540E+03  0.28916057974E+03  0.00000000000E+00 0. -1.
         11    1    1    2    0    0  0.75711101458E+02  0.15640561998E+02 -0.18927817048E+03  0.20445787802E+03  0.00000000000E+00 0.  1.
</event>
<event>
 7    1  0.2440960E-009  0.3056056E+03  0.7561462E-02  0.1082472E+00
         -1   -1    0    0    0  501 -0.00000000000E+00  0.00000000000E+00  0.22149139401E+03  0.22149139401E+03  0.00000000000E+00 0.  1.
          1   -1    0    0  501    0  0.00000000000E+00 -0.00000000000E+00 -0.84153104510E+03  0.84153104510E+03  0.00000000000E+00 0. -1.
         25    2    1    2    0    0  0.25514311422E+03 -0.14264062013E+03  0.52685198818E+02  0.32228430027E+03  0.12508830794E+03 0.  0.
          5    1    3    3  502    0  0.34433393076E+02  0.22588609274E+02 -0.83379249921E+00  0.41401345843E+02  0.41800000000E+01 0.  1.
         -5    1    3    3    0  502  0.22070972114E+03 -0.16522922941E+03  0.53518991317E+02  0.28088295443E+03  0.41800000000E+01 0.  1.
        -11    1    1    2    0    0 -0.15847682782E+03  0.10621916792E+03 -0.53895592445E+03  0.57172625013E+03  0.00000000000E+00 0. -1.
         11    1    1    2    0    0 -0.96666286401E+02  0.36421452214E+02 -0.13376892546E+03  0.16901188871E+03  0.00000000000E+00 0.  1.
</event>
<event>
 7    1  0.2440960E-009  0.1077113E+03  0.7561462E-02  0.1264868E+00
         -1   -1    0    0    0  501 -0.00000000000E+00  0.00000000000E+00  0.31686578700E+03  0.31686578700E+03  0.00000000000E+00 0.  1.
          1   -1    0    0  501    0  0.00000000000E+00 -0.00000000000E+00 -0.40698836163E+02  0.40698836163E+02  0.00000000000E+00 0. -1.
         25    2    1    2    0    0  0.30892823109E+02 -0.11485538542E+02  0.13269626746E+03  0.18531776692E+03  0.12509233079E+03 0.  0.
          5    1    3    3  502    0  0.71749059205E+02 -0.36442862394E+02  0.92393545151E+02  0.12259710152E+03  0.41800000000E+01 0.  1.
         -5    1    3    3    0  502 -0.40856236096E+02  0.24957323852E+02  0.40302722310E+02  0.62720665393E+02  0.41800000000E+01 0.  1.
        -11    1    1    2    0    0  0.15951281157E+02  0.31913539732E+02  0.26016008612E+02  0.44155974600E+02  0.00000000000E+00 0.  1.
         11    1    1    2    0    0 -0.46844104266E+02 -0.20428001190E+02  0.11745467476E+03  0.12809088164E+03  0.00000000000E+00 0. -1.
</event>
<event>
 7    1  0.2440960E-009  0.1007284E+03  0.7561462E-02  0.1278772E+00
         -2   -1    0    0    0  501 -0.00000000000E+00  0.00000000000E+00  0.12495172680E+03  0.12495172680E+03  0.00000000000E+00 0.  1.
          2   -1    0    0  501    0  0.00000000000E+00 -0.00000000000E+00 -0.15230178841E+03  0.15230178841E+03  0.00000000000E+00 0. -1.
         25    2    1    2    0    0 -0.18923677749E+02  0.10180418106E+02 -0.97861210335E+02  0.16025424328E+03  0.12507141764E+03 0.  0.
          5    1    3    3  502    0 -0.17232655581E+02 -0.53422561722E+02 -0.72133705475E+02  0.91496876367E+02  0.41800000000E+01 0. -1.
         -5    1    3    3    0  502 -0.16910221677E+01  0.63602979829E+02 -0.25727504860E+02  0.68757366917E+02  0.41800000000E+01 0. -1.
        -11    1    1    2    0    0  0.42998407433E+02 -0.28124310502E+02  0.14399652810E+02  0.53359065622E+02  0.00000000000E+00 0. -1.
         11    1    1    2    0    0 -0.24074729685E+02  0.17943892396E+02  0.56111495915E+02  0.63640206297E+02  0.00000000000E+00 0.  1.
</event>
<event>
 7    1  0.2440960E-009  0.1109919E+03  0.7561462E-02  0.1258744E+00
         -1   -1    0    0    0  501 -0.00000000000E+00  0.00000000000E+00  0.13519805722E+02  0.13519805722E+02  0.00000000000E+00 0.  1.
          1   -1    0    0  501    0  0.00000000000E+00 -0.00000000000E+00 -0.96027321050E+03  0.96027321050E+03  0.00000000000E+00 0. -1.
         25    2    1    2    0    0 -0.10167399866E+02 -0.23489598053E+02 -0.44316622163E+03  0.46119282364E+03  0.12508950134E+03 0.  0.
          5    1    3    3  502    0  0.56919891789E+02 -0.84500512601E+01 -0.17216387868E+03  0.18157409224E+03  0.41800000000E+01 0. -1.
         -5    1    3    3    0  502 -0.67087291655E+02 -0.15039546793E+02 -0.27100234295E+03  0.27961873141E+03  0.41800000000E+01 0. -1.
        -11    1    1    2    0    0 -0.41069955415E+02  0.13287472656E+02 -0.20803249982E+03  0.21246368901E+03  0.00000000000E+00 0.  1.
         11    1    1    2    0    0  0.51237355281E+02  0.10202125397E+02 -0.29555468333E+03  0.30013650357E+03  0.00000000000E+00 0. -1.
</event>
<event>
 7    1  0.2440960E-009  0.1092087E+03  0.7561462E-02  0.1262042E+00
         -1   -1    0    0    0  501 -0.00000000000E+00  0.00000000000E+00  0.48386529807E+03  0.48386529807E+03  0.00000000000E+00 0.  1.
          1   -1    0    0  501    0  0.00000000000E+00 -0.00000000000E+00 -0.29899438770E+02  0.29899438770E+02  0.00000000000E+00 0. -1.
         25    2    1    2    0    0 -0.15033217405E+02 -0.47958002738E+02  0.22373839028E+03  0.26121529614E+03  0.12509434840E+03 0.  0.
          5    1    3    3  502    0  0.23220849855E+01  0.39174651730E+02  0.10976693077E+03  0.11664603254E+03  0.41800000000E+01 0.  1.
         -5    1    3    3    0  502 -0.17355302390E+02 -0.87132654469E+02  0.11397145951E+03  0.14456926360E+03  0.41800000000E+01 0.  1.
        -11    1    1    2    0    0  0.44152801886E+02  0.16480390544E+02  0.18205549558E+03  0.18805657834E+03  0.00000000000E+00 0.  1.
         11    1    1    2    0    0 -0.29119584481E+02  0.31477612194E+02  0.48171973450E+02  0.64492862364E+02  0.00000000000E+00 0. -1.
</event>
<event>
 7    1  0.2440960E-009  0.1914158E+03  0.7561462E-02  0.1157190E+00
         -2   -1    0    0    0  501 -0.00000000000E+00  0.00000000000E+00  0.84101998873E+02  0.84101998873E+02  0.00000000000E+00 0. -1.
          2   -1    0    0  501    0  0.00000000000E+00 -0.00000000000E+00 -0.69481804135E+03  0.69481804135E+03  0.00000000000E+00 0.  1.
         25    2    1    2    0    0  0.17508768143E+03  0.13190428789E+02 -0.11198597849E+03  0.24293651623E+03  0.12509039907E+03 0.  0.
          5    1    3    3  502    0  0.32123410465E+02 -0.40511877831E+02 -0.64875597983E+02  0.83062875937E+02  0.41800000000E+01 0. -1.
         -5    1    3    3    0  502  0.14296427096E+03  0.53702306620E+02 -0.47110380509E+02  0.15987364029E+03  0.41800000000E+01 0. -1.
        -11    1    1    2    0    0 -0.74743956354E+02 -0.20711765209E+02 -0.33452945977E+03  0.34340296400E+03  0.00000000000E+00 0.  1.
         11    1    1    2    0    0 -0.10034372507E+03  0.75213364195E+01 -0.16420060421E+03  0.19258055999E+03  0.00000000000E+00 0. -1.
</event>
<event>
 7    1  0.2440960E-009  0.1092622E+03  0.7561462E-02  0.1261942E+00
          1   -1    0    0  501    0  0.00000000000E+00  0.00000000000E+00  0.89770601414E+02  0.89770601414E+02  0.00000000000E+00 0. -1.
         -1   -1    0    0    0  501 -0.00000000000E+00 -0.00000000000E+00 -0.26812405091E+03  0.26812405091E+03  0.00000000000E+00 0.  1.
         25    2    1    2    0    0 -0.13461506140E+02 -0.98025261707E+02 -0.15170803102E+03  0.22012311458E+03  0.12509474337E+03 0.  0.
          5    1    3    3  502    0 -0.41305631266E+01 -0.20230240907E+02  0.21420540412E+02  0.30043903715E+02  0.41800000000E+01 0. -1.
         -5    1    3    3    0  502 -0.93309430134E+01 -0.77795020799E+02 -0.17312857143E+03  0.19007921087E+03  0.41800000000E+01 0. -1.
        -11    1    1    2    0    0  0.18595318733E+01 -0.10088971393E+02 -0.27162580444E+02  0.29035340172E+02  0.00000000000E+00 0.  1.
         11    1    1    2    0    0  0.11601974267E+02  0.10811423310E+03  0.51716196428E+00  0.10873619757E+03  0.00000000000E+00 0. -1.
</event>
<event>
 7    1  0.2440960E-009  0.1050859E+03  0.7561462E-02  0.1269951E+00
         -1   -1    0    0    0  501 -0.00000000000E+00  0.00000000000E+00  0.10334273210E+03  0.10334273210E+03  0.00000000000E+00 0.  1.
          1   -1    0    0  501    0  0.00000000000E+00 -0.00000000000E+00 -0.15436799347E+03  0.15436799347E+03  0.00000000000E+00 0. -1.
         25    2    1    2    0    0  0.56761074225E+02 -0.11680395350E+02 -0.58152538356E+02  0.14962292149E+03  0.12508816784E+03 0.  0.
          5    1    3    3  502    0  0.46294602216E+02  0.53902582309E+02 -0.26701702495E+02  0.76020601747E+02  0.41800000000E+01 0. -1.
         -5    1    3    3    0  502  0.10466472009E+02 -0.65582977659E+02 -0.31450835861E+02  0.73602319741E+02  0.41800000000E+01 0. -1.
        -11    1    1    2    0    0 -0.15491139389E+02 -0.16379722074E+02  0.41680930448E+02  0.47387452536E+02  0.00000000000E+00 0.  1.
         11    1    1    2    0    0 -0.41269934837E+02  0.28060117424E+02 -0.34553653462E+02  0.60700351554E+02  0.00000000000E+00 0. -1.
</event>
<event>
 7    1  0.2440960E-009  0.1198387E+03  0.7561462E-02  0.1243363E+00
         -1   -1    0    0    0  501 -0.00000000000E+00  0.00000000000E+00  0.22577992443E+03  0.22577992443E+03  0.00000000000E+00 0.  1.
          1   -1    0    0  501    0  0.00000000000E+00 -0.00000000000E+00 -0.78177230162E+02  0.78177230162E+02  0.00000000000E+00 0. -1.
         25    2    1    2    0    0 -0.43718611726E+02  0.57360629908E+02  0.51852847118E+02  0.15342276239E+03  0.12509303494E+03 0.  0.
          5    1    3    3  502    0  0.11250729241E+02  0.67365465370E+02 -0.10909016666E+02  0.69290431356E+02  0.41800000000E+01 0.  1.
         -5    1    3    3    0  502 -0.54969340967E+02 -0.10004835462E+02  0.62761863784E+02  0.84132331031E+02  0.41800000000E+01 0.  1.
        -11    1    1    2    0    0  0.65523967809E+02 -0.64828046849E+02  0.83794903501E+02  0.12456986742E+03  0.00000000000E+00 0.  1.
         11    1    1    2    0    0 -0.21805356083E+02  0.74674169403E+01  0.11954943644E+02  0.25964524783E+02  0.00000000000E+00 0. -1.
</event>
<event>
 7    1  0.2440960E-009  0.1210175E+03  0.7561462E-02  0.1241428E+00
         -2   -1    0    0    0  501 -0.00000000000E+00  0.00000000000E+00  0.32500476831E+02  0.32500476831E+02  0.00000000000E+00 0. -1.
          2   -1    0    0  501    0  0.00000000000E+00 -0.00000000000E+00 -0.79936861358E+03  0.79936861358E+03  0.00000000000E+00 0.  1.
         25    2    1    2    0    0 -0.12958735700E+01  0.11466417786E+03 -0.33690543170E+03  0.37722946851E+03  0.12508896447E+03 0.  0.
          5    1    3    3  502    0  0.15940556453E+02  0.61165147097E+02 -0.30691649933E+03  0.31338552379E+03  0.41800000000E+01 0. -1.
         -5    1    3    3    0  502 -0.17236430023E+02  0.53499030767E+02 -0.29988932363E+02  0.63843944718E+02  0.41800000000E+01 0. -1.
        -11    1    1    2    0    0 -0.17020334582E+02 -0.90054140749E+02 -0.40455545316E+03  0.41480664741E+03  0.00000000000E+00 0. -1.
         11    1    1    2    0    0  0.18316208152E+02 -0.24610037115E+02 -0.25407251894E+02  0.39832974489E+02  0.00000000000E+00 0.  1.
</event>
<event>
 7    1  0.2440960E-009  0.1716747E+03  0.7561462E-02  0.1176113E+00
         -2   -1    0    0    0  501 -0.00000000000E+00  0.00000000000E+00  0.25676614813E+03  0.25676614813E+03  0.00000000000E+00 0.  1.
          2   -1    0    0  501    0  0.00000000000E+00 -0.00000000000E+00 -0.12138878685E+03  0.12138878685E+03  0.00000000000E+00 0. -1.
         25    2    1    2    0    0 -0.93949051810E+02 -0.95092491123E+02  0.11330478210E+03  0.21530231547E+03  0.12509239465E+03 0.  0.
          5    1    3    3  502    0  0.31447551771E+01 -0.84114063108E+02  0.63686358951E+02  0.10563375320E+03  0.41800000000E+01 0.  1.
         -5    1    3    3    0  502 -0.97093806987E+02 -0.10978428015E+02  0.49618423146E+02  0.10966856228E+03  0.41800000000E+01 0.  1.
        -11    1    1    2    0    0  0.87304819789E+02  0.24929746184E+02  0.14949861918E+02  0.92016966775E+02  0.00000000000E+00 0.  1.
         11    1    1    2    0    0  0.66442320213E+01  0.70162744939E+02  0.71227172646E+01  0.70835652730E+02  0.00000000000E+00 0. -1.
</event>
<event>
 7    1  0.2440960E-009  0.1349436E+03  0.7561462E-02  0.1220299E+00
         -2   -1    0    0    0  501 -0.00000000000E+00  0.00000000000E+00  0.10903727487E+03  0.10903727487E+03  0.00000000000E+00 0. -1.
          2   -1    0    0  501    0  0.00000000000E+00 -0.00000000000E+00 -0.21473280727E+03  0.21473280727E+03  0.00000000000E+00 0.  1.
         25    2    1    2    0    0 -0.15948830075E+02 -0.10398485658E+03 -0.32126566503E+02  0.16657127816E+03  0.12508660541E+03 0.  0.
          5    1    3    3  502    0 -0.41403438936E+02 -0.11817049152E+03 -0.46723087361E+02  0.13371248676E+03  0.41800000000E+01 0.  1.
         -5    1    3    3    0  502  0.25454608861E+02  0.14185634945E+02  0.14596520858E+02  0.32858791400E+02  0.41800000000E+01 0.  1.
        -11    1    1    2    0    0 -0.16769224188E+02  0.34087637303E+02 -0.70354939441E+02  0.79956184254E+02  0.00000000000E+00 0.  1.
         11    1    1    2    0    0  0.32718054263E+02  0.69897219275E+02 -0.32140264537E+01  0.77242619733E+02  0.00000000000E+00 0. -1.
</event>
<event>
 7    1  0.2440960E-009  0.9430166E+02  0.7561462E-02  0.1292757E+00
         -2   -1    0    0    0  501 -0.00000000000E+00  0.00000000000E+00  0.66927406132E+02  0.66927406132E+02  0.00000000000E+00 0.  1.
          2   -1    0    0  501    0  0.00000000000E+00 -0.00000000000E+00 -0.18444490093E+03  0.18444490093E+03  0.00000000000E+00 0. -1.
         25    2    1    2    0    0  0.13753966315E+02 -0.22161551669E+02 -0.74931846495E+02  0.14813130393E+03  0.12509114926E+03 0.  0.
          5    1    3    3  502    0 -0.19070036659E+02 -0.60659342460E+02 -0.81453233007E+01  0.64242048672E+02  0.41800000000E+01 0. -1.
         -5    1    3    3    0  502  0.32824002974E+02  0.38497790791E+02 -0.66786523194E+02  0.83889255256E+02  0.41800000000E+01 0. -1.
        -11    1    1    2    0    0  0.45588161862E+01 -0.24013307367E+02  0.13821590202E+02  0.28079495925E+02  0.00000000000E+00 0.  1.
         11    1    1    2    0    0 -0.18312782502E+02  0.46174859036E+02 -0.56407238500E+02  0.75161507204E+02  0.00000000000E+00 0. -1.
</event>
<event>
 7    1  0.2440960E-009  0.1014966E+03  0.7561462E-02  0.1277180E+00
         -1   -1    0    0    0  501 -0.00000000000E+00  0.00000000000E+00  0.82820802117E+02  0.82820802117E+02  0.00000000000E+00 0. -1.
          1   -1    0    0  501    0  0.00000000000E+00 -0.00000000000E+00 -0.24267044898E+03  0.24267044898E+03  0.00000000000E+00 0.  1.
         25    2    1    2    0    0  0.84328428605E+02  0.71937487460E+01 -0.10541008923E+03  0.18417691263E+03  0.12508722693E+03 0.  0.
          5    1    3    3  502    0  0.32757639460E+02 -0.82341546300E+01  0.25527957440E+02  0.42544250569E+02  0.41800000000E+01 0.  1.
         -5    1    3    3    0  502  0.51570789146E+02  0.15427903376E+02 -0.13093804667E+03  0.14163266206E+03  0.41800000000E+01 0.  1.
        -11    1    1    2    0    0 -0.51712292272E+02 -0.42475089612E+02 -0.63690828265E+02  0.92384067970E+02  0.00000000000E+00 0.  1.
         11    1    1    2    0    0 -0.32616136333E+02  0.35281340866E+02  0.92512706353E+01  0.48930270498E+02  0.00000000000E+00 0. -1.
</event>
<event>
 7    1  0.2440960E-009  0.1166471E+03  0.7561462E-02  0.1248733E+00
          1   -1    0    0  501    0  0.00000000000E+00  0.00000000000E+00  0.57251319072E+03  0.57251319072E+03  0.00000000000E+00 0.  1.
         -1   -1    0    0    0  501 -0.00000000000E+00 -0.00000000000E+00 -0.45085384732E+02  0.45085384732E+02  0.00000000000E+00 0. -1.
         25    2    1    2    0    0 -0.38700786989E+02 -0.28026133697E+02  0.49098267793E+03  0.50891551785E+03  0.12509116355E+03 0.  0.
          5    1    3    3  502    0 -0.37584977200E+02  0.44989002358E+02  0.17606301036E+03  0.18561329926E+03  0.41800000000E+01 0. -1.
         -5    1    3    3    0  502 -0.11158097891E+01 -0.73015136056E+02  0.31491966757E+03  0.32330221859E+03  0.41800000000E+01 0. -1.
        -11    1    1    2    0    0 -0.28479294647E+02  0.17372199474E+02  0.49470988621E+01  0.33724432171E+02  0.00000000000E+00 0.  1.
         11    1    1    2    0    0  0.67180081636E+02  0.10653934224E+02  0.31498029193E+02  0.74958625428E+02  0.00000000000E+00 0. -1.
</event>
<event>
 7    1  0.2440960E-009  0.1154193E+03  0.7561462E-02  0.1250851E+00
          2   -1    0    0  501    0  0.00000000000E+00  0.00000000000E+00  0.14354117383E+02  0.14354117383E+02  0.00000000000E+00 0. -1.
         -2   -1    0    0    0  501 -0.00000000000E+00 -0.00000000000E+00 -0.10067193593E+04  0.10067193593E+04  0.00000000000E+00 0.  1.
         25    2    1    2    0    0  0.29148074018E+02 -0.41679003220E+02 -0.61027147360E+03  0.62503348857E+03  0.12509532692E+03 0.  0.
          5    1    3    3  502    0 -0.29780151866E+02  0.25436436667E+02 -0.11009996601E+03  0.11693307775E+03  0.41800000000E+01 0. -1.
         -5    1    3    3    0  502  0.58928225884E+02 -0.67115439887E+02 -0.50017150758E+03  0.50810041082E+03  0.41800000000E+01 0. -1.
        -11    1    1    2    0    0 -0.53387238138E+02 -0.50247391226E+00 -0.15973108854E+03  0.16841754754E+03  0.00000000000E+00 0. -1.
         11    1    1    2    0    0  0.24239164120E+02  0.42181477132E+02 -0.22236267974E+03  0.22762244053E+03  0.00000000000E+00 0.  1.
</event>
<event>
 7    1  0.2440960E-009  0.8034036E+02  0.7561462E-02  0.1328088E+00
          2   -1    0    0  501    0  0.00000000000E+00  0.00000000000E+00  0.11240227135E+03  0.11240227135E+03  0.00000000000E+00 0. -1.
         -2   -1    0    0    0  501 -0.00000000000E+00 -0.00000000000E+00 -0.10506461647E+03  0.10506461647E+03  0.00000000000E+00 0.  1.
         25    2    1    2    0    0 -0.18661963878E+01  0.54633854356E+01 -0.66965520580E+01  0.12540099741E+03  0.12508890867E+03 0.  0.
          5    1    3    3  502    0 -0.83152869490E+00 -0.50040897378E+02  0.30209583996E+02  0.58607799955E+02  0.41800000000E+01 0.  1.
         -5    1    3    3    0  502 -0.10346676929E+01  0.55504282813E+02 -0.36906136054E+02  0.66793197455E+02  0.41800000000E+01 0.  1.
        -11    1    1    2    0    0 -0.25651640926E+02 -0.86845091825E+01  0.43739955655E+02  0.51445224294E+02  0.00000000000E+00 0.  1.
         11    1    1    2    0    0  0.27517837314E+02  0.32211237470E+01 -0.29705748713E+02  0.40620666110E+02  0.00000000000E+00 0. -1.
</event>
<event>
 7    1  0.2440960E-009  0.1481728E+03  0.7561462E-02  0.1202736E+00
          1   -1    0    0  501    0  0.00000000000E+00  0.00000000000E+00  0.60010088785E+02  0.60010088785E+02  0.00000000000E+00 0. -1.
         -1   -1    0    0    0  501 -0.00000000000E+00 -0.00000000000E+00 -0.44536611475E+03  0.44536611475E+03  0.00000000000E+00 0.  1.
         25    2    1    2    0    0  0.10989852404E+03 -0.38956656297E+02 -0.26032397658E+03  0.31146763181E+03  0.12509279047E+03 0.  0.
          5    1    3    3  502    0  0.34563884927E+02 -0.69770955472E+02 -0.18386808342E+03  0.19971878447E+03  0.41800000000E+01 0. -1.
         -5    1    3    3    0  502  0.75334639113E+02  0.30814299176E+02 -0.76455893166E+02  0.11174884735E+03  0.41800000000E+01 0. -1.
        -11    1    1    2    0    0 -0.80934226916E+02  0.60269427101E+02 -0.12125301814E+03  0.15774995194E+03  0.00000000000E+00 0.  1.
         11    1    1    2    0    0 -0.28964297124E+02 -0.21312770805E+02 -0.37790312433E+01  0.36158619780E+02  0.00000000000E+00 0. -1.
</event>
<event>
 7    1  0.2440960E-009  0.9697006E+02  0.7561462E-02  0.1286800E+00
         -1   -1    0    0    0  501 -0.00000000000E+00  0.00000000000E+00  0.23687487305E+02  0.23687487305E+02  0.00000000000E+00 0.  1.
          1   -1    0    0  501    0  0.00000000000E+00 -0.00000000000E+00 -0.56460365496E+03  0.56460365496E+03  0.00000000000E+00 0. -1.
         25    2    1    2    0    0 -0.23244085396E+01  0.20132181710E+02 -0.39234256238E+03  0.41230128001E+03  0.12509576981E+03 0.  0.
          5    1    3    3  502    0 -0.51551503650E+02  0.10494046129E+01 -0.78442251129E+02  0.93964450410E+02  0.41800000000E+01 0. -1.
         -5    1    3    3    0  502  0.49227095110E+02  0.19082777097E+02 -0.31390031126E+03  0.31833682960E+03  0.41800000000E+01 0. -1.
        -11    1    1    2    0    0 -0.35463072236E+01 -0.54382172011E+02 -0.61134744852E+02  0.81899047343E+02  0.00000000000E+00 0.  1.
         11    1    1    2    0    0  0.58707157632E+01  0.34249990301E+02 -0.87438860416E+02  0.94090814908E+02  0.00000000000E+00 0. -1.
</event>
<event>
 7    1  0.2440960E-009  0.3202459E+03  0.7561462E-02  0.1075536E+00
         -1   -1    0    0    0  501 -0.00000000000E+00  0.00000000000E+00  0.51526573270E+02  0.51526573270E+02  0.00000000000E+00 0.  1.
          1   -1    0    0  501    0  0.00000000000E+00 -0.00000000000E+00 -0.21979956335E+04  0.21979956335E+04  0.00000000000E+00 0. -1.
         25    2    1    2    0    0  0.30446475294E+03 -0.43472036244E+02 -0.94931104967E+03  0.10056977213E+04  0.12509130256E+03 0.  0.
          5    1    3    3  502    0  0.17101733144E+03 -0.17568496129E+02 -0.70913147556E+03  0.72968520729E+03  0.41800000000E+01 0.  1.
         -5    1    3    3    0  502  0.13344742150E+03 -0.25903540115E+02 -0.24017957412E+03  0.27601251406E+03  0.41800000000E+01 0.  1.
        -11    1    1    2    0    0 -0.28208419397E+03 -0.17216796754E+01 -0.10808237473E+04  0.11170292876E+04  0.00000000000E+00 0. -1.
         11    1    1    2    0    0 -0.22380558975E+02  0.45193715919E+02 -0.11633426324E+03  0.12679519779E+03  0.00000000000E+00 0.  1.
</event>
<event>
 7    1  0.2440960E-009  0.1053596E+03  0.7561462E-02  0.1269413E+00
          2   -1    0    0  501    0  0.00000000000E+00  0.00000000000E+00  0.10848393132E+04  0.10848393132E+04  0.00000000000E+00 0. -1.
         -2   -1    0    0    0  501 -0.00000000000E+00 -0.00000000000E+00 -0.14539931305E+02  0.14539931305E+02  0.00000000000E+00 0.  1.
         25    2    1    2    0    0 -0.23236485335E+02 -0.13927234710E+02  0.84656652410E+03  0.85618651151E+03  0.12508621285E+03 0.  0.
          5    1    3    3  502    0 -0.67211948126E+02  0.14487550045E+02  0.34021817228E+03  0.34712132206E+03  0.41800000000E+01 0.  1.
         -5    1    3    3    0  502  0.43975462791E+02 -0.28414784755E+02  0.50634835182E+03  0.50906518946E+03  0.41800000000E+01 0.  1.
        -11    1    1    2    0    0  0.23038644187E+02  0.49049351755E+02  0.17446393203E+03  0.18268629290E+03  0.00000000000E+00 0.  1.
         11    1    1    2    0    0  0.19784114833E+00 -0.35122117046E+02  0.49268925752E+02  0.60506440084E+02  0.00000000000E+00 0. -1.
</event>
<event>
 7    1  0.2440960E-009  0.9954609E+02  0.7561462E-02  0.1281253E+00
         -2   -1    0    0    0  501 -0.00000000000E+00  0.00000000000E+00  0.36815888152E+02  0.36815888152E+02  0.00000000000E+00 0.  1.
          2   -1    0    0  501    0  0.00000000000E+00 -0.00000000000E+00 -0.88591133852E+03  0.88591133852E+03  0.00000000000E+00 0. -1.
         25    2    1    2    0    0  0.28055791697E+02  0.70453216819E+00 -0.81116921239E+03  0.82123675338E+03  0.12508673052E+03 0.  0.
          5    1    3    3  502    0 -0.95974806505E+01  0.58309279580E+02 -0.37005918070E+03  0.37477106791E+03  0.41800000000E+01 0.  1.
         -5    1    3    3    0  502  0.37653272348E+02 -0.57604747412E+02 -0.44111003169E+03  0.44646568547E+03  0.41800000000E+01 0.  1.
        -11    1    1    2    0    0  0.10661368500E+01  0.29167095950E+02  0.16020858673E+02  0.33294504750E+02  0.00000000000E+00 0.  1.
         11    1    1    2    0    0 -0.29121928547E+02 -0.29871628118E+02 -0.53947096643E+02  0.68195968539E+02  0.00000000000E+00 0. -1.
</event>
<event>
 7    1  0.2440960E-009  0.1035936E+03  0.7561462E-02  0.1272916E+00
         -1   -1    0    0    0  501 -0.00000000000E+00  0.00000000000E+00  0.20231442518E+03  0.20231442518E+03  0.00000000000E+00 0.  1.
          1   -1    0    0  501    0  0.00000000000E+00 -0.00000000000E+00 -0.56980950454E+02  0.56980950454E+02  0.00000000000E+00 0. -1.
         25    2    1    2    0    0  0.55254210481E+01 -0.13029876672E+01  0.72305092002E+02  0.14459450734E+03  0.12508923683E+03 0.  0.
          5    1    3    3  502    0 -0.36179699755E+02 -0.49421786425E+02  0.36466882904E+02  0.71405809263E+02  0.41800000000E+01 0.  1.
         -5    1    3    3    0  502  0.41705120803E+02  0.48118798758E+02  0.35838209098E+02  0.73188698079E+02  0.41800000000E+01 0.  1.
        -11    1    1    2    0    0  0.19526599222E+01 -0.39979501617E+02  0.14255432013E+02  0.42489890235E+02  0.00000000000E+00 0.  1.
         11    1    1    2    0    0 -0.74780809703E+01  0.41282489284E+02  0.58772950707E+02  0.72210978053E+02  0.00000000000E+00 0. -1.
</event>
<event>
 7    1  0.2440960E-009  0.1158896E+03  0.7561462E-02  0.1250036E+00
         -1   -1    0    0    0  501 -0.00000000000E+00  0.00000000000E+00  0.25292329351E+03  0.25292329351E+03  0.00000000000E+00 0.  1.
          1   -1    0    0  501    0  0.00000000000E+00 -0.00000000000E+00 -0.63806668217E+02  0.63806668217E+02  0.00000000000E+00 0. -1.
         25    2    1    2    0    0  0.51833540141E+02  0.17945851204E+02  0.15439251605E+03  0.20613964841E+03  0.12509091164E+03 0.  0.
          5    1    3    3  502    0  0.78563732746E+02  0.49286569344E+02  0.88139164619E+02  0.12801332259E+03  0.41800000000E+01 0.  1.
         -5    1    3    3    0  502 -0.26730192605E+02 -0.31340718140E+02  0.66253351430E+02  0.78126325819E+02  0.41800000000E+01 0.  1.
        -11    1    1    2    0    0 -0.70012516039E+02 -0.29526311818E+02  0.82185732700E+01  0.76427092306E+02  0.00000000000E+00 0. -1.
         11    1    1    2    0    0  0.18178975899E+02  0.11580460614E+02  0.26505535978E+02  0.34163221017E+02  0.00000000000E+00 0.  1.
</event>
<event>
 7    1  0.2440960E-009  0.8882684E+02  0.7561462E-02  0.1305718E+00
         -1   -1    0    0    0  501 -0.00000000000E+00  0.00000000000E+00  0.19275749456E+02  0.19275749456E+02  0.00000000000E+00 0.  1.
          1   -1    0    0  501    0  0.00000000000E+00 -0.00000000000E+00 -0.11905966865E+04  0.11905966865E+04  0.00000000000E+00 0. -1.
         25    2    1    2    0    0  0.15899592462E+02 -0.39229637078E+02 -0.10116534743E+04  0.10202364215E+04  0.12509133511E+03 0.  0.
          5    1    3    3  502    0  0.37218412080E+02  0.15298670780E+02 -0.78707458766E+03  0.78811365835E+03  0.41800000000E+01 0.  1.
         -5    1    3    3    0  502 -0.21318819618E+02 -0.54528307859E+02 -0.22457888667E+03  0.23212276313E+03  0.41800000000E+01 0.  1.
        -11    1    1    2    0    0  0.25002682040E+02  0.24558874007E+02 -0.14195147308E+02  0.37812360529E+02  0.00000000000E+00 0.  1.
         11    1    1    2    0    0 -0.40902274502E+02  0.14670763072E+02 -0.14547231540E+03  0.15182365394E+03  0.00000000000E+00 0. -1.
</event>
<event>
 7    1  0.2440960E-009  0.1579903E+03  0.7561462E-02  0.1190985E+00
          1   -1    0    0  501    0  0.00000000000E+00  0.00000000000E+00  0.11742757420E+04  0.11742757420E+04  0.00000000000E+00 0. -1.
         -1   -1    0    0    0  501 -0.00000000000E+00 -0.00000000000E+00 -0.26519068775E+02  0.26519068775E+02  0.00000000000E+00 0.  1.
         25    2    1    2    0    0 -0.12313961164E+03  0.38552527963E+02  0.43001282643E+03  0.46605478444E+03  0.12508545014E+03 0.  0.
          5    1    3    3  502    0 -0.58812929703E+02  0.73557079777E+02  0.32179297280E+03  0.33531745321E+03  0.41800000000E+01 0.  1.
         -5    1    3    3    0  502 -0.64326681933E+02 -0.35004551813E+02  0.10821985363E+03  0.13073733123E+03  0.41800000000E+01 0.  1.
        -11    1    1    2    0    0  0.40466459671E+02  0.21830494989E+02  0.12432502908E+03  0.13255496115E+03  0.00000000000E+00 0.  1.
         11    1    1    2    0    0  0.82673151965E+02 -0.60383022952E+02  0.59341881771E+03  0.60218506518E+03  0.00000000000E+00 0. -1.
</event>
<event>
 7    1  0.2440960E-009  0.7330294E+02  0.7561462E-02  0.1349208E+00
         -1   -1    0    0    0  501 -0.00000000000E+00  0.00000000000E+00  0.40902581030E+03  0.40902581030E+03  0.00000000000E+00 0.  1.
          1   -1    0    0  501    0  0.00000000000E+00 -0.00000000000E+00 -0.38674793822E+02  0.38674793822E+02  0.00000000000E+00 0. -1.
         25    2    1    2    0    0 -0.95626183290E+01 -0.11935681410E+02  0.31985310589E+03  0.34378529248E+03  0.12509362022E+03 0.  0.
          5    1    3    3  502    0 -0.36373790132E+02 -0.15408947187E+02  0.23462992136E+02  0.46135373218E+02  0.41800000000E+01 0. -1.
         -5    1    3    3    0  502  0.26811171803E+02  0.34732657765E+01  0.29639011375E+03  0.29764991926E+03  0.41800000000E+01 0. -1.
        -11    1    1    2    0    0 -0.24145925515E+02 -0.21292612961E+02  0.46306160713E+02  0.56397354598E+02  0.00000000000E+00 0.  1.
         11    1    1    2    0    0  0.33708543844E+02  0.33228294371E+02  0.41917498832E+01  0.47517957048E+02  0.00000000000E+00 0. -1.
</event>
<event>
 7    1  0.2440960E-009  0.8537255E+02  0.7561462E-02  0.1314461E+00
          3   -1    0    0  501    0  0.00000000000E+00  0.00000000000E+00  0.30244701616E+03  0.30244701616E+03  0.00000000000E+00 0. -1.
         -3   -1    0    0    0  501 -0.00000000000E+00 -0.00000000000E+00 -0.46381395490E+02  0.46381395490E+02  0.00000000000E+00 0.  1.
         25    2    1    2    0    0  0.40868016234E+02  0.11916607747E+02  0.10838017684E+03  0.17089839170E+03  0.12509115581E+03 0.  0.
          5    1    3    3  502    0  0.72805541911E+02  0.32917174485E+02  0.33535272066E+02  0.86754101814E+02  0.41800000000E+01 0.  1.
         -5    1    3    3    0  502 -0.31937525676E+02 -0.21000566737E+02  0.74844904779E+02  0.84144289890E+02  0.41800000000E+01 0.  1.
        -11    1    1    2    0    0 -0.23957948434E+02  0.88165759989E+01  0.14897280456E+03  0.15114434096E+03  0.00000000000E+00 0. -1.
         11    1    1    2    0    0 -0.16910067800E+02 -0.20733183746E+02 -0.12873607327E+01  0.26785678989E+02  0.00000000000E+00 0.  1.
</event>
<event>
 7    1  0.2440960E-009  0.1000472E+03  0.7561462E-02  0.1280197E+00
         -2   -1    0    0    0  501 -0.00000000000E+00  0.00000000000E+00  0.30144134971E+03  0.30144134971E+03  0.00000000000E+00 0.  1.
          2   -1    0    0  501    0  0.00000000000E+00 -0.00000000000E+00 -0.52975385455E+02  0.52975385455E+02  0.00000000000E+00 0. -1.
         25    2    1    2    0    0 -0.63321238656E+02  0.13073118604E+02  0.12802801864E+03  0.19031553899E+03  0.12509334566E+03 0.  0.
          5    1    3    3  502    0 -0.25949378290E+02 -0.27884209397E+02 -0.11589450326E+02  0.40033574986E+02  0.41800000000E+01 0. -1.
         -5    1    3    3    0  502 -0.37371860366E+02  0.40957328000E+02  0.13961746896E+03  0.15028196400E+03  0.41800000000E+01 0. -1.
        -11    1    1    2    0    0 -0.21014725434E+02 -0.33000364443E+01  0.69669181245E+01  0.22384076344E+02  0.00000000000E+00 0. -1.
         11    1    1    2    0    0  0.84335964090E+02 -0.97730821594E+01  0.11347102749E+03  0.14171711984E+03  0.00000000000E+00 0.  1.
</event>
<event>
 7    1  0.2440960E-009  0.9337402E+02  0.7561462E-02  0.1294881E+00
         -4   -1    0    0    0  501 -0.00000000000E+00  0.00000000000E+00  0.23273391206E+03  0.23273391206E+03  0.00000000000E+00 0.  1.
          4   -1    0    0  501    0  0.00000000000E+00 -0.00000000000E+00 -0.67370140465E+02  0.67370140465E+02  0.00000000000E+00 0. -1.
         25    2    1    2    0    0 -0.48649959521E+02  0.35053984870E+01  0.42925094114E+02  0.14095869432E+03  0.12509070078E+03 0.  0.
          5    1    3    3  502    0 -0.77119494654E+02 -0.25703391914E+02  0.54974708207E+02  0.98223071393E+02  0.41800000000E+01 0.  1.
         -5    1    3    3    0  502  0.28469535133E+02  0.29208790401E+02 -0.12049614093E+02  0.42735622929E+02  0.41800000000E+01 0.  1.
        -11    1    1    2    0    0  0.26145427853E+02 -0.22811427075E+02  0.12467205175E+03  0.12941045201E+03  0.00000000000E+00 0.  1.
         11    1    1    2    0    0  0.22504531668E+02  0.19306028588E+02 -0.22333742700E+01  0.29734906188E+02  0.00000000000E+00 0. -1.
</event>
<event>
 7    1  0.2440960E-009  0.2498866E+03  0.7561462E-02  0.1113377E+00
          1   -1    0    0  501    0  0.00000000000E+00  0.00000000000E+00  0.11836315447E+04  0.11836315447E+04  0.00000000000E+00 0. -1.
         -1   -1    0    0    0  501 -0.00000000000E+00 -0.00000000000E+00 -0.70319991700E+02  0.70319991700E+02  0.00000000000E+00 0.  1.
         25    2    1    2    0    0  0.10736759101E+03  0.21177704785E+03  0.30308177644E+03  0.40482471113E+03  0.12508863233E+03 0.  0.
          5    1    3    3  502    0  0.74758046358E+02  0.21636552642E+03  0.28916239783E+03  0.36882946091E+03  0.41800000000E+01 0. -1.
         -5    1    3    3    0  502  0.32609544647E+02 -0.45884785647E+01  0.13919378613E+02  0.35995250223E+02  0.41800000000E+01 0. -1.
        -11    1    1    2    0    0 -0.50146719184E+02 -0.88670439013E+02  0.20570640443E+03  0.22954795800E+03  0.00000000000E+00 0.  1.
         11    1    1    2    0    0 -0.57220871822E+02 -0.12310660884E+03  0.60452337212E+03  0.61957886726E+03  0.00000000000E+00 0. -1.
</event>
<event>
 7    1  0.2440960E-009  0.1205447E+03  0.7561462E-02  0.1242201E+00
         -2   -1    0    0    0  501 -0.00000000000E+00  0.00000000000E+00  0.23329174891E+02  0.23329174891E+02  0.00000000000E+00 0.  1.
          2   -1    0    0  501    0  0.00000000000E+00 -0.00000000000E+00 -0.71550951718E+03  0.71550951718E+03  0.00000000000E+00 0. -1.
         25    2    1    2    0    0  0.23762992343E+02  0.56260676068E+02 -0.45058856038E+03  0.47159868236E+03  0.12508126549E+03 0.  0.
          5    1    3    3  502    0 -0.42369879806E+02  0.55376095971E+02 -0.18170302853E+03  0.19466684796E+03  0.41800000000E+01 0. -1.
         -5    1    3    3    0  502  0.66132872149E+02  0.88458009714E+00 -0.26888553185E+03  0.27693183439E+03  0.41800000000E+01 0. -1.
        -11    1    1    2    0    0  0.61422574537E+01  0.21127362856E+02 -0.16970364609E+02  0.27786436670E+02  0.00000000000E+00 0.  1.
         11    1    1    2    0    0 -0.29905249797E+02 -0.77388038924E+02 -0.22462141730E+03  0.23945357304E+03  0.00000000000E+00 0. -1.
</event>
<event>
 7    1  0.2440960E-009  0.2248471E+03  0.7561462E-02  0.1130320E+00
          2   -1    0    0  501    0  0.00000000000E+00  0.00000000000E+00  0.57576260685E+03  0.57576260685E+03  0.00000000000E+00 0. -1.
         -2   -1    0    0    0  501 -0.00000000000E+00 -0.00000000000E+00 -0.98913894939E+02  0.98913894939E+02  0.00000000000E+00 0.  1.
         25    2    1    2    0    0  0.20587919974E+03 -0.27164552692E+02  0.18292416705E+03  0.30369885024E+03  0.12509029914E+03 0.  0.
          5    1    3    3  502    0 -0.71161402661E+01  0.21705462129E+02  0.11438983793E+02  0.25886082916E+02  0.41800000000E+01 0. -1.
         -5    1    3    3    0  502  0.21299534001E+03 -0.48870014821E+02  0.17148518325E+03  0.27781276733E+03  0.41800000000E+01 0. -1.
        -11    1    1    2    0    0 -0.70313025979E+02  0.14058771777E+02  0.38200831666E+02  0.81245764358E+02  0.00000000000E+00 0.  1.
         11    1    1    2    0    0 -0.13556617376E+03  0.13105780914E+02  0.25572371320E+03  0.28973188719E+03  0.00000000000E+00 0. -1.
</event>
<event>
 7    1  0.2440960E-009  0.1038033E+03  0.7561462E-02  0.1272495E+00
          1   -1    0    0  501    0  0.00000000000E+00  0.00000000000E+00  0.57772999060E+02  0.57772999060E+02  0.00000000000E+00 0. -1.
         -1   -1    0    0    0  501 -0.00000000000E+00 -0.00000000000E+00 -0.32569166677E+03  0.32569166677E+03  0.00000000000E+00 0.  1.
         25    2    1    2    0    0 -0.75872764600E+02 -0.33539956752E+02 -0.16356829944E+03  0.22199835756E+03  0.12508827712E+03 0.  0.
          5    1    3    3  502    0 -0.25133561766E+02 -0.38222144155E+02 -0.16457191637E+03  0.17086256550E+03  0.41800000000E+01 0. -1.
         -5    1    3    3    0  502 -0.50739202833E+02  0.46821874032E+01  0.10036169341E+01  0.51135792064E+02  0.41800000000E+01 0. -1.
        -11    1    1    2    0    0  0.25393742353E+02  0.51130153326E+02 -0.17910090473E+02  0.59832316273E+02  0.00000000000E+00 0.  1.
         11    1    1    2    0    0  0.50479022246E+02 -0.17590196575E+02 -0.86440277802E+02  0.10163399200E+03  0.00000000000E+00 0. -1.
</event>
<event>
 7    1  0.2440960E-009  0.8869889E+02  0.7561462E-02  0.1306033E+00
          4   -1    0    0  501    0  0.00000000000E+00  0.00000000000E+00  0.49056616939E+02  0.49056616939E+02  0.00000000000E+00 0. -1.
         -4   -1    0    0    0  501 -0.00000000000E+00 -0.00000000000E+00 -0.36183586633E+03  0.36183586633E+03  0.00000000000E+00 0.  1.
         25    2    1    2    0    0  0.59776614135E+02 -0.14946494984E+02 -0.98812480058E+02  0.17090329135E+03  0.12508951782E+03 0.  0.
          5    1    3    3  502    0  0.61619671248E+02 -0.16645197470E+02  0.75680811923E+01  0.64411138295E+02  0.41800000000E+01 0. -1.
         -5    1    3    3    0  502 -0.18430571130E+01  0.16987024858E+01 -0.10638056125E+03  0.10649215305E+03  0.41800000000E+01 0. -1.
        -11    1    1    2    0    0 -0.75381508749E+02 -0.13054163009E+02 -0.14535147126E+03  0.16425539027E+03  0.00000000000E+00 0.  1.
         11    1    1    2    0    0  0.15604894614E+02  0.28000657993E+02 -0.68615298070E+02  0.75733801656E+02  0.00000000000E+00 0. -1.
</event>
<event>
 7    1  0.2440960E-009  0.1101134E+03  0.7561462E-02  0.1260360E+00
         -2   -1    0    0    0  501 -0.00000000000E+00  0.00000000000E+00  0.36898180171E+02  0.36898180171E+02  0.00000000000E+00 0.  1.
          2   -1    0    0  501    0  0.00000000000E+00 -0.00000000000E+00 -0.48034595107E+03  0.48034595107E+03  0.00000000000E+00 0. -1.
         25    2    1    2    0    0  0.33027826513E+02 -0.57855365670E+02 -0.33374065328E+03  0.36258660455E+03  0.12509253170E+03 0.  0.
          5    1    3    3  502    0 -0.29736191605E+02 -0.21411169740E+00 -0.21087807579E+03  0.21300545107E+03  0.41800000000E+01 0. -1.
         -5    1    3    3    0  502  0.62764018118E+02 -0.57641253972E+02 -0.12286257749E+03  0.14958115348E+03  0.41800000000E+01 0. -1.
        -11    1    1    2    0    0 -0.45650051112E+02 -0.12686581500E-01 -0.27355910505E+02  0.53219105282E+02  0.00000000000E+00 0. -1.
         11    1    1    2    0    0  0.12622224599E+02  0.57868052251E+02 -0.82351207115E+02  0.10143842141E+03  0.00000000000E+00 0.  1.
</event>
<event>
 7    1  0.2440960E-009  0.1037531E+03  0.7561462E-02  0.1272596E+00
          1   -1    0    0  501    0  0.00000000000E+00  0.00000000000E+00  0.23064381077E+03  0.23064381077E+03  0.00000000000E+00 0. -1.
         -1   -1    0    0    0  501 -0.00000000000E+00 -0.00000000000E+00 -0.57854128766E+02  0.57854128766E+02  0.00000000000E+00 0.  1.
         25    2    1    2    0    0 -0.13790463912E+02  0.39435317876E+02  0.99972859017E+02  0.16549141747E+03  0.12509002968E+03 0.  0.
          5    1    3    3  502    0 -0.55263524711E+01  0.84895896766E+02  0.70066049327E+02  0.11029314361E+03  0.41800000000E+01 0. -1.
         -5    1    3    3    0  502 -0.82641114409E+01 -0.45460578890E+02  0.29906809690E+02  0.55198273856E+02  0.41800000000E+01 0. -1.
        -11    1    1    2    0    0  0.10629368080E+02  0.16653116720E+02 -0.10612660709E+02  0.22426286576E+02  0.00000000000E+00 0.  1.
         11    1    1    2    0    0  0.31610958319E+01 -0.56088434596E+02  0.83429483695E+02  0.10058023549E+03  0.00000000000E+00 0. -1.
</event>
<event>
 7    1  0.2440960E-009  0.1016812E+03  0.7561462E-02  0.1276800E+00
         -3   -1    0    0    0  501 -0.00000000000E+00  0.00000000000E+00  0.36345158777E+03  0.36345158777E+03  0.00000000000E+00 0.  1.
          3   -1    0    0  501    0  0.00000000000E+00 -0.00000000000E+00 -0.48269938827E+02  0.48269938827E+02  0.00000000000E+00 0. -1.
         25    2    1    2    0    0  0.68412879769E+02  0.26723723287E+02  0.20285044814E+03  0.24937788290E+03  0.12508614898E+03 0.  0.
          5    1    3    3  502    0  0.57725253918E+02  0.39142777150E+02  0.30562389245E+02  0.76262008755E+02  0.41800000000E+01 0. -1.
         -5    1    3    3    0  502  0.10687625851E+02 -0.12419053864E+02  0.17228805889E+03  0.17311587415E+03  0.41800000000E+01 0. -1.
        -11    1    1    2    0    0 -0.90303882344E+02 -0.28301896530E+02  0.84257015760E+02  0.12670845756E+03  0.00000000000E+00 0.  1.
         11    1    1    2    0    0  0.21891002575E+02  0.15781732434E+01  0.28074185038E+02  0.35635186124E+02  0.00000000000E+00 0. -1.
</event>
<event>
 7    1  0.2440960E-009  0.9744335E+02  0.7561462E-02  0.1285766E+00
          1   -1    0    0  501    0  0.00000000000E+00  0.00000000000E+00  0.10215197510E+03  0.10215197510E+03  0.00000000000E+00 0. -1.
         -1   -1    0    0    0  501 -0.00000000000E+00 -0.00000000000E+00 -0.14456237206E+03  0.14456237206E+03  0.00000000000E+00 0.  1.
         25    2    1    2    0    0 -0.98564257754E+01 -0.14045961927E+02  0.28795850504E+02  0.12949856078E+03  0.12508492340E+03 0.  0.
          5    1    3    3  502    0 -0.11506437313E+02 -0.58421260701E+02 -0.20413045246E+02  0.63084123341E+02  0.41800000000E+01 0.  1.
         -5    1    3    3    0  502  0.16500115373E+01  0.44375298774E+02  0.49208895750E+02  0.66414437438E+02  0.41800000000E+01 0.  1.
        -11    1    1    2    0    0  0.49077898610E+02  0.15132096474E+02 -0.53525824503E+02  0.74179743626E+02  0.00000000000E+00 0.  1.
         11    1    1    2    0    0 -0.39221472834E+02 -0.10861345472E+01 -0.17680422969E+02  0.43036042754E+02  0.00000000000E+00 0. -1.
</event>
<event>
 7    1  0.2440960E-009  0.6542550E+02  0.7561462E-02  0.1376378E+00
          2   -1    0    0  501    0  0.00000000000E+00  0.00000000000E+00  0.46563931551E+03  0.46563931551E+03  0.00000000000E+00 0. -1.
         -2   -1    0    0    0  501 -0.00000000000E+00 -0.00000000000E+00 -0.30012995757E+02  0.30012995757E+02  0.00000000000E+00 0.  1.
         25    2    1    2    0    0  0.15758154958E+02  0.15022340022E+02  0.33611117649E+03  0.35929132881E+03  0.12508215639E+03 0.  0.
          5    1    3    3  502    0  0.37661831374E+02  0.14130727518E+02  0.33447886675E+03  0.33691493838E+03  0.41800000000E+01 0.  1.
         -5    1    3    3    0  502 -0.21903676416E+02  0.89161250420E+00  0.16323097402E+01  0.22376390426E+02  0.41800000000E+01 0.  1.
        -11    1    1    2    0    0 -0.57776239811E+01 -0.40405924519E+02  0.89619061624E+01  0.41789178470E+02  0.00000000000E+00 0.  1.
         11    1    1    2    0    0 -0.99805309771E+01  0.25383584497E+02  0.90553237099E+02  0.94571803988E+02  0.00000000000E+00 0. -1.
</event>
<event>
 7    1  0.2440960E-009  0.7265884E+02  0.7561462E-02  0.1351278E+00
          1   -1    0    0  501    0  0.00000000000E+00  0.00000000000E+00  0.27361334999E+03  0.27361334999E+03  0.00000000000E+00 0. -1.
         -1   -1    0    0    0  501 -0.00000000000E+00 -0.00000000000E+00 -0.40162719602E+02  0.40162719602E+02  0.00000000000E+00 0.  1.
         25    2    1    2    0    0 -0.43196601243E+01 -0.12091481474E+02  0.13873298602E+03  0.18724067660E+03  0.12508943271E+03 0.  0.
          5    1    3    3  502    0  0.33680512560E+02  0.66584934001E+01 -0.71098903421E+01  0.35309140478E+02  0.41800000000E+01 0.  1.
         -5    1    3    3    0  502 -0.38000172684E+02 -0.18749974874E+02  0.14584287636E+03  0.15193153612E+03  0.41800000000E+01 0.  1.
        -11    1    1    2    0    0 -0.15236151162E+02  0.34915978312E+02  0.14311164445E+02  0.40694904736E+02  0.00000000000E+00 0.  1.
         11    1    1    2    0    0  0.19555811286E+02 -0.22824496838E+02  0.80406479923E+02  0.85840488259E+02  0.00000000000E+00 0. -1.
</event>
<event>
 7    1  0.2440960E-009  0.1238079E+03  0.7561462E-02  0.1236944E+00
         -2   -1    0    0    0  501 -0.00000000000E+00  0.00000000000E+00  0.40487901705E+02  0.40487901705E+02  0.00000000000E+00 0.  1.
          2   -1    0    0  501    0  0.00000000000E+00 -0.00000000000E+00 -0.49711043853E+03  0.49711043853E+03  0.00000000000E+00 0. -1.
         25    2    1    2    0    0 -0.36609918764E+02  0.78033503953E+02 -0.30511838939E+03  0.34084333843E+03  0.12508971149E+03 0.  0.
          5    1    3    3  502    0 -0.43733065308E+02 -0.20627382720E+02 -0.65048355451E+02  0.81159293159E+02  0.41800000000E+01 0. -1.
         -5    1    3    3    0  502  0.71231465441E+01  0.98660886673E+02 -0.24007003394E+03  0.25968404528E+03  0.41800000000E+01 0. -1.
        -11    1    1    2    0    0 -0.25571366855E+01 -0.54131096177E+02 -0.20485812354E+02  0.57934299246E+02  0.00000000000E+00 0.  1.
         11    1    1    2    0    0  0.39167055450E+02 -0.23902407776E+02 -0.13101833508E+03  0.13882070256E+03  0.00000000000E+00 0. -1.
</event>
<event>
 7    1  0.2440960E-009  0.7754307E+02  0.7561462E-02  0.1336172E+00
         -2   -1    0    0    0  501 -0.00000000000E+00  0.00000000000E+00  0.72409527257E+02  0.72409527257E+02  0.00000000000E+00 0.  1.
          2   -1    0    0  501    0  0.00000000000E+00 -0.00000000000E+00 -0.17281878975E+03  0.17281878975E+03  0.00000000000E+00 0. -1.
         25    2    1    2    0    0 -0.22394931325E+02 -0.11732280333E+02 -0.75202141476E+02  0.14811347834E+03  0.12507222327E+03 0.  0.
          5    1    3    3  502    0  0.17411546658E+02 -0.18383961213E+02  0.27543618198E+02  0.37646451231E+02  0.41800000000E+01 0. -1.
         -5    1    3    3    0  502 -0.39806477983E+02  0.66516808798E+01 -0.10274575967E+03  0.11046702711E+03  0.41800000000E+01 0. -1.
        -11    1    1    2    0    0 -0.32611630959E+02  0.87310435115E+01  0.52524559239E+01  0.34166326812E+02  0.00000000000E+00 0.  1.
         11    1    1    2    0    0  0.55006562284E+02  0.30012368213E+01 -0.30459576938E+02  0.62948511849E+02  0.00000000000E+00 0. -1.
</event>
<event>
 7    1  0.2440960E-009  0.1435791E+03  0.7561462E-02  0.1208593E+00
         -1   -1    0    0    0  501 -0.00000000000E+00  0.00000000000E+00  0.44667662577E+02  0.44667662577E+02  0.00000000000E+00 0.  1.
          1   -1    0    0  501    0  0.00000000000E+00 -0.00000000000E+00 -0.74439436966E+03  0.74439436966E+03  0.00000000000E+00 0. -1.
         25    2    1    2    0    0  0.66098632730E+02  0.76170773014E+02 -0.59165237494E+03  0.61308254056E+03  0.12508658146E+03 0.  0.
          5    1    3    3  502    0 -0.32259137785E+01 -0.31749773735E+02 -0.12981778632E+03  0.13374821381E+03  0.41800000000E+01 0.  1.
         -5    1    3    3    0  502  0.69324546509E+02  0.10792054675E+03 -0.46183458862E+03  0.47933432675E+03  0.41800000000E+01 0.  1.
        -11    1    1    2    0    0 -0.25337683515E+02  0.13082386630E+02  0.19207825041E+01  0.28580350790E+02  0.00000000000E+00 0.  1.
         11    1    1    2    0    0 -0.40760949215E+02 -0.89253159644E+02 -0.10999511465E+03  0.14739914089E+03  0.00000000000E+00 0. -1.
</event>
<event>
 7    1  0.2440960E-009  0.1510751E+03  0.7561462E-02  0.1199158E+00
         -2   -1    0    0    0  501 -0.00000000000E+00  0.00000000000E+00  0.11718065844E+03  0.11718065844E+03  0.00000000000E+00 0.  1.
          2   -1    0    0  501    0  0.00000000000E+00 -0.00000000000E+00 -0.23805962039E+03  0.23805962039E+03  0.00000000000E+00 0. -1.
         25    2    1    2    0    0 -0.21635801096E+02 -0.12497789765E+03 -0.55500762151E+02  0.18659038922E+03  0.12509218984E+03 0.  0.
          5    1    3    3  502    0 -0.26132847380E+02 -0.14855270257E+03 -0.58926300827E+02  0.16198954436E+03  0.41800000000E+01 0.  1.
         -5    1    3    3    0  502  0.44970462834E+01  0.23574804923E+02  0.34255386760E+01  0.24600844857E+02  0.41800000000E+01 0.  1.
        -11    1    1    2    0    0  0.16242084859E+02  0.82998913795E+02 -0.86820565140E+02  0.12120410696E+03  0.00000000000E+00 0. -1.
         11    1    1    2    0    0  0.53937162374E+01  0.41978983854E+02  0.21442365344E+02  0.47445782655E+02  0.00000000000E+00 0.  1.
</event>
<event>
 7    1  0.2440960E-009  0.1224301E+03  0.7561462E-02  0.1239141E+00
          2   -1    0    0  501    0  0.00000000000E+00  0.00000000000E+00  0.53462356709E+03  0.53462356709E+03  0.00000000000E+00 0. -1.
         -2   -1    0    0    0  501 -0.00000000000E+00 -0.00000000000E+00 -0.33011892539E+02  0.33011892539E+02  0.00000000000E+00 0.  1.
         25    2    1    2    0    0 -0.27817731491E+02  0.23204531633E+01  0.24908561094E+03  0.28012498195E+03  0.12508858159E+03 0.  0.
          5    1    3    3  502    0 -0.63542226168E+02 -0.18353581445E+02  0.70396232336E+02  0.96682833974E+02  0.41800000000E+01 0. -1.
         -5    1    3    3    0  502  0.35724494677E+02  0.20674034609E+02  0.17868937860E+03  0.18344214797E+03  0.41800000000E+01 0. -1.
        -11    1    1    2    0    0 -0.26654885722E+01 -0.66235895244E+02  0.13235526422E+03  0.14802774947E+03  0.00000000000E+00 0.  1.
         11    1    1    2    0    0  0.30483220063E+02  0.63915442081E+02  0.12017079939E+03  0.13948272821E+03  0.00000000000E+00 0. -1.
</event>
<event>
 7    1  0.2440960E-009  0.1272645E+03  0.7561462E-02  0.1231572E+00
         -2   -1    0    0    0  501 -0.00000000000E+00  0.00000000000E+00  0.32158689403E+02  0.32158689403E+02  0.00000000000E+00 0.  1.
          2   -1    0    0  501    0  0.00000000000E+00 -0.00000000000E+00 -0.65915353930E+03  0.65915353930E+03  0.00000000000E+00 0. -1.
         25    2    1    2    0    0  0.65415544013E+02  0.70714175179E+02 -0.31456732142E+03  0.35196611147E+03  0.12509139038E+03 0.  0.
          5    1    3    3  502    0  0.92296912777E+02  0.12334882704E+02 -0.17587868107E+03  0.19905188343E+03  0.41800000000E+01 0.  1.
         -5    1    3    3    0  502 -0.26881368764E+02  0.58379292475E+02 -0.13868864035E+03  0.15291422804E+03  0.41800000000E+01 0.  1.
        -11    1    1    2    0    0 -0.49284937395E+02 -0.59521920227E+02 -0.31009004320E+03  0.31957424635E+03  0.00000000000E+00 0. -1.
         11    1    1    2    0    0 -0.16130606617E+02 -0.11192254952E+02 -0.23374852799E+01  0.19771870883E+02  0.00000000000E+00 0.  1.
</event>
<event>
 7    1  0.2440960E-009  0.2227279E+03  0.7561462E-02  0.1131865E+00
          2   -1    0    0  501    0  0.00000000000E+00  0.00000000000E+00  0.13230605910E+04  0.13230605910E+04  0.00000000000E+00 0. -1.
         -2   -1    0    0    0  501 -0.00000000000E+00 -0.00000000000E+00 -0.44031910045E+02  0.44031910045E+02  0.00000000000E+00 0.  1.
         25    2    1    2    0    0 -0.54321907199E+02  0.20373479969E+03  0.78073258953E+03  0.81832104924E+03  0.12508886868E+03 0.  0.
          5    1    3    3  502    0 -0.70560146821E+02  0.83665095749E+02  0.23479695571E+03  0.25908621225E+03  0.41800000000E+01 0. -1.
         -5    1    3    3    0  502  0.16238239621E+02  0.12006970394E+03  0.54593563382E+03  0.55923483699E+03  0.41800000000E+01 0. -1.
        -11    1    1    2    0    0 -0.13932878542E+01 -0.67402237968E+02  0.76317992786E+02  0.10183044219E+03  0.00000000000E+00 0.  1.
         11    1    1    2    0    0  0.55715195054E+02 -0.13633256172E+03  0.42197809863E+03  0.44694100961E+03  0.00000000000E+00 0. -1.
</event>
<event>
 7    1  0.2440960E-009  0.9389950E+02  0.7561462E-02  0.1293674E+00
          1   -1    0    0  501    0  0.00000000000E+00  0.00000000000E+00  0.46925647975E+03  0.46925647975E+03  0.00000000000E+00 0. -1.
         -1   -1    0    0    0  501 -0.00000000000E+00 -0.00000000000E+00 -0.37726432135E+02  0.37726432135E+02  0.00000000000E+00 0.  1.
         25    2    1    2    0    0  0.22205189580E+02  0.49645576826E+02  0.33992010102E+03  0.36626591841E+03  0.12508914491E+03 0.  0.
          5    1    3    3  502    0 -0.15906554663E+02  0.40730438013E+02  0.31837762385E+03  0.32139348287E+03  0.41800000000E+01 0.  1.
         -5    1    3    3    0  502  0.38111744243E+02  0.89151388132E+01  0.21542477166E+02  0.44872435545E+02  0.41800000000E+01 0.  1.
        -11    1    1    2    0    0 -0.56843945473E+02 -0.25594016078E+02  0.68535757738E+02  0.92646844979E+02  0.00000000000E+00 0.  1.
         11    1    1    2    0    0  0.34638755893E+02 -0.24051560749E+02  0.23074188857E+02  0.48070148488E+02  0.00000000000E+00 0. -1.
</event>
<event>
 7    1  0.2440960E-009  0.1182828E+03  0.7561462E-02  0.1245957E+00
         -2   -1    0    0    0  501 -0.00000000000E+00  0.00000000000E+00  0.77760863732E+02  0.77760863732E+02  0.00000000000E+00 0.  1.
          2   -1    0    0  501    0  0.00000000000E+00 -0.00000000000E+00 -0.18482630603E+03  0.18482630603E+03  0.00000000000E+00 0. -1.
         25    2    1    2    0    0 -0.31330368252E+02 -0.36489341749E+02 -0.81324799954E+02  0.15676292278E+03  0.12509127402E+03 0.  0.
          5    1    3    3  502    0 -0.46603532695E+01 -0.81339807161E+02 -0.46726629548E+02  0.94014538400E+02  0.41800000000E+01 0.  1.
         -5    1    3    3    0  502 -0.26670014982E+02  0.44850465413E+02 -0.34598170406E+02  0.62748384380E+02  0.41800000000E+01 0.  1.
        -11    1    1    2    0    0 -0.18280051058E+02  0.48297247174E+02 -0.12260185828E+02  0.53076327188E+02  0.00000000000E+00 0. -1.
         11    1    1    2    0    0  0.49610419310E+02 -0.11807905425E+02 -0.13480456516E+02  0.52747919793E+02  0.00000000000E+00 0.  1.
</event>
<event>
 7    1  0.2440960E-009  0.8866826E+02  0.7561462E-02  0.1306109E+00
         -1   -1    0    0    0  501 -0.00000000000E+00  0.00000000000E+00  0.23576215202E+02  0.23576215202E+02  0.00000000000E+00 0.  1.
          1   -1    0    0  501    0  0.00000000000E+00 -0.00000000000E+00 -0.95362144198E+03  0.95362144198E+03  0.00000000000E+00 0. -1.
         25    2    1    2    0    0 -0.66901796513E+02  0.23245519764E+02 -0.75172468972E+03  0.76534583769E+03  0.12509211632E+03 0.  0.
          5    1    3    3  502    0 -0.53331942278E+02  0.14466202890E+02 -0.74545703458E+03  0.74751403324E+03  0.41800000000E+01 0.  1.
         -5    1    3    3    0  502 -0.13569854235E+02  0.87793168746E+01 -0.62676551402E+01  0.17831804443E+02  0.41800000000E+01 0.  1.
        -11    1    1    2    0    0 -0.97833192886E+01  0.16249580044E+02 -0.73267756490E+01  0.20333318207E+02  0.00000000000E+00 0. -1.
         11    1    1    2    0    0  0.76685115801E+02 -0.39495099808E+02 -0.17099376141E+03  0.19151850129E+03  0.00000000000E+00 0.  1.
</event>
<event>
 7    1  0.2440960E-009  0.1036670E+03  0.7561462E-02  0.1272768E+00
          2   -1    0    0  501    0  0.00000000000E+00  0.00000000000E+00  0.60449853967E+03  0.60449853967E+03  0.00000000000E+00 0. -1.
         -2   -1    0    0    0  501 -0.00000000000E+00 -0.00000000000E+00 -0.19788007036E+02  0.19788007036E+02  0.00000000000E+00 0.  1.
         25    2    1    2    0    0  0.13481883497E+02 -0.87111235642E+01  0.35936932018E+03  0.38085610752E+03  0.12508965382E+03 0.  0.
          5    1    3    3  502    0 -0.51788242675E+02  0.18662214298E+02  0.15525277628E+03  0.16477620357E+03  0.41800000000E+01 0.  1.
         -5    1    3    3    0  502  0.65270126172E+02 -0.27373337862E+02  0.20411654390E+03  0.21607990395E+03  0.41800000000E+01 0.  1.
        -11    1    1    2    0    0  0.32867300414E+02  0.11428228742E+02  0.43235597642E+02  0.55499376142E+02  0.00000000000E+00 0.  1.
         11    1    1    2    0    0 -0.46349183911E+02 -0.27171051780E+01  0.18210561481E+03  0.18793106304E+03  0.00000000000E+00 0. -1.
</event>
<event>
 7    1  0.2440960E-009  0.2000501E+03  0.7561462E-02  0.1149697E+00
          1   -1    0    0  501    0  0.00000000000E+00  0.00000000000E+00  0.65425014149E+03  0.65425014149E+03  0.00000000000E+00 0. -1.
         -1   -1    0    0    0  501 -0.00000000000E+00 -0.00000000000E+00 -0.71952630535E+02  0.71952630535E+02  0.00000000000E+00 0.  1.
         25    2    1    2    0    0  0.16268593774E+03  0.60267447653E+02  0.41905540832E+03  0.47048342253E+03  0.12509330936E+03 0.  0.
          5    1    3    3  502    0  0.11200335603E+03 -0.17027744997E+02  0.16577263292E+03  0.20083011250E+03  0.41800000000E+01 0. -1.
         -5    1    3    3    0  502  0.50682581711E+02  0.77295192650E+02  0.25328277540E+03  0.26965331003E+03  0.41800000000E+01 0. -1.
        -11    1    1    2    0    0 -0.69034127058E+01  0.18427060585E+02  0.31119225131E+02  0.36818743074E+02  0.00000000000E+00 0.  1.
         11    1    1    2    0    0 -0.15578252503E+03 -0.78694508238E+02  0.13212287750E+03  0.21890060642E+03  0.00000000000E+00 0. -1.
</event>
<event>
 7    1  0.2440960E-009  0.1540517E+03  0.7561462E-02  0.1195581E+00
         -2   -1    0    0    0  501 -0.00000000000E+00  0.00000000000E+00  0.26682122020E+03  0.26682122020E+03  0.00000000000E+00 0.  1.
          2   -1    0    0  501    0  0.00000000000E+00 -0.00000000000E+00 -0.12191767965E+03  0.12191767965E+03  0.00000000000E+00 0. -1.
         25    2    1    2    0    0 -0.12827418128E+03  0.18764275676E+01  0.14804645641E+03  0.23242864714E+03  0.12509011229E+03 0.  0.
          5    1    3    3  502    0 -0.14399714706E+03  0.29188185764E+02  0.12748226015E+03  0.19456702599E+03  0.41800000000E+01 0.  1.
         -5    1    3    3    0  502  0.15722965775E+02 -0.27311758197E+02  0.20564196259E+02  0.37861621153E+02  0.41800000000E+01 0.  1.
        -11    1    1    2    0    0  0.71768568934E+02  0.70808031265E+01  0.41980297074E+02  0.83445854314E+02  0.00000000000E+00 0.  1.
         11    1    1    2    0    0  0.56505612350E+02 -0.89572306942E+01 -0.45123212928E+02  0.72864398396E+02  0.00000000000E+00 0. -1.
</event>
<event>
 7    1  0.2440960E-009  0.7489686E+02  0.7561462E-02  0.1344191E+00
          1   -1    0    0  501    0  0.00000000000E+00  0.00000000000E+00  0.17466522621E+03  0.17466522621E+03  0.00000000000E+00 0. -1.
         -1   -1    0    0    0  501 -0.00000000000E+00 -0.00000000000E+00 -0.87670294258E+02  0.87670294258E+02  0.00000000000E+00 0.  1.
         25    2    1    2    0    0 -0.49353783827E+02 -0.38458034433E+02  0.68724524276E+02  0.15583958899E+03  0.12509236935E+03 0.  0.
          5    1    3    3  502    0  0.37103758297E+01 -0.22287447481E+02  0.92522119777E+02  0.95332640014E+02  0.41800000000E+01 0.  1.
         -5    1    3    3    0  502 -0.53064159656E+02 -0.16170586953E+02 -0.23797595502E+02  0.60506948974E+02  0.41800000000E+01 0.  1.
        -11    1    1    2    0    0  0.12542641335E+02  0.31252941232E+02 -0.30181448850E+02  0.45221499776E+02  0.00000000000E+00 0.  1.
         11    1    1    2    0    0  0.36811142492E+02  0.72050932014E+01  0.48451856525E+02  0.61274431702E+02  0.00000000000E+00 0. -1.
</event>
<event>
 7    1  0.2440960E-009  0.9751444E+02  0.7561462E-02  0.1285611E+00
          2   -1    0    0  501    0  0.00000000000E+00  0.00000000000E+00  0.69578421733E+03  0.69578421733E+03  0.00000000000E+00 0.  1.
         -2   -1    0    0    0  501 -0.00000000000E+00 -0.00000000000E+00 -0.24567951044E+02  0.24567951044E+02  0.00000000000E+00 0. -1.
         25    2    1    2    0    0  0.14730798851E+02  0.69192139770E+02  0.31675874374E+03  0.34783177713E+03  0.12508515022E+03 0.  0.
          5    1    3    3  502    0  0.30004788820E+02  0.10084659227E+02  0.26716538316E+03  0.26906653836E+03  0.41800000000E+01 0.  1.
         -5    1    3    3    0  502 -0.15273989969E+02  0.59107480543E+02  0.49593360578E+02  0.78765238774E+02  0.41800000000E+01 0.  1.
        -11    1    1    2    0    0 -0.44749044213E+02 -0.39572342280E+02  0.28555864871E+03  0.29173993399E+03  0.00000000000E+00 0.  1.
         11    1    1    2    0    0  0.30018245362E+02 -0.29619797489E+02  0.68898873831E+02  0.80780457247E+02  0.00000000000E+00 0. -1.
</event>
<event>
 7    1  0.2440960E-009  0.1073578E+03  0.7561462E-02  0.1265543E+00
          1   -1    0    0  501    0  0.00000000000E+00  0.00000000000E+00  0.58758204262E+03  0.58758204262E+03  0.00000000000E+00 0. -1.
         -1   -1    0    0    0  501 -0.00000000000E+00 -0.00000000000E+00 -0.23414872667E+02  0.23414872667E+02  0.00000000000E+00 0.  1.
         25    2    1    2    0    0  0.89326042199E+01  0.46749807828E+02  0.37478220966E+03  0.39796450113E+03  0.12509477817E+03 0.  0.
          5    1    3    3  502    0  0.63523969844E+02  0.19381197746E+02  0.13524584341E+03  0.15073100587E+03  0.41800000000E+01 0. -1.
         -5    1    3    3    0  502 -0.54591365624E+02  0.27368610083E+02  0.23953636626E+03  0.24723349526E+03  0.41800000000E+01 0. -1.
        -11    1    1    2    0    0  0.28369908573E+02 -0.40017578926E+02  0.15229361914E+03  0.15999876489E+03  0.00000000000E+00 0. -1.
         11    1    1    2    0    0 -0.37302512793E+02 -0.67322289019E+01  0.37091341147E+02  0.53033649269E+02  0.00000000000E+00 0.  1.
</event>
<event>
 7    1  0.2440960E-009  0.8570492E+02  0.7561462E-02  0.1313599E+00
         -2   -1    0    0    0  501 -0.00000000000E+00  0.00000000000E+00  0.32871189618E+02  0.32871189618E+02  0.00000000000E+00 0.  1.
          2   -1    0    0  501    0  0.00000000000E+00 -0.00000000000E+00 -0.59890240033E+03  0.59890240033E+03  0.00000000000E+00 0. -1.
         25    2    1    2    0    0  0.44376517568E+02 -0.26587813632E+02 -0.47002650031E+03  0.48912919086E+03  0.12508503994E+03 0.  0.
          5    1    3    3  502    0  0.13253735796E+02 -0.51344992587E+02 -0.42734284026E+03  0.43064062197E+03  0.41800000000E+01 0.  1.
         -5    1    3    3    0  502  0.31122781772E+02  0.24757178956E+02 -0.42683660050E+02  0.58488568886E+02  0.41800000000E+01 0.  1.
        -11    1    1    2    0    0 -0.46528597715E+02  0.41992100675E+02 -0.21085248306E+02  0.66127412021E+02  0.00000000000E+00 0.  1.
         11    1    1    2    0    0  0.21520801469E+01 -0.15404287043E+02 -0.74919462100E+02  0.76516987066E+02  0.00000000000E+00 0. -1.
</event>
<event>
 7    1  0.2440960E-009  0.1036536E+03  0.7561462E-02  0.1272795E+00
         -1   -1    0    0    0  501 -0.00000000000E+00  0.00000000000E+00  0.19738894928E+02  0.19738894928E+02  0.00000000000E+00 0.  1.
          1   -1    0    0  501    0  0.00000000000E+00 -0.00000000000E+00 -0.59960850135E+03  0.59960850135E+03  0.00000000000E+00 0. -1.
         25    2    1    2    0    0  0.16500830900E+02  0.62945331560E+00 -0.35256262160E+03  0.37446125117E+03  0.12509257711E+03 0.  0.
          5    1    3    3  502    0 -0.48885617310E+02 -0.14100960415E+02 -0.90241283638E+02  0.10368028905E+03  0.41800000000E+01 0. -1.
         -5    1    3    3    0  502  0.65386448210E+02  0.14730413730E+02 -0.26232133796E+03  0.27078096212E+03  0.41800000000E+01 0. -1.
        -11    1    1    2    0    0 -0.26865493167E+02  0.39435964247E+02 -0.14687500811E+03  0.15443192029E+03  0.00000000000E+00 0. -1.
         11    1    1    2    0    0  0.10364662267E+02 -0.40065417563E+02 -0.80431976714E+02  0.90454224813E+02  0.00000000000E+00 0.  1.
</event>
<event>
 7    1  0.2440960E-009  0.1137981E+03  0.7561462E-02  0.1253694E+00
         -1   -1    0    0    0  501 -0.00000000000E+00  0.00000000000E+00  0.19489760212E+03  0.19489760212E+03  0.00000000000E+00 0.  1.
          1   -1    0    0  501    0  0.00000000000E+00 -0.00000000000E+00 -0.94728022790E+02  0.94728022790E+02  0.00000000000E+00 0. -1.
         25    2    1    2    0    0 -0.24822217351E+02 -0.36794694933E+02  0.12608777114E+03  0.18307250794E+03  0.12508966818E+03 0.  0.
          5    1    3    3  502    0 -0.64072570679E+02 -0.55537290738E+02  0.10356403885E+03  0.13391291020E+03  0.41800000000E+01 0.  1.
         -5    1    3    3    0  502  0.39250353328E+02  0.18742595806E+02  0.22523732286E+02  0.49159597740E+02  0.41800000000E+01 0.  1.
        -11    1    1    2    0    0  0.20021126171E+02  0.66225254626E+02 -0.35499402739E+01  0.69276488937E+02  0.00000000000E+00 0.  1.
         11    1    1    2    0    0  0.48010911806E+01 -0.29430559693E+02 -0.22368251535E+02  0.37276628028E+02  0.00000000000E+00 0. -1.
</event>
<event>
 7    1  0.2440960E-009  0.9132930E+02  0.7561462E-02  0.1299664E+00
          2   -1    0    0  501    0  0.00000000000E+00  0.00000000000E+00  0.45035828716E+03  0.45035828716E+03  0.00000000000E+00 0. -1.
         -2   -1    0    0    0  501 -0.00000000000E+00 -0.00000000000E+00 -0.33499282549E+02  0.33499282549E+02  0.00000000000E+00 0.  1.
         25    2    1    2    0    0  0.38376519251E+02  0.41837984409E+01  0.14730580336E+03  0.19707033515E+03  0.12508979132E+03 0.  0.
          5    1    3    3  502    0 -0.28575365954E+02 -0.28590801166E+01 -0.59531962767E+01  0.29624969611E+02  0.41800000000E+01 0. -1.
         -5    1    3    3    0  502  0.66951885205E+02  0.70428785575E+01  0.15325899964E+03  0.16744536554E+03  0.41800000000E+01 0. -1.
        -11    1    1    2    0    0  0.22764849818E+02  0.74415006276E+01  0.25753184019E+02  0.35168747574E+02  0.00000000000E+00 0.  1.
         11    1    1    2    0    0 -0.61141369069E+02 -0.11625299069E+02  0.24380001722E+03  0.25161848698E+03  0.00000000000E+00 0. -1.
</event>
<event>
 7    1  0.2440960E-009  0.1218117E+03  0.7561462E-02  0.1240138E+00
         -2   -1    0    0    0  501 -0.00000000000E+00  0.00000000000E+00  0.81357273724E+02  0.81357273724E+02  0.00000000000E+00 0.  1.
          2   -1    0    0  501    0  0.00000000000E+00 -0.00000000000E+00 -0.11912711163E+04  0.11912711163E+04  0.00000000000E+00 0. -1.
         25    2    1    2    0    0 -0.77138129576E+02 -0.15575600885E+02 -0.11394378722E+04  0.11489819954E+04  0.12509224846E+03 0.  0.
          5    1    3    3  502    0 -0.59114004933E+01 -0.46616174589E+02 -0.76976574935E+03  0.77120995433E+03  0.41800000000E+01 0. -1.
         -5    1    3    3    0  502 -0.71226729082E+02  0.31040573704E+02 -0.36967212288E+03  0.37777204103E+03  0.41800000000E+01 0. -1.
        -11    1    1    2    0    0  0.97375019354E+02  0.13038546074E+02  0.16975399302E+02  0.99699860879E+02  0.00000000000E+00 0. -1.
         11    1    1    2    0    0 -0.20236889778E+02  0.25370548113E+01  0.12548630370E+02  0.23946533761E+02  0.00000000000E+00 0.  1.
</event>
<event>
 7    1  0.2440960E-009  0.7368113E+02  0.7561462E-02  0.1348004E+00
          2   -1    0    0  501    0  0.00000000000E+00  0.00000000000E+00  0.22750366684E+03  0.22750366684E+03  0.00000000000E+00 0.  1.
         -2   -1    0    0    0  501 -0.00000000000E+00 -0.00000000000E+00 -0.84203450510E+02  0.84203450510E+02  0.00000000000E+00 0. -1.
         25    2    1    2    0    0  0.56398330339E+02  0.22889106091E+02  0.14738368735E+03  0.20266656422E+03  0.12508837721E+03 0.  0.
          5    1    3    3  502    0  0.12978477590E+02 -0.17261926872E+02 -0.17075803357E+02  0.27847270246E+02  0.41800000000E+01 0. -1.
         -5    1    3    3    0  502  0.43419852750E+02  0.40151032963E+02  0.16445949071E+03  0.17481929397E+03  0.41800000000E+01 0. -1.
        -11    1    1    2    0    0 -0.31950879227E+02  0.90471550723E+00 -0.45360127702E+02  0.55490705336E+02  0.00000000000E+00 0. -1.
         11    1    1    2    0    0 -0.24447451112E+02 -0.23793821599E+02  0.41276656674E+02  0.53549847790E+02  0.00000000000E+00 0.  1.
</event>
<event>
 7    1  0.2440960E-009  0.9437151E+02  0.7561462E-02  0.1292598E+00
          1   -1    0    0  501    0  0.00000000000E+00  0.00000000000E+00  0.48071455042E+03  0.48071455042E+03  0.00000000000E+00 0. -1.
         -1   -1    0    0    0  501 -0.00000000000E+00 -0.00000000000E+00 -0.38339544424E+02  0.38339544424E+02  0.00000000000E+00 0.  1.
         25    2    1    2    0    0 -0.31354992589E+02  0.58191645347E+02  0.34380184582E+03  0.37177461757E+03  0.12508898403E+03 0.  0.
          5    1    3    3  502    0 -0.28480806965E+02  0.80435528143E+02  0.12277514901E+03  0.14957352763E+03  0.41800000000E+01 0.  1.
         -5    1    3    3    0  502 -0.28741856243E+01 -0.22243882796E+02  0.22102669682E+03  0.22220108994E+03  0.41800000000E+01 0.  1.
        -11    1    1    2    0    0  0.41551391489E+02 -0.32171738497E+02  0.10604494839E+03  0.11835146797E+03  0.00000000000E+00 0. -1.
         11    1    1    2    0    0 -0.10196398899E+02 -0.26019906850E+02 -0.74717882176E+01  0.28928009302E+02  0.00000000000E+00 0.  1.
</event>
<event>
 7    1  0.2440960E-009  0.1226590E+03  0.7561462E-02  0.1238774E+00
          1   -1    0    0  501    0  0.00000000000E+00  0.00000000000E+00  0.31405687987E+03  0.31405687987E+03  0.00000000000E+00 0. -1.
         -1   -1    0    0    0  501 -0.00000000000E+00 -0.00000000000E+00 -0.55946386484E+02  0.55946386484E+02  0.00000000000E+00 0.  1.
         25    2    1    2    0    0 -0.28053907637E+02  0.70315992595E+02  0.13477722409E+03  0.19885674834E+03  0.12509094963E+03 0.  0.
          5    1    3    3  502    0 -0.43699725160E+02 -0.98155479336E+01  0.47071184083E+01  0.45228755499E+02  0.41800000000E+01 0. -1.
         -5    1    3    3    0  502  0.15645817522E+02  0.80131540528E+02  0.13007010568E+03  0.15362799284E+03  0.41800000000E+01 0. -1.
        -11    1    1    2    0    0  0.60842965129E+02 -0.56401518446E+02  0.83444177790E+02  0.11766872352E+03  0.00000000000E+00 0.  1.
         11    1    1    2    0    0 -0.32789057491E+02 -0.13914474148E+02  0.39889091509E+02  0.53477794489E+02  0.00000000000E+00 0. -1.
</event>
<event>
 7    1  0.2440960E-009  0.8541082E+02  0.7561462E-02  0.1314362E+00
         -3   -1    0    0    0  501 -0.00000000000E+00  0.00000000000E+00  0.99887768524E+02  0.99887768524E+02  0.00000000000E+00 0.  1.
          3   -1    0    0  501    0  0.00000000000E+00 -0.00000000000E+00 -0.14930995186E+03  0.14930995186E+03  0.00000000000E+00 0. -1.
         25    2    1    2    0    0  0.56240492203E+02 -0.60719527124E+01 -0.35262714131E+02  0.14174408937E+03  0.12509223114E+03 0.  0.
          5    1    3    3  502    0  0.74877184538E+02  0.90249516435E+01 -0.67531560124E+02  0.10132140213E+03  0.41800000000E+01 0.  1.
         -5    1    3    3    0  502 -0.18636692335E+02 -0.15096904356E+02  0.32268845993E+02  0.40422687244E+02  0.41800000000E+01 0.  1.
        -11    1    1    2    0    0  0.23688004096E+01 -0.99121159976E+01  0.30433158799E+02  0.32094211525E+02  0.00000000000E+00 0.  1.
         11    1    1    2    0    0 -0.58609292613E+02  0.15984068710E+02 -0.44592628007E+02  0.75359419489E+02  0.00000000000E+00 0. -1.
</event>
<event>
 7    1  0.2440960E-009  0.1232310E+03  0.7561462E-02  0.1237860E+00
          1   -1    0    0  501    0  0.00000000000E+00  0.00000000000E+00  0.26625018459E+02  0.26625018459E+02  0.00000000000E+00 0. -1.
         -1   -1    0    0    0  501 -0.00000000000E+00 -0.00000000000E+00 -0.65788117886E+03  0.65788117886E+03  0.00000000000E+00 0.  1.
         25    2    1    2    0    0 -0.51337174896E+02 -0.54696925204E+02 -0.38229461868E+03  0.40917367893E+03  0.12508662960E+03 0.  0.
          5    1    3    3  502    0  0.21637598625E+01 -0.75188042709E+02 -0.29652433300E+03  0.30594456374E+03  0.41800000000E+01 0.  1.
         -5    1    3    3    0  502 -0.53500934759E+02  0.20491117504E+02 -0.85770285681E+02  0.10322911519E+03  0.41800000000E+01 0.  1.
        -11    1    1    2    0    0  0.42101051388E+02 -0.14000752145E+02 -0.64581276025E+02  0.78353435162E+02  0.00000000000E+00 0.  1.
         11    1    1    2    0    0  0.92361235084E+01  0.68697677350E+02 -0.18438026569E+03  0.19697908322E+03  0.00000000000E+00 0. -1.
</event>
<event>
 7    1  0.2440960E-009  0.1232363E+03  0.7561462E-02  0.1237852E+00
          1   -1    0    0  501    0  0.00000000000E+00  0.00000000000E+00  0.30729662304E+03  0.30729662304E+03  0.00000000000E+00 0. -1.
         -1   -1    0    0    0  501 -0.00000000000E+00 -0.00000000000E+00 -0.85837267433E+02  0.85837267433E+02  0.00000000000E+00 0.  1.
         25    2    1    2    0    0  0.79183935353E+02  0.68361612889E+02  0.17660053914E+03  0.24037131552E+03  0.12508882110E+03 0.  0.
          5    1    3    3  502    0  0.85923132623E+02  0.14324173873E+02  0.16176619752E+03  0.18377633618E+03  0.41800000000E+01 0.  1.
         -5    1    3    3    0  502 -0.67391972699E+01  0.54037439016E+02  0.14834341613E+02  0.56594979339E+02  0.41800000000E+01 0.  1.
        -11    1    1    2    0    0 -0.40920182013E+02 -0.33504375594E+02  0.75824568218E+02  0.92446577142E+02  0.00000000000E+00 0. -1.
         11    1    1    2    0    0 -0.38263753341E+02 -0.34857237296E+02 -0.30965751745E+02  0.60315997818E+02  0.00000000000E+00 0.  1.
</event>
<event>
 7    1  0.2440960E-009  0.1085688E+03  0.7561462E-02  0.1263243E+00
         -2   -1    0    0    0  501 -0.00000000000E+00  0.00000000000E+00  0.53529667976E+03  0.53529667976E+03  0.00000000000E+00 0.  1.
          2   -1    0    0  501    0  0.00000000000E+00 -0.00000000000E+00 -0.23340666414E+02  0.23340666414E+02  0.00000000000E+00 0. -1.
         25    2    1    2    0    0 -0.23163101880E+02 -0.12770682565E+02  0.27477066902E+03  0.30306238448E+03  0.12509304023E+03 0.  0.
          5    1    3    3  502    0  0.78362367374E+00 -0.67334073734E+02  0.16096968513E+03  0.17453711205E+03  0.41800000000E+01 0.  1.
         -5    1    3    3    0  502 -0.23946725554E+02  0.54563391169E+02  0.11380098389E+03  0.12852527244E+03  0.41800000000E+01 0.  1.
        -11    1    1    2    0    0  0.57754730485E+01  0.49216858374E+02  0.87706584269E+02  0.10073777922E+03  0.00000000000E+00 0.  1.
         11    1    1    2    0    0  0.17387628832E+02 -0.36446175809E+02  0.14947876006E+03  0.15483718247E+03  0.00000000000E+00 0. -1.
</event>
<event>
 7    1  0.2440960E-009  0.1063408E+03  0.7561462E-02  0.1267500E+00
          2   -1    0    0  501    0  0.00000000000E+00  0.00000000000E+00  0.16446135394E+03  0.16446135394E+03  0.00000000000E+00 0. -1.
         -2   -1    0    0    0  501 -0.00000000000E+00 -0.00000000000E+00 -0.15513808187E+03  0.15513808187E+03  0.00000000000E+00 0.  1.
         25    2    1    2    0    0  0.72078169935E+02  0.18928715041E+02  0.95136685607E+02  0.17393304727E+03  0.12509259431E+03 0.  0.
          5    1    3    3  502    0  0.43070489364E+02 -0.47304719264E+02  0.75183486394E+02  0.98807047041E+02  0.41800000000E+01 0.  1.
         -5    1    3    3    0  502  0.29007680571E+02  0.66233434305E+02  0.19953199213E+02  0.75126000232E+02  0.41800000000E+01 0.  1.
        -11    1    1    2    0    0 -0.35948782880E+02 -0.17506506797E+02  0.11703118023E+02  0.41662402022E+02  0.00000000000E+00 0. -1.
         11    1    1    2    0    0 -0.36129387055E+02 -0.14222082440E+01 -0.97516531561E+02  0.10400398652E+03  0.00000000000E+00 0.  1.
</event>
<event>
 7    1  0.2440960E-009  0.1736326E+03  0.7561462E-02  0.1174112E+00
          1   -1    0    0  501    0  0.00000000000E+00  0.00000000000E+00  0.36611052400E+03  0.36611052400E+03  0.00000000000E+00 0. -1.
         -1   -1    0    0    0  501 -0.00000000000E+00 -0.00000000000E+00 -0.14205309030E+03  0.14205309030E+03  0.00000000000E+00 0.  1.
         25    2    1    2    0    0 -0.57575369907E+02 -0.15689933593E+03 -0.68944032194E+01  0.20887139164E+03  0.12508957037E+03 0.  0.
          5    1    3    3  502    0 -0.60250227543E+02 -0.68952448492E+02 -0.56599179643E+02  0.10772868517E+03  0.41800000000E+01 0.  1.
         -5    1    3    3    0  502  0.26748576366E+01 -0.87946887434E+02  0.49704776424E+02  0.10114270647E+03  0.41800000000E+01 0.  1.
        -11    1    1    2    0    0  0.53298026525E+02  0.13381395353E+03  0.12482511661E+03  0.19059948460E+03  0.00000000000E+00 0.  1.
         11    1    1    2    0    0  0.42773433820E+01  0.23085382393E+02  0.10612672030E+03  0.10869273807E+03  0.00000000000E+00 0. -1.
</event>
<event>
 7    1  0.2440960E-009  0.4110315E+03  0.7561462E-02  0.1040025E+00
         -1   -1    0    0    0  501 -0.00000000000E+00  0.00000000000E+00  0.33572409403E+03  0.33572409403E+03  0.00000000000E+00 0.  1.
          1   -1    0    0  501    0  0.00000000000E+00 -0.00000000000E+00 -0.51520706680E+03  0.51520706680E+03  0.00000000000E+00 0. -1.
         25    2    1    2    0    0 -0.59235237898E+02  0.39593039902E+03 -0.11704284029E+03  0.43544941936E+03  0.12508987204E+03 0.  0.
          5    1    3    3  502    0 -0.10303409969E+02  0.32766135999E+03 -0.58619040817E+02  0.33304923274E+03  0.41800000000E+01 0. -1.
         -5    1    3    3    0  502 -0.48931827929E+02  0.68269039029E+02 -0.58423799474E+02  0.10240018662E+03  0.41800000000E+01 0. -1.
        -11    1    1    2    0    0  0.73647965483E+02 -0.19144506368E+03 -0.19566022249E+02  0.20605354754E+03  0.00000000000E+00 0.  1.
         11    1    1    2    0    0 -0.14412727586E+02 -0.20448533533E+03 -0.42874110223E+02  0.20942819393E+03  0.00000000000E+00 0. -1.
</event>
<event>
 7    1  0.2440960E-009  0.2109174E+03  0.7561462E-02  0.1140842E+00
          1   -1    0    0  501    0  0.00000000000E+00  0.00000000000E+00  0.17796060261E+03  0.17796060261E+03  0.00000000000E+00 0. -1.
         -1   -1    0    0    0  501 -0.00000000000E+00 -0.00000000000E+00 -0.30252986790E+03  0.30252986790E+03  0.00000000000E+00 0.  1.
         25    2    1    2    0    0 -0.20099508792E+03  0.12364943752E+02 -0.25631138358E+02  0.23844571514E+03  0.12508991412E+03 0.  0.
          5    1    3    3  502    0 -0.10101692377E+03  0.17601191291E+02  0.48788105831E+02  0.11363086065E+03  0.41800000000E+01 0.  1.
         -5    1    3    3    0  502 -0.99978164153E+02 -0.52362475392E+01 -0.74419244189E+02  0.12481485449E+03  0.41800000000E+01 0.  1.
        -11    1    1    2    0    0  0.14562579486E+03 -0.47801176533E+02 -0.54392469736E+02  0.16263568295E+03  0.00000000000E+00 0. -1.
         11    1    1    2    0    0  0.55369293064E+02  0.35436232782E+02 -0.44545657196E+02  0.79409072423E+02  0.00000000000E+00 0.  1.
</event>
<event>
 7    1  0.2440960E-009  0.1947497E+03  0.7561462E-02  0.1154246E+00
          1   -1    0    0  501    0  0.00000000000E+00  0.00000000000E+00  0.29783759536E+03  0.29783759536E+03  0.00000000000E+00 0. -1.
         -1   -1    0    0    0  501 -0.00000000000E+00 -0.00000000000E+00 -0.15173562913E+03  0.15173562913E+03  0.00000000000E+00 0.  1.
         25    2    1    2    0    0 -0.15984577495E+03  0.60271041513E+02  0.82647892010E+01  0.21189403279E+03  0.12508998433E+03 0.  0.
          5    1    3    3  502    0 -0.11364336934E+03  0.86492609705E+02  0.41882530589E+02  0.14888722476E+03  0.41800000000E+01 0. -1.
         -5    1    3    3    0  502 -0.46202405607E+02 -0.26221568192E+02 -0.33617741388E+02  0.63006808031E+02  0.41800000000E+01 0. -1.
        -11    1    1    2    0    0  0.12897977654E+03 -0.38661970442E+01  0.85759721653E+02  0.15493695522E+03  0.00000000000E+00 0. -1.
         11    1    1    2    0    0  0.30865998413E+02 -0.56404844469E+02  0.52077455377E+02  0.82742236471E+02  0.00000000000E+00 0.  1.
</event>
<event>
 7    1  0.2440960E-009  0.1102935E+03  0.7561462E-02  0.1260027E+00
         -2   -1    0    0    0  501 -0.00000000000E+00  0.00000000000E+00  0.14856965229E+02  0.14856965229E+02  0.00000000000E+00 0.  1.
          2   -1    0    0  501    0  0.00000000000E+00 -0.00000000000E+00 -0.90255900990E+03  0.90255900990E+03  0.00000000000E+00 0. -1.
         25    2    1    2    0    0  0.24138429739E+02 -0.21131294374E+02 -0.61498510365E+03  0.62839743888E+03  0.12508984006E+03 0.  0.
          5    1    3    3  502    0 -0.49983096418E+02 -0.20263969758E+02 -0.29425143280E+03  0.29918274767E+03  0.41800000000E+01 0.  1.
         -5    1    3    3    0  502  0.74121526157E+02 -0.86732461613E+00 -0.32073367085E+03  0.32921469121E+03  0.41800000000E+01 0.  1.
        -11    1    1    2    0    0  0.30301462684E+01 -0.32227189371E+02 -0.13538637528E+03  0.13920217000E+03  0.00000000000E+00 0. -1.
         11    1    1    2    0    0 -0.27168576007E+02  0.53358483744E+02 -0.13733056574E+03  0.14981636625E+03  0.00000000000E+00 0.  1.
</event>
<event>
 7    1  0.2440960E-009  0.1146222E+03  0.7561462E-02  0.1252242E+00
         -2   -1    0    0    0  501 -0.00000000000E+00  0.00000000000E+00  0.67228847094E+02  0.67228847094E+02  0.00000000000E+00 0.  1.
          2   -1    0    0  501    0  0.00000000000E+00 -0.00000000000E+00 -0.27561240216E+03  0.27561240216E+03  0.00000000000E+00 0. -1.
         25    2    1    2    0    0  0.85977121003E+01 -0.39454075831E+02 -0.20428121902E+03  0.24291802566E+03  0.12509119072E+03 0.  0.
          5    1    3    3  502    0 -0.10791364499E+02  0.43042128095E+02 -0.91564319921E+02  0.10183602222E+03  0.41800000000E+01 0. -1.
         -5    1    3    3    0  502  0.19389076599E+02 -0.82496203927E+02 -0.11271689910E+03  0.14108200345E+03  0.41800000000E+01 0. -1.
        -11    1    1    2    0    0 -0.11966376646E+02  0.69029931866E+02 -0.21569178351E+01  0.70092638401E+02  0.00000000000E+00 0.  1.
         11    1    1    2    0    0  0.33686645461E+01 -0.29575856034E+02 -0.19454182152E+01  0.29830585194E+02  0.00000000000E+00 0. -1.
</event>
<event>
 7    1  0.2440960E-009  0.9562512E+02  0.7561462E-02  0.1289774E+00
         -1   -1    0    0    0  501 -0.00000000000E+00  0.00000000000E+00  0.31795442967E+02  0.31795442967E+02  0.00000000000E+00 0. -1.
          1   -1    0    0  501    0  0.00000000000E+00 -0.00000000000E+00 -0.38773102355E+03  0.38773102355E+03  0.00000000000E+00 0.  1.
         25    2    1    2    0    0  0.12357030740E+02  0.11543981261E+02 -0.17210266785E+03  0.21343205057E+03  0.12509177517E+03 0.  0.
          5    1    3    3  502    0  0.55003633464E+02  0.43640518005E+02 -0.11761771163E+03  0.13704485760E+03  0.41800000000E+01 0.  1.
         -5    1    3    3    0  502 -0.42646602724E+02 -0.32096536744E+02 -0.54484956223E+02  0.76387192968E+02  0.41800000000E+01 0.  1.
        -11    1    1    2    0    0 -0.32987218938E+02  0.12871637681E+02 -0.23248235534E+02  0.42359368802E+02  0.00000000000E+00 0. -1.
         11    1    1    2    0    0  0.20630188198E+02 -0.24415618942E+02 -0.16058467720E+03  0.16373504714E+03  0.00000000000E+00 0.  1.
</event>
<event>
 7    1  0.2440960E-009  0.9356026E+02  0.7561462E-02  0.1294452E+00
         -2   -1    0    0    0  501 -0.00000000000E+00  0.00000000000E+00  0.66551754105E+03  0.66551754105E+03  0.00000000000E+00 0.  1.
          2   -1    0    0  501    0  0.00000000000E+00 -0.00000000000E+00 -0.37815906979E+02  0.37815906979E+02  0.00000000000E+00 0. -1.
         25    2    1    2    0    0 -0.40421387222E+02 -0.44160549796E+02  0.55523058043E+03  0.57228863303E+03  0.12509691981E+03 0.  0.
          5    1    3    3  502    0  0.60993373859E+01  0.12767772655E+02  0.40212035965E+03  0.40239094669E+03  0.41800000000E+01 0.  1.
         -5    1    3    3    0  502 -0.46520724608E+02 -0.56928322450E+02  0.15311022079E+03  0.16989768634E+03  0.41800000000E+01 0.  1.
        -11    1    1    2    0    0 -0.40118691195E+01  0.53228564259E+02  0.66546859486E+02  0.85310372490E+02  0.00000000000E+00 0.  1.
         11    1    1    2    0    0  0.44433256341E+02 -0.90680144638E+01  0.59241941555E+01  0.45734442511E+02  0.00000000000E+00 0. -1.
</event>
<event>
 7    1  0.2440960E-009  0.1316054E+03  0.7561462E-02  0.1225093E+00
         -1   -1    0    0    0  501 -0.00000000000E+00  0.00000000000E+00  0.18191928464E+03  0.18191928464E+03  0.00000000000E+00 0.  1.
          1   -1    0    0  501    0  0.00000000000E+00 -0.00000000000E+00 -0.10292438333E+03  0.10292438333E+03  0.00000000000E+00 0. -1.
         25    2    1    2    0    0 -0.75541200638E+02 -0.29454648154E+02  0.42639798783E+02  0.15505081215E+03  0.12509417499E+03 0.  0.
          5    1    3    3  502    0  0.13110407406E+02 -0.49392254570E+02 -0.64674803509E+01  0.51679573295E+02  0.41800000000E+01 0.  1.
         -5    1    3    3    0  502 -0.88651608044E+02  0.19937606416E+02  0.49107279134E+02  0.10337123885E+03  0.41800000000E+01 0.  1.
        -11    1    1    2    0    0 -0.20084277850E+02 -0.22998380410E+01 -0.50829259404E+01  0.20844750128E+02  0.00000000000E+00 0. -1.
         11    1    1    2    0    0  0.95625478488E+02  0.31754486195E+02  0.41438028470E+02  0.10894810569E+03  0.00000000000E+00 0.  1.
</event>
<event>
 7    1  0.2440960E-009  0.2579185E+03  0.7561462E-02  0.1108400E+00
         -3   -1    0    0    0  501 -0.00000000000E+00  0.00000000000E+00  0.95617836261E+02  0.95617836261E+02  0.00000000000E+00 0.  1.
          3   -1    0    0  501    0  0.00000000000E+00 -0.00000000000E+00 -0.10777122910E+04  0.10777122910E+04  0.00000000000E+00 0. -1.
         25    2    1    2    0    0 -0.72531662765E+02 -0.23650750818E+03 -0.82243867804E+03  0.86789958087E+03  0.12509060639E+03 0.  0.
          5    1    3    3  502    0 -0.50609548604E+02 -0.40792058135E+02 -0.10206179665E+03  0.12107601394E+03  0.41800000000E+01 0. -1.
         -5    1    3    3    0  502 -0.21922114161E+02 -0.19571545005E+03 -0.72037688139E+03  0.74682356693E+03  0.41800000000E+01 0. -1.
        -11    1    1    2    0    0  0.49087763950E+02  0.69591243882E+02 -0.87435724814E+02  0.12205554378E+03  0.00000000000E+00 0.  1.
         11    1    1    2    0    0  0.23443898815E+02  0.16691626430E+03 -0.72220051854E+02  0.18337500258E+03  0.00000000000E+00 0. -1.
</event>
<event>
 7    1  0.2440960E-009  0.1261311E+03  0.7561462E-02  0.1233312E+00
         -2   -1    0    0    0  501 -0.00000000000E+00  0.00000000000E+00  0.12121161740E+03  0.12121161740E+03  0.00000000000E+00 0. -1.
          2   -1    0    0  501    0  0.00000000000E+00 -0.00000000000E+00 -0.14880875873E+03  0.14880875873E+03  0.00000000000E+00 0.  1.
         25    2    1    2    0    0  0.36292570165E+02 -0.68859712941E+02 -0.32915440646E+02  0.15096492928E+03  0.12509265735E+03 0.  0.
          5    1    3    3  502    0 -0.35144131300E+02  0.13577649469E+02 -0.12456788284E+02  0.39901209308E+02  0.41800000000E+01 0. -1.
         -5    1    3    3    0  502  0.71436701465E+02 -0.82437362410E+02 -0.20458652361E+02  0.11106371997E+03  0.41800000000E+01 0. -1.
        -11    1    1    2    0    0 -0.19433151304E+02 -0.11836088631E+02 -0.22549210166E+02  0.32034469604E+02  0.00000000000E+00 0.  1.
         11    1    1    2    0    0 -0.16859418861E+02  0.80695801572E+02  0.27867509485E+02  0.87020977244E+02  0.00000000000E+00 0. -1.
</event>
<event>
 7    1  0.2440960E-009  0.1201249E+03  0.7561462E-02  0.1242891E+00
          2   -1    0    0  501    0  0.00000000000E+00  0.00000000000E+00  0.24991409245E+03  0.24991409245E+03  0.00000000000E+00 0. -1.
         -2   -1    0    0    0  501 -0.00000000000E+00 -0.00000000000E+00 -0.12818742446E+03  0.12818742446E+03  0.00000000000E+00 0.  1.
         25    2    1    2    0    0  0.95724246818E+01 -0.87426897377E+02  0.18600172492E+03  0.24078915050E+03  0.12509068560E+03 0.  0.
          5    1    3    3  502    0 -0.21658039636E+02  0.50646955346E+01 -0.76440730816E+01  0.23887780872E+02  0.41800000000E+01 0. -1.
         -5    1    3    3    0  502  0.31230464318E+02 -0.92491592912E+02  0.19364579800E+03  0.21690136962E+03  0.41800000000E+01 0. -1.
        -11    1    1    2    0    0 -0.26980466003E+02  0.96552753129E+02 -0.45366350193E+02  0.11003856330E+03  0.00000000000E+00 0. -1.
         11    1    1    2    0    0  0.17408041321E+02 -0.91258557513E+01 -0.18908706736E+02  0.27273803113E+02  0.00000000000E+00 0.  1.
</event>
<event>
 7    1  0.2440960E-009  0.2576724E+03  0.7561462E-02  0.1108550E+00
         -2   -1    0    0    0  501 -0.00000000000E+00  0.00000000000E+00  0.30527441316E+02  0.30527441316E+02  0.00000000000E+00 0. -1.
          2   -1    0    0  501    0  0.00000000000E+00 -0.00000000000E+00 -0.26171201277E+04  0.26171201277E+04  0.00000000000E+00 0.  1.
         25    2    1    2    0    0 -0.20174009193E+03 -0.14732650411E+03 -0.16801350630E+04  0.17032046230E+04  0.12509194401E+03 0.  0.
          5    1    3    3  502    0 -0.13600258668E+02 -0.14142079329E+02 -0.24828490470E+02  0.31920084314E+02  0.41800000000E+01 0.  1.
         -5    1    3    3    0  502 -0.18813983326E+03 -0.13318442478E+03 -0.16553065725E+04  0.16712845387E+04  0.41800000000E+01 0.  1.
        -11    1    1    2    0    0 -0.37007237520E+01  0.25756068703E+02 -0.74410854434E+02  0.78829218498E+02  0.00000000000E+00 0. -1.
         11    1    1    2    0    0  0.20544081568E+03  0.12157043540E+03 -0.83204676896E+03  0.86561372751E+03  0.00000000000E+00 0.  1.
</event>
<event>
 7    1  0.2440960E-009  0.1223342E+03  0.7561462E-02  0.1239295E+00
          1   -1    0    0  501    0  0.00000000000E+00  0.00000000000E+00  0.37631667975E+03  0.37631667975E+03  0.00000000000E+00 0. -1.
         -1   -1    0    0    0  501 -0.00000000000E+00 -0.00000000000E+00 -0.49836233913E+02  0.49836233913E+02  0.00000000000E+00 0.  1.
         25    2    1    2    0    0  0.30514069960E+02  0.64763752345E+02  0.17492397428E+03  0.22665559898E+03  0.12509561018E+03 0.  0.
          5    1    3    3  502    0 -0.47120887879E+02  0.32562032063E+02  0.92394259292E+02  0.10878803039E+03  0.41800000000E+01 0.  1.
         -5    1    3    3    0  502  0.77634957838E+02  0.32201720282E+02  0.82529714988E+02  0.11786756858E+03  0.41800000000E+01 0.  1.
        -11    1    1    2    0    0 -0.50689388159E+02 -0.20944551398E+02  0.18365477513E+02  0.57839251979E+02  0.00000000000E+00 0. -1.
         11    1    1    2    0    0  0.20175318199E+02 -0.43819200947E+02  0.13319099404E+03  0.14165806271E+03  0.00000000000E+00 0.  1.
</event>
<event>
 7    1  0.2440960E-009  0.1165168E+03  0.7561462E-02  0.1248956E+00
          2   -1    0    0  501    0  0.00000000000E+00  0.00000000000E+00  0.12691154365E+03  0.12691154365E+03  0.00000000000E+00 0. -1.
         -2   -1    0    0    0  501 -0.00000000000E+00 -0.00000000000E+00 -0.12729622592E+03  0.12729622592E+03  0.00000000000E+00 0.  1.
         25    2    1    2    0    0  0.60597493328E+02 -0.36021788600E+01  0.25455325281E+02  0.14135212843E+03  0.12508964280E+03 0.  0.
          5    1    3    3  502    0  0.36290116360E+02  0.51634303414E+02  0.45175283512E+02  0.77726137656E+02  0.41800000000E+01 0. -1.
         -5    1    3    3    0  502  0.24307376968E+02 -0.55236482274E+02 -0.19719958231E+02  0.63625990772E+02  0.41800000000E+01 0. -1.
        -11    1    1    2    0    0 -0.49919697812E+02  0.44590289167E+02 -0.21374509143E+02  0.70264783205E+02  0.00000000000E+00 0.  1.
         11    1    1    2    0    0 -0.10677795516E+02 -0.40988110307E+02 -0.44654984097E+01  0.42590857936E+02  0.00000000000E+00 0. -1.
</event>
<event>
 7    1  0.2767427E-009  0.8314393E+02  0.7561462E-02  0.1320359E+00
          4   -1    0    0  501    0  0.00000000000E+00  0.00000000000E+00  0.12110010130E+03  0.12110010130E+03  0.00000000000E+00 0. -1.
         -4   -1    0    0    0  501 -0.00000000000E+00 -0.00000000000E+00 -0.19045812088E+03  0.19045812088E+03  0.00000000000E+00 0.  1.
         25    2    1    2    0    0  0.71857103532E+02  0.28347731125E+02  0.36522085885E+02  0.15149743817E+03  0.12510225348E+03 0.  0.
          5    1    3    3  502    0  0.58126397944E+02  0.33102945899E+02 -0.36917822166E+02  0.76517195182E+02  0.41800000000E+01 0. -1.
         -5    1    3    3    0  502  0.13730705589E+02 -0.47552147736E+01  0.73439908051E+02  0.74980242985E+02  0.41800000000E+01 0. -1.
        -11    1    1    2    0    0 -0.31716801307E+02  0.48126680614E+01 -0.10303911387E+03  0.10791745107E+03  0.00000000000E+00 0.  1.
         11    1    1    2    0    0 -0.40140302226E+02 -0.33160399187E+02 -0.28409915990E+01  0.52143332941E+02  0.00000000000E+00 0. -1.
</event>
<event>
 7    1  0.2440960E-009  0.1119598E+03  0.7561462E-02  0.1256983E+00
          2   -1    0    0  501    0  0.00000000000E+00  0.00000000000E+00  0.77701475619E+02  0.77701475619E+02  0.00000000000E+00 0. -1.
         -2   -1    0    0    0  501 -0.00000000000E+00 -0.00000000000E+00 -0.20106456181E+03  0.20106456181E+03  0.00000000000E+00 0.  1.
         25    2    1    2    0    0  0.18128594738E+02 -0.45723259574E+02 -0.10739526059E+03  0.17205051073E+03  0.12509346039E+03 0.  0.
          5    1    3    3  502    0  0.62961091577E+02 -0.17849129778E+02 -0.98530463476E+02  0.11835715069E+03  0.41800000000E+01 0.  1.
         -5    1    3    3    0  502 -0.44832496839E+02 -0.27874129797E+02 -0.88647971108E+01  0.53693360042E+02  0.41800000000E+01 0.  1.
        -11    1    1    2    0    0 -0.41727988771E+02 -0.11672174455E+02 -0.39965958059E+01  0.43513647071E+02  0.00000000000E+00 0. -1.
         11    1    1    2    0    0  0.23599394033E+02  0.57395434030E+02 -0.11971229803E+02  0.63201879633E+02  0.00000000000E+00 0.  1.
</event>
<event>
 7    1  0.2440960E-009  0.1020178E+03  0.7561462E-02  0.1276109E+00
         -4   -1    0    0    0  501 -0.00000000000E+00  0.00000000000E+00  0.26248835775E+02  0.26248835775E+02  0.00000000000E+00 0.  1.
          4   -1    0    0  501    0  0.00000000000E+00 -0.00000000000E+00 -0.48147425047E+03  0.48147425047E+03  0.00000000000E+00 0. -1.
         25    2    1    2    0    0 -0.22722015440E+01 -0.65210189435E+01 -0.32097354562E+03  0.34455709302E+03  0.12509151361E+03 0.  0.
          5    1    3    3  502    0  0.38950456365E+02 -0.51018187661E+02 -0.17363083319E+03  0.18516244802E+03  0.41800000000E+01 0.  1.
         -5    1    3    3    0  502 -0.41222657909E+02  0.44497168717E+02 -0.14734271244E+03  0.15939464501E+03  0.41800000000E+01 0.  1.
        -11    1    1    2    0    0 -0.35571103968E+02  0.17311251713E+02 -0.24402445900E+02  0.46480772791E+02  0.00000000000E+00 0.  1.
         11    1    1    2    0    0  0.37843305512E+02 -0.10790232769E+02 -0.10984942318E+03  0.11668522043E+03  0.00000000000E+00 0. -1.
</event>
<event>
 7    1  0.2440960E-009  0.1994313E+03  0.7561462E-02  0.1150220E+00
         -1   -1    0    0    0  501 -0.00000000000E+00  0.00000000000E+00  0.48386829849E+02  0.48386829849E+02  0.00000000000E+00 0.  1.
          1   -1    0    0  501    0  0.00000000000E+00 -0.00000000000E+00 -0.10025719739E+04  0.10025719739E+04  0.00000000000E+00 0. -1.
         25    2    1    2    0    0 -0.63896238113E+02 -0.15927404711E+03 -0.69782054805E+03  0.72941885060E+03  0.12508953195E+03 0.  0.
          5    1    3    3  502    0  0.32980685098E+02 -0.15610719847E+02 -0.16800680795E+03  0.17197435879E+03  0.41800000000E+01 0.  1.
         -5    1    3    3    0  502 -0.96876923212E+02 -0.14366332727E+03 -0.52981374009E+03  0.55744449181E+03  0.41800000000E+01 0.  1.
        -11    1    1    2    0    0 -0.16241939608E+02  0.91673209891E+01 -0.75843174440E+01  0.20133609896E+02  0.00000000000E+00 0.  1.
         11    1    1    2    0    0  0.80138177722E+02  0.15010672612E+03 -0.24878027858E+03  0.30140634328E+03  0.00000000000E+00 0. -1.
</event>
<event>
 7    1  0.2440960E-009  0.2533358E+03  0.7561462E-02  0.1111215E+00
         -1   -1    0    0    0  501 -0.00000000000E+00  0.00000000000E+00  0.15976477918E+03  0.15976477918E+03  0.00000000000E+00 0.  1.
          1   -1    0    0  501    0  0.00000000000E+00 -0.00000000000E+00 -0.47270264606E+03  0.47270264606E+03  0.00000000000E+00 0. -1.
         25    2    1    2    0    0 -0.20709607477E+02  0.25142862132E+03 -0.18780004979E+03  0.33847174457E+03  0.12509605791E+03 0.  0.
          5    1    3    3  502    0 -0.12348385260E+02  0.19866842004E+03 -0.73488735240E+02  0.21222556478E+03  0.41800000000E+01 0. -1.
         -5    1    3    3    0  502 -0.83612222166E+01  0.52760201288E+02 -0.11431131455E+03  0.12624617979E+03  0.41800000000E+01 0. -1.
        -11    1    1    2    0    0  0.19038730752E+02 -0.69578165198E+02 -0.77760802727E+02  0.10606760477E+03  0.00000000000E+00 0. -1.
         11    1    1    2    0    0  0.16708767251E+01 -0.18185045613E+03 -0.47377014365E+02  0.18792807590E+03  0.00000000000E+00 0.  1.
</event>
<event>
 7    1  0.2440960E-009  0.1118989E+03  0.7561462E-02  0.1257093E+00
          3   -1    0    0  501    0  0.00000000000E+00  0.00000000000E+00  0.99494993690E+02  0.99494993690E+02  0.00000000000E+00 0. -1.
         -3   -1    0    0    0  501 -0.00000000000E+00 -0.00000000000E+00 -0.16498687640E+03  0.16498687640E+03  0.00000000000E+00 0.  1.
         25    2    1    2    0    0  0.53389146443E+02  0.23186085699E+02 -0.18495314254E+00  0.13796918065E+03  0.12508982802E+03 0.  0.
          5    1    3    3  502    0  0.10894025948E+02 -0.51010052388E+02 -0.15894597206E+01  0.52351733765E+02  0.41800000000E+01 0.  1.
         -5    1    3    3    0  502  0.42495120495E+02  0.74196138086E+02  0.14045065781E+01  0.85617446888E+02  0.41800000000E+01 0.  1.
        -11    1    1    2    0    0 -0.67376434354E+02 -0.13146746794E+02 -0.10976038821E+02  0.69519021035E+02  0.00000000000E+00 0. -1.
         11    1    1    2    0    0  0.13987287911E+02 -0.10039338905E+02 -0.54330890749E+02  0.56993668406E+02  0.00000000000E+00 0.  1.
</event>
<event>
 7    1  0.2440960E-009  0.4404707E+03  0.7561462E-02  0.1030602E+00
          2   -1    0    0  501    0  0.00000000000E+00  0.00000000000E+00  0.63317689676E+03  0.63317689676E+03  0.00000000000E+00 0.  1.
         -2   -1    0    0    0  501 -0.00000000000E+00 -0.00000000000E+00 -0.32106733407E+03  0.32106733407E+03  0.00000000000E+00 0. -1.
         25    2    1    2    0    0  0.33877336133E+03 -0.27129871843E+03  0.97707965475E+02  0.46213029828E+03  0.12508869294E+03 0.  0.
          5    1    3    3  502    0  0.18089695776E+03 -0.10732819409E+03 -0.92763266799E+01  0.21058626073E+03  0.41800000000E+01 0. -1.
         -5    1    3    3    0  502  0.15787640357E+03 -0.16397052434E+03  0.10698429216E+03  0.25154403755E+03  0.41800000000E+01 0. -1.
        -11    1    1    2    0    0 -0.78230843675E+02  0.19625961872E+02  0.42013185397E+02  0.90941470346E+02  0.00000000000E+00 0.  1.
         11    1    1    2    0    0 -0.26054251766E+03  0.25167275656E+03  0.17238841182E+03  0.40117246220E+03  0.00000000000E+00 0. -1.
</event>
<event>
 7    1  0.2440960E-009  0.9627088E+02  0.7561462E-02  0.1288339E+00
          1   -1    0    0  501    0  0.00000000000E+00  0.00000000000E+00  0.56371458988E+02  0.56371458988E+02  0.00000000000E+00 0. -1.
         -1   -1    0    0    0  501 -0.00000000000E+00 -0.00000000000E+00 -0.24494153635E+03  0.24494153635E+03  0.00000000000E+00 0.  1.
         25    2    1    2    0    0  0.35339767885E+02 -0.29085226593E+02 -0.89327215030E+02  0.16037192325E+03  0.12507978582E+03 0.  0.
          5    1    3    3  502    0  0.79498339793E+02 -0.13344932644E+01 -0.43004866615E+02  0.90491203190E+02  0.41800000000E+01 0. -1.
         -5    1    3    3    0  502 -0.44158571909E+02 -0.27750733329E+02 -0.46322348415E+02  0.69880720059E+02  0.41800000000E+01 0. -1.
        -11    1    1    2    0    0 -0.42768752330E+02  0.16213180819E+02 -0.11223741062E+03  0.12119929765E+03  0.00000000000E+00 0.  1.
         11    1    1    2    0    0  0.74289844452E+01  0.12872045774E+02  0.12994548296E+02  0.19741774432E+02  0.00000000000E+00 0. -1.
</event>
<event>
 7    1  0.2440960E-009  0.1536976E+03  0.7561462E-02  0.1196002E+00
          1   -1    0    0  501    0  0.00000000000E+00  0.00000000000E+00  0.96512126549E+03  0.96512126549E+03  0.00000000000E+00 0. -1.
         -1   -1    0    0    0  501 -0.00000000000E+00 -0.00000000000E+00 -0.36677001775E+02  0.36677001775E+02  0.00000000000E+00 0.  1.
         25    2    1    2    0    0 -0.14631694884E+03 -0.40104159553E+02  0.52372551203E+03  0.55942151270E+03  0.12508806415E+03 0.  0.
          5    1    3    3  502    0 -0.24388063372E+02 -0.12086210471E+02  0.31381641745E+03  0.31502233314E+03  0.41800000000E+01 0.  1.
         -5    1    3    3    0  502 -0.12192888546E+03 -0.28017949082E+02  0.20990909459E+03  0.24439917956E+03  0.41800000000E+01 0.  1.
        -11    1    1    2    0    0  0.95658334131E+01  0.11521205433E+02  0.81837507910E+00  0.14997102430E+02  0.00000000000E+00 0.  1.
         11    1    1    2    0    0  0.13675111542E+03  0.28582954120E+02  0.40390037660E+03  0.42737965213E+03  0.00000000000E+00 0. -1.
</event>
<event>
 7    1  0.2440960E-009  0.5853327E+02  0.7561462E-02  0.1404092E+00
          1   -1    0    0  501    0  0.00000000000E+00  0.00000000000E+00  0.17602937511E+03  0.17602937511E+03  0.00000000000E+00 0. -1.
         -1   -1    0    0    0  501 -0.00000000000E+00 -0.00000000000E+00 -0.67772031448E+02  0.67772031448E+02  0.00000000000E+00 0.  1.
         25    2    1    2    0    0  0.14400363849E+02  0.48435022974E+01  0.58637413633E+02  0.13899096020E+03  0.12509720519E+03 0.  0.
          5    1    3    3  502    0  0.66582758936E+01  0.15873913101E+02 -0.37684971228E+02  0.41640643745E+02  0.41800000000E+01 0. -1.
         -5    1    3    3    0  502  0.77420879551E+01 -0.11030410804E+02  0.96322384861E+02  0.97350316454E+02  0.41800000000E+01 0. -1.
        -11    1    1    2    0    0  0.33114140439E+02  0.11410823768E+02  0.11911532154E+01  0.35045285590E+02  0.00000000000E+00 0.  1.
         11    1    1    2    0    0 -0.47514504288E+02 -0.16254326065E+02  0.48428776813E+02  0.69765160769E+02  0.00000000000E+00 0. -1.
</event>
<event>
 7    1  0.2440960E-009  0.1599279E+03  0.7561462E-02  0.1188778E+00
          2   -1    0    0  501    0  0.00000000000E+00  0.00000000000E+00  0.87457855948E+02  0.87457855948E+02  0.00000000000E+00 0. -1.
         -2   -1    0    0    0  501 -0.00000000000E+00 -0.00000000000E+00 -0.34441335598E+03  0.34441335598E+03  0.00000000000E+00 0.  1.
         25    2    1    2    0    0  0.85330746263E+02  0.10467418242E+03 -0.12096872908E+03  0.22026773322E+03  0.12508565130E+03 0.  0.
          5    1    3    3  502    0 -0.28026842105E+02  0.51498507920E+02 -0.37221872323E+02  0.69573992092E+02  0.41800000000E+01 0.  1.
         -5    1    3    3    0  502  0.11335758837E+03  0.53175674497E+02 -0.83746856760E+02  0.15069374113E+03  0.41800000000E+01 0.  1.
        -11    1    1    2    0    0 -0.53513011349E+02 -0.54470792098E+02 -0.16458306437E+02  0.78112645751E+02  0.00000000000E+00 0. -1.
         11    1    1    2    0    0 -0.31817734913E+02 -0.50203390319E+02 -0.11952846451E+03  0.13349083295E+03  0.00000000000E+00 0.  1.
</event>
<event>
 7    1  0.2440960E-009  0.1160956E+03  0.7561462E-02  0.1249681E+00
          2   -1    0    0  501    0  0.00000000000E+00  0.00000000000E+00  0.22821283826E+03  0.22821283826E+03  0.00000000000E+00 0. -1.
         -2   -1    0    0    0  501 -0.00000000000E+00 -0.00000000000E+00 -0.86117351595E+02  0.86117351595E+02  0.00000000000E+00 0.  1.
         25    2    1    2    0    0  0.25879910360E+02  0.45802692380E+02 -0.22202198904E+01  0.13572211918E+03  0.12509159792E+03 0.  0.
          5    1    3    3  502    0 -0.28295844647E+02  0.63923972401E+02  0.22184052529E+02  0.73461103030E+02  0.41800000000E+01 0.  1.
         -5    1    3    3    0  502  0.54175755007E+02 -0.18121280021E+02 -0.24404272419E+02  0.62261016154E+02  0.41800000000E+01 0.  1.
        -11    1    1    2    0    0 -0.48517585136E+02 -0.60755397602E+02  0.10036049547E+03  0.12695433610E+03  0.00000000000E+00 0.  1.
         11    1    1    2    0    0  0.22637674775E+02  0.14952705222E+02  0.43955211083E+02  0.51653734561E+02  0.00000000000E+00 0. -1.
</event>
<event>
 7    1  0.2440960E-009  0.9524062E+02  0.7561462E-02  0.1290635E+00
          1   -1    0    0  501    0  0.00000000000E+00  0.00000000000E+00  0.23699204213E+03  0.23699204213E+03  0.00000000000E+00 0. -1.
         -1   -1    0    0    0  501 -0.00000000000E+00 -0.00000000000E+00 -0.56685459589E+02  0.56685459589E+02  0.00000000000E+00 0.  1.
         25    2    1    2    0    0  0.92408258318E+00  0.33535882555E+02  0.71857586323E+02  0.14811006995E+03  0.12509025046E+03 0.  0.
          5    1    3    3  502    0 -0.25691474279E+02 -0.37570061015E+02  0.34625394526E+01  0.45836916506E+02  0.41800000000E+01 0.  1.
         -5    1    3    3    0  502  0.26615556862E+02  0.71105943571E+02  0.68395046871E+02  0.10227315344E+03  0.41800000000E+01 0.  1.
        -11    1    1    2    0    0 -0.73473526442E+01  0.16619601945E+02 -0.70451245832E+01  0.19489190339E+02  0.00000000000E+00 0.  1.
         11    1    1    2    0    0  0.64232700611E+01 -0.50155484500E+02  0.11549412080E+03  0.12607824144E+03  0.00000000000E+00 0. -1.
</event>
<event>
 7    1  0.2440960E-009  0.1512071E+03  0.7561462E-02  0.1198998E+00
          1   -1    0    0  501    0  0.00000000000E+00  0.00000000000E+00  0.38961503208E+03  0.38961503208E+03  0.00000000000E+00 0. -1.
         -1   -1    0    0    0  501 -0.00000000000E+00 -0.00000000000E+00 -0.70065277054E+02  0.70065277054E+02  0.00000000000E+00 0.  1.
         25    2    1    2    0    0 -0.12560507986E+03  0.42008211759E+01  0.18938407771E+03  0.25943897985E+03  0.12509185582E+03 0.  0.
          5    1    3    3  502    0 -0.84894063479E+01 -0.40438900664E+02  0.13988312452E+02  0.43823737772E+02  0.41800000000E+01 0. -1.
         -5    1    3    3    0  502 -0.11711567351E+03  0.44639721839E+02  0.17539576525E+03  0.21561524208E+03  0.41800000000E+01 0. -1.
        -11    1    1    2    0    0  0.97039935720E+02 -0.24922124072E+02  0.48569954888E+02  0.11134137556E+03  0.00000000000E+00 0.  1.
         11    1    1    2    0    0  0.28565144140E+02  0.20721302896E+02  0.81595722434E+02  0.88899953728E+02  0.00000000000E+00 0. -1.
</event>
<event>
 7    1  0.2440960E-009  0.7179424E+02  0.7561462E-02  0.1354096E+00
          1   -1    0    0  501    0  0.00000000000E+00  0.00000000000E+00  0.61629694359E+03  0.61629694359E+03  0.00000000000E+00 0. -1.
         -1   -1    0    0    0  501 -0.00000000000E+00 -0.00000000000E+00 -0.21867996960E+02  0.21867996960E+02  0.00000000000E+00 0.  1.
         25    2    1    2    0    0  0.86581266356E+01  0.14415946138E+02  0.44646047974E+03  0.46395848842E+03  0.12509091236E+03 0.  0.
          5    1    3    3  502    0  0.28380101799E+02  0.29329043831E+02  0.41966709735E+02  0.58688159931E+02  0.41800000000E+01 0. -1.
         -5    1    3    3    0  502 -0.19721975163E+02 -0.14913097693E+02  0.40449377000E+03  0.40527032849E+03  0.41800000000E+01 0. -1.
        -11    1    1    2    0    0 -0.24546182604E+02  0.24971317223E+02  0.22198556042E+02  0.41459108223E+02  0.00000000000E+00 0.  1.
         11    1    1    2    0    0  0.15888055968E+02 -0.39387263361E+02  0.12576991085E+03  0.13274734390E+03  0.00000000000E+00 0. -1.
</event>
<event>
 7    1  0.2440960E-009  0.7864617E+02  0.7561462E-02  0.1332938E+00
          1   -1    0    0  501    0  0.00000000000E+00  0.00000000000E+00  0.44595670813E+03  0.44595670813E+03  0.00000000000E+00 0.  1.
         -1   -1    0    0    0  501 -0.00000000000E+00 -0.00000000000E+00 -0.38803938455E+02  0.38803938455E+02  0.00000000000E+00 0. -1.
         25    2    1    2    0    0  0.36344288090E+02  0.45131929259E+02  0.13064307306E+03  0.18992820235E+03  0.12508921295E+03 0.  0.
          5    1    3    3  502    0  0.10440763350E+01 -0.93318602615E+00 -0.24155979083E+02  0.24554931419E+02  0.41800000000E+01 0. -1.
         -5    1    3    3    0  502  0.35300211755E+02  0.46065115285E+02  0.15479905214E+03  0.16537327093E+03  0.41800000000E+01 0. -1.
        -11    1    1    2    0    0  0.22040985396E+02 -0.24053257306E+02  0.15487849897E+03  0.15827733151E+03  0.00000000000E+00 0.  1.
         11    1    1    2    0    0 -0.58385273486E+02 -0.21078671953E+02  0.12163119764E+03  0.13655511272E+03  0.00000000000E+00 0. -1.
</event>
<event>
 7    1  0.2440960E-009  0.8946562E+02  0.7561462E-02  0.1304151E+00
         -2   -1    0    0    0  501 -0.00000000000E+00  0.00000000000E+00  0.41850851882E+02  0.41850851882E+02  0.00000000000E+00 0.  1.
          2   -1    0    0  501    0  0.00000000000E+00 -0.00000000000E+00 -0.53312507807E+03  0.53312507807E+03  0.00000000000E+00 0. -1.
         25    2    1    2    0    0 -0.13342715661E+02  0.58753937926E+02 -0.42188474101E+03  0.44414435418E+03  0.12508964534E+03 0.  0.
          5    1    3    3  502    0  0.28248988781E+02  0.16993952674E+02 -0.21852359418E+02  0.39771821768E+02  0.41800000000E+01 0. -1.
         -5    1    3    3    0  502 -0.41591704443E+02  0.41759985252E+02 -0.40003238160E+03  0.40437253241E+03  0.41800000000E+01 0. -1.
        -11    1    1    2    0    0  0.23343929421E+02  0.34620358797E+01  0.13127903351E+02  0.27004936208E+02  0.00000000000E+00 0.  1.
         11    1    1    2    0    0 -0.10001213759E+02 -0.62215973806E+02 -0.82517388530E+02  0.10382663956E+03  0.00000000000E+00 0. -1.
</event>
<event>
 7    1  0.2440960E-009  0.7223372E+02  0.7561462E-02  0.1352658E+00
         -1   -1    0    0    0  501 -0.00000000000E+00  0.00000000000E+00  0.98419558177E+02  0.98419558177E+02  0.00000000000E+00 0.  1.
          1   -1    0    0  501    0  0.00000000000E+00 -0.00000000000E+00 -0.13846409797E+03  0.13846409797E+03  0.00000000000E+00 0. -1.
         25    2    1    2    0    0  0.29223452980E+02 -0.31107048447E+02 -0.19089640201E+02  0.13354446108E+03  0.12509216624E+03 0.  0.
          5    1    3    3  502    0  0.35833726272E+02 -0.40698541183E+02  0.43562253193E+02  0.69681916566E+02  0.41800000000E+01 0.  1.
         -5    1    3    3    0  502 -0.66102732924E+01  0.95914927359E+01 -0.62651893394E+02  0.63862544513E+02  0.41800000000E+01 0.  1.
        -11    1    1    2    0    0 -0.49097572453E+02  0.12929297415E+02  0.19794158372E+02  0.54493550610E+02  0.00000000000E+00 0.  1.
         11    1    1    2    0    0  0.19874119473E+02  0.18177751032E+02 -0.40749057960E+02  0.48845644453E+02  0.00000000000E+00 0. -1.
</event>
<event>
 7    1  0.2440960E-009  0.1347542E+03  0.7561462E-02  0.1220567E+00
         -2   -1    0    0    0  501 -0.00000000000E+00  0.00000000000E+00  0.44618555261E+03  0.44618555261E+03  0.00000000000E+00 0.  1.
          2   -1    0    0  501    0  0.00000000000E+00 -0.00000000000E+00 -0.54341956401E+02  0.54341956401E+02  0.00000000000E+00 0. -1.
         25    2    1    2    0    0  0.90475075218E+02 -0.64724087883E+02  0.20358513371E+03  0.26357062812E+03  0.12509045749E+03 0.  0.
          5    1    3    3  502    0  0.90214536530E+02 -0.42953902362E+01  0.17415550323E+03  0.19622620794E+03  0.41800000000E+01 0. -1.
         -5    1    3    3    0  502  0.26053868808E+00 -0.60428697647E+02  0.29429630476E+02  0.67344420182E+02  0.41800000000E+01 0. -1.
        -11    1    1    2    0    0 -0.33100514676E+02  0.48819703643E+02  0.16102138237E+03  0.17148438155E+03  0.00000000000E+00 0.  1.
         11    1    1    2    0    0 -0.57374560542E+02  0.15904384240E+02  0.27237080139E+02  0.65472499341E+02  0.00000000000E+00 0. -1.
</event>
<event>
 7    1  0.2440960E-009  0.1427987E+03  0.7561462E-02  0.1209612E+00
         -2   -1    0    0    0  501 -0.00000000000E+00  0.00000000000E+00  0.28368016834E+02  0.28368016834E+02  0.00000000000E+00 0.  1.
          2   -1    0    0  501    0  0.00000000000E+00 -0.00000000000E+00 -0.11760160682E+04  0.11760160682E+04  0.00000000000E+00 0. -1.
         25    2    1    2    0    0  0.49793507631E+02 -0.12441622801E+03 -0.79958932761E+03  0.82033497744E+03  0.12509033214E+03 0.  0.
          5    1    3    3  502    0  0.87062443684E+00 -0.41615068774E+02 -0.56795492041E+03  0.56949349070E+03  0.41800000000E+01 0.  1.
         -5    1    3    3    0  502  0.48922883194E+02 -0.82801159233E+02 -0.23163440720E+03  0.25084148674E+03  0.41800000000E+01 0.  1.
        -11    1    1    2    0    0 -0.36293642619E+02  0.12839408641E+03 -0.34464020572E+03  0.36956615283E+03  0.00000000000E+00 0. -1.
         11    1    1    2    0    0 -0.13499865012E+02 -0.39778584061E+01 -0.34185180283E+01  0.14482954752E+02  0.00000000000E+00 0.  1.
</event>
<event>
 7    1  0.2440960E-009  0.9523163E+02  0.7561462E-02  0.1290655E+00
         -2   -1    0    0    0  501 -0.00000000000E+00  0.00000000000E+00  0.51669964320E+03  0.51669964320E+03  0.00000000000E+00 0.  1.
          2   -1    0    0  501    0  0.00000000000E+00 -0.00000000000E+00 -0.25335622362E+02  0.25335622362E+02  0.00000000000E+00 0. -1.
         25    2    1    2    0    0 -0.10272767272E+01 -0.30088189238E+02  0.32421571137E+03  0.34881225564E+03  0.12509119775E+03 0.  0.
          5    1    3    3  502    0 -0.42141521181E+02  0.82371962041E+01  0.25920652426E+03  0.26277224706E+03  0.41800000000E+01 0.  1.
         -5    1    3    3    0  502  0.41114244454E+02 -0.38325385443E+02  0.65009187111E+02  0.86040008573E+02  0.41800000000E+01 0.  1.
        -11    1    1    2    0    0 -0.22849235803E+02  0.53094440562E+02  0.13581402443E+03  0.14760269790E+03  0.00000000000E+00 0.  1.
         11    1    1    2    0    0  0.23876512531E+02 -0.23006251324E+02  0.31334285040E+02  0.45620312028E+02  0.00000000000E+00 0. -1.
</event>
<event>
 7    1  0.2440960E-009  0.4072918E+02  0.7561462E-02  0.1502913E+00
         -1   -1    0    0    0  501 -0.00000000000E+00  0.00000000000E+00  0.40647095364E+02  0.40647095364E+02  0.00000000000E+00 0.  1.
          1   -1    0    0  501    0  0.00000000000E+00 -0.00000000000E+00 -0.31531585436E+03  0.31531585436E+03  0.00000000000E+00 0. -1.
         25    2    1    2    0    0 -0.92463496484E+00  0.31911537019E+02 -0.18365983441E+03  0.22449523122E+03  0.12509185793E+03 0.  0.
          5    1    3    3  502    0 -0.49551212760E+01  0.28141727048E+02 -0.20243491894E+03  0.20448442198E+03  0.41800000000E+01 0. -1.
         -5    1    3    3    0  502  0.40304863112E+01  0.37698099704E+01  0.18775084531E+02  0.20010809236E+02  0.41800000000E+01 0. -1.
        -11    1    1    2    0    0  0.14299327755E+02 -0.42277413279E+01  0.14963941798E+02  0.21124964499E+02  0.00000000000E+00 0.  1.
         11    1    1    2    0    0 -0.13374692790E+02 -0.27683795691E+02 -0.10597286639E+03  0.11034275401E+03  0.00000000000E+00 0. -1.
</event>
<event>
 7    1  0.2440960E-009  0.1129211E+03  0.7561462E-02  0.1255254E+00
          1   -1    0    0  501    0  0.00000000000E+00  0.00000000000E+00  0.25043851351E+03  0.25043851351E+03  0.00000000000E+00 0. -1.
         -1   -1    0    0    0  501 -0.00000000000E+00 -0.00000000000E+00 -0.11696135059E+03  0.11696135059E+03  0.00000000000E+00 0.  1.
         25    2    1    2    0    0 -0.37599852494E+02 -0.78503937024E+02  0.17818282267E+03  0.23446359854E+03  0.12508974262E+03 0.  0.
          5    1    3    3  502    0 -0.58546917895E+01 -0.68232257221E+02  0.18197606780E+02  0.70982699539E+02  0.41800000000E+01 0.  1.
         -5    1    3    3    0  502 -0.31745160705E+02 -0.10271679803E+02  0.15998521589E+03  0.16348089900E+03  0.41800000000E+01 0.  1.
        -11    1    1    2    0    0  0.65837048668E+02  0.64177995956E+02 -0.42228860104E+02  0.10117612746E+03  0.00000000000E+00 0.  1.
         11    1    1    2    0    0 -0.28237196173E+02  0.14325941068E+02 -0.24767996478E+01  0.31760138093E+02  0.00000000000E+00 0. -1.
</event>
<event>
 7    1  0.2440960E-009  0.1385365E+03  0.7561462E-02  0.1215312E+00
          1   -1    0    0  501    0  0.00000000000E+00  0.00000000000E+00  0.23505359578E+03  0.23505359578E+03  0.00000000000E+00 0. -1.
         -1   -1    0    0    0  501 -0.00000000000E+00 -0.00000000000E+00 -0.10490457767E+03  0.10490457767E+03  0.00000000000E+00 0.  1.
         25    2    1    2    0    0 -0.16717142934E+02  0.11467354619E+03  0.89998028051E+02  0.19281290624E+03  0.12509071387E+03 0.  0.
          5    1    3    3  502    0 -0.52206901861E+02  0.10955710859E+03  0.33851103769E+02  0.12606224760E+03  0.41800000000E+01 0. -1.
         -5    1    3    3    0  502  0.35489758926E+02  0.51164375979E+01  0.56146924282E+02  0.66750658638E+02  0.41800000000E+01 0. -1.
        -11    1    1    2    0    0  0.18728749005E+02 -0.33794180487E+02  0.52624322557E+02  0.65285005925E+02  0.00000000000E+00 0. -1.
         11    1    1    2    0    0 -0.20116060702E+01 -0.80879365700E+02 -0.12473332496E+02  0.81860261291E+02  0.00000000000E+00 0.  1.
</event>
<event>
 7    1  0.2440960E-009  0.1309885E+03  0.7561462E-02  0.1225996E+00
          1   -1    0    0  501    0  0.00000000000E+00  0.00000000000E+00  0.84468659106E+02  0.84468659106E+02  0.00000000000E+00 0. -1.
         -1   -1    0    0    0  501 -0.00000000000E+00 -0.00000000000E+00 -0.29467579010E+03  0.29467579010E+03  0.00000000000E+00 0.  1.
         25    2    1    2    0    0 -0.76234910201E+02 -0.23895090194E+02 -0.14796859539E+02  0.14916429415E+03  0.12509317619E+03 0.  0.
          5    1    3    3  502    0 -0.65926377061E+02 -0.72433201250E+02 -0.16127808945E+02  0.99350060176E+02  0.41800000000E+01 0.  1.
         -5    1    3    3    0  502 -0.10308533140E+02  0.48538111056E+02  0.13309494061E+01  0.49814233977E+02  0.41800000000E+01 0.  1.
        -11    1    1    2    0    0  0.79850909919E+02 -0.96293475402E+01 -0.97307628437E+02  0.12624447196E+03  0.00000000000E+00 0. -1.
         11    1    1    2    0    0 -0.36159997178E+01  0.33524437734E+02 -0.98102643018E+02  0.10373568309E+03  0.00000000000E+00 0.  1.
</event>
<event>
 7    1  0.2440960E-009  0.1422652E+03  0.7561462E-02  0.1210313E+00
         -2   -1    0    0    0  501 -0.00000000000E+00  0.00000000000E+00  0.27103468289E+03  0.27103468289E+03  0.00000000000E+00 0.  1.
          2   -1    0    0  501    0  0.00000000000E+00 -0.00000000000E+00 -0.96604817542E+02  0.96604817542E+02  0.00000000000E+00 0. -1.
         25    2    1    2    0    0  0.75949909604E+02  0.30068480179E+02  0.45063656033E+01  0.14946409331E+03  0.12508679223E+03 0.  0.
          5    1    3    3  502    0 -0.34139276096E+02  0.58151104719E+01  0.10703023134E+02  0.36487433267E+02  0.41800000000E+01 0. -1.
         -5    1    3    3    0  502  0.11008918570E+03  0.24253369707E+02 -0.61966575305E+01  0.11297666004E+03  0.41800000000E+01 0. -1.
        -11    1    1    2    0    0 -0.35889661542E+02 -0.71007955352E+02  0.98028682456E+02  0.12625300041E+03  0.00000000000E+00 0. -1.
         11    1    1    2    0    0 -0.40060248062E+02  0.40939475172E+02  0.71894817287E+02  0.91922406707E+02  0.00000000000E+00 0.  1.
</event>
<event>
 7    1  0.2440960E-009  0.1467471E+03  0.7561462E-02  0.1204528E+00
         -1   -1    0    0    0  501 -0.00000000000E+00  0.00000000000E+00  0.12285984142E+04  0.12285984142E+04  0.00000000000E+00 0.  1.
          1   -1    0    0  501    0  0.00000000000E+00 -0.00000000000E+00 -0.28502696610E+02  0.28502696610E+02  0.00000000000E+00 0. -1.
         25    2    1    2    0    0  0.83422940300E+02  0.11139127023E+03  0.84078861253E+03  0.86135756251E+03  0.12507580698E+03 0.  0.
          5    1    3    3  502    0  0.21369800785E+02  0.44749655485E+02  0.74048804146E+02  0.89218259606E+02  0.41800000000E+01 0. -1.
         -5    1    3    3    0  502  0.62053139515E+02  0.66641614745E+02  0.76673980838E+03  0.77213930291E+03  0.41800000000E+01 0. -1.
        -11    1    1    2    0    0 -0.62959534096E+01 -0.58999732833E+02  0.69899158677E+02  0.91686966836E+02  0.00000000000E+00 0. -1.
         11    1    1    2    0    0 -0.77126986890E+02 -0.52391537396E+02  0.28940794637E+03  0.30405658144E+03  0.00000000000E+00 0.  1.
</event>
<event>
 7    1  0.2440960E-009  0.1149054E+03  0.7561462E-02  0.1251746E+00
          1   -1    0    0  501    0  0.00000000000E+00  0.00000000000E+00  0.68463352976E+02  0.68463352976E+02  0.00000000000E+00 0. -1.
         -1   -1    0    0    0  501 -0.00000000000E+00 -0.00000000000E+00 -0.27130139658E+03  0.27130139658E+03  0.00000000000E+00 0.  1.
         25    2    1    2    0    0 -0.53326121713E+02  0.56620764613E+02 -0.80242899986E+02  0.16773734581E+03  0.12508919993E+03 0.  0.
          5    1    3    3  502    0 -0.76553146278E+02  0.37581063873E+02 -0.37629804709E+01  0.85465507598E+02  0.41800000000E+01 0. -1.
         -5    1    3    3    0  502  0.23227024566E+02  0.19039700740E+02 -0.76479919515E+02  0.82271838216E+02  0.41800000000E+01 0. -1.
        -11    1    1    2    0    0  0.58697514969E+02 -0.14929770598E+01 -0.90889609577E+02  0.10820604592E+03  0.00000000000E+00 0.  1.
         11    1    1    2    0    0 -0.53713932564E+01 -0.55127787553E+02 -0.31705534044E+02  0.63821357828E+02  0.00000000000E+00 0. -1.
</event>
<event>
 7    1  0.2465686E-009  0.2071681E+03  0.7561462E-02  0.1143828E+00
         -1   -1    0    0    0  501 -0.00000000000E+00  0.00000000000E+00  0.35371804162E+03  0.35371804162E+03  0.00000000000E+00 0.  1.
          1   -1    0    0  501    0  0.00000000000E+00 -0.00000000000E+00 -0.14361370378E+03  0.14361370378E+03  0.00000000000E+00 0. -1.
         25    2    1    2    0    0 -0.82588028958E+01  0.19593062193E+03  0.12868779814E+03  0.26582966896E+03  0.12509135491E+03 0.  0.
          5    1    3    3  502    0 -0.14438338905E+02  0.74762794895E+02 -0.15004795047E+02  0.77721022930E+02  0.41800000000E+01 0.  1.
         -5    1    3    3    0  502  0.61795360091E+01  0.12116782704E+03  0.14369259319E+03  0.18810864603E+03  0.41800000000E+01 0.  1.
        -11    1    1    2    0    0 -0.41511758835E+02 -0.10698523716E+03  0.41100000720E+02  0.12189453290E+03  0.00000000000E+00 0.  1.
         11    1    1    2    0    0  0.49770561731E+02 -0.88945384767E+02  0.40316538982E+02  0.10960754354E+03  0.00000000000E+00 0. -1.
</event>
<event>
 7    1  0.2440960E-009  0.1232385E+03  0.7561462E-02  0.1237848E+00
          2   -1    0    0  501    0  0.00000000000E+00  0.00000000000E+00  0.21061467638E+03  0.21061467638E+03  0.00000000000E+00 0. -1.
         -2   -1    0    0    0  501 -0.00000000000E+00 -0.00000000000E+00 -0.87437388279E+02  0.87437388279E+02  0.00000000000E+00 0.  1.
         25    2    1    2    0    0  0.70708220468E+02  0.32771259728E+02  0.39406578513E+02  0.15255772986E+03  0.12508946640E+03 0.  0.
          5    1    3    3  502    0  0.49613255786E+02  0.70678334846E+02  0.59108431298E+02  0.10472908487E+03  0.41800000000E+01 0.  1.
         -5    1    3    3    0  502  0.21094964682E+02 -0.37907075118E+02 -0.19701852785E+02  0.47828644996E+02  0.41800000000E+01 0.  1.
        -11    1    1    2    0    0 -0.45005930032E+02 -0.62578568146E+02  0.69006817203E+02  0.10345797093E+03  0.00000000000E+00 0.  1.
         11    1    1    2    0    0 -0.25702290436E+02  0.29807308419E+02  0.14763892390E+02  0.42036363869E+02  0.00000000000E+00 0. -1.
</event>
<event>
 7    1  0.2440960E-009  0.1203627E+03  0.7561462E-02  0.1242500E+00
          1   -1    0    0  501    0  0.00000000000E+00  0.00000000000E+00  0.46485891114E+03  0.46485891114E+03  0.00000000000E+00 0. -1.
         -1   -1    0    0    0  501 -0.00000000000E+00 -0.00000000000E+00 -0.72506264716E+02  0.72506264716E+02  0.00000000000E+00 0.  1.
         25    2    1    2    0    0  0.23252869468E+02 -0.49491070153E+02  0.86839917729E+01  0.13679528159E+03  0.12508986925E+03 0.  0.
          5    1    3    3  502    0 -0.22308334369E+02 -0.71510462330E+02  0.31195897079E+02  0.81253088554E+02  0.41800000000E+01 0.  1.
         -5    1    3    3    0  502  0.45561203837E+02  0.22019392177E+02 -0.22511905306E+02  0.55542193038E+02  0.41800000000E+01 0.  1.
        -11    1    1    2    0    0  0.28778446392E+02 -0.14682468340E+02  0.97420822680E+02  0.10263815346E+03  0.00000000000E+00 0.  1.
         11    1    1    2    0    0 -0.52031315860E+02  0.64173538493E+02  0.28624783197E+03  0.29793174081E+03  0.00000000000E+00 0. -1.
</event>
<event>
 7    1  0.2440960E-009  0.9450819E+02  0.7561462E-02  0.1292288E+00
          2   -1    0    0  501    0  0.00000000000E+00  0.00000000000E+00  0.66236853210E+03  0.66236853210E+03  0.00000000000E+00 0. -1.
         -2   -1    0    0    0  501 -0.00000000000E+00 -0.00000000000E+00 -0.20754962123E+02  0.20754962123E+02  0.00000000000E+00 0.  1.
         25    2    1    2    0    0  0.12123721901E+02 -0.27467950882E+02  0.46561102995E+03  0.48305575021E+03  0.12509098147E+03 0.  0.
          5    1    3    3  502    0  0.61019846155E+02 -0.36578694967E+02  0.34915763112E+03  0.35635648769E+03  0.41800000000E+01 0.  1.
         -5    1    3    3    0  502 -0.48896124253E+02  0.91107440844E+01  0.11645339883E+03  0.12669926252E+03  0.41800000000E+01 0.  1.
        -11    1    1    2    0    0 -0.99646727374E+01 -0.18928056285E+02  0.38180265574E+01  0.21728859710E+02  0.00000000000E+00 0.  1.
         11    1    1    2    0    0 -0.21590491640E+01  0.46396007168E+02  0.17218451347E+03  0.17833888430E+03  0.00000000000E+00 0. -1.
</event>
<event>
 7    1  0.2440960E-009  0.1279097E+03  0.7561462E-02  0.1230591E+00
          2   -1    0    0  501    0  0.00000000000E+00  0.00000000000E+00  0.44258691482E+03  0.44258691482E+03  0.00000000000E+00 0. -1.
         -2   -1    0    0    0  501 -0.00000000000E+00 -0.00000000000E+00 -0.55175550969E+02  0.55175550969E+02  0.00000000000E+00 0.  1.
         25    2    1    2    0    0  0.78543880910E+02  0.24974064897E+02  0.32928295354E+03  0.36175018292E+03  0.12507232389E+03 0.  0.
          5    1    3    3  502    0 -0.27585964942E+02 -0.15206187735E+02  0.11409277348E+03  0.11843499047E+03  0.41800000000E+01 0. -1.
         -5    1    3    3    0  502  0.10612984585E+03  0.40180252632E+02  0.21519018006E+03  0.24331519245E+03  0.41800000000E+01 0. -1.
        -11    1    1    2    0    0 -0.72151586055E+02  0.11843537334E+02  0.65218263558E+02  0.97977255771E+02  0.00000000000E+00 0. -1.
         11    1    1    2    0    0 -0.63922948541E+01 -0.36817602231E+02 -0.70898532448E+01  0.38035027101E+02  0.00000000000E+00 0.  1.
</event>
<event>
 7    1  0.2440960E-009  0.1046706E+03  0.7561462E-02  0.1270770E+00
         -1   -1    0    0    0  501 -0.00000000000E+00  0.00000000000E+00  0.14993617707E+02  0.14993617707E+02  0.00000000000E+00 0.  1.
          1   -1    0    0  501    0  0.00000000000E+00 -0.00000000000E+00 -0.92633468598E+03  0.92633468598E+03  0.00000000000E+00 0. -1.
         25    2    1    2    0    0  0.58199531332E+02 -0.25622390551E+01 -0.55193598148E+03  0.56892304594E+03  0.12508538695E+03 0.  0.
          5    1    3    3  502    0  0.60524907019E+02 -0.53352468699E+02 -0.25066022202E+03  0.26335863303E+03  0.41800000000E+01 0. -1.
         -5    1    3    3    0  502 -0.23253756865E+01  0.50790229644E+02 -0.30127575946E+03  0.30556441291E+03  0.41800000000E+01 0. -1.
        -11    1    1    2    0    0 -0.73544039709E+01 -0.20444364554E+02 -0.23938149448E+02  0.32327918256E+02  0.00000000000E+00 0.  1.
         11    1    1    2    0    0 -0.50845127362E+02  0.23006603609E+02 -0.33546693734E+03  0.34007733949E+03  0.00000000000E+00 0. -1.
</event>
<event>
 7    1  0.2440960E-009  0.1038292E+03  0.7561462E-02  0.1272444E+00
          2   -1    0    0  501    0  0.00000000000E+00  0.00000000000E+00  0.10360260428E+04  0.10360260428E+04  0.00000000000E+00 0. -1.
         -2   -1    0    0    0  501 -0.00000000000E+00 -0.00000000000E+00 -0.15284999689E+02  0.15284999689E+02  0.00000000000E+00 0.  1.
         25    2    1    2    0    0 -0.61282803562E+02  0.98178962631E+00  0.65725494812E+03  0.67185392688E+03  0.12508831405E+03 0.  0.
          5    1    3    3  502    0 -0.58988723152E+02 -0.35333906871E+02  0.17293354624E+03  0.18614950510E+03  0.41800000000E+01 0.  1.
         -5    1    3    3    0  502 -0.22940804093E+01  0.36315696498E+02  0.48432140188E+03  0.48570442178E+03  0.41800000000E+01 0.  1.
        -11    1    1    2    0    0  0.81557286950E+02 -0.39450959413E+01  0.33198159633E+03  0.34187561354E+03  0.00000000000E+00 0.  1.
         11    1    1    2    0    0 -0.20274483389E+02  0.29633063150E+01  0.31504498637E+02  0.37581502037E+02  0.00000000000E+00 0. -1.
</event>
<event>
 7    1  0.2440960E-009  0.1000479E+03  0.7561462E-02  0.1280195E+00
          2   -1    0    0  501    0  0.00000000000E+00  0.00000000000E+00  0.45455495648E+03  0.45455495648E+03  0.00000000000E+00 0. -1.
         -2   -1    0    0    0  501 -0.00000000000E+00 -0.00000000000E+00 -0.25609342486E+02  0.25609342486E+02  0.00000000000E+00 0.  1.
         25    2    1    2    0    0 -0.23509805916E+02  0.73051322264E+01  0.29753750371E+03  0.32370174927E+03  0.12509268739E+03 0.  0.
          5    1    3    3  502    0  0.42508463859E+02  0.35232730361E+02  0.14097704401E+03  0.15146060256E+03  0.41800000000E+01 0.  1.
         -5    1    3    3    0  502 -0.66018269775E+02 -0.27927598135E+02  0.15656045969E+03  0.17224114671E+03  0.41800000000E+01 0.  1.
        -11    1    1    2    0    0  0.40833711630E+02  0.16023111547E+02  0.36057372225E+02  0.56782622350E+02  0.00000000000E+00 0.  1.
         11    1    1    2    0    0 -0.17323905714E+02 -0.23328243773E+02  0.95350738066E+02  0.99679927349E+02  0.00000000000E+00 0. -1.
</event>
<event>
 7    1  0.2440960E-009  0.1504849E+03  0.7561462E-02  0.1199878E+00
         -2   -1    0    0    0  501 -0.00000000000E+00  0.00000000000E+00  0.48327877146E+03  0.48327877146E+03  0.00000000000E+00 0.  1.
          2   -1    0    0  501    0  0.00000000000E+00 -0.00000000000E+00 -0.50015913291E+02  0.50015913291E+02  0.00000000000E+00 0. -1.
         25    2    1    2    0    0  0.10695503346E+03  0.20858067181E+02  0.19853750642E+03  0.25872805016E+03  0.12509446164E+03 0.  0.
          5    1    3    3  502    0  0.92380698305E+02 -0.41731515268E+02  0.12439103332E+03  0.16051889096E+03  0.41800000000E+01 0. -1.
         -5    1    3    3    0  502  0.14574335154E+02  0.62589582449E+02  0.74146473109E+02  0.98209159200E+02  0.41800000000E+01 0. -1.
        -11    1    1    2    0    0 -0.13315322412E+02 -0.37691098845E+02  0.11433167245E+03  0.12111832260E+03  0.00000000000E+00 0.  1.
         11    1    1    2    0    0 -0.93639711047E+02  0.16833031664E+02  0.12039367929E+03  0.15344831199E+03  0.00000000000E+00 0. -1.
</event>
<event>
 7    1  0.2440960E-009  0.1197004E+03  0.7561462E-02  0.1243592E+00
          2   -1    0    0  501    0  0.00000000000E+00  0.00000000000E+00  0.32115106206E+03  0.32115106206E+03  0.00000000000E+00 0. -1.
         -2   -1    0    0    0  501 -0.00000000000E+00 -0.00000000000E+00 -0.60134323560E+02  0.60134323560E+02  0.00000000000E+00 0.  1.
         25    2    1    2    0    0  0.63709998563E+02  0.33899365428E+02  0.21214064030E+03  0.25663339385E+03  0.12509563013E+03 0.  0.
          5    1    3    3  502    0  0.78169357110E+02 -0.13468618577E+02  0.69369031295E+02  0.10545798680E+03  0.41800000000E+01 0. -1.
         -5    1    3    3    0  502 -0.14459358547E+02  0.47367984005E+02  0.14277160901E+03  0.15117540705E+03  0.41800000000E+01 0. -1.
        -11    1    1    2    0    0  0.65822901835E+00  0.23809081472E+02  0.25929997706E+02  0.35208953506E+02  0.00000000000E+00 0. -1.
         11    1    1    2    0    0 -0.64368227581E+02 -0.57708446900E+02  0.22946100491E+02  0.89443038261E+02  0.00000000000E+00 0.  1.
</event>
<event>
 7    1  0.2440960E-009  0.1062503E+03  0.7561462E-02  0.1267676E+00
         -1   -1    0    0    0  501 -0.00000000000E+00  0.00000000000E+00  0.14644243108E+02  0.14644243108E+02  0.00000000000E+00 0.  1.
          1   -1    0    0  501    0  0.00000000000E+00 -0.00000000000E+00 -0.85399682710E+03  0.85399682710E+03  0.00000000000E+00 0. -1.
         25    2    1    2    0    0 -0.54940656817E-02  0.85888752763E+01 -0.37625290047E+03  0.39659204308E+03  0.12508091268E+03 0.  0.
          5    1    3    3  502    0 -0.28199070547E+02  0.58084568670E+02 -0.24600159786E+03  0.25436836133E+03  0.41800000000E+01 0.  1.
         -5    1    3    3    0  502  0.28193576481E+02 -0.49495693394E+02 -0.13025130261E+03  0.14222368176E+03  0.41800000000E+01 0.  1.
        -11    1    1    2    0    0  0.12894830904E+02 -0.47746790632E+02 -0.22118679166E+03  0.22664869178E+03  0.00000000000E+00 0.  1.
         11    1    1    2    0    0 -0.12889336839E+02  0.39157915355E+02 -0.24191289186E+03  0.24540033534E+03  0.00000000000E+00 0. -1.
</event>
<event>
 7    1  0.2440960E-009  0.1015658E+03  0.7561462E-02  0.1277037E+00
         -2   -1    0    0    0  501 -0.00000000000E+00  0.00000000000E+00  0.78202593199E+02  0.78202593199E+02  0.00000000000E+00 0. -1.
          2   -1    0    0  501    0  0.00000000000E+00 -0.00000000000E+00 -0.19885742302E+03  0.19885742302E+03  0.00000000000E+00 0.  1.
         25    2    1    2    0    0 -0.48328342581E+02  0.34177514099E+02 -0.77054849034E+02  0.15838792057E+03  0.12508218281E+03 0.  0.
          5    1    3    3  502    0 -0.71044599716E+02  0.87158402172E+01  0.24794825323E+01  0.71742046620E+02  0.41800000000E+01 0. -1.
         -5    1    3    3    0  502  0.22716257135E+02  0.25461673882E+02 -0.79534331566E+02  0.86645873951E+02  0.41800000000E+01 0. -1.
        -11    1    1    2    0    0 -0.20382480238E+02 -0.15676556059E+00  0.12281133005E+02  0.23796980984E+02  0.00000000000E+00 0. -1.
         11    1    1    2    0    0  0.68710822819E+02 -0.34020748538E+02 -0.55881113788E+02  0.94875114660E+02  0.00000000000E+00 0.  1.
</event>
<event>
 7    1  0.2440960E-009  0.1023040E+03  0.7561462E-02  0.1275524E+00
          1   -1    0    0  501    0  0.00000000000E+00  0.00000000000E+00  0.13176870662E+03  0.13176870662E+03  0.00000000000E+00 0. -1.
         -1   -1    0    0    0  501 -0.00000000000E+00 -0.00000000000E+00 -0.12863472721E+03  0.12863472721E+03  0.00000000000E+00 0.  1.
         25    2    1    2    0    0 -0.57574014835E+01  0.68789154700E+02 -0.38375300557E+01  0.14292765954E+03  0.12509393969E+03 0.  0.
          5    1    3    3  502    0 -0.87832520187E+01 -0.68597034290E+01 -0.51837896123E+02  0.53186849142E+02  0.41800000000E+01 0.  1.
         -5    1    3    3    0  502  0.30258505352E+01  0.75648858129E+02  0.48000366067E+02  0.89740810395E+02  0.41800000000E+01 0.  1.
        -11    1    1    2    0    0 -0.30495789272E+02  0.83748298011E+01 -0.23485120543E+01  0.31711929086E+02  0.00000000000E+00 0.  1.
         11    1    1    2    0    0  0.36253190755E+02 -0.77163984501E+02  0.93200215218E+01  0.85763845210E+02  0.00000000000E+00 0. -1.
</event>
<event>
 7    1  0.2440960E-009  0.1037497E+03  0.7561462E-02  0.1272603E+00
          1   -1    0    0  501    0  0.00000000000E+00  0.00000000000E+00  0.22777760410E+03  0.22777760410E+03  0.00000000000E+00 0. -1.
         -1   -1    0    0    0  501 -0.00000000000E+00 -0.00000000000E+00 -0.58431783312E+02  0.58431783312E+02  0.00000000000E+00 0.  1.
         25    2    1    2    0    0  0.22265660696E+02  0.16797732902E+02  0.67472296807E+02  0.14484250094E+03  0.12509562648E+03 0.  0.
          5    1    3    3  502    0  0.24360570754E+02 -0.47017909390E+02  0.17958427353E+01  0.53149023152E+02  0.41800000000E+01 0.  1.
         -5    1    3    3    0  502 -0.20949100582E+01  0.63815642292E+02  0.65676454072E+02  0.91693477787E+02  0.41800000000E+01 0.  1.
        -11    1    1    2    0    0 -0.51577017589E+02 -0.28389130249E+02  0.90283857995E+02  0.10778360949E+03  0.00000000000E+00 0. -1.
         11    1    1    2    0    0  0.29311356893E+02  0.11591397347E+02  0.11589665985E+02  0.33583276984E+02  0.00000000000E+00 0.  1.
</event>
<event>
 7    1  0.2440960E-009  0.3174471E+03  0.7561462E-02  0.1076830E+00
          2   -1    0    0  501    0  0.00000000000E+00  0.00000000000E+00  0.89927951601E+03  0.89927951601E+03  0.00000000000E+00 0. -1.
         -2   -1    0    0    0  501 -0.00000000000E+00 -0.00000000000E+00 -0.15261511606E+03  0.15261511606E+03  0.00000000000E+00 0.  1.
         25    2    1    2    0    0 -0.27915091126E+03  0.13809283060E+03  0.61529389775E+03  0.70087759486E+03  0.12509181125E+03 0.  0.
          5    1    3    3  502    0 -0.92851870062E+02  0.61424560047E+02  0.35272657236E+03  0.36990262719E+03  0.41800000000E+01 0. -1.
         -5    1    3    3    0  502 -0.18629904120E+03  0.76668270553E+02  0.26256732539E+03  0.33097496767E+03  0.41800000000E+01 0. -1.
        -11    1    1    2    0    0  0.12532358675E+03 -0.17537049166E+02  0.77101446265E+02  0.14818293595E+03  0.00000000000E+00 0. -1.
         11    1    1    2    0    0  0.15382732451E+03 -0.12055578143E+03  0.54269055933E+02  0.20283410126E+03  0.00000000000E+00 0.  1.
</event>
<event>
 7    1  0.2440960E-009  0.9902690E+02  0.7561462E-02  0.1282356E+00
         -1   -1    0    0    0  501 -0.00000000000E+00  0.00000000000E+00  0.18639337948E+02  0.18639337948E+02  0.00000000000E+00 0.  1.
          1   -1    0    0  501    0  0.00000000000E+00 -0.00000000000E+00 -0.83404409023E+03  0.83404409023E+03  0.00000000000E+00 0. -1.
         25    2    1    2    0    0  0.34056098121E+02 -0.92178481429E+01 -0.28332999096E+03  0.31171775765E+03  0.12508912868E+03 0.  0.
          5    1    3    3  502    0  0.59344571459E+02  0.18815814539E+02 -0.25945558526E+03  0.26685292984E+03  0.41800000000E+01 0. -1.
         -5    1    3    3    0  502 -0.25288473338E+02 -0.28033662682E+02 -0.23874405693E+02  0.44864827809E+02  0.41800000000E+01 0. -1.
        -11    1    1    2    0    0 -0.62064132552E+02  0.23337353507E+02 -0.35960625871E+03  0.36566822384E+03  0.00000000000E+00 0.  1.
         11    1    1    2    0    0  0.28008034431E+02 -0.14119505364E+02 -0.17246850261E+03  0.17529744669E+03  0.00000000000E+00 0. -1.
</event>
<event>
 7    1  0.2440960E-009  0.1341566E+03  0.7561462E-02  0.1221415E+00
          2   -1    0    0  501    0  0.00000000000E+00  0.00000000000E+00  0.74829103272E+02  0.74829103272E+02  0.00000000000E+00 0. -1.
         -2   -1    0    0    0  501 -0.00000000000E+00 -0.00000000000E+00 -0.32157477770E+03  0.32157477770E+03  0.00000000000E+00 0.  1.
         25    2    1    2    0    0 -0.85714388515E+02  0.69790413973E+02 -0.11796585932E+03  0.20440452288E+03  0.12509039422E+03 0.  0.
          5    1    3    3  502    0 -0.74683559658E+02  0.87503508019E+02 -0.13480320492E+03  0.17726780434E+03  0.41800000000E+01 0.  1.
         -5    1    3    3    0  502 -0.11030828857E+02 -0.17713094045E+02  0.16837345601E+02  0.27136718534E+02  0.41800000000E+01 0.  1.
        -11    1    1    2    0    0  0.10977516400E+02 -0.54544813343E+02 -0.91529534693E+02  0.10711348305E+03  0.00000000000E+00 0.  1.
         11    1    1    2    0    0  0.74736872115E+02 -0.15245600630E+02 -0.37250280411E+02  0.84885875048E+02  0.00000000000E+00 0. -1.
</event>
<event>
 7    1  0.2440960E-009  0.1241289E+03  0.7561462E-02  0.1236437E+00
         -1   -1    0    0    0  501 -0.00000000000E+00  0.00000000000E+00  0.23986176740E+03  0.23986176740E+03  0.00000000000E+00 0.  1.
          1   -1    0    0  501    0  0.00000000000E+00 -0.00000000000E+00 -0.78230190296E+02  0.78230190296E+02  0.00000000000E+00 0. -1.
         25    2    1    2    0    0  0.59590684239E+02 -0.57449985398E+02  0.74534671524E+02  0.16749440833E+03  0.12508960426E+03 0.  0.
          5    1    3    3  502    0  0.36011567172E+02 -0.97013981149E+02  0.55316616503E+02  0.11741356808E+03  0.41800000000E+01 0. -1.
         -5    1    3    3    0  502  0.23579117067E+02  0.39563995751E+02  0.19218055021E+02  0.50080840251E+02  0.41800000000E+01 0. -1.
        -11    1    1    2    0    0 -0.36051780777E+02  0.64483536704E+02  0.98815156127E+02  0.12337865489E+03  0.00000000000E+00 0.  1.
         11    1    1    2    0    0 -0.23538903462E+02 -0.70335513061E+01 -0.11718250548E+02  0.27218894468E+02  0.00000000000E+00 0. -1.
</event>
<event>
 7    1  0.2440960E-009  0.1639552E+03  0.7561462E-02  0.1184302E+00
          2   -1    0    0  501    0  0.00000000000E+00  0.00000000000E+00  0.13516069997E+04  0.13516069997E+04  0.00000000000E+00 0. -1.
         -2   -1    0    0    0  501 -0.00000000000E+00 -0.00000000000E+00 -0.27211519032E+02  0.27211519032E+02  0.00000000000E+00 0.  1.
         25    2    1    2    0    0  0.96119011693E+02 -0.12310764098E+03  0.79463669174E+03  0.81944326297E+03  0.12508170805E+03 0.  0.
          5    1    3    3  502    0  0.48481904555E+02 -0.75156978242E+02  0.17950962227E+03  0.20059970921E+03  0.41800000000E+01 0. -1.
         -5    1    3    3    0  502  0.47637107138E+02 -0.47950662735E+02  0.61512706947E+03  0.61884355376E+03  0.41800000000E+01 0. -1.
        -11    1    1    2    0    0 -0.79189157493E+02  0.45725665079E+02  0.19505258370E+03  0.21542346557E+03  0.00000000000E+00 0.  1.
         11    1    1    2    0    0 -0.16929854200E+02  0.77381975898E+02  0.33470620520E+03  0.34395179016E+03  0.00000000000E+00 0. -1.
</event>
<event>
 7    1  0.2440960E-009  0.1618462E+03  0.7561462E-02  0.1186628E+00
          3   -1    0    0  501    0  0.00000000000E+00  0.00000000000E+00  0.40593393434E+02  0.40593393434E+02  0.00000000000E+00 0. -1.
         -3   -1    0    0    0  501 -0.00000000000E+00 -0.00000000000E+00 -0.84654656189E+03  0.84654656189E+03  0.00000000000E+00 0.  1.
         25    2    1    2    0    0  0.14501686082E+03 -0.16383785741E+02 -0.51080698334E+03  0.54577446015E+03  0.12509064224E+03 0.  0.
          5    1    3    3  502    0  0.98997734871E+02 -0.30808305922E+02 -0.47328773786E+03  0.48452910999E+03  0.41800000000E+01 0.  1.
         -5    1    3    3    0  502  0.46019125946E+02  0.14424520181E+02 -0.37519245476E+02  0.61245350161E+02  0.41800000000E+01 0.  1.
        -11    1    1    2    0    0 -0.12668111857E+03  0.47590171263E+02 -0.23313974998E+03  0.26956830901E+03  0.00000000000E+00 0. -1.
         11    1    1    2    0    0 -0.18335742246E+02 -0.31206385521E+02 -0.62006435145E+02  0.71797186160E+02  0.00000000000E+00 0.  1.
</event>
<event>
 7    1  0.2440960E-009  0.1190828E+03  0.7561462E-02  0.1244618E+00
          1   -1    0    0  501    0  0.00000000000E+00  0.00000000000E+00  0.36182500135E+03  0.36182500135E+03  0.00000000000E+00 0. -1.
         -1   -1    0    0    0  501 -0.00000000000E+00 -0.00000000000E+00 -0.61098243649E+02  0.61098243649E+02  0.00000000000E+00 0.  1.
         25    2    1    2    0    0  0.29545496362E+02 -0.66613893454E+02  0.61963993599E+02  0.15747070945E+03  0.12508853136E+03 0.  0.
          5    1    3    3  502    0 -0.21511016367E+02 -0.86719087872E+02  0.33488402454E+02  0.95508478814E+02  0.41800000000E+01 0.  1.
         -5    1    3    3    0  502  0.51056512730E+02  0.20105194418E+02  0.28475591145E+02  0.61962230639E+02  0.41800000000E+01 0.  1.
        -11    1    1    2    0    0  0.68916533697E+01 -0.80571208766E+01 -0.19707180361E+01  0.10784053624E+02  0.00000000000E+00 0.  1.
         11    1    1    2    0    0 -0.36437149732E+02  0.74671014330E+02  0.24073348214E+03  0.25466848192E+03  0.00000000000E+00 0. -1.
</event>
<event>
 7    1  0.2593059E-009  0.9660444E+02  0.7561462E-02  0.1287603E+00
         -2   -1    0    0    0  501 -0.00000000000E+00  0.00000000000E+00  0.53253430761E+02  0.53253430761E+02  0.00000000000E+00 0.  1.
          2   -1    0    0  501    0  0.00000000000E+00 -0.00000000000E+00 -0.41917138799E+03  0.41917138799E+03  0.00000000000E+00 0. -1.
         25    2    1    2    0    0  0.83498406342E+02  0.20943808896E+02 -0.11075495508E+03  0.18794906082E+03  0.12509021703E+03 0.  0.
          5    1    3    3  502    0  0.58934934156E+01 -0.14376459915E+02  0.23722340702E+02  0.28664223567E+02  0.41800000000E+01 0. -1.
         -5    1    3    3    0  502  0.77604912926E+02  0.35320268811E+02 -0.13447729578E+03  0.15928483726E+03  0.41800000000E+01 0. -1.
        -11    1    1    2    0    0 -0.68670458688E+02 -0.29380705396E+02 -0.25670071455E+03  0.26734643180E+03  0.00000000000E+00 0. -1.
         11    1    1    2    0    0 -0.14827947653E+02  0.84368965001E+01  0.15377124002E+01  0.17129326128E+02  0.00000000000E+00 0.  1.
</event>
<event>
 7    1  0.2440960E-009  0.1740493E+03  0.7561462E-02  0.1173690E+00
          1   -1    0    0  501    0  0.00000000000E+00  0.00000000000E+00  0.42696109781E+03  0.42696109781E+03  0.00000000000E+00 0. -1.
         -1   -1    0    0    0  501 -0.00000000000E+00 -0.00000000000E+00 -0.10866746052E+03  0.10866746052E+03  0.00000000000E+00 0.  1.
         25    2    1    2    0    0  0.48917761161E+02  0.15357308425E+03  0.28037528207E+03  0.34674896817E+03  0.12508760357E+03 0.  0.
          5    1    3    3  502    0  0.47791195648E+02  0.86920764182E+02  0.25778036129E+03  0.27623794941E+03  0.41800000000E+01 0. -1.
         -5    1    3    3    0  502  0.11265655132E+01  0.66652320072E+02  0.22594920773E+02  0.70511018753E+02  0.41800000000E+01 0. -1.
        -11    1    1    2    0    0 -0.48819445908E+02 -0.16424794703E+03  0.43567464660E+02  0.17680172618E+03  0.00000000000E+00 0. -1.
         11    1    1    2    0    0 -0.98315252566E-01  0.10674862777E+02 -0.56491094339E+01  0.12077863991E+02  0.00000000000E+00 0.  1.
</event>
<event>
 7    1  0.2440960E-009  0.1523609E+03  0.7561462E-02  0.1197602E+00
         -2   -1    0    0    0  501 -0.00000000000E+00  0.00000000000E+00  0.24203328087E+02  0.24203328087E+02  0.00000000000E+00 0. -1.
          2   -1    0    0  501    0  0.00000000000E+00 -0.00000000000E+00 -0.10138022350E+04  0.10138022350E+04  0.00000000000E+00 0.  1.
         25    2    1    2    0    0 -0.22080135162E+02  0.10934106410E+03 -0.55822106226E+03  0.58283901725E+03  0.12509022749E+03 0.  0.
          5    1    3    3  502    0 -0.38287537139E+02 -0.12838301244E+02 -0.19722423978E+03  0.20135945629E+03  0.41800000000E+01 0. -1.
         -5    1    3    3    0  502  0.16207401977E+02  0.12217936534E+03 -0.36099682248E+03  0.38147956097E+03  0.41800000000E+01 0. -1.
        -11    1    1    2    0    0  0.59703373348E+01 -0.12085447326E+03 -0.40138368565E+03  0.41922584813E+03  0.00000000000E+00 0.  1.
         11    1    1    2    0    0  0.16109797827E+02  0.11513409160E+02 -0.29994158962E+02  0.35940697661E+02  0.00000000000E+00 0. -1.
</event>
<event>
 7    1  0.2440960E-009  0.2321037E+03  0.7561462E-02  0.1125168E+00
          2   -1    0    0  501    0  0.00000000000E+00  0.00000000000E+00  0.20143118109E+04  0.20143118109E+04  0.00000000000E+00 0.  1.
         -2   -1    0    0    0  501 -0.00000000000E+00 -0.00000000000E+00 -0.31008271384E+02  0.31008271384E+02  0.00000000000E+00 0. -1.
         25    2    1    2    0    0 -0.59876805030E+02  0.21191036216E+03  0.83954060334E+03  0.87690877105E+03  0.12509730099E+03 0.  0.
          5    1    3    3  502    0 -0.50596213613E+02  0.22312343382E+03  0.82410888855E+03  0.85528765696E+03  0.41800000000E+01 0. -1.
         -5    1    3    3    0  502 -0.92805914173E+01 -0.11213071665E+02  0.15431714783E+02  0.21621114087E+02  0.41800000000E+01 0. -1.
        -11    1    1    2    0    0  0.11470028381E+02 -0.35573943867E+02  0.71624337797E+02  0.80790548941E+02  0.00000000000E+00 0. -1.
         11    1    1    2    0    0  0.48406776649E+02 -0.17633641829E+03  0.10721385984E+04  0.10876207623E+04  0.00000000000E+00 0.  1.
</event>
<event>
 7    1  0.2440960E-009  0.1238965E+03  0.7561462E-02  0.1236804E+00
         -1   -1    0    0    0  501 -0.00000000000E+00  0.00000000000E+00  0.34260929656E+03  0.34260929656E+03  0.00000000000E+00 0.  1.
          1   -1    0    0  501    0  0.00000000000E+00 -0.00000000000E+00 -0.52509945154E+02  0.52509945154E+02  0.00000000000E+00 0. -1.
         25    2    1    2    0    0 -0.78577777670E+02  0.35214615290E+01  0.17162228317E+03  0.22646993134E+03  0.12509018301E+03 0.  0.
          5    1    3    3  502    0  0.20056413757E+02 -0.35656805685E+02  0.55859729694E+02  0.69364611481E+02  0.41800000000E+01 0.  1.
         -5    1    3    3    0  502 -0.98634191426E+02  0.39178267214E+02  0.11576255348E+03  0.15710531986E+03  0.41800000000E+01 0.  1.
        -11    1    1    2    0    0  0.49401023711E+01  0.21980161877E+02  0.77289570076E+02  0.80505961084E+02  0.00000000000E+00 0. -1.
         11    1    1    2    0    0  0.73637675299E+02 -0.25501623406E+02  0.41187498161E+02  0.88143349292E+02  0.00000000000E+00 0.  1.
</event>
<event>
 7    1  0.2788738E-009  0.1200902E+03  0.7561462E-02  0.1242948E+00
          2   -1    0    0  501    0  0.00000000000E+00  0.00000000000E+00  0.14296160677E+04  0.14296160677E+04  0.00000000000E+00 0. -1.
         -2   -1    0    0    0  501 -0.00000000000E+00 -0.00000000000E+00 -0.13251529491E+02  0.13251529491E+02  0.00000000000E+00 0.  1.
         25    2    1    2    0    0  0.47363110456E+02  0.64482354908E+02  0.91525702296E+03  0.92722368222E+03  0.12508837062E+03 0.  0.
          5    1    3    3  502    0  0.17372211880E+02  0.82764458977E+02  0.83785394286E+03  0.84212139944E+03  0.41800000000E+01 0.  1.
         -5    1    3    3    0  502  0.29990898576E+02 -0.18282104070E+02  0.77403080096E+02  0.85102282784E+02  0.41800000000E+01 0.  1.
        -11    1    1    2    0    0 -0.25596420640E+02 -0.85880721426E+02  0.40541754364E+03  0.41520363648E+03  0.00000000000E+00 0.  1.
         11    1    1    2    0    0 -0.21766689816E+02  0.21398366518E+02  0.95689971606E+02  0.10044027848E+03  0.00000000000E+00 0. -1.
</event>
<event>
 7    1  0.2440960E-009  0.9180276E+02  0.7561462E-02  0.1298544E+00
          2   -1    0    0  501    0  0.00000000000E+00  0.00000000000E+00  0.68964112492E+03  0.68964112492E+03  0.00000000000E+00 0.  1.
         -2   -1    0    0    0  501 -0.00000000000E+00 -0.00000000000E+00 -0.28743928152E+02  0.28743928152E+02  0.00000000000E+00 0. -1.
         25    2    1    2    0    0  0.50123766473E+02 -0.31153286103E+02  0.19568779010E+03  0.23963244103E+03  0.12508827444E+03 0.  0.
          5    1    3    3  502    0  0.41499916668E+02 -0.34849856386E+00  0.20242294332E+03  0.20667579664E+03  0.41800000000E+01 0. -1.
         -5    1    3    3    0  502  0.86238498054E+01 -0.30804787539E+02 -0.67351532208E+01  0.32956644393E+02  0.41800000000E+01 0. -1.
        -11    1    1    2    0    0 -0.12833945881E+02  0.60709063485E+02  0.20339588701E+03  0.21265038775E+03  0.00000000000E+00 0. -1.
         11    1    1    2    0    0 -0.37289820592E+02 -0.29555777382E+02  0.26181351967E+03  0.26610222430E+03  0.00000000000E+00 0.  1.
</event>
<event>
 7    1  0.2440960E-009  0.1145056E+03  0.7561462E-02  0.1252447E+00
         -1   -1    0    0    0  501 -0.00000000000E+00  0.00000000000E+00  0.14633112018E+03  0.14633112018E+03  0.00000000000E+00 0.  1.
          1   -1    0    0  501    0  0.00000000000E+00 -0.00000000000E+00 -0.10788209469E+03  0.10788209469E+03  0.00000000000E+00 0. -1.
         25    2    1    2    0    0  0.12348008450E+02  0.40216048524E+02 -0.26208617329E+02  0.13456501202E+03  0.12510414448E+03 0.  0.
          5    1    3    3  502    0 -0.41602858787E+02  0.58544801127E+02 -0.28510812677E+02  0.77386241915E+02  0.41800000000E+01 0. -1.
         -5    1    3    3    0  502  0.53950867237E+02 -0.18328752603E+02  0.23021953478E+01  0.57178770108E+02  0.41800000000E+01 0. -1.
        -11    1    1    2    0    0 -0.18661129455E+02 -0.68479175631E+02  0.39155543730E+02  0.81060420998E+02  0.00000000000E+00 0. -1.
         11    1    1    2    0    0  0.63131210051E+01  0.28263127106E+02  0.25502099090E+02  0.38587781857E+02  0.00000000000E+00 0.  1.
</event>
<event>
 7    1  0.2440960E-009  0.1133594E+03  0.7561462E-02  0.1254472E+00
         -1   -1    0    0    0  501 -0.00000000000E+00  0.00000000000E+00  0.39863763858E+02  0.39863763858E+02  0.00000000000E+00 0.  1.
          1   -1    0    0  501    0  0.00000000000E+00 -0.00000000000E+00 -0.51185694789E+03  0.51185694789E+03  0.00000000000E+00 0. -1.
         25    2    1    2    0    0  0.44342669247E+02 -0.77551148999E+02 -0.20913353470E+03  0.25954724554E+03  0.12508990489E+03 0.  0.
          5    1    3    3  502    0  0.56119871756E+02 -0.30172450179E+02 -0.19968443608E+03  0.20964532709E+03  0.41800000000E+01 0.  1.
         -5    1    3    3    0  502 -0.11777202509E+02 -0.47378698820E+02 -0.94490986133E+01  0.49901918454E+02  0.41800000000E+01 0.  1.
        -11    1    1    2    0    0 -0.32200119514E+02 -0.30602480544E+01 -0.14694669007E+03  0.15046442283E+03  0.00000000000E+00 0. -1.
         11    1    1    2    0    0 -0.12142549733E+02  0.80611397053E+02 -0.11591295926E+03  0.14170904337E+03  0.00000000000E+00 0.  1.
</event>
<event>
 7    1  0.2440960E-009  0.1667546E+03  0.7561462E-02  0.1181275E+00
          1   -1    0    0  501    0  0.00000000000E+00  0.00000000000E+00  0.68920538709E+02  0.68920538709E+02  0.00000000000E+00 0. -1.
         -1   -1    0    0    0  501 -0.00000000000E+00 -0.00000000000E+00 -0.58396062345E+03  0.58396062345E+03  0.00000000000E+00 0.  1.
         25    2    1    2    0    0  0.12765097357E+03  0.63277888195E+02 -0.41776623239E+03  0.45877577123E+03  0.12509085162E+03 0.  0.
          5    1    3    3  502    0  0.12662923231E+03  0.80435497938E+02 -0.41444202761E+03  0.44077715282E+03  0.41800000000E+01 0. -1.
         -5    1    3    3    0  502  0.10217412608E+01 -0.17157609743E+02 -0.33242047819E+01  0.17998618412E+02  0.41800000000E+01 0. -1.
        -11    1    1    2    0    0 -0.10149906118E+03 -0.47144585083E+01 -0.74695752152E+02  0.12611003500E+03  0.00000000000E+00 0. -1.
         11    1    1    2    0    0 -0.26151912389E+02 -0.58563429687E+02 -0.22578100201E+02  0.67995355922E+02  0.00000000000E+00 0.  1.
</event>
<event>
 7    1  0.2440960E-009  0.1858922E+03  0.7561462E-02  0.1162219E+00
          1   -1    0    0  501    0  0.00000000000E+00  0.00000000000E+00  0.43948108115E+03  0.43948108115E+03  0.00000000000E+00 0. -1.
         -1   -1    0    0    0  501 -0.00000000000E+00 -0.00000000000E+00 -0.10018207137E+03  0.10018207137E+03  0.00000000000E+00 0.  1.
         25    2    1    2    0    0  0.15395002172E+03 -0.53646695482E+02  0.27117109513E+03  0.34023489936E+03  0.12508975493E+03 0.  0.
          5    1    3    3  502    0  0.14763735030E+03 -0.14683705745E+02  0.25935354684E+03  0.29882123933E+03  0.41800000000E+01 0.  1.
         -5    1    3    3    0  502  0.63126714260E+01 -0.38962989737E+02  0.11817548287E+02  0.41413660032E+02  0.41800000000E+01 0.  1.
        -11    1    1    2    0    0 -0.97336815465E+01 -0.19624486118E+02  0.22391003725E+02  0.31324464236E+02  0.00000000000E+00 0.  1.
         11    1    1    2    0    0 -0.14421634017E+03  0.73271181599E+02  0.45736910929E+02  0.16810378892E+03  0.00000000000E+00 0. -1.
</event>
<event>
 7    1  0.2440960E-009  0.2382809E+03  0.7561462E-02  0.1120943E+00
         -1   -1    0    0    0  501 -0.00000000000E+00  0.00000000000E+00  0.10313935764E+03  0.10313935764E+03  0.00000000000E+00 0.  1.
          1   -1    0    0  501    0  0.00000000000E+00 -0.00000000000E+00 -0.65739555837E+03  0.65739555837E+03  0.00000000000E+00 0. -1.
         25    2    1    2    0    0 -0.11642109034E+03  0.20546801827E+03 -0.30073485603E+03  0.40231756437E+03  0.12508793773E+03 0.  0.
          5    1    3    3  502    0 -0.85334346429E+02  0.17744859134E+03 -0.30164842484E+03  0.36024879994E+03  0.41800000000E+01 0.  1.
         -5    1    3    3    0  502 -0.31086743916E+02  0.28019426931E+02  0.91356881816E+00  0.42068764432E+02  0.41800000000E+01 0.  1.
        -11    1    1    2    0    0  0.47243365514E+02 -0.59074008633E+02 -0.28144753255E+02  0.80708123611E+02  0.00000000000E+00 0.  1.
         11    1    1    2    0    0  0.69177724831E+02 -0.14639400964E+03 -0.22537659145E+03  0.27750922803E+03  0.00000000000E+00 0. -1.
</event>
<event>
 7    1  0.2440960E-009  0.1190799E+03  0.7561462E-02  0.1244623E+00
          1   -1    0    0  501    0  0.00000000000E+00  0.00000000000E+00  0.10987587563E+04  0.10987587563E+04  0.00000000000E+00 0. -1.
         -1   -1    0    0    0  501 -0.00000000000E+00 -0.00000000000E+00 -0.25709387622E+02  0.25709387622E+02  0.00000000000E+00 0.  1.
         25    2    1    2    0    0  0.58091415288E+02 -0.46583787700E+02  0.91850418899E+03  0.92996877422E+03  0.12508922420E+03 0.  0.
          5    1    3    3  502    0  0.88667252949E+02 -0.40817191420E+02  0.83606391511E+03  0.84175309172E+03  0.41800000000E+01 0.  1.
         -5    1    3    3    0  502 -0.30575837661E+02 -0.57665962805E+01  0.82440273879E+02  0.88215682498E+02  0.41800000000E+01 0.  1.
        -11    1    1    2    0    0  0.11649860606E+02 -0.12914109081E+02  0.61374399964E+02  0.63791147007E+02  0.00000000000E+00 0. -1.
         11    1    1    2    0    0 -0.69741275893E+02  0.59497896781E+02  0.93170779687E+02  0.13070822266E+03  0.00000000000E+00 0.  1.
</event>
<event>
 7    1  0.2440960E-009  0.1241176E+03  0.7561462E-02  0.1236455E+00
          2   -1    0    0  501    0  0.00000000000E+00  0.00000000000E+00  0.17233785432E+03  0.17233785432E+03  0.00000000000E+00 0. -1.
         -2   -1    0    0    0  501 -0.00000000000E+00 -0.00000000000E+00 -0.10729868740E+03  0.10729868740E+03  0.00000000000E+00 0.  1.
         25    2    1    2    0    0  0.59254083028E+02 -0.52323179703E+02  0.16542561630E+02  0.14889436680E+03  0.12508842724E+03 0.  0.
          5    1    3    3  502    0 -0.19379629057E+02 -0.52521349168E+02  0.37372900908E+02  0.67440850106E+02  0.41800000000E+01 0. -1.
         -5    1    3    3    0  502  0.78633712085E+02  0.19816946470E+00 -0.20830339279E+02  0.81453516694E+02  0.41800000000E+01 0. -1.
        -11    1    1    2    0    0 -0.23435421250E+01  0.56256544754E+02  0.68508666107E+00  0.56309505069E+02  0.00000000000E+00 0.  1.
         11    1    1    2    0    0 -0.56910540903E+02 -0.39333650510E+01  0.47811518636E+02  0.74432669848E+02  0.00000000000E+00 0. -1.
</event>
<event>
 7    1  0.2440960E-009  0.7600917E+02  0.7561462E-02  0.1340774E+00
          2   -1    0    0  501    0  0.00000000000E+00  0.00000000000E+00  0.13511482092E+03  0.13511482092E+03  0.00000000000E+00 0. -1.
         -2   -1    0    0    0  501 -0.00000000000E+00 -0.00000000000E+00 -0.12328075480E+03  0.12328075480E+03  0.00000000000E+00 0.  1.
         25    2    1    2    0    0  0.58608285297E+02 -0.19290539119E+02 -0.31717648278E+02  0.14303905444E+03  0.12508839226E+03 0.  0.
          5    1    3    3  502    0  0.52784714094E+02 -0.48886525460E+01 -0.77796220931E+02  0.94232952606E+02  0.41800000000E+01 0. -1.
         -5    1    3    3    0  502  0.58235712023E+01 -0.14401886573E+02  0.46078572653E+02  0.48806101833E+02  0.41800000000E+01 0. -1.
        -11    1    1    2    0    0 -0.18485909637E+02  0.35068640105E+02  0.57678162879E+02  0.69987919293E+02  0.00000000000E+00 0. -1.
         11    1    1    2    0    0 -0.40122375660E+02 -0.15778100986E+02 -0.14126448480E+02  0.45368601984E+02  0.00000000000E+00 0.  1.
</event>
<event>
 7    1  0.2440960E-009  0.1085474E+03  0.7561462E-02  0.1263284E+00
          1   -1    0    0  501    0  0.00000000000E+00  0.00000000000E+00  0.43242593057E+03  0.43242593057E+03  0.00000000000E+00 0. -1.
         -1   -1    0    0    0  501 -0.00000000000E+00 -0.00000000000E+00 -0.45853600583E+02  0.45853600583E+02  0.00000000000E+00 0.  1.
         25    2    1    2    0    0 -0.77366647715E+02 -0.45948481802E+02  0.19520167547E+03  0.24869095109E+03  0.12508650562E+03 0.  0.
          5    1    3    3  502    0 -0.47477054770E+02 -0.71624485507E+02  0.19019900287E+03  0.20875169639E+03  0.41800000000E+01 0. -1.
         -5    1    3    3    0  502 -0.29889592945E+02  0.25676003704E+02  0.50026726047E+01  0.39939254698E+02  0.41800000000E+01 0. -1.
        -11    1    1    2    0    0  0.48726321395E+02  0.19599164846E+02  0.23984199641E+02  0.57737539710E+02  0.00000000000E+00 0.  1.
         11    1    1    2    0    0  0.28640326320E+02  0.26349316956E+02  0.16738645487E+03  0.17185104035E+03  0.00000000000E+00 0. -1.
</event>
<event>
 7    1  0.2440960E-009  0.1162871E+03  0.7561462E-02  0.1249351E+00
          2   -1    0    0  501    0  0.00000000000E+00  0.00000000000E+00  0.12699050302E+03  0.12699050302E+03  0.00000000000E+00 0.  1.
         -2   -1    0    0    0  501 -0.00000000000E+00 -0.00000000000E+00 -0.12085489008E+03  0.12085489008E+03  0.00000000000E+00 0. -1.
         25    2    1    2    0    0  0.66462071357E+02 -0.39020760697E+01 -0.31868464320E+01  0.14173578275E+03  0.12508574257E+03 0.  0.
          5    1    3    3  502    0  0.10309583425E+03  0.40394485615E+01 -0.86672641778E+01  0.10362269082E+03  0.41800000000E+01 0. -1.
         -5    1    3    3    0  502 -0.36633762897E+02 -0.79415246311E+01  0.54804177458E+01  0.38113091926E+02  0.41800000000E+01 0. -1.
        -11    1    1    2    0    0 -0.28373332485E+02  0.33106425817E+02 -0.21959496319E+02  0.48819062929E+02  0.00000000000E+00 0. -1.
         11    1    1    2    0    0 -0.38088738871E+02 -0.29204349747E+02  0.31281955686E+02  0.57290547427E+02  0.00000000000E+00 0.  1.
</event>
<event>
 7    1  0.2440960E-009  0.1073387E+03  0.7561462E-02  0.1265579E+00
          1   -1    0    0  501    0  0.00000000000E+00  0.00000000000E+00  0.32788109468E+03  0.32788109468E+03  0.00000000000E+00 0. -1.
         -1   -1    0    0    0  501 -0.00000000000E+00 -0.00000000000E+00 -0.47799900279E+02  0.47799900279E+02  0.00000000000E+00 0.  1.
         25    2    1    2    0    0  0.10589984012E+02 -0.34485392015E+02  0.23459131452E+03  0.26829411254E+03  0.12508899213E+03 0.  0.
          5    1    3    3  502    0 -0.51956368750E+01 -0.75625527126E+02  0.93600242317E+02  0.12051843327E+03  0.41800000000E+01 0.  1.
         -5    1    3    3    0  502  0.15785620887E+02  0.41140135111E+02  0.14099107220E+03  0.14777567927E+03  0.41800000000E+01 0.  1.
        -11    1    1    2    0    0  0.27563570238E+02 -0.15492592659E+02  0.27714043129E+02  0.42045677758E+02  0.00000000000E+00 0. -1.
         11    1    1    2    0    0 -0.38153554250E+02  0.49977984674E+02  0.17775836752E+02  0.65341204659E+02  0.00000000000E+00 0.  1.
</event>
<event>
 7    1  0.2440960E-009  0.1408770E+03  0.7561462E-02  0.1212154E+00
         -2   -1    0    0    0  501 -0.00000000000E+00  0.00000000000E+00  0.18660063521E+03  0.18660063521E+03  0.00000000000E+00 0.  1.
          2   -1    0    0  501    0  0.00000000000E+00 -0.00000000000E+00 -0.14583164820E+03  0.14583164820E+03  0.00000000000E+00 0. -1.
         25    2    1    2    0    0  0.90190805730E+02  0.68272816537E+02  0.73560165123E+02  0.18399739350E+03  0.12509350106E+03 0.  0.
          5    1    3    3  502    0  0.37674107283E+02  0.10012334902E+03  0.48439535014E+02  0.11750695440E+03  0.41800000000E+01 0.  1.
         -5    1    3    3    0  502  0.52516698447E+02 -0.31850532488E+02  0.25120630109E+02  0.66490439107E+02  0.41800000000E+01 0.  1.
        -11    1    1    2    0    0 -0.17542580931E+02 -0.14222614989E+02  0.30505713722E+02  0.37955546269E+02  0.00000000000E+00 0.  1.
         11    1    1    2    0    0 -0.72648224798E+02 -0.54050201548E+02 -0.63296891838E+02  0.11047934363E+03  0.00000000000E+00 0. -1.
</event>
<event>
 7    1  0.2440960E-009  0.1161825E+03  0.7561462E-02  0.1249531E+00
         -2   -1    0    0    0  501 -0.00000000000E+00  0.00000000000E+00  0.46406515276E+03  0.46406515276E+03  0.00000000000E+00 0.  1.
          2   -1    0    0  501    0  0.00000000000E+00 -0.00000000000E+00 -0.42842923261E+02  0.42842923261E+02  0.00000000000E+00 0. -1.
         25    2    1    2    0    0  0.64856636445E+02 -0.54016257174E+02  0.17385636877E+03  0.23020858753E+03  0.12508324222E+03 0.  0.
          5    1    3    3  502    0  0.73983710836E+02 -0.86326870490E+02  0.11168422190E+03  0.15942633364E+03  0.41800000000E+01 0.  1.
         -5    1    3    3    0  502 -0.91270743909E+01  0.32310613316E+02  0.62172146866E+02  0.70782253890E+02  0.41800000000E+01 0.  1.
        -11    1    1    2    0    0 -0.38011867704E+02  0.26623200637E+02  0.22993309561E+03  0.23456965992E+03  0.00000000000E+00 0.  1.
         11    1    1    2    0    0 -0.26844768742E+02  0.27393056537E+02  0.17432765123E+02  0.42129828567E+02  0.00000000000E+00 0. -1.
</event>
<event>
 7    1  0.2440960E-009  0.6237193E+02  0.7561462E-02  0.1388139E+00
         -2   -1    0    0    0  501 -0.00000000000E+00  0.00000000000E+00  0.19541894727E+02  0.19541894727E+02  0.00000000000E+00 0.  1.
          2   -1    0    0  501    0  0.00000000000E+00 -0.00000000000E+00 -0.64565876917E+03  0.64565876917E+03  0.00000000000E+00 0. -1.
         25    2    1    2    0    0  0.15927040137E+02 -0.12468333609E+02 -0.28682934357E+03  0.31357231299E+03  0.12508954069E+03 0.  0.
          5    1    3    3  502    0  0.30078190794E+02 -0.56309630470E+01 -0.50153610323E+01  0.31289479902E+02  0.41800000000E+01 0. -1.
         -5    1    3    3    0  502 -0.14151150657E+02 -0.68373705622E+01 -0.28181398254E+03  0.28228283308E+03  0.41800000000E+01 0. -1.
        -11    1    1    2    0    0  0.28544342277E+02 -0.64566462360E+01 -0.46961715455E+02  0.55334170953E+02  0.00000000000E+00 0.  1.
         11    1    1    2    0    0 -0.44471382414E+02  0.18924979845E+02 -0.29232581542E+03  0.29629417996E+03  0.00000000000E+00 0. -1.
</event>
<event>
 7    1  0.2440960E-009  0.8840438E+02  0.7561462E-02  0.1306762E+00
          2   -1    0    0  501    0  0.00000000000E+00  0.00000000000E+00  0.51203296993E+03  0.51203296993E+03  0.00000000000E+00 0. -1.
         -2   -1    0    0    0  501 -0.00000000000E+00 -0.00000000000E+00 -0.23397544384E+02  0.23397544384E+02  0.00000000000E+00 0.  1.
         25    2    1    2    0    0  0.15213780616E+02 -0.10835360164E+02  0.29930722519E+03  0.32493377301E+03  0.12509307593E+03 0.  0.
          5    1    3    3  502    0  0.16644996147E+02 -0.46302540508E+02  0.27998026658E+03  0.28430160610E+03  0.41800000000E+01 0.  1.
         -5    1    3    3    0  502 -0.14312155307E+01  0.35467180343E+02  0.19326958607E+02  0.40632166917E+02  0.41800000000E+01 0.  1.
        -11    1    1    2    0    0  0.25843133070E+02 -0.25904753645E+02  0.84167779591E+02  0.91777660188E+02  0.00000000000E+00 0.  1.
         11    1    1    2    0    0 -0.41056913686E+02  0.36740113810E+02  0.10516042077E+03  0.11871908111E+03  0.00000000000E+00 0. -1.
</event>
<event>
 7    1  0.2440960E-009  0.1430614E+03  0.7561462E-02  0.1209268E+00
          2   -1    0    0  501    0  0.00000000000E+00  0.00000000000E+00  0.11100200281E+04  0.11100200281E+04  0.00000000000E+00 0. -1.
         -2   -1    0    0    0  501 -0.00000000000E+00 -0.00000000000E+00 -0.25772336080E+02  0.25772336080E+02  0.00000000000E+00 0.  1.
         25    2    1    2    0    0  0.11468866052E+03 -0.59877408101E+02  0.59791978062E+03  0.62441523651E+03  0.12509009023E+03 0.  0.
          5    1    3    3  502    0  0.76753369726E+02 -0.56985835107E+02  0.17237277829E+03  0.19715048126E+03  0.41800000000E+01 0. -1.
         -5    1    3    3    0  502  0.37935290799E+02 -0.28915729942E+01  0.42554700234E+03  0.42726475525E+03  0.41800000000E+01 0. -1.
        -11    1    1    2    0    0 -0.64637806998E+02 -0.10823683008E+02  0.28067574692E+03  0.28822573292E+03  0.00000000000E+00 0. -1.
         11    1    1    2    0    0 -0.50050853527E+02  0.70701091110E+02  0.20565216444E+03  0.22315139471E+03  0.00000000000E+00 0.  1.
</event>
<event>
 7    1  0.2440960E-009  0.1359663E+03  0.7561462E-02  0.1218862E+00
          2   -1    0    0  501    0  0.00000000000E+00  0.00000000000E+00  0.83800978142E+02  0.83800978142E+02  0.00000000000E+00 0. -1.
         -2   -1    0    0    0  501 -0.00000000000E+00 -0.00000000000E+00 -0.32522151129E+03  0.32522151129E+03  0.00000000000E+00 0.  1.
         25    2    1    2    0    0 -0.71644777890E+02 -0.83225397614E+02 -0.19894761309E+03  0.25939160408E+03  0.12507761794E+03 0.  0.
          5    1    3    3  502    0  0.46604563464E+01  0.90226795155E+01  0.12333619324E+02  0.16514210990E+02  0.41800000000E+01 0. -1.
         -5    1    3    3    0  502 -0.76305234236E+02 -0.92248077129E+02 -0.21128123241E+03  0.24287739309E+03  0.41800000000E+01 0. -1.
        -11    1    1    2    0    0  0.27603117916E+02  0.92174531444E+02 -0.16200329060E+02  0.97573188055E+02  0.00000000000E+00 0. -1.
         11    1    1    2    0    0  0.44041659974E+02 -0.89491338299E+01 -0.26272590996E+02  0.52057697291E+02  0.00000000000E+00 0.  1.
</event>
<event>
 7    1  0.2440960E-009  0.1066963E+03  0.7561462E-02  0.1266813E+00
         -1   -1    0    0    0  501 -0.00000000000E+00  0.00000000000E+00  0.22501846845E+03  0.22501846845E+03  0.00000000000E+00 0.  1.
          1   -1    0    0  501    0  0.00000000000E+00 -0.00000000000E+00 -0.80925561006E+02  0.80925561006E+02  0.00000000000E+00 0. -1.
         25    2    1    2    0    0 -0.76240385817E+02  0.33971963624E+02  0.85708745083E+02  0.17308902193E+03  0.12508848783E+03 0.  0.
          5    1    3    3  502    0 -0.65142945659E+02 -0.66835683022E+01 -0.11900456196E+02  0.66688580072E+02  0.41800000000E+01 0. -1.
         -5    1    3    3    0  502 -0.11097440158E+02  0.40655531927E+02  0.97609201279E+02  0.10640044186E+03  0.41800000000E+01 0. -1.
        -11    1    1    2    0    0  0.33646388223E+02  0.18056087738E+02 -0.72781558047E+01  0.38872526246E+02  0.00000000000E+00 0.  1.
         11    1    1    2    0    0  0.42593997594E+02 -0.52028051363E+02  0.65662318165E+02  0.93982481274E+02  0.00000000000E+00 0. -1.
</event>
<event>
 7    1  0.2440960E-009  0.1588320E+03  0.7561462E-02  0.1190022E+00
         -1   -1    0    0    0  501 -0.00000000000E+00  0.00000000000E+00  0.27694324142E+02  0.27694324142E+02  0.00000000000E+00 0.  1.
          1   -1    0    0  501    0  0.00000000000E+00 -0.00000000000E+00 -0.91847499285E+03  0.91847499285E+03  0.00000000000E+00 0. -1.
         25    2    1    2    0    0  0.62948639628E+02 -0.97081310812E+02 -0.45234027647E+03  0.48337006954E+03  0.12509031244E+03 0.  0.
          5    1    3    3  502    0  0.83839699729E+02 -0.14596584823E+02 -0.22704258720E+03  0.24250353470E+03  0.41800000000E+01 0. -1.
         -5    1    3    3    0  502 -0.20891060101E+02 -0.82484725990E+02 -0.22529768927E+03  0.24086653483E+03  0.41800000000E+01 0. -1.
        -11    1    1    2    0    0  0.52098113773E+01  0.75637386621E+02 -0.20022262986E+03  0.21409637525E+03  0.00000000000E+00 0.  1.
         11    1    1    2    0    0 -0.68158451006E+02  0.21443924191E+02 -0.23821776238E+03  0.24870287220E+03  0.00000000000E+00 0. -1.
</event>
<event>
 7    1  0.2440960E-009  0.1742761E+03  0.7561462E-02  0.1173461E+00
          2   -1    0    0  501    0  0.00000000000E+00  0.00000000000E+00  0.22618609976E+03  0.22618609976E+03  0.00000000000E+00 0. -1.
         -2   -1    0    0    0  501 -0.00000000000E+00 -0.00000000000E+00 -0.15423949591E+03  0.15423949591E+03  0.00000000000E+00 0.  1.
         25    2    1    2    0    0  0.14349143495E+03  0.47500233810E+02  0.21806274126E+02  0.19740744272E+03  0.12509244875E+03 0.  0.
          5    1    3    3  502    0  0.78788212105E+02  0.83084423877E+02 -0.13648026246E+02  0.11538780212E+03  0.41800000000E+01 0.  1.
         -5    1    3    3    0  502  0.64703222847E+02 -0.35584190066E+02  0.35454300372E+02  0.82019640601E+02  0.41800000000E+01 0.  1.
        -11    1    1    2    0    0 -0.37978188727E+02  0.10774737234E+02 -0.19265928539E+02  0.43927369418E+02  0.00000000000E+00 0.  1.
         11    1    1    2    0    0 -0.10551324622E+03 -0.58274971044E+02  0.69406258261E+02  0.13909078354E+03  0.00000000000E+00 0. -1.
</event>
<event>
 7    1  0.2440960E-009  0.1722683E+03  0.7561462E-02  0.1175503E+00
         -2   -1    0    0    0  501 -0.00000000000E+00  0.00000000000E+00  0.32382366853E+03  0.32382366853E+03  0.00000000000E+00 0.  1.
          2   -1    0    0  501    0  0.00000000000E+00 -0.00000000000E+00 -0.10379731297E+03  0.10379731297E+03  0.00000000000E+00 0. -1.
         25    2    1    2    0    0 -0.13391567345E+03  0.51076613087E+02  0.15704418647E+03  0.24667786988E+03  0.12507944269E+03 0.  0.
          5    1    3    3  502    0 -0.61039222021E+02 -0.37132089700E+02  0.36184662683E+02  0.80195890942E+02  0.41800000000E+01 0.  1.
         -5    1    3    3    0  502 -0.72876451426E+02  0.88208702786E+02  0.12085952379E+03  0.16648197893E+03  0.41800000000E+01 0.  1.
        -11    1    1    2    0    0  0.43772336414E+02  0.15471127514E+02  0.49864948922E+02  0.68131390363E+02  0.00000000000E+00 0. -1.
         11    1    1    2    0    0  0.90143337033E+02 -0.66547740601E+02  0.13117220168E+02  0.11281172127E+03  0.00000000000E+00 0.  1.
</event>
<event>
 7    1  0.2440960E-009  0.1483205E+03  0.7561462E-02  0.1202552E+00
          2   -1    0    0  501    0  0.00000000000E+00  0.00000000000E+00  0.97056315709E+03  0.97056315709E+03  0.00000000000E+00 0. -1.
         -2   -1    0    0    0  501 -0.00000000000E+00 -0.00000000000E+00 -0.26694543151E+02  0.26694543151E+02  0.00000000000E+00 0.  1.
         25    2    1    2    0    0  0.10570591486E+03  0.29944388726E+02  0.37649125797E+03  0.41166334884E+03  0.12510251237E+03 0.  0.
          5    1    3    3  502    0 -0.15558895763E+02 -0.15960059355E+02  0.14091744232E+03  0.14273051770E+03  0.41800000000E+01 0.  1.
         -5    1    3    3    0  502  0.12126481062E+03  0.45904448081E+02  0.23557381565E+03  0.26893283115E+03  0.41800000000E+01 0.  1.
        -11    1    1    2    0    0 -0.40504566720E+02  0.34019463853E+02  0.23637585879E+03  0.24222198592E+03  0.00000000000E+00 0.  1.
         11    1    1    2    0    0 -0.65201348141E+02 -0.63963852578E+02  0.33100149718E+03  0.34337236547E+03  0.00000000000E+00 0. -1.
</event>
<event>
 7    1  0.2440960E-009  0.1443071E+03  0.7561462E-02  0.1207648E+00
         -1   -1    0    0    0  501 -0.00000000000E+00  0.00000000000E+00  0.22293692926E+02  0.22293692926E+02  0.00000000000E+00 0.  1.
          1   -1    0    0  501    0  0.00000000000E+00 -0.00000000000E+00 -0.99162333844E+03  0.99162333844E+03  0.00000000000E+00 0. -1.
         25    2    1    2    0    0 -0.40273141198E+02  0.90336834666E+02 -0.59640894166E+03  0.61736100111E+03  0.12509320686E+03 0.  0.
          5    1    3    3  502    0 -0.73333741526E+02  0.20317560621E+02 -0.37769563665E+03  0.38530780846E+03  0.41800000000E+01 0.  1.
         -5    1    3    3    0  502  0.33060600328E+02  0.70019274045E+02 -0.21871330501E+03  0.23205319266E+03  0.41800000000E+01 0.  1.
        -11    1    1    2    0    0  0.43569416388E+02  0.88381451853E+00 -0.12055313995E+03  0.12818788836E+03  0.00000000000E+00 0.  1.
         11    1    1    2    0    0 -0.32962751899E+01 -0.91220649184E+02 -0.25236756391E+03  0.26836814189E+03  0.00000000000E+00 0. -1.
</event>
<event>
 7    1  0.2440960E-009  0.6992751E+02  0.7561462E-02  0.1360340E+00
         -3   -1    0    0    0  501 -0.00000000000E+00  0.00000000000E+00  0.18922516276E+03  0.18922516276E+03  0.00000000000E+00 0.  1.
          3   -1    0    0  501    0  0.00000000000E+00 -0.00000000000E+00 -0.67156213852E+02  0.67156213852E+02  0.00000000000E+00 0. -1.
         25    2    1    2    0    0  0.70550627786E+01 -0.28921902865E+02  0.57416504610E+02  0.14082456475E+03  0.12509457486E+03 0.  0.
          5    1    3    3  502    0  0.20167753780E+02  0.47476994531E+01  0.89720640626E+02  0.92176703656E+02  0.41800000000E+01 0. -1.
         -5    1    3    3    0  502 -0.13112691002E+02 -0.33669602318E+02 -0.32304136016E+02  0.48647861097E+02  0.41800000000E+01 0. -1.
        -11    1    1    2    0    0  0.75632382993E+01 -0.25185869873E+02 -0.43557996038E+01  0.26655273494E+02  0.00000000000E+00 0. -1.
         11    1    1    2    0    0 -0.14618301078E+02  0.54107772738E+02  0.69008243900E+02  0.88901538362E+02  0.00000000000E+00 0.  1.
</event>
<event>
 7    1  0.2440960E-009  0.9910816E+02  0.7561462E-02  0.1282183E+00
          4   -1    0    0  501    0  0.00000000000E+00  0.00000000000E+00  0.49836394426E+03  0.49836394426E+03  0.00000000000E+00 0.  1.
         -4   -1    0    0    0  501 -0.00000000000E+00 -0.00000000000E+00 -0.26125899459E+02  0.26125899459E+02  0.00000000000E+00 0. -1.
         25    2    1    2    0    0 -0.39575381016E+01 -0.79536437047E+01  0.34842849265E+03  0.37030909195E+03  0.12508991379E+03 0.  0.
          5    1    3    3  502    0  0.19110724382E+02 -0.62160330399E+02  0.20792714450E+03  0.21789973906E+03  0.41800000000E+01 0. -1.
         -5    1    3    3    0  502 -0.23068262483E+02  0.54206686694E+02  0.14050134815E+03  0.15240935289E+03  0.41800000000E+01 0. -1.
        -11    1    1    2    0    0  0.33127505057E+02  0.23804116723E+02  0.11157751359E+03  0.11880071171E+03  0.00000000000E+00 0.  1.
         11    1    1    2    0    0 -0.29169966955E+02 -0.15850473018E+02  0.12232038557E+02  0.35380040055E+02  0.00000000000E+00 0. -1.
</event>
<event>
 7    1  0.2440960E-009  0.1052884E+03  0.7561462E-02  0.1269552E+00
          1   -1    0    0  501    0  0.00000000000E+00  0.00000000000E+00  0.30738744464E+02  0.30738744464E+02  0.00000000000E+00 0. -1.
         -1   -1    0    0    0  501 -0.00000000000E+00 -0.00000000000E+00 -0.41180267215E+03  0.41180267215E+03  0.00000000000E+00 0.  1.
         25    2    1    2    0    0 -0.86573865099E+01 -0.31394636012E+02 -0.19333530634E+03  0.23256695725E+03  0.12509306702E+03 0.  0.
          5    1    3    3  502    0  0.51953609638E+02 -0.11134238136E+02 -0.13797892765E+03  0.14791485959E+03  0.41800000000E+01 0. -1.
         -5    1    3    3    0  502 -0.60610996148E+02 -0.20260397877E+02 -0.55356378692E+02  0.84652097660E+02  0.41800000000E+01 0. -1.
        -11    1    1    2    0    0  0.31648275385E+02 -0.19649728791E+02 -0.88928563864E+02  0.96415842304E+02  0.00000000000E+00 0.  1.
         11    1    1    2    0    0 -0.22990888875E+02  0.51044364803E+02 -0.98800057476E+02  0.11355861705E+03  0.00000000000E+00 0. -1.
</event>
<event>
 7    1  0.2440960E-009  0.1130524E+03  0.7561462E-02  0.1255020E+00
          1   -1    0    0  501    0  0.00000000000E+00  0.00000000000E+00  0.18202177113E+03  0.18202177113E+03  0.00000000000E+00 0. -1.
         -1   -1    0    0    0  501 -0.00000000000E+00 -0.00000000000E+00 -0.83333707573E+02  0.83333707573E+02  0.00000000000E+00 0.  1.
         25    2    1    2    0    0 -0.35618161494E+02  0.46852540155E+02  0.63085044393E+02  0.15195671210E+03  0.12508919050E+03 0.  0.
          5    1    3    3  502    0 -0.47991789692E+02 -0.18654314677E+02 -0.10351545828E+02  0.52686072495E+02  0.41800000000E+01 0.  1.
         -5    1    3    3    0  502  0.12373628198E+02  0.65506854832E+02  0.73436590221E+02  0.99270639607E+02  0.41800000000E+01 0.  1.
        -11    1    1    2    0    0  0.65843497305E+02 -0.25345183474E+02  0.22423273622E+02  0.74030721074E+02  0.00000000000E+00 0. -1.
         11    1    1    2    0    0 -0.30225335811E+02 -0.21507356681E+02  0.13179745546E+02  0.39368045531E+02  0.00000000000E+00 0.  1.
</event>
<event>
 7    1  0.2440960E-009  0.9228664E+02  0.7561462E-02  0.1297407E+00
          1   -1    0    0  501    0  0.00000000000E+00  0.00000000000E+00  0.84951948302E+02  0.84951948302E+02  0.00000000000E+00 0. -1.
         -1   -1    0    0    0  501 -0.00000000000E+00 -0.00000000000E+00 -0.14011117155E+03  0.14011117155E+03  0.00000000000E+00 0.  1.
         25    2    1    2    0    0  0.10151439224E+02  0.54972557258E+01 -0.28799052422E+02  0.12888291567E+03  0.12509256170E+03 0.  0.
          5    1    3    3  502    0  0.62943938259E+02  0.23507349857E+02 -0.28080411883E+02  0.72941872696E+02  0.41800000000E+01 0.  1.
         -5    1    3    3    0  502 -0.52792499035E+02 -0.18010094131E+02 -0.71864053955E+00  0.55941042975E+02  0.41800000000E+01 0.  1.
        -11    1    1    2    0    0 -0.28001704174E+02 -0.23060214820E+02 -0.49980032344E+02  0.61756558982E+02  0.00000000000E+00 0.  1.
         11    1    1    2    0    0  0.17850264950E+02  0.17562959095E+02  0.23619861515E+02  0.34423645201E+02  0.00000000000E+00 0. -1.
</event>
<event>
 7    1  0.2440960E-009  0.1428479E+03  0.7561462E-02  0.1209547E+00
         -1   -1    0    0    0  501 -0.00000000000E+00  0.00000000000E+00  0.24006147465E+02  0.24006147465E+02  0.00000000000E+00 0.  1.
          1   -1    0    0  501    0  0.00000000000E+00 -0.00000000000E+00 -0.87081473486E+03  0.87081473486E+03  0.00000000000E+00 0. -1.
         25    2    1    2    0    0  0.88668639786E+01 -0.95127236917E+02 -0.43593918773E+03  0.46348432483E+03  0.12508769518E+03 0.  0.
          5    1    3    3  502    0  0.66120264746E+02 -0.40764086168E+02 -0.19686659569E+03  0.21167788980E+03  0.41800000000E+01 0. -1.
         -5    1    3    3    0  502 -0.57253400767E+02 -0.54363150749E+02 -0.23907259204E+03  0.25180643503E+03  0.41800000000E+01 0. -1.
        -11    1    1    2    0    0 -0.32432686194E+02  0.99697748113E+02 -0.36221680716E+03  0.37708425518E+03  0.00000000000E+00 0. -1.
         11    1    1    2    0    0  0.23565822216E+02 -0.45705111954E+01 -0.48652592507E+02  0.54252302319E+02  0.00000000000E+00 0.  1.
</event>
<event>
 7    1  0.2440960E-009  0.9840609E+02  0.7561462E-02  0.1283684E+00
         -2   -1    0    0    0  501 -0.00000000000E+00  0.00000000000E+00  0.26713587073E+02  0.26713587073E+02  0.00000000000E+00 0.  1.
          2   -1    0    0  501    0  0.00000000000E+00 -0.00000000000E+00 -0.69457459865E+03  0.69457459865E+03  0.00000000000E+00 0. -1.
         25    2    1    2    0    0  0.41011401016E+02 -0.64536560770E+02 -0.43157092136E+03  0.45579406382E+03  0.12509142959E+03 0.  0.
          5    1    3    3  502    0  0.33011926512E+02  0.17584343403E+02 -0.28557129448E+03  0.28804067952E+03  0.41800000000E+01 0. -1.
         -5    1    3    3    0  502  0.79994745046E+01 -0.82120904173E+02 -0.14599962688E+03  0.16775338430E+03  0.41800000000E+01 0. -1.
        -11    1    1    2    0    0 -0.11294295721E+02  0.14716812800E+02  0.34208541368E+01  0.18863932195E+02  0.00000000000E+00 0.  1.
         11    1    1    2    0    0 -0.29717105295E+02  0.49819747970E+02 -0.23971094436E+03  0.24663018972E+03  0.00000000000E+00 0. -1.
</event>
<event>
 7    1  0.2440960E-009  0.2191993E+03  0.7561462E-02  0.1134481E+00
          2   -1    0    0  501    0  0.00000000000E+00  0.00000000000E+00  0.12142766256E+04  0.12142766256E+04  0.00000000000E+00 0. -1.
         -2   -1    0    0    0  501 -0.00000000000E+00 -0.00000000000E+00 -0.51869903494E+02  0.51869903494E+02  0.00000000000E+00 0.  1.
         25    2    1    2    0    0 -0.11978704227E+03 -0.17267504868E+03  0.38693628122E+03  0.45774883367E+03  0.12509476835E+03 0.  0.
          5    1    3    3  502    0  0.28076084110E+01 -0.64459925415E+02  0.19566111271E+03  0.20606724163E+03  0.41800000000E+01 0.  1.
         -5    1    3    3    0  502 -0.12259465068E+03 -0.10821512326E+03  0.19127516851E+03  0.25168159203E+03  0.41800000000E+01 0.  1.
        -11    1    1    2    0    0  0.70777835533E+02  0.10371697048E+03  0.60731873310E+03  0.62016349098E+03  0.00000000000E+00 0. -1.
         11    1    1    2    0    0  0.49009206740E+02  0.68958078196E+02  0.16815170783E+03  0.18823420449E+03  0.00000000000E+00 0.  1.
</event>
<event>
 7    1  0.2440960E-009  0.1078501E+03  0.7561462E-02  0.1264604E+00
         -1   -1    0    0    0  501 -0.00000000000E+00  0.00000000000E+00  0.43856065767E+02  0.43856065767E+02  0.00000000000E+00 0.  1.
          1   -1    0    0  501    0  0.00000000000E+00 -0.00000000000E+00 -0.35248251736E+03  0.35248251736E+03  0.00000000000E+00 0. -1.
         25    2    1    2    0    0 -0.53737269604E+02 -0.69739663420E+01 -0.21728376705E+03  0.25650642836E+03  0.12508789717E+03 0.  0.
          5    1    3    3  502    0 -0.93532503924E+02 -0.12777606656E+02 -0.16808016412E+03  0.19282118787E+03  0.41800000000E+01 0. -1.
         -5    1    3    3    0  502  0.39795234319E+02  0.58036403136E+01 -0.49203602928E+02  0.63685240492E+02  0.41800000000E+01 0. -1.
        -11    1    1    2    0    0  0.46230718963E+02 -0.21745290907E+02 -0.96983176542E+02  0.10961694023E+03  0.00000000000E+00 0. -1.
         11    1    1    2    0    0  0.75065506415E+01  0.28719257249E+02  0.56404919962E+01  0.30215214535E+02  0.00000000000E+00 0.  1.
</event>
<event>
 7    1  0.2440960E-009  0.1260551E+03  0.7561462E-02  0.1233430E+00
          1   -1    0    0  501    0  0.00000000000E+00  0.00000000000E+00  0.63241505173E+02  0.63241505173E+02  0.00000000000E+00 0. -1.
         -1   -1    0    0    0  501 -0.00000000000E+00 -0.00000000000E+00 -0.33679853569E+03  0.33679853569E+03  0.00000000000E+00 0.  1.
         25    2    1    2    0    0 -0.91599658760E+02  0.25116211123E+02 -0.12141695889E+03  0.19853291131E+03  0.12510762335E+03 0.  0.
          5    1    3    3  502    0 -0.11147534225E+03  0.12681765028E+02 -0.13129369245E+03  0.17275151279E+03  0.41800000000E+01 0. -1.
         -5    1    3    3    0  502  0.19875683488E+02  0.12434446095E+02  0.98767335596E+01  0.25781398519E+02  0.41800000000E+01 0. -1.
        -11    1    1    2    0    0 -0.90735309674E+01 -0.11166807567E+02 -0.68168605342E+02  0.69670548367E+02  0.00000000000E+00 0.  1.
         11    1    1    2    0    0  0.10067318973E+03 -0.13949403557E+02 -0.83971466282E+02  0.13183658119E+03  0.00000000000E+00 0. -1.
</event>
<event>
 7    1  0.2440960E-009  0.9241867E+02  0.7561462E-02  0.1297098E+00
         -1   -1    0    0    0  501 -0.00000000000E+00  0.00000000000E+00  0.35988071785E+02  0.35988071785E+02  0.00000000000E+00 0.  1.
          1   -1    0    0  501    0  0.00000000000E+00 -0.00000000000E+00 -0.33549640638E+03  0.33549640638E+03  0.00000000000E+00 0. -1.
         25    2    1    2    0    0 -0.16312848499E+02  0.24821978521E+02 -0.18212035599E+03  0.22293066635E+03  0.12509203927E+03 0.  0.
          5    1    3    3  502    0 -0.53532928478E+02 -0.91461821383E+01 -0.29063393048E+02  0.61737997170E+02  0.41800000000E+01 0.  1.
         -5    1    3    3    0  502  0.37220079979E+02  0.33968160659E+02 -0.15305696294E+03  0.16119266918E+03  0.41800000000E+01 0.  1.
        -11    1    1    2    0    0  0.62715198194E+01 -0.51198733538E+02 -0.37346229527E+02  0.63681890178E+02  0.00000000000E+00 0.  1.
         11    1    1    2    0    0  0.10041328679E+02  0.26376755017E+02 -0.80041749078E+02  0.84871921637E+02  0.00000000000E+00 0. -1.
</event>
<event>
 7    1  0.2440960E-009  0.8769836E+02  0.7561462E-02  0.1308523E+00
         -1   -1    0    0    0  501 -0.00000000000E+00  0.00000000000E+00  0.92632153541E+02  0.92632153541E+02  0.00000000000E+00 0.  1.
          1   -1    0    0  501    0  0.00000000000E+00 -0.00000000000E+00 -0.19641705399E+03  0.19641705399E+03  0.00000000000E+00 0. -1.
         25    2    1    2    0    0  0.50482940630E+02 -0.41928447184E+02 -0.64747899666E+01  0.14140544558E+03  0.12508818951E+03 0.  0.
          5    1    3    3  502    0  0.72325515317E+02 -0.14366467701E+02 -0.47033064810E+02  0.87561162312E+02  0.41800000000E+01 0.  1.
         -5    1    3    3    0  502 -0.21842574687E+02 -0.27561979483E+02  0.40558274843E+02  0.53844283264E+02  0.41800000000E+01 0.  1.
        -11    1    1    2    0    0 -0.42492483117E+02  0.31055361516E+02 -0.11436627819E+03  0.12589556064E+03  0.00000000000E+00 0. -1.
         11    1    1    2    0    0 -0.79904575126E+01  0.10873085669E+02  0.17056167716E+02  0.21748201314E+02  0.00000000000E+00 0.  1.
</event>
<event>
 7    1  0.2440960E-009  0.1046183E+03  0.7561462E-02  0.1270873E+00
         -3   -1    0    0    0  501 -0.00000000000E+00  0.00000000000E+00  0.33397356811E+03  0.33397356811E+03  0.00000000000E+00 0.  1.
          3   -1    0    0  501    0  0.00000000000E+00 -0.00000000000E+00 -0.41366785341E+02  0.41366785341E+02  0.00000000000E+00 0. -1.
         25    2    1    2    0    0  0.69122778633E+01 -0.43729132676E+02  0.18048462492E+03  0.22401317609E+03  0.12508871493E+03 0.  0.
          5    1    3    3  502    0 -0.56627086947E+02 -0.38434277472E+02  0.99995912512E+02  0.12124551777E+03  0.41800000000E+01 0. -1.
         -5    1    3    3    0  502  0.63539364810E+02 -0.52948552036E+01  0.80488712405E+02  0.10276765832E+03  0.41800000000E+01 0. -1.
        -11    1    1    2    0    0  0.14489137238E+02 -0.10881202570E+02 -0.62929040990E+01  0.19181665967E+02  0.00000000000E+00 0. -1.
         11    1    1    2    0    0 -0.21401415101E+02  0.54610335246E+02  0.11841506195E+03  0.13214551139E+03  0.00000000000E+00 0.  1.
</event>
<event>
 7    1  0.2440960E-009  0.1268102E+03  0.7561462E-02  0.1232267E+00
         -2   -1    0    0    0  501 -0.00000000000E+00  0.00000000000E+00  0.10134727948E+03  0.10134727948E+03  0.00000000000E+00 0.  1.
          2   -1    0    0  501    0  0.00000000000E+00 -0.00000000000E+00 -0.20526544835E+03  0.20526544835E+03  0.00000000000E+00 0. -1.
         25    2    1    2    0    0 -0.64238261821E+02 -0.69405864178E+02 -0.43124053788E+02  0.16263533736E+03  0.12508733221E+03 0.  0.
          5    1    3    3  502    0  0.22772234091E+02  0.18441500436E+02 -0.22573275190E+02  0.37224840317E+02  0.41800000000E+01 0.  1.
         -5    1    3    3    0  502 -0.87010495912E+02 -0.87847364614E+02 -0.20550778597E+02  0.12541049705E+03  0.41800000000E+01 0.  1.
        -11    1    1    2    0    0  0.27099946998E+02  0.53363831191E+02  0.11677240570E+02  0.60979205915E+02  0.00000000000E+00 0.  1.
         11    1    1    2    0    0  0.37138314823E+02  0.16042032986E+02 -0.72471355651E+02  0.82998184559E+02  0.00000000000E+00 0. -1.
</event>
<event>
 7    1  0.2440960E-009  0.9599334E+02  0.7561462E-02  0.1288954E+00
          1   -1    0    0  501    0  0.00000000000E+00  0.00000000000E+00  0.17510640811E+03  0.17510640811E+03  0.00000000000E+00 0.  1.
         -1   -1    0    0    0  501 -0.00000000000E+00 -0.00000000000E+00 -0.19393492631E+03  0.19393492631E+03  0.00000000000E+00 0. -1.
         25    2    1    2    0    0  0.62015957579E+02  0.39818049385E+02 -0.13678947883E+03  0.19947565683E+03  0.12509084738E+03 0.  0.
          5    1    3    3  502    0  0.24437226642E+01 -0.10889419542E+01 -0.12622553420E+03  0.12632305988E+03  0.41800000000E+01 0.  1.
         -5    1    3    3    0  502  0.59572234915E+02  0.40906991339E+02 -0.10563944630E+02  0.73152596942E+02  0.41800000000E+01 0.  1.
        -11    1    1    2    0    0 -0.22978036639E+02 -0.64487239770E+02  0.97312285136E+02  0.11898014582E+03  0.00000000000E+00 0. -1.
         11    1    1    2    0    0 -0.39037920940E+02  0.24669190385E+02  0.20648675486E+02  0.50585531774E+02  0.00000000000E+00 0.  1.
</event>
<event>
 7    1  0.2440960E-009  0.1629606E+03  0.7561462E-02  0.1185394E+00
          1   -1    0    0  501    0  0.00000000000E+00  0.00000000000E+00  0.99567728871E+02  0.99567728871E+02  0.00000000000E+00 0. -1.
         -1   -1    0    0    0  501 -0.00000000000E+00 -0.00000000000E+00 -0.35476985207E+03  0.35476985207E+03  0.00000000000E+00 0.  1.
         25    2    1    2    0    0  0.70148502768E+01 -0.13021692361E+03 -0.37929714952E+02  0.18464127261E+03  0.12509228976E+03 0.  0.
          5    1    3    3  502    0  0.25177962444E+02 -0.14840725433E+03 -0.17616779298E+02  0.15161288285E+03  0.41800000000E+01 0.  1.
         -5    1    3    3    0  502 -0.18163112167E+02  0.18190330728E+02 -0.20312935653E+02  0.33028389764E+02  0.41800000000E+01 0.  1.
        -11    1    1    2    0    0 -0.29755035848E+02  0.17960807285E+02 -0.16324114315E+02  0.38398300286E+02  0.00000000000E+00 0.  1.
         11    1    1    2    0    0  0.22740185571E+02  0.11225611632E+03 -0.20094829393E+03  0.23129800804E+03  0.00000000000E+00 0. -1.
</event>
<event>
 7    1  0.2440960E-009  0.1185347E+03  0.7561462E-02  0.1245534E+00
          2   -1    0    0  501    0  0.00000000000E+00  0.00000000000E+00  0.89474923301E+02  0.89474923301E+02  0.00000000000E+00 0. -1.
         -2   -1    0    0    0  501 -0.00000000000E+00 -0.00000000000E+00 -0.22154537763E+03  0.22154537763E+03  0.00000000000E+00 0.  1.
         25    2    1    2    0    0 -0.81320910931E+02 -0.41244147901E+02 -0.68514287217E+02  0.16928091306E+03  0.12509056592E+03 0.  0.
          5    1    3    3  502    0 -0.64879047597E+02  0.33204150522E+01  0.20541581263E+02  0.68262324411E+02  0.41800000000E+01 0. -1.
         -5    1    3    3    0  502 -0.16441863333E+02 -0.44564562954E+02 -0.89055868479E+02  0.10101858864E+03  0.41800000000E+01 0. -1.
        -11    1    1    2    0    0  0.31189572700E+02  0.62488357563E+02 -0.21925488708E+02  0.73200487233E+02  0.00000000000E+00 0. -1.
         11    1    1    2    0    0  0.50131338230E+02 -0.21244209661E+02 -0.41630678406E+02  0.68538900644E+02  0.00000000000E+00 0.  1.
</event>
<event>
 7    1  0.2440960E-009  0.2177799E+03  0.7561462E-02  0.1135549E+00
         -1   -1    0    0    0  501 -0.00000000000E+00  0.00000000000E+00  0.10012480844E+04  0.10012480844E+04  0.00000000000E+00 0.  1.
          1   -1    0    0  501    0  0.00000000000E+00 -0.00000000000E+00 -0.52010888440E+02  0.52010888440E+02  0.00000000000E+00 0. -1.
         25    2    1    2    0    0  0.19071286976E+03  0.39623717257E+02  0.43809652301E+03  0.49549671742E+03  0.12508795243E+03 0.  0.
          5    1    3    3  502    0 -0.83990706018E+01 -0.14549937313E+02  0.93893732655E+01  0.19694613302E+02  0.41800000000E+01 0. -1.
         -5    1    3    3    0  502  0.19911194036E+03  0.54173654569E+02  0.42870714974E+03  0.47580210412E+03  0.41800000000E+01 0. -1.
        -11    1    1    2    0    0 -0.11641924346E+03 -0.65013963203E+02  0.40035581250E+03  0.42197752578E+03  0.00000000000E+00 0.  1.
         11    1    1    2    0    0 -0.74293626303E+02  0.25390245947E+02  0.11078486045E+03  0.13578472964E+03  0.00000000000E+00 0. -1.
</event>
<event>
 7    1  0.2440960E-009  0.1869887E+03  0.7561462E-02  0.1161206E+00
         -1   -1    0    0    0  501 -0.00000000000E+00  0.00000000000E+00  0.15300616882E+03  0.15300616882E+03  0.00000000000E+00 0.  1.
          1   -1    0    0  501    0  0.00000000000E+00 -0.00000000000E+00 -0.30817950518E+03  0.30817950518E+03  0.00000000000E+00 0. -1.
         25    2    1    2    0    0 -0.16927519596E+03 -0.65285877217E+02 -0.29376028085E+02  0.22231895399E+03  0.12508568480E+03 0.  0.
          5    1    3    3  502    0 -0.33975436046E+02 -0.95653537680E+01  0.45628405722E+02  0.57838136691E+02  0.41800000000E+01 0.  1.
         -5    1    3    3    0  502 -0.13529975992E+03 -0.55720523449E+02 -0.75004433807E+02  0.16448081729E+03  0.41800000000E+01 0.  1.
        -11    1    1    2    0    0  0.57499849195E+02  0.55388089922E+02 -0.15121922887E+02  0.81257280994E+02  0.00000000000E+00 0.  1.
         11    1    1    2    0    0  0.11177534677E+03  0.98977872947E+01 -0.11067538538E+03  0.15760943902E+03  0.00000000000E+00 0. -1.
</event>
<event>
 7    1  0.2440960E-009  0.1144635E+03  0.7561462E-02  0.1252520E+00
          2   -1    0    0  501    0  0.00000000000E+00  0.00000000000E+00  0.68150257640E+03  0.68150257640E+03  0.00000000000E+00 0. -1.
         -2   -1    0    0    0  501 -0.00000000000E+00 -0.00000000000E+00 -0.22703549405E+02  0.22703549405E+02  0.00000000000E+00 0.  1.
         25    2    1    2    0    0  0.19146561132E+02  0.56901011364E+02  0.37356669640E+03  0.39850443380E+03  0.12509752675E+03 0.  0.
          5    1    3    3  502    0  0.36661914656E+02 -0.20038118447E+02  0.49342962146E+02  0.64790604955E+02  0.41800000000E+01 0.  1.
         -5    1    3    3    0  502 -0.17515353524E+02  0.76939129811E+02  0.32422373426E+03  0.33371382884E+03  0.41800000000E+01 0.  1.
        -11    1    1    2    0    0  0.35135593167E+02 -0.10957824691E+02  0.70967642496E+02  0.79943668358E+02  0.00000000000E+00 0.  1.
         11    1    1    2    0    0 -0.54282154299E+02 -0.45943186673E+02  0.21426468810E+03  0.22575802365E+03  0.00000000000E+00 0. -1.
</event>
<event>
 7    1  0.2440960E-009  0.1273813E+03  0.7561462E-02  0.1231394E+00
         -1   -1    0    0    0  501 -0.00000000000E+00  0.00000000000E+00  0.43313768065E+02  0.43313768065E+02  0.00000000000E+00 0.  1.
          1   -1    0    0  501    0  0.00000000000E+00 -0.00000000000E+00 -0.53165326229E+03  0.53165326229E+03  0.00000000000E+00 0. -1.
         25    2    1    2    0    0 -0.94891825032E+02 -0.40062309887E+02 -0.21837930672E+03  0.27193415094E+03  0.12509681736E+03 0.  0.
          5    1    3    3  502    0 -0.10600656501E+03 -0.14766819255E+02 -0.88091212042E+02  0.13868303723E+03  0.41800000000E+01 0.  1.
         -5    1    3    3    0  502  0.11114739974E+02 -0.25295490631E+02 -0.13028809468E+03  0.13325111371E+03  0.41800000000E+01 0.  1.
        -11    1    1    2    0    0  0.59326162047E+02  0.55217603242E+02 -0.24230380742E+03  0.25549894775E+03  0.00000000000E+00 0. -1.
         11    1    1    2    0    0  0.35565662985E+02 -0.15155293356E+02 -0.27656380085E+02  0.47533931666E+02  0.00000000000E+00 0.  1.
</event>
<event>
 7    1  0.2440960E-009  0.3862727E+03  0.7561462E-02  0.1048639E+00
          2   -1    0    0  501    0  0.00000000000E+00  0.00000000000E+00  0.17688037785E+04  0.17688037785E+04  0.00000000000E+00 0.  1.
         -2   -1    0    0    0  501 -0.00000000000E+00 -0.00000000000E+00 -0.10613125825E+03  0.10613125825E+03  0.00000000000E+00 0. -1.
         25    2    1    2    0    0 -0.38413267579E+02  0.37673616226E+03  0.12262024842E+04  0.12894283889E+04  0.12508925929E+03 0.  0.
          5    1    3    3  502    0  0.25074527062E+02  0.17756588706E+03  0.71414905236E+03  0.73633193434E+03  0.41800000000E+01 0.  1.
         -5    1    3    3    0  502 -0.63487794641E+02  0.19917027520E+03  0.51205343188E+03  0.55309645460E+03  0.41800000000E+01 0.  1.
        -11    1    1    2    0    0  0.54411656414E+02 -0.22410770034E+03  0.20979172468E+03  0.31176506772E+03  0.00000000000E+00 0.  1.
         11    1    1    2    0    0 -0.15998388835E+02 -0.15262846192E+03  0.22667831133E+03  0.27374158008E+03  0.00000000000E+00 0. -1.
</event>
<event>
 7    1  0.2440960E-009  0.9280254E+02  0.7561462E-02  0.1296203E+00
          3   -1    0    0  501    0  0.00000000000E+00  0.00000000000E+00  0.27307258601E+02  0.27307258601E+02  0.00000000000E+00 0. -1.
         -3   -1    0    0    0  501 -0.00000000000E+00 -0.00000000000E+00 -0.42463311939E+03  0.42463311939E+03  0.00000000000E+00 0.  1.
         25    2    1    2    0    0  0.32366612476E+01  0.56635635518E+01 -0.25145260629E+03  0.28092483754E+03  0.12509116360E+03 0.  0.
          5    1    3    3  502    0 -0.53312194499E+02  0.21126886738E+02 -0.72288853355E+02  0.92367126971E+02  0.41800000000E+01 0.  1.
         -5    1    3    3    0  502  0.56548855746E+02 -0.15463323187E+02 -0.17916375293E+03  0.18855771057E+03  0.41800000000E+01 0.  1.
        -11    1    1    2    0    0 -0.29242419925E+02 -0.23737157292E+02 -0.13047237725E+03  0.13579990053E+03  0.00000000000E+00 0.  1.
         11    1    1    2    0    0  0.26005758677E+02  0.18073593740E+02 -0.15400877260E+02  0.35215639926E+02  0.00000000000E+00 0. -1.
</event>
<event>
 7    1  0.2440960E-009  0.8688346E+02  0.7561462E-02  0.1310579E+00
         -2   -1    0    0    0  501 -0.00000000000E+00  0.00000000000E+00  0.48520791431E+02  0.48520791431E+02  0.00000000000E+00 0.  1.
          2   -1    0    0  501    0  0.00000000000E+00 -0.00000000000E+00 -0.33817385440E+03  0.33817385440E+03  0.00000000000E+00 0. -1.
         25    2    1    2    0    0 -0.21795444679E+01  0.25578188162E+02 -0.14995236012E+03  0.19695748659E+03  0.12509015588E+03 0.  0.
          5    1    3    3  502    0 -0.27217584737E+02 -0.34723824341E+02 -0.11398211338E+03  0.12229446213E+03  0.41800000000E+01 0. -1.
         -5    1    3    3    0  502  0.25038040269E+02  0.60302012503E+02 -0.35970246732E+02  0.74663024466E+02  0.41800000000E+01 0. -1.
        -11    1    1    2    0    0 -0.12435443831E+02  0.15818791827E+02  0.17410115542E+02  0.26608016862E+02  0.00000000000E+00 0.  1.
         11    1    1    2    0    0  0.14614988299E+02 -0.41396979990E+02 -0.15711081840E+03  0.16312914238E+03  0.00000000000E+00 0. -1.
</event>
<event>
 7    1  0.2563088E-009  0.1011403E+03  0.7561462E-02  0.1277916E+00
         -1   -1    0    0    0  501 -0.00000000000E+00  0.00000000000E+00  0.35144562074E+02  0.35144562074E+02  0.00000000000E+00 0.  1.
          1   -1    0    0  501    0  0.00000000000E+00 -0.00000000000E+00 -0.49142231867E+03  0.49142231867E+03  0.00000000000E+00 0. -1.
         25    2    1    2    0    0  0.56123687485E+02 -0.45504728159E+02 -0.28731198707E+03  0.32158419319E+03  0.12509063438E+03 0.  0.
          5    1    3    3  502    0  0.76134645038E+02 -0.36571618369E+01 -0.86167213018E+02  0.11511785269E+03  0.41800000000E+01 0.  1.
         -5    1    3    3    0  502 -0.20010957553E+02 -0.41847566322E+02 -0.20114477406E+03  0.20646634050E+03  0.41800000000E+01 0.  1.
        -11    1    1    2    0    0 -0.30097950723E+02  0.39754932120E+01 -0.14900010666E+03  0.15206157624E+03  0.00000000000E+00 0. -1.
         11    1    1    2    0    0 -0.26025736762E+02  0.41529234947E+02 -0.19965662855E+02  0.52921111312E+02  0.00000000000E+00 0.  1.
</event>
<event>
 7    1  0.2440960E-009  0.9247282E+02  0.7561462E-02  0.1296972E+00
          1   -1    0    0  501    0  0.00000000000E+00  0.00000000000E+00  0.13233715216E+02  0.13233715216E+02  0.00000000000E+00 0. -1.
         -1   -1    0    0    0  501 -0.00000000000E+00 -0.00000000000E+00 -0.12017034901E+04  0.12017034901E+04  0.00000000000E+00 0.  1.
         25    2    1    2    0    0  0.54904158041E+02  0.14856385759E+02 -0.81106404598E+03  0.82262270254E+03  0.12509214716E+03 0.  0.
          5    1    3    3  502    0  0.33627727849E+02 -0.34683652320E+02 -0.66672506136E+03  0.66848602054E+03  0.41800000000E+01 0. -1.
         -5    1    3    3    0  502  0.21276430192E+02  0.49540038079E+02 -0.14433898462E+03  0.15413668199E+03  0.41800000000E+01 0. -1.
        -11    1    1    2    0    0 -0.65230391275E+02 -0.11794269692E+01 -0.36590505709E+03  0.37167580738E+03  0.00000000000E+00 0.  1.
         11    1    1    2    0    0  0.10326233234E+02 -0.13676958790E+02 -0.11500671775E+02  0.20638695352E+02  0.00000000000E+00 0. -1.
</event>
<event>
 7    1  0.2440960E-009  0.1012507E+03  0.7561462E-02  0.1277688E+00
         -1   -1    0    0    0  501 -0.00000000000E+00  0.00000000000E+00  0.12779008284E+03  0.12779008284E+03  0.00000000000E+00 0.  1.
          1   -1    0    0  501    0  0.00000000000E+00 -0.00000000000E+00 -0.13688607494E+03  0.13688607494E+03  0.00000000000E+00 0. -1.
         25    2    1    2    0    0 -0.49186249354E+02 -0.65616990695E+01 -0.64536878038E+02  0.14924832778E+03  0.12509081381E+03 0.  0.
          5    1    3    3  502    0 -0.68623785287E+02  0.37194981093E+02 -0.64252461594E+02  0.10118567955E+03  0.41800000000E+01 0. -1.
         -5    1    3    3    0  502  0.19437535934E+02 -0.43756680163E+02 -0.28441644442E+00  0.48062648229E+02  0.41800000000E+01 0. -1.
        -11    1    1    2    0    0 -0.14684594609E+01 -0.19328697218E+02  0.55237192461E+02  0.58539750087E+02  0.00000000000E+00 0.  1.
         11    1    1    2    0    0  0.50654708814E+02  0.25890396287E+02  0.20369348299E+00  0.56888079912E+02  0.00000000000E+00 0. -1.
</event>
<event>
 7    1  0.2440960E-009  0.1055039E+03  0.7561462E-02  0.1269130E+00
         -2   -1    0    0    0  501 -0.00000000000E+00  0.00000000000E+00  0.23244192636E+03  0.23244192636E+03  0.00000000000E+00 0.  1.
          2   -1    0    0  501    0  0.00000000000E+00 -0.00000000000E+00 -0.70544267405E+02  0.70544267405E+02  0.00000000000E+00 0. -1.
         25    2    1    2    0    0  0.21378181588E+02  0.61826257809E+02  0.64525302003E+02  0.15521081082E+03  0.12508944158E+03 0.  0.
          5    1    3    3  502    0 -0.22810534792E+02 -0.16405673438E+02  0.58536780635E+02  0.65065303392E+02  0.41800000000E+01 0. -1.
         -5    1    3    3    0  502  0.44188716380E+02  0.78231931247E+02  0.59885213685E+01  0.90145507432E+02  0.41800000000E+01 0. -1.
        -11    1    1    2    0    0  0.23674537343E+02 -0.17391490207E+02  0.75184234214E+02  0.80719370193E+02  0.00000000000E+00 0.  1.
         11    1    1    2    0    0 -0.45052718930E+02 -0.44434767602E+02  0.22188122736E+02  0.67056012746E+02  0.00000000000E+00 0. -1.
</event>
<event>
 7    1  0.2440960E-009  0.7060726E+02  0.7561462E-02  0.1358040E+00
          2   -1    0    0  501    0  0.00000000000E+00  0.00000000000E+00  0.14597296830E+03  0.14597296830E+03  0.00000000000E+00 0. -1.
         -2   -1    0    0    0  501 -0.00000000000E+00 -0.00000000000E+00 -0.83987625921E+02  0.83987625921E+02  0.00000000000E+00 0.  1.
         25    2    1    2    0    0  0.14415173332E+02 -0.18136878285E+02  0.31058870038E+02  0.13095674899E+03  0.12509305785E+03 0.  0.
          5    1    3    3  502    0  0.33858297076E+02  0.82997256872E+01  0.70932491199E+02  0.79146449289E+02  0.41800000000E+01 0.  1.
         -5    1    3    3    0  502 -0.19443123743E+02 -0.26436603972E+02 -0.39873621161E+02  0.51810299700E+02  0.41800000000E+01 0.  1.
        -11    1    1    2    0    0  0.27704443841E+02  0.12959620796E+02  0.44898360982E+02  0.54326336142E+02  0.00000000000E+00 0. -1.
         11    1    1    2    0    0 -0.42119617173E+02  0.51772574885E+01 -0.13971888644E+02  0.44677509087E+02  0.00000000000E+00 0.  1.
</event>
<event>
 7    1  0.2440960E-009  0.7953834E+02  0.7561462E-02  0.1330367E+00
          1   -1    0    0  501    0  0.00000000000E+00  0.00000000000E+00  0.52189763027E+02  0.52189763027E+02  0.00000000000E+00 0. -1.
         -1   -1    0    0    0  501 -0.00000000000E+00 -0.00000000000E+00 -0.48715214882E+03  0.48715214882E+03  0.00000000000E+00 0.  1.
         25    2    1    2    0    0 -0.26148039817E+02  0.43446555496E+02 -0.41117371653E+03  0.43276122603E+03  0.12508849033E+03 0.  0.
          5    1    3    3  502    0 -0.18394687309E+02  0.62213926977E+02 -0.90564698082E+02  0.11148261824E+03  0.41800000000E+01 0. -1.
         -5    1    3    3    0  502 -0.77533525083E+01 -0.18767371481E+02 -0.32060901845E+03  0.32127860779E+03  0.41800000000E+01 0. -1.
        -11    1    1    2    0    0  0.21975558000E+02 -0.55972334141E+02  0.17990339331E+02  0.62765274219E+02  0.00000000000E+00 0. -1.
         11    1    1    2    0    0  0.41724818168E+01  0.12525778645E+02 -0.41779008594E+02  0.43815411607E+02  0.00000000000E+00 0.  1.
</event>
<event>
 7    1  0.2688228E-009  0.9482651E+02  0.7561462E-02  0.1291567E+00
         -2   -1    0    0    0  501 -0.00000000000E+00  0.00000000000E+00  0.37278613079E+02  0.37278613079E+02  0.00000000000E+00 0.  1.
          2   -1    0    0  501    0  0.00000000000E+00 -0.00000000000E+00 -0.47013500692E+03  0.47013500692E+03  0.00000000000E+00 0. -1.
         25    2    1    2    0    0 -0.58102522425E+02  0.11447369692E+02 -0.32772345078E+03  0.35574752847E+03  0.12508676364E+03 0.  0.
          5    1    3    3  502    0  0.35584257282E+02  0.58935752833E+00 -0.44090827617E+02  0.56816020527E+02  0.41800000000E+01 0.  1.
         -5    1    3    3    0  502 -0.93686779706E+02  0.10858012164E+02 -0.28363262316E+03  0.29893150794E+03  0.41800000000E+01 0.  1.
        -11    1    1    2    0    0  0.47009464496E+02 -0.73158721938E+01 -0.12206373712E+03  0.13100750993E+03  0.00000000000E+00 0. -1.
         11    1    1    2    0    0  0.11093057929E+02 -0.41314974984E+01  0.16930794064E+02  0.20658581593E+02  0.00000000000E+00 0.  1.
</event>
<event>
 7    1  0.2440960E-009  0.1331295E+03  0.7561462E-02  0.1222885E+00
          1   -1    0    0  501    0  0.00000000000E+00  0.00000000000E+00  0.23867204203E+03  0.23867204203E+03  0.00000000000E+00 0. -1.
         -1   -1    0    0    0  501 -0.00000000000E+00 -0.00000000000E+00 -0.11339262412E+03  0.11339262412E+03  0.00000000000E+00 0.  1.
         25    2    1    2    0    0 -0.41281007120E+02 -0.11386230205E+03  0.90999113224E+02  0.19645942574E+03  0.12508685773E+03 0.  0.
          5    1    3    3  502    0 -0.16879565160E+02 -0.38939301595E+02  0.10767205704E+03  0.11580990111E+03  0.41800000000E+01 0.  1.
         -5    1    3    3    0  502 -0.24401441960E+02 -0.74923000451E+02 -0.16672943817E+02  0.80649524622E+02  0.41800000000E+01 0.  1.
        -11    1    1    2    0    0 -0.33554023571E+01  0.96895679245E+02  0.44648412963E+02  0.10674039611E+03  0.00000000000E+00 0. -1.
         11    1    1    2    0    0  0.44636409477E+02  0.16966622801E+02 -0.10368108279E+02  0.48864844311E+02  0.00000000000E+00 0.  1.
</event>
<event>
 7    1  0.2440960E-009  0.8430377E+02  0.7561462E-02  0.1317263E+00
         -1   -1    0    0    0  501 -0.00000000000E+00  0.00000000000E+00  0.45978465708E+02  0.45978465708E+02  0.00000000000E+00 0.  1.
          1   -1    0    0  501    0  0.00000000000E+00 -0.00000000000E+00 -0.28643628157E+03  0.28643628157E+03  0.00000000000E+00 0. -1.
         25    2    1    2    0    0 -0.24621236541E+02 -0.18359905129E+02 -0.16122736331E+03  0.20635680331E+03  0.12508227768E+03 0.  0.
          5    1    3    3  502    0  0.86725784789E+01 -0.32894153588E+02 -0.16597982046E+03  0.16948159828E+03  0.41800000000E+01 0. -1.
         -5    1    3    3    0  502 -0.33293815020E+02  0.14534248459E+02  0.47524571501E+01  0.36875205027E+02  0.41800000000E+01 0. -1.
        -11    1    1    2    0    0  0.52499415618E+01  0.55568902096E+02 -0.40482945753E+02  0.68951676292E+02  0.00000000000E+00 0.  1.
         11    1    1    2    0    0  0.19371294979E+02 -0.37208996967E+02 -0.38747506805E+02  0.57106267678E+02  0.00000000000E+00 0. -1.
</event>
<event>
 7    1  0.2440960E-009  0.1850799E+03  0.7561462E-02  0.1162975E+00
          2   -1    0    0  501    0  0.00000000000E+00  0.00000000000E+00  0.11066217648E+04  0.11066217648E+04  0.00000000000E+00 0.  1.
         -2   -1    0    0    0  501 -0.00000000000E+00 -0.00000000000E+00 -0.47669833483E+02  0.47669833483E+02  0.00000000000E+00 0. -1.
         25    2    1    2    0    0  0.52818471889E+02 -0.16385936038E+03  0.81140909982E+03  0.83884889748E+03  0.12507223739E+03 0.  0.
          5    1    3    3  502    0 -0.70792401209E+01 -0.10072041294E+02  0.32358121596E+03  0.32384230325E+03  0.41800000000E+01 0.  1.
         -5    1    3    3    0  502  0.59897712010E+02 -0.15378731909E+03  0.48782788386E+03  0.51500659422E+03  0.41800000000E+01 0.  1.
        -11    1    1    2    0    0  0.11248816452E+02  0.10328542758E+03  0.16295831854E+03  0.19326103850E+03  0.00000000000E+00 0.  1.
         11    1    1    2    0    0 -0.64067288342E+02  0.60573932799E+02  0.84584512951E+02  0.12218166230E+03  0.00000000000E+00 0. -1.
</event>
<event>
 7    1  0.2497676E-009  0.8795386E+02  0.7561462E-02  0.1307884E+00
          1   -1    0    0  501    0  0.00000000000E+00  0.00000000000E+00  0.12644394427E+04  0.12644394427E+04  0.00000000000E+00 0. -1.
         -1   -1    0    0    0  501 -0.00000000000E+00 -0.00000000000E+00 -0.16985149379E+02  0.16985149379E+02  0.00000000000E+00 0.  1.
         25    2    1    2    0    0  0.30177204478E+02  0.32204517236E+01  0.10855887062E+04  0.10931933813E+04  0.12509154626E+03 0.  0.
          5    1    3    3  502    0  0.11157698272E+02 -0.38800561165E+02  0.92932107677E+03  0.93020702745E+03  0.41800000000E+01 0. -1.
         -5    1    3    3    0  502  0.19019506206E+02  0.42021012888E+02  0.15626762939E+03  0.16298635383E+03  0.41800000000E+01 0. -1.
        -11    1    1    2    0    0  0.26589757536E+02 -0.15704979054E+02  0.25690628276E+02  0.40170511002E+02  0.00000000000E+00 0.  1.
         11    1    1    2    0    0 -0.56766962014E+02  0.12484527330E+02  0.13617495892E+03  0.14806069984E+03  0.00000000000E+00 0. -1.
</event>
<event>
 7    1  0.2440960E-009  0.1508919E+03  0.7561462E-02  0.1199381E+00
          1   -1    0    0  501    0  0.00000000000E+00  0.00000000000E+00  0.35148058098E+03  0.35148058098E+03  0.00000000000E+00 0. -1.
         -1   -1    0    0    0  501 -0.00000000000E+00 -0.00000000000E+00 -0.74166124720E+02  0.74166124720E+02  0.00000000000E+00 0.  1.
         25    2    1    2    0    0 -0.11195477378E+03 -0.48995253183E+02  0.14846227782E+03  0.22939567026E+03  0.12508764683E+03 0.  0.
          5    1    3    3  502    0 -0.30315516414E+02 -0.69006991037E+02  0.11762391389E+03  0.13976356058E+03  0.41800000000E+01 0.  1.
         -5    1    3    3    0  502 -0.81639257362E+02  0.20011737854E+02  0.30838363932E+02  0.89632109674E+02  0.41800000000E+01 0.  1.
        -11    1    1    2    0    0  0.40446394932E+02 -0.17885981887E+02  0.16450882825E+02  0.47185281145E+02  0.00000000000E+00 0.  1.
         11    1    1    2    0    0  0.71508378844E+02  0.66881235070E+02  0.11240129561E+03  0.14906575430E+03  0.00000000000E+00 0. -1.
</event>
<event>
 7    1  0.2440960E-009  0.1282316E+03  0.7561462E-02  0.1230104E+00
         -2   -1    0    0    0  501 -0.00000000000E+00  0.00000000000E+00  0.42060359970E+02  0.42060359970E+02  0.00000000000E+00 0.  1.
          2   -1    0    0  501    0  0.00000000000E+00 -0.00000000000E+00 -0.52429045649E+03  0.52429045649E+03  0.00000000000E+00 0. -1.
         25    2    1    2    0    0  0.58287256525E+02  0.79619502766E+02 -0.24121964700E+03  0.28908616557E+03  0.12508886254E+03 0.  0.
          5    1    3    3  502    0  0.61187250182E+02  0.10046382950E+02 -0.34864412399E+02  0.71258747162E+02  0.41800000000E+01 0.  1.
         -5    1    3    3    0  502 -0.28999936566E+01  0.69573119815E+02 -0.20635523460E+03  0.21782741841E+03  0.41800000000E+01 0.  1.
        -11    1    1    2    0    0  0.13444656089E+02  0.43398601813E+01 -0.23872521422E+01  0.14328019282E+02  0.00000000000E+00 0.  1.
         11    1    1    2    0    0 -0.71731912614E+02 -0.83959362947E+02 -0.23862319737E+03  0.26293663160E+03  0.00000000000E+00 0. -1.
</event>
<event>
 7    1  0.2757733E-009  0.1402100E+03  0.7561462E-02  0.1213047E+00
         -2   -1    0    0    0  501 -0.00000000000E+00  0.00000000000E+00  0.95123303103E+02  0.95123303103E+02  0.00000000000E+00 0.  1.
          2   -1    0    0  501    0  0.00000000000E+00 -0.00000000000E+00 -0.28842252702E+03  0.28842252702E+03  0.00000000000E+00 0. -1.
         25    2    1    2    0    0 -0.14565824079E+02  0.11168438562E+03 -0.16544047580E+03  0.23601704407E+03  0.12509168172E+03 0.  0.
          5    1    3    3  502    0 -0.15166472240E+02  0.13819306165E+03 -0.15188250092E+03  0.20594443584E+03  0.41800000000E+01 0.  1.
         -5    1    3    3    0  502  0.60064816135E+00 -0.26508676026E+02 -0.13557974879E+02  0.30072608229E+02  0.41800000000E+01 0.  1.
        -11    1    1    2    0    0  0.28809617163E+00 -0.76768848413E+02 -0.60422552883E+02  0.97695567878E+02  0.00000000000E+00 0. -1.
         11    1    1    2    0    0  0.14277727907E+02 -0.34915537211E+02  0.32563804763E+02  0.49833218174E+02  0.00000000000E+00 0.  1.
</event>
<event>
 7    1  0.3131496E-009  0.1166510E+03  0.7561462E-02  0.1248726E+00
          4   -1    0    0  501    0  0.00000000000E+00  0.00000000000E+00  0.12565164648E+03  0.12565164648E+03  0.00000000000E+00 0. -1.
         -4   -1    0    0    0  501 -0.00000000000E+00 -0.00000000000E+00 -0.13997514562E+03  0.13997514562E+03  0.00000000000E+00 0.  1.
         25    2    1    2    0    0  0.31574797528E+02 -0.63618643901E+02  0.18713771698E+02  0.14505660465E+03  0.12508762373E+03 0.  0.
          5    1    3    3  502    0  0.33920359659E+02  0.31895404631E+02 -0.34916203343E+01  0.46878262004E+02  0.41800000000E+01 0. -1.
         -5    1    3    3    0  502 -0.23455621311E+01 -0.95514048532E+02  0.22205392033E+02  0.98178342643E+02  0.41800000000E+01 0. -1.
        -11    1    1    2    0    0  0.14925179867E+02  0.30103551028E+02 -0.50493838859E+02  0.60651566684E+02  0.00000000000E+00 0.  1.
         11    1    1    2    0    0 -0.46499977396E+02  0.33515092873E+02  0.17456568026E+02  0.59918620773E+02  0.00000000000E+00 0. -1.
</event>
<event>
 7    1  0.2440960E-009  0.4099621E+03  0.7561462E-02  0.1040384E+00
         -1   -1    0    0    0  501 -0.00000000000E+00  0.00000000000E+00  0.36306974283E+03  0.36306974283E+03  0.00000000000E+00 0.  1.
          1   -1    0    0  501    0  0.00000000000E+00 -0.00000000000E+00 -0.12517325996E+04  0.12517325996E+04  0.00000000000E+00 0. -1.
         25    2    1    2    0    0 -0.37552300792E+03 -0.14650396175E+03  0.18671059543E+03  0.46150723560E+03  0.12508853577E+03 0.  0.
          5    1    3    3  502    0 -0.44359608408E+02 -0.16621446022E+02  0.74681371702E+02  0.88537150424E+02  0.41800000000E+01 0.  1.
         -5    1    3    3    0  502 -0.33116339951E+03 -0.12988251573E+03  0.11202922373E+03  0.37297008518E+03  0.41800000000E+01 0.  1.
        -11    1    1    2    0    0  0.32061566546E+03  0.16248173575E+03 -0.93651107976E+03  0.10031189969E+04  0.00000000000E+00 0.  1.
         11    1    1    2    0    0  0.54907342458E+02 -0.15977773992E+02 -0.13886237246E+03  0.15017610996E+03  0.00000000000E+00 0. -1.
</event>
<event>
 7    1  0.2440960E-009  0.1232369E+03  0.7561462E-02  0.1237851E+00
         -1   -1    0    0    0  501 -0.00000000000E+00  0.00000000000E+00  0.17359826901E+03  0.17359826901E+03  0.00000000000E+00 0.  1.
          1   -1    0    0  501    0  0.00000000000E+00 -0.00000000000E+00 -0.13661592110E+03  0.13661592110E+03  0.00000000000E+00 0. -1.
         25    2    1    2    0    0 -0.76218635439E+02 -0.45098804569E+02  0.85545502471E+02  0.17552253666E+03  0.12508775048E+03 0.  0.
          5    1    3    3  502    0 -0.16697085062E+02  0.27565649375E+02  0.73963806400E+02  0.80788456677E+02  0.41800000000E+01 0. -1.
         -5    1    3    3    0  502 -0.59521550377E+02 -0.72664453944E+02  0.11581696071E+02  0.94734079983E+02  0.41800000000E+01 0. -1.
        -11    1    1    2    0    0 -0.15881577166E+02 -0.28229413567E+01 -0.22436351055E+02  0.27633011776E+02  0.00000000000E+00 0. -1.
         11    1    1    2    0    0  0.92100212605E+02  0.47921745926E+02 -0.26126803507E+02  0.10705864167E+03  0.00000000000E+00 0.  1.
</event>
<event>
 7    1  0.2440960E-009  0.1139525E+03  0.7561462E-02  0.1253421E+00
         -2   -1    0    0    0  501 -0.00000000000E+00  0.00000000000E+00  0.11784465048E+03  0.11784465048E+03  0.00000000000E+00 0.  1.
          2   -1    0    0  501    0  0.00000000000E+00 -0.00000000000E+00 -0.15633032230E+03  0.15633032230E+03  0.00000000000E+00 0. -1.
         25    2    1    2    0    0 -0.62695336954E+02 -0.46670503305E+02 -0.44448984061E+02  0.15405008191E+03  0.12508746699E+03 0.  0.
          5    1    3    3  502    0 -0.92039741117E+00 -0.77509990156E+02 -0.16016872828E+02  0.79263221740E+02  0.41800000000E+01 0. -1.
         -5    1    3    3    0  502 -0.61774939543E+02  0.30839486851E+02 -0.28432111233E+02  0.74786860169E+02  0.41800000000E+01 0. -1.
        -11    1    1    2    0    0  0.10303613495E+02  0.19576767062E+02 -0.39756637464E+02  0.45497301922E+02  0.00000000000E+00 0. -1.
         11    1    1    2    0    0  0.52391723458E+02  0.27093736243E+02  0.45719949710E+02  0.74627588947E+02  0.00000000000E+00 0.  1.
</event>
<event>
 7    1  0.2440960E-009  0.1322382E+03  0.7561462E-02  0.1224172E+00
         -1   -1    0    0    0  501 -0.00000000000E+00  0.00000000000E+00  0.29602138481E+02  0.29602138481E+02  0.00000000000E+00 0.  1.
          1   -1    0    0  501    0  0.00000000000E+00 -0.00000000000E+00 -0.61296668460E+03  0.61296668460E+03  0.00000000000E+00 0. -1.
         25    2    1    2    0    0  0.45682815572E+01  0.81572667364E+02 -0.32134302526E+03  0.35437817168E+03  0.12509028508E+03 0.  0.
          5    1    3    3  502    0 -0.26160273386E+02  0.10460063455E+03 -0.26439925476E+03  0.28556976551E+03  0.41800000000E+01 0.  1.
         -5    1    3    3    0  502  0.30728554944E+02 -0.23027967188E+02 -0.56943770501E+02  0.68808406177E+02  0.41800000000E+01 0.  1.
        -11    1    1    2    0    0 -0.38342871138E+02 -0.73984678589E+02 -0.15906643727E+03  0.17957182379E+03  0.00000000000E+00 0.  1.
         11    1    1    2    0    0  0.33774589580E+02 -0.75879887750E+01 -0.10295508358E+03  0.10861882761E+03  0.00000000000E+00 0. -1.
</event>
<event>
 7    1  0.2440960E-009  0.1117372E+03  0.7561462E-02  0.1257386E+00
          1   -1    0    0  501    0  0.00000000000E+00  0.00000000000E+00  0.97531037115E+03  0.97531037115E+03  0.00000000000E+00 0. -1.
         -1   -1    0    0    0  501 -0.00000000000E+00 -0.00000000000E+00 -0.24736916154E+02  0.24736916154E+02  0.00000000000E+00 0.  1.
         25    2    1    2    0    0 -0.10105379351E+03 -0.17613332162E+02  0.65000052493E+03  0.66982744158E+03  0.12508405347E+03 0.  0.
          5    1    3    3  502    0 -0.18836656045E+01 -0.67936647071E+01 -0.33773449448E+01  0.88645888308E+01  0.41800000000E+01 0.  1.
         -5    1    3    3    0  502 -0.99170127901E+02 -0.10819667455E+02  0.65337786987E+03  0.66096285275E+03  0.41800000000E+01 0.  1.
        -11    1    1    2    0    0  0.38664116784E+02  0.33381646573E+02  0.49864375653E+02  0.71384201430E+02  0.00000000000E+00 0.  1.
         11    1    1    2    0    0  0.62389676722E+02 -0.15768314411E+02  0.25070855441E+03  0.25883564429E+03  0.00000000000E+00 0. -1.
</event>
<event>
 7    1  0.2440960E-009  0.1268489E+03  0.7561462E-02  0.1232208E+00
          1   -1    0    0  501    0  0.00000000000E+00  0.00000000000E+00  0.83945230626E+03  0.83945230626E+03  0.00000000000E+00 0. -1.
         -1   -1    0    0    0  501 -0.00000000000E+00 -0.00000000000E+00 -0.25848832364E+02  0.25848832364E+02  0.00000000000E+00 0.  1.
         25    2    1    2    0    0 -0.18018464848E+02 -0.67680665759E+02  0.64573070109E+03  0.66145350168E+03  0.12508900414E+03 0.  0.
          5    1    3    3  502    0  0.46902497651E+02 -0.57833561204E+02  0.27520684952E+03  0.28513303475E+03  0.41800000000E+01 0. -1.
         -5    1    3    3    0  502 -0.64920962500E+02 -0.98471045552E+01  0.37052385157E+03  0.37632046692E+03  0.41800000000E+01 0. -1.
        -11    1    1    2    0    0 -0.31249818737E+01  0.85569468401E+02  0.10757001653E+03  0.13748893734E+03  0.00000000000E+00 0. -1.
         11    1    1    2    0    0  0.21143446722E+02 -0.17888802642E+02  0.60302756271E+02  0.66358699604E+02  0.00000000000E+00 0.  1.
</event>
<event>
 7    1  0.2440960E-009  0.1694092E+03  0.7561462E-02  0.1178465E+00
         -1   -1    0    0    0  501 -0.00000000000E+00  0.00000000000E+00  0.36447671283E+02  0.36447671283E+02  0.00000000000E+00 0.  1.
          1   -1    0    0  501    0  0.00000000000E+00 -0.00000000000E+00 -0.13563622389E+04  0.13563622389E+04  0.00000000000E+00 0. -1.
         25    2    1    2    0    0 -0.10388882768E+03 -0.11325922196E+03 -0.31310471818E+03  0.37054446890E+03  0.12509236192E+03 0.  0.
          5    1    3    3  502    0 -0.75682193301E+01  0.46088058117E+01 -0.13858244763E+03  0.13892834925E+03  0.41800000000E+01 0.  1.
         -5    1    3    3    0  502 -0.96320608348E+02 -0.11786802777E+03 -0.17452227055E+03  0.23161611965E+03  0.41800000000E+01 0.  1.
        -11    1    1    2    0    0 -0.91027332677E+01  0.42414737341E+02 -0.22066977786E+03  0.22489335374E+03  0.00000000000E+00 0.  1.
         11    1    1    2    0    0  0.11299156095E+03  0.70844484620E+02 -0.78614007157E+03  0.79737208753E+03  0.00000000000E+00 0. -1.
</event>
<event>
 7    1  0.2440960E-009  0.1048137E+03  0.7561462E-02  0.1270487E+00
          2   -1    0    0  501    0  0.00000000000E+00  0.00000000000E+00  0.45426789348E+02  0.45426789348E+02  0.00000000000E+00 0.  1.
         -2   -1    0    0    0  501 -0.00000000000E+00 -0.00000000000E+00 -0.30046347839E+03  0.30046347839E+03  0.00000000000E+00 0. -1.
         25    2    1    2    0    0 -0.13973998324E+02  0.12237835299E+02 -0.83148889337E+02  0.15135567177E+03  0.12509901813E+03 0.  0.
          5    1    3    3  502    0 -0.24178502292E+02  0.66289189386E+02 -0.54085299720E+02  0.89003082241E+02  0.41800000000E+01 0.  1.
         -5    1    3    3    0  502  0.10204503968E+02 -0.54051354087E+02 -0.29063589617E+02  0.62352589531E+02  0.41800000000E+01 0.  1.
        -11    1    1    2    0    0  0.29637601260E+02  0.27892746034E+02 -0.12206003061E+03  0.12866640494E+03  0.00000000000E+00 0. -1.
         11    1    1    2    0    0 -0.15663602935E+02 -0.40130581333E+02 -0.49827769098E+02  0.65868191021E+02  0.00000000000E+00 0.  1.
</event>
<event>
 7    1  0.2440960E-009  0.1042209E+03  0.7561462E-02  0.1271662E+00
          3   -1    0    0  501    0  0.00000000000E+00  0.00000000000E+00  0.63065541723E+03  0.63065541723E+03  0.00000000000E+00 0. -1.
         -3   -1    0    0    0  501 -0.00000000000E+00 -0.00000000000E+00 -0.29764290399E+02  0.29764290399E+02  0.00000000000E+00 0.  1.
         25    2    1    2    0    0  0.31078666109E+02  0.17418354922E+02  0.14781203063E+03  0.19689050893E+03  0.12509273973E+03 0.  0.
          5    1    3    3  502    0  0.13149132776E+02 -0.44181585694E+02  0.11654207587E+03  0.12539712938E+03  0.41800000000E+01 0.  1.
         -5    1    3    3    0  502  0.17929533333E+02  0.61599940616E+02  0.31269954757E+02  0.71493379553E+02  0.41800000000E+01 0.  1.
        -11    1    1    2    0    0 -0.47183251853E+02 -0.45464177233E+02  0.30075077757E+03  0.30780558942E+03  0.00000000000E+00 0.  1.
         11    1    1    2    0    0  0.16104585744E+02  0.28045822311E+02  0.15232831863E+03  0.15572360928E+03  0.00000000000E+00 0. -1.
</event>
<event>
 7    1  0.2440960E-009  0.3750838E+03  0.7561462E-02  0.1052766E+00
          2   -1    0    0  501    0  0.00000000000E+00  0.00000000000E+00  0.21676096363E+04  0.21676096363E+04  0.00000000000E+00 0. -1.
         -2   -1    0    0    0  501 -0.00000000000E+00 -0.00000000000E+00 -0.71332840759E+02  0.71332840759E+02  0.00000000000E+00 0.  1.
         25    2    1    2    0    0 -0.36551588384E+03  0.24215549559E+02  0.82083267974E+03  0.90752476256E+03  0.12508657938E+03 0.  0.
          5    1    3    3  502    0 -0.13782050060E+03 -0.24932873385E+02  0.19816780436E+03  0.24270164739E+03  0.41800000000E+01 0.  1.
         -5    1    3    3    0  502 -0.22769538325E+03  0.49148422944E+02  0.62266487538E+03  0.66482311517E+03  0.41800000000E+01 0.  1.
        -11    1    1    2    0    0  0.18025907555E+03  0.32841800505E+02  0.72666271399E+03  0.74940684417E+03  0.00000000000E+00 0. -1.
         11    1    1    2    0    0  0.18525680830E+03 -0.57057350064E+02  0.54878140178E+03  0.58201087031E+03  0.00000000000E+00 0.  1.
</event>
<event>
 7    1  0.2440960E-009  0.1098507E+03  0.7561462E-02  0.1260847E+00
          3   -1    0    0  501    0  0.00000000000E+00  0.00000000000E+00  0.11281235142E+04  0.11281235142E+04  0.00000000000E+00 0. -1.
         -3   -1    0    0    0  501 -0.00000000000E+00 -0.00000000000E+00 -0.13059650013E+02  0.13059650013E+02  0.00000000000E+00 0.  1.
         25    2    1    2    0    0  0.46620986070E+02  0.46980747088E+01  0.66731846339E+03  0.68055878074E+03  0.12510289451E+03 0.  0.
          5    1    3    3  502    0  0.45373923765E+02  0.50739730857E+02  0.20747778714E+03  0.21839830082E+03  0.41800000000E+01 0. -1.
         -5    1    3    3    0  502  0.12470623048E+01 -0.46041656148E+02  0.45984067625E+03  0.46216047992E+03  0.41800000000E+01 0. -1.
        -11    1    1    2    0    0 -0.82537339841E+01 -0.47247965967E+02  0.25789656120E+03  0.26231875780E+03  0.00000000000E+00 0.  1.
         11    1    1    2    0    0 -0.38367252086E+02  0.42549891258E+02  0.18984883963E+03  0.19830562570E+03  0.00000000000E+00 0. -1.
</event>
<event>
 7    1  0.2440960E-009  0.1155796E+03  0.7561462E-02  0.1250573E+00
          1   -1    0    0  501    0  0.00000000000E+00  0.00000000000E+00  0.24818526646E+03  0.24818526646E+03  0.00000000000E+00 0. -1.
         -1   -1    0    0    0  501 -0.00000000000E+00 -0.00000000000E+00 -0.13310448536E+03  0.13310448536E+03  0.00000000000E+00 0.  1.
         25    2    1    2    0    0  0.64331893980E+02 -0.45810841533E+02  0.18873440251E+03  0.23980290115E+03  0.12509009124E+03 0.  0.
          5    1    3    3  502    0  0.18800572780E+02  0.38817085006E+02  0.99793777262E+02  0.10879567089E+03  0.41800000000E+01 0.  1.
         -5    1    3    3    0  502  0.45531321200E+02 -0.84627926539E+02  0.88940625246E+02  0.13100723026E+03  0.41800000000E+01 0.  1.
        -11    1    1    2    0    0 -0.53551156538E+02  0.55513695251E+02 -0.90727574083E+02  0.11908395957E+03  0.00000000000E+00 0.  1.
         11    1    1    2    0    0 -0.10780737442E+02 -0.97028537180E+01  0.17073952672E+02  0.22402891106E+02  0.00000000000E+00 0. -1.
</event>
<event>
 7    1  0.2440960E-009  0.1602875E+03  0.7561462E-02  0.1188373E+00
          1   -1    0    0  501    0  0.00000000000E+00  0.00000000000E+00  0.17045614626E+03  0.17045614626E+03  0.00000000000E+00 0.  1.
         -1   -1    0    0    0  501 -0.00000000000E+00 -0.00000000000E+00 -0.16991273864E+03  0.16991273864E+03  0.00000000000E+00 0. -1.
         25    2    1    2    0    0  0.52607045952E+02  0.11885933417E+03 -0.71364271732E+01  0.18053787937E+03  0.12509178507E+03 0.  0.
          5    1    3    3  502    0  0.59134872573E+02  0.82725004855E+01 -0.30598254509E+02  0.67224199493E+02  0.41800000000E+01 0. -1.
         -5    1    3    3    0  502 -0.65278266209E+01  0.11058683369E+03  0.23461827336E+02  0.11331367988E+03  0.41800000000E+01 0. -1.
        -11    1    1    2    0    0 -0.23269210234E+02  0.39437841663E+01  0.22620801413E+02  0.32691133890E+02  0.00000000000E+00 0.  1.
         11    1    1    2    0    0 -0.29337835719E+02 -0.12280311834E+03 -0.14940966619E+02  0.12713987165E+03  0.00000000000E+00 0. -1.
</event>
<event>
 7    1  0.2440960E-009  0.8564996E+02  0.7561462E-02  0.1313742E+00
         -4   -1    0    0    0  501 -0.00000000000E+00  0.00000000000E+00  0.41212120292E+02  0.41212120292E+02  0.00000000000E+00 0. -1.
          4   -1    0    0  501    0  0.00000000000E+00 -0.00000000000E+00 -0.33617332593E+03  0.33617332593E+03  0.00000000000E+00 0.  1.
         25    2    1    2    0    0 -0.51094556743E+01  0.38910368724E+01 -0.23485636298E+03  0.26616921137E+03  0.12508913281E+03 0.  0.
          5    1    3    3  502    0 -0.24132693762E+02  0.36103424959E+02 -0.22221980451E+03  0.22646182486E+03  0.41800000000E+01 0.  1.
         -5    1    3    3    0  502  0.19023238088E+02 -0.32212388087E+02 -0.12636558462E+02  0.39707386509E+02  0.41800000000E+01 0.  1.
        -11    1    1    2    0    0 -0.41389314318E+02  0.77206167907E+01 -0.13119338117E+02  0.44099889977E+02  0.00000000000E+00 0. -1.
         11    1    1    2    0    0  0.46498769992E+02 -0.11611653663E+02 -0.46985504541E+02  0.67116344869E+02  0.00000000000E+00 0.  1.
</event>
<event>
 7    1  0.2440960E-009  0.1213690E+03  0.7561462E-02  0.1240856E+00
          1   -1    0    0  501    0  0.00000000000E+00  0.00000000000E+00  0.18185886277E+03  0.18185886277E+03  0.00000000000E+00 0. -1.
         -1   -1    0    0    0  501 -0.00000000000E+00 -0.00000000000E+00 -0.14231121897E+03  0.14231121897E+03  0.00000000000E+00 0.  1.
         25    2    1    2    0    0  0.95511578173E+01  0.10970647437E+03  0.65035384019E+02  0.17889560600E+03  0.12508917435E+03 0.  0.
          5    1    3    3  502    0 -0.74892543931E+01  0.67581882137E+02  0.10028420046E+03  0.12123445462E+03  0.41800000000E+01 0. -1.
         -5    1    3    3    0  502  0.17040412210E+02  0.42124592229E+02 -0.35248816439E+02  0.57661151385E+02  0.41800000000E+01 0. -1.
        -11    1    1    2    0    0  0.96507057590E+00 -0.11647265492E+03 -0.42650054624E+02  0.12403966247E+03  0.00000000000E+00 0.  1.
         11    1    1    2    0    0 -0.10516228393E+02  0.67661805546E+01  0.17162314411E+02  0.21234813275E+02  0.00000000000E+00 0. -1.
</event>
<event>
 7    1  0.2440960E-009  0.1215253E+03  0.7561462E-02  0.1240602E+00
          1   -1    0    0  501    0  0.00000000000E+00  0.00000000000E+00  0.25452620315E+03  0.25452620315E+03  0.00000000000E+00 0. -1.
         -1   -1    0    0    0  501 -0.00000000000E+00 -0.00000000000E+00 -0.72587968677E+02  0.72587968677E+02  0.00000000000E+00 0.  1.
         25    2    1    2    0    0 -0.18040858693E+02 -0.78001002905E+02  0.75090518526E+02  0.16641953155E+03  0.12508895025E+03 0.  0.
          5    1    3    3  502    0 -0.20915729120E+02 -0.11088486395E+03  0.44985756381E+02  0.12154880277E+03  0.41800000000E+01 0.  1.
         -5    1    3    3    0  502  0.28748704271E+01  0.32883861049E+02  0.30104762146E+02  0.44870728780E+02  0.41800000000E+01 0.  1.
        -11    1    1    2    0    0 -0.18987143484E+02  0.16921054118E+02 -0.69251302204E+01  0.26358890696E+02  0.00000000000E+00 0.  1.
         11    1    1    2    0    0  0.37028002177E+02  0.61079948788E+02  0.11377284617E+03  0.13433574958E+03  0.00000000000E+00 0. -1.
</event>
<event>
 7    1  0.2440960E-009  0.1329450E+03  0.7561462E-02  0.1223150E+00
         -2   -1    0    0    0  501 -0.00000000000E+00  0.00000000000E+00  0.81874486181E+02  0.81874486181E+02  0.00000000000E+00 0.  1.
          2   -1    0    0  501    0  0.00000000000E+00 -0.00000000000E+00 -0.30812618331E+03  0.30812618331E+03  0.00000000000E+00 0. -1.
         25    2    1    2    0    0  0.92166991373E+02 -0.55680138448E+02 -0.70834722390E+02  0.17959757308E+03  0.12507077293E+03 0.  0.
          5    1    3    3  502    0  0.20404759574E+02  0.23195384943E+02  0.21996839178E+02  0.38153812781E+02  0.41800000000E+01 0. -1.
         -5    1    3    3    0  502  0.71762231800E+02 -0.78875523392E+02 -0.92831561568E+02  0.14144376029E+03  0.41800000000E+01 0. -1.
        -11    1    1    2    0    0 -0.78949862576E+02  0.89747874601E+01 -0.48775640729E+02  0.93234600547E+02  0.00000000000E+00 0.  1.
         11    1    1    2    0    0 -0.13217128797E+02  0.46705350988E+02 -0.10664133401E+03  0.11716849587E+03  0.00000000000E+00 0. -1.
</event>
<event>
 7    1  0.2440960E-009  0.9026857E+02  0.7561462E-02  0.1302203E+00
         -1   -1    0    0    0  501 -0.00000000000E+00  0.00000000000E+00  0.24502601103E+03  0.24502601103E+03  0.00000000000E+00 0.  1.
          1   -1    0    0  501    0  0.00000000000E+00 -0.00000000000E+00 -0.54567578192E+02  0.54567578192E+02  0.00000000000E+00 0. -1.
         25    2    1    2    0    0 -0.24841847811E+02 -0.41139661568E+01  0.15048113801E+03  0.19729391243E+03  0.12508506251E+03 0.  0.
          5    1    3    3  502    0  0.23978153418E+02 -0.42497817917E+02  0.11650850932E+03  0.12638323272E+03  0.41800000000E+01 0.  1.
         -5    1    3    3    0  502 -0.48820001229E+02  0.38383851760E+02  0.33972628688E+02  0.70910679703E+02  0.41800000000E+01 0.  1.
        -11    1    1    2    0    0 -0.10776972830E+02  0.25562723016E+02  0.52069665877E+02  0.58998695374E+02  0.00000000000E+00 0.  1.
         11    1    1    2    0    0  0.35618820641E+02 -0.21448756859E+02 -0.12092371048E+02  0.43300981424E+02  0.00000000000E+00 0. -1.
</event>
<event>
 7    1  0.2440960E-009  0.9355031E+02  0.7561462E-02  0.1294475E+00
         -1   -1    0    0    0  501 -0.00000000000E+00  0.00000000000E+00  0.27393089103E+02  0.27393089103E+02  0.00000000000E+00 0.  1.
          1   -1    0    0  501    0  0.00000000000E+00 -0.00000000000E+00 -0.62715651013E+03  0.62715651013E+03  0.00000000000E+00 0. -1.
         25    2    1    2    0    0 -0.13672738942E+02 -0.65794352282E+02 -0.27417489516E+03  0.30876433591E+03  0.12509077268E+03 0.  0.
          5    1    3    3  502    0 -0.35001677863E+02 -0.83954871921E+02 -0.11300443930E+03  0.14512413195E+03  0.41800000000E+01 0.  1.
         -5    1    3    3    0  502  0.21328938921E+02  0.18160519639E+02 -0.16117045587E+03  0.16364020396E+03  0.41800000000E+01 0.  1.
        -11    1    1    2    0    0  0.14609646089E+02  0.55677972035E+02 -0.32980110253E+03  0.33478686587E+03  0.00000000000E+00 0. -1.
         11    1    1    2    0    0 -0.93690714727E+00  0.10116380247E+02  0.42125766686E+01  0.10998397451E+02  0.00000000000E+00 0.  1.
</event>
<event>
 7    1  0.2440960E-009  0.9263954E+02  0.7561462E-02  0.1296583E+00
          2   -1    0    0  501    0  0.00000000000E+00  0.00000000000E+00  0.11561831432E+03  0.11561831432E+03  0.00000000000E+00 0. -1.
         -2   -1    0    0    0  501 -0.00000000000E+00 -0.00000000000E+00 -0.90452196370E+02  0.90452196370E+02  0.00000000000E+00 0.  1.
         25    2    1    2    0    0 -0.23081320721E+02  0.40566485538E+02 -0.25773839561E+01  0.13354693594E+03  0.12509897712E+03 0.  0.
          5    1    3    3  502    0 -0.68870544998E+02  0.29716011384E+01  0.16795966069E+02  0.71074322070E+02  0.41800000000E+01 0. -1.
         -5    1    3    3    0  502  0.45789224277E+02  0.37594884399E+02 -0.19373350025E+02  0.62472613872E+02  0.41800000000E+01 0. -1.
        -11    1    1    2    0    0  0.11050117253E+02  0.31442835970E+01 -0.86548126082E+01  0.14383928251E+02  0.00000000000E+00 0.  1.
         11    1    1    2    0    0  0.12031203468E+02 -0.43710769135E+02  0.36398314515E+02  0.58139646497E+02  0.00000000000E+00 0. -1.
</event>
<event>
 7    1  0.2440960E-009  0.1596203E+03  0.7561462E-02  0.1189126E+00
          1   -1    0    0  501    0  0.00000000000E+00  0.00000000000E+00  0.11868440410E+03  0.11868440410E+03  0.00000000000E+00 0. -1.
         -1   -1    0    0    0  501 -0.00000000000E+00 -0.00000000000E+00 -0.32975220770E+03  0.32975220770E+03  0.00000000000E+00 0.  1.
         25    2    1    2    0    0  0.14048768700E+03 -0.40475051961E+02 -0.23058833354E+02  0.19378899752E+03  0.12508975072E+03 0.  0.
          5    1    3    3  502    0  0.10449454950E+03  0.40538103751E+01  0.36716343063E+02  0.11091035344E+03  0.41800000000E+01 0. -1.
         -5    1    3    3    0  502  0.35993137505E+02 -0.44528862336E+02 -0.59775176418E+02  0.82878644077E+02  0.41800000000E+01 0. -1.
        -11    1    1    2    0    0 -0.11914454621E+03  0.55133765465E+02 -0.18732247126E+03  0.22874628571E+03  0.00000000000E+00 0.  1.
         11    1    1    2    0    0 -0.21343140795E+02 -0.14658713504E+02 -0.68649898580E+00  0.25901328566E+02  0.00000000000E+00 0. -1.
</event>
<event>
 7    1  0.2440960E-009  0.1434315E+03  0.7561462E-02  0.1208785E+00
          3   -1    0    0  501    0  0.00000000000E+00  0.00000000000E+00  0.45777354710E+02  0.45777354710E+02  0.00000000000E+00 0. -1.
         -3   -1    0    0    0  501 -0.00000000000E+00 -0.00000000000E+00 -0.56140028099E+03  0.56140028099E+03  0.00000000000E+00 0.  1.
         25    2    1    2    0    0  0.64941191436E+02  0.81010103014E+02 -0.38262888253E+03  0.41573072477E+03  0.12508868307E+03 0.  0.
          5    1    3    3  502    0  0.61010987932E+02 -0.69377577616E+01 -0.82496099409E+02  0.10292498214E+03  0.41800000000E+01 0.  1.
         -5    1    3    3    0  502  0.39302035032E+01  0.87947860776E+02 -0.30013278312E+03  0.31280574263E+03  0.41800000000E+01 0.  1.
        -11    1    1    2    0    0 -0.65733016570E+02 -0.10380216795E+02 -0.72915916439E+02  0.98718332838E+02  0.00000000000E+00 0.  1.
         11    1    1    2    0    0  0.79182513435E+00 -0.70629886219E+02 -0.60078127308E+02  0.92728578094E+02  0.00000000000E+00 0. -1.
</event>
<event>
 7    1  0.2440960E-009  0.1044909E+03  0.7561462E-02  0.1271126E+00
          4   -1    0    0  501    0  0.00000000000E+00  0.00000000000E+00  0.34348971674E+02  0.34348971674E+02  0.00000000000E+00 0. -1.
         -4   -1    0    0    0  501 -0.00000000000E+00 -0.00000000000E+00 -0.43584649127E+03  0.43584649127E+03  0.00000000000E+00 0.  1.
         25    2    1    2    0    0  0.26166917442E+01 -0.47050554609E+02 -0.15809949323E+03  0.20703410812E+03  0.12508825044E+03 0.  0.
          5    1    3    3  502    0  0.37588671699E+02  0.22891304506E+02 -0.10058962046E+03  0.10987567614E+03  0.41800000000E+01 0.  1.
         -5    1    3    3    0  502 -0.34971979955E+02 -0.69941859115E+02 -0.57509872771E+02  0.97158431979E+02  0.41800000000E+01 0.  1.
        -11    1    1    2    0    0 -0.30461838797E+02  0.49910719893E+02 -0.90667793939E+02  0.10788722093E+03  0.00000000000E+00 0. -1.
         11    1    1    2    0    0  0.27845147052E+02 -0.28601652834E+01 -0.15273023242E+03  0.15527413389E+03  0.00000000000E+00 0.  1.
</event>
<event>
 7    1  0.2440960E-009  0.1190594E+03  0.7561462E-02  0.1244657E+00
          4   -1    0    0  501    0  0.00000000000E+00  0.00000000000E+00  0.15885543285E+03  0.15885543285E+03  0.00000000000E+00 0.  1.
         -4   -1    0    0    0  501 -0.00000000000E+00 -0.00000000000E+00 -0.17851519677E+03  0.17851519677E+03  0.00000000000E+00 0. -1.
         25    2    1    2    0    0 -0.32448556243E+02 -0.80557241088E+02 -0.10620729031E+03  0.18565896389E+03  0.12508750723E+03 0.  0.
          5    1    3    3  502    0 -0.56634582827E+02 -0.10112862560E+03 -0.99776440160E+02  0.15299439630E+03  0.41800000000E+01 0.  1.
         -5    1    3    3    0  502  0.24186026584E+02  0.20571384507E+02 -0.64308501463E+01  0.32664567594E+02  0.41800000000E+01 0.  1.
        -11    1    1    2    0    0  0.30473890373E+02  0.44125362146E+02 -0.43136026673E+01  0.53798817338E+02  0.00000000000E+00 0. -1.
         11    1    1    2    0    0  0.19746658695E+01  0.36431878942E+02  0.90861129052E+02  0.97912848397E+02  0.00000000000E+00 0.  1.
</event>
<event>
 7    1  0.2440960E-009  0.2426211E+03  0.7561462E-02  0.1118059E+00
         -1   -1    0    0    0  501 -0.00000000000E+00  0.00000000000E+00  0.11483404240E+03  0.11483404240E+03  0.00000000000E+00 0.  1.
          1   -1    0    0  501    0  0.00000000000E+00 -0.00000000000E+00 -0.58294265737E+03  0.58294265737E+03  0.00000000000E+00 0. -1.
         25    2    1    2    0    0 -0.44194127094E+02  0.22899454481E+03 -0.20499990270E+03  0.33475981062E+03  0.12509016058E+03 0.  0.
          5    1    3    3  502    0 -0.44222718122E+02  0.15866116581E+03 -0.63288007942E+02  0.17649889145E+03  0.41800000000E+01 0.  1.
         -5    1    3    3    0  502  0.28591027681E-01  0.70333379000E+02 -0.14171189476E+03  0.15826091917E+03  0.41800000000E+01 0.  1.
        -11    1    1    2    0    0  0.55890341363E+02 -0.65474582279E+02 -0.95174799716E+02  0.12833118749E+03  0.00000000000E+00 0.  1.
         11    1    1    2    0    0 -0.11696214269E+02 -0.16351996253E+03 -0.16793391256E+03  0.23468570166E+03  0.00000000000E+00 0. -1.
</event>
<event>
 7    1  0.2440960E-009  0.1392313E+03  0.7561462E-02  0.1214367E+00
         -1   -1    0    0    0  501 -0.00000000000E+00  0.00000000000E+00  0.21317980617E+02  0.21317980617E+02  0.00000000000E+00 0.  1.
          1   -1    0    0  501    0  0.00000000000E+00 -0.00000000000E+00 -0.12642287845E+04  0.12642287845E+04  0.00000000000E+00 0. -1.
         25    2    1    2    0    0 -0.86880417040E+02 -0.49826043959E+02 -0.93713843804E+03  0.95073992720E+03  0.12508843115E+03 0.  0.
          5    1    3    3  502    0  0.23186125540E+02 -0.14338067250E+02 -0.60418564498E+02  0.66415750587E+02  0.41800000000E+01 0.  1.
         -5    1    3    3    0  502 -0.11006654258E+03 -0.35487976709E+02 -0.87671987354E+03  0.88432417662E+03  0.41800000000E+01 0.  1.
        -11    1    1    2    0    0  0.10549345473E+03  0.34321135357E+02 -0.26644743102E+03  0.28861920037E+03  0.00000000000E+00 0. -1.
         11    1    1    2    0    0 -0.18613037689E+02  0.15504908602E+02 -0.39324934784E+02  0.46187637507E+02  0.00000000000E+00 0.  1.
</event>
<event>
 7    1  0.2440960E-009  0.1343670E+03  0.7561462E-02  0.1221116E+00
         -1   -1    0    0    0  501 -0.00000000000E+00  0.00000000000E+00  0.24377405728E+02  0.24377405728E+02  0.00000000000E+00 0.  1.
          1   -1    0    0  501    0  0.00000000000E+00 -0.00000000000E+00 -0.96914996982E+03  0.96914996982E+03  0.00000000000E+00 0. -1.
         25    2    1    2    0    0 -0.14504471751E+02  0.10559801294E+03 -0.59327201642E+03  0.61561351190E+03  0.12508793120E+03 0.  0.
          5    1    3    3  502    0  0.30123714687E+02  0.11269151226E+03 -0.37805194119E+03  0.39566091260E+03  0.41800000000E+01 0.  1.
         -5    1    3    3    0  502 -0.44628186438E+02 -0.70934993249E+01 -0.21522007523E+03  0.21995259930E+03  0.41800000000E+01 0.  1.
        -11    1    1    2    0    0  0.12786415456E+02 -0.84527615195E+02 -0.34552716324E+03  0.35594582549E+03  0.00000000000E+00 0. -1.
         11    1    1    2    0    0  0.17180562949E+01 -0.21070397744E+02 -0.59733844278E+01  0.21968038147E+02  0.00000000000E+00 0.  1.
</event>
<event>
 7    1  0.2440960E-009  0.9698488E+02  0.7561462E-02  0.1286767E+00
          2   -1    0    0  501    0  0.00000000000E+00  0.00000000000E+00  0.47479349664E+03  0.47479349664E+03  0.00000000000E+00 0. -1.
         -2   -1    0    0    0  501 -0.00000000000E+00 -0.00000000000E+00 -0.34917497127E+02  0.34917497127E+02  0.00000000000E+00 0.  1.
         25    2    1    2    0    0 -0.34861922571E+02 -0.11631676356E+02  0.31088149299E+03  0.33711394356E+03  0.12509140145E+03 0.  0.
          5    1    3    3  502    0  0.28639390324E+02 -0.30158149363E+02  0.22384060801E+03  0.22770994454E+03  0.41800000000E+01 0. -1.
         -5    1    3    3    0  502 -0.63501312895E+02  0.18526473007E+02  0.87040884985E+02  0.10940399901E+03  0.41800000000E+01 0. -1.
        -11    1    1    2    0    0  0.33822028101E+02  0.42885929178E+02  0.13031459596E+03  0.14129765187E+03  0.00000000000E+00 0. -1.
         11    1    1    2    0    0  0.10398944704E+01 -0.31254252822E+02 -0.13200894343E+01  0.31299398334E+02  0.00000000000E+00 0.  1.
</event>
<event>
 7    1  0.2440960E-009  0.1292641E+03  0.7561462E-02  0.1228552E+00
         -2   -1    0    0    0  501 -0.00000000000E+00  0.00000000000E+00  0.68042618246E+02  0.68042618246E+02  0.00000000000E+00 0.  1.
          2   -1    0    0  501    0  0.00000000000E+00 -0.00000000000E+00 -0.32516320540E+03  0.32516320540E+03  0.00000000000E+00 0. -1.
         25    2    1    2    0    0  0.89057122200E+02 -0.45614860622E+02 -0.11282343482E+03  0.19593405129E+03  0.12509651668E+03 0.  0.
          5    1    3    3  502    0  0.64936186970E+02  0.75828673303E+01  0.36028906830E+01  0.65609919040E+02  0.41800000000E+01 0.  1.
         -5    1    3    3    0  502  0.24120935230E+02 -0.53197727953E+02 -0.11642632551E+03  0.13032413225E+03  0.41800000000E+01 0.  1.
        -11    1    1    2    0    0 -0.73962170399E+02 -0.11971845951E+02 -0.77506524159E+02  0.10780069125E+03  0.00000000000E+00 0. -1.
         11    1    1    2    0    0 -0.15094951800E+02  0.57586706573E+02 -0.66790628175E+02  0.89471081115E+02  0.00000000000E+00 0.  1.
</event>
<event>
 7    1  0.2440960E-009  0.9956082E+02  0.7561462E-02  0.1281222E+00
         -1   -1    0    0    0  501 -0.00000000000E+00  0.00000000000E+00  0.80001411400E+02  0.80001411400E+02  0.00000000000E+00 0.  1.
          1   -1    0    0  501    0  0.00000000000E+00 -0.00000000000E+00 -0.15107418567E+03  0.15107418567E+03  0.00000000000E+00 0. -1.
         25    2    1    2    0    0  0.18585381925E+02 -0.11038903213E+02 -0.42883862266E+02  0.13399128243E+03  0.12508942529E+03 0.  0.
          5    1    3    3  502    0 -0.60165532367E+01  0.54936161970E+02 -0.27175781176E+02  0.61726625433E+02  0.41800000000E+01 0.  1.
         -5    1    3    3    0  502  0.24601935161E+02 -0.65975065183E+02 -0.15708081090E+02  0.72264656998E+02  0.41800000000E+01 0.  1.
        -11    1    1    2    0    0  0.21725375624E+02  0.22476928287E+02  0.16895880658E+02  0.35534138999E+02  0.00000000000E+00 0.  1.
         11    1    1    2    0    0 -0.40310757548E+02 -0.11438025074E+02 -0.45084792661E+02  0.61550175637E+02  0.00000000000E+00 0. -1.
</event>
<event>
 7    1  0.2440960E-009  0.1087497E+03  0.7561462E-02  0.1262903E+00
          1   -1    0    0  501    0  0.00000000000E+00  0.00000000000E+00  0.66037448565E+03  0.66037448565E+03  0.00000000000E+00 0. -1.
         -1   -1    0    0    0  501 -0.00000000000E+00 -0.00000000000E+00 -0.26600436705E+02  0.26600436705E+02  0.00000000000E+00 0.  1.
         25    2    1    2    0    0  0.64691109101E+02  0.12281912848E+02  0.46457105576E+03  0.48560294249E+03  0.12509263336E+03 0.  0.
          5    1    3    3  502    0 -0.12815909551E+02  0.45972348952E+02  0.25735758134E+03  0.26177872618E+03  0.41800000000E+01 0.  1.
         -5    1    3    3    0  502  0.77507018653E+02 -0.33690436104E+02  0.20721347442E+03  0.22382421631E+03  0.41800000000E+01 0.  1.
        -11    1    1    2    0    0 -0.11120274938E+01  0.15536929615E+02 -0.28632740576E+01  0.15837648984E+02  0.00000000000E+00 0.  1.
         11    1    1    2    0    0 -0.63579081607E+02 -0.27818842462E+02  0.17206626725E+03  0.18553433089E+03  0.00000000000E+00 0. -1.
</event>
<event>
 7    1  0.2440960E-009  0.1088298E+03  0.7561462E-02  0.1262752E+00
          1   -1    0    0  501    0  0.00000000000E+00  0.00000000000E+00  0.24712415311E+03  0.24712415311E+03  0.00000000000E+00 0. -1.
         -1   -1    0    0    0  501 -0.00000000000E+00 -0.00000000000E+00 -0.59383284142E+02  0.59383284142E+02  0.00000000000E+00 0.  1.
         25    2    1    2    0    0  0.35411748117E+02  0.40068059475E+02  0.98622152258E+02  0.16802770645E+03  0.12509012720E+03 0.  0.
          5    1    3    3  502    0 -0.88893678957E+01 -0.36244095053E+02  0.61817410200E+02  0.72329246447E+02  0.41800000000E+01 0.  1.
         -5    1    3    3    0  502  0.44301116012E+02  0.76312154528E+02  0.36804742058E+02  0.95698460001E+02  0.41800000000E+01 0.  1.
        -11    1    1    2    0    0  0.13823551065E+02  0.13283738651E+02 -0.48095088124E+01  0.19765617917E+02  0.00000000000E+00 0.  1.
         11    1    1    2    0    0 -0.49235299182E+02 -0.53351798127E+02  0.93928225518E+02  0.11871411288E+03  0.00000000000E+00 0. -1.
</event>
<event>
 7    1  0.2440960E-009  0.1562959E+03  0.7561462E-02  0.1192943E+00
          4   -1    0    0  501    0  0.00000000000E+00  0.00000000000E+00  0.29683730932E+03  0.29683730932E+03  0.00000000000E+00 0. -1.
         -4   -1    0    0    0  501 -0.00000000000E+00 -0.00000000000E+00 -0.97979937271E+02  0.97979937271E+02  0.00000000000E+00 0.  1.
         25    2    1    2    0    0 -0.13022802662E+03 -0.15111924814E+02  0.11391383558E+03  0.21403811800E+03  0.12509294478E+03 0.  0.
          5    1    3    3  502    0  0.45203952671E+01 -0.37876954547E+02  0.39404433693E+01  0.38575862312E+02  0.41800000000E+01 0. -1.
         -5    1    3    3    0  502 -0.13474842189E+03  0.22765029733E+02  0.10997339221E+03  0.17546225569E+03  0.41800000000E+01 0. -1.
        -11    1    1    2    0    0  0.84169550362E+02  0.29583885831E+02  0.96203037802E+02  0.13120496939E+03  0.00000000000E+00 0. -1.
         11    1    1    2    0    0  0.46058476256E+02 -0.14471961018E+02 -0.11259501325E+02  0.49574159204E+02  0.00000000000E+00 0.  1.
</event>
<event>
 7    1  0.2440960E-009  0.1997256E+03  0.7561462E-02  0.1149971E+00
         -1   -1    0    0    0  501 -0.00000000000E+00  0.00000000000E+00  0.23762109924E+03  0.23762109924E+03  0.00000000000E+00 0.  1.
          1   -1    0    0  501    0  0.00000000000E+00 -0.00000000000E+00 -0.32252422947E+03  0.32252422947E+03  0.00000000000E+00 0. -1.
         25    2    1    2    0    0  0.32673757506E+02  0.18366246706E+03 -0.21593500853E+03  0.31156477776E+03  0.12508080026E+03 0.  0.
          5    1    3    3  502    0 -0.20083588142E+02  0.38477272231E+02  0.28639752261E+01  0.43698120613E+02  0.41800000000E+01 0.  1.
         -5    1    3    3    0  502  0.52757345647E+02  0.14518519483E+03 -0.21879898376E+03  0.26786665715E+03  0.41800000000E+01 0.  1.
        -11    1    1    2    0    0 -0.55778329713E+02 -0.99796245304E+02  0.11092826568E+03  0.15929718381E+03  0.00000000000E+00 0.  1.
         11    1    1    2    0    0  0.23104572207E+02 -0.83866221753E+02  0.20103612627E+02  0.89283367144E+02  0.00000000000E+00 0. -1.
</event>
<event>
 7    1  0.2440960E-009  0.2214571E+03  0.7561462E-02  0.1132801E+00
          4   -1    0    0  501    0  0.00000000000E+00  0.00000000000E+00  0.47149739083E+03  0.47149739083E+03  0.00000000000E+00 0.  1.
         -4   -1    0    0    0  501 -0.00000000000E+00 -0.00000000000E+00 -0.12808466008E+03  0.12808466008E+03  0.00000000000E+00 0. -1.
         25    2    1    2    0    0 -0.60898205737E+02  0.18969515804E+03  0.61623681828E+02  0.24318246176E+03  0.12508951634E+03 0.  0.
          5    1    3    3  502    0 -0.55234304140E+02  0.13493303187E+02  0.20495451040E+01  0.57048844159E+02  0.41800000000E+01 0. -1.
         -5    1    3    3    0  502 -0.56639015974E+01  0.17620185485E+03  0.59574136724E+02  0.18613361760E+03  0.41800000000E+01 0. -1.
        -11    1    1    2    0    0 -0.14002807873E+02 -0.34571071922E+02  0.96242444142E+02  0.10321746798E+03  0.00000000000E+00 0.  1.
         11    1    1    2    0    0  0.74901013610E+02 -0.15512408611E+03  0.18554660478E+03  0.25318212117E+03  0.00000000000E+00 0. -1.
</event>
<event>
 7    1  0.2440960E-009  0.1139044E+03  0.7561462E-02  0.1253506E+00
         -3   -1    0    0    0  501 -0.00000000000E+00  0.00000000000E+00  0.12832528813E+03  0.12832528813E+03  0.00000000000E+00 0.  1.
          3   -1    0    0  501    0  0.00000000000E+00 -0.00000000000E+00 -0.11037188637E+03  0.11037188637E+03  0.00000000000E+00 0. -1.
         25    2    1    2    0    0 -0.83319776800E+01 -0.43127981256E+02  0.27692279047E+02  0.13543960810E+03  0.12509028941E+03 0.  0.
          5    1    3    3  502    0 -0.47222137717E+02 -0.65756207483E+02  0.37313245146E+02  0.89238779555E+02  0.41800000000E+01 0. -1.
         -5    1    3    3    0  502  0.38890160037E+02  0.22628226227E+02 -0.96209660997E+01  0.46200828549E+02  0.41800000000E+01 0. -1.
        -11    1    1    2    0    0  0.39926032003E+02 -0.86961282520E+01  0.39029482332E+01  0.41048065521E+02  0.00000000000E+00 0.  1.
         11    1    1    2    0    0 -0.31594054323E+02  0.51824109508E+02 -0.13641825524E+02  0.62209500870E+02  0.00000000000E+00 0. -1.
</event>
<event>
 7    1  0.2440960E-009  0.1014413E+03  0.7561462E-02  0.1277294E+00
          1   -1    0    0  501    0  0.00000000000E+00  0.00000000000E+00  0.78394768352E+03  0.78394768352E+03  0.00000000000E+00 0. -1.
         -1   -1    0    0    0  501 -0.00000000000E+00 -0.00000000000E+00 -0.29262007402E+02  0.29262007402E+02  0.00000000000E+00 0.  1.
         25    2    1    2    0    0  0.31466746388E+02 -0.40658292515E+02  0.66082867321E+03  0.67452648783E+03  0.12509274388E+03 0.  0.
          5    1    3    3  502    0 -0.32537308476E+02  0.23748976835E+02  0.13665078260E+03  0.14252578409E+03  0.41800000000E+01 0.  1.
         -5    1    3    3    0  502  0.64004054863E+02 -0.64407269350E+02  0.52417789060E+03  0.53200070374E+03  0.41800000000E+01 0.  1.
        -11    1    1    2    0    0 -0.44875545379E+01  0.44065207245E+02  0.10124003772E+03  0.11050532056E+03  0.00000000000E+00 0. -1.
         11    1    1    2    0    0 -0.26979191850E+02 -0.34069147298E+01 -0.73830348098E+01  0.28177882529E+02  0.00000000000E+00 0.  1.
</event>
<event>
 7    1  0.2440960E-009  0.1531640E+03  0.7561462E-02  0.1196638E+00
         -2   -1    0    0    0  501 -0.00000000000E+00  0.00000000000E+00  0.36964333680E+02  0.36964333680E+02  0.00000000000E+00 0.  1.
          2   -1    0    0  501    0  0.00000000000E+00 -0.00000000000E+00 -0.89300105023E+03  0.89300105023E+03  0.00000000000E+00 0. -1.
         25    2    1    2    0    0  0.96555649146E+02  0.99101277554E+02 -0.33946810425E+03  0.38733798875E+03  0.12509223449E+03 0.  0.
          5    1    3    3  502    0  0.99587976535E+02  0.38244858931E+02 -0.12521585452E+03  0.16455065155E+03  0.41800000000E+01 0.  1.
         -5    1    3    3    0  502 -0.30323273884E+01  0.60856418623E+02 -0.21425224974E+03  0.22278733719E+03  0.41800000000E+01 0.  1.
        -11    1    1    2    0    0 -0.17797097226E+02 -0.21718001710E+02 -0.21415857013E+02  0.35313555464E+02  0.00000000000E+00 0.  1.
         11    1    1    2    0    0 -0.78758551921E+02 -0.77383275844E+02 -0.49515275528E+03  0.50731383970E+03  0.00000000000E+00 0. -1.
</event>
<event>
 7    1  0.2440960E-009  0.1616257E+03  0.7561462E-02  0.1186873E+00
         -1   -1    0    0    0  501 -0.00000000000E+00  0.00000000000E+00  0.11209012898E+03  0.11209012898E+03  0.00000000000E+00 0.  1.
          1   -1    0    0  501    0  0.00000000000E+00 -0.00000000000E+00 -0.27798186349E+03  0.27798186349E+03  0.00000000000E+00 0. -1.
         25    2    1    2    0    0 -0.46051411862E+02  0.13092752477E+03 -0.93185989508E+02  0.20879289276E+03  0.12509234249E+03 0.  0.
          5    1    3    3  502    0 -0.67470347457E+02  0.72604463015E+02 -0.10603900734E+03  0.14520812413E+03  0.41800000000E+01 0.  1.
         -5    1    3    3    0  502  0.21418935595E+02  0.58323061757E+02  0.12853017831E+02  0.63584768633E+02  0.41800000000E+01 0.  1.
        -11    1    1    2    0    0  0.11159732799E+02  0.10972247672E+02  0.41258951845E+01  0.16184958022E+02  0.00000000000E+00 0.  1.
         11    1    1    2    0    0  0.34891679063E+02 -0.14189977244E+03 -0.76831640182E+02  0.16509414169E+03  0.00000000000E+00 0. -1.
</event>
<event>
 7    1  0.2440960E-009  0.1889936E+03  0.7561462E-02  0.1159372E+00
          1   -1    0    0  501    0  0.00000000000E+00  0.00000000000E+00  0.85800431374E+02  0.85800431374E+02  0.00000000000E+00 0. -1.
         -1   -1    0    0    0  501 -0.00000000000E+00 -0.00000000000E+00 -0.52504950314E+03  0.52504950314E+03  0.00000000000E+00 0.  1.
         25    2    1    2    0    0 -0.30389291523E+02 -0.15323412590E+03 -0.35276229407E+03  0.40557681206E+03  0.12508840068E+03 0.  0.
          5    1    3    3  502    0  0.14745221468E+02 -0.14551699944E+03 -0.30994587273E+03  0.34274850124E+03  0.41800000000E+01 0. -1.
         -5    1    3    3    0  502 -0.45134512991E+02 -0.77171264561E+01 -0.42816421342E+02  0.62828310818E+02  0.41800000000E+01 0. -1.
        -11    1    1    2    0    0 -0.84711660512E+01 -0.12697600179E+02 -0.32303598510E+01  0.15602080930E+02  0.00000000000E+00 0.  1.
         11    1    1    2    0    0  0.38860457575E+02  0.16593172608E+03 -0.83256417848E+02  0.18967104153E+03  0.00000000000E+00 0. -1.
</event>
<event>
 7    1  0.3648834E-009  0.6137438E+02  0.7561462E-02  0.1392153E+00
          2   -1    0    0  501    0  0.00000000000E+00  0.00000000000E+00  0.12672388277E+03  0.12672388277E+03  0.00000000000E+00 0. -1.
         -2   -1    0    0    0  501 -0.00000000000E+00 -0.00000000000E+00 -0.13785282259E+03  0.13785282259E+03  0.00000000000E+00 0.  1.
         25    2    1    2    0    0 -0.33014040263E+02  0.35481096460E+01  0.61733890434E+02  0.14339000760E+03  0.12508838920E+03 0.  0.
          5    1    3    3  502    0 -0.43815835475E+02  0.22181692056E+02 -0.24051505595E+02  0.54843433720E+02  0.41800000000E+01 0. -1.
         -5    1    3    3    0  502  0.10801795212E+02 -0.18633582410E+02  0.85785396029E+02  0.88546573875E+02  0.41800000000E+01 0. -1.
        -11    1    1    2    0    0  0.27130407056E+02  0.15732725820E+02 -0.89634975696E+02  0.94963185061E+02  0.00000000000E+00 0.  1.
         11    1    1    2    0    0  0.58836332068E+01 -0.19280835466E+02  0.16772145445E+02  0.26223512709E+02  0.00000000000E+00 0. -1.
</event>
<event>
 7    1  0.2440960E-009  0.2275317E+03  0.7561462E-02  0.1128389E+00
         -2   -1    0    0    0  501 -0.00000000000E+00  0.00000000000E+00  0.40458454466E+03  0.40458454466E+03  0.00000000000E+00 0.  1.
          2   -1    0    0  501    0  0.00000000000E+00 -0.00000000000E+00 -0.14536831537E+03  0.14536831537E+03  0.00000000000E+00 0. -1.
         25    2    1    2    0    0 -0.21022368452E+03 -0.24856997887E+02  0.81056915976E+02  0.25890031553E+03  0.12508909575E+03 0.  0.
          5    1    3    3  502    0 -0.13535745981E+03 -0.58929780792E+02  0.94663908752E+02  0.17542260120E+03  0.41800000000E+01 0.  1.
         -5    1    3    3    0  502 -0.74866224713E+02  0.34072782905E+02 -0.13606992776E+02  0.83477714332E+02  0.41800000000E+01 0.  1.
        -11    1    1    2    0    0  0.26758203950E+02 -0.23137696574E+02  0.53402955967E+02  0.64056460934E+02  0.00000000000E+00 0.  1.
         11    1    1    2    0    0  0.18346548057E+03  0.47994694461E+02  0.12475635734E+03  0.22699608357E+03  0.00000000000E+00 0. -1.
</event>
<event>
 7    1  0.2440960E-009  0.1435469E+03  0.7561462E-02  0.1208635E+00
          1   -1    0    0  501    0  0.00000000000E+00  0.00000000000E+00  0.68320259658E+02  0.68320259658E+02  0.00000000000E+00 0. -1.
         -1   -1    0    0    0  501 -0.00000000000E+00 -0.00000000000E+00 -0.32768082409E+03  0.32768082409E+03  0.00000000000E+00 0.  1.
         25    2    1    2    0    0  0.52571076215E+02 -0.87784745007E+02 -0.14458809310E+03  0.21684625725E+03  0.12508678230E+03 0.  0.
          5    1    3    3  502    0  0.67915271788E+02  0.33845266252E+01 -0.72930277599E+02  0.99800986735E+02  0.41800000000E+01 0. -1.
         -5    1    3    3    0  502 -0.15344195574E+02 -0.91169271632E+02 -0.71657815498E+02  0.11704527051E+03  0.41800000000E+01 0. -1.
        -11    1    1    2    0    0  0.19179688784E+02  0.16989168005E+02 -0.58144272671E+02  0.63539347933E+02  0.00000000000E+00 0. -1.
         11    1    1    2    0    0 -0.71750764998E+02  0.70795577002E+02 -0.56628198668E+02  0.11561547857E+03  0.00000000000E+00 0.  1.
</event>
<event>
 7    1  0.2440960E-009  0.4482449E+03  0.7561462E-02  0.1028247E+00
         -1   -1    0    0    0  501 -0.00000000000E+00  0.00000000000E+00  0.34668971664E+03  0.34668971664E+03  0.00000000000E+00 0.  1.
          1   -1    0    0  501    0  0.00000000000E+00 -0.00000000000E+00 -0.61474620871E+03  0.61474620871E+03  0.00000000000E+00 0. -1.
         25    2    1    2    0    0  0.28411550047E+02 -0.44559945126E+03 -0.90927583109E+02  0.47252770562E+03  0.12509404490E+03 0.  0.
          5    1    3    3  502    0  0.21094208063E+02 -0.20211274059E+03 -0.10444869118E+03  0.22852029891E+03  0.41800000000E+01 0. -1.
         -5    1    3    3    0  502  0.73173419844E+01 -0.24348671067E+03  0.13521108075E+02  0.24400740671E+03  0.41800000000E+01 0. -1.
        -11    1    1    2    0    0 -0.43669906975E+02  0.36186818520E+03 -0.11067071897E+03  0.38092473308E+03  0.00000000000E+00 0.  1.
         11    1    1    2    0    0  0.15258356928E+02  0.83731266054E+02 -0.66458189998E+02  0.10798348665E+03  0.00000000000E+00 0. -1.
</event>
<event>
 7    1  0.3638993E-009  0.6759614E+02  0.7561462E-02  0.1368464E+00
         -1   -1    0    0    0  501 -0.00000000000E+00  0.00000000000E+00  0.33490396616E+02  0.33490396616E+02  0.00000000000E+00 0.  1.
          1   -1    0    0  501    0  0.00000000000E+00 -0.00000000000E+00 -0.41013806380E+03  0.41013806380E+03  0.00000000000E+00 0. -1.
         25    2    1    2    0    0  0.17198352851E+02  0.33530683398E+02 -0.25713704718E+03  0.28842209627E+03  0.12509098493E+03 0.  0.
          5    1    3    3  502    0 -0.80529472402E+01  0.10350532959E+02 -0.25330499359E+03  0.25367868588E+03  0.41800000000E+01 0. -1.
         -5    1    3    3    0  502  0.25251300091E+02  0.23180150438E+02 -0.38320535929E+01  0.34743410388E+02  0.41800000000E+01 0. -1.
        -11    1    1    2    0    0  0.20296057212E+02 -0.43583776049E+02 -0.10171046204E+03  0.11250108249E+03  0.00000000000E+00 0. -1.
         11    1    1    2    0    0 -0.37494410063E+02  0.10053092651E+02 -0.17800157958E+02  0.42705281654E+02  0.00000000000E+00 0.  1.
</event>
<event>
 7    1  0.2440960E-009  0.6831607E+02  0.7561462E-02  0.1365915E+00
         -1   -1    0    0    0  501 -0.00000000000E+00  0.00000000000E+00  0.12612220268E+03  0.12612220268E+03  0.00000000000E+00 0.  1.
          1   -1    0    0  501    0  0.00000000000E+00 -0.00000000000E+00 -0.95304128142E+02  0.95304128142E+02  0.00000000000E+00 0. -1.
         25    2    1    2    0    0  0.93529490614E+01  0.47888940234E+01 -0.38486568660E+00  0.12553205896E+03  0.12509092111E+03 0.  0.
          5    1    3    3  502    0  0.16230216890E+02 -0.17788332354E+02  0.57718155148E+02  0.62679362966E+02  0.41800000000E+01 0.  1.
         -5    1    3    3    0  502 -0.68772678282E+01  0.22577226378E+02 -0.58103020834E+02  0.62852695994E+02  0.41800000000E+01 0.  1.
        -11    1    1    2    0    0 -0.48607187634E+02 -0.58280675813E+01  0.28235490147E+02  0.56514316463E+02  0.00000000000E+00 0. -1.
         11    1    1    2    0    0  0.39254238573E+02  0.10391735579E+01  0.29674500822E+01  0.39379955404E+02  0.00000000000E+00 0.  1.
</event>
<event>
 7    1  0.2440960E-009  0.1276841E+03  0.7561462E-02  0.1230933E+00
         -2   -1    0    0    0  501 -0.00000000000E+00  0.00000000000E+00  0.35419394123E+02  0.35419394123E+02  0.00000000000E+00 0.  1.
          2   -1    0    0  501    0  0.00000000000E+00 -0.00000000000E+00 -0.89033067814E+03  0.89033067814E+03  0.00000000000E+00 0. -1.
         25    2    1    2    0    0  0.92245964593E+02  0.64396444912E+02 -0.23100813496E+03  0.28577658108E+03  0.12508907138E+03 0.  0.
          5    1    3    3  502    0  0.44531031564E+02  0.34146196749E+02 -0.94108866113E+01  0.57052718703E+02  0.41800000000E+01 0.  1.
         -5    1    3    3    0  502  0.47714933029E+02  0.30250248163E+02 -0.22159724835E+03  0.22872386238E+03  0.41800000000E+01 0.  1.
        -11    1    1    2    0    0  0.13712806834E+02 -0.26639574048E+02 -0.12324331447E+03  0.12683304986E+03  0.00000000000E+00 0.  1.
         11    1    1    2    0    0 -0.10595877143E+03 -0.37756870864E+02 -0.50065983459E+03  0.51314044131E+03  0.00000000000E+00 0. -1.
</event>
<event>
 7    1  0.2440960E-009  0.9134280E+02  0.7561462E-02  0.1299632E+00
          1   -1    0    0  501    0  0.00000000000E+00  0.00000000000E+00  0.66776669501E+03  0.66776669501E+03  0.00000000000E+00 0. -1.
         -1   -1    0    0    0  501 -0.00000000000E+00 -0.00000000000E+00 -0.20130064602E+02  0.20130064602E+02  0.00000000000E+00 0.  1.
         25    2    1    2    0    0  0.32791653026E+01  0.28095708291E+02  0.45580687407E+03  0.47350532709E+03  0.12508903460E+03 0.  0.
          5    1    3    3  502    0 -0.50725708304E+02  0.23694048259E+02  0.35084929907E+03  0.35531283183E+03  0.41800000000E+01 0. -1.
         -5    1    3    3    0  502  0.54004873606E+02  0.44016600326E+01  0.10495757500E+03  0.11819249526E+03  0.41800000000E+01 0. -1.
        -11    1    1    2    0    0  0.22986659549E+02  0.10693869832E+02  0.11076770864E+02  0.27666590357E+02  0.00000000000E+00 0.  1.
         11    1    1    2    0    0 -0.26265824852E+02 -0.38789578123E+02  0.18075298547E+03  0.18672484217E+03  0.00000000000E+00 0. -1.
</event>
<event>
 7    1  0.2440960E-009  0.1083967E+03  0.7561462E-02  0.1263568E+00
         -2   -1    0    0    0  501 -0.00000000000E+00  0.00000000000E+00  0.73107995474E+02  0.73107995474E+02  0.00000000000E+00 0.  1.
          2   -1    0    0  501    0  0.00000000000E+00 -0.00000000000E+00 -0.19935699968E+03  0.19935699968E+03  0.00000000000E+00 0. -1.
         25    2    1    2    0    0  0.31831800026E+02  0.41482512994E+02 -0.79879417650E+02  0.15737061654E+03  0.12510286651E+03 0.  0.
          5    1    3    3  502    0  0.72420551638E+02  0.30681167564E+02 -0.83770500701E+02  0.11498277928E+03  0.41800000000E+01 0. -1.
         -5    1    3    3    0  502 -0.40588751612E+02  0.10801345430E+02  0.38910830508E+01  0.42387837263E+02  0.41800000000E+01 0. -1.
        -11    1    1    2    0    0 -0.16451977804E+01  0.23821699901E+02 -0.34833034993E+02  0.42231746219E+02  0.00000000000E+00 0. -1.
         11    1    1    2    0    0 -0.30186602246E+02 -0.65304212895E+02 -0.11536551560E+02  0.72862632391E+02  0.00000000000E+00 0.  1.
</event>
<event>
 7    1  0.2440960E-009  0.1036044E+03  0.7561462E-02  0.1272894E+00
          1   -1    0    0  501    0  0.00000000000E+00  0.00000000000E+00  0.96194003967E+02  0.96194003967E+02  0.00000000000E+00 0. -1.
         -1   -1    0    0    0  501 -0.00000000000E+00 -0.00000000000E+00 -0.12535023612E+03  0.12535023612E+03  0.00000000000E+00 0.  1.
         25    2    1    2    0    0  0.22298353451E+01 -0.15943758895E+02 -0.45948331056E+01  0.12620510530E+03  0.12508972979E+03 0.  0.
          5    1    3    3  502    0 -0.47568776489E+02 -0.46904597904E+02  0.25600204604E+01  0.66983997387E+02  0.41800000000E+01 0.  1.
         -5    1    3    3    0  502  0.49798611834E+02  0.30960839009E+02 -0.71548535660E+01  0.59221107912E+02  0.41800000000E+01 0.  1.
        -11    1    1    2    0    0  0.14970362964E+02 -0.29398858554E+02  0.11465015319E+02  0.34926368660E+02  0.00000000000E+00 0. -1.
         11    1    1    2    0    0 -0.17200198309E+02  0.45342617449E+02 -0.36026414367E+02  0.60412766127E+02  0.00000000000E+00 0.  1.
</event>
<event>
 7    1  0.2440960E-009  0.1555978E+03  0.7561462E-02  0.1193758E+00
         -2   -1    0    0    0  501 -0.00000000000E+00  0.00000000000E+00  0.99480360413E+02  0.99480360413E+02  0.00000000000E+00 0.  1.
          2   -1    0    0  501    0  0.00000000000E+00 -0.00000000000E+00 -0.32052091391E+03  0.32052091391E+03  0.00000000000E+00 0. -1.
         25    2    1    2    0    0  0.73755317834E+02  0.10754910963E+03 -0.18375962818E+03  0.25773150003E+03  0.12510502495E+03 0.  0.
          5    1    3    3  502    0 -0.17611987850E+02  0.19641508856E+02 -0.10515382793E+03  0.10849318372E+03  0.41800000000E+01 0.  1.
         -5    1    3    3    0  502  0.91367305684E+02  0.87907600770E+02 -0.78605800250E+02  0.14923831631E+03  0.41800000000E+01 0.  1.
        -11    1    1    2    0    0 -0.92668648695E+02 -0.71973604851E+02 -0.23332947982E+02  0.11963320905E+03  0.00000000000E+00 0. -1.
         11    1    1    2    0    0  0.18913330861E+02 -0.35575504775E+02 -0.13947977341E+02  0.42636565248E+02  0.00000000000E+00 0.  1.
</event>
<event>
 7    1  0.2440960E-009  0.1433043E+03  0.7561462E-02  0.1208951E+00
         -1   -1    0    0    0  501 -0.00000000000E+00  0.00000000000E+00  0.34396133238E+03  0.34396133238E+03  0.00000000000E+00 0.  1.
          1   -1    0    0  501    0  0.00000000000E+00 -0.00000000000E+00 -0.90244525225E+02  0.90244525225E+02  0.00000000000E+00 0. -1.
         25    2    1    2    0    0 -0.12636728949E+03  0.13837199875E+02  0.20253387406E+03  0.26986552539E+03  0.12508905508E+03 0.  0.
          5    1    3    3  502    0 -0.48777168574E+02  0.35359245664E+02  0.17425374571E+03  0.18442160590E+03  0.41800000000E+01 0. -1.
         -5    1    3    3    0  502 -0.77590120920E+02 -0.21522045789E+02  0.28280128348E+02  0.85443919495E+02  0.41800000000E+01 0. -1.
        -11    1    1    2    0    0  0.32529828938E+02 -0.36665728410E+02  0.46638929949E+02  0.67659110232E+02  0.00000000000E+00 0.  1.
         11    1    1    2    0    0  0.93837460556E+02  0.22828528536E+02  0.45440031459E+01  0.96681221979E+02  0.00000000000E+00 0. -1.
</event>
<event>
 7    1  0.2440960E-009  0.1077782E+03  0.7561462E-02  0.1264740E+00
          2   -1    0    0  501    0  0.00000000000E+00  0.00000000000E+00  0.47735276757E+03  0.47735276757E+03  0.00000000000E+00 0.  1.
         -2   -1    0    0    0  501 -0.00000000000E+00 -0.00000000000E+00 -0.31214890380E+02  0.31214890380E+02  0.00000000000E+00 0. -1.
         25    2    1    2    0    0 -0.47002629920E+02 -0.12184547372E+02  0.31021895161E+03  0.33799688088E+03  0.12509349757E+03 0.  0.
          5    1    3    3  502    0 -0.36141979688E+02  0.42873009989E+02  0.62956709630E+02  0.84411831924E+02  0.41800000000E+01 0. -1.
         -5    1    3    3    0  502 -0.10860650232E+02 -0.55057557361E+02  0.24726224198E+03  0.25358504896E+03  0.41800000000E+01 0. -1.
        -11    1    1    2    0    0  0.51659863184E+02 -0.30581858973E+02  0.78537086430E+02  0.98853758185E+02  0.00000000000E+00 0.  1.
         11    1    1    2    0    0 -0.46572332641E+01  0.42766406345E+02  0.57381839152E+02  0.71717018885E+02  0.00000000000E+00 0. -1.
</event>
<event>
 7    1  0.2440960E-009  0.1892556E+03  0.7561462E-02  0.1159134E+00
         -1   -1    0    0    0  501 -0.00000000000E+00  0.00000000000E+00  0.60072752400E+02  0.60072752400E+02  0.00000000000E+00 0.  1.
          1   -1    0    0  501    0  0.00000000000E+00 -0.00000000000E+00 -0.69231381656E+03  0.69231381656E+03  0.00000000000E+00 0. -1.
         25    2    1    2    0    0 -0.16751525476E+03  0.31058330805E+02 -0.38029595744E+03  0.43508340086E+03  0.12508625014E+03 0.  0.
          5    1    3    3  502    0 -0.16428587609E+03  0.46940706991E+02 -0.38176979543E+03  0.41828092014E+03  0.41800000000E+01 0.  1.
         -5    1    3    3    0  502 -0.32293786712E+01 -0.15882376186E+02  0.14738379901E+01  0.16802480720E+02  0.41800000000E+01 0.  1.
        -11    1    1    2    0    0  0.14003396146E+03 -0.58740752951E+02 -0.18030999932E+03  0.23573646785E+03  0.00000000000E+00 0.  1.
         11    1    1    2    0    0  0.27481293299E+02  0.27682422146E+02 -0.71635107395E+02  0.81566700245E+02  0.00000000000E+00 0. -1.
</event>
<event>
 7    1  0.2440960E-009  0.1788110E+03  0.7561462E-02  0.1168959E+00
         -1   -1    0    0    0  501 -0.00000000000E+00  0.00000000000E+00  0.20189274202E+03  0.20189274202E+03  0.00000000000E+00 0.  1.
          1   -1    0    0  501    0  0.00000000000E+00 -0.00000000000E+00 -0.22029218463E+03  0.22029218463E+03  0.00000000000E+00 0. -1.
         25    2    1    2    0    0 -0.34923478466E+02 -0.14784979972E+03 -0.10766754283E+03  0.22432075966E+03  0.12509312855E+03 0.  0.
          5    1    3    3  502    0 -0.58000745932E+02 -0.36105556847E+02 -0.15840797849E+01  0.68466630359E+02  0.41800000000E+01 0.  1.
         -5    1    3    3    0  502  0.23077267466E+02 -0.11174424287E+03 -0.10608346305E+03  0.15585412930E+03  0.41800000000E+01 0.  1.
        -11    1    1    2    0    0  0.30818198100E+02  0.39886968233E+01  0.26548802664E+02  0.40871872472E+02  0.00000000000E+00 0. -1.
         11    1    1    2    0    0  0.41052803663E+01  0.14386110289E+03  0.62719297562E+02  0.15699229452E+03  0.00000000000E+00 0.  1.
</event>
<event>
 7    1  0.2440960E-009  0.1156724E+03  0.7561462E-02  0.1250412E+00
          1   -1    0    0  501    0  0.00000000000E+00  0.00000000000E+00  0.51261727224E+03  0.51261727224E+03  0.00000000000E+00 0. -1.
         -1   -1    0    0    0  501 -0.00000000000E+00 -0.00000000000E+00 -0.27424574888E+02  0.27424574888E+02  0.00000000000E+00 0.  1.
         25    2    1    2    0    0 -0.38769736868E+02 -0.95177890438E+01  0.29774354528E+03  0.32541010292E+03  0.12508731159E+03 0.  0.
          5    1    3    3  502    0  0.41716555748E+02  0.18435044692E+02  0.11268902109E+03  0.12164049396E+03  0.41800000000E+01 0. -1.
         -5    1    3    3    0  502 -0.80486292616E+02 -0.27952833735E+02  0.18505452419E+03  0.20376960896E+03  0.41800000000E+01 0. -1.
        -11    1    1    2    0    0  0.46903124922E+02  0.44302138448E+02  0.14777368161E+03  0.16124404974E+03  0.00000000000E+00 0. -1.
         11    1    1    2    0    0 -0.81333880536E+01 -0.34784349405E+02  0.39675470460E+02  0.53387694471E+02  0.00000000000E+00 0.  1.
</event>
<event>
 7    1  0.2440960E-009  0.1439928E+03  0.7561462E-02  0.1208055E+00
         -4   -1    0    0    0  501 -0.00000000000E+00  0.00000000000E+00  0.89030560033E+02  0.89030560033E+02  0.00000000000E+00 0.  1.
          4   -1    0    0  501    0  0.00000000000E+00 -0.00000000000E+00 -0.33523532824E+03  0.33523532824E+03  0.00000000000E+00 0. -1.
         25    2    1    2    0    0 -0.10917036593E+03  0.72420915988E+02 -0.16506954539E+03  0.24506906131E+03  0.12509169487E+03 0.  0.
          5    1    3    3  502    0 -0.81553897891E+02  0.81248007509E+02 -0.48693777694E+02  0.12506331745E+03  0.41800000000E+01 0.  1.
         -5    1    3    3    0  502 -0.27616468035E+02 -0.88270915209E+01 -0.11637576770E+03  0.12000574386E+03  0.41800000000E+01 0.  1.
        -11    1    1    2    0    0  0.15397497388E+02 -0.42286779990E+02  0.87577364440E+01  0.45847056998E+02  0.00000000000E+00 0.  1.
         11    1    1    2    0    0  0.93772868538E+02 -0.30134135998E+02 -0.89892959257E+02  0.13334976997E+03  0.00000000000E+00 0. -1.
</event>
<event>
 7    1  0.2440960E-009  0.1160053E+03  0.7561462E-02  0.1249836E+00
          2   -1    0    0  501    0  0.00000000000E+00  0.00000000000E+00  0.53764346376E+02  0.53764346376E+02  0.00000000000E+00 0.  1.
         -2   -1    0    0    0  501 -0.00000000000E+00 -0.00000000000E+00 -0.26727186709E+03  0.26727186709E+03  0.00000000000E+00 0. -1.
         25    2    1    2    0    0 -0.21349807638E+02 -0.43819937130E+02 -0.11836385768E+03  0.17897979854E+03  0.12509102408E+03 0.  0.
          5    1    3    3  502    0  0.20476211416E+02  0.36265150251E+02 -0.52242457264E+02  0.66941639490E+02  0.41800000000E+01 0.  1.
         -5    1    3    3    0  502 -0.41826019054E+02 -0.80085087381E+02 -0.66121400414E+02  0.11203815905E+03  0.41800000000E+01 0.  1.
        -11    1    1    2    0    0 -0.17358096605E+02 -0.19116650991E+02 -0.64428881846E+01  0.26613167249E+02  0.00000000000E+00 0.  1.
         11    1    1    2    0    0  0.38707904242E+02  0.62936588121E+02 -0.88700774853E+02  0.11544324768E+03  0.00000000000E+00 0. -1.
</event>
<event>
 7    1  0.2440960E-009  0.1495656E+03  0.7561462E-02  0.1201008E+00
         -2   -1    0    0    0  501 -0.00000000000E+00  0.00000000000E+00  0.11961399637E+02  0.11961399637E+02  0.00000000000E+00 0.  1.
          2   -1    0    0  501    0  0.00000000000E+00 -0.00000000000E+00 -0.28630220975E+04  0.28630220975E+04  0.00000000000E+00 0. -1.
         25    2    1    2    0    0  0.78854273630E+02  0.75545174675E+02 -0.23006033052E+04  0.23065881670E+04  0.12509330329E+03 0.  0.
          5    1    3    3  502    0 -0.30369276976E+02  0.17468718591E+02 -0.28286495325E+03  0.28505701761E+03  0.41800000000E+01 0.  1.
         -5    1    3    3    0  502  0.10922355061E+03  0.58076456083E+02 -0.20177383520E+04  0.20215311494E+04  0.41800000000E+01 0.  1.
        -11    1    1    2    0    0 -0.92268616863E+02 -0.37263175974E+02 -0.42712648554E+03  0.43856479178E+03  0.00000000000E+00 0. -1.
         11    1    1    2    0    0  0.13414343233E+02 -0.38281998701E+02 -0.12333090716E+03  0.12983053836E+03  0.00000000000E+00 0.  1.
</event>
<event>
 7    1  0.2440960E-009  0.1295479E+03  0.7561462E-02  0.1228128E+00
         -1   -1    0    0    0  501 -0.00000000000E+00  0.00000000000E+00  0.26140480052E+03  0.26140480052E+03  0.00000000000E+00 0.  1.
          1   -1    0    0  501    0  0.00000000000E+00 -0.00000000000E+00 -0.11854644032E+03  0.11854644032E+03  0.00000000000E+00 0. -1.
         25    2    1    2    0    0  0.30441252603E+02 -0.97754884382E+02  0.17673865678E+03  0.23951352342E+03  0.12508991894E+03 0.  0.
          5    1    3    3  502    0 -0.23371051967E+02  0.17424700447E+02  0.13047190961E+02  0.32210679094E+02  0.41800000000E+01 0.  1.
         -5    1    3    3    0  502  0.53812304570E+02 -0.11517958483E+03  0.16369146581E+03  0.20730284432E+03  0.41800000000E+01 0.  1.
        -11    1    1    2    0    0 -0.49056878306E+01  0.11801647112E+02 -0.47994881810E+02  0.49667427229E+02  0.00000000000E+00 0. -1.
         11    1    1    2    0    0 -0.25535564772E+02  0.85953237270E+02  0.14114585230E+02  0.90770290193E+02  0.00000000000E+00 0.  1.
</event>
<event>
 7    1  0.2440960E-009  0.1448336E+03  0.7561462E-02  0.1206969E+00
          2   -1    0    0  501    0  0.00000000000E+00  0.00000000000E+00  0.92930022718E+03  0.92930022718E+03  0.00000000000E+00 0. -1.
         -2   -1    0    0    0  501 -0.00000000000E+00 -0.00000000000E+00 -0.34848728363E+02  0.34848728363E+02  0.00000000000E+00 0.  1.
         25    2    1    2    0    0 -0.13433861899E+03 -0.39929597328E+02  0.39370084750E+03  0.43622023914E+03  0.12508598011E+03 0.  0.
          5    1    3    3  502    0 -0.11128112715E+03 -0.26242354979E+02  0.39274024852E+03  0.40906542956E+03  0.41800000000E+01 0. -1.
         -5    1    3    3    0  502 -0.23057491837E+02 -0.13687242350E+02  0.96059898020E+00  0.27154809581E+02  0.41800000000E+01 0. -1.
        -11    1    1    2    0    0  0.14611671151E+02 -0.10717316323E+02  0.10954868647E+02  0.21174771547E+02  0.00000000000E+00 0.  1.
         11    1    1    2    0    0  0.11972694784E+03  0.50646913652E+02  0.48979578267E+03  0.50675394485E+03  0.00000000000E+00 0. -1.
</event>
<event>
 7    1  0.2440960E-009  0.1730932E+03  0.7561462E-02  0.1174660E+00
         -1   -1    0    0    0  501 -0.00000000000E+00  0.00000000000E+00  0.52443847225E+03  0.52443847225E+03  0.00000000000E+00 0.  1.
          1   -1    0    0  501    0  0.00000000000E+00 -0.00000000000E+00 -0.74297299010E+02  0.74297299010E+02  0.00000000000E+00 0. -1.
         25    2    1    2    0    0  0.79798140252E+02 -0.12258994271E+03  0.12187115072E+03  0.22780292158E+03  0.12508219882E+03 0.  0.
          5    1    3    3  502    0  0.74959500691E+02 -0.24285939633E+02  0.99130184384E+02  0.12670043198E+03  0.41800000000E+01 0. -1.
         -5    1    3    3    0  502  0.48386395613E+01 -0.98304003077E+02  0.22740966335E+02  0.10110248960E+03  0.41800000000E+01 0. -1.
        -11    1    1    2    0    0  0.54438255151E+01 -0.98577316199E+01  0.49294900437E+02  0.50564783377E+02  0.00000000000E+00 0.  1.
         11    1    1    2    0    0 -0.85241965767E+02  0.13244767433E+03  0.27897512208E+03  0.32036806630E+03  0.00000000000E+00 0. -1.
</event>
<event>
 7    1  0.2440960E-009  0.1496803E+03  0.7561462E-02  0.1200866E+00
          1   -1    0    0  501    0  0.00000000000E+00  0.00000000000E+00  0.37604586867E+02  0.37604586867E+02  0.00000000000E+00 0. -1.
         -1   -1    0    0    0  501 -0.00000000000E+00 -0.00000000000E+00 -0.68191896881E+03  0.68191896881E+03  0.00000000000E+00 0.  1.
         25    2    1    2    0    0 -0.11413372216E+03 -0.13934881864E+02 -0.38472156939E+03  0.42057000358E+03  0.12509098486E+03 0.  0.
          5    1    3    3  502    0 -0.13617414836E+03 -0.12698818491E+02 -0.36784794747E+03  0.39247196528E+03  0.41800000000E+01 0. -1.
         -5    1    3    3    0  502  0.22040426200E+02 -0.12360633721E+01 -0.16873621918E+02  0.28098038301E+02  0.41800000000E+01 0. -1.
        -11    1    1    2    0    0  0.46345706409E+02 -0.33623099729E+02 -0.60358457661E+02  0.83196038061E+02  0.00000000000E+00 0. -1.
         11    1    1    2    0    0  0.67788015748E+02  0.47557981593E+02 -0.19923435489E+03  0.21575751403E+03  0.00000000000E+00 0.  1.
</event>
<event>
 7    1  0.2440960E-009  0.1282042E+03  0.7561462E-02  0.1230145E+00
         -1   -1    0    0    0  501 -0.00000000000E+00  0.00000000000E+00  0.38379241711E+03  0.38379241711E+03  0.00000000000E+00 0.  1.
          1   -1    0    0  501    0  0.00000000000E+00 -0.00000000000E+00 -0.53570731945E+02  0.53570731945E+02  0.00000000000E+00 0. -1.
         25    2    1    2    0    0 -0.66620276757E+02  0.60131752174E+02  0.22410474704E+03  0.27188706538E+03  0.12508217211E+03 0.  0.
          5    1    3    3  502    0  0.29570027562E+02 -0.99678826312E+01  0.26427404779E+02  0.41105052457E+02  0.41800000000E+01 0.  1.
         -5    1    3    3    0  502 -0.96190304319E+02  0.70099634805E+02  0.19767734226E+03  0.23078201292E+03  0.41800000000E+01 0.  1.
        -11    1    1    2    0    0  0.65091712345E+02 -0.70148113104E+02  0.11663677547E+03  0.15087022960E+03  0.00000000000E+00 0.  1.
         11    1    1    2    0    0  0.15285644122E+01  0.10016360930E+02 -0.10519837345E+02  0.14605854074E+02  0.00000000000E+00 0. -1.
</event>
<event>
 7    1  0.2440960E-009  0.1765154E+03  0.7561462E-02  0.1171219E+00
          2   -1    0    0  501    0  0.00000000000E+00  0.00000000000E+00  0.10035864435E+04  0.10035864435E+04  0.00000000000E+00 0. -1.
         -2   -1    0    0    0  501 -0.00000000000E+00 -0.00000000000E+00 -0.36698791771E+02  0.36698791771E+02  0.00000000000E+00 0.  1.
         25    2    1    2    0    0  0.41520630164E+02  0.13703530929E+03  0.69364388491E+03  0.71922979604E+03  0.12508805584E+03 0.  0.
          5    1    3    3  502    0  0.33526775468E+02  0.15804454153E+03  0.53290147202E+03  0.55686943987E+03  0.41800000000E+01 0. -1.
         -5    1    3    3    0  502  0.79938546960E+01 -0.21009232247E+02  0.16074241289E+03  0.16236035616E+03  0.41800000000E+01 0. -1.
        -11    1    1    2    0    0 -0.46001291370E+02 -0.14891304026E+03  0.25152484185E+03  0.29589856106E+03  0.00000000000E+00 0.  1.
         11    1    1    2    0    0  0.44806612066E+01  0.11877730970E+02  0.21718924946E+02  0.25156878158E+02  0.00000000000E+00 0. -1.
</event>
<event>
 7    1  0.2440960E-009  0.1095533E+03  0.7561462E-02  0.1261399E+00
          2   -1    0    0  501    0  0.00000000000E+00  0.00000000000E+00  0.47510650021E+03  0.47510650021E+03  0.00000000000E+00 0. -1.
         -2   -1    0    0    0  501 -0.00000000000E+00 -0.00000000000E+00 -0.35335464456E+02  0.35335464456E+02  0.00000000000E+00 0.  1.
         25    2    1    2    0    0 -0.42445030746E+02  0.16501225360E+02  0.13544678174E+03  0.18991030681E+03  0.12508486270E+03 0.  0.
          5    1    3    3  502    0  0.30767685520E+02  0.43417406406E+02  0.40764896338E+02  0.67163761246E+02  0.41800000000E+01 0. -1.
         -5    1    3    3    0  502 -0.73212716266E+02 -0.26916181046E+02  0.94681885402E+02  0.12274654557E+03  0.41800000000E+01 0. -1.
        -11    1    1    2    0    0 -0.15758170436E+00 -0.39295487895E+02  0.21881624145E+03  0.22231668342E+03  0.00000000000E+00 0. -1.
         11    1    1    2    0    0  0.42602612450E+02  0.22794262535E+02  0.85508012559E+02  0.98214974438E+02  0.00000000000E+00 0.  1.
</event>
<event>
 7    1  0.2440960E-009  0.2442816E+03  0.7561462E-02  0.1116973E+00
         -2   -1    0    0    0  501 -0.00000000000E+00  0.00000000000E+00  0.27472625629E+02  0.27472625629E+02  0.00000000000E+00 0. -1.
          2   -1    0    0  501    0  0.00000000000E+00 -0.00000000000E+00 -0.25714479646E+04  0.25714479646E+04  0.00000000000E+00 0.  1.
         25    2    1    2    0    0  0.59552329812E+02 -0.22585701811E+03 -0.16215496640E+04  0.16430544151E+04  0.12508647234E+03 0.  0.
          5    1    3    3  502    0  0.57627624726E+02 -0.12814965911E+03 -0.57460404566E+03  0.59154928785E+03  0.41800000000E+01 0. -1.
         -5    1    3    3    0  502  0.19247050860E+01 -0.97707358996E+02 -0.10469456184E+04  0.10515051273E+04  0.41800000000E+01 0. -1.
        -11    1    1    2    0    0  0.18923768008E+02  0.10060059353E+03 -0.40578139309E+03  0.41849387976E+03  0.00000000000E+00 0.  1.
         11    1    1    2    0    0 -0.78476097820E+02  0.12525642458E+03 -0.51664428181E+03  0.53737229530E+03  0.00000000000E+00 0. -1.
</event>
<event>
 7    1  0.2440960E-009  0.1247167E+03  0.7561462E-02  0.1235513E+00
         -3   -1    0    0    0  501 -0.00000000000E+00  0.00000000000E+00  0.10080369376E+04  0.10080369376E+04  0.00000000000E+00 0.  1.
          3   -1    0    0  501    0  0.00000000000E+00 -0.00000000000E+00 -0.19423905436E+02  0.19423905436E+02  0.00000000000E+00 0. -1.
         25    2    1    2    0    0  0.86041975530E+02  0.99553290436E+01  0.52922221409E+03  0.55065923139E+03  0.12508839717E+03 0.  0.
          5    1    3    3  502    0  0.96888982928E+01 -0.33014141819E+02  0.34374039470E+03  0.34548334209E+03  0.41800000000E+01 0. -1.
         -5    1    3    3    0  502  0.76353077238E+02  0.42969470863E+02  0.18548181938E+03  0.20517588930E+03  0.41800000000E+01 0. -1.
        -11    1    1    2    0    0 -0.87176988317E+02 -0.40759834895E+02  0.36680883222E+03  0.37922277204E+03  0.00000000000E+00 0.  1.
         11    1    1    2    0    0  0.11350127862E+01  0.30804505851E+02  0.92581985881E+02  0.97578839634E+02  0.00000000000E+00 0. -1.
</event>
<event>
 7    1  0.2440960E-009  0.9979414E+02  0.7561462E-02  0.1280729E+00
         -1   -1    0    0    0  501 -0.00000000000E+00  0.00000000000E+00  0.33551187722E+03  0.33551187722E+03  0.00000000000E+00 0.  1.
          1   -1    0    0  501    0  0.00000000000E+00 -0.00000000000E+00 -0.40367934584E+02  0.40367934584E+02  0.00000000000E+00 0. -1.
         25    2    1    2    0    0 -0.33457226887E+02  0.18768594358E+02  0.19725423114E+03  0.23670280264E+03  0.12508932372E+03 0.  0.
          5    1    3    3  502    0 -0.70384224645E+02  0.19658020994E+02  0.18263640853E+03  0.19675849916E+03  0.41800000000E+01 0.  1.
         -5    1    3    3    0  502  0.36926997758E+02 -0.88942663533E+00  0.14617822611E+02  0.39944303487E+02  0.41800000000E+01 0.  1.
        -11    1    1    2    0    0  0.59616061203E+02 -0.54538062356E+01  0.33949660054E+02  0.68821494996E+02  0.00000000000E+00 0. -1.
         11    1    1    2    0    0 -0.26158834316E+02 -0.13314788123E+02  0.63940051437E+02  0.70355514164E+02  0.00000000000E+00 0.  1.
</event>
<event>
 7    1  0.2440960E-009  0.7116327E+02  0.7561462E-02  0.1356181E+00
         -1   -1    0    0    0  501 -0.00000000000E+00  0.00000000000E+00  0.90930830647E+02  0.90930830647E+02  0.00000000000E+00 0.  1.
          1   -1    0    0  501    0  0.00000000000E+00 -0.00000000000E+00 -0.18685697072E+03  0.18685697072E+03  0.00000000000E+00 0. -1.
         25    2    1    2    0    0  0.59890756369E+02 -0.25563153164E+02 -0.89590785546E+02  0.16707003735E+03  0.12508201720E+03 0.  0.
          5    1    3    3  502    0  0.16481256086E+02 -0.25449909749E+02 -0.11334849666E+03  0.11740819308E+03  0.41800000000E+01 0. -1.
         -5    1    3    3    0  502  0.43409500283E+02 -0.11324341539E+00  0.23757711112E+02  0.49661844269E+02  0.41800000000E+01 0. -1.
        -11    1    1    2    0    0 -0.40350092365E+02  0.26944536728E+02  0.38403157412E+02  0.61878433340E+02  0.00000000000E+00 0.  1.
         11    1    1    2    0    0 -0.19540664005E+02 -0.13813835638E+01 -0.44738511940E+02  0.48839330676E+02  0.00000000000E+00 0. -1.
</event>
<event>
 7    1  0.2440960E-009  0.7753269E+02  0.7561462E-02  0.1336203E+00
         -2   -1    0    0    0  501 -0.00000000000E+00  0.00000000000E+00  0.11141048575E+03  0.11141048575E+03  0.00000000000E+00 0.  1.
          2   -1    0    0  501    0  0.00000000000E+00 -0.00000000000E+00 -0.12706723015E+03  0.12706723015E+03  0.00000000000E+00 0. -1.
         25    2    1    2    0    0 -0.32028308664E+02 -0.23513693968E+02  0.34338164450E+02  0.13566884154E+03  0.12509284019E+03 0.  0.
          5    1    3    3  502    0 -0.40158442194E+02  0.11645874635E+02 -0.36757454728E+02  0.55829291179E+02  0.41800000000E+01 0.  1.
         -5    1    3    3    0  502  0.81301335301E+01 -0.35159568602E+02  0.71095619178E+02  0.79839550361E+02  0.41800000000E+01 0.  1.
        -11    1    1    2    0    0 -0.26669805609E+01  0.38735934451E+02  0.15248904031E+01  0.38857569325E+02  0.00000000000E+00 0.  1.
         11    1    1    2    0    0  0.34695289225E+02 -0.15222240483E+02 -0.51519799262E+02  0.63951305036E+02  0.00000000000E+00 0. -1.
</event>
<event>
 7    1  0.2440960E-009  0.1191246E+03  0.7561462E-02  0.1244548E+00
         -2   -1    0    0    0  501 -0.00000000000E+00  0.00000000000E+00  0.20838844894E+02  0.20838844894E+02  0.00000000000E+00 0. -1.
          2   -1    0    0  501    0  0.00000000000E+00 -0.00000000000E+00 -0.92616505849E+03  0.92616505849E+03  0.00000000000E+00 0.  1.
         25    2    1    2    0    0 -0.63033998627E+02 -0.47386569724E+02 -0.62311417327E+03  0.64041636750E+03  0.12507229453E+03 0.  0.
          5    1    3    3  502    0  0.13870389501E+02 -0.66860841355E+02 -0.29050794579E+03  0.29845451710E+03  0.41800000000E+01 0.  1.
         -5    1    3    3    0  502 -0.76904388129E+02  0.19474271632E+02 -0.33260622748E+03  0.34196185040E+03  0.41800000000E+01 0.  1.
        -11    1    1    2    0    0  0.34892456084E+02 -0.44936056251E+00 -0.23694319225E+02  0.42179452107E+02  0.00000000000E+00 0. -1.
         11    1    1    2    0    0  0.28141542544E+02  0.47835930286E+02 -0.25851772110E+03  0.26440808377E+03  0.00000000000E+00 0.  1.
</event>
<event>
 7    1  0.2440960E-009  0.8606006E+02  0.7561462E-02  0.1312683E+00
          2   -1    0    0  501    0  0.00000000000E+00  0.00000000000E+00  0.18280443765E+03  0.18280443765E+03  0.00000000000E+00 0. -1.
         -2   -1    0    0    0  501 -0.00000000000E+00 -0.00000000000E+00 -0.78595075899E+02  0.78595075899E+02  0.00000000000E+00 0.  1.
         25    2    1    2    0    0 -0.27523631340E+01  0.41499637205E+02  0.97425193588E+02  0.16391837393E+03  0.12509104515E+03 0.  0.
          5    1    3    3  502    0 -0.50853458947E+02 -0.11115291904E+02  0.13924340761E+02  0.54046125362E+02  0.41800000000E+01 0. -1.
         -5    1    3    3    0  502  0.48101095813E+02  0.52614929108E+02  0.83500852827E+02  0.10987224857E+03  0.41800000000E+01 0. -1.
        -11    1    1    2    0    0  0.13913149656E+02 -0.22687336594E+02 -0.38724765727E+02  0.46988279982E+02  0.00000000000E+00 0.  1.
         11    1    1    2    0    0 -0.11160786522E+02 -0.18812300611E+02  0.45508933889E+02  0.50492859632E+02  0.00000000000E+00 0. -1.
</event>
<event>
 7    1  0.2440960E-009  0.2624380E+03  0.7561462E-02  0.1105687E+00
          2   -1    0    0  501    0  0.00000000000E+00  0.00000000000E+00  0.24575585446E+04  0.24575585446E+04  0.00000000000E+00 0. -1.
         -2   -1    0    0    0  501 -0.00000000000E+00 -0.00000000000E+00 -0.31609204663E+02  0.31609204663E+02  0.00000000000E+00 0.  1.
         25    2    1    2    0    0  0.15710331410E+03  0.20151137631E+03  0.11638176445E+04  0.11980848502E+04  0.12509001737E+03 0.  0.
          5    1    3    3  502    0 -0.50524449997E+01  0.36394340698E+02  0.35130957622E+03  0.35325057110E+03  0.41800000000E+01 0. -1.
         -5    1    3    3    0  502  0.16215575910E+03  0.16511703562E+03  0.81250806830E+03  0.84483427908E+03  0.41800000000E+01 0. -1.
        -11    1    1    2    0    0 -0.14111463931E+03 -0.16875163924E+03  0.11911043809E+04  0.12112473337E+04  0.00000000000E+00 0.  1.
         11    1    1    2    0    0 -0.15988674795E+02 -0.32759737076E+02  0.71027314564E+02  0.79835565440E+02  0.00000000000E+00 0. -1.
</event>
<event>
 7    1  0.2440960E-009  0.1122851E+03  0.7561462E-02  0.1256396E+00
         -2   -1    0    0    0  501 -0.00000000000E+00  0.00000000000E+00  0.39712861574E+02  0.39712861574E+02  0.00000000000E+00 0.  1.
          2   -1    0    0  501    0  0.00000000000E+00 -0.00000000000E+00 -0.56672085501E+03  0.56672085501E+03  0.00000000000E+00 0. -1.
         25    2    1    2    0    0  0.71042355359E+02  0.82177908344E+01 -0.43637394400E+03  0.45954836769E+03  0.12509170597E+03 0.  0.
          5    1    3    3  502    0  0.74307697593E+02 -0.22876809759E+02 -0.41303323573E+03  0.42030811146E+03  0.41800000000E+01 0. -1.
         -5    1    3    3    0  502 -0.32653422346E+01  0.31094600594E+02 -0.23340708271E+02  0.39240256225E+02  0.41800000000E+01 0. -1.
        -11    1    1    2    0    0 -0.43792523629E+02  0.40302888860E+02 -0.53110273259E+02  0.79767218216E+02  0.00000000000E+00 0.  1.
         11    1    1    2    0    0 -0.27249831729E+02 -0.48520679694E+02 -0.37523776177E+02  0.67118130679E+02  0.00000000000E+00 0. -1.
</event>
<event>
 7    1  0.2440960E-009  0.1068754E+03  0.7561462E-02  0.1266468E+00
          1   -1    0    0  501    0  0.00000000000E+00  0.00000000000E+00  0.93833975361E+03  0.93833975361E+03  0.00000000000E+00 0. -1.
         -1   -1    0    0    0  501 -0.00000000000E+00 -0.00000000000E+00 -0.14230453554E+02  0.14230453554E+02  0.00000000000E+00 0.  1.
         25    2    1    2    0    0 -0.12584933788E+02 -0.40453066786E+02  0.54183516455E+03  0.55769816469E+03  0.12508823363E+03 0.  0.
          5    1    3    3  502    0 -0.58765332742E+02 -0.30341061952E+01  0.14704614401E+03  0.15843803521E+03  0.41800000000E+01 0. -1.
         -5    1    3    3    0  502  0.46180398954E+02 -0.37418960591E+02  0.39478902054E+03  0.39926012949E+03  0.41800000000E+01 0. -1.
        -11    1    1    2    0    0 -0.36546571000E+02  0.22207494493E+02  0.22695114282E+03  0.23094511445E+03  0.00000000000E+00 0. -1.
         11    1    1    2    0    0  0.49131504787E+02  0.18245572293E+02  0.15532299269E+03  0.16392692802E+03  0.00000000000E+00 0.  1.
</event>
<event>
 7    1  0.2440960E-009  0.1245315E+03  0.7561462E-02  0.1235803E+00
          2   -1    0    0  501    0  0.00000000000E+00  0.00000000000E+00  0.65366851396E+02  0.65366851396E+02  0.00000000000E+00 0. -1.
         -2   -1    0    0    0  501 -0.00000000000E+00 -0.00000000000E+00 -0.33447982632E+03  0.33447982632E+03  0.00000000000E+00 0.  1.
         25    2    1    2    0    0 -0.84632652803E+02 -0.46275056872E+02 -0.11188957305E+03  0.19357573748E+03  0.12509285661E+03 0.  0.
          5    1    3    3  502    0  0.18763865310E+01  0.30094327609E+02 -0.59375740108E+02  0.66724360574E+02  0.41800000000E+01 0.  1.
         -5    1    3    3    0  502 -0.86509039334E+02 -0.76369384480E+02 -0.52513832941E+02  0.12685137690E+03  0.41800000000E+01 0.  1.
        -11    1    1    2    0    0  0.28896196233E+02  0.36516436823E+02 -0.13935958454E+03  0.14693377460E+03  0.00000000000E+00 0.  1.
         11    1    1    2    0    0  0.55736456570E+02  0.97586200493E+01 -0.17863817337E+02  0.59337165639E+02  0.00000000000E+00 0. -1.
</event>
<event>
 7    1  0.2440960E-009  0.1407184E+03  0.7561462E-02  0.1212366E+00
         -1   -1    0    0    0  501 -0.00000000000E+00  0.00000000000E+00  0.28520935998E+03  0.28520935998E+03  0.00000000000E+00 0.  1.
          1   -1    0    0  501    0  0.00000000000E+00 -0.00000000000E+00 -0.80758470742E+02  0.80758470742E+02  0.00000000000E+00 0. -1.
         25    2    1    2    0    0  0.92372487272E+02  0.49746875331E+02  0.95924121262E+02  0.18935643237E+03  0.12508794279E+03 0.  0.
          5    1    3    3  502    0  0.11011805664E+03  0.68960530611E+02  0.97986916739E+02  0.16278958637E+03  0.41800000000E+01 0. -1.
         -5    1    3    3    0  502 -0.17745569364E+02 -0.19213655280E+02 -0.20627954770E+01  0.26566846001E+02  0.41800000000E+01 0. -1.
        -11    1    1    2    0    0 -0.42275680083E+02 -0.60411460671E+02  0.23571616915E+02  0.77410586039E+02  0.00000000000E+00 0. -1.
         11    1    1    2    0    0 -0.50096807189E+02  0.10664585340E+02  0.84955151063E+02  0.99200812311E+02  0.00000000000E+00 0.  1.
</event>
<event>
 7    1  0.2440960E-009  0.8200379E+02  0.7561462E-02  0.1323459E+00
         -2   -1    0    0    0  501 -0.00000000000E+00  0.00000000000E+00  0.84239937008E+02  0.84239937008E+02  0.00000000000E+00 0.  1.
          2   -1    0    0  501    0  0.00000000000E+00 -0.00000000000E+00 -0.19036591512E+03  0.19036591512E+03  0.00000000000E+00 0. -1.
         25    2    1    2    0    0 -0.38220059721E+02  0.39093892851E+02 -0.26974638248E+02  0.13916125358E+03  0.12509643467E+03 0.  0.
          5    1    3    3  502    0 -0.80030763126E+01 -0.31270424595E+02  0.29493515127E+02  0.43922983953E+02  0.41800000000E+01 0. -1.
         -5    1    3    3    0  502 -0.30216983408E+02  0.70364317447E+02 -0.56468153374E+02  0.95238269627E+02  0.41800000000E+01 0. -1.
        -11    1    1    2    0    0  0.15531714913E+02 -0.13651665009E+02 -0.95446626350E+02  0.97660947196E+02  0.00000000000E+00 0. -1.
         11    1    1    2    0    0  0.22688344807E+02 -0.25442227842E+02  0.16295286487E+02  0.37783651350E+02  0.00000000000E+00 0.  1.
</event>
<event>
 7    1  0.2440960E-009  0.1088019E+03  0.7561462E-02  0.1262805E+00
         -1   -1    0    0    0  501 -0.00000000000E+00  0.00000000000E+00  0.42821193856E+03  0.42821193856E+03  0.00000000000E+00 0.  1.
          1   -1    0    0  501    0  0.00000000000E+00 -0.00000000000E+00 -0.36332953875E+02  0.36332953875E+02  0.00000000000E+00 0. -1.
         25    2    1    2    0    0 -0.32286548669E+02  0.26749945114E+02  0.31114028509E+03  0.33795298147E+03  0.12508381148E+03 0.  0.
          5    1    3    3  502    0 -0.39951785140E+02  0.72639813715E+02  0.16808315786E+03  0.18746228428E+03  0.41800000000E+01 0. -1.
         -5    1    3    3    0  502  0.76652364710E+01 -0.45889868601E+02  0.14305712723E+03  0.15049069719E+03  0.41800000000E+01 0. -1.
        -11    1    1    2    0    0 -0.15661153704E+02  0.16901675564E+02  0.49536657546E+02  0.54633495340E+02  0.00000000000E+00 0.  1.
         11    1    1    2    0    0  0.47947702373E+02 -0.43651620679E+02  0.31202042053E+02  0.71958415623E+02  0.00000000000E+00 0. -1.
</event>
<event>
 7    1  0.2440960E-009  0.5596578E+02  0.7561462E-02  0.1415586E+00
          2   -1    0    0  501    0  0.00000000000E+00  0.00000000000E+00  0.58085227389E+03  0.58085227389E+03  0.00000000000E+00 0.  1.
         -2   -1    0    0    0  501 -0.00000000000E+00 -0.00000000000E+00 -0.18419808206E+02  0.18419808206E+02  0.00000000000E+00 0. -1.
         25    2    1    2    0    0 -0.12350118266E+01 -0.12090891221E+02  0.29656292093E+03  0.32209463200E+03  0.12509065107E+03 0.  0.
          5    1    3    3  502    0  0.18771593904E+02 -0.53182209819E+01  0.29967574707E+03  0.30033927814E+03  0.41800000000E+01 0.  1.
         -5    1    3    3    0  502 -0.20006605730E+02 -0.67726702390E+01 -0.31128261348E+01  0.21755353860E+02  0.41800000000E+01 0.  1.
        -11    1    1    2    0    0 -0.14932842377E+02 -0.25486485204E+02  0.55539661624E+02  0.62906317034E+02  0.00000000000E+00 0. -1.
         11    1    1    2    0    0  0.16167854204E+02  0.37577376425E+02  0.21032988313E+03  0.21427113307E+03  0.00000000000E+00 0.  1.
</event>
<event>
 7    1  0.2542106E-009  0.8003685E+02  0.7561462E-02  0.1328947E+00
          1   -1    0    0  501    0  0.00000000000E+00  0.00000000000E+00  0.34682681238E+03  0.34682681238E+03  0.00000000000E+00 0. -1.
         -1   -1    0    0    0  501 -0.00000000000E+00 -0.00000000000E+00 -0.40238423857E+02  0.40238423857E+02  0.00000000000E+00 0.  1.
         25    2    1    2    0    0 -0.44795617064E+02 -0.47103110812E+01  0.19618165804E+03  0.23698816187E+03  0.12508921447E+03 0.  0.
          5    1    3    3  502    0  0.15946194317E+02 -0.26712462312E+02  0.15954073960E+03  0.16259937500E+03  0.41800000000E+01 0. -1.
         -5    1    3    3    0  502 -0.60741811381E+02  0.22002151231E+02  0.36640918433E+02  0.74388786871E+02  0.41800000000E+01 0. -1.
        -11    1    1    2    0    0  0.36402031759E+02 -0.17362170043E+02  0.33753028074E+01  0.40471539801E+02  0.00000000000E+00 0.  1.
         11    1    1    2    0    0  0.83935853041E+01  0.22072481124E+02  0.10703142768E+03  0.10960553457E+03  0.00000000000E+00 0. -1.
</event>
<event>
 7    1  0.2440960E-009  0.1088714E+03  0.7561462E-02  0.1262674E+00
          1   -1    0    0  501    0  0.00000000000E+00  0.00000000000E+00  0.26547368736E+03  0.26547368736E+03  0.00000000000E+00 0. -1.
         -1   -1    0    0    0  501 -0.00000000000E+00 -0.00000000000E+00 -0.75454135216E+02  0.75454135216E+02  0.00000000000E+00 0.  1.
         25    2    1    2    0    0 -0.81343096571E+02  0.32802862400E+02  0.11958867812E+03  0.19401586277E+03  0.12509186996E+03 0.  0.
          5    1    3    3  502    0 -0.10205029984E+03  0.30313941606E+02  0.43616309772E+02  0.11512190770E+03  0.41800000000E+01 0. -1.
         -5    1    3    3    0  502  0.20707203271E+02  0.24889207943E+01  0.75972368350E+02  0.78893955070E+02  0.41800000000E+01 0. -1.
        -11    1    1    2    0    0  0.57908778688E+02 -0.32688275121E+02 -0.61921127304E+01  0.66785419364E+02  0.00000000000E+00 0.  1.
         11    1    1    2    0    0  0.23434317883E+02 -0.11458727874E+00  0.76622986755E+02  0.80126540448E+02  0.00000000000E+00 0. -1.
</event>
<event>
 7    1  0.2440960E-009  0.1140509E+03  0.7561462E-02  0.1253247E+00
         -2   -1    0    0    0  501 -0.00000000000E+00  0.00000000000E+00  0.35053433318E+02  0.35053433318E+02  0.00000000000E+00 0.  1.
          2   -1    0    0  501    0  0.00000000000E+00 -0.00000000000E+00 -0.41933341134E+03  0.41933341134E+03  0.00000000000E+00 0. -1.
         25    2    1    2    0    0 -0.37490124164E+02 -0.47023635817E+02 -0.25476982702E+03  0.29011526907E+03  0.12506987188E+03 0.  0.
          5    1    3    3  502    0 -0.66594911717E+01  0.39611221501E+02 -0.12235707136E+03  0.12884922586E+03  0.41800000000E+01 0. -1.
         -5    1    3    3    0  502 -0.30830632992E+02 -0.86634857318E+02 -0.13241275566E+03  0.16126604322E+03  0.41800000000E+01 0. -1.
        -11    1    1    2    0    0 -0.11378549743E+02  0.45363537417E+02 -0.89924773091E+02  0.10135968990E+03  0.00000000000E+00 0. -1.
         11    1    1    2    0    0  0.48868673907E+02  0.16600984000E+01 -0.39585377906E+02  0.62911885682E+02  0.00000000000E+00 0.  1.
</event>
<event>
 7    1  0.2440960E-009  0.1052424E+03  0.7561462E-02  0.1269643E+00
         -2   -1    0    0    0  501 -0.00000000000E+00  0.00000000000E+00  0.25109072360E+03  0.25109072360E+03  0.00000000000E+00 0. -1.
          2   -1    0    0  501    0  0.00000000000E+00 -0.00000000000E+00 -0.61249874827E+02  0.61249874827E+02  0.00000000000E+00 0.  1.
         25    2    1    2    0    0 -0.22881460102E+02  0.55656747126E+02  0.10764699478E+03  0.17565996930E+03  0.12508922660E+03 0.  0.
          5    1    3    3  502    0 -0.38701458492E+02 -0.79940407287E+01 -0.99311861374E+01  0.40961059980E+02  0.41800000000E+01 0.  1.
         -5    1    3    3    0  502  0.15819998390E+02  0.63650787854E+02  0.11757818092E+03  0.13469890932E+03  0.41800000000E+01 0.  1.
        -11    1    1    2    0    0  0.27794278469E+02 -0.77658240383E+02  0.78443392924E+02  0.11382745762E+03  0.00000000000E+00 0.  1.
         11    1    1    2    0    0 -0.49128183667E+01  0.22001493257E+02  0.37504610710E+01  0.22853171511E+02  0.00000000000E+00 0. -1.
</event>
<event>
 7    1  0.2440960E-009  0.1029412E+03  0.7561462E-02  0.1274230E+00
          1   -1    0    0  501    0  0.00000000000E+00  0.00000000000E+00  0.86644992026E+02  0.86644992026E+02  0.00000000000E+00 0. -1.
         -1   -1    0    0    0  501 -0.00000000000E+00 -0.00000000000E+00 -0.29705351239E+03  0.29705351239E+03  0.00000000000E+00 0.  1.
         25    2    1    2    0    0 -0.37564704288E+02 -0.17526534820E+02  0.19386783927E+02  0.13320256914E+03  0.12509512622E+03 0.  0.
          5    1    3    3  502    0 -0.36670323996E+02  0.40217465453E+02  0.44171246462E+02  0.70219146986E+02  0.41800000000E+01 0. -1.
         -5    1    3    3    0  502 -0.89438029188E+00 -0.57744000273E+02 -0.24784462535E+02  0.62983422159E+02  0.41800000000E+01 0. -1.
        -11    1    1    2    0    0 -0.24318968819E+02 -0.91799745302E+01 -0.30298280404E+02  0.39920796238E+02  0.00000000000E+00 0.  1.
         11    1    1    2    0    0  0.61883673107E+02  0.26706509350E+02 -0.19949702388E+03  0.21057513903E+03  0.00000000000E+00 0. -1.
</event>
<event>
 7    1  0.2440960E-009  0.9668390E+02  0.7561462E-02  0.1287428E+00
          1   -1    0    0  501    0  0.00000000000E+00  0.00000000000E+00  0.30918932962E+02  0.30918932962E+02  0.00000000000E+00 0. -1.
         -1   -1    0    0    0  501 -0.00000000000E+00 -0.00000000000E+00 -0.83819998374E+03  0.83819998374E+03  0.00000000000E+00 0.  1.
         25    2    1    2    0    0  0.58708470428E+02 -0.43295330968E+02 -0.68350913941E+03  0.69867963934E+03  0.12508926649E+03 0.  0.
          5    1    3    3  502    0  0.21603740282E+02  0.25726894098E+01 -0.13246281052E+02  0.25812335940E+02  0.41800000000E+01 0. -1.
         -5    1    3    3    0  502  0.37104730146E+02 -0.45868020378E+02 -0.67026285835E+03  0.67286730340E+03  0.41800000000E+01 0. -1.
        -11    1    1    2    0    0 -0.60260379639E+02 -0.79653356438E+01 -0.91486996200E+02  0.10983911143E+03  0.00000000000E+00 0.  1.
         11    1    1    2    0    0  0.15519092104E+01  0.51260666612E+02 -0.32284915176E+02  0.60600165937E+02  0.00000000000E+00 0. -1.
</event>
<event>
 7    1  0.2440960E-009  0.4903127E+02  0.7561462E-02  0.1450638E+00
          1   -1    0    0  501    0  0.00000000000E+00  0.00000000000E+00  0.12846644207E+03  0.12846644207E+03  0.00000000000E+00 0. -1.
         -1   -1    0    0    0  501 -0.00000000000E+00 -0.00000000000E+00 -0.17746717039E+03  0.17746717039E+03  0.00000000000E+00 0.  1.
         25    2    1    2    0    0 -0.16102151684E+02 -0.33102204175E+02 -0.12561768723E+03  0.18105979806E+03  0.12509121438E+03 0.  0.
          5    1    3    3  502    0 -0.87297312566E+01 -0.38494550881E+02  0.13237403859E+02  0.41841844083E+02  0.41800000000E+01 0.  1.
         -5    1    3    3    0  502 -0.73724204279E+01  0.53923467058E+01 -0.13885509109E+03  0.13921795397E+03  0.41800000000E+01 0.  1.
        -11    1    1    2    0    0  0.16436605018E+01  0.33809122286E+02  0.95361263477E+02  0.10119055757E+03  0.00000000000E+00 0. -1.
         11    1    1    2    0    0  0.14458491183E+02 -0.70691811087E+00 -0.18744304567E+02  0.23683256833E+02  0.00000000000E+00 0.  1.
</event>
<event>
 7    1  0.2440960E-009  0.6000632E+02  0.7561462E-02  0.1397805E+00
          1   -1    0    0  501    0  0.00000000000E+00  0.00000000000E+00  0.61276598051E+03  0.61276598051E+03  0.00000000000E+00 0. -1.
         -1   -1    0    0    0  501 -0.00000000000E+00 -0.00000000000E+00 -0.19840094263E+02  0.19840094263E+02  0.00000000000E+00 0.  1.
         25    2    1    2    0    0  0.31062265667E+02 -0.21955571059E+02  0.43048686614E+03  0.44990174329E+03  0.12508287351E+03 0.  0.
          5    1    3    3  502    0  0.37022350604E+02 -0.53261161422E+01  0.43010101840E+03  0.43174457771E+03  0.41800000000E+01 0.  1.
         -5    1    3    3    0  502 -0.59600849374E+01 -0.16629454917E+02  0.38584774233E+00  0.18157165576E+02  0.41800000000E+01 0.  1.
        -11    1    1    2    0    0 -0.41741250876E+02  0.22400560458E+01  0.38749264414E+02  0.56998731287E+02  0.00000000000E+00 0.  1.
         11    1    1    2    0    0  0.10678985209E+02  0.19715515013E+02  0.12368975570E+03  0.12570560020E+03  0.00000000000E+00 0. -1.
</event>
<event>
 7    1  0.2440960E-009  0.1856074E+03  0.7561462E-02  0.1162484E+00
          2   -1    0    0  501    0  0.00000000000E+00  0.00000000000E+00  0.10522079478E+04  0.10522079478E+04  0.00000000000E+00 0.  1.
         -2   -1    0    0    0  501 -0.00000000000E+00 -0.00000000000E+00 -0.35279101128E+02  0.35279101128E+02  0.00000000000E+00 0. -1.
         25    2    1    2    0    0  0.14330883685E+03 -0.70628623344E+02  0.58058414580E+03  0.61502434859E+03  0.12510465157E+03 0.  0.
          5    1    3    3  502    0  0.84139425543E+02 -0.97544947176E+02  0.29199905283E+03  0.31917922693E+03  0.41800000000E+01 0.  1.
         -5    1    3    3    0  502  0.59169411308E+02  0.26916323832E+02  0.28858509297E+03  0.29584512166E+03  0.41800000000E+01 0.  1.
        -11    1    1    2    0    0 -0.15290634157E+03  0.66565380022E+02  0.42720160983E+03  0.45859842406E+03  0.00000000000E+00 0.  1.
         11    1    1    2    0    0  0.95975047221E+01  0.40632433216E+01  0.91430910622E+01  0.13864276301E+02  0.00000000000E+00 0. -1.
</event>
<event>
 7    1  0.2440960E-009  0.1589234E+03  0.7561462E-02  0.1189918E+00
         -3   -1    0    0    0  501 -0.00000000000E+00  0.00000000000E+00  0.56112670010E+03  0.56112670010E+03  0.00000000000E+00 0.  1.
          3   -1    0    0  501    0  0.00000000000E+00 -0.00000000000E+00 -0.55609733820E+02  0.55609733820E+02  0.00000000000E+00 0. -1.
         25    2    1    2    0    0 -0.13488312402E+03  0.34433658125E+02  0.26368204572E+03  0.32334972376E+03  0.12509072172E+03 0.  0.
          5    1    3    3  502    0 -0.46310957368E+02  0.54802654938E+02  0.40871672559E+02  0.82680117189E+02  0.41800000000E+01 0.  1.
         -5    1    3    3    0  502 -0.88572166649E+02 -0.20368996813E+02  0.22281037316E+03  0.24066960657E+03  0.41800000000E+01 0.  1.
        -11    1    1    2    0    0  0.12877332794E+03 -0.92767943154E+01  0.23236003868E+03  0.26581914242E+03  0.00000000000E+00 0.  1.
         11    1    1    2    0    0  0.61097960783E+01 -0.25156863810E+02  0.94748818792E+01  0.27567567747E+02  0.00000000000E+00 0. -1.
</event>
<event>
 7    1  0.2541719E-009  0.8651580E+02  0.7561462E-02  0.1311515E+00
          1   -1    0    0  501    0  0.00000000000E+00  0.00000000000E+00  0.37315908862E+03  0.37315908862E+03  0.00000000000E+00 0. -1.
         -1   -1    0    0    0  501 -0.00000000000E+00 -0.00000000000E+00 -0.40454181402E+02  0.40454181402E+02  0.00000000000E+00 0.  1.
         25    2    1    2    0    0  0.21808958880E+02  0.88049787395E+01  0.27433011473E+03  0.30242534082E+03  0.12510362339E+03 0.  0.
          5    1    3    3  502    0  0.33806396484E+02  0.41108906486E+02  0.43127466268E+02  0.68631373164E+02  0.41800000000E+01 0.  1.
         -5    1    3    3    0  502 -0.11997437604E+02 -0.32303927746E+02  0.23120264846E+03  0.23379396766E+03  0.41800000000E+01 0.  1.
        -11    1    1    2    0    0 -0.40280298576E+02 -0.34670992169E+02  0.11215074856E+02  0.54317198523E+02  0.00000000000E+00 0.  1.
         11    1    1    2    0    0  0.18471339696E+02  0.25866013430E+02  0.47159717637E+02  0.56870730683E+02  0.00000000000E+00 0. -1.
</event>
<event>
 7    1  0.2440960E-009  0.2187581E+03  0.7561462E-02  0.1134812E+00
          2   -1    0    0  501    0  0.00000000000E+00  0.00000000000E+00  0.16300808137E+04  0.16300808137E+04  0.00000000000E+00 0. -1.
         -2   -1    0    0    0  501 -0.00000000000E+00 -0.00000000000E+00 -0.34016800244E+02  0.34016800244E+02  0.00000000000E+00 0.  1.
         25    2    1    2    0    0 -0.13554696066E+03 -0.15849414230E+03  0.82202468839E+03  0.85724300340E+03  0.12509039474E+03 0.  0.
          5    1    3    3  502    0 -0.79287067994E+02 -0.76535001019E+02  0.21011719773E+03  0.23729887213E+03  0.41800000000E+01 0.  1.
         -5    1    3    3    0  502 -0.56259892662E+02 -0.81959141285E+02  0.61190749067E+03  0.61994413127E+03  0.41800000000E+01 0.  1.
        -11    1    1    2    0    0  0.14598303727E+03  0.12348057548E+03  0.64517300833E+03  0.67290913976E+03  0.00000000000E+00 0. -1.
         11    1    1    2    0    0 -0.10436076619E+02  0.35013566827E+02  0.12886631678E+03  0.13394547083E+03  0.00000000000E+00 0.  1.
</event>
<event>
 7    1  0.2440960E-009  0.2124228E+03  0.7561462E-02  0.1139662E+00
          2   -1    0    0  501    0  0.00000000000E+00  0.00000000000E+00  0.51277579240E+03  0.51277579240E+03  0.00000000000E+00 0. -1.
         -2   -1    0    0    0  501 -0.00000000000E+00 -0.00000000000E+00 -0.14319469857E+03  0.14319469857E+03  0.00000000000E+00 0.  1.
         25    2    1    2    0    0  0.92340898732E+02 -0.17664549866E+03  0.37125701409E+03  0.43955684254E+03  0.12509186036E+03 0.  0.
          5    1    3    3  502    0  0.11350525831E+03 -0.15621536347E+03  0.35850871278E+03  0.40722555542E+03  0.41800000000E+01 0. -1.
         -5    1    3    3    0  502 -0.21164359576E+02 -0.20430135190E+02  0.12748301315E+02  0.32331287116E+02  0.41800000000E+01 0. -1.
        -11    1    1    2    0    0 -0.72912956800E+02  0.16202874802E+03 -0.28789908203E+02  0.17999575903E+03  0.00000000000E+00 0.  1.
         11    1    1    2    0    0 -0.19427941932E+02  0.14616750646E+02  0.27113987936E+02  0.36417889408E+02  0.00000000000E+00 0. -1.
</event>
<event>
 7    1  0.2440960E-009  0.1647305E+03  0.7561462E-02  0.1183457E+00
          2   -1    0    0  501    0  0.00000000000E+00  0.00000000000E+00  0.73314676890E+03  0.73314676890E+03  0.00000000000E+00 0. -1.
         -2   -1    0    0    0  501 -0.00000000000E+00 -0.00000000000E+00 -0.67892114037E+02  0.67892114037E+02  0.00000000000E+00 0.  1.
         25    2    1    2    0    0 -0.98710954160E+02  0.10560117590E+03  0.57992694009E+03  0.61062110203E+03  0.12508962218E+03 0.  0.
          5    1    3    3  502    0 -0.37232284227E+02  0.11016281370E+03  0.26099083331E+03  0.28575474796E+03  0.41800000000E+01 0. -1.
         -5    1    3    3    0  502 -0.61478669934E+02 -0.45616377977E+01  0.31893610678E+03  0.32486635407E+03  0.41800000000E+01 0. -1.
        -11    1    1    2    0    0  0.68025623400E+02 -0.40063401590E+02  0.87717872654E+02  0.11801265512E+03  0.00000000000E+00 0. -1.
         11    1    1    2    0    0  0.30685330760E+02 -0.65537774311E+02 -0.23901578816E+01  0.72405125787E+02  0.00000000000E+00 0.  1.
</event>
<event>
 7    1  0.2440960E-009  0.1094344E+03  0.7561462E-02  0.1261621E+00
         -2   -1    0    0    0  501 -0.00000000000E+00  0.00000000000E+00  0.26631892751E+02  0.26631892751E+02  0.00000000000E+00 0.  1.
          2   -1    0    0  501    0  0.00000000000E+00 -0.00000000000E+00 -0.55416853856E+03  0.55416853856E+03  0.00000000000E+00 0. -1.
         25    2    1    2    0    0  0.16453570373E+01 -0.31275793768E+02 -0.19376896443E+03  0.23275477208E+03  0.12508992714E+03 0.  0.
          5    1    3    3  502    0 -0.44795867522E+02 -0.55958900237E+02 -0.80927812829E+02  0.10818896225E+03  0.41800000000E+01 0. -1.
         -5    1    3    3    0  502  0.46441224559E+02  0.24683106469E+02 -0.11284115160E+03  0.12456580983E+03  0.41800000000E+01 0. -1.
        -11    1    1    2    0    0 -0.41720802632E+02 -0.26439229990E+01 -0.20043382710E+03  0.20474700181E+03  0.00000000000E+00 0. -1.
         11    1    1    2    0    0  0.40075445594E+02  0.33919716767E+02 -0.13333385427E+03  0.14329865743E+03  0.00000000000E+00 0.  1.
</event>
<event>
 7    1  0.2440960E-009  0.1166964E+03  0.7561462E-02  0.1248649E+00
         -2   -1    0    0    0  501 -0.00000000000E+00  0.00000000000E+00  0.18761334955E+03  0.18761334955E+03  0.00000000000E+00 0.  1.
          2   -1    0    0  501    0  0.00000000000E+00 -0.00000000000E+00 -0.10429349648E+03  0.10429349648E+03  0.00000000000E+00 0. -1.
         25    2    1    2    0    0  0.11682073357E+02  0.81301031263E+02  0.18194459266E+02  0.15075050244E+03  0.12509335360E+03 0.  0.
          5    1    3    3  502    0  0.59829727511E+02  0.49231983958E+02 -0.21439186902E+02  0.80501525907E+02  0.41800000000E+01 0.  1.
         -5    1    3    3    0  502 -0.48147654154E+02  0.32069047305E+02  0.39633646167E+02  0.70248976534E+02  0.41800000000E+01 0.  1.
        -11    1    1    2    0    0 -0.31540893876E+02 -0.33376975968E+02  0.75389732667E+02  0.88274924541E+02  0.00000000000E+00 0.  1.
         11    1    1    2    0    0  0.19858820519E+02 -0.47924055295E+02 -0.10264338866E+02  0.52881419049E+02  0.00000000000E+00 0. -1.
</event>
<event>
 7    1  0.2440960E-009  0.1150743E+03  0.7561462E-02  0.1251451E+00
          1   -1    0    0  501    0  0.00000000000E+00  0.00000000000E+00  0.87556229167E+02  0.87556229167E+02  0.00000000000E+00 0. -1.
         -1   -1    0    0    0  501 -0.00000000000E+00 -0.00000000000E+00 -0.20383495580E+03  0.20383495580E+03  0.00000000000E+00 0.  1.
         25    2    1    2    0    0 -0.18830578991E+02 -0.78781197706E+02 -0.66112434362E+02  0.16302922798E+03  0.12508639967E+03 0.  0.
          5    1    3    3  502    0 -0.52786263019E+00  0.33092642235E+02 -0.27392041123E+02  0.43164776450E+02  0.41800000000E+01 0.  1.
         -5    1    3    3    0  502 -0.18302716361E+02 -0.11187383994E+03 -0.38720393238E+02  0.11986445154E+03  0.41800000000E+01 0.  1.
        -11    1    1    2    0    0  0.20304567940E+01  0.49880272140E+02  0.17490639695E+02  0.52896944907E+02  0.00000000000E+00 0. -1.
         11    1    1    2    0    0  0.16800122197E+02  0.28900925566E+02 -0.67656931967E+02  0.75465012076E+02  0.00000000000E+00 0.  1.
</event>
<event>
 7    1  0.2440960E-009  0.1828073E+03  0.7561462E-02  0.1165113E+00
          1   -1    0    0  501    0  0.00000000000E+00  0.00000000000E+00  0.13573537485E+03  0.13573537485E+03  0.00000000000E+00 0. -1.
         -1   -1    0    0    0  501 -0.00000000000E+00 -0.00000000000E+00 -0.26686855945E+03  0.26686855945E+03  0.00000000000E+00 0.  1.
         25    2    1    2    0    0  0.13322683037E+03  0.81151000063E+02 -0.68615556672E+02  0.21139492249E+03  0.12507935680E+03 0.  0.
          5    1    3    3  502    0  0.13357672185E+01  0.52351174182E+02 -0.54334155746E+02  0.75578453231E+02  0.41800000000E+01 0.  1.
         -5    1    3    3    0  502  0.13189106315E+03  0.28799825881E+02 -0.14281400926E+02  0.13581646926E+03  0.41800000000E+01 0.  1.
        -11    1    1    2    0    0 -0.74794582197E+02  0.38211150669E+01 -0.42661427771E+02  0.86190648366E+02  0.00000000000E+00 0.  1.
         11    1    1    2    0    0 -0.58432248174E+02 -0.84972115130E+02 -0.19856200159E+02  0.10501836345E+03  0.00000000000E+00 0. -1.
</event>
<event>
 7    1  0.2440960E-009  0.1072644E+03  0.7561462E-02  0.1265721E+00
          2   -1    0    0  501    0  0.00000000000E+00  0.00000000000E+00  0.21339845278E+03  0.21339845278E+03  0.00000000000E+00 0. -1.
         -2   -1    0    0    0  501 -0.00000000000E+00 -0.00000000000E+00 -0.83025977362E+02  0.83025977362E+02  0.00000000000E+00 0.  1.
         25    2    1    2    0    0 -0.19664839586E+02  0.73882279180E+02  0.66155100752E+02  0.16084909560E+03  0.12510250639E+03 0.  0.
          5    1    3    3  502    0 -0.22824782019E+02  0.86912876220E+02  0.93723599215E+02  0.12990921514E+03  0.41800000000E+01 0. -1.
         -5    1    3    3    0  502  0.31599424323E+01 -0.13030597040E+02 -0.27568498463E+02  0.30939880461E+02  0.41800000000E+01 0. -1.
        -11    1    1    2    0    0  0.31036317317E+02  0.44675544438E+01 -0.32933481093E+01  0.31528688160E+02  0.00000000000E+00 0.  1.
         11    1    1    2    0    0 -0.11371477731E+02 -0.78349833624E+02  0.67510722776E+02  0.10404664639E+03  0.00000000000E+00 0. -1.
</event>
<event>
 7    1  0.2440960E-009  0.1580191E+03  0.7561462E-02  0.1190952E+00
         -2   -1    0    0    0  501 -0.00000000000E+00  0.00000000000E+00  0.32262714980E+02  0.32262714980E+02  0.00000000000E+00 0.  1.
          2   -1    0    0  501    0  0.00000000000E+00 -0.00000000000E+00 -0.91123649669E+03  0.91123649669E+03  0.00000000000E+00 0. -1.
         25    2    1    2    0    0  0.84839743448E+02 -0.95948120067E+02 -0.54397251365E+03  0.57267208673E+03  0.12507357633E+03 0.  0.
          5    1    3    3  502    0  0.93063783784E+02 -0.15431844672E+02 -0.34847776653E+03  0.36104464523E+03  0.41800000000E+01 0. -1.
         -5    1    3    3    0  502 -0.82240403366E+01 -0.80516275396E+02 -0.19549474712E+03  0.21162744150E+03  0.41800000000E+01 0. -1.
        -11    1    1    2    0    0 -0.37689532741E+02  0.48621359514E+01 -0.28161952819E+02  0.47299437955E+02  0.00000000000E+00 0.  1.
         11    1    1    2    0    0 -0.47150210706E+02  0.91085984116E+02 -0.30683931523E+03  0.32352768698E+03  0.00000000000E+00 0. -1.
</event>
<event>
 7    1  0.2440960E-009  0.1483553E+03  0.7561462E-02  0.1202509E+00
         -2   -1    0    0    0  501 -0.00000000000E+00  0.00000000000E+00  0.24350804681E+02  0.24350804681E+02  0.00000000000E+00 0.  1.
          2   -1    0    0  501    0  0.00000000000E+00 -0.00000000000E+00 -0.93158270183E+03  0.93158270183E+03  0.00000000000E+00 0. -1.
         25    2    1    2    0    0 -0.55244060388E+02 -0.88471399987E+02 -0.45103488287E+03  0.47954058030E+03  0.12509039838E+03 0.  0.
          5    1    3    3  502    0  0.38462195667E+02 -0.17610756604E+02 -0.84066354552E+02  0.94202460750E+02  0.41800000000E+01 0. -1.
         -5    1    3    3    0  502 -0.93706256055E+02 -0.70860643382E+02 -0.36696852831E+03  0.38533811955E+03  0.41800000000E+01 0. -1.
        -11    1    1    2    0    0  0.73312044917E+02  0.37049730849E+02 -0.29550459756E+03  0.30670882881E+03  0.00000000000E+00 0. -1.
         11    1    1    2    0    0 -0.18067984528E+02  0.51421669138E+02 -0.16069241672E+03  0.16968409741E+03  0.00000000000E+00 0.  1.
</event>
<event>
 7    1  0.2440960E-009  0.1801081E+03  0.7561462E-02  0.1167698E+00
          4   -1    0    0  501    0  0.00000000000E+00  0.00000000000E+00  0.28039876161E+03  0.28039876161E+03  0.00000000000E+00 0. -1.
         -4   -1    0    0    0  501 -0.00000000000E+00 -0.00000000000E+00 -0.23125452432E+03  0.23125452432E+03  0.00000000000E+00 0.  1.
         25    2    1    2    0    0  0.10731893728E+03  0.11408213376E+03 -0.14407312992E+03  0.24685427059E+03  0.12509147293E+03 0.  0.
          5    1    3    3  502    0  0.53079868499E+00  0.72054306306E+02 -0.14324616620E+02  0.73585133320E+02  0.41800000000E+01 0. -1.
         -5    1    3    3    0  502  0.10678813860E+03  0.42027827455E+02 -0.12974851330E+03  0.17326913727E+03  0.41800000000E+01 0. -1.
        -11    1    1    2    0    0 -0.10951390669E+02 -0.63362563891E+02  0.11125819299E+03  0.12850343563E+03  0.00000000000E+00 0. -1.
         11    1    1    2    0    0 -0.96367546615E+02 -0.50719569870E+02  0.81959174218E+02  0.13629557970E+03  0.00000000000E+00 0.  1.
</event>
<event>
 7    1  0.2440960E-009  0.1110405E+03  0.7561462E-02  0.1258655E+00
          2   -1    0    0  501    0  0.00000000000E+00  0.00000000000E+00  0.23453669876E+03  0.23453669876E+03  0.00000000000E+00 0. -1.
         -2   -1    0    0    0  501 -0.00000000000E+00 -0.00000000000E+00 -0.57786412796E+02  0.57786412796E+02  0.00000000000E+00 0.  1.
         25    2    1    2    0    0 -0.27734952886E+02 -0.13245193616E+02  0.65451613711E+02  0.14448336545E+03  0.12508743498E+03 0.  0.
          5    1    3    3  502    0  0.20308970906E+02 -0.58867931358E+02  0.30857711088E+02  0.69624409335E+02  0.41800000000E+01 0.  1.
         -5    1    3    3    0  502 -0.48043923792E+02  0.45622737742E+02  0.34593902623E+02  0.74858956119E+02  0.41800000000E+01 0.  1.
        -11    1    1    2    0    0 -0.21031183613E+02  0.34244323106E+02  0.27712038066E+02  0.48815380803E+02  0.00000000000E+00 0.  1.
         11    1    1    2    0    0  0.48766136499E+02 -0.20999129490E+02  0.83586634190E+02  0.99024365302E+02  0.00000000000E+00 0. -1.
</event>
<event>
 7    1  0.2440960E-009  0.1322686E+03  0.7561462E-02  0.1224128E+00
          2   -1    0    0  501    0  0.00000000000E+00  0.00000000000E+00  0.21609166832E+04  0.21609166832E+04  0.00000000000E+00 0. -1.
         -2   -1    0    0    0  501 -0.00000000000E+00 -0.00000000000E+00 -0.11606624444E+02  0.11606624444E+02  0.00000000000E+00 0.  1.
         25    2    1    2    0    0  0.70893536371E+02 -0.30608616275E+02  0.17197577393E+04  0.17260291378E+04  0.12508845542E+03 0.  0.
          5    1    3    3  502    0  0.36633095383E+02  0.47294062411E+02  0.58039874877E+03  0.58348855344E+03  0.41800000000E+01 0. -1.
         -5    1    3    3    0  502  0.34260440988E+02 -0.77902678687E+02  0.11393589906E+04  0.11425405844E+04  0.41800000000E+01 0. -1.
        -11    1    1    2    0    0 -0.77626891379E+02  0.54299872347E+02  0.29932933216E+03  0.31396251288E+03  0.00000000000E+00 0.  1.
         11    1    1    2    0    0  0.67333550085E+01 -0.23691256072E+02  0.13022298729E+03  0.13253165698E+03  0.00000000000E+00 0. -1.
</event>
<event>
 7    1  0.2440960E-009  0.1051409E+03  0.7561462E-02  0.1269842E+00
         -1   -1    0    0    0  501 -0.00000000000E+00  0.00000000000E+00  0.17517359686E+02  0.17517359686E+02  0.00000000000E+00 0.  1.
          1   -1    0    0  501    0  0.00000000000E+00 -0.00000000000E+00 -0.82687966707E+03  0.82687966707E+03  0.00000000000E+00 0. -1.
         25    2    1    2    0    0  0.59776124487E+01 -0.32651592057E+02 -0.60987333512E+03  0.62345200577E+03  0.12508021544E+03 0.  0.
          5    1    3    3  502    0  0.57906646253E+02 -0.54834595739E+01 -0.43683957239E+03  0.44071479714E+03  0.41800000000E+01 0. -1.
         -5    1    3    3    0  502 -0.51929033805E+02 -0.27168132483E+02 -0.17303376272E+03  0.18273720863E+03  0.41800000000E+01 0. -1.
        -11    1    1    2    0    0  0.38059955338E+02 -0.54267017316E+00 -0.10300584675E+03  0.10981374758E+03  0.00000000000E+00 0. -1.
         11    1    1    2    0    0 -0.44037567786E+02  0.33194262230E+02 -0.96483125511E+02  0.11113127341E+03  0.00000000000E+00 0.  1.
</event>
<event>
 7    1  0.2440960E-009  0.1115070E+03  0.7561462E-02  0.1257804E+00
         -1   -1    0    0    0  501 -0.00000000000E+00  0.00000000000E+00  0.23963159307E+04  0.23963159307E+04  0.00000000000E+00 0.  1.
          1   -1    0    0  501    0  0.00000000000E+00 -0.00000000000E+00 -0.14311523033E+02  0.14311523033E+02  0.00000000000E+00 0. -1.
         25    2    1    2    0    0  0.19417044226E+02  0.96388393026E+02  0.19688116622E+04  0.19752303089E+04  0.12509064085E+03 0.  0.
          5    1    3    3  502    0 -0.69539001011E+01  0.14542154297E+02  0.13854695533E+04  0.13855696253E+04  0.41800000000E+01 0. -1.
         -5    1    3    3    0  502  0.26370944327E+02  0.81846238729E+02  0.58334210886E+03  0.58966068367E+03  0.41800000000E+01 0. -1.
        -11    1    1    2    0    0 -0.20702740077E+02 -0.10730215572E+03  0.40945850312E+03  0.42379077603E+03  0.00000000000E+00 0.  1.
         11    1    1    2    0    0  0.12856958516E+01  0.10913762695E+02  0.37342424242E+01  0.11606368789E+02  0.00000000000E+00 0. -1.
</event>
<event>
 7    1  0.2440960E-009  0.1138444E+03  0.7561462E-02  0.1253612E+00
          4   -1    0    0  501    0  0.00000000000E+00  0.00000000000E+00  0.36472962092E+03  0.36472962092E+03  0.00000000000E+00 0. -1.
         -4   -1    0    0    0  501 -0.00000000000E+00 -0.00000000000E+00 -0.48864279833E+02  0.48864279833E+02  0.00000000000E+00 0.  1.
         25    2    1    2    0    0 -0.33609220234E+02  0.68987611570E+02  0.19272909738E+03  0.24224070330E+03  0.12508870102E+03 0.  0.
          5    1    3    3  502    0  0.50799976246E+01  0.82832840753E+02  0.18122176569E+03  0.19936370443E+03  0.41800000000E+01 0.  1.
         -5    1    3    3    0  502 -0.38689217859E+02 -0.13845229183E+02  0.11507331691E+02  0.42876998872E+02  0.41800000000E+01 0.  1.
        -11    1    1    2    0    0  0.21444975772E+02  0.97941958550E+01 -0.12572799246E+01  0.23609193360E+02  0.00000000000E+00 0.  1.
         11    1    1    2    0    0  0.12164244462E+02 -0.78781807425E+02  0.12439352364E+03  0.14774400410E+03  0.00000000000E+00 0. -1.
</event>
<event>
 7    1  0.2440960E-009  0.1242128E+03  0.7561462E-02  0.1236305E+00
          2   -1    0    0  501    0  0.00000000000E+00  0.00000000000E+00  0.10847960037E+03  0.10847960037E+03  0.00000000000E+00 0. -1.
         -2   -1    0    0    0  501 -0.00000000000E+00 -0.00000000000E+00 -0.14656403686E+03  0.14656403686E+03  0.00000000000E+00 0.  1.
         25    2    1    2    0    0 -0.20191321812E+02  0.55551129589E+02 -0.13922669656E+02  0.13905222443E+03  0.12509221764E+03 0.  0.
          5    1    3    3  502    0  0.13341732551E+02  0.88179622764E+02  0.24273255679E+01  0.89314119868E+02  0.41800000000E+01 0.  1.
         -5    1    3    3    0  502 -0.33533054363E+02 -0.32628493175E+02 -0.16349995224E+02  0.49738104564E+02  0.41800000000E+01 0.  1.
        -11    1    1    2    0    0 -0.36469256255E+02 -0.61217203018E+01 -0.16226185746E+02  0.40382808411E+02  0.00000000000E+00 0.  1.
         11    1    1    2    0    0  0.56660578067E+02 -0.49429409287E+02 -0.79355810892E+01  0.75608604382E+02  0.00000000000E+00 0. -1.
</event>
<event>
 7    1  0.2440960E-009  0.1066195E+03  0.7561462E-02  0.1266961E+00
         -1   -1    0    0    0  501 -0.00000000000E+00  0.00000000000E+00  0.22620283225E+03  0.22620283225E+03  0.00000000000E+00 0.  1.
          1   -1    0    0  501    0  0.00000000000E+00 -0.00000000000E+00 -0.15480656606E+03  0.15480656606E+03  0.00000000000E+00 0. -1.
         25    2    1    2    0    0 -0.51219224501E+02 -0.66220113547E+02 -0.91352069666E+02  0.17606503263E+03  0.12508070469E+03 0.  0.
          5    1    3    3  502    0 -0.19097785304E+02  0.11282097885E+02 -0.89228399603E+02  0.92039072311E+02  0.41800000000E+01 0. -1.
         -5    1    3    3    0  502 -0.32121439197E+02 -0.77502211431E+02 -0.21236700629E+01  0.84025960318E+02  0.41800000000E+01 0. -1.
        -11    1    1    2    0    0  0.83283050232E+00 -0.12867127546E+02  0.76367462394E+02  0.77448343368E+02  0.00000000000E+00 0.  1.
         11    1    1    2    0    0  0.50386393999E+02  0.79087241093E+02  0.86380873462E+02  0.12749602231E+03  0.00000000000E+00 0. -1.
</event>
<event>
 7    1  0.2440960E-009  0.1203627E+03  0.7561462E-02  0.1242500E+00
          1   -1    0    0  501    0  0.00000000000E+00  0.00000000000E+00  0.82931833327E+02  0.82931833327E+02  0.00000000000E+00 0. -1.
         -1   -1    0    0    0  501 -0.00000000000E+00 -0.00000000000E+00 -0.34496972801E+03  0.34496972801E+03  0.00000000000E+00 0.  1.
         25    2    1    2    0    0 -0.76391719069E+01  0.91009988714E+02 -0.24390845660E+02  0.15679003083E+03  0.12508807066E+03 0.  0.
          5    1    3    3  502    0  0.68361616128E+01  0.11735472854E+03  0.35933666038E+00  0.11762851245E+03  0.41800000000E+01 0. -1.
         -5    1    3    3    0  502 -0.14475333520E+02 -0.26344739830E+02 -0.24750182320E+02  0.39161518384E+02  0.41800000000E+01 0. -1.
        -11    1    1    2    0    0 -0.29693342045E+01 -0.57997977704E+02 -0.40169409147E+02  0.70612773593E+02  0.00000000000E+00 0. -1.
         11    1    1    2    0    0  0.10608506111E+02 -0.33012011010E+02 -0.19747763988E+03  0.20049875692E+03  0.00000000000E+00 0.  1.
</event>
<event>
 7    1  0.2440960E-009  0.1368151E+03  0.7561462E-02  0.1217680E+00
          2   -1    0    0  501    0  0.00000000000E+00  0.00000000000E+00  0.38954081636E+03  0.38954081636E+03  0.00000000000E+00 0. -1.
         -2   -1    0    0    0  501 -0.00000000000E+00 -0.00000000000E+00 -0.96246268148E+02  0.96246268148E+02  0.00000000000E+00 0.  1.
         25    2    1    2    0    0 -0.31444281739E+02 -0.11638010858E+03  0.24570571442E+02  0.17545504769E+03  0.12509072008E+03 0.  0.
          5    1    3    3  502    0 -0.49271964255E+02 -0.10390962215E+03  0.62929268298E+02  0.13115830604E+03  0.41800000000E+01 0. -1.
         -5    1    3    3    0  502  0.17827682516E+02 -0.12470486435E+02 -0.38358696856E+02  0.44296741644E+02  0.41800000000E+01 0. -1.
        -11    1    1    2    0    0  0.47298499380E+02  0.52861897569E+02  0.21253172656E+03  0.22405638364E+03  0.00000000000E+00 0. -1.
         11    1    1    2    0    0 -0.15854217641E+02  0.63518211011E+02  0.56192250218E+02  0.86275653180E+02  0.00000000000E+00 0.  1.
</event>
<event>
 7    1  0.2440960E-009  0.1056429E+03  0.7561462E-02  0.1268858E+00
          2   -1    0    0  501    0  0.00000000000E+00  0.00000000000E+00  0.15200477545E+03  0.15200477545E+03  0.00000000000E+00 0. -1.
         -2   -1    0    0    0  501 -0.00000000000E+00 -0.00000000000E+00 -0.92554712966E+02  0.92554712966E+02  0.00000000000E+00 0.  1.
         25    2    1    2    0    0 -0.32988705571E+02  0.33828252232E+02  0.40340051769E+02  0.13966685351E+03  0.12508758871E+03 0.  0.
          5    1    3    3  502    0 -0.63857801650E+02 -0.48755656329E+01  0.58429783487E+02  0.86793444281E+02  0.41800000000E+01 0. -1.
         -5    1    3    3    0  502  0.30869096079E+02  0.38703817865E+02 -0.18089731718E+02  0.52873409230E+02  0.41800000000E+01 0. -1.
        -11    1    1    2    0    0  0.44009466805E+01 -0.59101897781E+02  0.28251988978E+02  0.65654988647E+02  0.00000000000E+00 0. -1.
         11    1    1    2    0    0  0.28587758891E+02  0.25273645549E+02 -0.91419782591E+01  0.39237646263E+02  0.00000000000E+00 0.  1.
</event>
<event>
 7    1  0.3703637E-009  0.1226684E+03  0.7561462E-02  0.1238759E+00
         -2   -1    0    0    0  501 -0.00000000000E+00  0.00000000000E+00  0.41025237068E+02  0.41025237068E+02  0.00000000000E+00 0.  1.
          2   -1    0    0  501    0  0.00000000000E+00 -0.00000000000E+00 -0.59253309087E+03  0.59253309087E+03  0.00000000000E+00 0. -1.
         25    2    1    2    0    0 -0.89872375793E+02 -0.46978776356E+02 -0.38969033799E+03  0.42165119418E+03  0.12508845140E+03 0.  0.
          5    1    3    3  502    0 -0.10795422659E+03 -0.54961761654E+02 -0.22363822143E+03  0.25437459929E+03  0.41800000000E+01 0. -1.
         -5    1    3    3    0  502  0.18081850794E+02  0.79829852975E+01 -0.16605211656E+03  0.16727659489E+03  0.41800000000E+01 0. -1.
        -11    1    1    2    0    0  0.67879980008E+02  0.23702633640E+02 -0.16474503955E+03  0.17975103500E+03  0.00000000000E+00 0. -1.
         11    1    1    2    0    0  0.21992395786E+02  0.23276142716E+02  0.29275237372E+01  0.32156098758E+02  0.00000000000E+00 0.  1.
</event>
<event>
 7    1  0.2440960E-009  0.1392161E+03  0.7561462E-02  0.1214388E+00
         -1   -1    0    0    0  501 -0.00000000000E+00  0.00000000000E+00  0.42827932102E+03  0.42827932102E+03  0.00000000000E+00 0.  1.
          1   -1    0    0  501    0  0.00000000000E+00 -0.00000000000E+00 -0.63569742651E+02  0.63569742651E+02  0.00000000000E+00 0. -1.
         25    2    1    2    0    0 -0.55866097894E+02 -0.96629243562E+02  0.27317211791E+03  0.32051149080E+03  0.12508548327E+03 0.  0.
          5    1    3    3  502    0 -0.83525225359E+02 -0.30761668964E+02  0.19578049195E+03  0.21510513006E+03  0.41800000000E+01 0.  1.
         -5    1    3    3    0  502  0.27659127465E+02 -0.65867574598E+02  0.77391625961E+02  0.10540636074E+03  0.41800000000E+01 0.  1.
        -11    1    1    2    0    0  0.45767305144E+02  0.41707868799E+02  0.97159085856E+02  0.11521319588E+03  0.00000000000E+00 0.  1.
         11    1    1    2    0    0  0.10098792750E+02  0.54921374762E+02 -0.56216254008E+01  0.56124376994E+02  0.00000000000E+00 0. -1.
</event>
<event>
 7    1  0.2440960E-009  0.1436291E+03  0.7561462E-02  0.1208527E+00
          1   -1    0    0  501    0  0.00000000000E+00  0.00000000000E+00  0.30425267722E+03  0.30425267722E+03  0.00000000000E+00 0. -1.
         -1   -1    0    0    0  501 -0.00000000000E+00 -0.00000000000E+00 -0.17410785483E+03  0.17410785483E+03  0.00000000000E+00 0.  1.
         25    2    1    2    0    0  0.10339946006E+03  0.71918156635E+02 -0.97550259433E+02  0.20255092169E+03  0.12508858129E+03 0.  0.
          5    1    3    3  502    0  0.63498610403E+02  0.73760581442E+02 -0.12154536043E+03  0.15576727493E+03  0.41800000000E+01 0. -1.
         -5    1    3    3    0  502  0.39900849661E+02 -0.18424248075E+01  0.23995100993E+02  0.46783646764E+02  0.41800000000E+01 0. -1.
        -11    1    1    2    0    0 -0.34283614546E+02  0.16010702801E+02  0.95064358386E+02  0.10231784334E+03  0.00000000000E+00 0. -1.
         11    1    1    2    0    0 -0.69115845519E+02 -0.87928859436E+02  0.13263072344E+03  0.17349176702E+03  0.00000000000E+00 0.  1.
</event>
<event>
 7    1  0.2440960E-009  0.1132492E+03  0.7561462E-02  0.1254668E+00
         -1   -1    0    0    0  501 -0.00000000000E+00  0.00000000000E+00  0.91090184991E+02  0.91090184991E+02  0.00000000000E+00 0.  1.
          1   -1    0    0  501    0  0.00000000000E+00 -0.00000000000E+00 -0.22542914880E+03  0.22542914880E+03  0.00000000000E+00 0. -1.
         25    2    1    2    0    0  0.15776899313E+02  0.65244896456E+02 -0.16701913608E+03  0.21920152884E+03  0.12509241129E+03 0.  0.
          5    1    3    3  502    0 -0.26512325756E+01 -0.33750952386E+02 -0.16089646966E+02  0.37716110093E+02  0.41800000000E+01 0. -1.
         -5    1    3    3    0  502  0.18428131889E+02  0.98995848841E+02 -0.15092948912E+03  0.18148541875E+03  0.41800000000E+01 0. -1.
        -11    1    1    2    0    0  0.24238184861E+02 -0.22963211979E+02  0.10177236578E+02  0.34905226745E+02  0.00000000000E+00 0. -1.
         11    1    1    2    0    0 -0.40015084174E+02 -0.42281684477E+02  0.22502935693E+02  0.62412578207E+02  0.00000000000E+00 0.  1.
</event>
<event>
 7    1  0.2440960E-009  0.1776662E+03  0.7561462E-02  0.1170081E+00
          1   -1    0    0  501    0  0.00000000000E+00  0.00000000000E+00  0.59618819403E+03  0.59618819403E+03  0.00000000000E+00 0. -1.
         -1   -1    0    0    0  501 -0.00000000000E+00 -0.00000000000E+00 -0.62558353140E+02  0.62558353140E+02  0.00000000000E+00 0.  1.
         25    2    1    2    0    0 -0.64441585619E+02  0.14254398468E+03  0.33579426666E+03  0.39099446776E+03  0.12508948308E+03 0.  0.
          5    1    3    3  502    0 -0.69066556352E+02  0.14505852262E+02  0.97861567856E+02  0.12072683140E+03  0.41800000000E+01 0.  1.
         -5    1    3    3    0  502  0.46249707327E+01  0.12803813242E+03  0.23793269880E+03  0.27026763637E+03  0.41800000000E+01 0.  1.
        -11    1    1    2    0    0  0.12193138012E+02 -0.28836333772E+02 -0.26476393741E+01  0.31420005637E+02  0.00000000000E+00 0.  1.
         11    1    1    2    0    0  0.52248447607E+02 -0.11370765091E+03  0.20048321361E+03  0.23633207377E+03  0.00000000000E+00 0. -1.
</event>
<event>
 7    1  0.3080370E-009  0.1423383E+03  0.7561462E-02  0.1210217E+00
          2   -1    0    0  501    0  0.00000000000E+00  0.00000000000E+00  0.76327057965E+03  0.76327057965E+03  0.00000000000E+00 0. -1.
         -2   -1    0    0    0  501 -0.00000000000E+00 -0.00000000000E+00 -0.42127889010E+02  0.42127889010E+02  0.00000000000E+00 0.  1.
         25    2    1    2    0    0 -0.82853086636E+02  0.87707141181E+02  0.21107622799E+03  0.27342182511E+03  0.12509653810E+03 0.  0.
          5    1    3    3  502    0 -0.73735877340E+02  0.65675182586E+01  0.16175719598E+03  0.17794093052E+03  0.41800000000E+01 0.  1.
         -5    1    3    3    0  502 -0.91172092965E+01  0.81139622923E+02  0.49319032009E+02  0.95480894590E+02  0.41800000000E+01 0.  1.
        -11    1    1    2    0    0  0.30113513509E+02 -0.64441712139E+02  0.41303077005E+03  0.41911093396E+03  0.00000000000E+00 0. -1.
         11    1    1    2    0    0  0.52739573127E+02 -0.23265429043E+02  0.97035692602E+02  0.11286570959E+03  0.00000000000E+00 0.  1.
</event>
<event>
 7    1  0.2440960E-009  0.1696228E+03  0.7561462E-02  0.1178242E+00
          2   -1    0    0  501    0  0.00000000000E+00  0.00000000000E+00  0.46511100808E+03  0.46511100808E+03  0.00000000000E+00 0. -1.
         -2   -1    0    0    0  501 -0.00000000000E+00 -0.00000000000E+00 -0.76796466464E+02  0.76796466464E+02  0.00000000000E+00 0.  1.
         25    2    1    2    0    0 -0.16485555447E+02 -0.15069892268E+03  0.16320609326E+03  0.25547172115E+03  0.12509049762E+03 0.  0.
          5    1    3    3  502    0 -0.31911707567E+02 -0.15812451467E+03  0.17194089163E+03  0.23580259081E+03  0.41800000000E+01 0.  1.
         -5    1    3    3    0  502  0.15426152120E+02  0.74255919888E+01 -0.87347983713E+01  0.19669130337E+02  0.41800000000E+01 0.  1.
        -11    1    1    2    0    0 -0.18985280691E+02  0.49075901953E+02  0.13889782920E+03  0.14853111456E+03  0.00000000000E+00 0. -1.
         11    1    1    2    0    0  0.35470836138E+02  0.10162302073E+03  0.86210619162E+02  0.13790463884E+03  0.00000000000E+00 0.  1.
</event>
<event>
 7    1  0.2440960E-009  0.9361900E+02  0.7561462E-02  0.1294317E+00
         -1   -1    0    0    0  501 -0.00000000000E+00  0.00000000000E+00  0.38802981644E+02  0.38802981644E+02  0.00000000000E+00 0.  1.
          1   -1    0    0  501    0  0.00000000000E+00 -0.00000000000E+00 -0.58560773934E+03  0.58560773934E+03  0.00000000000E+00 0. -1.
         25    2    1    2    0    0 -0.25716574193E+02 -0.52580663457E+02 -0.47243326193E+03  0.49220661910E+03  0.12509236807E+03 0.  0.
          5    1    3    3  502    0 -0.56668924974E+02 -0.65821046283E+02 -0.20569359214E+03  0.22331839029E+03  0.41800000000E+01 0.  1.
         -5    1    3    3    0  502  0.30952350781E+02  0.13240382827E+02 -0.26673966979E+03  0.26888822882E+03  0.41800000000E+01 0.  1.
        -11    1    1    2    0    0  0.29760724029E+02  0.26140199121E+02  0.12318022526E+02  0.41481856080E+02  0.00000000000E+00 0.  1.
         11    1    1    2    0    0 -0.40441498364E+01  0.26440464335E+02 -0.86689518285E+02  0.90722245798E+02  0.00000000000E+00 0. -1.
</event>
<event>
 7    1  0.2440960E-009  0.9816642E+02  0.7561462E-02  0.1284200E+00
          3   -1    0    0  501    0  0.00000000000E+00  0.00000000000E+00  0.86595247733E+02  0.86595247733E+02  0.00000000000E+00 0. -1.
         -3   -1    0    0    0  501 -0.00000000000E+00 -0.00000000000E+00 -0.16424829849E+03  0.16424829849E+03  0.00000000000E+00 0.  1.
         25    2    1    2    0    0 -0.42157601178E+02 -0.23052893489E+02 -0.55668335517E+02  0.14510545248E+03  0.12509168447E+03 0.  0.
          5    1    3    3  502    0 -0.39536037037E+02  0.47210868934E+02 -0.38021016396E+02  0.72491616466E+02  0.41800000000E+01 0. -1.
         -5    1    3    3    0  502 -0.26215641413E+01 -0.70263762423E+02 -0.17647319120E+02  0.72613836013E+02  0.41800000000E+01 0. -1.
        -11    1    1    2    0    0  0.28022972129E+02  0.35578648850E+02  0.27353450705E+02  0.52908775136E+02  0.00000000000E+00 0. -1.
         11    1    1    2    0    0  0.14134629049E+02 -0.12525755361E+02 -0.49338165949E+02  0.52829318611E+02  0.00000000000E+00 0.  1.
</event>
<event>
 7    1  0.2440960E-009  0.1010843E+03  0.7561462E-02  0.1278032E+00
          1   -1    0    0  501    0  0.00000000000E+00  0.00000000000E+00  0.81306162938E+02  0.81306162938E+02  0.00000000000E+00 0. -1.
         -1   -1    0    0    0  501 -0.00000000000E+00 -0.00000000000E+00 -0.20306184250E+03  0.20306184250E+03  0.00000000000E+00 0.  1.
         25    2    1    2    0    0 -0.63785800566E+02  0.14236858142E+02 -0.48242636837E+02  0.14915117519E+03  0.12508958617E+03 0.  0.
          5    1    3    3  502    0  0.19312058352E+02  0.40872902057E+02  0.67850024625E+01  0.45902705571E+02  0.41800000000E+01 0. -1.
         -5    1    3    3    0  502 -0.83097858918E+02 -0.26636043915E+02 -0.55027639299E+02  0.10324846962E+03  0.41800000000E+01 0. -1.
        -11    1    1    2    0    0  0.14718567319E+02 -0.14038554943E+02 -0.82814142622E+02  0.85275432963E+02  0.00000000000E+00 0.  1.
         11    1    1    2    0    0  0.49067233247E+02 -0.19830319871E+00  0.93010999009E+01  0.49941397278E+02  0.00000000000E+00 0. -1.
</event>
<event>
 7    1  0.2835307E-009  0.1610164E+03  0.7561462E-02  0.1187554E+00
         -2   -1    0    0    0  501 -0.00000000000E+00  0.00000000000E+00  0.77094472128E+02  0.77094472128E+02  0.00000000000E+00 0.  1.
          2   -1    0    0  501    0  0.00000000000E+00 -0.00000000000E+00 -0.36879681786E+03  0.36879681786E+03  0.00000000000E+00 0. -1.
         25    2    1    2    0    0  0.11050961690E+03 -0.63398920280E+02 -0.13191284269E+03  0.22199266062E+03  0.12509174547E+03 0.  0.
          5    1    3    3  502    0 -0.20794182448E+02 -0.18767851061E+02 -0.58564204778E+02  0.65052814992E+02  0.41800000000E+01 0.  1.
         -5    1    3    3    0  502  0.13130379935E+03 -0.44631069219E+02 -0.73348637909E+02  0.15693984563E+03  0.41800000000E+01 0.  1.
        -11    1    1    2    0    0 -0.91582797876E+02  0.29567813089E+01 -0.77181047745E+02  0.11980428020E+03  0.00000000000E+00 0.  1.
         11    1    1    2    0    0 -0.18926819026E+02  0.60442138971E+02 -0.82608455300E+02  0.10409434917E+03  0.00000000000E+00 0. -1.
</event>
<event>
 7    1  0.2440960E-009  0.9288535E+02  0.7561462E-02  0.1296011E+00
          1   -1    0    0  501    0  0.00000000000E+00  0.00000000000E+00  0.57370922170E+03  0.57370922170E+03  0.00000000000E+00 0. -1.
         -1   -1    0    0    0  501 -0.00000000000E+00 -0.00000000000E+00 -0.23413493149E+02  0.23413493149E+02  0.00000000000E+00 0.  1.
         25    2    1    2    0    0  0.14669379771E+02 -0.16155563663E+02  0.39710791960E+03  0.41691518410E+03  0.12508947989E+03 0.  0.
          5    1    3    3  502    0 -0.29778382964E+02 -0.46503252972E+02  0.94507196570E+02  0.10953715001E+03  0.41800000000E+01 0. -1.
         -5    1    3    3    0  502  0.44447762735E+02  0.30347689309E+02  0.30260072303E+03  0.30737803409E+03  0.41800000000E+01 0. -1.
        -11    1    1    2    0    0 -0.36389020756E+02  0.32844219594E+02  0.38603755474E+02  0.62395140268E+02  0.00000000000E+00 0.  1.
         11    1    1    2    0    0  0.21719640985E+02 -0.16688655931E+02  0.11458405348E+03  0.11781239049E+03  0.00000000000E+00 0. -1.
</event>
<event>
 7    1  0.2440960E-009  0.1919533E+03  0.7561462E-02  0.1156711E+00
          2   -1    0    0  501    0  0.00000000000E+00  0.00000000000E+00  0.41255818206E+03  0.41255818206E+03  0.00000000000E+00 0. -1.
         -2   -1    0    0    0  501 -0.00000000000E+00 -0.00000000000E+00 -0.11147442718E+03  0.11147442718E+03  0.00000000000E+00 0.  1.
         25    2    1    2    0    0 -0.18031356230E+03 -0.14886525734E+02  0.11326698610E+03  0.24741008785E+03  0.12509097502E+03 0.  0.
          5    1    3    3  502    0 -0.62385554453E+02  0.25086176016E+02 -0.14543886534E+02  0.68922207357E+02  0.41800000000E+01 0.  1.
         -5    1    3    3    0  502 -0.11792800784E+03 -0.39972701750E+02  0.12781087263E+03  0.17848788049E+03  0.41800000000E+01 0.  1.
        -11    1    1    2    0    0  0.19445472145E+02 -0.19398388853E+02  0.67377042950E+02  0.72760496107E+02  0.00000000000E+00 0. -1.
         11    1    1    2    0    0  0.16086809015E+03  0.34284914587E+02  0.12043972583E+03  0.20386202529E+03  0.00000000000E+00 0.  1.
</event>
<event>
 7    1  0.2440960E-009  0.1157036E+03  0.7561462E-02  0.1250358E+00
         -2   -1    0    0    0  501 -0.00000000000E+00  0.00000000000E+00  0.10256901118E+03  0.10256901118E+03  0.00000000000E+00 0.  1.
          2   -1    0    0  501    0  0.00000000000E+00 -0.00000000000E+00 -0.25514228861E+03  0.25514228861E+03  0.00000000000E+00 0. -1.
         25    2    1    2    0    0 -0.74935724920E+02 -0.21364897932E+02 -0.17749819779E+03  0.23070629396E+03  0.12509181477E+03 0.  0.
          5    1    3    3  502    0 -0.63244735508E+02 -0.46868881920E+02 -0.18522965309E+03  0.20130594986E+03  0.41800000000E+01 0. -1.
         -5    1    3    3    0  502 -0.11690989412E+02  0.25503983988E+02  0.77314552994E+01  0.29400344109E+02  0.41800000000E+01 0. -1.
        -11    1    1    2    0    0  0.75966235356E+01  0.50335737920E+02  0.14721452096E+02  0.52991663051E+02  0.00000000000E+00 0.  1.
         11    1    1    2    0    0  0.67339101384E+02 -0.28970839989E+02  0.10203468266E+02  0.74013342780E+02  0.00000000000E+00 0. -1.
</event>
<event>
 7    1  0.2440960E-009  0.1368338E+03  0.7561462E-02  0.1217654E+00
         -1   -1    0    0    0  501 -0.00000000000E+00  0.00000000000E+00  0.47538765169E+03  0.47538765169E+03  0.00000000000E+00 0.  1.
          1   -1    0    0  501    0  0.00000000000E+00 -0.00000000000E+00 -0.64656701893E+02  0.64656701893E+02  0.00000000000E+00 0. -1.
         25    2    1    2    0    0 -0.11031134173E+03 -0.76773346615E+02  0.26415234193E+03  0.32169379677E+03  0.12509076812E+03 0.  0.
          5    1    3    3  502    0 -0.69778174493E+02 -0.60290221520E+02  0.53898625381E+02  0.10689452121E+03  0.41800000000E+01 0. -1.
         -5    1    3    3    0  502 -0.40533167241E+02 -0.16483125095E+02  0.21025371655E+03  0.21479927556E+03  0.41800000000E+01 0. -1.
        -11    1    1    2    0    0  0.49758930659E+02  0.17719916859E+02  0.11764391226E+03  0.12895749969E+03  0.00000000000E+00 0.  1.
         11    1    1    2    0    0  0.60552411074E+02  0.59053429756E+02  0.28934695613E+02  0.89393057130E+02  0.00000000000E+00 0. -1.
</event>
<event>
 7    1  0.2440960E-009  0.2405695E+03  0.7561462E-02  0.1119414E+00
          2   -1    0    0  501    0  0.00000000000E+00  0.00000000000E+00  0.11112391899E+04  0.11112391899E+04  0.00000000000E+00 0. -1.
         -2   -1    0    0    0  501 -0.00000000000E+00 -0.00000000000E+00 -0.72072277586E+02  0.72072277586E+02  0.00000000000E+00 0.  1.
         25    2    1    2    0    0  0.12683803753E+03 -0.16704438312E+03  0.21594082800E+03  0.32599102490E+03  0.12509193990E+03 0.  0.
          5    1    3    3  502    0  0.70039847837E+02 -0.17318924813E+03  0.16849587601E+03  0.25161166226E+03  0.41800000000E+01 0.  1.
         -5    1    3    3    0  502  0.56798189691E+02  0.61448650137E+01  0.47444951989E+02  0.74379362645E+02  0.41800000000E+01 0.  1.
        -11    1    1    2    0    0 -0.92429562253E+02  0.32276357233E+02  0.40081389618E+03  0.41259758432E+03  0.00000000000E+00 0. -1.
         11    1    1    2    0    0 -0.34408475275E+02  0.13476802589E+03  0.42241218809E+03  0.44472285821E+03  0.00000000000E+00 0.  1.
</event>
<event>
 7    1  0.2440960E-009  0.1020269E+03  0.7561462E-02  0.1276091E+00
          1   -1    0    0  501    0  0.00000000000E+00  0.00000000000E+00  0.73673903974E+02  0.73673903974E+02  0.00000000000E+00 0. -1.
         -1   -1    0    0    0  501 -0.00000000000E+00 -0.00000000000E+00 -0.21124902916E+03  0.21124902916E+03  0.00000000000E+00 0.  1.
         25    2    1    2    0    0 -0.65622797071E+01  0.60446961106E+02 -0.78335824565E+02  0.15962932316E+03  0.12509244894E+03 0.  0.
          5    1    3    3  502    0 -0.55848182803E+02  0.46973111037E+02 -0.93654479952E+01  0.73693125181E+02  0.41800000000E+01 0. -1.
         -5    1    3    3    0  502  0.49285903096E+02  0.13473850069E+02 -0.68970376570E+02  0.85936197983E+02  0.41800000000E+01 0. -1.
        -11    1    1    2    0    0  0.15324828567E+02  0.30237600069E+01 -0.59194600831E+02  0.61220864603E+02  0.00000000000E+00 0.  1.
         11    1    1    2    0    0 -0.87625488598E+01 -0.63470721113E+02 -0.44699792061E-01  0.64072745369E+02  0.00000000000E+00 0. -1.
</event>
<event>
 7    1  0.2440960E-009  0.1430677E+03  0.7561462E-02  0.1209260E+00
          2   -1    0    0  501    0  0.00000000000E+00  0.00000000000E+00  0.12294606582E+04  0.12294606582E+04  0.00000000000E+00 0. -1.
         -2   -1    0    0    0  501 -0.00000000000E+00 -0.00000000000E+00 -0.21757319814E+02  0.21757319814E+02  0.00000000000E+00 0.  1.
         25    2    1    2    0    0 -0.62310968050E+02 -0.10591933084E+03  0.58182928135E+03  0.60767736902E+03  0.12507961784E+03 0.  0.
          5    1    3    3  502    0 -0.50920196913E+02 -0.18019122409E+02  0.41679128400E+03  0.42029751611E+03  0.41800000000E+01 0. -1.
         -5    1    3    3    0  502 -0.11390771137E+02 -0.87900208427E+02  0.16503799735E+03  0.18737985291E+03  0.41800000000E+01 0. -1.
        -11    1    1    2    0    0 -0.28849564311E+01  0.67480146447E+02  0.20283653906E+03  0.21378623603E+03  0.00000000000E+00 0. -1.
         11    1    1    2    0    0  0.65195924481E+02  0.38439184389E+02  0.42303751798E+03  0.42975437296E+03  0.00000000000E+00 0.  1.
</event>
<event>
 7    1  0.3018670E-009  0.1147081E+03  0.7561462E-02  0.1252092E+00
          1   -1    0    0  501    0  0.00000000000E+00  0.00000000000E+00  0.60393724469E+03  0.60393724469E+03  0.00000000000E+00 0. -1.
         -1   -1    0    0    0  501 -0.00000000000E+00 -0.00000000000E+00 -0.23434804098E+02  0.23434804098E+02  0.00000000000E+00 0.  1.
         25    2    1    2    0    0  0.85578685544E+01 -0.44921595634E+02  0.28597087004E+03  0.31545997081E+03  0.12507784697E+03 0.  0.
          5    1    3    3  502    0 -0.49530940710E+02 -0.51651852891E+02  0.18908230527E+03  0.20221478324E+03  0.41800000000E+01 0.  1.
         -5    1    3    3    0  502  0.58088809264E+02  0.67302572569E+01  0.96888564772E+02  0.11324518757E+03  0.41800000000E+01 0.  1.
        -11    1    1    2    0    0 -0.48041298963E+02  0.31298322762E+02  0.12857601188E+03  0.14078118569E+03  0.00000000000E+00 0.  1.
         11    1    1    2    0    0  0.39483430408E+02  0.13623272872E+02  0.16595555867E+03  0.17113089228E+03  0.00000000000E+00 0. -1.
</event>
<event>
 7    1  0.2440960E-009  0.9473941E+02  0.7561462E-02  0.1291764E+00
          2   -1    0    0  501    0  0.00000000000E+00  0.00000000000E+00  0.28002701369E+03  0.28002701369E+03  0.00000000000E+00 0. -1.
         -2   -1    0    0    0  501 -0.00000000000E+00 -0.00000000000E+00 -0.44740324778E+02  0.44740324778E+02  0.00000000000E+00 0.  1.
         25    2    1    2    0    0  0.19697542042E+02  0.13960991226E+02  0.12505104241E+03  0.17852247307E+03  0.12509839226E+03 0.  0.
          5    1    3    3  502    0  0.98466640764E+01  0.68644339607E+02  0.85626726996E+02  0.11026518458E+03  0.41800000000E+01 0.  1.
         -5    1    3    3    0  502  0.98508779657E+01 -0.54683348381E+02  0.39424315410E+02  0.68257288493E+02  0.41800000000E+01 0.  1.
        -11    1    1    2    0    0 -0.35258364691E+02  0.91479076283E+01  0.42665905935E+01  0.36674790933E+02  0.00000000000E+00 0.  1.
         11    1    1    2    0    0  0.15560822649E+02 -0.23108898854E+02  0.10596905592E+03  0.10957007447E+03  0.00000000000E+00 0. -1.
</event>
<event>
 7    1  0.2440960E-009  0.1075075E+03  0.7561462E-02  0.1265256E+00
         -1   -1    0    0    0  501 -0.00000000000E+00  0.00000000000E+00  0.43863824842E+02  0.43863824842E+02  0.00000000000E+00 0.  1.
          1   -1    0    0  501    0  0.00000000000E+00 -0.00000000000E+00 -0.32378578150E+03  0.32378578150E+03  0.00000000000E+00 0. -1.
         25    2    1    2    0    0 -0.45590129176E+02 -0.11277435835E+02 -0.13508243586E+03  0.19000289188E+03  0.12509274162E+03 0.  0.
          5    1    3    3  502    0 -0.74440515327E+02 -0.41280496588E+02 -0.60583908678E+02  0.10456267074E+03  0.41800000000E+01 0. -1.
         -5    1    3    3    0  502  0.28850386151E+02  0.30003060753E+02 -0.74498527185E+02  0.85440221139E+02  0.41800000000E+01 0. -1.
        -11    1    1    2    0    0 -0.19315454708E+02 -0.69745237324E+01 -0.85172472076E+02  0.87613245411E+02  0.00000000000E+00 0. -1.
         11    1    1    2    0    0  0.64905583884E+02  0.18251959567E+02 -0.59667048717E+02  0.90033469054E+02  0.00000000000E+00 0.  1.
</event>
<event>
 7    1  0.2440960E-009  0.1699098E+03  0.7561462E-02  0.1177942E+00
          2   -1    0    0  501    0  0.00000000000E+00  0.00000000000E+00  0.16511000859E+03  0.16511000859E+03  0.00000000000E+00 0.  1.
         -2   -1    0    0    0  501 -0.00000000000E+00 -0.00000000000E+00 -0.31233740266E+03  0.31233740266E+03  0.00000000000E+00 0. -1.
         25    2    1    2    0    0 -0.11304546479E+03 -0.10461617568E+03 -0.20783695707E+03  0.28734662612E+03  0.12509221196E+03 0.  0.
          5    1    3    3  502    0 -0.62516397147E+02 -0.24095832442E+01 -0.14294361968E+03  0.15609118108E+03  0.41800000000E+01 0. -1.
         -5    1    3    3    0  502 -0.50529067640E+02 -0.10220659244E+03 -0.64893337394E+02  0.13125544504E+03  0.41800000000E+01 0. -1.
        -11    1    1    2    0    0  0.96366787426E+01  0.39874473278E+02 -0.18177123936E+02  0.44869221422E+02  0.00000000000E+00 0. -1.
         11    1    1    2    0    0  0.10340878604E+03  0.64741702403E+02  0.78786686929E+02  0.14523156371E+03  0.00000000000E+00 0.  1.
</event>
<event>
 7    1  0.2440960E-009  0.1199709E+03  0.7561462E-02  0.1243145E+00
         -1   -1    0    0    0  501 -0.00000000000E+00  0.00000000000E+00  0.12566847206E+03  0.12566847206E+03  0.00000000000E+00 0.  1.
          1   -1    0    0  501    0  0.00000000000E+00 -0.00000000000E+00 -0.14553155656E+03  0.14553155656E+03  0.00000000000E+00 0. -1.
         25    2    1    2    0    0 -0.42213728756E+01  0.75665597350E+02 -0.13304781552E+01  0.14625927149E+03  0.12508757617E+03 0.  0.
          5    1    3    3  502    0  0.43463496811E+02  0.86264903598E+02  0.50547591081E+01  0.96818036220E+02  0.41800000000E+01 0. -1.
         -5    1    3    3    0  502 -0.47684869687E+02 -0.10599306249E+02 -0.63852372633E+01  0.49441235269E+02  0.41800000000E+01 0. -1.
        -11    1    1    2    0    0  0.29902801051E+02 -0.33947919684E+02  0.31338099080E+02  0.55033764323E+02  0.00000000000E+00 0.  1.
         11    1    1    2    0    0 -0.25681428175E+02 -0.41717677666E+02 -0.49870705431E+02  0.69906992806E+02  0.00000000000E+00 0. -1.
</event>
<event>
 7    1  0.2440960E-009  0.6484489E+02  0.7561462E-02  0.1378556E+00
          2   -1    0    0  501    0  0.00000000000E+00  0.00000000000E+00  0.65343470488E+02  0.65343470488E+02  0.00000000000E+00 0. -1.
         -2   -1    0    0    0  501 -0.00000000000E+00 -0.00000000000E+00 -0.18851581784E+03  0.18851581784E+03  0.00000000000E+00 0.  1.
         25    2    1    2    0    0 -0.27224147043E+02 -0.18194800857E+02 -0.70572718874E+02  0.14730883915E+03  0.12508869047E+03 0.  0.
          5    1    3    3  502    0 -0.13966924723E+02 -0.22335955547E+02  0.33166119167E+02  0.42560941684E+02  0.41800000000E+01 0.  1.
         -5    1    3    3    0  502 -0.13257222320E+02  0.41411546896E+01 -0.10373883804E+03  0.10474789747E+03  0.41800000000E+01 0.  1.
        -11    1    1    2    0    0  0.52628407319E+02 -0.65674347972E+01 -0.15582129375E+02  0.55278234529E+02  0.00000000000E+00 0. -1.
         11    1    1    2    0    0 -0.25404260277E+02  0.24762235654E+02 -0.37017499100E+02  0.51272214643E+02  0.00000000000E+00 0.  1.
</event>
<event>
 7    1  0.2440960E-009  0.1230610E+03  0.7561462E-02  0.1238131E+00
         -1   -1    0    0    0  501 -0.00000000000E+00  0.00000000000E+00  0.18927786693E+03  0.18927786693E+03  0.00000000000E+00 0.  1.
          1   -1    0    0  501    0  0.00000000000E+00 -0.00000000000E+00 -0.40223075691E+03  0.40223075691E+03  0.00000000000E+00 0. -1.
         25    2    1    2    0    0  0.24142801869E+02 -0.76224871448E+02  0.14877304693E+03  0.21017728323E+03  0.12509182620E+03 0.  0.
          5    1    3    3  502    0  0.99730057347E+01  0.29524126012E+02  0.72299959381E+02  0.78840924568E+02  0.41800000000E+01 0.  1.
         -5    1    3    3    0  502  0.14169796134E+02 -0.10574899746E+03  0.76473087550E+02  0.13133635866E+03  0.41800000000E+01 0.  1.
        -11    1    1    2    0    0 -0.25394773385E+02 -0.56531352000E+01 -0.30289281846E+02  0.39928599370E+02  0.00000000000E+00 0.  1.
         11    1    1    2    0    0  0.12519715167E+01  0.81878006648E+02 -0.33143665507E+03  0.34140274124E+03  0.00000000000E+00 0. -1.
</event>
<event>
 7    1  0.2440960E-009  0.1860419E+03  0.7561462E-02  0.1162080E+00
         -2   -1    0    0    0  501 -0.00000000000E+00  0.00000000000E+00  0.60591220135E+02  0.60591220135E+02  0.00000000000E+00 0.  1.
          2   -1    0    0  501    0  0.00000000000E+00 -0.00000000000E+00 -0.63926168329E+03  0.63926168329E+03  0.00000000000E+00 0. -1.
         25    2    1    2    0    0 -0.15240050727E+03 -0.60853686267E+02 -0.29348008316E+03  0.35875720903E+03  0.12508832906E+03 0.  0.
          5    1    3    3  502    0 -0.13419929373E+03 -0.95784495489E+02 -0.25387268793E+03  0.30274235596E+03  0.41800000000E+01 0. -1.
         -5    1    3    3    0  502 -0.18201213536E+02  0.34930809222E+02 -0.39607395230E+02  0.56014853066E+02  0.41800000000E+01 0. -1.
        -11    1    1    2    0    0  0.95868572878E+02  0.20359916952E+02 -0.86967414248E+02  0.13102915945E+03  0.00000000000E+00 0.  1.
         11    1    1    2    0    0  0.56531934388E+02  0.40493769315E+02 -0.19822296575E+03  0.21006653496E+03  0.00000000000E+00 0. -1.
</event>
<event>
 7    1  0.2440960E-009  0.1082726E+03  0.7561462E-02  0.1263803E+00
         -1   -1    0    0    0  501 -0.00000000000E+00  0.00000000000E+00  0.20714556264E+03  0.20714556264E+03  0.00000000000E+00 0.  1.
          1   -1    0    0  501    0  0.00000000000E+00 -0.00000000000E+00 -0.57913255908E+02  0.57913255908E+02  0.00000000000E+00 0. -1.
         25    2    1    2    0    0 -0.66983686613E+01 -0.18374262361E+02  0.91244833008E+02  0.15606231351E+03  0.12508934602E+03 0.  0.
          5    1    3    3  502    0  0.58222981758E+02 -0.19048218462E+02  0.48070595213E+02  0.77980797352E+02  0.41800000000E+01 0.  1.
         -5    1    3    3    0  502 -0.64921350420E+02  0.67395610095E+00  0.43174237795E+02  0.78081516163E+02  0.41800000000E+01 0.  1.
        -11    1    1    2    0    0 -0.60030313732E+01  0.52929147654E+02  0.22380304844E+02  0.57778967644E+02  0.00000000000E+00 0. -1.
         11    1    1    2    0    0  0.12701400034E+02 -0.34554885293E+02  0.35607168876E+02  0.51217537385E+02  0.00000000000E+00 0.  1.
</event>
<event>
 7    1  0.2440960E-009  0.1462743E+03  0.7561462E-02  0.1205127E+00
          1   -1    0    0  501    0  0.00000000000E+00  0.00000000000E+00  0.90352180866E+02  0.90352180866E+02  0.00000000000E+00 0. -1.
         -1   -1    0    0    0  501 -0.00000000000E+00 -0.00000000000E+00 -0.41700520522E+03  0.41700520522E+03  0.00000000000E+00 0.  1.
         25    2    1    2    0    0  0.63839834935E+02  0.13066463868E+03 -0.81796134868E+02  0.20853533499E+03  0.12509039105E+03 0.  0.
          5    1    3    3  502    0  0.58204612038E+02  0.10407192870E+03  0.30381670437E+01  0.11935428800E+03  0.41800000000E+01 0.  1.
         -5    1    3    3    0  502  0.56352228973E+01  0.26592709988E+02 -0.84834301911E+02  0.89181046991E+02  0.41800000000E+01 0.  1.
        -11    1    1    2    0    0 -0.14569344592E+02 -0.39531795809E+02 -0.11762711428E+02  0.43742314317E+02  0.00000000000E+00 0. -1.
         11    1    1    2    0    0 -0.49270490343E+02 -0.91132842876E+02 -0.23309417806E+03  0.25507973678E+03  0.00000000000E+00 0.  1.
</event>
<event>
 7    1  0.2440960E-009  0.2181252E+03  0.7561462E-02  0.1135289E+00
         -2   -1    0    0    0  501 -0.00000000000E+00  0.00000000000E+00  0.50657037347E+02  0.50657037347E+02  0.00000000000E+00 0. -1.
          2   -1    0    0  501    0  0.00000000000E+00 -0.00000000000E+00 -0.10651315570E+04  0.10651315570E+04  0.00000000000E+00 0.  1.
         25    2    1    2    0    0 -0.11387498119E+03  0.16381961029E+03 -0.40336492550E+03  0.46707248459E+03  0.12509622968E+03 0.  0.
          5    1    3    3  502    0 -0.12840229153E+03  0.16949898522E+03 -0.33488728875E+03  0.39671655250E+03  0.41800000000E+01 0. -1.
         -5    1    3    3    0  502  0.14527310349E+02 -0.56793749238E+01 -0.68477636746E+02  0.70355932087E+02  0.41800000000E+01 0. -1.
        -11    1    1    2    0    0  0.35019972145E+02 -0.10005840865E+03 -0.41003415285E+03  0.42351633982E+03  0.00000000000E+00 0.  1.
         11    1    1    2    0    0  0.78855009040E+02 -0.63761201644E+02 -0.20107544133E+03  0.22519976997E+03  0.00000000000E+00 0. -1.
</event>
<event>
 7    1  0.2440960E-009  0.2145120E+03  0.7561462E-02  0.1138042E+00
         -1   -1    0    0    0  501 -0.00000000000E+00  0.00000000000E+00  0.87519262654E+03  0.87519262654E+03  0.00000000000E+00 0.  1.
          1   -1    0    0  501    0  0.00000000000E+00 -0.00000000000E+00 -0.54777482820E+02  0.54777482820E+02  0.00000000000E+00 0. -1.
         25    2    1    2    0    0  0.14113242228E+03 -0.85280909884E+02  0.40131757223E+03  0.45154557675E+03  0.12508565023E+03 0.  0.
          5    1    3    3  502    0 -0.10481085974E+02 -0.49500438810E+02  0.11057217008E+03  0.12167096532E+03  0.41800000000E+01 0.  1.
         -5    1    3    3    0  502  0.15161350825E+03 -0.35780471074E+02  0.29074540215E+03  0.32987461143E+03  0.41800000000E+01 0.  1.
        -11    1    1    2    0    0 -0.16763736613E+03  0.43921175206E+02  0.37193613202E+03  0.41032650713E+03  0.00000000000E+00 0.  1.
         11    1    1    2    0    0  0.26504943853E+02  0.41359734678E+02  0.47161439476E+02  0.68098025483E+02  0.00000000000E+00 0. -1.
</event>
<event>
 7    1  0.2440960E-009  0.1284161E+03  0.7561462E-02  0.1229825E+00
          2   -1    0    0  501    0  0.00000000000E+00  0.00000000000E+00  0.41313193026E+03  0.41313193026E+03  0.00000000000E+00 0. -1.
         -2   -1    0    0    0  501 -0.00000000000E+00 -0.00000000000E+00 -0.55305094250E+02  0.55305094250E+02  0.00000000000E+00 0.  1.
         25    2    1    2    0    0 -0.10370794995E+03  0.10641414120E+02  0.16591126343E+03  0.23247075197E+03  0.12509006599E+03 0.  0.
          5    1    3    3  502    0  0.44312700858E+01 -0.10300184709E+02  0.10665678253E+03  0.10732600626E+03  0.41800000000E+01 0.  1.
         -5    1    3    3    0  502 -0.10813922003E+03  0.20941598829E+02  0.59254480899E+02  0.12514474570E+03  0.41800000000E+01 0.  1.
        -11    1    1    2    0    0  0.85282091467E+01 -0.35300284776E+02  0.32866657661E+02  0.48980176013E+02  0.00000000000E+00 0.  1.
         11    1    1    2    0    0  0.95179740799E+02  0.24658870656E+02  0.15904891492E+03  0.18698609654E+03  0.00000000000E+00 0. -1.
</event>
<event>
 7    1  0.2440960E-009  0.1114766E+03  0.7561462E-02  0.1257860E+00
         -2   -1    0    0    0  501 -0.00000000000E+00  0.00000000000E+00  0.11648095419E+03  0.11648095419E+03  0.00000000000E+00 0.  1.
          2   -1    0    0  501    0  0.00000000000E+00 -0.00000000000E+00 -0.14137931268E+03  0.14137931268E+03  0.00000000000E+00 0. -1.
         25    2    1    2    0    0 -0.11782203704E+02  0.55552606998E+02 -0.51917352059E+02  0.14685934612E+03  0.12508934259E+03 0.  0.
          5    1    3    3  502    0 -0.16260552182E+02  0.84413948970E+02 -0.71125705388E+02  0.11165329688E+03  0.41800000000E+01 0.  1.
         -5    1    3    3    0  502  0.44783484784E+01 -0.28861341972E+02  0.19208353329E+02  0.35206049241E+02  0.41800000000E+01 0.  1.
        -11    1    1    2    0    0 -0.99769194862E+00  0.25403434395E+02  0.30250996966E+01  0.25602365056E+02  0.00000000000E+00 0. -1.
         11    1    1    2    0    0  0.12779895652E+02 -0.80956041393E+02  0.23993893864E+02  0.85398555688E+02  0.00000000000E+00 0.  1.
</event>
<event>
 7    1  0.2440960E-009  0.1940373E+03  0.7561462E-02  0.1154869E+00
         -3   -1    0    0    0  501 -0.00000000000E+00  0.00000000000E+00  0.11033745504E+04  0.11033745504E+04  0.00000000000E+00 0.  1.
          3   -1    0    0  501    0  0.00000000000E+00 -0.00000000000E+00 -0.38695424536E+02  0.38695424536E+02  0.00000000000E+00 0. -1.
         25    2    1    2    0    0 -0.11653362865E+03  0.12663495619E+03  0.46015257966E+03  0.50695643015E+03  0.12509167344E+03 0.  0.
          5    1    3    3  502    0 -0.10111669139E+03  0.45447835076E+02  0.15386606463E+03  0.18969008734E+03  0.41800000000E+01 0.  1.
         -5    1    3    3    0  502 -0.15416937265E+02  0.81187121110E+02  0.30628651503E+03  0.31726634281E+03  0.41800000000E+01 0.  1.
        -11    1    1    2    0    0  0.13831615140E+02  0.14372741683E+02  0.74111937693E+02  0.76749388202E+02  0.00000000000E+00 0.  1.
         11    1    1    2    0    0  0.10270201351E+03 -0.14100769787E+03  0.53041460851E+03  0.55836415659E+03  0.00000000000E+00 0. -1.
</event>
<event>
 7    1  0.2440960E-009  0.9426697E+02  0.7561462E-02  0.1292836E+00
          3   -1    0    0  501    0  0.00000000000E+00  0.00000000000E+00  0.81357655853E+02  0.81357655853E+02  0.00000000000E+00 0. -1.
         -3   -1    0    0    0  501 -0.00000000000E+00 -0.00000000000E+00 -0.16428368370E+03  0.16428368370E+03  0.00000000000E+00 0.  1.
         25    2    1    2    0    0  0.22497830515E+02 -0.31488946560E+02 -0.46780664082E+02  0.13904487417E+03  0.12508932955E+03 0.  0.
          5    1    3    3  502    0 -0.21387460959E+02 -0.69373939800E+02 -0.23340427338E+02  0.76370249168E+02  0.41800000000E+01 0. -1.
         -5    1    3    3    0  502  0.43885291474E+02  0.37884993240E+02 -0.23440236744E+02  0.62674625003E+02  0.41800000000E+01 0. -1.
        -11    1    1    2    0    0 -0.14422897554E+02 -0.86034470604E+01 -0.57890593252E+02  0.60277359449E+02  0.00000000000E+00 0.  1.
         11    1    1    2    0    0 -0.80749329615E+01  0.40092393620E+02  0.21745229490E+02  0.46319105930E+02  0.00000000000E+00 0. -1.
</event>
<event>
 7    1  0.2440960E-009  0.1091729E+03  0.7561462E-02  0.1262109E+00
         -4   -1    0    0    0  501 -0.00000000000E+00  0.00000000000E+00  0.16579554502E+03  0.16579554502E+03  0.00000000000E+00 0.  1.
          4   -1    0    0  501    0  0.00000000000E+00 -0.00000000000E+00 -0.85383139687E+02  0.85383139687E+02  0.00000000000E+00 0. -1.
         25    2    1    2    0    0  0.21577162082E+02  0.37555118392E+02  0.69627076754E+02  0.14956920860E+03  0.12508819890E+03 0.  0.
          5    1    3    3  502    0  0.23077493716E+00  0.75400272146E+02  0.10752707307E+02  0.76278092604E+02  0.41800000000E+01 0. -1.
         -5    1    3    3    0  502  0.21346387145E+02 -0.37845153754E+02  0.58874369447E+02  0.73291116000E+02  0.41800000000E+01 0. -1.
        -11    1    1    2    0    0 -0.36504471338E+02  0.18672767230E+02  0.14047217307E+02  0.43342507746E+02  0.00000000000E+00 0.  1.
         11    1    1    2    0    0  0.14927309256E+02 -0.56227885622E+02 -0.32618887291E+01  0.58266968355E+02  0.00000000000E+00 0. -1.
</event>
<event>
 7    1  0.2440960E-009  0.1128810E+03  0.7561462E-02  0.1255326E+00
          2   -1    0    0  501    0  0.00000000000E+00  0.00000000000E+00  0.74745493287E+02  0.74745493287E+02  0.00000000000E+00 0. -1.
         -2   -1    0    0    0  501 -0.00000000000E+00 -0.00000000000E+00 -0.19816339011E+03  0.19816339011E+03  0.00000000000E+00 0.  1.
         25    2    1    2    0    0  0.34731268284E+01  0.57401341586E+02 -0.60694196322E+02  0.15045640537E+03  0.12508544210E+03 0.  0.
          5    1    3    3  502    0  0.13242214937E+01  0.95865783897E+02 -0.56788174091E+02  0.11150951171E+03  0.41800000000E+01 0.  1.
         -5    1    3    3    0  502  0.21489053347E+01 -0.38464442311E+02 -0.39060222310E+01  0.38946893664E+02  0.41800000000E+01 0.  1.
        -11    1    1    2    0    0 -0.35570110442E+02 -0.43166297096E+02 -0.66776679861E+02  0.87107329974E+02  0.00000000000E+00 0.  1.
         11    1    1    2    0    0  0.32096983614E+02 -0.14235044490E+02  0.40529793638E+01  0.35345148047E+02  0.00000000000E+00 0. -1.
</event>
<event>
 7    1  0.2440960E-009  0.1121880E+03  0.7561462E-02  0.1256571E+00
         -1   -1    0    0    0  501 -0.00000000000E+00  0.00000000000E+00  0.34381005992E+02  0.34381005992E+02  0.00000000000E+00 0.  1.
          1   -1    0    0  501    0  0.00000000000E+00 -0.00000000000E+00 -0.60770038289E+03  0.60770038289E+03  0.00000000000E+00 0. -1.
         25    2    1    2    0    0  0.46980957838E+02 -0.46021328889E+02 -0.46781679893E+03  0.48869779587E+03  0.12509118760E+03 0.  0.
          5    1    3    3  502    0  0.28123875298E+02 -0.81165084508E+02 -0.19735689352E+03  0.21528107006E+03  0.41800000000E+01 0. -1.
         -5    1    3    3    0  502  0.18857082541E+02  0.35143755618E+02 -0.27045990541E+03  0.27341672581E+03  0.41800000000E+01 0. -1.
        -11    1    1    2    0    0 -0.24827103592E+02  0.64697397690E+02 -0.36016662287E+02  0.78098260563E+02  0.00000000000E+00 0.  1.
         11    1    1    2    0    0 -0.22153854247E+02 -0.18676068800E+02 -0.69485915680E+02  0.75285332448E+02  0.00000000000E+00 0. -1.
</event>
<event>
 7    1  0.2440960E-009  0.1314816E+03  0.7561462E-02  0.1225274E+00
          4   -1    0    0  501    0  0.00000000000E+00  0.00000000000E+00  0.37442017878E+03  0.37442017878E+03  0.00000000000E+00 0. -1.
         -4   -1    0    0    0  501 -0.00000000000E+00 -0.00000000000E+00 -0.56297762764E+02  0.56297762764E+02  0.00000000000E+00 0.  1.
         25    2    1    2    0    0  0.61748418491E+02  0.72619425572E+02  0.19326455141E+03  0.24916678991E+03  0.12508578740E+03 0.  0.
          5    1    3    3  502    0  0.65138313780E+02 -0.16217325614E+02  0.97323672343E+02  0.11830203367E+03  0.41800000000E+01 0.  1.
         -5    1    3    3    0  502 -0.33898952885E+01  0.88836751186E+02  0.95940879063E+02  0.13086475624E+03  0.41800000000E+01 0.  1.
        -11    1    1    2    0    0 -0.59598956166E+02 -0.35183655537E+02  0.12630710716E+03  0.14402572864E+03  0.00000000000E+00 0. -1.
         11    1    1    2    0    0 -0.21494623254E+01 -0.37435770035E+02 -0.14492425474E+01  0.37525422987E+02  0.00000000000E+00 0.  1.
</event>
<event>
 7    1  0.2440960E-009  0.1067349E+03  0.7561462E-02  0.1266739E+00
         -1   -1    0    0    0  501 -0.00000000000E+00  0.00000000000E+00  0.59647018583E+02  0.59647018583E+02  0.00000000000E+00 0.  1.
          1   -1    0    0  501    0  0.00000000000E+00 -0.00000000000E+00 -0.25289181087E+03  0.25289181087E+03  0.00000000000E+00 0. -1.
         25    2    1    2    0    0 -0.36364117764E+00  0.64963261732E+01 -0.18080657000E+03  0.21995840293E+03  0.12509336024E+03 0.  0.
          5    1    3    3  502    0 -0.41904893546E+02 -0.41362481255E+02 -0.11003240383E+03  0.12486583701E+03  0.41800000000E+01 0.  1.
         -5    1    3    3    0  502  0.41541252368E+02  0.47858807428E+02 -0.70774166166E+02  0.95092565920E+02  0.41800000000E+01 0.  1.
        -11    1    1    2    0    0  0.33361303783E+02 -0.34250571559E+02 -0.40366932470E+00  0.47814654564E+02  0.00000000000E+00 0.  1.
         11    1    1    2    0    0 -0.32997662605E+02  0.27754245385E+02 -0.12034552965E+02  0.44765771962E+02  0.00000000000E+00 0. -1.
</event>
<event>
 7    1  0.2440960E-009  0.1258910E+03  0.7561462E-02  0.1233683E+00
         -2   -1    0    0    0  501 -0.00000000000E+00  0.00000000000E+00  0.14522062618E+03  0.14522062618E+03  0.00000000000E+00 0.  1.
          2   -1    0    0  501    0  0.00000000000E+00 -0.00000000000E+00 -0.16005611719E+03  0.16005611719E+03  0.00000000000E+00 0. -1.
         25    2    1    2    0    0  0.30255611249E+02  0.24638531280E+02 -0.60340725414E+02  0.14425204028E+03  0.12508072892E+03 0.  0.
          5    1    3    3  502    0  0.17432656430E+02 -0.49922890482E+02 -0.12034114410E+02  0.54391955415E+02  0.41800000000E+01 0. -1.
         -5    1    3    3    0  502  0.12822954819E+02  0.74561421762E+02 -0.48306611005E+02  0.89860084866E+02  0.41800000000E+01 0. -1.
        -11    1    1    2    0    0 -0.43077866325E+02 -0.66473176609E+02 -0.20511802958E+02  0.81823711944E+02  0.00000000000E+00 0. -1.
         11    1    1    2    0    0  0.12822255075E+02  0.41834645329E+02  0.66017037364E+02  0.79200991139E+02  0.00000000000E+00 0.  1.
</event>
<event>
 7    1  0.2440960E-009  0.8792340E+02  0.7561462E-02  0.1307960E+00
         -2   -1    0    0    0  501 -0.00000000000E+00  0.00000000000E+00  0.57535652780E+02  0.57535652780E+02  0.00000000000E+00 0.  1.
          2   -1    0    0  501    0  0.00000000000E+00 -0.00000000000E+00 -0.24520822922E+03  0.24520822922E+03  0.00000000000E+00 0. -1.
         25    2    1    2    0    0  0.90047529821E+01  0.47358408590E+02 -0.12173068002E+03  0.18107304953E+03  0.12508071941E+03 0.  0.
          5    1    3    3  502    0  0.13613272559E+02  0.72052738564E+02 -0.19883538367E+02  0.76090379302E+02  0.41800000000E+01 0. -1.
         -5    1    3    3    0  502 -0.46085195768E+01 -0.24694329974E+02 -0.10184714165E+03  0.10498267023E+03  0.41800000000E+01 0. -1.
        -11    1    1    2    0    0 -0.29586661939E+00  0.14481273983E+02 -0.56724276193E+02  0.58544328016E+02  0.00000000000E+00 0. -1.
         11    1    1    2    0    0 -0.87088863628E+01 -0.61839682573E+02 -0.92176202333E+01  0.63126504459E+02  0.00000000000E+00 0.  1.
</event>
<event>
 7    1  0.2440960E-009  0.1110548E+03  0.7561462E-02  0.1258629E+00
         -2   -1    0    0    0  501 -0.00000000000E+00  0.00000000000E+00  0.35377129961E+02  0.35377129961E+02  0.00000000000E+00 0.  1.
          2   -1    0    0  501    0  0.00000000000E+00 -0.00000000000E+00 -0.43045339131E+03  0.43045339131E+03  0.00000000000E+00 0. -1.
         25    2    1    2    0    0 -0.20294010268E+02  0.29078939290E+02 -0.31253032313E+03  0.33849686689E+03  0.12508994546E+03 0.  0.
          5    1    3    3  502    0 -0.70094650020E+02  0.30341162498E+02 -0.14888590956E+03  0.16738677537E+03  0.41800000000E+01 0.  1.
         -5    1    3    3    0  502  0.49800639752E+02 -0.12622232075E+01 -0.16364441358E+03  0.17111009153E+03  0.41800000000E+01 0.  1.
        -11    1    1    2    0    0  0.12037687590E+02  0.31896316939E+02 -0.19673288448E+02  0.39361392699E+02  0.00000000000E+00 0. -1.
         11    1    1    2    0    0  0.82563226779E+01 -0.60975256230E+02 -0.62872649768E+02  0.87972261681E+02  0.00000000000E+00 0.  1.
</event>
<event>
 7    1  0.2492385E-009  0.1188846E+03  0.7561462E-02  0.1244949E+00
          2   -1    0    0  501    0  0.00000000000E+00  0.00000000000E+00  0.20589544980E+04  0.20589544980E+04  0.00000000000E+00 0. -1.
         -2   -1    0    0    0  501 -0.00000000000E+00 -0.00000000000E+00 -0.95337845791E+01  0.95337845791E+01  0.00000000000E+00 0.  1.
         25    2    1    2    0    0  0.13792849801E+02 -0.67807735034E+02  0.15252312348E+04  0.15319155433E+04  0.12508709171E+03 0.  0.
          5    1    3    3  502    0  0.66652298778E+02 -0.37845405215E+02  0.63900309612E+03  0.64359710447E+03  0.41800000000E+01 0. -1.
         -5    1    3    3    0  502 -0.52859448977E+02 -0.29962329819E+02  0.88622813872E+03  0.88831843886E+03  0.41800000000E+01 0. -1.
        -11    1    1    2    0    0 -0.68896934281E+01 -0.15263382432E+02  0.22733200826E+02  0.28235388054E+02  0.00000000000E+00 0.  1.
         11    1    1    2    0    0 -0.69031563731E+01  0.83071117466E+02  0.50145627776E+03  0.50833735120E+03  0.00000000000E+00 0. -1.
</event>
<event>
 7    1  0.2440960E-009  0.3240919E+03  0.7561462E-02  0.1073781E+00
          2   -1    0    0  501    0  0.00000000000E+00  0.00000000000E+00  0.16523227273E+03  0.16523227273E+03  0.00000000000E+00 0. -1.
         -2   -1    0    0    0  501 -0.00000000000E+00 -0.00000000000E+00 -0.10699651482E+04  0.10699651482E+04  0.00000000000E+00 0.  1.
         25    2    1    2    0    0 -0.23508127643E+03 -0.21091858375E+03 -0.82503675920E+03  0.89223467160E+03  0.12508876714E+03 0.  0.
          5    1    3    3  502    0 -0.14344387108E+03 -0.16158353112E+03 -0.68111283254E+03  0.71457507984E+03  0.41800000000E+01 0. -1.
         -5    1    3    3    0  502 -0.91637405343E+02 -0.49335052624E+02 -0.14392392666E+03  0.17765959175E+03  0.41800000000E+01 0. -1.
        -11    1    1    2    0    0  0.12006549623E+03  0.16503169187E+03 -0.18749619829E+02  0.20494567804E+03  0.00000000000E+00 0. -1.
         11    1    1    2    0    0  0.11501578020E+03  0.45886891881E+02 -0.60946496462E+02  0.13801707131E+03  0.00000000000E+00 0.  1.
</event>
<event>
 7    1  0.2440960E-009  0.1099643E+03  0.7561462E-02  0.1260636E+00
         -2   -1    0    0    0  501 -0.00000000000E+00  0.00000000000E+00  0.29433696829E+03  0.29433696829E+03  0.00000000000E+00 0.  1.
          2   -1    0    0  501    0  0.00000000000E+00 -0.00000000000E+00 -0.10980109789E+03  0.10980109789E+03  0.00000000000E+00 0. -1.
         25    2    1    2    0    0 -0.55189622215E+02 -0.31815607251E+02 -0.45956617575E+02  0.14770768387E+03  0.12508965549E+03 0.  0.
          5    1    3    3  502    0 -0.13473683618E+02  0.29866817581E+02 -0.63062714632E+02  0.71189502874E+02  0.41800000000E+01 0. -1.
         -5    1    3    3    0  502 -0.41715938597E+02 -0.61682424831E+02  0.17106097057E+02  0.76518180994E+02  0.41800000000E+01 0. -1.
        -11    1    1    2    0    0 -0.22182660150E+01 -0.28767981515E+02  0.55437705391E+02  0.62496853069E+02  0.00000000000E+00 0. -1.
         11    1    1    2    0    0  0.57407888230E+02  0.60583588765E+02  0.17505478258E+03  0.19393352924E+03  0.00000000000E+00 0.  1.
</event>
<event>
 7    1  0.2440960E-009  0.1870527E+03  0.7561462E-02  0.1161147E+00
          1   -1    0    0  501    0  0.00000000000E+00  0.00000000000E+00  0.21013400089E+03  0.21013400089E+03  0.00000000000E+00 0. -1.
         -1   -1    0    0    0  501 -0.00000000000E+00 -0.00000000000E+00 -0.18337723699E+03  0.18337723699E+03  0.00000000000E+00 0.  1.
         25    2    1    2    0    0  0.81628698203E+02 -0.13938040644E+03  0.29568352270E+02  0.20642685337E+03  0.12509043235E+03 0.  0.
          5    1    3    3  502    0 -0.10485036669E+02  0.18220348184E+02  0.64050319959E+01  0.22369933320E+02  0.41800000000E+01 0. -1.
         -5    1    3    3    0  502  0.92113734872E+02 -0.15760075463E+03  0.23163320274E+02  0.18405692005E+03  0.41800000000E+01 0. -1.
        -11    1    1    2    0    0 -0.17785338024E+02  0.83062243222E+02  0.37542034890E+02  0.92871195111E+02  0.00000000000E+00 0. -1.
         11    1    1    2    0    0 -0.63843360179E+02  0.56318163220E+02 -0.40353623257E+02  0.94213189403E+02  0.00000000000E+00 0.  1.
</event>
<event>
 7    1  0.2440960E-009  0.1290398E+03  0.7561462E-02  0.1228887E+00
         -3   -1    0    0    0  501 -0.00000000000E+00  0.00000000000E+00  0.95269068012E+02  0.95269068012E+02  0.00000000000E+00 0.  1.
          3   -1    0    0  501    0  0.00000000000E+00 -0.00000000000E+00 -0.26945662602E+03  0.26945662602E+03  0.00000000000E+00 0. -1.
         25    2    1    2    0    0  0.11150299059E+03  0.64423751756E+01 -0.47040393870E+02  0.17417056826E+03  0.12509263401E+03 0.  0.
          5    1    3    3  502    0  0.35397186550E+02  0.18887827812E+02 -0.80471177127E+02  0.90015518680E+02  0.41800000000E+01 0. -1.
         -5    1    3    3    0  502  0.76105804043E+02 -0.12445452636E+02  0.33430783256E+02  0.84155049578E+02  0.41800000000E+01 0. -1.
        -11    1    1    2    0    0 -0.50954034961E+02 -0.45620597779E+02 -0.48476494413E+02  0.83830323458E+02  0.00000000000E+00 0. -1.
         11    1    1    2    0    0 -0.60548955632E+02  0.39178222603E+02 -0.78670669725E+02  0.10672480232E+03  0.00000000000E+00 0.  1.
</event>
<event>
 7    1  0.2440960E-009  0.1182534E+03  0.7561462E-02  0.1246007E+00
          3   -1    0    0  501    0  0.00000000000E+00  0.00000000000E+00  0.13980300238E+03  0.13980300238E+03  0.00000000000E+00 0. -1.
         -3   -1    0    0    0  501 -0.00000000000E+00 -0.00000000000E+00 -0.12466612719E+03  0.12466612719E+03  0.00000000000E+00 0.  1.
         25    2    1    2    0    0  0.66433662801E+02  0.59738870348E+01 -0.27150236438E+02  0.14432970431E+03  0.12507921222E+03 0.  0.
          5    1    3    3  502    0  0.23885885366E+02  0.62058462557E+02  0.50211620300E+01  0.66816710206E+02  0.41800000000E+01 0. -1.
         -5    1    3    3    0  502  0.42547777435E+02 -0.56084575522E+02 -0.32171398468E+02  0.77512994108E+02  0.41800000000E+01 0. -1.
        -11    1    1    2    0    0 -0.43025096514E+02  0.32775162542E+02 -0.54368806258E+01  0.54359266741E+02  0.00000000000E+00 0.  1.
         11    1    1    2    0    0 -0.23408566287E+02 -0.38749049577E+02  0.47723992255E+02  0.65780158524E+02  0.00000000000E+00 0. -1.
</event>
<event>
 7    1  0.2440960E-009  0.1509022E+03  0.7561462E-02  0.1199369E+00
         -1   -1    0    0    0  501 -0.00000000000E+00  0.00000000000E+00  0.10714522661E+04  0.10714522661E+04  0.00000000000E+00 0.  1.
          1   -1    0    0  501    0  0.00000000000E+00 -0.00000000000E+00 -0.25401132422E+02  0.25401132422E+02  0.00000000000E+00 0. -1.
         25    2    1    2    0    0  0.19970642974E+02 -0.10729661491E+03  0.75398894175E+03  0.77204790960E+03  0.12508900941E+03 0.  0.
          5    1    3    3  502    0 -0.41371150612E+02 -0.70299873890E+01  0.30532142851E+03  0.30822011604E+03  0.41800000000E+01 0.  1.
         -5    1    3    3    0  502  0.61341793586E+02 -0.10026662752E+03  0.44866751324E+03  0.46382779355E+03  0.41800000000E+01 0.  1.
        -11    1    1    2    0    0  0.24809585516E+02  0.91065798108E+02  0.19992659669E+03  0.22108627090E+03  0.00000000000E+00 0.  1.
         11    1    1    2    0    0 -0.44780228490E+02  0.16230816803E+02  0.92135595266E+02  0.10371921805E+03  0.00000000000E+00 0. -1.
</event>
<event>
 7    1  0.2440960E-009  0.6867222E+02  0.7561462E-02  0.1364667E+00
         -1   -1    0    0    0  501 -0.00000000000E+00  0.00000000000E+00  0.36521713265E+03  0.36521713265E+03  0.00000000000E+00 0.  1.
          1   -1    0    0  501    0  0.00000000000E+00 -0.00000000000E+00 -0.41712144625E+02  0.41712144625E+02  0.00000000000E+00 0. -1.
         25    2    1    2    0    0 -0.10838532896E+02 -0.39135753176E+02  0.25240155808E+03  0.28460836602E+03  0.12508514906E+03 0.  0.
          5    1    3    3  502    0  0.25691059427E+02 -0.32489125908E+02  0.14946591644E+02  0.44231740170E+02  0.41800000000E+01 0. -1.
         -5    1    3    3    0  502 -0.36529592322E+02 -0.66466272676E+01  0.23745496644E+03  0.24037662585E+03  0.41800000000E+01 0. -1.
        -11    1    1    2    0    0 -0.67297514056E+01  0.40191175983E+02 -0.77896281509E+01  0.41488534412E+02  0.00000000000E+00 0. -1.
         11    1    1    2    0    0  0.17568284301E+02 -0.10554228078E+01  0.78893058088E+02  0.80832376837E+02  0.00000000000E+00 0.  1.
</event>
<event>
 7    1  0.2440960E-009  0.1421653E+03  0.7561462E-02  0.1210445E+00
          1   -1    0    0  501    0  0.00000000000E+00  0.00000000000E+00  0.99543831957E+03  0.99543831957E+03  0.00000000000E+00 0. -1.
         -1   -1    0    0    0  501 -0.00000000000E+00 -0.00000000000E+00 -0.28128785331E+02  0.28128785331E+02  0.00000000000E+00 0.  1.
         25    2    1    2    0    0 -0.97089705656E+02  0.49579641042E+02  0.71863114489E+03  0.73753872901E+03  0.12509237637E+03 0.  0.
          5    1    3    3  502    0 -0.10739807133E+03  0.77217809287E+02  0.51465542285E+03  0.53139873209E+03  0.41800000000E+01 0.  1.
         -5    1    3    3    0  502  0.10308365676E+02 -0.27638168245E+02  0.20397572204E+03  0.20613999692E+03  0.41800000000E+01 0.  1.
        -11    1    1    2    0    0  0.15010019326E+02  0.12298529027E+02  0.28996357521E+01  0.19620458299E+02  0.00000000000E+00 0.  1.
         11    1    1    2    0    0  0.82079686330E+02 -0.61878170068E+02  0.24577875360E+03  0.26640791760E+03  0.00000000000E+00 0. -1.
</event>
<event>
 7    1  0.2440960E-009  0.8942323E+02  0.7561462E-02  0.1304254E+00
         -2   -1    0    0    0  501 -0.00000000000E+00  0.00000000000E+00  0.68713936507E+02  0.68713936507E+02  0.00000000000E+00 0.  1.
          2   -1    0    0  501    0  0.00000000000E+00 -0.00000000000E+00 -0.19340486683E+03  0.19340486683E+03  0.00000000000E+00 0. -1.
         25    2    1    2    0    0  0.11843070373E+02  0.29170225473E+02 -0.45970323858E+02  0.13693643735E+03  0.12508859592E+03 0.  0.
          5    1    3    3  502    0  0.66623762653E+02  0.56382744371E+01 -0.36905926710E+02  0.76485526180E+02  0.41800000000E+01 0.  1.
         -5    1    3    3    0  502 -0.54780692280E+02  0.23531951036E+02 -0.90643971483E+01  0.60450911175E+02  0.41800000000E+01 0.  1.
        -11    1    1    2    0    0  0.15533830108E+02 -0.13249832978E+02  0.15595035933E+02  0.25691693162E+02  0.00000000000E+00 0.  1.
         11    1    1    2    0    0 -0.27376900481E+02 -0.15920392495E+02 -0.94315642394E+02  0.99490672816E+02  0.00000000000E+00 0. -1.
</event>
<event>
 7    1  0.2440960E-009  0.1249937E+03  0.7561462E-02  0.1235079E+00
         -2   -1    0    0    0  501 -0.00000000000E+00  0.00000000000E+00  0.82720354178E+02  0.82720354178E+02  0.00000000000E+00 0.  1.
          2   -1    0    0  501    0  0.00000000000E+00 -0.00000000000E+00 -0.27447432047E+03  0.27447432047E+03  0.00000000000E+00 0. -1.
         25    2    1    2    0    0 -0.10514847424E+03 -0.35911280288E+02 -0.10090840815E+03  0.19538727286E+03  0.12509139808E+03 0.  0.
          5    1    3    3  502    0 -0.10853161765E+03 -0.27229686960E+02 -0.19888070810E+02  0.11372587938E+03  0.41800000000E+01 0. -1.
         -5    1    3    3    0  502  0.33831434108E+01 -0.86815933278E+01 -0.81020337338E+02  0.81661393476E+02  0.41800000000E+01 0. -1.
        -11    1    1    2    0    0  0.96004956612E+02  0.56296191251E+01 -0.45173807593E+02  0.10625119857E+03  0.00000000000E+00 0.  1.
         11    1    1    2    0    0  0.91435176238E+01  0.30281661163E+02 -0.45671750548E+02  0.55556203213E+02  0.00000000000E+00 0. -1.
</event>
<event>
 7    1  0.2440960E-009  0.9099876E+02  0.7561462E-02  0.1300451E+00
         -1   -1    0    0    0  501 -0.00000000000E+00  0.00000000000E+00  0.20452425159E+02  0.20452425159E+02  0.00000000000E+00 0.  1.
          1   -1    0    0  501    0  0.00000000000E+00 -0.00000000000E+00 -0.80852132222E+03  0.80852132222E+03  0.00000000000E+00 0. -1.
         25    2    1    2    0    0 -0.39944869261E+02 -0.20886690824E+02 -0.61412209011E+03  0.62835123830E+03  0.12508993037E+03 0.  0.
          5    1    3    3  502    0  0.33129152959E+02  0.27577390257E+01 -0.38922332520E+03  0.39066278961E+03  0.41800000000E+01 0. -1.
         -5    1    3    3    0  502 -0.73074022220E+02 -0.23644429850E+02 -0.22489876491E+03  0.23768844870E+03  0.41800000000E+01 0. -1.
        -11    1    1    2    0    0 -0.37517813938E+01  0.27170313165E+02 -0.14559557076E+03  0.14815657936E+03  0.00000000000E+00 0. -1.
         11    1    1    2    0    0  0.43696650655E+02 -0.62836223408E+01 -0.28351236187E+02  0.52465929721E+02  0.00000000000E+00 0.  1.
</event>
<event>
 7    1  0.2440960E-009  0.1141320E+03  0.7561462E-02  0.1253104E+00
          2   -1    0    0  501    0  0.00000000000E+00  0.00000000000E+00  0.40182777820E+03  0.40182777820E+03  0.00000000000E+00 0. -1.
         -2   -1    0    0    0  501 -0.00000000000E+00 -0.00000000000E+00 -0.37923466805E+02  0.37923466805E+02  0.00000000000E+00 0.  1.
         25    2    1    2    0    0  0.17224222132E+02  0.56043853406E+02  0.17091700939E+03  0.21976724519E+03  0.12508969034E+03 0.  0.
          5    1    3    3  502    0  0.32064895286E+02  0.92801330983E+02  0.12304279333E+03  0.15747141306E+03  0.41800000000E+01 0.  1.
         -5    1    3    3    0  502 -0.14840673154E+02 -0.36757477576E+02  0.47874216063E+02  0.62295832132E+02  0.41800000000E+01 0.  1.
        -11    1    1    2    0    0 -0.39731338046E+02 -0.13433513771E+02  0.34422041415E+02  0.54257860724E+02  0.00000000000E+00 0.  1.
         11    1    1    2    0    0  0.22507115914E+02 -0.42610339635E+02  0.15856526059E+03  0.16572613909E+03  0.00000000000E+00 0. -1.
</event>
<event>
 7    1  0.2440960E-009  0.1061380E+03  0.7561462E-02  0.1267894E+00
          2   -1    0    0  501    0  0.00000000000E+00  0.00000000000E+00  0.91215903716E+03  0.91215903716E+03  0.00000000000E+00 0. -1.
         -2   -1    0    0    0  501 -0.00000000000E+00 -0.00000000000E+00 -0.19200429218E+02  0.19200429218E+02  0.00000000000E+00 0.  1.
         25    2    1    2    0    0  0.39860443427E+02  0.23246999892E+02  0.68831754237E+03  0.70111125256E+03  0.12508665549E+03 0.  0.
          5    1    3    3  502    0 -0.35584162878E+02  0.60074517223E+01  0.79826149539E+02  0.87704097248E+02  0.41800000000E+01 0. -1.
         -5    1    3    3    0  502  0.75444606305E+02  0.17239548170E+02  0.60849139283E+03  0.61340715532E+03  0.41800000000E+01 0. -1.
        -11    1    1    2    0    0 -0.67595770538E+02 -0.12737856681E+02  0.99198593217E+02  0.12071371953E+03  0.00000000000E+00 0.  1.
         11    1    1    2    0    0  0.27735327111E+02 -0.10509143212E+02  0.10544247235E+03  0.10953449428E+03  0.00000000000E+00 0. -1.
</event>
<event>
 7    1  0.2440960E-009  0.1926808E+03  0.7561462E-02  0.1156065E+00
         -2   -1    0    0    0  501 -0.00000000000E+00  0.00000000000E+00  0.12768511888E+03  0.12768511888E+03  0.00000000000E+00 0.  1.
          2   -1    0    0  501    0  0.00000000000E+00 -0.00000000000E+00 -0.31007657131E+03  0.31007657131E+03  0.00000000000E+00 0. -1.
         25    2    1    2    0    0 -0.12829046003E+03 -0.10494322372E+03 -0.70518445263E+02  0.21929702696E+03  0.12508721985E+03 0.  0.
          5    1    3    3  502    0  0.15484645073E+02 -0.51825845601E+02 -0.20910635394E+02  0.58141375782E+02  0.41800000000E+01 0.  1.
         -5    1    3    3    0  502 -0.14377510510E+03 -0.53117378124E+02 -0.49607809869E+02  0.16115565117E+03  0.41800000000E+01 0.  1.
        -11    1    1    2    0    0  0.35580771945E+02  0.70333155419E+02 -0.15497568189E+02  0.80330061019E+02  0.00000000000E+00 0.  1.
         11    1    1    2    0    0  0.92709688083E+02  0.34610068305E+02 -0.96375438971E+02  0.13813460222E+03  0.00000000000E+00 0. -1.
</event>
<event>
 7    1  0.2440960E-009  0.1195197E+03  0.7561462E-02  0.1243891E+00
          1   -1    0    0  501    0  0.00000000000E+00  0.00000000000E+00  0.20176873214E+03  0.20176873214E+03  0.00000000000E+00 0. -1.
         -1   -1    0    0    0  501 -0.00000000000E+00 -0.00000000000E+00 -0.21696580502E+03  0.21696580502E+03  0.00000000000E+00 0.  1.
         25    2    1    2    0    0  0.67346508130E+02  0.29412724363E+02  0.15415870664E+03  0.21169093264E+03  0.12508990213E+03 0.  0.
          5    1    3    3  502    0  0.14031317805E+02  0.63803801603E+02  0.29601431979E+02  0.71843720349E+02  0.41800000000E+01 0. -1.
         -5    1    3    3    0  502  0.53315190325E+02 -0.34391077241E+02  0.12455727467E+03  0.13984721229E+03  0.41800000000E+01 0. -1.
        -11    1    1    2    0    0 -0.13104880959E+02 -0.50218239335E+02 -0.40959051017E+02  0.66115454525E+02  0.00000000000E+00 0.  1.
         11    1    1    2    0    0 -0.54241627171E+02  0.20805514972E+02 -0.12839672850E+03  0.14092815000E+03  0.00000000000E+00 0. -1.
</event>
<event>
 7    1  0.2440960E-009  0.1178669E+03  0.7561462E-02  0.1246658E+00
          1   -1    0    0  501    0  0.00000000000E+00  0.00000000000E+00  0.45976001576E+03  0.45976001576E+03  0.00000000000E+00 0. -1.
         -1   -1    0    0    0  501 -0.00000000000E+00 -0.00000000000E+00 -0.35797180893E+02  0.35797180893E+02  0.00000000000E+00 0.  1.
         25    2    1    2    0    0 -0.66852900314E+02 -0.11417381363E+02  0.22575841719E+03  0.26686025197E+03  0.12509142365E+03 0.  0.
          5    1    3    3  502    0 -0.98032813364E+00  0.49426057397E+02  0.55910859809E+02  0.74748865127E+02  0.41800000000E+01 0.  1.
         -5    1    3    3    0  502 -0.65872572180E+02 -0.60843438760E+02  0.16984755739E+03  0.19211138684E+03  0.41800000000E+01 0.  1.
        -11    1    1    2    0    0  0.38555419661E+02  0.40400601322E+02  0.17103772845E+03  0.17992396596E+03  0.00000000000E+00 0. -1.
         11    1    1    2    0    0  0.28297480652E+02 -0.28983219959E+02  0.27166689227E+02  0.48772978728E+02  0.00000000000E+00 0.  1.
</event>
<event>
 7    1  0.2440960E-009  0.8526064E+02  0.7561462E-02  0.1314752E+00
          2   -1    0    0  501    0  0.00000000000E+00  0.00000000000E+00  0.61856753813E+03  0.61856753813E+03  0.00000000000E+00 0.  1.
         -2   -1    0    0    0  501 -0.00000000000E+00 -0.00000000000E+00 -0.21856994454E+02  0.21856994454E+02  0.00000000000E+00 0. -1.
         25    2    1    2    0    0 -0.17765177310E+02 -0.25171798384E+02  0.25582071042E+03  0.28643228246E+03  0.12509994244E+03 0.  0.
          5    1    3    3  502    0  0.24313861735E+02  0.54473096694E+01  0.22372673331E+03  0.22514875228E+03  0.41800000000E+01 0. -1.
         -5    1    3    3    0  502 -0.42079039045E+02 -0.30619108053E+02  0.32093977108E+02  0.61283530182E+02  0.41800000000E+01 0. -1.
        -11    1    1    2    0    0  0.11385878522E+02  0.58254422616E+02  0.25290544377E+03  0.25977755767E+03  0.00000000000E+00 0.  1.
         11    1    1    2    0    0  0.63792987888E+01 -0.33082624232E+02  0.87984389492E+02  0.94214692449E+02  0.00000000000E+00 0. -1.
</event>
<event>
 7    1  0.2440960E-009  0.9026169E+02  0.7561462E-02  0.1302219E+00
          2   -1    0    0  501    0  0.00000000000E+00  0.00000000000E+00  0.37234742915E+02  0.37234742915E+02  0.00000000000E+00 0. -1.
         -2   -1    0    0    0  501 -0.00000000000E+00 -0.00000000000E+00 -0.22264656466E+03  0.22264656466E+03  0.00000000000E+00 0.  1.
         25    2    1    2    0    0  0.79692970578E+01  0.19034715806E+02 -0.13117171243E+03  0.18242595095E+03  0.12508948531E+03 0.  0.
          5    1    3    3  502    0  0.51908942846E+02  0.49300991585E+02 -0.88954484091E+02  0.11426066147E+03  0.41800000000E+01 0. -1.
         -5    1    3    3    0  502 -0.43939645788E+02 -0.30266275779E+02 -0.42217228341E+02  0.68165289483E+02  0.41800000000E+01 0. -1.
        -11    1    1    2    0    0 -0.23842204760E+02  0.69582847530E+01 -0.24444945343E+02  0.34848584007E+02  0.00000000000E+00 0. -1.
         11    1    1    2    0    0  0.15872907702E+02 -0.25993000559E+02 -0.29795163966E+02  0.42606772616E+02  0.00000000000E+00 0.  1.
</event>
<event>
 7    1  0.2440960E-009  0.9313430E+02  0.7561462E-02  0.1295434E+00
          2   -1    0    0  501    0  0.00000000000E+00  0.00000000000E+00  0.65770988704E+03  0.65770988704E+03  0.00000000000E+00 0. -1.
         -2   -1    0    0    0  501 -0.00000000000E+00 -0.00000000000E+00 -0.27098899767E+02  0.27098899767E+02  0.00000000000E+00 0.  1.
         25    2    1    2    0    0  0.68271838207E+02 -0.21045500917E+02  0.27251361294E+03  0.30824691829E+03  0.12509411015E+03 0.  0.
          5    1    3    3  502    0  0.21863325936E+02  0.68909620360E+01  0.24722457705E+03  0.24832026554E+03  0.41800000000E+01 0. -1.
         -5    1    3    3    0  502  0.46408512271E+02 -0.27936462953E+02  0.25289035894E+02  0.59926652751E+02  0.41800000000E+01 0. -1.
        -11    1    1    2    0    0 -0.35534297756E+02  0.52396717016E+02  0.13777088791E+03  0.15162097423E+03  0.00000000000E+00 0.  1.
         11    1    1    2    0    0 -0.32737540450E+02 -0.31351216099E+02  0.22032648641E+03  0.22494089428E+03  0.00000000000E+00 0. -1.
</event>
<event>
 7    1  0.2440960E-009  0.1059124E+03  0.7561462E-02  0.1268332E+00
          2   -1    0    0  501    0  0.00000000000E+00  0.00000000000E+00  0.59363055116E+03  0.59363055116E+03  0.00000000000E+00 0. -1.
         -2   -1    0    0    0  501 -0.00000000000E+00 -0.00000000000E+00 -0.25852027245E+02  0.25852027245E+02  0.00000000000E+00 0.  1.
         25    2    1    2    0    0  0.46240015828E+02  0.62483158667E+01  0.41397705683E+03  0.43497710892E+03  0.12510356183E+03 0.  0.
          5    1    3    3  502    0 -0.29770495261E+02  0.14762102262E+02  0.35415666191E+02  0.48743654592E+02  0.41800000000E+01 0. -1.
         -5    1    3    3    0  502  0.76010511089E+02 -0.85137863958E+01  0.37856139064E+03  0.38623345433E+03  0.41800000000E+01 0. -1.
        -11    1    1    2    0    0 -0.32582254454E+02 -0.47882357776E+02  0.82017790275E+02  0.10040538538E+03  0.00000000000E+00 0.  1.
         11    1    1    2    0    0 -0.13657761374E+02  0.41634041909E+02  0.71783676809E+02  0.84100084112E+02  0.00000000000E+00 0. -1.
</event>
<event>
 7    1  0.2440960E-009  0.1272107E+03  0.7561462E-02  0.1231654E+00
          2   -1    0    0  501    0  0.00000000000E+00  0.00000000000E+00  0.49600321084E+02  0.49600321084E+02  0.00000000000E+00 0. -1.
         -2   -1    0    0    0  501 -0.00000000000E+00 -0.00000000000E+00 -0.37116760893E+03  0.37116760893E+03  0.00000000000E+00 0.  1.
         25    2    1    2    0    0  0.71155059120E+02 -0.47369528075E+02 -0.15716074012E+03  0.21829977065E+03  0.12509347307E+03 0.  0.
          5    1    3    3  502    0  0.30464830162E+02  0.40222377803E+02 -0.79700640865E+02  0.94422508478E+02  0.41800000000E+01 0. -1.
         -5    1    3    3    0  502  0.40690228959E+02 -0.87591905878E+02 -0.77460099252E+02  0.12387726218E+03  0.41800000000E+01 0. -1.
        -11    1    1    2    0    0 -0.82500657183E+02  0.48527335721E+02 -0.16531832546E+03  0.19102724801E+03  0.00000000000E+00 0. -1.
         11    1    1    2    0    0  0.11345598062E+02 -0.11578076467E+01  0.91177773318E+00  0.11440911352E+02  0.00000000000E+00 0.  1.
</event>
<event>
 7    1  0.2440960E-009  0.1102301E+03  0.7561462E-02  0.1260144E+00
          1   -1    0    0  501    0  0.00000000000E+00  0.00000000000E+00  0.87392330716E+03  0.87392330716E+03  0.00000000000E+00 0. -1.
         -1   -1    0    0    0  501 -0.00000000000E+00 -0.00000000000E+00 -0.26917574952E+02  0.26917574952E+02  0.00000000000E+00 0.  1.
         25    2    1    2    0    0 -0.60120292108E+02 -0.89701338949E+02  0.50940690348E+03  0.53554039380E+03  0.12508932949E+03 0.  0.
          5    1    3    3  502    0 -0.69447414728E+01 -0.34683962383E+02  0.21397997939E+02  0.41551815803E+02  0.41800000000E+01 0.  1.
         -5    1    3    3    0  502 -0.53175550635E+02 -0.55017376566E+02  0.48800890554E+03  0.49398857800E+03  0.41800000000E+01 0.  1.
        -11    1    1    2    0    0  0.42462215090E+02  0.68824569955E+02  0.32550833724E+03  0.33540354612E+03  0.00000000000E+00 0. -1.
         11    1    1    2    0    0  0.17658077018E+02  0.20876768994E+02  0.12090491491E+02  0.29896942186E+02  0.00000000000E+00 0.  1.
</event>
<event>
 7    1  0.2440960E-009  0.1306698E+03  0.7561462E-02  0.1226465E+00
          2   -1    0    0  501    0  0.00000000000E+00  0.00000000000E+00  0.15283900181E+04  0.15283900181E+04  0.00000000000E+00 0. -1.
         -2   -1    0    0    0  501 -0.00000000000E+00 -0.00000000000E+00 -0.15856135117E+02  0.15856135117E+02  0.00000000000E+00 0.  1.
         25    2    1    2    0    0 -0.38356852849E+02  0.70016992303E+02  0.12036699474E+04  0.12127831654E+04  0.12509211247E+03 0.  0.
          5    1    3    3  502    0 -0.81146186398E+02  0.64896441807E+02  0.77854728654E+03  0.78546139402E+03  0.41800000000E+01 0.  1.
         -5    1    3    3    0  502  0.42789333549E+02  0.51205504959E+01  0.42512266090E+03  0.42732177140E+03  0.41800000000E+01 0.  1.
        -11    1    1    2    0    0 -0.23337996736E+02 -0.37875281490E+02  0.17543950274E+03  0.18099231520E+03  0.00000000000E+00 0.  1.
         11    1    1    2    0    0  0.61694849585E+02 -0.32141710813E+02  0.13342443276E+03  0.15047067254E+03  0.00000000000E+00 0. -1.
</event>
<event>
 7    1  0.2440960E-009  0.1006065E+03  0.7561462E-02  0.1279026E+00
          2   -1    0    0  501    0  0.00000000000E+00  0.00000000000E+00  0.18730120065E+03  0.18730120065E+03  0.00000000000E+00 0.  1.
         -2   -1    0    0    0  501 -0.00000000000E+00 -0.00000000000E+00 -0.95505046838E+02  0.95505046838E+02  0.00000000000E+00 0. -1.
         25    2    1    2    0    0 -0.27463292902E+02  0.71013169545E+02  0.84093064556E+02  0.16886542713E+03  0.12508711471E+03 0.  0.
          5    1    3    3  502    0 -0.66596227412E+01  0.67523135990E+02 -0.13178617123E+02  0.69245020169E+02  0.41800000000E+01 0.  1.
         -5    1    3    3    0  502 -0.20803670161E+02  0.34900335549E+01  0.97271681678E+02  0.99620406960E+02  0.41800000000E+01 0.  1.
        -11    1    1    2    0    0  0.48126840455E+02 -0.76472729899E+02  0.14502250624E+02  0.91512766670E+02  0.00000000000E+00 0.  1.
         11    1    1    2    0    0 -0.20663547553E+02  0.54595603544E+01 -0.67991613718E+01  0.22428053685E+02  0.00000000000E+00 0. -1.
</event>
<event>
 7    1  0.2440960E-009  0.1767128E+03  0.7561462E-02  0.1171023E+00
          2   -1    0    0  501    0  0.00000000000E+00  0.00000000000E+00  0.39727404743E+03  0.39727404743E+03  0.00000000000E+00 0. -1.
         -2   -1    0    0    0  501 -0.00000000000E+00 -0.00000000000E+00 -0.89263716660E+02  0.89263716660E+02  0.00000000000E+00 0.  1.
         25    2    1    2    0    0 -0.14578794963E+03 -0.15847022597E+02  0.10512568041E+03  0.21955494957E+03  0.12509081826E+03 0.  0.
          5    1    3    3  502    0  0.16346934964E+02 -0.21072046048E+02  0.31138749258E+02  0.41211012033E+02  0.41800000000E+01 0.  1.
         -5    1    3    3    0  502 -0.16213488460E+03  0.52250234510E+01  0.73986931155E+02  0.17834393753E+03  0.41800000000E+01 0.  1.
        -11    1    1    2    0    0  0.70329992226E+02 -0.29339938048E+02  0.13815446491E+03  0.15777767886E+03  0.00000000000E+00 0. -1.
         11    1    1    2    0    0  0.75457957406E+02  0.45186960645E+02  0.64730185451E+02  0.10920513567E+03  0.00000000000E+00 0.  1.
</event>
<event>
 7    1  0.2440960E-009  0.8356786E+02  0.7561462E-02  0.1319221E+00
         -2   -1    0    0    0  501 -0.00000000000E+00  0.00000000000E+00  0.29957570610E+02  0.29957570610E+02  0.00000000000E+00 0.  1.
          2   -1    0    0  501    0  0.00000000000E+00 -0.00000000000E+00 -0.48710326712E+03  0.48710326712E+03  0.00000000000E+00 0. -1.
         25    2    1    2    0    0 -0.47065301166E+02  0.23072146152E+02 -0.30983288048E+03  0.33821795040E+03  0.12508997421E+03 0.  0.
          5    1    3    3  502    0 -0.41884710189E+02  0.38027763145E+02 -0.43765035019E+02  0.71646984637E+02  0.41800000000E+01 0. -1.
         -5    1    3    3    0  502 -0.51805909769E+01 -0.14955616993E+02 -0.26606784546E+03  0.26657096577E+03  0.41800000000E+01 0. -1.
        -11    1    1    2    0    0  0.29099656968E+02  0.27703879452E+02 -0.97600919012E+02  0.10554730865E+03  0.00000000000E+00 0.  1.
         11    1    1    2    0    0  0.17965644198E+02 -0.50776025604E+02 -0.49711897023E+02  0.73295578675E+02  0.00000000000E+00 0. -1.
</event>
<event>
 7    1  0.2440960E-009  0.1601600E+03  0.7561462E-02  0.1188516E+00
          2   -1    0    0  501    0  0.00000000000E+00  0.00000000000E+00  0.22249075678E+04  0.22249075678E+04  0.00000000000E+00 0. -1.
         -2   -1    0    0    0  501 -0.00000000000E+00 -0.00000000000E+00 -0.12618088055E+02  0.12618088055E+02  0.00000000000E+00 0.  1.
         25    2    1    2    0    0 -0.11266542073E+03 -0.36860563937E+02  0.14545099742E+04  0.14646838308E+04  0.12508901124E+03 0.  0.
          5    1    3    3  502    0  0.25301652204E+02 -0.13666488656E+02  0.15887331006E+03  0.16150897054E+03  0.41800000000E+01 0.  1.
         -5    1    3    3    0  502 -0.13796707294E+03 -0.23194075280E+02  0.12956366642E+04  0.13031748602E+04  0.41800000000E+01 0.  1.
        -11    1    1    2    0    0  0.12796246791E+03  0.21757411186E+02  0.67104476466E+03  0.68348288516E+03  0.00000000000E+00 0. -1.
         11    1    1    2    0    0 -0.15297047178E+02  0.15103152751E+02  0.86734740838E+02  0.89358939920E+02  0.00000000000E+00 0.  1.
</event>
<event>
 7    1  0.2440960E-009  0.8773481E+02  0.7561462E-02  0.1308432E+00
          1   -1    0    0  501    0  0.00000000000E+00  0.00000000000E+00  0.51818355355E+02  0.51818355355E+02  0.00000000000E+00 0. -1.
         -1   -1    0    0    0  501 -0.00000000000E+00 -0.00000000000E+00 -0.29602631907E+03  0.29602631907E+03  0.00000000000E+00 0.  1.
         25    2    1    2    0    0 -0.28418339457E+02  0.29969715593E+02 -0.75356704670E+02  0.15175825992E+03  0.12508457397E+03 0.  0.
          5    1    3    3  502    0  0.38986486422E+02  0.15262223284E+02 -0.70966021261E+02  0.82501697902E+02  0.41800000000E+01 0.  1.
         -5    1    3    3    0  502 -0.67404825880E+02  0.14707492309E+02 -0.43906834090E+01  0.69256562019E+02  0.41800000000E+01 0.  1.
        -11    1    1    2    0    0  0.34116199349E+02 -0.35408617821E+00 -0.16147319176E+03  0.16503827462E+03  0.00000000000E+00 0.  1.
         11    1    1    2    0    0 -0.56978598915E+01 -0.29615629415E+02 -0.73780672877E+01  0.31048139878E+02  0.00000000000E+00 0. -1.
</event>
<event>
 7    1  0.2440960E-009  0.9657527E+02  0.7561462E-02  0.1287667E+00
          1   -1    0    0  501    0  0.00000000000E+00  0.00000000000E+00  0.25660129604E+03  0.25660129604E+03  0.00000000000E+00 0.  1.
         -1   -1    0    0    0  501 -0.00000000000E+00 -0.00000000000E+00 -0.59847153520E+02  0.59847153520E+02  0.00000000000E+00 0. -1.
         25    2    1    2    0    0  0.39883398153E+02 -0.36678386958E+02  0.13729805645E+03  0.19347278232E+03  0.12507986119E+03 0.  0.
          5    1    3    3  502    0  0.75589108668E+02 -0.55665265747E+01  0.12170650956E+03  0.14343865043E+03  0.41800000000E+01 0. -1.
         -5    1    3    3    0  502 -0.35705710515E+02 -0.31111860384E+02  0.15591546897E+02  0.50034131896E+02  0.41800000000E+01 0. -1.
        -11    1    1    2    0    0 -0.87820940865E+01  0.37571902812E+02  0.77810055164E+02  0.86851469430E+02  0.00000000000E+00 0.  1.
         11    1    1    2    0    0 -0.31101304067E+02 -0.89351585368E+00 -0.18353969103E+02  0.36124197805E+02  0.00000000000E+00 0. -1.
</event>
<event>
 7    1  0.2440960E-009  0.1712900E+03  0.7561462E-02  0.1176509E+00
          2   -1    0    0  501    0  0.00000000000E+00  0.00000000000E+00  0.33250107213E+02  0.33250107213E+02  0.00000000000E+00 0. -1.
         -2   -1    0    0    0  501 -0.00000000000E+00 -0.00000000000E+00 -0.11712073011E+04  0.11712073011E+04  0.00000000000E+00 0.  1.
         25    2    1    2    0    0 -0.13244678444E+03  0.71841435539E+02 -0.81794698719E+03  0.84106370147E+03  0.12509010159E+03 0.  0.
          5    1    3    3  502    0 -0.12233835205E+03  0.54322564158E+01 -0.42167075830E+03  0.43911260810E+03  0.41800000000E+01 0. -1.
         -5    1    3    3    0  502 -0.10108432390E+02  0.66409179123E+02 -0.39627622889E+03  0.40195109337E+03  0.41800000000E+01 0. -1.
        -11    1    1    2    0    0  0.56264677810E+02 -0.44747569301E+02 -0.23636937999E+03  0.24705979585E+03  0.00000000000E+00 0.  1.
         11    1    1    2    0    0  0.76182106625E+02 -0.27093866237E+02 -0.83640826755E+02  0.11633391104E+03  0.00000000000E+00 0. -1.
</event>
<event>
 7    1  0.2440960E-009  0.9621505E+02  0.7561462E-02  0.1288463E+00
         -2   -1    0    0    0  501 -0.00000000000E+00  0.00000000000E+00  0.10389768668E+03  0.10389768668E+03  0.00000000000E+00 0.  1.
          2   -1    0    0  501    0  0.00000000000E+00 -0.00000000000E+00 -0.22200565590E+03  0.22200565590E+03  0.00000000000E+00 0. -1.
         25    2    1    2    0    0  0.44165263460E+02  0.38218848507E+02 -0.11299762727E+03  0.17840489256E+03  0.12509432859E+03 0.  0.
          5    1    3    3  502    0  0.69304303543E+02  0.20560965171E+02 -0.12556728342E+03  0.14494983561E+03  0.41800000000E+01 0. -1.
         -5    1    3    3    0  502 -0.25139040082E+02  0.17657883336E+02  0.12569656148E+02  0.33455056955E+02  0.41800000000E+01 0. -1.
        -11    1    1    2    0    0 -0.50279582104E+02  0.31382539743E-01 -0.61280088679E+02  0.79267185076E+02  0.00000000000E+00 0. -1.
         11    1    1    2    0    0  0.61143186435E+01 -0.38250231047E+02  0.56169746732E+02  0.68231264942E+02  0.00000000000E+00 0.  1.
</event>
<event>
 7    1  0.2440960E-009  0.1220281E+03  0.7561462E-02  0.1239788E+00
          2   -1    0    0  501    0  0.00000000000E+00  0.00000000000E+00  0.20296848686E+03  0.20296848686E+03  0.00000000000E+00 0. -1.
         -2   -1    0    0    0  501 -0.00000000000E+00 -0.00000000000E+00 -0.85772143390E+02  0.85772143390E+02  0.00000000000E+00 0.  1.
         25    2    1    2    0    0 -0.84923379519E+01 -0.66335486978E+02  0.27450766766E+02  0.14448143749E+03  0.12509526189E+03 0.  0.
          5    1    3    3  502    0  0.58291508798E+02 -0.30510057437E+02  0.14039990737E+02  0.67404431179E+02  0.41800000000E+01 0. -1.
         -5    1    3    3    0  502 -0.66783846750E+02 -0.35825429542E+02  0.13410776029E+02  0.77077006313E+02  0.41800000000E+01 0. -1.
        -11    1    1    2    0    0 -0.32614275621E+02  0.13529341380E+02  0.62945558260E+02  0.72172552658E+02  0.00000000000E+00 0.  1.
         11    1    1    2    0    0  0.41106613573E+02  0.52806145598E+02  0.26800018446E+02  0.72086640101E+02  0.00000000000E+00 0. -1.
</event>
<event>
 7    1  0.2440960E-009  0.1190788E+03  0.7561462E-02  0.1244625E+00
          1   -1    0    0  501    0  0.00000000000E+00  0.00000000000E+00  0.46089163825E+03  0.46089163825E+03  0.00000000000E+00 0. -1.
         -1   -1    0    0    0  501 -0.00000000000E+00 -0.00000000000E+00 -0.33164231655E+02  0.33164231655E+02  0.00000000000E+00 0.  1.
         25    2    1    2    0    0 -0.52089737658E+02 -0.23650463407E+02  0.21097700432E+03  0.25185346590E+03  0.12508471828E+03 0.  0.
          5    1    3    3  502    0  0.20492741623E+02  0.32891532684E+02  0.31465208126E+02  0.50093284021E+02  0.41800000000E+01 0. -1.
         -5    1    3    3    0  502 -0.72582479281E+02 -0.56541996091E+02  0.17951179619E+03  0.20176018188E+03  0.41800000000E+01 0. -1.
        -11    1    1    2    0    0  0.55169600973E+02 -0.23399998547E+02  0.13740181865E+03  0.14990164966E+03  0.00000000000E+00 0. -1.
         11    1    1    2    0    0 -0.30798633156E+01  0.47050461954E+02  0.79348583628E+02  0.92300754341E+02  0.00000000000E+00 0.  1.
</event>
<event>
 7    1  0.2440960E-009  0.9022886E+02  0.7561462E-02  0.1302298E+00
         -3   -1    0    0    0  501 -0.00000000000E+00  0.00000000000E+00  0.91434568055E+02  0.91434568055E+02  0.00000000000E+00 0.  1.
          3   -1    0    0  501    0  0.00000000000E+00 -0.00000000000E+00 -0.19182612627E+03  0.19182612627E+03  0.00000000000E+00 0. -1.
         25    2    1    2    0    0  0.63990716898E+02  0.13564386378E+02 -0.14560199716E+02  0.14190837126E+03  0.12508869649E+03 0.  0.
          5    1    3    3  502    0  0.87350653325E+00  0.21808767731E+02 -0.59739711964E+02  0.63739241831E+02  0.41800000000E+01 0.  1.
         -5    1    3    3    0  502  0.63117210365E+02 -0.82443813533E+01  0.45179512247E+02  0.78169129425E+02  0.41800000000E+01 0.  1.
        -11    1    1    2    0    0 -0.34609716136E+02 -0.41407076555E+02 -0.92806824914E+01  0.54758647786E+02  0.00000000000E+00 0.  1.
         11    1    1    2    0    0 -0.29381000762E+02  0.27842690177E+02 -0.76550676008E+02  0.86593675285E+02  0.00000000000E+00 0. -1.
</event>
<event>
 7    1  0.2440960E-009  0.2105723E+03  0.7561462E-02  0.1141114E+00
          2   -1    0    0  501    0  0.00000000000E+00  0.00000000000E+00  0.11356928099E+04  0.11356928099E+04  0.00000000000E+00 0. -1.
         -2   -1    0    0    0  501 -0.00000000000E+00 -0.00000000000E+00 -0.39566711520E+02  0.39566711520E+02  0.00000000000E+00 0.  1.
         25    2    1    2    0    0  0.45178370077E+02  0.17477788453E+03  0.50959969166E+03  0.55491282660E+03  0.12509198751E+03 0.  0.
          5    1    3    3  502    0  0.44124871718E+02 -0.20232473165E+00  0.11443163276E+03  0.12271559076E+03  0.41800000000E+01 0.  1.
         -5    1    3    3    0  502  0.10534983597E+01  0.17498020926E+03  0.39516805890E+03  0.43219723584E+03  0.41800000000E+01 0.  1.
        -11    1    1    2    0    0  0.52021546089E+01 -0.14108238893E+03  0.42402829567E+03  0.44691307701E+03  0.00000000000E+00 0. -1.
         11    1    1    2    0    0 -0.50380524686E+02 -0.33695495597E+02  0.16249811106E+03  0.17343361781E+03  0.00000000000E+00 0.  1.
</event>
<event>
 7    1  0.2440960E-009  0.1067743E+03  0.7561462E-02  0.1266663E+00
         -1   -1    0    0    0  501 -0.00000000000E+00  0.00000000000E+00  0.10296956075E+03  0.10296956075E+03  0.00000000000E+00 0.  1.
          1   -1    0    0  501    0  0.00000000000E+00 -0.00000000000E+00 -0.16319593772E+03  0.16319593772E+03  0.00000000000E+00 0. -1.
         25    2    1    2    0    0 -0.66334361412E+02 -0.35856364446E+01 -0.18447148910E+02  0.14283401130E+03  0.12509257847E+03 0.  0.
          5    1    3    3  502    0 -0.61006185788E+01  0.29615099178E+02  0.41489826892E+02  0.51508735006E+02  0.41800000000E+01 0.  1.
         -5    1    3    3    0  502 -0.60233742833E+02 -0.33200735623E+02 -0.59936975802E+02  0.91325276293E+02  0.41800000000E+01 0.  1.
        -11    1    1    2    0    0  0.48619816326E+02  0.46757291384E+02 -0.13579649008E+02  0.68807977039E+02  0.00000000000E+00 0.  1.
         11    1    1    2    0    0  0.17714545086E+02 -0.43171654939E+02 -0.28199579059E+02  0.54523510130E+02  0.00000000000E+00 0. -1.
</event>
<event>
 7    1  0.2440960E-009  0.1569843E+03  0.7561462E-02  0.1192144E+00
         -1   -1    0    0    0  501 -0.00000000000E+00  0.00000000000E+00  0.64190062823E+02  0.64190062823E+02  0.00000000000E+00 0.  1.
          1   -1    0    0  501    0  0.00000000000E+00 -0.00000000000E+00 -0.45234808762E+03  0.45234808762E+03  0.00000000000E+00 0. -1.
         25    2    1    2    0    0 -0.13220216136E+03 -0.84837781822E+00 -0.20665288431E+03  0.27537484358E+03  0.12509100156E+03 0.  0.
          5    1    3    3  502    0 -0.13121667927E+03  0.39857601880E+02 -0.18079366744E+03  0.22695873619E+03  0.41800000000E+01 0.  1.
         -5    1    3    3    0  502 -0.98548209282E+00 -0.40705979698E+02 -0.25859216865E+02  0.48416107392E+02  0.41800000000E+01 0.  1.
        -11    1    1    2    0    0  0.86932864166E+02 -0.14297106145E+02 -0.50085004944E+02  0.10134218192E+03  0.00000000000E+00 0.  1.
         11    1    1    2    0    0  0.45269297196E+02  0.15145483963E+02 -0.13142013555E+03  0.13982112494E+03  0.00000000000E+00 0. -1.
</event>
<event>
 7    1  0.2440960E-009  0.1061687E+03  0.7561462E-02  0.1267834E+00
         -1   -1    0    0    0  501 -0.00000000000E+00  0.00000000000E+00  0.28421637522E+03  0.28421637522E+03  0.00000000000E+00 0.  1.
          1   -1    0    0  501    0  0.00000000000E+00 -0.00000000000E+00 -0.63060432821E+02  0.63060432821E+02  0.00000000000E+00 0. -1.
         25    2    1    2    0    0 -0.33936679600E+01  0.61739711579E+02  0.18647048134E+03  0.23289998219E+03  0.12509137589E+03 0.  0.
          5    1    3    3  502    0 -0.38765049023E+02  0.84368642690E+02  0.15309414752E+03  0.17909798240E+03  0.41800000000E+01 0. -1.
         -5    1    3    3    0  502  0.35371381063E+02 -0.22628931111E+02  0.33376333827E+02  0.53801999789E+02  0.41800000000E+01 0. -1.
        -11    1    1    2    0    0  0.20309399352E+02 -0.97572819710E+01 -0.24854867231E+02  0.33547588267E+02  0.00000000000E+00 0. -1.
         11    1    1    2    0    0 -0.16915731392E+02 -0.51982429608E+02  0.59540328282E+02  0.80829237584E+02  0.00000000000E+00 0.  1.
</event>
<event>
 7    1  0.2440960E-009  0.9338326E+02  0.7561462E-02  0.1294859E+00
         -1   -1    0    0    0  501 -0.00000000000E+00  0.00000000000E+00  0.76412942908E+02  0.76412942908E+02  0.00000000000E+00 0.  1.
          1   -1    0    0  501    0  0.00000000000E+00 -0.00000000000E+00 -0.37310282060E+03  0.37310282060E+03  0.00000000000E+00 0. -1.
         25    2    1    2    0    0  0.64448118714E+02 -0.19763152846E+01 -0.30092257130E+03  0.33220262080E+03  0.12508685591E+03 0.  0.
          5    1    3    3  502    0  0.63467607671E+02  0.23355705393E+01 -0.49304173959E+02  0.80510658195E+02  0.41800000000E+01 0. -1.
         -5    1    3    3    0  502  0.98051104356E+00 -0.43118858238E+01 -0.25161839734E+03  0.25169196260E+03  0.41800000000E+01 0. -1.
        -11    1    1    2    0    0  0.24255042502E+02 -0.12289259638E+02  0.39044872315E+01  0.27469583356E+02  0.00000000000E+00 0. -1.
         11    1    1    2    0    0 -0.88703161216E+02  0.14265574923E+02  0.32820637328E+00  0.89843559352E+02  0.00000000000E+00 0.  1.
</event>
<event>
 7    1  0.2440960E-009  0.1169146E+03  0.7561462E-02  0.1248276E+00
          1   -1    0    0  501    0  0.00000000000E+00  0.00000000000E+00  0.10096794133E+04  0.10096794133E+04  0.00000000000E+00 0. -1.
         -1   -1    0    0    0  501 -0.00000000000E+00 -0.00000000000E+00 -0.21235915998E+02  0.21235915998E+02  0.00000000000E+00 0.  1.
         25    2    1    2    0    0  0.80338606934E+02  0.45442335065E+02  0.67951597151E+03  0.69707153587E+03  0.12508985972E+03 0.  0.
          5    1    3    3  502    0 -0.65433959866E+01  0.48348242114E+02  0.43068074238E+03  0.43345558343E+03  0.41800000000E+01 0. -1.
         -5    1    3    3    0  502  0.86882002920E+02 -0.29059070490E+01  0.24883522913E+03  0.26361595245E+03  0.41800000000E+01 0. -1.
        -11    1    1    2    0    0 -0.49351134594E+02 -0.92948991978E+01  0.26278873291E+03  0.26754410437E+03  0.00000000000E+00 0. -1.
         11    1    1    2    0    0 -0.30987472339E+02 -0.36147435867E+02  0.46138792902E+02  0.66299689080E+02  0.00000000000E+00 0.  1.
</event>
<event>
 7    1  0.2440960E-009  0.8886570E+02  0.7561462E-02  0.1305622E+00
          1   -1    0    0  501    0  0.00000000000E+00  0.00000000000E+00  0.23410317070E+03  0.23410317070E+03  0.00000000000E+00 0. -1.
         -1   -1    0    0    0  501 -0.00000000000E+00 -0.00000000000E+00 -0.56663286746E+02  0.56663286746E+02  0.00000000000E+00 0.  1.
         25    2    1    2    0    0  0.15345431550E+02 -0.24561910646E+02  0.13403973681E+03  0.18561227643E+03  0.12508595603E+03 0.  0.
          5    1    3    3  502    0  0.43531944943E+02 -0.56491232704E+02  0.39024985545E+02  0.81404615961E+02  0.41800000000E+01 0.  1.
         -5    1    3    3    0  502 -0.28186513394E+02  0.31929322058E+02  0.95014751261E+02  0.10420766047E+03  0.41800000000E+01 0.  1.
        -11    1    1    2    0    0 -0.33333558071E+02  0.29850881630E+02  0.63490430583E+02  0.77673908125E+02  0.00000000000E+00 0. -1.
         11    1    1    2    0    0  0.17988126522E+02 -0.52889709836E+01 -0.20090283431E+02  0.27480272891E+02  0.00000000000E+00 0.  1.
</event>
<event>
 7    1  0.2440960E-009  0.1409776E+03  0.7561462E-02  0.1212020E+00
         -1   -1    0    0    0  501 -0.00000000000E+00  0.00000000000E+00  0.17472739889E+02  0.17472739889E+02  0.00000000000E+00 0.  1.
          1   -1    0    0  501    0  0.00000000000E+00 -0.00000000000E+00 -0.16277972648E+04  0.16277972648E+04  0.00000000000E+00 0. -1.
         25    2    1    2    0    0 -0.11532438915E+03  0.52127850641E+02 -0.97566747402E+03  0.99176173006E+03  0.12508909546E+03 0.  0.
          5    1    3    3  502    0 -0.49475197807E+02  0.28137598598E+02 -0.11647045021E+03  0.12970103247E+03  0.41800000000E+01 0.  1.
         -5    1    3    3    0  502 -0.65849191342E+02  0.23990252043E+02 -0.85919702381E+03  0.86206069759E+03  0.41800000000E+01 0.  1.
        -11    1    1    2    0    0 -0.15107166281E+02 -0.37737589573E+01 -0.43435108066E+02  0.46141915244E+02  0.00000000000E+00 0. -1.
         11    1    1    2    0    0  0.13043155543E+03 -0.48354091683E+02 -0.59122194278E+03  0.60736635934E+03  0.00000000000E+00 0.  1.
</event>
<event>
 7    1  0.2440960E-009  0.8441841E+02  0.7561462E-02  0.1316960E+00
          4   -1    0    0  501    0  0.00000000000E+00  0.00000000000E+00  0.11623228326E+03  0.11623228326E+03  0.00000000000E+00 0. -1.
         -4   -1    0    0    0  501 -0.00000000000E+00 -0.00000000000E+00 -0.12437230633E+03  0.12437230633E+03  0.00000000000E+00 0.  1.
         25    2    1    2    0    0  0.50955948065E+01  0.54496164573E+02 -0.67740077526E+00  0.13654209302E+03  0.12508991668E+03 0.  0.
          5    1    3    3  502    0  0.23075638246E+02  0.40087589202E+02 -0.58186050878E+02  0.74448564830E+02  0.41800000000E+01 0. -1.
         -5    1    3    3    0  502 -0.17980043440E+02  0.14408575371E+02  0.57508650103E+02  0.62093528189E+02  0.41800000000E+01 0. -1.
        -11    1    1    2    0    0 -0.42739253958E+02 -0.40306042133E+02  0.11051094702E+02  0.59777483682E+02  0.00000000000E+00 0. -1.
         11    1    1    2    0    0  0.37643659152E+02 -0.14190122440E+02 -0.18513717002E+02  0.44285012887E+02  0.00000000000E+00 0.  1.
</event>
<event>
 7    1  0.2576888E-009  0.2131872E+03  0.7561462E-02  0.1139067E+00
         -1   -1    0    0    0  501 -0.00000000000E+00  0.00000000000E+00  0.29024663573E+02  0.29024663573E+02  0.00000000000E+00 0. -1.
          1   -1    0    0  501    0  0.00000000000E+00 -0.00000000000E+00 -0.17612499040E+04  0.17612499040E+04  0.00000000000E+00 0.  1.
         25    2    1    2    0    0  0.25355004199E+02  0.18704452492E+03 -0.11361064396E+04  0.11584515777E+04  0.12507471917E+03 0.  0.
          5    1    3    3  502    0  0.63805210100E+02  0.15432038356E+03 -0.71214524769E+03  0.73147399942E+03  0.41800000000E+01 0.  1.
         -5    1    3    3    0  502 -0.38450205901E+02  0.32724141358E+02 -0.42396119186E+03  0.42697757830E+03  0.41800000000E+01 0.  1.
        -11    1    1    2    0    0 -0.50856289182E+02 -0.58045436772E+02 -0.24624264075E+03  0.25805246172E+03  0.00000000000E+00 0.  1.
         11    1    1    2    0    0  0.25501284983E+02 -0.12899908814E+03 -0.34987616012E+03  0.37377052813E+03  0.00000000000E+00 0. -1.
</event>
<event>
 7    1  0.2440960E-009  0.8026828E+02  0.7561462E-02  0.1328292E+00
          1   -1    0    0  501    0  0.00000000000E+00  0.00000000000E+00  0.56243009625E+02  0.56243009625E+02  0.00000000000E+00 0. -1.
         -1   -1    0    0    0  501 -0.00000000000E+00 -0.00000000000E+00 -0.23070727498E+03  0.23070727498E+03  0.00000000000E+00 0.  1.
         25    2    1    2    0    0  0.10360261852E+02 -0.41134424713E+01 -0.13950879209E+03  0.18771430895E+03  0.12509877410E+03 0.  0.
          5    1    3    3  502    0  0.23296935982E+02  0.28510492611E+02 -0.14698931212E+03  0.15158801302E+03  0.41800000000E+01 0.  1.
         -5    1    3    3    0  502 -0.12936674130E+02 -0.32623935082E+02  0.74805200304E+01  0.36126295931E+02  0.41800000000E+01 0.  1.
        -11    1    1    2    0    0 -0.32870525126E+02 -0.31811723602E+02 -0.24413676821E+01  0.45808486733E+02  0.00000000000E+00 0. -1.
         11    1    1    2    0    0  0.22510263274E+02  0.35925166073E+02 -0.32514105583E+02  0.53427488916E+02  0.00000000000E+00 0.  1.
</event>
<event>
 7    1  0.2440960E-009  0.1214375E+03  0.7561462E-02  0.1240744E+00
          2   -1    0    0  501    0  0.00000000000E+00  0.00000000000E+00  0.23174850390E+03  0.23174850390E+03  0.00000000000E+00 0.  1.
         -2   -1    0    0    0  501 -0.00000000000E+00 -0.00000000000E+00 -0.88294474697E+02  0.88294474697E+02  0.00000000000E+00 0. -1.
         25    2    1    2    0    0  0.46121688759E+02 -0.78967191389E+02  0.93745939212E+02  0.18110310482E+03  0.12508799290E+03 0.  0.
          5    1    3    3  502    0 -0.15523816316E+01  0.15367419937E+02  0.71163036212E+02  0.72939821820E+02  0.41800000000E+01 0. -1.
         -5    1    3    3    0  502  0.47674070391E+02 -0.94334611327E+02  0.22582903000E+02  0.10816328300E+03  0.41800000000E+01 0. -1.
        -11    1    1    2    0    0 -0.39125562601E+02 -0.26148194157E+01  0.40778027357E+02  0.56572912640E+02  0.00000000000E+00 0.  1.
         11    1    1    2    0    0 -0.69961261577E+01  0.81582010805E+02  0.89300626358E+01  0.82366961137E+02  0.00000000000E+00 0. -1.
</event>
<event>
 7    1  0.2440960E-009  0.1200313E+03  0.7561462E-02  0.1243045E+00
          2   -1    0    0  501    0  0.00000000000E+00  0.00000000000E+00  0.27503820623E+02  0.27503820623E+02  0.00000000000E+00 0. -1.
         -2   -1    0    0    0  501 -0.00000000000E+00 -0.00000000000E+00 -0.60512131941E+03  0.60512131941E+03  0.00000000000E+00 0.  1.
         25    2    1    2    0    0 -0.51956613995E+02  0.53076793416E+02 -0.30716677063E+03  0.33988111445E+03  0.12510440136E+03 0.  0.
          5    1    3    3  502    0  0.40570073726E+02  0.25087211768E+02 -0.85007979387E+02  0.97566018859E+02  0.41800000000E+01 0. -1.
         -5    1    3    3    0  502 -0.92526687722E+02  0.27989581649E+02 -0.22215879125E+03  0.24231509559E+03  0.41800000000E+01 0. -1.
        -11    1    1    2    0    0  0.46311144450E+02 -0.45124800340E+01 -0.56086957473E+02  0.72875451113E+02  0.00000000000E+00 0. -1.
         11    1    1    2    0    0  0.56454695451E+01 -0.48564313382E+02 -0.21436377068E+03  0.21986857447E+03  0.00000000000E+00 0.  1.
</event>
<event>
 7    1  0.2440960E-009  0.1316702E+03  0.7561462E-02  0.1224998E+00
          1   -1    0    0  501    0  0.00000000000E+00  0.00000000000E+00  0.71753662032E+03  0.71753662032E+03  0.00000000000E+00 0. -1.
         -1   -1    0    0    0  501 -0.00000000000E+00 -0.00000000000E+00 -0.34791304732E+02  0.34791304732E+02  0.00000000000E+00 0.  1.
         25    2    1    2    0    0 -0.10804844977E+03 -0.13320170088E+02  0.28040347341E+03  0.32577383373E+03  0.12510231181E+03 0.  0.
          5    1    3    3  502    0 -0.11028092276E+03 -0.33664652808E+02  0.12955269911E+03  0.17348361600E+03  0.41800000000E+01 0. -1.
         -5    1    3    3    0  502  0.22324729881E+01  0.20344482720E+02  0.15085077430E+03  0.15229021774E+03  0.41800000000E+01 0. -1.
        -11    1    1    2    0    0  0.25292326331E+02  0.33416985718E+02  0.56293848177E+02  0.70181151660E+02  0.00000000000E+00 0.  1.
         11    1    1    2    0    0  0.82756123437E+02 -0.20096815630E+02  0.34604799400E+03  0.35637293966E+03  0.00000000000E+00 0. -1.
</event>
<event>
 7    1  0.2603293E-009  0.1303060E+03  0.7561462E-02  0.1227002E+00
          1   -1    0    0  501    0  0.00000000000E+00  0.00000000000E+00  0.99239911377E+03  0.99239911377E+03  0.00000000000E+00 0. -1.
         -1   -1    0    0    0  501 -0.00000000000E+00 -0.00000000000E+00 -0.17700701838E+02  0.17700701838E+02  0.00000000000E+00 0.  1.
         25    2    1    2    0    0  0.34760866610E+02 -0.66867324333E+02  0.54484863478E+03  0.56408027945E+03  0.12508784884E+03 0.  0.
          5    1    3    3  502    0 -0.20947977619E+02 -0.81403902430E+02  0.38599468330E+03  0.39506300895E+03  0.41800000000E+01 0.  1.
         -5    1    3    3    0  502  0.55708844229E+02  0.14536578097E+02  0.15885395148E+03  0.16901727050E+03  0.41800000000E+01 0.  1.
        -11    1    1    2    0    0 -0.66423038293E+02  0.44145856607E+02  0.30277868358E+03  0.31310670370E+03  0.00000000000E+00 0. -1.
         11    1    1    2    0    0  0.31662171683E+02  0.22721467725E+02  0.12707109357E+03  0.13291283246E+03  0.00000000000E+00 0.  1.
</event>
<event>
 7    1  0.2440960E-009  0.1119810E+03  0.7561462E-02  0.1256945E+00
         -2   -1    0    0    0  501 -0.00000000000E+00  0.00000000000E+00  0.44248414839E+03  0.44248414839E+03  0.00000000000E+00 0.  1.
          2   -1    0    0  501    0  0.00000000000E+00 -0.00000000000E+00 -0.45973378940E+02  0.45973378940E+02  0.00000000000E+00 0. -1.
         25    2    1    2    0    0  0.22213497242E+02 -0.83748127339E+02  0.15902132675E+03  0.22009689581E+03  0.12509065869E+03 0.  0.
          5    1    3    3  502    0  0.48866762646E+02 -0.76126984260E+02  0.42107625781E+02  0.99868927965E+02  0.41800000000E+01 0.  1.
         -5    1    3    3    0  502 -0.26653265403E+02 -0.76211430792E+01  0.11691370096E+03  0.12022796784E+03  0.41800000000E+01 0.  1.
        -11    1    1    2    0    0 -0.25936299257E+02  0.48532360637E+01  0.14204013009E+03  0.14447021864E+03  0.00000000000E+00 0.  1.
         11    1    1    2    0    0  0.37228020143E+01  0.78894891276E+02  0.95449312619E+02  0.12389041288E+03  0.00000000000E+00 0. -1.
</event>
<event>
 7    1  0.2440960E-009  0.1308062E+03  0.7561462E-02  0.1226264E+00
          2   -1    0    0  501    0  0.00000000000E+00  0.00000000000E+00  0.20054505435E+03  0.20054505435E+03  0.00000000000E+00 0. -1.
         -2   -1    0    0    0  501 -0.00000000000E+00 -0.00000000000E+00 -0.12790164535E+03  0.12790164535E+03  0.00000000000E+00 0.  1.
         25    2    1    2    0    0  0.59022433556E+02  0.70171926208E+02 -0.34718196341E+02  0.15893472146E+03  0.12508855119E+03 0.  0.
          5    1    3    3  502    0  0.80072295674E+02  0.20489435037E+02 -0.56915214680E+02  0.10044004951E+03  0.41800000000E+01 0.  1.
         -5    1    3    3    0  502 -0.21049862118E+02  0.49682491171E+02  0.22197018339E+02  0.58494671957E+02  0.41800000000E+01 0.  1.
        -11    1    1    2    0    0 -0.66925520547E+02 -0.84848330333E+02  0.10806557790E+03  0.15282811779E+03  0.00000000000E+00 0. -1.
         11    1    1    2    0    0  0.79030869905E+01  0.14676404125E+02 -0.70397256117E+00  0.16683860446E+02  0.00000000000E+00 0.  1.
</event>
<event>
 7    1  0.2440960E-009  0.9601496E+02  0.7561462E-02  0.1288906E+00
          2   -1    0    0  501    0  0.00000000000E+00  0.00000000000E+00  0.25253054219E+03  0.25253054219E+03  0.00000000000E+00 0. -1.
         -2   -1    0    0    0  501 -0.00000000000E+00 -0.00000000000E+00 -0.64653775103E+02  0.64653775103E+02  0.00000000000E+00 0.  1.
         25    2    1    2    0    0 -0.24424230453E+02  0.50881566615E+02  0.15094314719E+03  0.20400277662E+03  0.12509125600E+03 0.  0.
          5    1    3    3  502    0 -0.18322903586E+02  0.69460466900E+02  0.16469838761E+03  0.17973179056E+03  0.41800000000E+01 0.  1.
         -5    1    3    3    0  502 -0.61013268676E+01 -0.18578900285E+02 -0.13755240412E+02  0.24270986056E+02  0.41800000000E+01 0.  1.
        -11    1    1    2    0    0  0.28156066778E+01  0.22962403492E+02  0.27073860490E+02  0.35611705056E+02  0.00000000000E+00 0. -1.
         11    1    1    2    0    0  0.21608623775E+02 -0.73843970107E+02  0.98597594023E+01  0.77569835620E+02  0.00000000000E+00 0.  1.
</event>
<event>
 7    1  0.3119843E-009  0.1170499E+03  0.7561462E-02  0.1248045E+00
         -2   -1    0    0    0  501 -0.00000000000E+00  0.00000000000E+00  0.62232470179E+02  0.62232470179E+02  0.00000000000E+00 0.  1.
          2   -1    0    0  501    0  0.00000000000E+00 -0.00000000000E+00 -0.44163780350E+03  0.44163780350E+03  0.00000000000E+00 0. -1.
         25    2    1    2    0    0  0.98709171282E+02 -0.30391975820E+02 -0.30845326288E+03  0.34850936198E+03  0.12509271490E+03 0.  0.
          5    1    3    3  502    0  0.86144330285E+02 -0.22201040013E+02 -0.31800682183E+03  0.33024164326E+03  0.41800000000E+01 0.  1.
         -5    1    3    3    0  502  0.12564840998E+02 -0.81909358067E+01  0.95535589472E+01  0.18267718720E+02  0.41800000000E+01 0.  1.
        -11    1    1    2    0    0 -0.53135797199E+02  0.55999639134E+02 -0.68209191677E+02  0.10301391341E+03  0.00000000000E+00 0.  1.
         11    1    1    2    0    0 -0.45573374084E+02 -0.25607663315E+02 -0.27428787701E+01  0.52346998288E+02  0.00000000000E+00 0. -1.
</event>
<event>
 7    1  0.2440960E-009  0.1199421E+03  0.7561462E-02  0.1243193E+00
          2   -1    0    0  501    0  0.00000000000E+00  0.00000000000E+00  0.30423539685E+03  0.30423539685E+03  0.00000000000E+00 0. -1.
         -2   -1    0    0    0  501 -0.00000000000E+00 -0.00000000000E+00 -0.58715469244E+02  0.58715469244E+02  0.00000000000E+00 0.  1.
         25    2    1    2    0    0  0.44294165503E+02  0.56621736402E+02  0.17655657301E+03  0.22800817685E+03  0.12509001202E+03 0.  0.
          5    1    3    3  502    0 -0.38930652828E+02  0.31555447612E+02  0.10074302139E+03  0.11259649534E+03  0.41800000000E+01 0. -1.
         -5    1    3    3    0  502  0.83224818331E+02  0.25066288790E+02  0.75813551620E+02  0.11541168151E+03  0.41800000000E+01 0. -1.
        -11    1    1    2    0    0 -0.59400301662E+02 -0.19529593898E+02  0.94947769612E+01  0.63245171080E+02  0.00000000000E+00 0.  1.
         11    1    1    2    0    0  0.15106136159E+02 -0.37092142504E+02  0.59468577633E+02  0.71697518164E+02  0.00000000000E+00 0. -1.
</event>
<event>
 7    1  0.2440960E-009  0.9254712E+02  0.7561462E-02  0.1296798E+00
          1   -1    0    0  501    0  0.00000000000E+00  0.00000000000E+00  0.30875659064E+03  0.30875659064E+03  0.00000000000E+00 0. -1.
         -1   -1    0    0    0  501 -0.00000000000E+00 -0.00000000000E+00 -0.42390775225E+02  0.42390775225E+02  0.00000000000E+00 0.  1.
         25    2    1    2    0    0  0.85727586639E+01 -0.33055437758E+02  0.15213414569E+03  0.19989899914E+03  0.12509459387E+03 0.  0.
          5    1    3    3  502    0  0.33792271503E+02  0.25229388010E+02  0.12263447188E+03  0.12975024365E+03  0.41800000000E+01 0. -1.
         -5    1    3    3    0  502 -0.25219512839E+02 -0.58284825768E+02  0.29499673811E+02  0.70148755495E+02  0.41800000000E+01 0. -1.
        -11    1    1    2    0    0  0.26554696612E+02 -0.52815378423E+01  0.89809410996E+02  0.93801795599E+02  0.00000000000E+00 0. -1.
         11    1    1    2    0    0 -0.35127455276E+02  0.38336975600E+02  0.24422258720E+02  0.57446571119E+02  0.00000000000E+00 0.  1.
</event>
<event>
 7    1  0.2440960E-009  0.1070941E+03  0.7561462E-02  0.1266048E+00
          1   -1    0    0  501    0  0.00000000000E+00  0.00000000000E+00  0.60403259088E+03  0.60403259088E+03  0.00000000000E+00 0. -1.
         -1   -1    0    0    0  501 -0.00000000000E+00 -0.00000000000E+00 -0.35422691886E+02  0.35422691886E+02  0.00000000000E+00 0.  1.
         25    2    1    2    0    0 -0.15969803517E+02  0.57581431014E+02  0.13983521450E+03  0.19690811200E+03  0.12509301153E+03 0.  0.
          5    1    3    3  502    0 -0.42947997197E+02 -0.11720465968E+01  0.41318424223E+00  0.43168822983E+02  0.41800000000E+01 0. -1.
         -5    1    3    3    0  502  0.26978193680E+02  0.58753477610E+02  0.13942203026E+03  0.15373928901E+03  0.41800000000E+01 0. -1.
        -11    1    1    2    0    0  0.52519215656E+02 -0.37490848522E+02  0.31050318449E+03  0.31713728780E+03  0.00000000000E+00 0. -1.
         11    1    1    2    0    0 -0.36549412139E+02 -0.20090582492E+02  0.11827150000E+03  0.12540988296E+03  0.00000000000E+00 0.  1.
</event>
<event>
 7    1  0.2440960E-009  0.9905630E+02  0.7561462E-02  0.1282293E+00
         -2   -1    0    0    0  501 -0.00000000000E+00  0.00000000000E+00  0.56891490754E+02  0.56891490754E+02  0.00000000000E+00 0.  1.
          2   -1    0    0  501    0  0.00000000000E+00 -0.00000000000E+00 -0.23046522131E+03  0.23046522131E+03  0.00000000000E+00 0. -1.
         25    2    1    2    0    0 -0.21074474941E+02 -0.53082695699E+00 -0.62158315513E+02  0.14126715960E+03  0.12509332086E+03 0.  0.
          5    1    3    3  502    0 -0.42273202411E+02 -0.43837625206E+02 -0.69293627682E+02  0.92346306169E+02  0.41800000000E+01 0. -1.
         -5    1    3    3    0  502  0.21198727470E+02  0.43306798249E+02  0.71353121686E+01  0.48920853433E+02  0.41800000000E+01 0. -1.
        -11    1    1    2    0    0 -0.29081843576E+02  0.19537458689E+02 -0.70162135266E+02  0.78423154380E+02  0.00000000000E+00 0.  1.
         11    1    1    2    0    0  0.50156318517E+02 -0.19006631732E+02 -0.41253279775E+02  0.67666398080E+02  0.00000000000E+00 0. -1.
</event>
<event>
 7    1  0.2920818E-009  0.1120374E+03  0.7561462E-02  0.1256843E+00
         -4   -1    0    0    0  501 -0.00000000000E+00  0.00000000000E+00  0.56398123827E+02  0.56398123827E+02  0.00000000000E+00 0.  1.
          4   -1    0    0  501    0  0.00000000000E+00 -0.00000000000E+00 -0.31780976008E+03  0.31780976008E+03  0.00000000000E+00 0. -1.
         25    2    1    2    0    0 -0.47125330635E+00  0.77163904656E+02 -0.16412339637E+03  0.22031299138E+03  0.12508730820E+03 0.  0.
          5    1    3    3  502    0 -0.14566756830E+02 -0.32430893898E+02 -0.49042186441E+02  0.60717062960E+02  0.41800000000E+01 0. -1.
         -5    1    3    3    0  502  0.14095503524E+02  0.10959479855E+03 -0.11508120993E+03  0.15959592842E+03  0.41800000000E+01 0. -1.
        -11    1    1    2    0    0 -0.30400083693E+01 -0.10150027999E+02  0.17774802180E+02  0.20693194819E+02  0.00000000000E+00 0.  1.
         11    1    1    2    0    0  0.35112616756E+01 -0.67013876657E+02 -0.11506304207E+03  0.13320169771E+03  0.00000000000E+00 0. -1.
</event>
<event>
 7    1  0.2440960E-009  0.1455348E+03  0.7561462E-02  0.1206070E+00
         -2   -1    0    0    0  501 -0.00000000000E+00  0.00000000000E+00  0.31614415190E+02  0.31614415190E+02  0.00000000000E+00 0.  1.
          2   -1    0    0  501    0  0.00000000000E+00 -0.00000000000E+00 -0.71887486959E+03  0.71887486959E+03  0.00000000000E+00 0. -1.
         25    2    1    2    0    0 -0.80564522692E+02 -0.59273887621E+02 -0.29972644492E+03  0.33983419311E+03  0.12508917202E+03 0.  0.
          5    1    3    3  502    0  0.30634243592E+02 -0.22275917490E+02 -0.11384894041E+03  0.12005718226E+03  0.41800000000E+01 0.  1.
         -5    1    3    3    0  502 -0.11119876628E+03 -0.36997970131E+02 -0.18587750451E+03  0.21977701085E+03  0.41800000000E+01 0.  1.
        -11    1    1    2    0    0  0.82111414610E+02  0.80160587556E+02 -0.32036372561E+03  0.34029534363E+03  0.00000000000E+00 0.  1.
         11    1    1    2    0    0 -0.15468919186E+01 -0.20886699935E+02 -0.67170283867E+02  0.70359748035E+02  0.00000000000E+00 0. -1.
</event>
<event>
 7    1  0.2440960E-009  0.2682273E+03  0.7561462E-02  0.1102298E+00
         -2   -1    0    0    0  501 -0.00000000000E+00  0.00000000000E+00  0.24228842662E+03  0.24228842662E+03  0.00000000000E+00 0.  1.
          2   -1    0    0  501    0  0.00000000000E+00 -0.00000000000E+00 -0.36794932280E+03  0.36794932280E+03  0.00000000000E+00 0. -1.
         25    2    1    2    0    0  0.79739345642E+02 -0.23923054924E+03  0.55589586206E+02  0.28692841810E+03  0.12509235021E+03 0.  0.
          5    1    3    3  502    0  0.10126704281E+03 -0.19782169097E+03  0.77238254378E+02  0.23531182656E+03  0.41800000000E+01 0. -1.
         -5    1    3    3    0  502 -0.21527697163E+02 -0.41408858272E+02 -0.21648668172E+02  0.51616591539E+02  0.41800000000E+01 0. -1.
        -11    1    1    2    0    0 -0.25637578436E+02  0.19707737340E+03 -0.12686685824E+03  0.23577950770E+03  0.00000000000E+00 0. -1.
         11    1    1    2    0    0 -0.54101767207E+02  0.42153175845E+02 -0.54383624143E+02  0.87529823624E+02  0.00000000000E+00 0.  1.
</event>
<event>
 7    1  0.2440960E-009  0.1187286E+03  0.7561462E-02  0.1245209E+00
          2   -1    0    0  501    0  0.00000000000E+00  0.00000000000E+00  0.16514602642E+02  0.16514602642E+02  0.00000000000E+00 0. -1.
         -2   -1    0    0    0  501 -0.00000000000E+00 -0.00000000000E+00 -0.88496556466E+03  0.88496556466E+03  0.00000000000E+00 0.  1.
         25    2    1    2    0    0 -0.19945348562E+02  0.44335426290E+02 -0.56359980557E+03  0.57935869888E+03  0.12509322197E+03 0.  0.
          5    1    3    3  502    0 -0.16223053716E+02 -0.43279031602E+02 -0.19761950108E+03  0.20299557053E+03  0.41800000000E+01 0. -1.
         -5    1    3    3    0  502 -0.37222948462E+01  0.87614457892E+02 -0.36598030449E+03  0.37636312835E+03  0.41800000000E+01 0. -1.
        -11    1    1    2    0    0  0.11352422600E+02  0.28103055201E+02 -0.10865702869E+03  0.11280518204E+03  0.00000000000E+00 0.  1.
         11    1    1    2    0    0  0.85929259621E+01 -0.72438481490E+02 -0.19619412776E+03  0.20931628638E+03  0.00000000000E+00 0. -1.
</event>
<event>
 7    1  0.2440960E-009  0.1777976E+03  0.7561462E-02  0.1169952E+00
          1   -1    0    0  501    0  0.00000000000E+00  0.00000000000E+00  0.18961242328E+03  0.18961242328E+03  0.00000000000E+00 0. -1.
         -1   -1    0    0    0  501 -0.00000000000E+00 -0.00000000000E+00 -0.19637628822E+03  0.19637628822E+03  0.00000000000E+00 0.  1.
         25    2    1    2    0    0  0.62767888567E+02 -0.14399814948E+03 -0.29726052645E+02  0.20298729062E+03  0.12507968284E+03 0.  0.
          5    1    3    3  502    0 -0.18984967066E+01  0.14766790576E+02 -0.27433286095E+02  0.31491585855E+02  0.41800000000E+01 0.  1.
         -5    1    3    3    0  502  0.64666385273E+02 -0.15876494005E+03 -0.22927665497E+01  0.17149570477E+03  0.41800000000E+01 0.  1.
        -11    1    1    2    0    0 -0.52587787717E+02  0.45240171702E+02 -0.23692997012E+02  0.73304206292E+02  0.00000000000E+00 0.  1.
         11    1    1    2    0    0 -0.10180100849E+02  0.98757977776E+02  0.46655184713E+02  0.10969721459E+03  0.00000000000E+00 0. -1.
</event>
<event>
 7    1  0.2440960E-009  0.1167325E+03  0.7561462E-02  0.1248587E+00
         -2   -1    0    0    0  501 -0.00000000000E+00  0.00000000000E+00  0.10268607723E+02  0.10268607723E+02  0.00000000000E+00 0.  1.
          2   -1    0    0  501    0  0.00000000000E+00 -0.00000000000E+00 -0.19322457667E+04  0.19322457667E+04  0.00000000000E+00 0. -1.
         25    2    1    2    0    0 -0.55445756330E+02  0.10772534620E+02 -0.15598178392E+04  0.15658442195E+04  0.12508456695E+03 0.  0.
          5    1    3    3  502    0 -0.74697321744E+02  0.48607577845E+02 -0.12381649517E+04  0.12413751675E+04  0.41800000000E+01 0. -1.
         -5    1    3    3    0  502  0.19251565414E+02 -0.37835043225E+02 -0.32165288749E+03  0.32446905198E+03  0.41800000000E+01 0. -1.
        -11    1    1    2    0    0  0.33901127113E+02  0.36393258304E+02 -0.14105729479E+03  0.14956910136E+03  0.00000000000E+00 0. -1.
         11    1    1    2    0    0  0.21544629217E+02 -0.47165792924E+02 -0.22110202503E+03  0.22710105360E+03  0.00000000000E+00 0.  1.
</event>
<event>
 7    1  0.2440960E-009  0.1870866E+03  0.7561462E-02  0.1161116E+00
          2   -1    0    0  501    0  0.00000000000E+00  0.00000000000E+00  0.46196347650E+02  0.46196347650E+02  0.00000000000E+00 0.  1.
         -2   -1    0    0    0  501 -0.00000000000E+00 -0.00000000000E+00 -0.86477206893E+03  0.86477206893E+03  0.00000000000E+00 0. -1.
         25    2    1    2    0    0  0.98100848580E+02 -0.11794517557E+03 -0.27688172806E+03  0.34036190417E+03  0.12509154065E+03 0.  0.
          5    1    3    3  502    0  0.28170716560E+01 -0.97183183090E+02 -0.16786774866E+03  0.19403494636E+03  0.41800000000E+01 0.  1.
         -5    1    3    3    0  502  0.95283776924E+02 -0.20761992478E+02 -0.10901397940E+03  0.14632695781E+03  0.41800000000E+01 0.  1.
        -11    1    1    2    0    0 -0.44151835119E+02 -0.55367864146E+01 -0.12722584169E+03  0.13478299352E+03  0.00000000000E+00 0.  1.
         11    1    1    2    0    0 -0.53949013461E+02  0.12348196198E+03 -0.41446815153E+03  0.43582351889E+03  0.00000000000E+00 0. -1.
</event>
<event>
 7    1  0.2440960E-009  0.9724018E+02  0.7561462E-02  0.1286209E+00
          2   -1    0    0  501    0  0.00000000000E+00  0.00000000000E+00  0.40425832160E+03  0.40425832160E+03  0.00000000000E+00 0. -1.
         -2   -1    0    0    0  501 -0.00000000000E+00 -0.00000000000E+00 -0.39129810246E+02  0.39129810246E+02  0.00000000000E+00 0.  1.
         25    2    1    2    0    0  0.86982927792E+01  0.25155102000E+02  0.99564484576E+02  0.16208045826E+03  0.12509416017E+03 0.  0.
          5    1    3    3  502    0  0.55376268489E+01 -0.46790176060E+02  0.12326897762E+02  0.48881598739E+02  0.41800000000E+01 0. -1.
         -5    1    3    3    0  502  0.31606659303E+01  0.71945278060E+02  0.87237586814E+02  0.11319885952E+03  0.41800000000E+01 0. -1.
        -11    1    1    2    0    0 -0.37328777992E+02 -0.27428108813E+02  0.23437711940E+03  0.23891080536E+03  0.00000000000E+00 0. -1.
         11    1    1    2    0    0  0.28630485213E+02  0.22730068126E+01  0.31186907384E+02  0.42396868229E+02  0.00000000000E+00 0.  1.
</event>
<event>
 7    1  0.2440960E-009  0.1102477E+03  0.7561462E-02  0.1260112E+00
          2   -1    0    0  501    0  0.00000000000E+00  0.00000000000E+00  0.61710303976E+02  0.61710303976E+02  0.00000000000E+00 0. -1.
         -2   -1    0    0    0  501 -0.00000000000E+00 -0.00000000000E+00 -0.25216591086E+03  0.25216591086E+03  0.00000000000E+00 0.  1.
         25    2    1    2    0    0  0.20660038930E+02  0.39742820613E+02 -0.15766121121E+03  0.20618161645E+03  0.12508985747E+03 0.  0.
          5    1    3    3  502    0  0.29751263087E+02  0.82598668478E+02 -0.11639194548E+03  0.14585004307E+03  0.41800000000E+01 0.  1.
         -5    1    3    3    0  502 -0.90912241576E+01 -0.42855847865E+02 -0.41269265728E+02  0.60331573381E+02  0.41800000000E+01 0.  1.
        -11    1    1    2    0    0  0.17807767189E+02  0.13895522110E+02 -0.34994972676E+02  0.41651533220E+02  0.00000000000E+00 0.  1.
         11    1    1    2    0    0 -0.38467806119E+02 -0.53638342723E+02  0.22005770019E+01  0.66043065168E+02  0.00000000000E+00 0. -1.
</event>
<event>
 7    1  0.2440960E-009  0.8038758E+02  0.7561462E-02  0.1327955E+00
         -1   -1    0    0    0  501 -0.00000000000E+00  0.00000000000E+00  0.42272762861E+02  0.42272762861E+02  0.00000000000E+00 0.  1.
          1   -1    0    0  501    0  0.00000000000E+00 -0.00000000000E+00 -0.24502827713E+03  0.24502827713E+03  0.00000000000E+00 0. -1.
         25    2    1    2    0    0  0.75955208235E+01 -0.13273027851E+01 -0.10467482257E+03  0.16328922368E+03  0.12508836245E+03 0.  0.
          5    1    3    3  502    0 -0.24510412532E+02 -0.31853276159E+02 -0.11120057258E+03  0.11831496637E+03  0.41800000000E+01 0.  1.
         -5    1    3    3    0  502  0.32105933356E+02  0.30525973374E+02  0.65257500114E+01  0.44974257306E+02  0.41800000000E+01 0.  1.
        -11    1    1    2    0    0  0.20218936081E+01 -0.36643031142E+02 -0.45999229086E+02  0.58844956127E+02  0.00000000000E+00 0.  1.
         11    1    1    2    0    0 -0.96174144316E+01  0.37970333927E+02 -0.52081462608E+02  0.65166860184E+02  0.00000000000E+00 0. -1.
</event>
<event>
 7    1  0.2440960E-009  0.1103008E+03  0.7561462E-02  0.1260014E+00
          2   -1    0    0  501    0  0.00000000000E+00  0.00000000000E+00  0.90942499916E+03  0.90942499916E+03  0.00000000000E+00 0. -1.
         -2   -1    0    0    0  501 -0.00000000000E+00 -0.00000000000E+00 -0.17404116437E+02  0.17404116437E+02  0.00000000000E+00 0.  1.
         25    2    1    2    0    0  0.13166027303E+02  0.57551351502E+02  0.42123936763E+03  0.44336898790E+03  0.12509177534E+03 0.  0.
          5    1    3    3  502    0  0.31757932526E+02 -0.16482422837E+02  0.37157739211E+02  0.51753323798E+02  0.41800000000E+01 0.  1.
         -5    1    3    3    0  502 -0.18591905223E+02  0.74033774338E+02  0.38408162842E+03  0.39161566410E+03  0.41800000000E+01 0.  1.
        -11    1    1    2    0    0  0.94048843499E+01  0.22803200849E+02  0.74258551496E+02  0.78248132814E+02  0.00000000000E+00 0.  1.
         11    1    1    2    0    0 -0.22570911653E+02 -0.80354552351E+02  0.39652296360E+03  0.40521199488E+03  0.00000000000E+00 0. -1.
</event>
<event>
 7    1  0.2440960E-009  0.2781006E+03  0.7561462E-02  0.1096731E+00
          2   -1    0    0  501    0  0.00000000000E+00  0.00000000000E+00  0.56813457795E+03  0.56813457795E+03  0.00000000000E+00 0. -1.
         -2   -1    0    0    0  501 -0.00000000000E+00 -0.00000000000E+00 -0.15900421305E+03  0.15900421305E+03  0.00000000000E+00 0.  1.
         25    2    1    2    0    0 -0.30526802705E+02  0.27384905232E+03  0.14957223949E+03  0.33755944979E+03  0.12509731485E+03 0.  0.
          5    1    3    3  502    0 -0.11881285122E+02  0.18803774266E+03  0.32638446281E+02  0.19126447181E+03  0.41800000000E+01 0. -1.
         -5    1    3    3    0  502 -0.18645517583E+02  0.85811309658E+02  0.11693379320E+03  0.14629497799E+03  0.41800000000E+01 0. -1.
        -11    1    1    2    0    0  0.42952026589E+02 -0.17461229328E+03  0.21445869171E+03  0.27986936239E+03  0.00000000000E+00 0.  1.
         11    1    1    2    0    0 -0.12425223885E+02 -0.99236759035E+02  0.45099433695E+02  0.10970997882E+03  0.00000000000E+00 0. -1.
</event>
<event>
 7    1  0.2440960E-009  0.6510001E+02  0.7561462E-02  0.1377596E+00
         -1   -1    0    0    0  501 -0.00000000000E+00  0.00000000000E+00  0.10270308098E+03  0.10270308098E+03  0.00000000000E+00 0.  1.
          1   -1    0    0  501    0  0.00000000000E+00 -0.00000000000E+00 -0.11238411760E+03  0.11238411760E+03  0.00000000000E+00 0. -1.
         25    2    1    2    0    0 -0.29714913505E+02 -0.17864643658E+02 -0.19609831626E+01  0.12982164146E+03  0.12509073331E+03 0.  0.
          5    1    3    3  502    0  0.12969826409E+02  0.16689473673E+01 -0.56267103780E+02  0.57917710160E+02  0.41800000000E+01 0. -1.
         -5    1    3    3    0  502 -0.42684739914E+02 -0.19533591025E+02  0.54306120618E+02  0.71903931300E+02  0.41800000000E+01 0. -1.
        -11    1    1    2    0    0  0.15999237423E+02  0.40125019845E+02  0.19612371029E+02  0.47440888621E+02  0.00000000000E+00 0.  1.
         11    1    1    2    0    0  0.13715676083E+02 -0.22260376188E+02 -0.27332424493E+02  0.37824668499E+02  0.00000000000E+00 0. -1.
</event>
<event>
 7    1  0.2440960E-009  0.1079328E+03  0.7561462E-02  0.1264447E+00
         -2   -1    0    0    0  501 -0.00000000000E+00  0.00000000000E+00  0.16968887159E+02  0.16968887159E+02  0.00000000000E+00 0.  1.
          2   -1    0    0  501    0  0.00000000000E+00 -0.00000000000E+00 -0.98247996147E+03  0.98247996147E+03  0.00000000000E+00 0. -1.
         25    2    1    2    0    0  0.13800329218E+02  0.29809487116E+02 -0.77683116562E+03  0.78752395031E+03  0.12509299671E+03 0.  0.
          5    1    3    3  502    0 -0.35297387119E+02  0.59097736497E+02 -0.33790717309E+03  0.34487269828E+03  0.41800000000E+01 0.  1.
         -5    1    3    3    0  502  0.49097716337E+02 -0.29288249381E+02 -0.43892399253E+03  0.44265125203E+03  0.41800000000E+01 0.  1.
        -11    1    1    2    0    0 -0.47518623209E+02 -0.51299392405E+01 -0.13911775064E+03  0.14709889316E+03  0.00000000000E+00 0. -1.
         11    1    1    2    0    0  0.33718293991E+02 -0.24679547875E+02 -0.49562158051E+02  0.64826005149E+02  0.00000000000E+00 0.  1.
</event>
<event>
 7    1  0.2440960E-009  0.1738803E+03  0.7561462E-02  0.1173861E+00
         -2   -1    0    0    0  501 -0.00000000000E+00  0.00000000000E+00  0.26880041369E+02  0.26880041369E+02  0.00000000000E+00 0. -1.
          2   -1    0    0  501    0  0.00000000000E+00 -0.00000000000E+00 -0.15896949003E+04  0.15896949003E+04  0.00000000000E+00 0.  1.
         25    2    1    2    0    0  0.16254247696E+03  0.42942324921E+02 -0.64165339735E+03  0.67500262243E+03  0.12508140499E+03 0.  0.
          5    1    3    3  502    0  0.11977841406E+03  0.32696110101E+02 -0.23372810693E+03  0.26469266038E+03  0.41800000000E+01 0.  1.
         -5    1    3    3    0  502  0.42764062899E+02  0.10246214820E+02 -0.40792529043E+03  0.41030996206E+03  0.41800000000E+01 0.  1.
        -11    1    1    2    0    0 -0.14762092886E+03 -0.57581090817E+02 -0.89034668854E+03  0.90433663337E+03  0.00000000000E+00 0.  1.
         11    1    1    2    0    0 -0.14921548100E+02  0.14638765896E+02 -0.30814773038E+02  0.37235685868E+02  0.00000000000E+00 0. -1.
</event>
<event>
 7    1  0.2440960E-009  0.1079344E+03  0.7561462E-02  0.1264443E+00
         -1   -1    0    0    0  501 -0.00000000000E+00  0.00000000000E+00  0.11833201928E+03  0.11833201928E+03  0.00000000000E+00 0.  1.
          1   -1    0    0  501    0  0.00000000000E+00 -0.00000000000E+00 -0.13594584340E+03  0.13594584340E+03  0.00000000000E+00 0. -1.
         25    2    1    2    0    0 -0.25548440827E+02 -0.37042382172E+02  0.39623242980E+02  0.13871758241E+03  0.12509078854E+03 0.  0.
          5    1    3    3  502    0  0.17557966994E+02 -0.64487492346E+02 -0.95896667655E+01  0.67648747089E+02  0.41800000000E+01 0. -1.
         -5    1    3    3    0  502 -0.43106407821E+02  0.27445110174E+02  0.49212909745E+02  0.71068835317E+02  0.41800000000E+01 0. -1.
        -11    1    1    2    0    0  0.10305993771E+02  0.64987187498E+02 -0.25376405530E+02  0.70523116807E+02  0.00000000000E+00 0.  1.
         11    1    1    2    0    0  0.15242447056E+02 -0.27944805326E+02 -0.31860661568E+02  0.45037163460E+02  0.00000000000E+00 0. -1.
</event>
<event>
 7    1  0.2440960E-009  0.1449174E+03  0.7561462E-02  0.1206861E+00
          1   -1    0    0  501    0  0.00000000000E+00  0.00000000000E+00  0.16612492128E+03  0.16612492128E+03  0.00000000000E+00 0. -1.
         -1   -1    0    0    0  501 -0.00000000000E+00 -0.00000000000E+00 -0.18362976112E+03  0.18362976112E+03  0.00000000000E+00 0.  1.
         25    2    1    2    0    0 -0.12618097447E+03  0.67515853533E+02 -0.14897088446E+02  0.19065293932E+03  0.12508633510E+03 0.  0.
          5    1    3    3  502    0 -0.79579623040E+02  0.30311147136E+02  0.52844222712E+02  0.10030785771E+03  0.41800000000E+01 0. -1.
         -5    1    3    3    0  502 -0.46601351432E+02  0.37204706397E+02 -0.67741311159E+02  0.90345081609E+02  0.41800000000E+01 0. -1.
        -11    1    1    2    0    0  0.61067880511E+02 -0.20248606306E+02  0.31591002000E+02  0.71674845621E+02  0.00000000000E+00 0. -1.
         11    1    1    2    0    0  0.65113093962E+02 -0.47267247227E+02 -0.34198753400E+02  0.87426897462E+02  0.00000000000E+00 0.  1.
</event>
<event>
 7    1  0.2440960E-009  0.1027539E+03  0.7561462E-02  0.1274609E+00
          2   -1    0    0  501    0  0.00000000000E+00  0.00000000000E+00  0.29324047532E+03  0.29324047532E+03  0.00000000000E+00 0. -1.
         -2   -1    0    0    0  501 -0.00000000000E+00 -0.00000000000E+00 -0.51481161757E+02  0.51481161757E+02  0.00000000000E+00 0.  1.
         25    2    1    2    0    0 -0.44634537312E+01  0.53284343095E+02  0.10687591729E+03  0.17300193973E+03  0.12509222923E+03 0.  0.
          5    1    3    3  502    0 -0.54990775390E+02  0.63177283626E+02  0.73403293353E+02  0.11144895881E+03  0.41800000000E+01 0.  1.
         -5    1    3    3    0  502  0.50527321659E+02 -0.98929405314E+01  0.33472623939E+02  0.61552980917E+02  0.41800000000E+01 0.  1.
        -11    1    1    2    0    0 -0.16190148070E+02 -0.44845600716E+02  0.14078659430E+03  0.14864088916E+03  0.00000000000E+00 0. -1.
         11    1    1    2    0    0  0.20653601801E+02 -0.84387423786E+01 -0.59031980275E+01  0.23078808185E+02  0.00000000000E+00 0.  1.
</event>
<event>
 7    1  0.2440960E-009  0.1278339E+03  0.7561462E-02  0.1230706E+00
          2   -1    0    0  501    0  0.00000000000E+00  0.00000000000E+00  0.34366398103E+03  0.34366398103E+03  0.00000000000E+00 0. -1.
         -2   -1    0    0    0  501 -0.00000000000E+00 -0.00000000000E+00 -0.61710144970E+02  0.61710144970E+02  0.00000000000E+00 0.  1.
         25    2    1    2    0    0 -0.57550847941E+02  0.67569841866E+02  0.21114613571E+03  0.26097472187E+03  0.12508929292E+03 0.  0.
          5    1    3    3  502    0  0.27597818334E+02  0.48514586499E+02  0.13086745811E+03  0.14233435520E+03  0.41800000000E+01 0.  1.
         -5    1    3    3    0  502 -0.85148666275E+02  0.19055255367E+02  0.80278677603E+02  0.11864036667E+03  0.41800000000E+01 0.  1.
        -11    1    1    2    0    0 -0.15719614936E+02 -0.17899728378E+02 -0.87535788731E+01  0.25379750054E+02  0.00000000000E+00 0.  1.
         11    1    1    2    0    0  0.73270462877E+02 -0.49670113488E+02  0.79561279220E+02  0.11901965407E+03  0.00000000000E+00 0. -1.
</event>
<event>
 7    1  0.2440960E-009  0.9290333E+02  0.7561462E-02  0.1295969E+00
         -1   -1    0    0    0  501 -0.00000000000E+00  0.00000000000E+00  0.49663317288E+02  0.49663317288E+02  0.00000000000E+00 0.  1.
          1   -1    0    0  501    0  0.00000000000E+00 -0.00000000000E+00 -0.24861242295E+03  0.24861242295E+03  0.00000000000E+00 0. -1.
         25    2    1    2    0    0 -0.25660387748E+02 -0.10008077942E+02 -0.92028940872E+02  0.15772385917E+03  0.12509545424E+03 0.  0.
          5    1    3    3  502    0 -0.13027464350E+02 -0.57347955152E+02 -0.68293544398E+01  0.59351623984E+02  0.41800000000E+01 0.  1.
         -5    1    3    3    0  502 -0.12632923398E+02  0.47339877209E+02 -0.85199586432E+02  0.98372235188E+02  0.41800000000E+01 0.  1.
        -11    1    1    2    0    0  0.50810993648E+02  0.12718432347E+02 -0.10216950988E+03  0.11481343278E+03  0.00000000000E+00 0. -1.
         11    1    1    2    0    0 -0.25150605900E+02 -0.27103544046E+01 -0.47506549078E+01  0.25738448286E+02  0.00000000000E+00 0.  1.
</event>
<event>
 7    1  0.2440960E-009  0.1080820E+03  0.7561462E-02  0.1264163E+00
         -2   -1    0    0    0  501 -0.00000000000E+00  0.00000000000E+00  0.50056118460E+03  0.50056118460E+03  0.00000000000E+00 0.  1.
          2   -1    0    0  501    0  0.00000000000E+00 -0.00000000000E+00 -0.54183958599E+02  0.54183958599E+02  0.00000000000E+00 0. -1.
         25    2    1    2    0    0 -0.81953101432E+02 -0.20420974526E+02  0.11322054117E+03  0.18867396320E+03  0.12508255839E+03 0.  0.
          5    1    3    3  502    0 -0.75245588290E+01 -0.13777181402E+02 -0.25973501965E+02  0.30635354042E+02  0.41800000000E+01 0.  1.
         -5    1    3    3    0  502 -0.74428542603E+02 -0.66437931238E+01  0.13919404313E+03  0.15803860916E+03  0.41800000000E+01 0.  1.
        -11    1    1    2    0    0  0.55513721996E+02  0.57247077186E+02  0.96848436135E+02  0.12545365980E+03  0.00000000000E+00 0. -1.
         11    1    1    2    0    0  0.26439379437E+02 -0.36826102660E+02  0.23630824870E+03  0.24061752019E+03  0.00000000000E+00 0.  1.
</event>
<event>
 7    1  0.2440960E-009  0.8225826E+02  0.7561462E-02  0.1322762E+00
          2   -1    0    0  501    0  0.00000000000E+00  0.00000000000E+00  0.15179568327E+03  0.15179568327E+03  0.00000000000E+00 0.  1.
         -2   -1    0    0    0  501 -0.00000000000E+00 -0.00000000000E+00 -0.10160050875E+03  0.10160050875E+03  0.00000000000E+00 0. -1.
         25    2    1    2    0    0 -0.37518573141E+02 -0.84812701154E+01  0.74796413688E+02  0.15073974589E+03  0.12509353388E+03 0.  0.
          5    1    3    3  502    0 -0.47572778786E+02 -0.17424052236E+02  0.10541631704E+03  0.11703349596E+03  0.41800000000E+01 0. -1.
         -5    1    3    3    0  502  0.10054205644E+02  0.89427821209E+01 -0.30619903354E+02  0.33706249934E+02  0.41800000000E+01 0. -1.
        -11    1    1    2    0    0  0.14245399586E+02  0.50002460736E+02 -0.10865032741E+02  0.53115218398E+02  0.00000000000E+00 0.  1.
         11    1    1    2    0    0  0.23273173556E+02 -0.41521190621E+02 -0.13736206434E+02  0.49541227731E+02  0.00000000000E+00 0. -1.
</event>
<event>
 7    1  0.2440960E-009  0.1315413E+03  0.7561462E-02  0.1225186E+00
          1   -1    0    0  501    0  0.00000000000E+00  0.00000000000E+00  0.14316704106E+04  0.14316704106E+04  0.00000000000E+00 0. -1.
         -1   -1    0    0    0  501 -0.00000000000E+00 -0.00000000000E+00 -0.13740402423E+02  0.13740402423E+02  0.00000000000E+00 0.  1.
         25    2    1    2    0    0 -0.89198786845E+02 -0.44513740105E+01  0.83500471679E+03  0.84903261187E+03  0.12508901093E+03 0.  0.
          5    1    3    3  502    0 -0.41014380254E+02 -0.54046771393E+02  0.22328362223E+03  0.23340154507E+03  0.41800000000E+01 0.  1.
         -5    1    3    3    0  502 -0.48184406591E+02  0.49595397383E+02  0.61172109456E+03  0.61563106680E+03  0.41800000000E+01 0.  1.
        -11    1    1    2    0    0  0.28818554041E+02 -0.41100412946E+02  0.21970621870E+03  0.22536764527E+03  0.00000000000E+00 0.  1.
         11    1    1    2    0    0  0.60380232804E+02  0.45551786956E+02  0.36321907272E+03  0.37101055591E+03  0.00000000000E+00 0. -1.
</event>
<event>
 7    1  0.2440960E-009  0.1383130E+03  0.7561462E-02  0.1215617E+00
         -1   -1    0    0    0  501 -0.00000000000E+00  0.00000000000E+00  0.19191204143E+02  0.19191204143E+02  0.00000000000E+00 0.  1.
          1   -1    0    0  501    0  0.00000000000E+00 -0.00000000000E+00 -0.10467083074E+04  0.10467083074E+04  0.00000000000E+00 0. -1.
         25    2    1    2    0    0  0.88844114861E+02 -0.19327960825E+02 -0.58055523312E+03  0.60079827044E+03  0.12508931308E+03 0.  0.
          5    1    3    3  502    0  0.86030590178E+02 -0.61394567430E+02 -0.48290171613E+03  0.49435017467E+03  0.41800000000E+01 0.  1.
         -5    1    3    3    0  502  0.28135246836E+01  0.42066606605E+02 -0.97653516992E+02  0.10644809577E+03  0.41800000000E+01 0.  1.
        -11    1    1    2    0    0 -0.23409202901E+02  0.50755983381E+02 -0.20523074312E+03  0.21270594385E+03  0.00000000000E+00 0.  1.
         11    1    1    2    0    0 -0.65434911960E+02 -0.31428022556E+02 -0.24173112706E+03  0.25239529729E+03  0.00000000000E+00 0. -1.
</event>
<event>
 7    1  0.2440960E-009  0.1074049E+03  0.7561462E-02  0.1265452E+00
         -3   -1    0    0    0  501 -0.00000000000E+00  0.00000000000E+00  0.15017001911E+03  0.15017001911E+03  0.00000000000E+00 0.  1.
          3   -1    0    0  501    0  0.00000000000E+00 -0.00000000000E+00 -0.11011122887E+03  0.11011122887E+03  0.00000000000E+00 0. -1.
         25    2    1    2    0    0 -0.39247872303E+02 -0.54885837374E+02  0.10530955742E+02  0.14251696372E+03  0.12508930128E+03 0.  0.
          5    1    3    3  502    0 -0.23394122779E+02 -0.94325305030E+02 -0.41261488335E+01  0.97360390579E+02  0.41800000000E+01 0. -1.
         -5    1    3    3    0  502 -0.15853749525E+02  0.39439467656E+02  0.14657104576E+02  0.45156573138E+02  0.41800000000E+01 0. -1.
        -11    1    1    2    0    0 -0.14447780333E+01  0.23216419082E+02  0.55391438927E+02  0.60077458376E+02  0.00000000000E+00 0.  1.
         11    1    1    2    0    0  0.40692650336E+02  0.31669418291E+02 -0.25863604431E+02  0.57686825883E+02  0.00000000000E+00 0. -1.
</event>
<event>
 7    1  0.2440960E-009  0.1426314E+03  0.7561462E-02  0.1209831E+00
          1   -1    0    0  501    0  0.00000000000E+00  0.00000000000E+00  0.81472655076E+03  0.81472655076E+03  0.00000000000E+00 0. -1.
         -1   -1    0    0    0  501 -0.00000000000E+00 -0.00000000000E+00 -0.27479436186E+02  0.27479436186E+02  0.00000000000E+00 0.  1.
         25    2    1    2    0    0 -0.68563904075E+01 -0.10186346085E+03  0.45750032824E+03  0.48515692841E+03  0.12509004796E+03 0.  0.
          5    1    3    3  502    0 -0.57167756740E+02 -0.47202119809E+02  0.32321319394E+03  0.33163298036E+03  0.41800000000E+01 0.  1.
         -5    1    3    3    0  502  0.50311366333E+02 -0.54661341044E+02  0.13428713431E+03  0.15352394806E+03  0.41800000000E+01 0.  1.
        -11    1    1    2    0    0  0.46236722044E+02  0.31436785476E+02  0.12285873788E+03  0.13498287084E+03  0.00000000000E+00 0.  1.
         11    1    1    2    0    0 -0.39380331637E+02  0.70426675378E+02  0.20688804846E+03  0.22206618770E+03  0.00000000000E+00 0. -1.
</event>
<event>
 7    1  0.2440960E-009  0.1166222E+03  0.7561462E-02  0.1248776E+00
         -1   -1    0    0    0  501 -0.00000000000E+00  0.00000000000E+00  0.28409916738E+02  0.28409916738E+02  0.00000000000E+00 0.  1.
          1   -1    0    0  501    0  0.00000000000E+00 -0.00000000000E+00 -0.54275996059E+03  0.54275996059E+03  0.00000000000E+00 0. -1.
         25    2    1    2    0    0  0.60291794131E+02 -0.95398197012E+01 -0.27125449190E+03  0.30487861858E+03  0.12508342853E+03 0.  0.
          5    1    3    3  502    0  0.70761837525E+02  0.42912983705E+02 -0.13449424033E+03  0.15797131037E+03  0.41800000000E+01 0.  1.
         -5    1    3    3    0  502 -0.10470043395E+02 -0.52452803406E+02 -0.13676025158E+03  0.14690730821E+03  0.41800000000E+01 0.  1.
        -11    1    1    2    0    0  0.17011912755E+02 -0.56962241556E+01 -0.10668775528E+02  0.20872827228E+02  0.00000000000E+00 0.  1.
         11    1    1    2    0    0 -0.77303706886E+02  0.15236043857E+02 -0.23242677642E+03  0.24541843151E+03  0.00000000000E+00 0. -1.
</event>
<event>
 7    1  0.2440960E-009  0.2577689E+03  0.7561462E-02  0.1108491E+00
         -2   -1    0    0    0  501 -0.00000000000E+00  0.00000000000E+00  0.42943864681E+02  0.42943864681E+02  0.00000000000E+00 0.  1.
          2   -1    0    0  501    0  0.00000000000E+00 -0.00000000000E+00 -0.17850560477E+04  0.17850560477E+04  0.00000000000E+00 0. -1.
         25    2    1    2    0    0 -0.23698079414E+03  0.79333404596E+02 -0.73608388134E+03  0.78735030443E+03  0.12508931065E+03 0.  0.
          5    1    3    3  502    0 -0.12431338608E+03  0.58103682564E+00 -0.48899863932E+03  0.50457040859E+03  0.41800000000E+01 0.  1.
         -5    1    3    3    0  502 -0.11266740806E+03  0.78752367770E+02 -0.24708524202E+03  0.28277989584E+03  0.41800000000E+01 0.  1.
        -11    1    1    2    0    0  0.12130837191E+03 -0.17803789718E+02 -0.32996922892E+03  0.35201191466E+03  0.00000000000E+00 0.  1.
         11    1    1    2    0    0  0.11567242223E+03 -0.61529614878E+02 -0.67605907272E+03  0.68863769326E+03  0.00000000000E+00 0. -1.
</event>
<event>
 7    1  0.2440960E-009  0.1473543E+03  0.7561462E-02  0.1203762E+00
         -1   -1    0    0    0  501 -0.00000000000E+00  0.00000000000E+00  0.22783292769E+02  0.22783292769E+02  0.00000000000E+00 0.  1.
          1   -1    0    0  501    0  0.00000000000E+00 -0.00000000000E+00 -0.13765199845E+04  0.13765199845E+04  0.00000000000E+00 0. -1.
         25    2    1    2    0    0  0.37570724891E+02  0.94669122300E+02 -0.10893449100E+04  0.11012246534E+04  0.12509837056E+03 0.  0.
          5    1    3    3  502    0 -0.22393332364E+02  0.98325890406E+02 -0.65776178991E+03  0.66546035699E+03  0.41800000000E+01 0.  1.
         -5    1    3    3    0  502  0.59964057255E+02 -0.36567681060E+01 -0.43158312008E+03  0.43576429644E+03  0.41800000000E+01 0.  1.
        -11    1    1    2    0    0  0.22557036622E+02 -0.60116151926E+02 -0.16345778357E+03  0.17561668096E+03  0.00000000000E+00 0. -1.
         11    1    1    2    0    0 -0.60127761513E+02 -0.34552970374E+02 -0.10093399819E+03  0.12246194289E+03  0.00000000000E+00 0.  1.
</event>
<event>
 7    1  0.2440960E-009  0.1156371E+03  0.7561462E-02  0.1250473E+00
         -2   -1    0    0    0  501 -0.00000000000E+00  0.00000000000E+00  0.40714697462E+02  0.40714697462E+02  0.00000000000E+00 0.  1.
          2   -1    0    0  501    0  0.00000000000E+00 -0.00000000000E+00 -0.13670440882E+04  0.13670440882E+04  0.00000000000E+00 0. -1.
         25    2    1    2    0    0  0.85366291595E+02  0.27570085291E+02 -0.12480191405E+04  0.12574760973E+04  0.12508735714E+03 0.  0.
          5    1    3    3  502    0  0.31370321766E+02 -0.14262883670E+02 -0.98778054658E+03  0.98839031133E+03  0.41800000000E+01 0.  1.
         -5    1    3    3    0  502  0.53995969829E+02  0.41832968961E+02 -0.26023859388E+03  0.26908578594E+03  0.41800000000E+01 0.  1.
        -11    1    1    2    0    0 -0.31747683111E+02  0.33977035287E+02 -0.31801898954E+02  0.56335735434E+02  0.00000000000E+00 0.  1.
         11    1    1    2    0    0 -0.53618608484E+02 -0.61547120578E+02 -0.46508351332E+02  0.93946952962E+02  0.00000000000E+00 0. -1.
</event>
<event>
 7    1  0.2440960E-009  0.1271709E+03  0.7561462E-02  0.1231715E+00
         -2   -1    0    0    0  501 -0.00000000000E+00  0.00000000000E+00  0.63606777812E+02  0.63606777812E+02  0.00000000000E+00 0.  1.
          2   -1    0    0  501    0  0.00000000000E+00 -0.00000000000E+00 -0.31746128150E+03  0.31746128150E+03  0.00000000000E+00 0. -1.
         25    2    1    2    0    0 -0.88042064659E+02  0.85421144204E+01 -0.10802280621E+03  0.18745887741E+03  0.12509009229E+03 0.  0.
          5    1    3    3  502    0  0.34753859627E+00  0.39684823591E+02  0.53996096448E+01  0.40269519377E+02  0.41800000000E+01 0.  1.
         -5    1    3    3    0  502 -0.88389603256E+02 -0.31142709171E+02 -0.11342241586E+03  0.14718935803E+03  0.41800000000E+01 0.  1.
        -11    1    1    2    0    0  0.26667033786E+02  0.35993959594E+02 -0.86181854025E+02  0.97128820550E+02  0.00000000000E+00 0. -1.
         11    1    1    2    0    0  0.61375030874E+02 -0.44536074014E+02 -0.59649843447E+02  0.96480361352E+02  0.00000000000E+00 0.  1.
</event>
<event>
 7    1  0.2574896E-009  0.9465251E+02  0.7561462E-02  0.1291961E+00
          2   -1    0    0  501    0  0.00000000000E+00  0.00000000000E+00  0.46820500746E+03  0.46820500746E+03  0.00000000000E+00 0.  1.
         -2   -1    0    0    0  501 -0.00000000000E+00 -0.00000000000E+00 -0.58839247754E+02  0.58839247754E+02  0.00000000000E+00 0. -1.
         25    2    1    2    0    0  0.13178725021E+01 -0.58695624417E+02  0.39288786603E+03  0.41647945536E+03  0.12508936145E+03 0.  0.
          5    1    3    3  502    0  0.55885041587E+02 -0.21887811446E+02  0.10390883487E+03  0.12006969862E+03  0.41800000000E+01 0. -1.
         -5    1    3    3    0  502 -0.54567169085E+02 -0.36807812971E+02  0.28897903116E+03  0.29640975673E+03  0.41800000000E+01 0. -1.
        -11    1    1    2    0    0  0.10700024787E+02  0.20188490114E+02  0.52010439465E+02  0.56808022997E+02  0.00000000000E+00 0.  1.
         11    1    1    2    0    0 -0.12017897289E+02  0.38507134302E+02 -0.35532545793E+02  0.53756776856E+02  0.00000000000E+00 0. -1.
</event>
<event>
 7    1  0.2440960E-009  0.1082299E+03  0.7561462E-02  0.1263883E+00
          2   -1    0    0  501    0  0.00000000000E+00  0.00000000000E+00  0.59695057347E+03  0.59695057347E+03  0.00000000000E+00 0. -1.
         -2   -1    0    0    0  501 -0.00000000000E+00 -0.00000000000E+00 -0.31328563224E+02  0.31328563224E+02  0.00000000000E+00 0.  1.
         25    2    1    2    0    0 -0.79406518599E+02 -0.34058035219E+01  0.29067076401E+03  0.32627210790E+03  0.12508797164E+03 0.  0.
          5    1    3    3  502    0 -0.67028938556E+02 -0.33655447102E+02  0.28250939335E+03  0.29232618332E+03  0.41800000000E+01 0. -1.
         -5    1    3    3    0  502 -0.12377580043E+02  0.30249643580E+02  0.81613706587E+01  0.33945924578E+02  0.41800000000E+01 0. -1.
        -11    1    1    2    0    0 -0.77078851464E-01 -0.24236297694E+02  0.14618780883E+03  0.14818326329E+03  0.00000000000E+00 0. -1.
         11    1    1    2    0    0  0.79483597450E+02  0.27642101215E+02  0.12876343741E+03  0.15382376551E+03  0.00000000000E+00 0.  1.
</event>
<event>
 7    1  0.2440960E-009  0.1040221E+03  0.7561462E-02  0.1272058E+00
         -1   -1    0    0    0  501 -0.00000000000E+00  0.00000000000E+00  0.18502469056E+03  0.18502469056E+03  0.00000000000E+00 0.  1.
          1   -1    0    0  501    0  0.00000000000E+00 -0.00000000000E+00 -0.85893439418E+02  0.85893439418E+02  0.00000000000E+00 0. -1.
         25    2    1    2    0    0 -0.50262633968E+02 -0.36785439428E+02  0.68198016215E+02  0.15548657960E+03  0.12508239722E+03 0.  0.
          5    1    3    3  502    0 -0.11055504042E+02 -0.65322792907E+02  0.81417575611E+02  0.10505039486E+03  0.41800000000E+01 0. -1.
         -5    1    3    3    0  502 -0.39207129926E+02  0.28537353479E+02 -0.13219559396E+02  0.50436184741E+02  0.41800000000E+01 0. -1.
        -11    1    1    2    0    0  0.59806161910E+02  0.52456212286E+01 -0.12087920353E+02  0.61240602242E+02  0.00000000000E+00 0. -1.
         11    1    1    2    0    0 -0.95435279415E+01  0.31539818199E+02  0.43021155279E+02  0.54190948129E+02  0.00000000000E+00 0.  1.
</event>
<event>
 7    1  0.2440960E-009  0.1586456E+03  0.7561462E-02  0.1190234E+00
         -1   -1    0    0    0  501 -0.00000000000E+00  0.00000000000E+00  0.19786695310E+03  0.19786695310E+03  0.00000000000E+00 0.  1.
          1   -1    0    0  501    0  0.00000000000E+00 -0.00000000000E+00 -0.14909427697E+03  0.14909427697E+03  0.00000000000E+00 0. -1.
         25    2    1    2    0    0  0.11982596240E+03 -0.53165100090E+02 -0.10750430736E+02  0.18151572246E+03  0.12509035377E+03 0.  0.
          5    1    3    3  502    0  0.13098498709E+03 -0.93202417657E+01 -0.25322659694E+02  0.13380075950E+03  0.41800000000E+01 0.  1.
         -5    1    3    3    0  502 -0.11159024687E+02 -0.43844858324E+02  0.14572228958E+02  0.47714962959E+02  0.41800000000E+01 0.  1.
        -11    1    1    2    0    0 -0.10987224250E+03  0.27960254773E+02  0.73339743276E+02  0.13502741745E+03  0.00000000000E+00 0.  1.
         11    1    1    2    0    0 -0.99537199001E+01  0.25204845316E+02 -0.13816636405E+02  0.30418090157E+02  0.00000000000E+00 0. -1.
</event>
<event>
 7    1  0.2440960E-009  0.9172036E+02  0.7561462E-02  0.1298738E+00
          1   -1    0    0  501    0  0.00000000000E+00  0.00000000000E+00  0.56996805835E+02  0.56996805835E+02  0.00000000000E+00 0. -1.
         -1   -1    0    0    0  501 -0.00000000000E+00 -0.00000000000E+00 -0.34320029646E+03  0.34320029646E+03  0.00000000000E+00 0.  1.
         25    2    1    2    0    0 -0.50580395403E+02  0.29524927542E+02 -0.24840283562E+03  0.28422049929E+03  0.12508887131E+03 0.  0.
          5    1    3    3  502    0 -0.83653173192E+02  0.24773051147E+02 -0.10337318896E+03  0.13533309294E+03  0.41800000000E+01 0. -1.
         -5    1    3    3    0  502  0.33072777788E+02  0.47518763957E+01 -0.14502964665E+03  0.14888740635E+03  0.41800000000E+01 0. -1.
        -11    1    1    2    0    0  0.85332752468E+01 -0.16209496097E+02 -0.62704998652E+02  0.65325962726E+02  0.00000000000E+00 0.  1.
         11    1    1    2    0    0  0.42047120157E+02 -0.13315431445E+02  0.24904343649E+02  0.50650640278E+02  0.00000000000E+00 0. -1.
</event>
<event>
 7    1  0.2440960E-009  0.8816481E+02  0.7561462E-02  0.1307358E+00
         -1   -1    0    0    0  501 -0.00000000000E+00  0.00000000000E+00  0.37955896713E+03  0.37955896713E+03  0.00000000000E+00 0.  1.
          1   -1    0    0  501    0  0.00000000000E+00 -0.00000000000E+00 -0.47619678635E+02  0.47619678635E+02  0.00000000000E+00 0. -1.
         25    2    1    2    0    0 -0.66864088757E+01 -0.27594506675E+02  0.29805777594E+03  0.32448767638E+03  0.12509056503E+03 0.  0.
          5    1    3    3  502    0 -0.40216178330E+02  0.28175969954E+02  0.59916749325E+02  0.77580381103E+02  0.41800000000E+01 0. -1.
         -5    1    3    3    0  502  0.33529769454E+02 -0.55770476629E+02  0.23814102661E+03  0.24690729527E+03  0.41800000000E+01 0. -1.
        -11    1    1    2    0    0  0.13068628473E+02  0.43118372876E+02 -0.17730325214E+02  0.48418463026E+02  0.00000000000E+00 0. -1.
         11    1    1    2    0    0 -0.63822195968E+01 -0.15523866201E+02  0.51611837776E+02  0.54272506367E+02  0.00000000000E+00 0.  1.
</event>
<event>
 7    1  0.2440960E-009  0.9391686E+02  0.7561462E-02  0.1293634E+00
         -4   -1    0    0    0  501 -0.00000000000E+00  0.00000000000E+00  0.16217132486E+03  0.16217132486E+03  0.00000000000E+00 0.  1.
          4   -1    0    0  501    0  0.00000000000E+00 -0.00000000000E+00 -0.80833157802E+02  0.80833157802E+02  0.00000000000E+00 0. -1.
         25    2    1    2    0    0 -0.12153963983E+02  0.34430884640E+02  0.60619243573E+02  0.14371857728E+03  0.12508849710E+03 0.  0.
          5    1    3    3  502    0  0.42577015561E+02  0.56320594079E+02  0.26818767394E+02  0.75640797563E+02  0.41800000000E+01 0.  1.
         -5    1    3    3    0  502 -0.54730979544E+02 -0.21889709439E+02  0.33800476179E+02  0.68077779716E+02  0.41800000000E+01 0.  1.
        -11    1    1    2    0    0 -0.24433547777E-02  0.10991672710E+02  0.45029812968E+02  0.46351924781E+02  0.00000000000E+00 0.  1.
         11    1    1    2    0    0  0.12156407338E+02 -0.45422557349E+02 -0.24310889480E+02  0.52933980606E+02  0.00000000000E+00 0. -1.
</event>
<event>
 7    1  0.2440960E-009  0.1249600E+03  0.7561462E-02  0.1235132E+00
          1   -1    0    0  501    0  0.00000000000E+00  0.00000000000E+00  0.58498211773E+02  0.58498211773E+02  0.00000000000E+00 0. -1.
         -1   -1    0    0    0  501 -0.00000000000E+00 -0.00000000000E+00 -0.43526905166E+03  0.43526905166E+03  0.00000000000E+00 0.  1.
         25    2    1    2    0    0 -0.58275940437E+02 -0.83003114857E+02 -0.25649962899E+03  0.30286315624E+03  0.12509368261E+03 0.  0.
          5    1    3    3  502    0 -0.24670637004E+02 -0.30155949662E+02 -0.40343088927E+00  0.39187457008E+02  0.41800000000E+01 0. -1.
         -5    1    3    3    0  502 -0.33605303432E+02 -0.52847165195E+02 -0.25609619810E+03  0.26367569923E+03  0.41800000000E+01 0. -1.
        -11    1    1    2    0    0 -0.13985816052E+02  0.73810822937E+02 -0.55137017063E+02  0.93186540250E+02  0.00000000000E+00 0.  1.
         11    1    1    2    0    0  0.72261756488E+02  0.91922919204E+01 -0.65134193838E+02  0.97717566939E+02  0.00000000000E+00 0. -1.
</event>
<event>
 7    1  0.2440960E-009  0.2148775E+03  0.7561462E-02  0.1137761E+00
          4   -1    0    0  501    0  0.00000000000E+00  0.00000000000E+00  0.72160095411E+02  0.72160095411E+02  0.00000000000E+00 0. -1.
         -4   -1    0    0    0  501 -0.00000000000E+00 -0.00000000000E+00 -0.11118811175E+04  0.11118811175E+04  0.00000000000E+00 0.  1.
         25    2    1    2    0    0  0.77336733495E+02  0.17905367367E+03 -0.89594279331E+03  0.92541766356E+03  0.12507267778E+03 0.  0.
          5    1    3    3  502    0  0.24791758341E+02  0.17458783450E+03 -0.62791962822E+03  0.65222394554E+03  0.41800000000E+01 0. -1.
         -5    1    3    3    0  502  0.52544975154E+02  0.44658391656E+01 -0.26802316509E+03  0.27319371801E+03  0.41800000000E+01 0. -1.
        -11    1    1    2    0    0 -0.83656344416E+02 -0.16301204731E+03 -0.93972235092E+02  0.20591768379E+03  0.00000000000E+00 0. -1.
         11    1    1    2    0    0  0.63196109215E+01 -0.16041626361E+02 -0.49805993671E+02  0.52705865556E+02  0.00000000000E+00 0.  1.
</event>
<event>
 7    1  0.2440960E-009  0.1631023E+03  0.7561462E-02  0.1185238E+00
          2   -1    0    0  501    0  0.00000000000E+00  0.00000000000E+00  0.21686052272E+03  0.21686052272E+03  0.00000000000E+00 0. -1.
         -2   -1    0    0    0  501 -0.00000000000E+00 -0.00000000000E+00 -0.19625437156E+03  0.19625437156E+03  0.00000000000E+00 0.  1.
         25    2    1    2    0    0  0.12872145099E+03 -0.84833723383E+02 -0.72715076801E+02  0.21142525278E+03  0.12508869873E+03 0.  0.
          5    1    3    3  502    0  0.88379044590E+02 -0.52828811150E+02 -0.10767715700E+03  0.14904221331E+03  0.41800000000E+01 0. -1.
         -5    1    3    3    0  502  0.40342406395E+02 -0.32004912233E+02  0.34962080198E+02  0.62383039462E+02  0.41800000000E+01 0. -1.
        -11    1    1    2    0    0  0.57934420906E+00  0.31687489826E+02 -0.31321017507E+01  0.31847177466E+02  0.00000000000E+00 0.  1.
         11    1    1    2    0    0 -0.12930079519E+03  0.53146233557E+02  0.96453329707E+02  0.16984246404E+03  0.00000000000E+00 0. -1.
</event>
<event>
 7    1  0.2440960E-009  0.5904796E+02  0.7561462E-02  0.1401871E+00
         -3   -1    0    0    0  501 -0.00000000000E+00  0.00000000000E+00  0.13557604273E+03  0.13557604273E+03  0.00000000000E+00 0.  1.
          3   -1    0    0  501    0  0.00000000000E+00 -0.00000000000E+00 -0.12211849653E+03  0.12211849653E+03  0.00000000000E+00 0. -1.
         25    2    1    2    0    0  0.19246778945E+02  0.47818877079E+01  0.73924601671E+02  0.14665271467E+03  0.12509543173E+03 0.  0.
          5    1    3    3  502    0 -0.96456434958E+01  0.35050915831E+02 -0.21451231451E+02  0.42417365192E+02  0.41800000000E+01 0. -1.
         -5    1    3    3    0  502  0.28892422441E+02 -0.30269028123E+02  0.95375833122E+02  0.10423534948E+03  0.41800000000E+01 0. -1.
        -11    1    1    2    0    0  0.95424830064E+01 -0.47518995852E+01  0.21591438922E+02  0.24079654614E+02  0.00000000000E+00 0.  1.
         11    1    1    2    0    0 -0.28789261952E+02 -0.29988122684E-01 -0.82058494401E+02  0.86962169973E+02  0.00000000000E+00 0. -1.
</event>
<event>
 7    1  0.2440960E-009  0.1023362E+03  0.7561462E-02  0.1275459E+00
          2   -1    0    0  501    0  0.00000000000E+00  0.00000000000E+00  0.93382631359E+02  0.93382631359E+02  0.00000000000E+00 0. -1.
         -2   -1    0    0    0  501 -0.00000000000E+00 -0.00000000000E+00 -0.14111172772E+03  0.14111172772E+03  0.00000000000E+00 0.  1.
         25    2    1    2    0    0  0.32770151344E+02 -0.13792131694E+02 -0.40990881851E+02  0.13635071560E+03  0.12508860673E+03 0.  0.
          5    1    3    3  502    0 -0.17694684155E+02  0.43521143497E+02  0.44748714974E+01  0.47378145316E+02  0.41800000000E+01 0. -1.
         -5    1    3    3    0  502  0.50464835499E+02 -0.57313275191E+02 -0.45465753348E+02  0.88972570282E+02  0.41800000000E+01 0. -1.
        -11    1    1    2    0    0 -0.22813179508E+02  0.43813989214E+02 -0.30966021661E+02  0.58300954603E+02  0.00000000000E+00 0.  1.
         11    1    1    2    0    0 -0.99569718361E+01 -0.30021857520E+02  0.24227807156E+02  0.39842688874E+02  0.00000000000E+00 0. -1.
</event>
<event>
 7    1  0.2440960E-009  0.1450133E+03  0.7561462E-02  0.1206738E+00
         -3   -1    0    0    0  501 -0.00000000000E+00  0.00000000000E+00  0.14646675248E+03  0.14646675248E+03  0.00000000000E+00 0.  1.
          3   -1    0    0  501    0  0.00000000000E+00 -0.00000000000E+00 -0.16413394468E+03  0.16413394468E+03  0.00000000000E+00 0. -1.
         25    2    1    2    0    0  0.55630635187E+02 -0.89815745419E+02  0.25106008652E+02  0.16565038138E+03  0.12509237181E+03 0.  0.
          5    1    3    3  502    0  0.75448839311E+02 -0.73614046644E+01  0.27396206263E+02  0.80713952633E+02  0.41800000000E+01 0.  1.
         -5    1    3    3    0  502 -0.19818204124E+02 -0.82454340755E+02 -0.22901976114E+01  0.84936428752E+02  0.41800000000E+01 0.  1.
        -11    1    1    2    0    0  0.11276900849E+02  0.50181911058E+02  0.80364980518E+01  0.52057448949E+02  0.00000000000E+00 0.  1.
         11    1    1    2    0    0 -0.66907536036E+02  0.39633834361E+02 -0.50809698906E+02  0.92892866828E+02  0.00000000000E+00 0. -1.
</event>
<event>
 7    1  0.2440960E-009  0.1384361E+03  0.7561462E-02  0.1215449E+00
         -2   -1    0    0    0  501 -0.00000000000E+00  0.00000000000E+00  0.28147700608E+02  0.28147700608E+02  0.00000000000E+00 0.  1.
          2   -1    0    0  501    0  0.00000000000E+00 -0.00000000000E+00 -0.89042967825E+03  0.89042967825E+03  0.00000000000E+00 0. -1.
         25    2    1    2    0    0 -0.91339569864E+02  0.67433208474E+02 -0.41639311470E+03  0.44935775035E+03  0.12509599195E+03 0.  0.
          5    1    3    3  502    0 -0.97719003901E+02  0.46007547437E+02 -0.16698556536E+03  0.19891543324E+03  0.41800000000E+01 0.  1.
         -5    1    3    3    0  502  0.63794340365E+01  0.21425661037E+02 -0.24940754934E+03  0.25044231710E+03  0.41800000000E+01 0.  1.
        -11    1    1    2    0    0  0.78690237246E+02 -0.90381425867E+02 -0.37155354145E+03  0.39040106269E+03  0.00000000000E+00 0.  1.
         11    1    1    2    0    0  0.12649332619E+02  0.22948217392E+02 -0.74335321495E+02  0.78818565827E+02  0.00000000000E+00 0. -1.
</event>
<event>
 7    1  0.2440960E-009  0.7396500E+02  0.7561462E-02  0.1347106E+00
         -1   -1    0    0    0  501 -0.00000000000E+00  0.00000000000E+00  0.10341738564E+03  0.10341738564E+03  0.00000000000E+00 0.  1.
          1   -1    0    0  501    0  0.00000000000E+00 -0.00000000000E+00 -0.12913225652E+03  0.12913225652E+03  0.00000000000E+00 0. -1.
         25    2    1    2    0    0  0.11112109633E+01 -0.20757130090E+02  0.19596754414E+02  0.12831076078E+03  0.12509006879E+03 0.  0.
          5    1    3    3  502    0 -0.24440946565E+02 -0.76598611007E+01 -0.48101768551E+02  0.54656069003E+02  0.41800000000E+01 0.  1.
         -5    1    3    3    0  502  0.25552157528E+02 -0.13097268990E+02  0.67698522965E+02  0.73654691779E+02  0.41800000000E+01 0.  1.
        -11    1    1    2    0    0  0.35727759815E+02 -0.17558744519E+02 -0.26645965389E+02  0.47903964367E+02  0.00000000000E+00 0.  1.
         11    1    1    2    0    0 -0.36838970779E+02  0.38315874610E+02 -0.18665659907E+02  0.56334917013E+02  0.00000000000E+00 0. -1.
</event>
<event>
 7    1  0.2440960E-009  0.1226348E+03  0.7561462E-02  0.1238813E+00
         -1   -1    0    0    0  501 -0.00000000000E+00  0.00000000000E+00  0.12233970009E+02  0.12233970009E+02  0.00000000000E+00 0.  1.
          1   -1    0    0  501    0  0.00000000000E+00 -0.00000000000E+00 -0.12677016927E+04  0.12677016927E+04  0.00000000000E+00 0. -1.
         25    2    1    2    0    0 -0.60409075505E+02 -0.77363712394E+01 -0.79353740884E+03  0.80564152035E+03  0.12509009646E+03 0.  0.
          5    1    3    3  502    0 -0.53724041923E+02 -0.63099883612E+02 -0.49641745363E+03  0.50330470756E+03  0.41800000000E+01 0.  1.
         -5    1    3    3    0  502 -0.66850335823E+01  0.55363512373E+02 -0.29711995522E+03  0.30233681278E+03  0.41800000000E+01 0.  1.
        -11    1    1    2    0    0  0.13478533813E+02 -0.38316141396E+02 -0.21223333451E+03  0.21608513563E+03  0.00000000000E+00 0. -1.
         11    1    1    2    0    0  0.46930541692E+02  0.46052512635E+02 -0.24969697934E+03  0.25820900673E+03  0.00000000000E+00 0.  1.
</event>
<event>
 7    1  0.2440960E-009  0.1296316E+03  0.7561462E-02  0.1228003E+00
          2   -1    0    0  501    0  0.00000000000E+00  0.00000000000E+00  0.98205252019E+02  0.98205252019E+02  0.00000000000E+00 0. -1.
         -2   -1    0    0    0  501 -0.00000000000E+00 -0.00000000000E+00 -0.21086561215E+03  0.21086561215E+03  0.00000000000E+00 0.  1.
         25    2    1    2    0    0  0.22425951334E+02 -0.77842924615E+02 -0.11257644721E+03  0.18676962713E+03  0.12508794085E+03 0.  0.
          5    1    3    3  502    0 -0.34576930469E+02 -0.77507664612E+02 -0.38719348958E+02  0.93379133525E+02  0.41800000000E+01 0. -1.
         -5    1    3    3    0  502  0.57002881803E+02 -0.33526000313E+00 -0.73857098249E+02  0.93390493600E+02  0.41800000000E+01 0. -1.
        -11    1    1    2    0    0  0.32006617295E+02  0.37961727733E+02 -0.17437033754E+02  0.52626670703E+02  0.00000000000E+00 0.  1.
         11    1    1    2    0    0 -0.54432568629E+02  0.39881196882E+02  0.17353120829E+02  0.69674566342E+02  0.00000000000E+00 0. -1.
</event>
<event>
 7    1  0.2440960E-009  0.9976135E+02  0.7561462E-02  0.1280799E+00
         -2   -1    0    0    0  501 -0.00000000000E+00  0.00000000000E+00  0.54629063418E+02  0.54629063418E+02  0.00000000000E+00 0.  1.
          2   -1    0    0  501    0  0.00000000000E+00 -0.00000000000E+00 -0.24298326129E+03  0.24298326129E+03  0.00000000000E+00 0. -1.
         25    2    1    2    0    0 -0.29450497255E+02  0.26724335903E+02 -0.10671260575E+03  0.16916362662E+03  0.12508889009E+03 0.  0.
          5    1    3    3  502    0  0.25435429297E+02 -0.16304763713E+02 -0.93118108507E+02  0.97986024081E+02  0.41800000000E+01 0.  1.
         -5    1    3    3    0  502 -0.54885926552E+02  0.43029099616E+02 -0.13594497245E+02  0.71177602534E+02  0.41800000000E+01 0.  1.
        -11    1    1    2    0    0  0.52040295851E+02 -0.46001949311E+02 -0.58029380619E+02  0.90508456775E+02  0.00000000000E+00 0.  1.
         11    1    1    2    0    0 -0.22589798596E+02  0.19277613409E+02 -0.23612211502E+02  0.37940241319E+02  0.00000000000E+00 0. -1.
</event>
<event>
 7    1  0.2440960E-009  0.1144164E+03  0.7561462E-02  0.1252603E+00
         -2   -1    0    0    0  501 -0.00000000000E+00  0.00000000000E+00  0.15441309378E+02  0.15441309378E+02  0.00000000000E+00 0.  1.
          2   -1    0    0  501    0  0.00000000000E+00 -0.00000000000E+00 -0.12506408467E+04  0.12506408467E+04  0.00000000000E+00 0. -1.
         25    2    1    2    0    0  0.51174720959E+02 -0.68282153672E+02 -0.74042342108E+03  0.75574922076E+03  0.12509491445E+03 0.  0.
          5    1    3    3  502    0  0.32940837669E+02 -0.86798379180E+02 -0.70759611482E+03  0.71367274820E+03  0.41800000000E+01 0.  1.
         -5    1    3    3    0  502  0.18233883289E+02  0.18516225508E+02 -0.32827306262E+02  0.42076472562E+02  0.41800000000E+01 0.  1.
        -11    1    1    2    0    0  0.15561249302E+02  0.26832457575E+02 -0.51271580384E+02  0.59924187224E+02  0.00000000000E+00 0.  1.
         11    1    1    2    0    0 -0.66735970261E+02  0.41449696098E+02 -0.44350453583E+03  0.45040874807E+03  0.00000000000E+00 0. -1.
</event>
<event>
 7    1  0.2440960E-009  0.1271991E+03  0.7561462E-02  0.1231672E+00
         -2   -1    0    0    0  501 -0.00000000000E+00  0.00000000000E+00  0.17903542695E+03  0.17903542695E+03  0.00000000000E+00 0.  1.
          2   -1    0    0  501    0  0.00000000000E+00 -0.00000000000E+00 -0.13257895783E+03  0.13257895783E+03  0.00000000000E+00 0. -1.
         25    2    1    2    0    0  0.33011435513E+01 -0.10963551942E+03  0.23145890171E+02  0.16797089599E+03  0.12509054721E+03 0.  0.
          5    1    3    3  502    0  0.26833478185E+02 -0.50847073033E+02  0.68827194460E+02  0.89778145919E+02  0.41800000000E+01 0.  1.
         -5    1    3    3    0  502 -0.23532334634E+02 -0.58788446390E+02 -0.45681304289E+02  0.78192750071E+02  0.41800000000E+01 0.  1.
        -11    1    1    2    0    0  0.36246508455E+02  0.53706100999E+02 -0.13046783094E+02  0.66093669961E+02  0.00000000000E+00 0. -1.
         11    1    1    2    0    0 -0.39547652007E+02  0.55929418423E+02  0.36357362045E+02  0.77549818821E+02  0.00000000000E+00 0.  1.
</event>
<event>
 7    1  0.2440960E-009  0.1010016E+03  0.7561462E-02  0.1278204E+00
         -1   -1    0    0    0  501 -0.00000000000E+00  0.00000000000E+00  0.16722496614E+03  0.16722496614E+03  0.00000000000E+00 0.  1.
          1   -1    0    0  501    0  0.00000000000E+00 -0.00000000000E+00 -0.86554038024E+02  0.86554038024E+02  0.00000000000E+00 0. -1.
         25    2    1    2    0    0 -0.93407540083E+01  0.33412479249E+01 -0.87919693580E+01  0.12580043654E+03  0.12510010985E+03 0.  0.
          5    1    3    3  502    0  0.16726025139E+02  0.52365011062E+02 -0.33902289937E+02  0.64720104786E+02  0.41800000000E+01 0.  1.
         -5    1    3    3    0  502 -0.26066779147E+02 -0.49023763137E+02  0.25110320579E+02  0.61080331751E+02  0.41800000000E+01 0.  1.
        -11    1    1    2    0    0  0.45425703732E+02  0.18460334327E+02  0.53422980640E+02  0.72514090793E+02  0.00000000000E+00 0.  1.
         11    1    1    2    0    0 -0.36084949724E+02 -0.21801582252E+02  0.36039916835E+02  0.55464476837E+02  0.00000000000E+00 0. -1.
</event>
<event>
 7    1  0.2440960E-009  0.3559513E+03  0.7561462E-02  0.1060199E+00
          1   -1    0    0  501    0  0.00000000000E+00  0.00000000000E+00  0.13037004454E+04  0.13037004454E+04  0.00000000000E+00 0. -1.
         -1   -1    0    0    0  501 -0.00000000000E+00 -0.00000000000E+00 -0.10593182276E+03  0.10593182276E+03  0.00000000000E+00 0.  1.
         25    2    1    2    0    0  0.15591098063E+03 -0.31692761272E+03  0.53895667931E+03  0.65641080940E+03  0.12509797331E+03 0.  0.
          5    1    3    3  502    0  0.90296557823E+02 -0.24168458796E+03  0.46606555515E+03  0.53272833838E+03  0.41800000000E+01 0. -1.
         -5    1    3    3    0  502  0.65614422804E+02 -0.75243024762E+02  0.72891124165E+02  0.12368247102E+03  0.41800000000E+01 0. -1.
        -11    1    1    2    0    0 -0.60756781251E+02  0.99102275879E+02  0.13600245991E+03  0.17891147714E+03  0.00000000000E+00 0.  1.
         11    1    1    2    0    0 -0.95154199376E+02  0.21782533685E+03  0.52280948338E+03  0.57430998158E+03  0.00000000000E+00 0. -1.
</event>
<event>
 7    1  0.2440960E-009  0.1305175E+03  0.7561462E-02  0.1226690E+00
         -1   -1    0    0    0  501 -0.00000000000E+00  0.00000000000E+00  0.12718587099E+03  0.12718587099E+03  0.00000000000E+00 0.  1.
          1   -1    0    0  501    0  0.00000000000E+00 -0.00000000000E+00 -0.16335624178E+03  0.16335624178E+03  0.00000000000E+00 0. -1.
         25    2    1    2    0    0  0.91717210676E+02 -0.15341502091E+02 -0.66964972244E+00  0.15587059961E+03  0.12509111468E+03 0.  0.
          5    1    3    3  502    0  0.20308150967E+02  0.37102859915E+02 -0.40437980449E+02  0.58666394745E+02  0.41800000000E+01 0. -1.
         -5    1    3    3    0  502  0.71409059709E+02 -0.52444362005E+02  0.39768330727E+02  0.97204204865E+02  0.41800000000E+01 0. -1.
        -11    1    1    2    0    0 -0.34168398120E+02  0.51548073322E+02 -0.19166042689E+02  0.64745814426E+02  0.00000000000E+00 0.  1.
         11    1    1    2    0    0 -0.57548812557E+02 -0.36206571231E+02 -0.16334678379E+02  0.69925698743E+02  0.00000000000E+00 0. -1.
</event>
<event>
 7    1  0.2440960E-009  0.1466511E+03  0.7561462E-02  0.1204650E+00
          1   -1    0    0  501    0  0.00000000000E+00  0.00000000000E+00  0.17669757458E+04  0.17669757458E+04  0.00000000000E+00 0. -1.
         -1   -1    0    0    0  501 -0.00000000000E+00 -0.00000000000E+00 -0.27709838778E+02  0.27709838778E+02  0.00000000000E+00 0.  1.
         25    2    1    2    0    0  0.13011309770E+03  0.47347856899E+02  0.14634590035E+04  0.14753068015E+04  0.12508663387E+03 0.  0.
          5    1    3    3  502    0  0.90253878628E+02  0.22656513874E+02  0.13391142935E+04  0.13423500451E+04  0.41800000000E+01 0. -1.
         -5    1    3    3    0  502  0.39859219071E+02  0.24691343025E+02  0.12434470999E+03  0.13295675639E+03  0.41800000000E+01 0. -1.
        -11    1    1    2    0    0 -0.74731374897E+02 -0.60509166283E+02  0.21792308246E+03  0.23819447405E+03  0.00000000000E+00 0. -1.
         11    1    1    2    0    0 -0.55381722803E+02  0.13161309384E+02  0.57883821030E+02  0.81184308966E+02  0.00000000000E+00 0.  1.
</event>
<event>
 7    1  0.2440960E-009  0.1083984E+03  0.7561462E-02  0.1263565E+00
         -2   -1    0    0    0  501 -0.00000000000E+00  0.00000000000E+00  0.40972861327E+02  0.40972861327E+02  0.00000000000E+00 0.  1.
          2   -1    0    0  501    0  0.00000000000E+00 -0.00000000000E+00 -0.37277342457E+03  0.37277342457E+03  0.00000000000E+00 0. -1.
         25    2    1    2    0    0  0.24403458994E+02  0.54650833876E+02 -0.19234266901E+03  0.23712586349E+03  0.12510287911E+03 0.  0.
          5    1    3    3  502    0  0.75390446340E+02  0.38452469629E+02 -0.11022973481E+03  0.13903373208E+03  0.41800000000E+01 0.  1.
         -5    1    3    3    0  502 -0.50986987345E+02  0.16198364247E+02 -0.82112934195E+02  0.98092131412E+02  0.41800000000E+01 0.  1.
        -11    1    1    2    0    0 -0.37542076111E+02 -0.22739812179E+02 -0.13352159270E+02  0.45877954334E+02  0.00000000000E+00 0.  1.
         11    1    1    2    0    0  0.13138617117E+02 -0.31911021697E+02 -0.12610573497E+03  0.13074246807E+03  0.00000000000E+00 0. -1.
</event>
<event>
 7    1  0.2440960E-009  0.1234152E+03  0.7561462E-02  0.1237567E+00
          2   -1    0    0  501    0  0.00000000000E+00  0.00000000000E+00  0.54113040127E+03  0.54113040127E+03  0.00000000000E+00 0.  1.
         -2   -1    0    0    0  501 -0.00000000000E+00 -0.00000000000E+00 -0.37431579538E+02  0.37431579538E+02  0.00000000000E+00 0. -1.
         25    2    1    2    0    0 -0.44628597557E+02  0.52046671122E+02  0.15209749319E+03  0.20852332521E+03  0.12509101497E+03 0.  0.
          5    1    3    3  502    0  0.15384334617E+02  0.67580944781E+02  0.39404941220E+02  0.79837858448E+02  0.41800000000E+01 0.  1.
         -5    1    3    3    0  502 -0.60012932174E+02 -0.15534273659E+02  0.11269255197E+03  0.12868546676E+03  0.41800000000E+01 0.  1.
        -11    1    1    2    0    0  0.73591766551E+02 -0.41168889689E+02  0.26339224323E+03  0.27656120367E+03  0.00000000000E+00 0.  1.
         11    1    1    2    0    0 -0.28963168993E+02 -0.10877781433E+02  0.88209085316E+02  0.93477451930E+02  0.00000000000E+00 0. -1.
</event>
<event>
 7    1  0.2440960E-009  0.9901941E+02  0.7561462E-02  0.1282372E+00
          1   -1    0    0  501    0  0.00000000000E+00  0.00000000000E+00  0.14885887593E+03  0.14885887593E+03  0.00000000000E+00 0.  1.
         -1   -1    0    0    0  501 -0.00000000000E+00 -0.00000000000E+00 -0.81623082140E+02  0.81623082140E+02  0.00000000000E+00 0. -1.
         25    2    1    2    0    0 -0.12727922011E+02 -0.10093096301E+02  0.24936642364E+02  0.12858870466E+03  0.12509735505E+03 0.  0.
          5    1    3    3  502    0 -0.61545861176E+02  0.22334169496E+02  0.23900657518E+02  0.69824222050E+02  0.41800000000E+01 0. -1.
         -5    1    3    3    0  502  0.48817939165E+02 -0.32427265797E+02  0.10359848465E+01  0.58764482607E+02  0.41800000000E+01 0. -1.
        -11    1    1    2    0    0  0.14763044060E+02 -0.30051042615E+02 -0.10904497365E+02  0.35212507649E+02  0.00000000000E+00 0. -1.
         11    1    1    2    0    0 -0.20351220489E+01  0.40144138916E+02  0.53203648792E+02  0.66680745766E+02  0.00000000000E+00 0.  1.
</event>
<event>
 7    1  0.2440960E-009  0.1124125E+03  0.7561462E-02  0.1256166E+00
         -2   -1    0    0    0  501 -0.00000000000E+00  0.00000000000E+00  0.16223426430E+03  0.16223426430E+03  0.00000000000E+00 0.  1.
          2   -1    0    0  501    0  0.00000000000E+00 -0.00000000000E+00 -0.13112178619E+03  0.13112178619E+03  0.00000000000E+00 0. -1.
         25    2    1    2    0    0 -0.17175445561E+02  0.88401272057E+02  0.48880037558E+02  0.16169847193E+03  0.12508939572E+03 0.  0.
          5    1    3    3  502    0  0.22607785840E+02  0.14293866397E+02 -0.34053597101E+02  0.43503407598E+02  0.41800000000E+01 0.  1.
         -5    1    3    3    0  502 -0.39783231401E+02  0.74107405660E+02  0.82933634659E+02  0.11819506433E+03  0.41800000000E+01 0.  1.
        -11    1    1    2    0    0 -0.85998517605E+01 -0.87317932399E+02 -0.41085187016E+02  0.96883287314E+02  0.00000000000E+00 0. -1.
         11    1    1    2    0    0  0.25775297321E+02 -0.10833396586E+01  0.23317627562E+02  0.34774291250E+02  0.00000000000E+00 0.  1.
</event>
<event>
 7    1  0.2440960E-009  0.1558090E+03  0.7561462E-02  0.1193511E+00
          2   -1    0    0  501    0  0.00000000000E+00  0.00000000000E+00  0.60590313548E+03  0.60590313548E+03  0.00000000000E+00 0. -1.
         -2   -1    0    0    0  501 -0.00000000000E+00 -0.00000000000E+00 -0.99856711514E+02  0.99856711514E+02  0.00000000000E+00 0.  1.
         25    2    1    2    0    0 -0.75463939555E+02  0.10100762235E+03  0.55976640198E+00  0.17760747616E+03  0.12508699494E+03 0.  0.
          5    1    3    3  502    0 -0.18054679877E+02 -0.28565020053E+02 -0.98412369520E+01  0.35443676175E+02  0.41800000000E+01 0. -1.
         -5    1    3    3    0  502 -0.57409259677E+02  0.12957264240E+03  0.10401003354E+02  0.14216379998E+03  0.41800000000E+01 0. -1.
        -11    1    1    2    0    0  0.51024627076E+02 -0.26754647881E+02  0.10185248041E+03  0.11701816746E+03  0.00000000000E+00 0. -1.
         11    1    1    2    0    0  0.24439312479E+02 -0.74252974466E+02  0.40363417716E+03  0.41113420337E+03  0.00000000000E+00 0.  1.
</event>
<event>
 7    1  0.2440960E-009  0.1717306E+03  0.7561462E-02  0.1176055E+00
          1   -1    0    0  501    0  0.00000000000E+00  0.00000000000E+00  0.31035934902E+04  0.31035934902E+04  0.00000000000E+00 0. -1.
         -1   -1    0    0    0  501 -0.00000000000E+00 -0.00000000000E+00 -0.26841227029E+02  0.26841227029E+02  0.00000000000E+00 0.  1.
         25    2    1    2    0    0 -0.12878170114E+03  0.75705730802E+02  0.27691902984E+04  0.27760364592E+04  0.12508968723E+03 0.  0.
          5    1    3    3  502    0 -0.15297541277E+03  0.58058756058E+02  0.22296011841E+04  0.22356008608E+04  0.41800000000E+01 0.  1.
         -5    1    3    3    0  502  0.24193711631E+02  0.17646974744E+02  0.53958911426E+03  0.54043559841E+03  0.41800000000E+01 0.  1.
        -11    1    1    2    0    0  0.28408643162E+02 -0.20127930931E+02  0.11153603565E+02  0.36559369283E+02  0.00000000000E+00 0. -1.
         11    1    1    2    0    0  0.10037305798E+03 -0.55577799870E+02  0.29640836126E+03  0.31783888879E+03  0.00000000000E+00 0.  1.
</event>
<event>
 7    1  0.2440960E-009  0.1430160E+03  0.7561462E-02  0.1209327E+00
         -1   -1    0    0    0  501 -0.00000000000E+00  0.00000000000E+00  0.56624077159E+02  0.56624077159E+02  0.00000000000E+00 0.  1.
          1   -1    0    0  501    0  0.00000000000E+00 -0.00000000000E+00 -0.51314411729E+03  0.51314411729E+03  0.00000000000E+00 0. -1.
         25    2    1    2    0    0  0.88365995337E+02 -0.54879106667E+02 -0.37836140896E+03  0.41185539855E+03  0.12508896052E+03 0.  0.
          5    1    3    3  502    0  0.33324709562E+02 -0.81839170038E+02 -0.13920775095E+03  0.16493773475E+03  0.41800000000E+01 0. -1.
         -5    1    3    3    0  502  0.55041285775E+02  0.26960063371E+02 -0.23915365801E+03  0.24691766380E+03  0.41800000000E+01 0. -1.
        -11    1    1    2    0    0 -0.50147480140E+02 -0.18460172219E+02 -0.21166346237E+02  0.57476620776E+02  0.00000000000E+00 0. -1.
         11    1    1    2    0    0 -0.38218515197E+02  0.73339278886E+02 -0.56992284935E+02  0.10043617512E+03  0.00000000000E+00 0.  1.
</event>
<event>
 7    1  0.2440960E-009  0.1192842E+03  0.7561462E-02  0.1244283E+00
          1   -1    0    0  501    0  0.00000000000E+00  0.00000000000E+00  0.53079816108E+03  0.53079816108E+03  0.00000000000E+00 0. -1.
         -1   -1    0    0    0  501 -0.00000000000E+00 -0.00000000000E+00 -0.40343502001E+02  0.40343502001E+02  0.00000000000E+00 0.  1.
         25    2    1    2    0    0 -0.71443097722E+01 -0.74312435786E+02  0.38970473462E+03  0.41604093670E+03  0.12508757552E+03 0.  0.
          5    1    3    3  502    0  0.39907040973E+02 -0.10908948751E+02  0.26597998663E+03  0.26921070330E+03  0.41800000000E+01 0.  1.
         -5    1    3    3    0  502 -0.47051350745E+02 -0.63403487035E+02  0.12372474799E+03  0.14683023340E+03  0.41800000000E+01 0.  1.
        -11    1    1    2    0    0 -0.18833486654E+02 -0.15522455441E+02  0.21108388693E+02  0.32267799982E+02  0.00000000000E+00 0.  1.
         11    1    1    2    0    0  0.25977796426E+02  0.89834891227E+02  0.79641535765E+02  0.12283292640E+03  0.00000000000E+00 0. -1.
</event>
<event>
 7    1  0.2440960E-009  0.1699598E+03  0.7561462E-02  0.1177890E+00
         -1   -1    0    0    0  501 -0.00000000000E+00  0.00000000000E+00  0.30126907567E+02  0.30126907567E+02  0.00000000000E+00 0.  1.
          1   -1    0    0  501    0  0.00000000000E+00 -0.00000000000E+00 -0.11443573055E+04  0.11443573055E+04  0.00000000000E+00 0. -1.
         25    2    1    2    0    0  0.11399660852E+03 -0.91147285908E+02 -0.47810658326E+03  0.51530229916E+03  0.12508996795E+03 0.  0.
          5    1    3    3  502    0  0.81320083625E+02  0.12337753479E+02 -0.17737864456E+03  0.19556541644E+03  0.41800000000E+01 0.  1.
         -5    1    3    3    0  502  0.32676524892E+02 -0.10348503939E+03 -0.30072793870E+03  0.31973688272E+03  0.41800000000E+01 0.  1.
        -11    1    1    2    0    0 -0.48405496919E+02  0.20523414673E+02 -0.86918341419E+02  0.10158297474E+03  0.00000000000E+00 0.  1.
         11    1    1    2    0    0 -0.65591111597E+02  0.70623871235E+02 -0.54920547325E+03  0.55759893917E+03  0.00000000000E+00 0. -1.
</event>
<event>
 7    1  0.2440960E-009  0.1017883E+03  0.7561462E-02  0.1276580E+00
         -2   -1    0    0    0  501 -0.00000000000E+00  0.00000000000E+00  0.71008554420E+02  0.71008554420E+02  0.00000000000E+00 0.  1.
          2   -1    0    0  501    0  0.00000000000E+00 -0.00000000000E+00 -0.19685259716E+03  0.19685259716E+03  0.00000000000E+00 0. -1.
         25    2    1    2    0    0 -0.56896885564E+01  0.13670741179E+02 -0.12159162311E+03  0.17507651367E+03  0.12509197059E+03 0.  0.
          5    1    3    3  502    0 -0.61756757422E+02 -0.12729358421E+02 -0.52369246905E+02  0.82072797409E+02  0.41800000000E+01 0. -1.
         -5    1    3    3    0  502  0.56067068866E+02  0.26400099600E+02 -0.69222376207E+02  0.93003716258E+02  0.41800000000E+01 0. -1.
        -11    1    1    2    0    0 -0.47630434828E+00 -0.45675236635E+02  0.22219908144E+02  0.50795456740E+02  0.00000000000E+00 0.  1.
         11    1    1    2    0    0  0.61659929047E+01  0.32004495456E+02 -0.26472327774E+02  0.41989181174E+02  0.00000000000E+00 0. -1.
</event>
<event>
 7    1  0.2440960E-009  0.7254118E+02  0.7561462E-02  0.1351659E+00
         -2   -1    0    0    0  501 -0.00000000000E+00  0.00000000000E+00  0.60171112835E+02  0.60171112835E+02  0.00000000000E+00 0.  1.
          2   -1    0    0  501    0  0.00000000000E+00 -0.00000000000E+00 -0.21690514680E+03  0.21690514680E+03  0.00000000000E+00 0. -1.
         25    2    1    2    0    0 -0.35235266835E+02 -0.11414542061E+02 -0.91049396838E+02  0.15909102883E+03  0.12509255369E+03 0.  0.
          5    1    3    3  502    0 -0.29790402379E+02  0.24624088487E+02  0.18868575312E+02  0.43212374871E+02  0.41800000000E+01 0. -1.
         -5    1    3    3    0  502 -0.54448644562E+01 -0.36038630548E+02 -0.10991797215E+03  0.11587865395E+03  0.41800000000E+01 0. -1.
        -11    1    1    2    0    0  0.12241576751E+01  0.30497223105E+02  0.10599937187E+02  0.32310027043E+02  0.00000000000E+00 0.  1.
         11    1    1    2    0    0  0.34011109160E+02 -0.19082681044E+02 -0.76284574317E+02  0.85675203769E+02  0.00000000000E+00 0. -1.
</event>
<event>
 7    1  0.2440960E-009  0.1114426E+03  0.7561462E-02  0.1257922E+00
          2   -1    0    0  501    0  0.00000000000E+00  0.00000000000E+00  0.16511786782E+04  0.16511786782E+04  0.00000000000E+00 0. -1.
         -2   -1    0    0    0  501 -0.00000000000E+00 -0.00000000000E+00 -0.13185059456E+02  0.13185059456E+02  0.00000000000E+00 0.  1.
         25    2    1    2    0    0  0.45913640102E+02  0.27950435359E+01  0.13932133539E+04  0.13995737104E+04  0.12508895537E+03 0.  0.
          5    1    3    3  502    0 -0.40340020122E+02  0.83443109385E+01  0.65470260051E+03  0.65601060378E+03  0.41800000000E+01 0. -1.
         -5    1    3    3    0  502  0.86253660224E+02 -0.55492674026E+01  0.73851075334E+03  0.74356310658E+03  0.41800000000E+01 0. -1.
        -11    1    1    2    0    0 -0.52251810577E+02  0.30870444071E+02  0.10901813661E+03  0.12477255362E+03  0.00000000000E+00 0.  1.
         11    1    1    2    0    0  0.63381704750E+01 -0.33665487607E+02  0.13576212823E+03  0.14001747363E+03  0.00000000000E+00 0. -1.
</event>
<event>
 7    1  0.2441937E-009  0.1075043E+03  0.7561462E-02  0.1265263E+00
          2   -1    0    0  501    0  0.00000000000E+00  0.00000000000E+00  0.19403656089E+03  0.19403656089E+03  0.00000000000E+00 0. -1.
         -2   -1    0    0    0  501 -0.00000000000E+00 -0.00000000000E+00 -0.71489171227E+02  0.71489171227E+02  0.00000000000E+00 0.  1.
         25    2    1    2    0    0 -0.63164840454E+01  0.39913412606E+02  0.45330025364E+02  0.13904679104E+03  0.12508485288E+03 0.  0.
          5    1    3    3  502    0 -0.48598362970E+02  0.61807709397E+02  0.46106792290E+02  0.91243095736E+02  0.41800000000E+01 0.  1.
         -5    1    3    3    0  502  0.42281878925E+02 -0.21894296791E+02 -0.77676692606E+00  0.47803695299E+02  0.41800000000E+01 0.  1.
        -11    1    1    2    0    0  0.42134859276E+02 -0.28551421476E+02  0.72535536859E+02  0.88611140056E+02  0.00000000000E+00 0. -1.
         11    1    1    2    0    0 -0.35818375231E+02 -0.11361991130E+02  0.46818274438E+01  0.37867801030E+02  0.00000000000E+00 0.  1.
</event>
<event>
 7    1  0.2440960E-009  0.1235269E+03  0.7561462E-02  0.1237390E+00
         -1   -1    0    0    0  501 -0.00000000000E+00  0.00000000000E+00  0.18365925979E+03  0.18365925979E+03  0.00000000000E+00 0.  1.
          1   -1    0    0  501    0  0.00000000000E+00 -0.00000000000E+00 -0.11099942402E+03  0.11099942402E+03  0.00000000000E+00 0. -1.
         25    2    1    2    0    0  0.51908741300E+02  0.51024579437E+02  0.99439295746E+02  0.17559458392E+03  0.12508900524E+03 0.  0.
          5    1    3    3  502    0 -0.26183601709E+02 -0.14681744627E+02  0.57850835640E+02  0.65309464919E+02  0.41800000000E+01 0.  1.
         -5    1    3    3    0  502  0.78092343009E+02  0.65706324064E+02  0.41588460106E+02  0.11028511900E+03  0.41800000000E+01 0.  1.
        -11    1    1    2    0    0  0.24976804335E+02 -0.67195840358E+01  0.15583125303E+01  0.25911810094E+02  0.00000000000E+00 0.  1.
         11    1    1    2    0    0 -0.76885545635E+02 -0.44304995401E+02 -0.28337772501E+02  0.93152289802E+02  0.00000000000E+00 0. -1.
</event>
<event>
 7    1  0.2440960E-009  0.1181878E+03  0.7561462E-02  0.1246117E+00
          2   -1    0    0  501    0  0.00000000000E+00  0.00000000000E+00  0.74020980374E+03  0.74020980374E+03  0.00000000000E+00 0. -1.
         -2   -1    0    0    0  501 -0.00000000000E+00 -0.00000000000E+00 -0.22413688560E+02  0.22413688560E+02  0.00000000000E+00 0.  1.
         25    2    1    2    0    0  0.57576052629E+02  0.17367078474E+02  0.49497768846E+03  0.51406988214E+03  0.12509322282E+03 0.  0.
          5    1    3    3  502    0 -0.18715364191E+01 -0.44542800210E+02  0.26095759420E+03  0.26477141475E+03  0.41800000000E+01 0. -1.
         -5    1    3    3    0  502  0.59447589048E+02  0.61909878684E+02  0.23402009426E+03  0.24929846739E+03  0.41800000000E+01 0. -1.
        -11    1    1    2    0    0 -0.35155317750E+02 -0.52980077124E+02  0.97885894444E+02  0.11672374767E+03  0.00000000000E+00 0.  1.
         11    1    1    2    0    0 -0.22420734879E+02  0.35612998650E+02  0.12493253227E+03  0.13182986250E+03  0.00000000000E+00 0. -1.
</event>
<event>
 7    1  0.2440960E-009  0.7698065E+02  0.7561462E-02  0.1337845E+00
         -3   -1    0    0    0  501 -0.00000000000E+00  0.00000000000E+00  0.23708418008E+03  0.23708418008E+03  0.00000000000E+00 0.  1.
          3   -1    0    0  501    0  0.00000000000E+00 -0.00000000000E+00 -0.10451949645E+03  0.10451949645E+03  0.00000000000E+00 0. -1.
         25    2    1    2    0    0 -0.47998265901E+02  0.13673237772E+02 -0.39484274090E+02  0.14035671466E+03  0.12510079332E+03 0.  0.
          5    1    3    3  502    0 -0.18646178649E+02  0.24966057779E+02 -0.81704564687E+02  0.87544801730E+02  0.41800000000E+01 0. -1.
         -5    1    3    3    0  502 -0.29352087252E+02 -0.11292820006E+02  0.42220290597E+02  0.52811912935E+02  0.41800000000E+01 0. -1.
        -11    1    1    2    0    0  0.66717555422E+02  0.14456388305E+01  0.71272034767E+02  0.97637211211E+02  0.00000000000E+00 0. -1.
         11    1    1    2    0    0 -0.18719289522E+02 -0.15118876603E+02  0.10077692295E+03  0.10360975065E+03  0.00000000000E+00 0.  1.
</event>
<event>
 7    1  0.2440960E-009  0.2901446E+03  0.7561462E-02  0.1090274E+00
          2   -1    0    0  501    0  0.00000000000E+00  0.00000000000E+00  0.90576382478E+03  0.90576382478E+03  0.00000000000E+00 0. -1.
         -2   -1    0    0    0  501 -0.00000000000E+00 -0.00000000000E+00 -0.10338452671E+03  0.10338452671E+03  0.00000000000E+00 0.  1.
         25    2    1    2    0    0 -0.26492413974E+03  0.60685093204E+02  0.55689593706E+03  0.63217616800E+03  0.12508454068E+03 0.  0.
          5    1    3    3  502    0 -0.12601794084E+03  0.88284654792E+02  0.33842963338E+03  0.37178863731E+03  0.41800000000E+01 0. -1.
         -5    1    3    3    0  502 -0.13890619891E+03 -0.27599561588E+02  0.21846630368E+03  0.26038753069E+03  0.41800000000E+01 0. -1.
        -11    1    1    2    0    0  0.10631943898E+03  0.17672780065E+02  0.75131417817E+02  0.13138066906E+03  0.00000000000E+00 0. -1.
         11    1    1    2    0    0  0.15860470077E+03 -0.78357873269E+02  0.17035194319E+03  0.24559151442E+03  0.00000000000E+00 0.  1.
</event>
<event>
 7    1  0.2440960E-009  0.9571345E+02  0.7561462E-02  0.1289577E+00
         -2   -1    0    0    0  501 -0.00000000000E+00  0.00000000000E+00  0.42867461249E+02  0.42867461249E+02  0.00000000000E+00 0.  1.
          2   -1    0    0  501    0  0.00000000000E+00 -0.00000000000E+00 -0.43853411622E+03  0.43853411622E+03  0.00000000000E+00 0. -1.
         25    2    1    2    0    0 -0.38509325743E+02 -0.38790441667E+02 -0.32951370207E+03  0.35667029722E+03  0.12508698787E+03 0.  0.
          5    1    3    3  502    0 -0.23571916323E+01 -0.54607668451E+02 -0.49503058472E+02  0.73861891420E+02  0.41800000000E+01 0.  1.
         -5    1    3    3    0  502 -0.36152134111E+02  0.15817226784E+02 -0.28001064360E+03  0.28280840580E+03  0.41800000000E+01 0.  1.
        -11    1    1    2    0    0  0.63619248550E+02  0.25749388934E+02 -0.21596936546E+02  0.71950451595E+02  0.00000000000E+00 0.  1.
         11    1    1    2    0    0 -0.25109922807E+02  0.13041052733E+02 -0.44556016357E+02  0.52780828654E+02  0.00000000000E+00 0. -1.
</event>
<event>
 7    1  0.2440960E-009  0.7414774E+02  0.7561462E-02  0.1346531E+00
          1   -1    0    0  501    0  0.00000000000E+00  0.00000000000E+00  0.11915280875E+03  0.11915280875E+03  0.00000000000E+00 0. -1.
         -1   -1    0    0    0  501 -0.00000000000E+00 -0.00000000000E+00 -0.11893170339E+03  0.11893170339E+03  0.00000000000E+00 0.  1.
         25    2    1    2    0    0 -0.45574174738E+02 -0.19824376274E+02  0.71816076426E+00  0.13460993581E+03  0.12509719328E+03 0.  0.
          5    1    3    3  502    0  0.97481769308E+01 -0.14744684467E+02  0.54333806451E+02  0.57289332313E+02  0.41800000000E+01 0. -1.
         -5    1    3    3    0  502 -0.55322351669E+02 -0.50796918068E+01 -0.53615645686E+02  0.77320603498E+02  0.41800000000E+01 0. -1.
        -11    1    1    2    0    0  0.24504887401E+02 -0.18487767931E+02 -0.35886201465E+02  0.47224003697E+02  0.00000000000E+00 0.  1.
         11    1    1    2    0    0  0.21069287337E+02  0.38312144205E+02  0.35389146065E+02  0.56250572634E+02  0.00000000000E+00 0. -1.
</event>
<event>
 7    1  0.2440960E-009  0.7351807E+02  0.7561462E-02  0.1348522E+00
          2   -1    0    0  501    0  0.00000000000E+00  0.00000000000E+00  0.10154093702E+04  0.10154093702E+04  0.00000000000E+00 0.  1.
         -2   -1    0    0    0  501 -0.00000000000E+00 -0.00000000000E+00 -0.19302908902E+02  0.19302908902E+02  0.00000000000E+00 0. -1.
         25    2    1    2    0    0 -0.17093917065E+02  0.50403381979E+01  0.85864038693E+03  0.86788713211E+03  0.12508858061E+03 0.  0.
          5    1    3    3  502    0  0.21586068628E+02  0.16246181734E+01  0.77774679703E+03  0.77805922039E+03  0.41800000000E+01 0. -1.
         -5    1    3    3    0  502 -0.38679985694E+02  0.34157200245E+01  0.80893589907E+02  0.89827911723E+02  0.41800000000E+01 0. -1.
        -11    1    1    2    0    0  0.96664120809E+01 -0.44624430973E+02  0.10696956613E+03  0.11630678158E+03  0.00000000000E+00 0. -1.
         11    1    1    2    0    0  0.74275049846E+01  0.39584092775E+02  0.30496508260E+02  0.50518365444E+02  0.00000000000E+00 0.  1.
</event>
<event>
 7    1  0.2440960E-009  0.1115831E+03  0.7561462E-02  0.1257666E+00
          2   -1    0    0  501    0  0.00000000000E+00  0.00000000000E+00  0.57277833901E+02  0.57277833901E+02  0.00000000000E+00 0.  1.
         -2   -1    0    0    0  501 -0.00000000000E+00 -0.00000000000E+00 -0.37146795852E+03  0.37146795852E+03  0.00000000000E+00 0. -1.
         25    2    1    2    0    0 -0.50056500752E+02  0.55403362840E+01 -0.48532705281E+02  0.14332817240E+03  0.12510472784E+03 0.  0.
          5    1    3    3  502    0 -0.44797370626E+02 -0.50083147987E+02 -0.54991970104E+02  0.86929369624E+02  0.41800000000E+01 0.  1.
         -5    1    3    3    0  502 -0.52591301263E+01  0.55623484271E+02  0.64592648224E+01  0.56398802772E+02  0.41800000000E+01 0.  1.
        -11    1    1    2    0    0  0.65853080276E+02  0.20834636601E+02 -0.21821073921E+03  0.22888127265E+03  0.00000000000E+00 0. -1.
         11    1    1    2    0    0 -0.15796579524E+02 -0.26374972885E+02 -0.47446680132E+02  0.56536347378E+02  0.00000000000E+00 0.  1.
</event>
<event>
 7    1  0.2440960E-009  0.9578539E+02  0.7561462E-02  0.1289417E+00
         -1   -1    0    0    0  501 -0.00000000000E+00  0.00000000000E+00  0.10763369989E+03  0.10763369989E+03  0.00000000000E+00 0.  1.
          1   -1    0    0  501    0  0.00000000000E+00 -0.00000000000E+00 -0.15905729460E+03  0.15905729460E+03  0.00000000000E+00 0. -1.
         25    2    1    2    0    0  0.12569797452E+02 -0.61971566160E+02  0.90572149677E+01  0.14045180997E+03  0.12508478309E+03 0.  0.
          5    1    3    3  502    0  0.99480625611E+01 -0.75610643217E+02 -0.42146288592E+02  0.87233682477E+02  0.41800000000E+01 0.  1.
         -5    1    3    3    0  502  0.26217348905E+01  0.13639077057E+02  0.51203503560E+02  0.53218127491E+02  0.41800000000E+01 0.  1.
        -11    1    1    2    0    0  0.14533713889E+02  0.70728926184E+02 -0.16870640430E+02  0.74151388032E+02  0.00000000000E+00 0.  1.
         11    1    1    2    0    0 -0.27103511341E+02 -0.87573600238E+01 -0.43610169245E+02  0.52087796490E+02  0.00000000000E+00 0. -1.
</event>
<event>
 7    1  0.2440960E-009  0.9501032E+02  0.7561462E-02  0.1291153E+00
         -2   -1    0    0    0  501 -0.00000000000E+00  0.00000000000E+00  0.47410771991E+02  0.47410771991E+02  0.00000000000E+00 0.  1.
          2   -1    0    0  501    0  0.00000000000E+00 -0.00000000000E+00 -0.32615357587E+03  0.32615357587E+03  0.00000000000E+00 0. -1.
         25    2    1    2    0    0  0.42551251697E+02  0.42906763992E+02 -0.15658876437E+03  0.20932943435E+03  0.12508865473E+03 0.  0.
          5    1    3    3  502    0  0.20488478152E+02 -0.98137829305E+01  0.15588429870E+02  0.27866819305E+02  0.41800000000E+01 0.  1.
         -5    1    3    3    0  502  0.22062773545E+02  0.52720546923E+02 -0.17217719424E+03  0.18146261505E+03  0.41800000000E+01 0.  1.
        -11    1    1    2    0    0  0.12226986454E+02 -0.52588259931E+02 -0.55720897860E+02  0.77587645529E+02  0.00000000000E+00 0.  1.
         11    1    1    2    0    0 -0.54778238151E+02  0.96814959389E+01 -0.66433141648E+02  0.86647267976E+02  0.00000000000E+00 0. -1.
</event>
<event>
 7    1  0.2440960E-009  0.1532932E+03  0.7561462E-02  0.1196484E+00
          2   -1    0    0  501    0  0.00000000000E+00  0.00000000000E+00  0.57823612799E+02  0.57823612799E+02  0.00000000000E+00 0. -1.
         -2   -1    0    0    0  501 -0.00000000000E+00 -0.00000000000E+00 -0.49666400022E+03  0.49666400022E+03  0.00000000000E+00 0.  1.
         25    2    1    2    0    0 -0.68633880308E+02  0.10494260920E+03 -0.27811807974E+03  0.32972820094E+03  0.12508980561E+03 0.  0.
          5    1    3    3  502    0 -0.75435374911E+02  0.11537835632E+03 -0.28370548042E+03  0.31545036521E+03  0.41800000000E+01 0.  1.
         -5    1    3    3    0  502  0.68014946035E+01 -0.10435747119E+02  0.55874006789E+01  0.14277835730E+02  0.41800000000E+01 0.  1.
        -11    1    1    2    0    0 -0.22583026789E+02 -0.29560095205E+02 -0.25660991646E+02  0.45191579080E+02  0.00000000000E+00 0. -1.
         11    1    1    2    0    0  0.91216907097E+02 -0.75382513998E+02 -0.13506131604E+03  0.17956783300E+03  0.00000000000E+00 0.  1.
</event>
<event>
 7    1  0.2440960E-009  0.8453052E+02  0.7561462E-02  0.1316665E+00
         -2   -1    0    0    0  501 -0.00000000000E+00  0.00000000000E+00  0.43572020195E+02  0.43572020195E+02  0.00000000000E+00 0. -1.
          2   -1    0    0  501    0  0.00000000000E+00 -0.00000000000E+00 -0.35119067866E+03  0.35119067866E+03  0.00000000000E+00 0.  1.
         25    2    1    2    0    0  0.42695088368E+02  0.40135358167E+02 -0.20111635864E+03  0.24398494762E+03  0.12508855826E+03 0.  0.
          5    1    3    3  502    0 -0.82870773816E+01  0.55411424999E+02 -0.17644562489E+03  0.18517460035E+03  0.41800000000E+01 0.  1.
         -5    1    3    3    0  502  0.50982165750E+02 -0.15276066832E+02 -0.24670733750E+02  0.58810347271E+02  0.41800000000E+01 0.  1.
        -11    1    1    2    0    0 -0.20930439822E+02 -0.26656449935E+02  0.68444230603E+01  0.34575941943E+02  0.00000000000E+00 0. -1.
         11    1    1    2    0    0 -0.21764648547E+02 -0.13478908233E+02 -0.11334672288E+03  0.11620180929E+03  0.00000000000E+00 0.  1.
</event>
<event>
 7    1  0.2440960E-009  0.2252745E+03  0.7561462E-02  0.1130011E+00
         -2   -1    0    0    0  501 -0.00000000000E+00  0.00000000000E+00  0.37693034962E+02  0.37693034962E+02  0.00000000000E+00 0.  1.
          2   -1    0    0  501    0  0.00000000000E+00 -0.00000000000E+00 -0.14564263339E+04  0.14564263339E+04  0.00000000000E+00 0. -1.
         25    2    1    2    0    0 -0.16378285455E+02 -0.19601426733E+03 -0.93592669619E+03  0.96451847746E+03  0.12508905423E+03 0.  0.
          5    1    3    3  502    0 -0.69463733249E+02 -0.13590183233E+03 -0.59881477758E+03  0.61797340437E+03  0.41800000000E+01 0.  1.
         -5    1    3    3    0  502  0.53085447794E+02 -0.60112434994E+02 -0.33711191862E+03  0.34654507309E+03  0.41800000000E+01 0.  1.
        -11    1    1    2    0    0 -0.38697234480E+02  0.68808340475E+02 -0.16763353966E+03  0.18529184357E+03  0.00000000000E+00 0. -1.
         11    1    1    2    0    0  0.55075519935E+02  0.12720592685E+03 -0.31517306310E+03  0.34430904784E+03  0.00000000000E+00 0.  1.
</event>
<event>
 7    1  0.2440960E-009  0.1035592E+03  0.7561462E-02  0.1272985E+00
          2   -1    0    0  501    0  0.00000000000E+00  0.00000000000E+00  0.52372435283E+03  0.52372435283E+03  0.00000000000E+00 0. -1.
         -2   -1    0    0    0  501 -0.00000000000E+00 -0.00000000000E+00 -0.24933954503E+02  0.24933954503E+02  0.00000000000E+00 0.  1.
         25    2    1    2    0    0 -0.23267033832E+02  0.41165000360E+02  0.21590047075E+03  0.25396430758E+03  0.12509573988E+03 0.  0.
          5    1    3    3  502    0  0.44523479469E+02 -0.30408050320E+01  0.39114669231E+02  0.59489633284E+02  0.41800000000E+01 0.  1.
         -5    1    3    3    0  502 -0.67790513301E+02  0.44205805392E+02  0.17678580152E+03  0.19447467429E+03  0.41800000000E+01 0.  1.
        -11    1    1    2    0    0 -0.22442564938E+02 -0.50530180987E+01  0.10568653518E+03  0.10816120114E+03  0.00000000000E+00 0. -1.
         11    1    1    2    0    0  0.45709598770E+02 -0.36111982261E+02  0.17720339240E+03  0.18653279862E+03  0.00000000000E+00 0.  1.
</event>
<event>
 7    1  0.2440960E-009  0.1750911E+03  0.7561462E-02  0.1172640E+00
          2   -1    0    0  501    0  0.00000000000E+00  0.00000000000E+00  0.12193308812E+04  0.12193308812E+04  0.00000000000E+00 0. -1.
         -2   -1    0    0    0  501 -0.00000000000E+00 -0.00000000000E+00 -0.27595979731E+02  0.27595979731E+02  0.00000000000E+00 0.  1.
         25    2    1    2    0    0 -0.13943574401E+03  0.20218006993E+02  0.76430712951E+03  0.78718757848E+03  0.12509117067E+03 0.  0.
          5    1    3    3  502    0 -0.13065807469E+03 -0.32341555383E+02  0.52678649248E+03  0.54372694410E+03  0.41800000000E+01 0.  1.
         -5    1    3    3    0  502 -0.87776693235E+01  0.52559562376E+02  0.23752063703E+03  0.24346063438E+03  0.41800000000E+01 0.  1.
        -11    1    1    2    0    0  0.16126289907E+02  0.25819266670E+02  0.38123717811E+02  0.48786367125E+02  0.00000000000E+00 0.  1.
         11    1    1    2    0    0  0.12330945411E+03 -0.46037273663E+02  0.38930405418E+03  0.41095291535E+03  0.00000000000E+00 0. -1.
</event>
<event>
 7    1  0.2440960E-009  0.6602026E+02  0.7561462E-02  0.1374174E+00
          2   -1    0    0  501    0  0.00000000000E+00  0.00000000000E+00  0.25043028597E+03  0.25043028597E+03  0.00000000000E+00 0. -1.
         -2   -1    0    0    0  501 -0.00000000000E+00 -0.00000000000E+00 -0.45090048914E+02  0.45090048914E+02  0.00000000000E+00 0.  1.
         25    2    1    2    0    0  0.18049096882E+02  0.17955299934E+02  0.15425571473E+03  0.20022698013E+03  0.12509138800E+03 0.  0.
          5    1    3    3  502    0  0.33283110046E+02  0.41432411338E+02  0.16228194112E+03  0.17081367315E+03  0.41800000000E+01 0. -1.
         -5    1    3    3    0  502 -0.15234013164E+02 -0.23477111405E+02 -0.80262263906E+01  0.29413306973E+02  0.41800000000E+01 0. -1.
        -11    1    1    2    0    0  0.57270361896E+01 -0.24991068450E+02 -0.11407373740E+02  0.28062085122E+02  0.00000000000E+00 0.  1.
         11    1    1    2    0    0 -0.23776133071E+02  0.70357685162E+01  0.62491896068E+02  0.67231269634E+02  0.00000000000E+00 0. -1.
</event>
<event>
 7    1  0.2440960E-009  0.1122544E+03  0.7561462E-02  0.1256451E+00
         -1   -1    0    0    0  501 -0.00000000000E+00  0.00000000000E+00  0.20303400641E+03  0.20303400641E+03  0.00000000000E+00 0.  1.
          1   -1    0    0  501    0  0.00000000000E+00 -0.00000000000E+00 -0.10261173102E+03  0.10261173102E+03  0.00000000000E+00 0. -1.
         25    2    1    2    0    0 -0.85437835580E+02 -0.35280181588E+02  0.29315964777E+02  0.15827273053E+03  0.12508603630E+03 0.  0.
          5    1    3    3  502    0  0.19359963117E+02 -0.57435044094E+01  0.43743602021E+02  0.48360842968E+02  0.41800000000E+01 0. -1.
         -5    1    3    3    0  502 -0.10479779870E+03 -0.29536677179E+02 -0.14427637244E+02  0.10991188756E+03  0.41800000000E+01 0. -1.
        -11    1    1    2    0    0  0.43182386794E+02  0.61864694450E+01 -0.15847752045E+02  0.46412737242E+02  0.00000000000E+00 0. -1.
         11    1    1    2    0    0  0.42255448786E+02  0.29093712143E+02  0.86954062660E+02  0.10096026967E+03  0.00000000000E+00 0.  1.
</event>
<event>
 7    1  0.2440960E-009  0.9525687E+02  0.7561462E-02  0.1290599E+00
         -1   -1    0    0    0  501 -0.00000000000E+00  0.00000000000E+00  0.30412362441E+02  0.30412362441E+02  0.00000000000E+00 0.  1.
          1   -1    0    0  501    0  0.00000000000E+00 -0.00000000000E+00 -0.48396510690E+03  0.48396510690E+03  0.00000000000E+00 0. -1.
         25    2    1    2    0    0 -0.17024946226E+02 -0.30022065458E+02 -0.34362883292E+03  0.36731265697E+03  0.12508652985E+03 0.  0.
          5    1    3    3  502    0  0.33627221456E+01  0.38758643961E+02 -0.22681542289E+03  0.23016569867E+03  0.41800000000E+01 0.  1.
         -5    1    3    3    0  502 -0.20387668372E+02 -0.68780709419E+02 -0.11681341003E+03  0.13714695831E+03  0.41800000000E+01 0.  1.
        -11    1    1    2    0    0  0.25461824754E+01  0.52622827301E+02 -0.25605099049E+02  0.58577009958E+02  0.00000000000E+00 0.  1.
         11    1    1    2    0    0  0.14478763750E+02 -0.22600761843E+02 -0.84318812491E+02  0.88487802411E+02  0.00000000000E+00 0. -1.
</event>
<event>
 7    1  0.2440960E-009  0.1343353E+03  0.7561462E-02  0.1221161E+00
          2   -1    0    0  501    0  0.00000000000E+00  0.00000000000E+00  0.22691115376E+03  0.22691115376E+03  0.00000000000E+00 0. -1.
         -2   -1    0    0    0  501 -0.00000000000E+00 -0.00000000000E+00 -0.90650670777E+02  0.90650670777E+02  0.00000000000E+00 0.  1.
         25    2    1    2    0    0  0.83951265399E+02  0.77668716774E+01  0.12677668591E+03  0.19705289270E+03  0.12509746270E+03 0.  0.
          5    1    3    3  502    0 -0.22760610140E+02  0.31927614197E+02  0.48243553493E+02  0.62308352377E+02  0.41800000000E+01 0.  1.
         -5    1    3    3    0  502  0.10671187554E+03 -0.24160742520E+02  0.78533132416E+02  0.13474454032E+03  0.41800000000E+01 0.  1.
        -11    1    1    2    0    0 -0.71528962865E+01  0.32328770083E+02  0.69758143948E+01  0.33837483459E+02  0.00000000000E+00 0. -1.
         11    1    1    2    0    0 -0.76798369112E+02 -0.40095641760E+02  0.25079826786E+01  0.86671448376E+02  0.00000000000E+00 0.  1.
</event>
<event>
 7    1  0.2440960E-009  0.1090167E+03  0.7561462E-02  0.1262402E+00
         -1   -1    0    0    0  501 -0.00000000000E+00  0.00000000000E+00  0.19226699514E+03  0.19226699514E+03  0.00000000000E+00 0.  1.
          1   -1    0    0  501    0  0.00000000000E+00 -0.00000000000E+00 -0.86845338188E+02  0.86845338188E+02  0.00000000000E+00 0. -1.
         25    2    1    2    0    0 -0.41636009045E+02 -0.55016413950E+02  0.46796839975E+02  0.15032758815E+03  0.12509227184E+03 0.  0.
          5    1    3    3  502    0 -0.43033094213E+02  0.20654434120E+02  0.56305987826E+02  0.73934359478E+02  0.41800000000E+01 0.  1.
         -5    1    3    3    0  502  0.13970851684E+01 -0.75670848070E+02 -0.95091478506E+01  0.76393228675E+02  0.41800000000E+01 0.  1.
        -11    1    1    2    0    0 -0.62304577957E+01  0.44982063576E+02 -0.80261120209E+01  0.46115324156E+02  0.00000000000E+00 0. -1.
         11    1    1    2    0    0  0.47866466840E+02  0.10034350375E+02  0.66650929001E+02  0.82669421021E+02  0.00000000000E+00 0.  1.
</event>
<event>
 7    1  0.2440960E-009  0.1052464E+03  0.7561462E-02  0.1269635E+00
          2   -1    0    0  501    0  0.00000000000E+00  0.00000000000E+00  0.60588784863E+03  0.60588784863E+03  0.00000000000E+00 0. -1.
         -2   -1    0    0    0  501 -0.00000000000E+00 -0.00000000000E+00 -0.22873052619E+02  0.22873052619E+02  0.00000000000E+00 0.  1.
         25    2    1    2    0    0 -0.39685190895E+02  0.14925551645E+02  0.31251837704E+03  0.33928072545E+03  0.12508392466E+03 0.  0.
          5    1    3    3  502    0 -0.27491528756E+02  0.58403416615E+02  0.26813484951E+03  0.27582696233E+03  0.41800000000E+01 0.  1.
         -5    1    3    3    0  502 -0.12193662139E+02 -0.43477864970E+02  0.44383527527E+02  0.63453763123E+02  0.41800000000E+01 0.  1.
        -11    1    1    2    0    0  0.17977576737E+02  0.38664283128E+02  0.14806718212E+03  0.15408442645E+03  0.00000000000E+00 0.  1.
         11    1    1    2    0    0  0.21707614157E+02 -0.53589834773E+02  0.12242923685E+03  0.13539574934E+03  0.00000000000E+00 0. -1.
</event>
<event>
 7    1  0.2440960E-009  0.1109200E+03  0.7561462E-02  0.1258876E+00
         -1   -1    0    0    0  501 -0.00000000000E+00  0.00000000000E+00  0.30916675547E+02  0.30916675547E+02  0.00000000000E+00 0.  1.
          1   -1    0    0  501    0  0.00000000000E+00 -0.00000000000E+00 -0.53979742671E+03  0.53979742671E+03  0.00000000000E+00 0. -1.
         25    2    1    2    0    0  0.37451982448E+02  0.35791534915E+02 -0.38663753003E+03  0.40965794025E+03  0.12508942170E+03 0.  0.
          5    1    3    3  502    0  0.67370929933E+01 -0.37292084717E+02 -0.23908200323E+03  0.24210279774E+03  0.41800000000E+01 0.  1.
         -5    1    3    3    0  502  0.30714889455E+02  0.73083619632E+02 -0.14755552680E+03  0.16755514251E+03  0.41800000000E+01 0.  1.
        -11    1    1    2    0    0  0.10672273566E+02  0.24771948522E+02 -0.39006183661E+02  0.47423930883E+02  0.00000000000E+00 0. -1.
         11    1    1    2    0    0 -0.48124256014E+02 -0.60563483437E+02 -0.83237037470E+02  0.11363223112E+03  0.00000000000E+00 0.  1.
</event>
<event>
 7    1  0.2440960E-009  0.1205263E+03  0.7561462E-02  0.1242231E+00
         -2   -1    0    0    0  501 -0.00000000000E+00  0.00000000000E+00  0.55697460093E+02  0.55697460093E+02  0.00000000000E+00 0.  1.
          2   -1    0    0  501    0  0.00000000000E+00 -0.00000000000E+00 -0.28781331647E+03  0.28781331647E+03  0.00000000000E+00 0. -1.
         25    2    1    2    0    0  0.62068795009E+02  0.22071442970E+01 -0.10428720483E+03  0.17430011350E+03  0.12508917488E+03 0.  0.
          5    1    3    3  502    0  0.59074905297E+02 -0.50156341520E+02 -0.91826754095E+02  0.12022948140E+03  0.41800000000E+01 0. -1.
         -5    1    3    3    0  502  0.29938897122E+01  0.52363485817E+02 -0.12460450738E+02  0.54070632095E+02  0.41800000000E+01 0. -1.
        -11    1    1    2    0    0 -0.72009438850E+02 -0.32458468309E+02 -0.89021020265E+02  0.11901114863E+03  0.00000000000E+00 0. -1.
         11    1    1    2    0    0  0.99406438408E+01  0.30251324012E+02 -0.38807631280E+02  0.50199514440E+02  0.00000000000E+00 0.  1.
</event>
<event>
 7    1  0.2440960E-009  0.1543354E+03  0.7561462E-02  0.1195245E+00
          2   -1    0    0  501    0  0.00000000000E+00  0.00000000000E+00  0.92656322816E+03  0.92656322816E+03  0.00000000000E+00 0. -1.
         -2   -1    0    0    0  501 -0.00000000000E+00 -0.00000000000E+00 -0.49921355768E+02  0.49921355768E+02  0.00000000000E+00 0.  1.
         25    2    1    2    0    0 -0.11072675656E+03 -0.84160934809E+02  0.17524048634E+03  0.25632127714E+03  0.12509153248E+03 0.  0.
          5    1    3    3  502    0 -0.64598937656E+02 -0.10033182094E+03  0.65671283564E+02  0.13627063853E+03  0.41800000000E+01 0.  1.
         -5    1    3    3    0  502 -0.46127818902E+02  0.16170886131E+02  0.10956920278E+03  0.12005063862E+03  0.41800000000E+01 0.  1.
        -11    1    1    2    0    0  0.12720023434E+02  0.32733005279E+01  0.83628237535E+01  0.15570816088E+02  0.00000000000E+00 0.  1.
         11    1    1    2    0    0  0.98006733123E+02  0.80887634281E+02  0.69303856230E+03  0.70459249070E+03  0.00000000000E+00 0. -1.
</event>
<event>
 7    1  0.2440960E-009  0.1194279E+03  0.7561462E-02  0.1244044E+00
         -3   -1    0    0    0  501 -0.00000000000E+00  0.00000000000E+00  0.14302284165E+02  0.14302284165E+02  0.00000000000E+00 0.  1.
          3   -1    0    0  501    0  0.00000000000E+00 -0.00000000000E+00 -0.10398524313E+04  0.10398524313E+04  0.00000000000E+00 0. -1.
         25    2    1    2    0    0 -0.29067610134E+02 -0.42502962061E+02 -0.48079240075E+03  0.49946147209E+03  0.12509597014E+03 0.  0.
          5    1    3    3  502    0 -0.52493070158E+02 -0.76533324060E+02 -0.30518425574E+03  0.31901061809E+03  0.41800000000E+01 0.  1.
         -5    1    3    3    0  502  0.23425460025E+02  0.34030362000E+02 -0.17560814501E+03  0.18045085400E+03  0.41800000000E+01 0.  1.
        -11    1    1    2    0    0  0.61778298685E+01  0.69080334127E+02 -0.37216899594E+03  0.37857630629E+03  0.00000000000E+00 0. -1.
         11    1    1    2    0    0  0.22889780265E+02 -0.26577372066E+02 -0.17258875046E+03  0.17611693709E+03  0.00000000000E+00 0.  1.
</event>
<event>
 7    1  0.2440960E-009  0.1668038E+03  0.7561462E-02  0.1181223E+00
          1   -1    0    0  501    0  0.00000000000E+00  0.00000000000E+00  0.54890277559E+03  0.54890277559E+03  0.00000000000E+00 0. -1.
         -1   -1    0    0    0  501 -0.00000000000E+00 -0.00000000000E+00 -0.59048052327E+02  0.59048052327E+02  0.00000000000E+00 0.  1.
         25    2    1    2    0    0  0.72479189197E+01  0.13902085950E+03  0.32202255435E+03  0.37245929974E+03  0.12509225695E+03 0.  0.
          5    1    3    3  502    0  0.29571440670E+02 -0.72632480480E+01  0.21672066981E+02  0.37608187443E+02  0.41800000000E+01 0.  1.
         -5    1    3    3    0  502 -0.22323521751E+02  0.14628410755E+03  0.30035048736E+03  0.33485111229E+03  0.41800000000E+01 0.  1.
        -11    1    1    2    0    0  0.25243979903E+02 -0.22322985083E+02  0.74661539566E+01  0.34515469565E+02  0.00000000000E+00 0.  1.
         11    1    1    2    0    0 -0.32491898823E+02 -0.11669787442E+03  0.16036601496E+03  0.20097605861E+03  0.00000000000E+00 0. -1.
</event>
<event>
 7    1  0.2440960E-009  0.6685856E+02  0.7561462E-02  0.1371114E+00
          2   -1    0    0  501    0  0.00000000000E+00  0.00000000000E+00  0.42988537213E+02  0.42988537213E+02  0.00000000000E+00 0. -1.
         -2   -1    0    0    0  501 -0.00000000000E+00 -0.00000000000E+00 -0.35319504292E+03  0.35319504292E+03  0.00000000000E+00 0.  1.
         25    2    1    2    0    0  0.13845331945E+02  0.36364240269E+02 -0.10546068086E+03  0.16816800551E+03  0.12507786248E+03 0.  0.
          5    1    3    3  502    0 -0.28480256525E+02  0.23338767318E+02  0.14831011176E+02  0.39915590489E+02  0.41800000000E+01 0.  1.
         -5    1    3    3    0  502  0.42325588470E+02  0.13025472952E+02 -0.12029169204E+03  0.12825241502E+03  0.41800000000E+01 0.  1.
        -11    1    1    2    0    0 -0.93897019689E+01  0.49564323254E+01  0.66797158952E+01  0.12543975801E+02  0.00000000000E+00 0. -1.
         11    1    1    2    0    0 -0.44556299763E+01 -0.41320672595E+02 -0.21142554074E+03  0.21547159882E+03  0.00000000000E+00 0.  1.
</event>
<event>
 7    1  0.2440960E-009  0.2637482E+03  0.7561462E-02  0.1104912E+00
          2   -1    0    0  501    0  0.00000000000E+00  0.00000000000E+00  0.11672648308E+04  0.11672648308E+04  0.00000000000E+00 0. -1.
         -2   -1    0    0    0  501 -0.00000000000E+00 -0.00000000000E+00 -0.70314019230E+02  0.70314019230E+02  0.00000000000E+00 0.  1.
         25    2    1    2    0    0 -0.23998531168E+03  0.82918831288E+02  0.72435606365E+03  0.77769433442E+03  0.12509311906E+03 0.  0.
          5    1    3    3  502    0 -0.40488768878E+02 -0.49877733831E+01  0.32600767552E+02  0.52387982721E+02  0.41800000000E+01 0.  1.
         -5    1    3    3    0  502 -0.19949654281E+03  0.87906604671E+02  0.69175529610E+03  0.72530635170E+03  0.41800000000E+01 0.  1.
        -11    1    1    2    0    0  0.17591632972E+03 -0.17352198275E+02  0.26478058768E+03  0.31836522024E+03  0.00000000000E+00 0. -1.
         11    1    1    2    0    0  0.64068981963E+02 -0.65566633014E+02  0.10781416027E+03  0.14151929539E+03  0.00000000000E+00 0.  1.
</event>
<event>
 7    1  0.2440960E-009  0.2810240E+03  0.7561462E-02  0.1095131E+00
          1   -1    0    0  501    0  0.00000000000E+00  0.00000000000E+00  0.28835183109E+03  0.28835183109E+03  0.00000000000E+00 0. -1.
         -1   -1    0    0    0  501 -0.00000000000E+00 -0.00000000000E+00 -0.28818078608E+03  0.28818078608E+03  0.00000000000E+00 0.  1.
         25    2    1    2    0    0  0.20449190305E+03 -0.16462907465E+03 -0.46714718702E+02  0.29453080048E+03  0.12508579798E+03 0.  0.
          5    1    3    3  502    0  0.11667595097E+03 -0.25179279408E+02 -0.50415489268E+02  0.12963976090E+03  0.41800000000E+01 0. -1.
         -5    1    3    3    0  502  0.87815952072E+02 -0.13944979524E+03  0.37007705664E+01  0.16489103958E+03  0.41800000000E+01 0. -1.
        -11    1    1    2    0    0 -0.15986619141E+03  0.16935122051E+03  0.34343082225E+02  0.23540705669E+03  0.00000000000E+00 0.  1.
         11    1    1    2    0    0 -0.44625711637E+02 -0.47221458561E+01  0.12542681494E+02  0.46594760002E+02  0.00000000000E+00 0. -1.
</event>
<event>
 7    1  0.2440960E-009  0.1190512E+03  0.7561462E-02  0.1244670E+00
          1   -1    0    0  501    0  0.00000000000E+00  0.00000000000E+00  0.34905411143E+02  0.34905411143E+02  0.00000000000E+00 0. -1.
         -1   -1    0    0    0  501 -0.00000000000E+00 -0.00000000000E+00 -0.41561591811E+03  0.41561591811E+03  0.00000000000E+00 0.  1.
         25    2    1    2    0    0 -0.45764530031E+02  0.28685535246E+02 -0.20043594511E+03  0.24236086619E+03  0.12508784604E+03 0.  0.
          5    1    3    3  502    0  0.38199641505E+02  0.34697034034E+02 -0.82610984489E+02  0.97494327733E+02  0.41800000000E+01 0. -1.
         -5    1    3    3    0  502 -0.83964171536E+02 -0.60114987876E+01 -0.11782496062E+03  0.14486653846E+03  0.41800000000E+01 0. -1.
        -11    1    1    2    0    0  0.13154317741E+01 -0.51888140071E+02 -0.71178103281E+02  0.88093313182E+02  0.00000000000E+00 0. -1.
         11    1    1    2    0    0  0.44449098257E+02  0.23202604825E+02 -0.10909645858E+03  0.12006714989E+03  0.00000000000E+00 0.  1.
</event>
<event>
 7    1  0.2440960E-009  0.1221479E+03  0.7561462E-02  0.1239595E+00
         -2   -1    0    0    0  501 -0.00000000000E+00  0.00000000000E+00  0.18567438466E+03  0.18567438466E+03  0.00000000000E+00 0.  1.
          2   -1    0    0  501    0  0.00000000000E+00 -0.00000000000E+00 -0.13027000044E+03  0.13027000044E+03  0.00000000000E+00 0. -1.
         25    2    1    2    0    0  0.91223869610E+02  0.29352204567E+02 -0.27626871665E+02  0.15998169433E+03  0.12509017620E+03 0.  0.
          5    1    3    3  502    0 -0.25930831199E+02 -0.40315924840E+01 -0.27291155094E+02  0.38091223280E+02  0.41800000000E+01 0.  1.
         -5    1    3    3    0  502  0.11715470081E+03  0.33383797051E+02 -0.33571657104E+00  0.12189047105E+03  0.41800000000E+01 0.  1.
        -11    1    1    2    0    0 -0.24883093634E+02 -0.83547286776E+01 -0.19041732499E+02  0.32427726048E+02  0.00000000000E+00 0. -1.
         11    1    1    2    0    0 -0.66340775975E+02 -0.20997475890E+02  0.10207298839E+03  0.12353496472E+03  0.00000000000E+00 0.  1.
</event>
<event>
 7    1  0.2440960E-009  0.1098802E+03  0.7561462E-02  0.1260792E+00
          1   -1    0    0  501    0  0.00000000000E+00  0.00000000000E+00  0.11772238213E+04  0.11772238213E+04  0.00000000000E+00 0. -1.
         -1   -1    0    0    0  501 -0.00000000000E+00 -0.00000000000E+00 -0.14119092160E+02  0.14119092160E+02  0.00000000000E+00 0.  1.
         25    2    1    2    0    0  0.44868056110E+02  0.42987194721E+02  0.87071817905E+03  0.88184984985E+03  0.12509184221E+03 0.  0.
          5    1    3    3  502    0  0.81703216080E+02  0.98127648714E+01  0.39277135568E+03  0.40132096397E+03  0.41800000000E+01 0.  1.
         -5    1    3    3    0  502 -0.36835159969E+02  0.33174429850E+02  0.47794682337E+03  0.48052888589E+03  0.41800000000E+01 0.  1.
        -11    1    1    2    0    0  0.13895435979E+01 -0.41304588725E+02  0.21798262215E+03  0.22186577798E+03  0.00000000000E+00 0.  1.
         11    1    1    2    0    0 -0.46257599708E+02 -0.16826059965E+01  0.74403927975E+02  0.87627285658E+02  0.00000000000E+00 0. -1.
</event>
<event>
 7    1  0.2440960E-009  0.1766284E+03  0.7561462E-02  0.1171107E+00
         -2   -1    0    0    0  501 -0.00000000000E+00  0.00000000000E+00  0.26234662607E+02  0.26234662607E+02  0.00000000000E+00 0.  1.
          2   -1    0    0  501    0  0.00000000000E+00 -0.00000000000E+00 -0.15234459326E+04  0.15234459326E+04  0.00000000000E+00 0. -1.
         25    2    1    2    0    0 -0.10362994549E+03 -0.12004846946E+03 -0.99241361322E+03  0.10127597541E+04  0.12508692619E+03 0.  0.
          5    1    3    3  502    0 -0.24132752043E+02 -0.82446710716E+02 -0.23496464040E+03  0.25021131962E+03  0.41800000000E+01 0.  1.
         -5    1    3    3    0  502 -0.79497193444E+02 -0.37601758741E+02 -0.75744897282E+03  0.76254843443E+03  0.41800000000E+01 0.  1.
        -11    1    1    2    0    0  0.11641910619E+03  0.92002778719E+02 -0.37002729582E+03  0.39867043937E+03  0.00000000000E+00 0.  1.
         11    1    1    2    0    0 -0.12789160707E+02  0.28045690738E+02 -0.13477036092E+03  0.13825040175E+03  0.00000000000E+00 0. -1.
</event>
<event>
 7    1  0.3104145E-009  0.9065678E+02  0.7561462E-02  0.1301269E+00
         -2   -1    0    0    0  501 -0.00000000000E+00  0.00000000000E+00  0.65371521349E+02  0.65371521349E+02  0.00000000000E+00 0.  1.
          2   -1    0    0  501    0  0.00000000000E+00 -0.00000000000E+00 -0.27053225494E+03  0.27053225494E+03  0.00000000000E+00 0. -1.
         25    2    1    2    0    0 -0.51343058213E+02  0.52212027414E+00 -0.18472562856E+03  0.22892409693E+03  0.12508517926E+03 0.  0.
          5    1    3    3  502    0 -0.51373657293E+02 -0.52802211335E+02 -0.14361647462E+03  0.16146358837E+03  0.41800000000E+01 0. -1.
         -5    1    3    3    0  502  0.30599080096E-01  0.53324331609E+02 -0.41109153940E+02  0.67460508563E+02  0.41800000000E+01 0. -1.
        -11    1    1    2    0    0  0.36246197466E+02 -0.81067855037E+01 -0.56234940661E+02  0.67393437019E+02  0.00000000000E+00 0. -1.
         11    1    1    2    0    0  0.15096860747E+02  0.75846652296E+01  0.35799835635E+02  0.39586242339E+02  0.00000000000E+00 0.  1.
</event>
<event>
 7    1  0.2440960E-009  0.1487998E+03  0.7561462E-02  0.1201956E+00
         -2   -1    0    0    0  501 -0.00000000000E+00  0.00000000000E+00  0.32718705044E+02  0.32718705044E+02  0.00000000000E+00 0.  1.
          2   -1    0    0  501    0  0.00000000000E+00 -0.00000000000E+00 -0.80547291039E+03  0.80547291039E+03  0.00000000000E+00 0. -1.
         25    2    1    2    0    0 -0.74381015128E+02  0.76748056849E+02 -0.55955604126E+03  0.58324536877E+03  0.12509755086E+03 0.  0.
          5    1    3    3  502    0 -0.57734214938E+02 -0.20245495770E+02 -0.15087258064E+03  0.16285922652E+03  0.41800000000E+01 0.  1.
         -5    1    3    3    0  502 -0.16646800191E+02  0.96993552619E+02 -0.40868346063E+03  0.42038614225E+03  0.41800000000E+01 0.  1.
        -11    1    1    2    0    0 -0.13176697793E+02 -0.41236360828E+02 -0.88243239094E+02  0.98290040517E+02  0.00000000000E+00 0.  1.
         11    1    1    2    0    0  0.87557712922E+02 -0.35511696021E+02 -0.12495492499E+03  0.15665620615E+03  0.00000000000E+00 0. -1.
</event>
<event>
 7    1  0.2440960E-009  0.2919163E+03  0.7561462E-02  0.1089353E+00
          1   -1    0    0  501    0  0.00000000000E+00  0.00000000000E+00  0.13621545934E+04  0.13621545934E+04  0.00000000000E+00 0. -1.
         -1   -1    0    0    0  501 -0.00000000000E+00 -0.00000000000E+00 -0.66091547858E+02  0.66091547858E+02  0.00000000000E+00 0.  1.
         25    2    1    2    0    0 -0.18783753705E+03 -0.20663298838E+03  0.68064207870E+03  0.74625790600E+03  0.12508833184E+03 0.  0.
          5    1    3    3  502    0 -0.47992819224E+02  0.26790420669E+01  0.17316532635E+03  0.17976148257E+03  0.41800000000E+01 0.  1.
         -5    1    3    3    0  502 -0.13984471783E+03 -0.20931203045E+03  0.50747675235E+03  0.56649642344E+03  0.41800000000E+01 0.  1.
        -11    1    1    2    0    0  0.16298349596E+03  0.20018356329E+03  0.48866551344E+03  0.55265817916E+03  0.00000000000E+00 0.  1.
         11    1    1    2    0    0  0.24854041094E+02  0.64494250895E+01  0.12675545339E+03  0.12933005608E+03  0.00000000000E+00 0. -1.
</event>
<event>
 7    1  0.2440960E-009  0.1066834E+03  0.7561462E-02  0.1266838E+00
          2   -1    0    0  501    0  0.00000000000E+00  0.00000000000E+00  0.34003524147E+03  0.34003524147E+03  0.00000000000E+00 0. -1.
         -2   -1    0    0    0  501 -0.00000000000E+00 -0.00000000000E+00 -0.40957988754E+02  0.40957988754E+02  0.00000000000E+00 0.  1.
         25    2    1    2    0    0 -0.29523880699E+02 -0.30451919666E+02  0.20237010174E+03  0.24166067825E+03  0.12508895393E+03 0.  0.
          5    1    3    3  502    0 -0.12666223241E+02  0.46557041759E+02  0.47526249761E+02  0.67854315743E+02  0.41800000000E+01 0. -1.
         -5    1    3    3    0  502 -0.16857657458E+02 -0.77008961424E+02  0.15484385198E+03  0.17380636251E+03  0.41800000000E+01 0. -1.
        -11    1    1    2    0    0 -0.25448171369E+02  0.94386019640E+01  0.69273655780E+02  0.74401182909E+02  0.00000000000E+00 0. -1.
         11    1    1    2    0    0  0.54972052068E+02  0.21013317702E+02  0.27433495198E+02  0.64931369061E+02  0.00000000000E+00 0.  1.
</event>
<event>
 7    1  0.2440960E-009  0.3314041E+03  0.7561462E-02  0.1070517E+00
          2   -1    0    0  501    0  0.00000000000E+00  0.00000000000E+00  0.28934709184E+03  0.28934709184E+03  0.00000000000E+00 0.  1.
         -2   -1    0    0    0  501 -0.00000000000E+00 -0.00000000000E+00 -0.52626271653E+03  0.52626271653E+03  0.00000000000E+00 0. -1.
         25    2    1    2    0    0 -0.25843674932E+03  0.19405882338E+03 -0.31783876474E+03  0.47023155115E+03  0.12509137059E+03 0.  0.
          5    1    3    3  502    0 -0.96511232461E+02  0.13746851237E+03 -0.11046135578E+03  0.20107509394E+03  0.41800000000E+01 0.  1.
         -5    1    3    3    0  502 -0.16192551686E+03  0.56590311011E+02 -0.20737740896E+03  0.26915645721E+03  0.41800000000E+01 0.  1.
        -11    1    1    2    0    0  0.19708549093E+03 -0.14575997699E+03  0.10041615330E+03  0.26490010470E+03  0.00000000000E+00 0.  1.
         11    1    1    2    0    0  0.61351258383E+02 -0.48298846389E+02 -0.19493013249E+02  0.80478152521E+02  0.00000000000E+00 0. -1.
</event>
<event>
 7    1  0.2440960E-009  0.2730381E+03  0.7561462E-02  0.1099553E+00
         -1   -1    0    0    0  501 -0.00000000000E+00  0.00000000000E+00  0.66945864225E+02  0.66945864225E+02  0.00000000000E+00 0.  1.
          1   -1    0    0  501    0  0.00000000000E+00 -0.00000000000E+00 -0.11862300627E+04  0.11862300627E+04  0.00000000000E+00 0. -1.
         25    2    1    2    0    0  0.14343624261E+03 -0.21319675737E+03 -0.65781840113E+03  0.71721639708E+03  0.12508996093E+03 0.  0.
          5    1    3    3  502    0  0.15101890613E+03 -0.14731257554E+03 -0.41630452442E+03  0.46672758047E+03  0.41800000000E+01 0. -1.
         -5    1    3    3    0  502 -0.75826635185E+01 -0.65884181838E+02 -0.24151387671E+03  0.25048881661E+03  0.41800000000E+01 0. -1.
        -11    1    1    2    0    0 -0.10789108510E+03  0.90335814583E+02 -0.19591509302E+03  0.24121312011E+03  0.00000000000E+00 0. -1.
         11    1    1    2    0    0 -0.35545157511E+02  0.12286094279E+03 -0.26555070436E+03  0.29474640977E+03  0.00000000000E+00 0.  1.
</event>
<event>
 7    1  0.2440960E-009  0.2902155E+03  0.7561462E-02  0.1090237E+00
         -1   -1    0    0    0  501 -0.00000000000E+00  0.00000000000E+00  0.52088725389E+03  0.52088725389E+03  0.00000000000E+00 0.  1.
          1   -1    0    0  501    0  0.00000000000E+00 -0.00000000000E+00 -0.18903455741E+03  0.18903455741E+03  0.00000000000E+00 0. -1.
         25    2    1    2    0    0  0.25371778756E+03  0.12273262291E+03  0.26001604326E+03  0.40334885604E+03  0.12508374981E+03 0.  0.
          5    1    3    3  502    0  0.25370501121E+03  0.11373763730E+03  0.20000324358E+03  0.34252190104E+03  0.41800000000E+01 0. -1.
         -5    1    3    3    0  502  0.12776354557E-01  0.89949856050E+01  0.60012799677E+02  0.60826954998E+02  0.41800000000E+01 0. -1.
        -11    1    1    2    0    0 -0.20805341660E+03 -0.63244468326E+02  0.26809680731E+02  0.21910008196E+03  0.00000000000E+00 0.  1.
         11    1    1    2    0    0 -0.45664370963E+02 -0.59488154582E+02  0.45026972485E+02  0.87472873293E+02  0.00000000000E+00 0. -1.
</event>
<event>
 7    1  0.2440960E-009  0.1608244E+03  0.7561462E-02  0.1187769E+00
         -1   -1    0    0    0  501 -0.00000000000E+00  0.00000000000E+00  0.25684664783E+02  0.25684664783E+02  0.00000000000E+00 0.  1.
          1   -1    0    0  501    0  0.00000000000E+00 -0.00000000000E+00 -0.10529147531E+04  0.10529147531E+04  0.00000000000E+00 0. -1.
         25    2    1    2    0    0  0.61893999713E+02  0.10494738187E+03 -0.60878762185E+03  0.63333737746E+03  0.12509614303E+03 0.  0.
          5    1    3    3  502    0  0.94885173905E+01  0.11643424077E+03 -0.34969123778E+03  0.36871180964E+03  0.41800000000E+01 0. -1.
         -5    1    3    3    0  502  0.52405482322E+02 -0.11486858898E+02 -0.25909638407E+03  0.26462556782E+03  0.41800000000E+01 0. -1.
        -11    1    1    2    0    0 -0.84925221903E+02 -0.88386333815E+02 -0.31523487101E+03  0.33822693746E+03  0.00000000000E+00 0.  1.
         11    1    1    2    0    0  0.23031222190E+02 -0.16561048057E+02 -0.10320759550E+03  0.10703510302E+03  0.00000000000E+00 0. -1.
</event>
<event>
 7    1  0.2440960E-009  0.1418009E+03  0.7561462E-02  0.1210926E+00
         -1   -1    0    0    0  501 -0.00000000000E+00  0.00000000000E+00  0.28942989632E+02  0.28942989632E+02  0.00000000000E+00 0.  1.
          1   -1    0    0  501    0  0.00000000000E+00 -0.00000000000E+00 -0.70363000683E+03  0.70363000683E+03  0.00000000000E+00 0. -1.
         25    2    1    2    0    0  0.89183060760E+02 -0.20067112648E+02 -0.32752844772E+03  0.36232363849E+03  0.12508887883E+03 0.  0.
          5    1    3    3  502    0  0.97658602380E+02 -0.59464910709E+02 -0.24144385142E+03  0.26718136914E+03  0.41800000000E+01 0.  1.
         -5    1    3    3    0  502 -0.84755416207E+01  0.39397798060E+02 -0.86084596299E+02  0.95142269353E+02  0.41800000000E+01 0.  1.
        -11    1    1    2    0    0 -0.64903289662E+02  0.55717424543E+02 -0.23485479891E+03  0.24994728440E+03  0.00000000000E+00 0. -1.
         11    1    1    2    0    0 -0.24279771098E+02 -0.35650311895E+02 -0.11230377056E+03  0.12030207357E+03  0.00000000000E+00 0.  1.
</event>
<event>
 7    1  0.2440960E-009  0.1088009E+03  0.7561462E-02  0.1262807E+00
         -1   -1    0    0    0  501 -0.00000000000E+00  0.00000000000E+00  0.28919890285E+02  0.28919890285E+02  0.00000000000E+00 0.  1.
          1   -1    0    0  501    0  0.00000000000E+00 -0.00000000000E+00 -0.58589494494E+03  0.58589494494E+03  0.00000000000E+00 0. -1.
         25    2    1    2    0    0  0.26906267272E+02 -0.53576372890E+02 -0.39045233094E+03  0.41436173235E+03  0.12509295562E+03 0.  0.
          5    1    3    3  502    0  0.48720531308E+02  0.22430061182E+02 -0.10301870696E+03  0.11622015401E+03  0.41800000000E+01 0. -1.
         -5    1    3    3    0  502 -0.21814264035E+02 -0.76006434073E+02 -0.28743362398E+03  0.29814157834E+03  0.41800000000E+01 0. -1.
        -11    1    1    2    0    0 -0.32862654099E+02  0.22418104292E+01 -0.82493383677E+01  0.33956315053E+02  0.00000000000E+00 0.  1.
         11    1    1    2    0    0  0.59563868269E+01  0.51334562461E+02 -0.15827338535E+03  0.16649678783E+03  0.00000000000E+00 0. -1.
</event>
<event>
 7    1  0.2440960E-009  0.1170184E+03  0.7561462E-02  0.1248098E+00
         -1   -1    0    0    0  501 -0.00000000000E+00  0.00000000000E+00  0.28931140152E+02  0.28931140152E+02  0.00000000000E+00 0.  1.
          1   -1    0    0  501    0  0.00000000000E+00 -0.00000000000E+00 -0.54803943367E+03  0.54803943367E+03  0.00000000000E+00 0. -1.
         25    2    1    2    0    0  0.54849322509E+02 -0.34238541212E+02 -0.31494345906E+03  0.34499066477E+03  0.12509376679E+03 0.  0.
          5    1    3    3  502    0  0.75945174123E+02  0.82011294491E+01 -0.26579805081E+03  0.27658814908E+03  0.41800000000E+01 0. -1.
         -5    1    3    3    0  502 -0.21095851614E+02 -0.42439670661E+02 -0.49145408256E+02  0.68402515697E+02  0.41800000000E+01 0. -1.
        -11    1    1    2    0    0  0.35294732830E+01 -0.25903035519E+02 -0.43003103009E+02  0.50325851201E+02  0.00000000000E+00 0. -1.
         11    1    1    2    0    0 -0.58378795792E+02  0.60141576731E+02 -0.16116173145E+03  0.18165405785E+03  0.00000000000E+00 0.  1.
</event>
<event>
 7    1  0.2440960E-009  0.7659010E+02  0.7561462E-02  0.1339017E+00
          2   -1    0    0  501    0  0.00000000000E+00  0.00000000000E+00  0.52356261588E+03  0.52356261588E+03  0.00000000000E+00 0. -1.
         -2   -1    0    0    0  501 -0.00000000000E+00 -0.00000000000E+00 -0.22351394980E+02  0.22351394980E+02  0.00000000000E+00 0.  1.
         25    2    1    2    0    0 -0.20527290222E+02 -0.14900990650E+02  0.33075481514E+03  0.35452611608E+03  0.12508641046E+03 0.  0.
          5    1    3    3  502    0  0.31018294971E+02  0.23138296317E+02  0.36533913775E+02  0.53382718506E+02  0.41800000000E+01 0. -1.
         -5    1    3    3    0  502 -0.51545585193E+02 -0.38039286967E+02  0.29422090136E+03  0.30114339758E+03  0.41800000000E+01 0. -1.
        -11    1    1    2    0    0 -0.10303846894E+02 -0.68098383932E+01 -0.39379017078E+01  0.12963418901E+02  0.00000000000E+00 0.  1.
         11    1    1    2    0    0  0.30831137116E+02  0.21710829043E+02  0.17439430747E+03  0.17842447588E+03  0.00000000000E+00 0. -1.
</event>
<event>
 7    1  0.2440960E-009  0.1106448E+03  0.7561462E-02  0.1259380E+00
          2   -1    0    0  501    0  0.00000000000E+00  0.00000000000E+00  0.13435138743E+03  0.13435138743E+03  0.00000000000E+00 0. -1.
         -2   -1    0    0    0  501 -0.00000000000E+00 -0.00000000000E+00 -0.17695516575E+03  0.17695516575E+03  0.00000000000E+00 0.  1.
         25    2    1    2    0    0  0.64403829446E+02  0.45477759791E+02 -0.10000936589E+03  0.17850956683E+03  0.12509081621E+03 0.  0.
          5    1    3    3  502    0  0.16947036073E+02 -0.19125624720E+02 -0.94575668855E+02  0.98056213939E+02  0.41800000000E+01 0. -1.
         -5    1    3    3    0  502  0.47456793373E+02  0.64603384510E+02 -0.54336970387E+01  0.80453352888E+02  0.41800000000E+01 0. -1.
        -11    1    1    2    0    0 -0.55911298880E+02 -0.69760702206E+02  0.58848051832E+02  0.10703140716E+03  0.00000000000E+00 0.  1.
         11    1    1    2    0    0 -0.84925305656E+01  0.24282942415E+02 -0.14424642527E+01  0.25765579188E+02  0.00000000000E+00 0. -1.
</event>
<event>
 7    1  0.2891308E-009  0.1373343E+03  0.7561462E-02  0.1216962E+00
          2   -1    0    0  501    0  0.00000000000E+00  0.00000000000E+00  0.92173358985E+03  0.92173358985E+03  0.00000000000E+00 0. -1.
         -2   -1    0    0    0  501 -0.00000000000E+00 -0.00000000000E+00 -0.35296908746E+02  0.35296908746E+02  0.00000000000E+00 0.  1.
         25    2    1    2    0    0  0.11991536694E+03 -0.20811899378E+02  0.66973416518E+03  0.69210145925E+03  0.12509095692E+03 0.  0.
          5    1    3    3  502    0  0.13611132739E+02 -0.37143078727E+01  0.10075061374E+01  0.14749457143E+02  0.41800000000E+01 0. -1.
         -5    1    3    3    0  502  0.10630423420E+03 -0.17097591505E+02  0.66872665904E+03  0.67735200210E+03  0.41800000000E+01 0. -1.
        -11    1    1    2    0    0 -0.47265646641E+02 -0.36458595195E+02  0.91733650368E+02  0.10944557152E+03  0.00000000000E+00 0. -1.
         11    1    1    2    0    0 -0.72649720301E+02  0.57270494573E+02  0.12496886556E+03  0.15548346783E+03  0.00000000000E+00 0.  1.
</event>
<event>
 7    1  0.2440960E-009  0.8995720E+02  0.7561462E-02  0.1302955E+00
          2   -1    0    0  501    0  0.00000000000E+00  0.00000000000E+00  0.44754237412E+03  0.44754237412E+03  0.00000000000E+00 0.  1.
         -2   -1    0    0    0  501 -0.00000000000E+00 -0.00000000000E+00 -0.27796565337E+02  0.27796565337E+02  0.00000000000E+00 0. -1.
         25    2    1    2    0    0  0.14349448846E+02 -0.10587964885E+02  0.27076123976E+03  0.29879315320E+03  0.12509071812E+03 0.  0.
          5    1    3    3  502    0  0.75805844390E+01 -0.54001690339E+02  0.51461439506E+02  0.75095938479E+02  0.41800000000E+01 0. -1.
         -5    1    3    3    0  502  0.67688644069E+01  0.43413725454E+02  0.21929980025E+03  0.22369721472E+03  0.41800000000E+01 0. -1.
        -11    1    1    2    0    0 -0.35457226945E+02  0.34305687020E+02  0.13116502787E+03  0.14013693175E+03  0.00000000000E+00 0.  1.
         11    1    1    2    0    0  0.21107778099E+02 -0.23717722135E+02  0.17819541156E+02  0.36408854508E+02  0.00000000000E+00 0. -1.
</event>
<event>
 7    1  0.2815723E-009  0.1127167E+03  0.7561462E-02  0.1255620E+00
         -2   -1    0    0    0  501 -0.00000000000E+00  0.00000000000E+00  0.57155986277E+02  0.57155986277E+02  0.00000000000E+00 0.  1.
          2   -1    0    0  501    0  0.00000000000E+00 -0.00000000000E+00 -0.38753423715E+03  0.38753423715E+03  0.00000000000E+00 0. -1.
         25    2    1    2    0    0  0.50631529579E+02  0.84763850165E+02 -0.14331327986E+03  0.21433086173E+03  0.12510219832E+03 0.  0.
          5    1    3    3  502    0  0.69069377671E+02  0.75218450979E+02 -0.15827093277E+03  0.18840264027E+03  0.41800000000E+01 0. -1.
         -5    1    3    3    0  502 -0.18437848092E+02  0.95453991860E+01  0.14957652909E+02  0.25928221466E+02  0.41800000000E+01 0. -1.
        -11    1    1    2    0    0 -0.45193979506E+00 -0.20548503299E+02  0.54852277172E+01  0.21272822110E+02  0.00000000000E+00 0.  1.
         11    1    1    2    0    0 -0.50179589784E+02 -0.64215346866E+02 -0.19255019872E+03  0.20908653958E+03  0.00000000000E+00 0. -1.
</event>
<event>
 7    1  0.2440960E-009  0.3284519E+03  0.7561462E-02  0.1071824E+00
          1   -1    0    0  501    0  0.00000000000E+00  0.00000000000E+00  0.22243665160E+03  0.22243665160E+03  0.00000000000E+00 0. -1.
         -1   -1    0    0    0  501 -0.00000000000E+00 -0.00000000000E+00 -0.51908204989E+03  0.51908204989E+03  0.00000000000E+00 0.  1.
         25    2    1    2    0    0 -0.28293888660E+03 -0.15022590865E+03 -0.11848722797E+03  0.36374263771E+03  0.12508895284E+03 0.  0.
          5    1    3    3  502    0 -0.15871775507E+03 -0.11627480384E+03 -0.12765338718E+03  0.23457198350E+03  0.41800000000E+01 0. -1.
         -5    1    3    3    0  502 -0.12422113153E+03 -0.33951104807E+02  0.91661592193E+01  0.12917065421E+03  0.41800000000E+01 0. -1.
        -11    1    1    2    0    0  0.54805148027E+02 -0.54486452048E+01 -0.15354280117E+02  0.57175570856E+02  0.00000000000E+00 0. -1.
         11    1    1    2    0    0  0.22813373857E+03  0.15567455385E+03 -0.16280389021E+03  0.32060049292E+03  0.00000000000E+00 0.  1.
</event>
<event>
 7    1  0.2440960E-009  0.1362403E+03  0.7561462E-02  0.1218479E+00
          1   -1    0    0  501    0  0.00000000000E+00  0.00000000000E+00  0.66749466474E+03  0.66749466474E+03  0.00000000000E+00 0. -1.
         -1   -1    0    0    0  501 -0.00000000000E+00 -0.00000000000E+00 -0.43168847631E+02  0.43168847631E+02  0.00000000000E+00 0.  1.
         25    2    1    2    0    0 -0.89517345200E+02 -0.84800513858E+02  0.42487835587E+03  0.45975783688E+03  0.12510463237E+03 0.  0.
          5    1    3    3  502    0  0.65553015366E+01 -0.34220642756E+02  0.25961359413E+03  0.26197464576E+03  0.41800000000E+01 0.  1.
         -5    1    3    3    0  502 -0.96072646737E+02 -0.50579871102E+02  0.16526476175E+03  0.19778319111E+03  0.41800000000E+01 0.  1.
        -11    1    1    2    0    0  0.44702904939E+02  0.66933623989E+02  0.18302646170E+03  0.19994285537E+03  0.00000000000E+00 0. -1.
         11    1    1    2    0    0  0.44814440262E+02  0.17866889869E+02  0.16420999541E+02  0.50962820129E+02  0.00000000000E+00 0.  1.
</event>
<event>
 7    1  0.2440960E-009  0.9667853E+02  0.7561462E-02  0.1287440E+00
          1   -1    0    0  501    0  0.00000000000E+00  0.00000000000E+00  0.89387740641E+02  0.89387740641E+02  0.00000000000E+00 0. -1.
         -1   -1    0    0    0  501 -0.00000000000E+00 -0.00000000000E+00 -0.16968766822E+03  0.16968766822E+03  0.00000000000E+00 0.  1.
         25    2    1    2    0    0 -0.13251747650E+02  0.57186880896E+01  0.57283890606E+01  0.12604479725E+03  0.12508462840E+03 0.  0.
          5    1    3    3  502    0  0.53455366696E+02 -0.67009115899E+01 -0.12905142290E+02  0.55555319657E+02  0.41800000000E+01 0.  1.
         -5    1    3    3    0  502 -0.66707114346E+02  0.12419599680E+02  0.18633531350E+02  0.70489477592E+02  0.41800000000E+01 0.  1.
        -11    1    1    2    0    0 -0.21375721617E+02  0.19156295459E+02 -0.85715209864E+02  0.90393486117E+02  0.00000000000E+00 0.  1.
         11    1    1    2    0    0  0.34627469267E+02 -0.24874983549E+02 -0.31310677210E+00  0.42637125492E+02  0.00000000000E+00 0. -1.
</event>
<event>
 7    1  0.2440960E-009  0.1294028E+03  0.7561462E-02  0.1228345E+00
         -2   -1    0    0    0  501 -0.00000000000E+00  0.00000000000E+00  0.13072419315E+02  0.13072419315E+02  0.00000000000E+00 0.  1.
          2   -1    0    0  501    0  0.00000000000E+00 -0.00000000000E+00 -0.12977251944E+04  0.12977251944E+04  0.00000000000E+00 0. -1.
         25    2    1    2    0    0  0.53597100757E+02 -0.50928237510E+02 -0.73562698766E+03  0.74984094070E+03  0.12509211321E+03 0.  0.
          5    1    3    3  502    0  0.27198728828E+02  0.41047942921E+02 -0.23680713897E+03  0.24190865618E+03  0.41800000000E+01 0. -1.
         -5    1    3    3    0  502  0.26398371929E+02 -0.91976180430E+02 -0.49881984869E+03  0.50793228452E+03  0.41800000000E+01 0. -1.
        -11    1    1    2    0    0 -0.51004048582E+02 -0.10541510034E+02 -0.20770817789E+03  0.21413832812E+03  0.00000000000E+00 0.  1.
         11    1    1    2    0    0 -0.25930521754E+01  0.61469747544E+02 -0.34131760955E+03  0.34681834492E+03  0.00000000000E+00 0. -1.
</event>
<event>
 7    1  0.2440960E-009  0.1207642E+03  0.7561462E-02  0.1241842E+00
          1   -1    0    0  501    0  0.00000000000E+00  0.00000000000E+00  0.33508319950E+03  0.33508319950E+03  0.00000000000E+00 0. -1.
         -1   -1    0    0    0  501 -0.00000000000E+00 -0.00000000000E+00 -0.57465345085E+02  0.57465345085E+02  0.00000000000E+00 0.  1.
         25    2    1    2    0    0  0.67880077473E+02  0.46652653917E+02  0.17856028678E+03  0.23305587030E+03  0.12508831933E+03 0.  0.
          5    1    3    3  502    0  0.87278974462E+02  0.71610490273E+02  0.16091587394E+03  0.19661401930E+03  0.41800000000E+01 0. -1.
         -5    1    3    3    0  502 -0.19398896989E+02 -0.24957836356E+02  0.17644412843E+02  0.36441851003E+02  0.41800000000E+01 0. -1.
        -11    1    1    2    0    0 -0.48872104188E+02 -0.56954495536E+02  0.11160782157E+03  0.13449387705E+03  0.00000000000E+00 0. -1.
         11    1    1    2    0    0 -0.19007973285E+02  0.10301841618E+02 -0.12550253933E+02  0.24998797229E+02  0.00000000000E+00 0.  1.
</event>
<event>
 7    1  0.2440960E-009  0.1375312E+03  0.7561462E-02  0.1216690E+00
          2   -1    0    0  501    0  0.00000000000E+00  0.00000000000E+00  0.38215635104E+02  0.38215635104E+02  0.00000000000E+00 0. -1.
         -2   -1    0    0    0  501 -0.00000000000E+00 -0.00000000000E+00 -0.60329407710E+03  0.60329407710E+03  0.00000000000E+00 0.  1.
         25    2    1    2    0    0  0.96999615003E+02 -0.42446490600E+02 -0.28398706662E+03  0.32788241796E+03  0.12509035186E+03 0.  0.
          5    1    3    3  502    0  0.27362890184E+02 -0.61869707738E+02 -0.53688250747E+02  0.86466693953E+02  0.41800000000E+01 0. -1.
         -5    1    3    3    0  502  0.69636724819E+02  0.19423217138E+02 -0.23029881587E+03  0.24141572401E+03  0.41800000000E+01 0. -1.
        -11    1    1    2    0    0  0.50309895743E+01  0.31898796995E+02 -0.10483897635E+03  0.10969984079E+03  0.00000000000E+00 0.  1.
         11    1    1    2    0    0 -0.10203060458E+03  0.10547693605E+02 -0.17625239903E+03  0.20392745346E+03  0.00000000000E+00 0. -1.
</event>
<event>
 7    1  0.2440960E-009  0.1442129E+03  0.7561462E-02  0.1207770E+00
          1   -1    0    0  501    0  0.00000000000E+00  0.00000000000E+00  0.24119149497E+03  0.24119149497E+03  0.00000000000E+00 0. -1.
         -1   -1    0    0    0  501 -0.00000000000E+00 -0.00000000000E+00 -0.10832984561E+03  0.10832984561E+03  0.00000000000E+00 0.  1.
         25    2    1    2    0    0  0.90343426785E+02 -0.73119729525E+02  0.38530848826E+02  0.17503785523E+03  0.12508075329E+03 0.  0.
          5    1    3    3  502    0  0.12187050717E+03 -0.54728450087E+02  0.25593816298E+02  0.13608871959E+03  0.41800000000E+01 0.  1.
         -5    1    3    3    0  502 -0.31527080381E+02 -0.18391279438E+02  0.12937032528E+02  0.38949135643E+02  0.41800000000E+01 0.  1.
        -11    1    1    2    0    0 -0.49702961773E+02  0.27023878243E+02  0.97743604158E+02  0.11293576297E+03  0.00000000000E+00 0. -1.
         11    1    1    2    0    0 -0.40640465012E+02  0.46095851281E+02 -0.34128036182E+01  0.61547722381E+02  0.00000000000E+00 0.  1.
</event>
<event>
 7    1  0.2440960E-009  0.1049871E+03  0.7561462E-02  0.1270145E+00
          1   -1    0    0  501    0  0.00000000000E+00  0.00000000000E+00  0.11174362003E+03  0.11174362003E+03  0.00000000000E+00 0. -1.
         -1   -1    0    0    0  501 -0.00000000000E+00 -0.00000000000E+00 -0.16689049146E+03  0.16689049146E+03  0.00000000000E+00 0.  1.
         25    2    1    2    0    0  0.78808585266E+01  0.82053374708E+02 -0.18046950076E+02  0.15089170719E+03  0.12509096953E+03 0.  0.
          5    1    3    3  502    0  0.37607530036E+02  0.35217905611E+02  0.43766272692E+02  0.67731722379E+02  0.41800000000E+01 0. -1.
         -5    1    3    3    0  502 -0.29726671509E+02  0.46835469096E+02 -0.61813222768E+02  0.83159984809E+02  0.41800000000E+01 0. -1.
        -11    1    1    2    0    0  0.26629322667E+02 -0.42566077291E+02  0.16406035785E+02  0.52821868310E+02  0.00000000000E+00 0. -1.
         11    1    1    2    0    0 -0.34510181194E+02 -0.39487297417E+02 -0.53505957136E+02  0.74920535986E+02  0.00000000000E+00 0.  1.
</event>
<event>
 7    1  0.2440960E-009  0.9848715E+02  0.7561462E-02  0.1283510E+00
          3   -1    0    0  501    0  0.00000000000E+00  0.00000000000E+00  0.56654203642E+02  0.56654203642E+02  0.00000000000E+00 0. -1.
         -3   -1    0    0    0  501 -0.00000000000E+00 -0.00000000000E+00 -0.22887849781E+03  0.22887849781E+03  0.00000000000E+00 0.  1.
         25    2    1    2    0    0 -0.26027740992E+01  0.30217178382E+02 -0.13104918961E+03  0.18368639700E+03  0.12508776937E+03 0.  0.
          5    1    3    3  502    0 -0.44447356865E+02 -0.10143950781E+02 -0.11416514087E+03  0.12300251648E+03  0.41800000000E+01 0.  1.
         -5    1    3    3    0  502  0.41844582766E+02  0.40361129162E+02 -0.16884048738E+02  0.60683880527E+02  0.41800000000E+01 0.  1.
        -11    1    1    2    0    0  0.37495753119E+02  0.10832708770E+02 -0.13657855348E+02  0.41349922539E+02  0.00000000000E+00 0. -1.
         11    1    1    2    0    0 -0.34892979020E+02 -0.41049887151E+02 -0.27517249214E+02  0.60496381911E+02  0.00000000000E+00 0.  1.
</event>
<event>
 7    1  0.2440960E-009  0.1040042E+03  0.7561462E-02  0.1272094E+00
         -3   -1    0    0    0  501 -0.00000000000E+00  0.00000000000E+00  0.11739247104E+03  0.11739247104E+03  0.00000000000E+00 0.  1.
          3   -1    0    0  501    0  0.00000000000E+00 -0.00000000000E+00 -0.11191684667E+03  0.11191684667E+03  0.00000000000E+00 0. -1.
         25    2    1    2    0    0  0.19068517834E+02 -0.33005999424E+00  0.35156419602E+02  0.13133426529E+03  0.12509595553E+03 0.  0.
          5    1    3    3  502    0 -0.51226701161E+02 -0.58215197178E+00 -0.25333842615E+01  0.51462649063E+02  0.41800000000E+01 0. -1.
         -5    1    3    3    0  502  0.70295218996E+02  0.25209197754E+00  0.37689803864E+02  0.79871616231E+02  0.41800000000E+01 0. -1.
        -11    1    1    2    0    0 -0.52023486967E+02  0.72162304269E+01  0.84701695804E+00  0.52528417219E+02  0.00000000000E+00 0. -1.
         11    1    1    2    0    0  0.32954969133E+02 -0.68861704327E+01 -0.30527812185E+02  0.45446635195E+02  0.00000000000E+00 0.  1.
</event>
<event>
 7    1  0.2440960E-009  0.1055249E+03  0.7561462E-02  0.1269089E+00
          1   -1    0    0  501    0  0.00000000000E+00  0.00000000000E+00  0.43795525488E+02  0.43795525488E+02  0.00000000000E+00 0. -1.
         -1   -1    0    0    0  501 -0.00000000000E+00 -0.00000000000E+00 -0.28351891715E+03  0.28351891715E+03  0.00000000000E+00 0.  1.
         25    2    1    2    0    0 -0.23344504312E+02 -0.50490234874E+01 -0.15295096019E+03  0.19902525823E+03  0.12508636485E+03 0.  0.
          5    1    3    3  502    0  0.43383158387E+02 -0.33019702958E+02 -0.60383519405E+02  0.81461899259E+02  0.41800000000E+01 0. -1.
         -5    1    3    3    0  502 -0.66727662700E+02  0.27970679471E+02 -0.92567440781E+02  0.11756335897E+03  0.41800000000E+01 0. -1.
        -11    1    1    2    0    0  0.46042273515E+00  0.41150517120E+02 -0.13229839065E+02  0.43227372000E+02  0.00000000000E+00 0.  1.
         11    1    1    2    0    0  0.22884081577E+02 -0.36101493633E+02 -0.73542592414E+02  0.85061812414E+02  0.00000000000E+00 0. -1.
</event>
<event>
 7    1  0.2440960E-009  0.1598554E+03  0.7561462E-02  0.1188860E+00
         -1   -1    0    0    0  501 -0.00000000000E+00  0.00000000000E+00  0.30148377439E+03  0.30148377439E+03  0.00000000000E+00 0.  1.
          1   -1    0    0  501    0  0.00000000000E+00 -0.00000000000E+00 -0.15966732280E+03  0.15966732280E+03  0.00000000000E+00 0. -1.
         25    2    1    2    0    0 -0.13893911190E+03 -0.17217842143E+02  0.20968312592E+03  0.28145351329E+03  0.12509410835E+03 0.  0.
          5    1    3    3  502    0 -0.15279317878E+03 -0.85347531646E+01  0.13255788385E+03  0.20250348753E+03  0.41800000000E+01 0.  1.
         -5    1    3    3    0  502  0.13854066874E+02 -0.86830889788E+01  0.77125242069E+02  0.78950025759E+02  0.41800000000E+01 0.  1.
        -11    1    1    2    0    0  0.11646669965E+03 -0.70393559602E+01 -0.83143714669E+02  0.14327219531E+03  0.00000000000E+00 0.  1.
         11    1    1    2    0    0  0.22472412253E+02  0.24257198104E+02  0.15277040331E+02  0.36425388585E+02  0.00000000000E+00 0. -1.
</event>
<event>
 7    1  0.2440960E-009  0.1252201E+03  0.7561462E-02  0.1234726E+00
          1   -1    0    0  501    0  0.00000000000E+00  0.00000000000E+00  0.25343089630E+03  0.25343089630E+03  0.00000000000E+00 0. -1.
         -1   -1    0    0    0  501 -0.00000000000E+00 -0.00000000000E+00 -0.82895970791E+02  0.82895970791E+02  0.00000000000E+00 0.  1.
         25    2    1    2    0    0 -0.46018252226E+02  0.81375516680E+02  0.11230884970E+03  0.19235217316E+03  0.12508567681E+03 0.  0.
          5    1    3    3  502    0 -0.51015995679E+01  0.77653801611E+02  0.12658901393E+03  0.14865527260E+03  0.41800000000E+01 0.  1.
         -5    1    3    3    0  502 -0.40916652658E+02  0.37217150685E+01 -0.14280164232E+02  0.43696900557E+02  0.41800000000E+01 0.  1.
        -11    1    1    2    0    0  0.72979296693E+02 -0.44318838884E+02  0.43601652180E+02  0.95870961707E+02  0.00000000000E+00 0.  1.
         11    1    1    2    0    0 -0.26961044468E+02 -0.37056677796E+02  0.14624423631E+02  0.48103732232E+02  0.00000000000E+00 0. -1.
</event>
<event>
 7    1  0.2440960E-009  0.1190606E+03  0.7561462E-02  0.1244655E+00
         -1   -1    0    0    0  501 -0.00000000000E+00  0.00000000000E+00  0.72783060035E+03  0.72783060035E+03  0.00000000000E+00 0.  1.
          1   -1    0    0  501    0  0.00000000000E+00 -0.00000000000E+00 -0.29949332331E+02  0.29949332331E+02  0.00000000000E+00 0. -1.
         25    2    1    2    0    0 -0.99703031466E+02  0.63637665027E+01  0.36817440864E+03  0.40147515925E+03  0.12509482926E+03 0.  0.
          5    1    3    3  502    0 -0.92500207077E+02  0.25460179080E+02  0.12608524519E+03  0.15849123156E+03  0.41800000000E+01 0.  1.
         -5    1    3    3    0  502 -0.72028243888E+01 -0.19096412577E+02  0.24208916345E+03  0.24298392769E+03  0.41800000000E+01 0.  1.
        -11    1    1    2    0    0  0.99559436796E+02  0.14309964272E+02  0.31569175766E+03  0.33132784728E+03  0.00000000000E+00 0.  1.
         11    1    1    2    0    0  0.14359467006E+00 -0.20673730775E+02  0.14015101722E+02  0.24976926149E+02  0.00000000000E+00 0. -1.
</event>
<event>
 7    1  0.2440960E-009  0.1121431E+03  0.7561462E-02  0.1256652E+00
         -1   -1    0    0    0  501 -0.00000000000E+00  0.00000000000E+00  0.34702361781E+03  0.34702361781E+03  0.00000000000E+00 0.  1.
          1   -1    0    0  501    0  0.00000000000E+00 -0.00000000000E+00 -0.53000641674E+02  0.53000641674E+02  0.00000000000E+00 0. -1.
         25    2    1    2    0    0  0.10522825306E+02  0.70049309137E+02  0.10267631340E+03  0.17665610108E+03  0.12508923675E+03 0.  0.
          5    1    3    3  502    0 -0.41359168989E+02 -0.25885646843E+01  0.15148797395E+01  0.41677917260E+02  0.41800000000E+01 0. -1.
         -5    1    3    3    0  502  0.51881994294E+02  0.72637873821E+02  0.10116143366E+03  0.13497818382E+03  0.41800000000E+01 0. -1.
        -11    1    1    2    0    0  0.21621697432E+02 -0.52213274355E+02  0.44330500628E+02  0.71825602014E+02  0.00000000000E+00 0. -1.
         11    1    1    2    0    0 -0.32144522738E+02 -0.17836034781E+02  0.14701616210E+03  0.15154255639E+03  0.00000000000E+00 0.  1.
</event>
<event>
 7    1  0.2440960E-009  0.1274340E+03  0.7561462E-02  0.1231314E+00
         -2   -1    0    0    0  501 -0.00000000000E+00  0.00000000000E+00  0.26756174053E+02  0.26756174053E+02  0.00000000000E+00 0.  1.
          2   -1    0    0  501    0  0.00000000000E+00 -0.00000000000E+00 -0.14194810571E+04  0.14194810571E+04  0.00000000000E+00 0. -1.
         25    2    1    2    0    0  0.70588005221E+02 -0.78418095818E+02 -0.11857848721E+04  0.11970229589E+04  0.12508452003E+03 0.  0.
          5    1    3    3  502    0  0.33529129250E+01 -0.81011161858E+02 -0.88794048023E+03  0.89164444663E+03  0.41800000000E+01 0.  1.
         -5    1    3    3    0  502  0.67235092296E+02  0.25930660405E+01 -0.29784439185E+03  0.30537851232E+03  0.41800000000E+01 0.  1.
        -11    1    1    2    0    0 -0.62133710625E+02  0.61879124135E+02 -0.21245301923E+03  0.22983887700E+03  0.00000000000E+00 0. -1.
         11    1    1    2    0    0 -0.84542945961E+01  0.16538971682E+02  0.55130082246E+01  0.19375395250E+02  0.00000000000E+00 0.  1.
</event>
<event>
 7    1  0.2440960E-009  0.9616209E+02  0.7561462E-02  0.1288580E+00
          1   -1    0    0  501    0  0.00000000000E+00  0.00000000000E+00  0.10301389135E+03  0.10301389135E+03  0.00000000000E+00 0. -1.
         -1   -1    0    0    0  501 -0.00000000000E+00 -0.00000000000E+00 -0.12103349407E+03  0.12103349407E+03  0.00000000000E+00 0.  1.
         25    2    1    2    0    0 -0.47697881626E+01  0.68784060381E+01 -0.19256410373E+02  0.12684202704E+03  0.12509207463E+03 0.  0.
          5    1    3    3  502    0 -0.29724207842E+02 -0.47022391666E+02 -0.34221401787E+02  0.65446241986E+02  0.41800000000E+01 0.  1.
         -5    1    3    3    0  502  0.24954419679E+02  0.53900797704E+02  0.14964991414E+02  0.61395785056E+02  0.41800000000E+01 0.  1.
        -11    1    1    2    0    0 -0.32045095675E+02  0.13662743870E+02  0.30161432293E+02  0.46078961846E+02  0.00000000000E+00 0. -1.
         11    1    1    2    0    0  0.36814883837E+02 -0.20541149908E+02 -0.28924624640E+02  0.51126396529E+02  0.00000000000E+00 0.  1.
</event>
<event>
 7    1  0.2548004E-009  0.1150880E+03  0.7561462E-02  0.1251428E+00
          2   -1    0    0  501    0  0.00000000000E+00  0.00000000000E+00  0.48177396182E+03  0.48177396182E+03  0.00000000000E+00 0. -1.
         -2   -1    0    0    0  501 -0.00000000000E+00 -0.00000000000E+00 -0.35404876697E+02  0.35404876697E+02  0.00000000000E+00 0.  1.
         25    2    1    2    0    0  0.64550204213E+02 -0.23718293776E+02  0.28987424961E+03  0.32311650410E+03  0.12509159967E+03 0.  0.
          5    1    3    3  502    0  0.19981519602E+02  0.51350947393E+02  0.11778901703E+03  0.13010728594E+03  0.41800000000E+01 0.  1.
         -5    1    3    3    0  502  0.44568684610E+02 -0.75069241168E+02  0.17208523259E+03  0.19300921815E+03  0.41800000000E+01 0.  1.
        -11    1    1    2    0    0 -0.30867214978E+02  0.39653525951E+02  0.22636524302E+02  0.55114420194E+02  0.00000000000E+00 0.  1.
         11    1    1    2    0    0 -0.33682989234E+02 -0.15935232175E+02  0.13385831121E+03  0.13894791422E+03  0.00000000000E+00 0. -1.
</event>
<event>
 7    1  0.2440960E-009  0.1051478E+03  0.7561462E-02  0.1269829E+00
         -2   -1    0    0    0  501 -0.00000000000E+00  0.00000000000E+00  0.29448034339E+03  0.29448034339E+03  0.00000000000E+00 0. -1.
          2   -1    0    0  501    0  0.00000000000E+00 -0.00000000000E+00 -0.44741272797E+02  0.44741272797E+02  0.00000000000E+00 0.  1.
         25    2    1    2    0    0  0.13203106874E+02 -0.33285034519E+02  0.16129308537E+03  0.20723199163E+03  0.12508966149E+03 0.  0.
          5    1    3    3  502    0 -0.33192056826E+02  0.32055471262E+02  0.83358741634E+02  0.95369901337E+02  0.41800000000E+01 0. -1.
         -5    1    3    3    0  502  0.46395163701E+02 -0.65340505781E+02  0.77934343734E+02  0.11186209029E+03  0.41800000000E+01 0. -1.
        -11    1    1    2    0    0 -0.42878301009E+02  0.57997720008E+01  0.79578177917E+02  0.90580751009E+02  0.00000000000E+00 0. -1.
         11    1    1    2    0    0  0.29675194134E+02  0.27485262518E+02  0.88678073102E+01  0.41408873555E+02  0.00000000000E+00 0.  1.
</event>
<event>
 7    1  0.2440960E-009  0.1164310E+03  0.7561462E-02  0.1249104E+00
         -2   -1    0    0    0  501 -0.00000000000E+00  0.00000000000E+00  0.38530673345E+03  0.38530673345E+03  0.00000000000E+00 0.  1.
          2   -1    0    0  501    0  0.00000000000E+00 -0.00000000000E+00 -0.60500843997E+02  0.60500843997E+02  0.00000000000E+00 0. -1.
         25    2    1    2    0    0 -0.77952945912E+02  0.57422670162E+02  0.24319753983E+03  0.29011454468E+03  0.12508949128E+03 0.  0.
          5    1    3    3  502    0 -0.40225931379E+02  0.79256607436E+02  0.75188208550E+02  0.11649237950E+03  0.41800000000E+01 0. -1.
         -5    1    3    3    0  502 -0.37727014532E+02 -0.21833937274E+02  0.16800933128E+03  0.17362216517E+03  0.41800000000E+01 0. -1.
        -11    1    1    2    0    0  0.58711302766E+02 -0.55439833691E+02  0.98209862843E+01  0.81345215003E+02  0.00000000000E+00 0. -1.
         11    1    1    2    0    0  0.19241643146E+02 -0.19828364709E+01  0.71787363343E+02  0.74347817770E+02  0.00000000000E+00 0.  1.
</event>
<event>
 7    1  0.2440960E-009  0.1266182E+03  0.7561462E-02  0.1232562E+00
          1   -1    0    0  501    0  0.00000000000E+00  0.00000000000E+00  0.98495175983E+03  0.98495175983E+03  0.00000000000E+00 0. -1.
         -1   -1    0    0    0  501 -0.00000000000E+00 -0.00000000000E+00 -0.17452524161E+02  0.17452524161E+02  0.00000000000E+00 0.  1.
         25    2    1    2    0    0 -0.35055302904E+01  0.74038819879E+02  0.55591530257E+03  0.57461810275E+03  0.12510037883E+03 0.  0.
          5    1    3    3  502    0 -0.57658018701E+02  0.62907618722E+02  0.26386490132E+03  0.27735171563E+03  0.41800000000E+01 0.  1.
         -5    1    3    3    0  502  0.54152488411E+02  0.11131201157E+02  0.29205040125E+03  0.29726638712E+03  0.41800000000E+01 0.  1.
        -11    1    1    2    0    0 -0.20635566357E+02 -0.83811055741E+02  0.25922587752E+03  0.27321818249E+03  0.00000000000E+00 0.  1.
         11    1    1    2    0    0  0.24141096647E+02  0.97722358615E+01  0.15235805558E+03  0.15456799876E+03  0.00000000000E+00 0. -1.
</event>
<event>
 7    1  0.2440960E-009  0.1201193E+03  0.7561462E-02  0.1242900E+00
          2   -1    0    0  501    0  0.00000000000E+00  0.00000000000E+00  0.33439009145E+02  0.33439009145E+02  0.00000000000E+00 0. -1.
         -2   -1    0    0    0  501 -0.00000000000E+00 -0.00000000000E+00 -0.44989806245E+03  0.44989806245E+03  0.00000000000E+00 0.  1.
         25    2    1    2    0    0 -0.35154524095E+02  0.43398745914E+02 -0.22022791057E+03  0.25936006540E+03  0.12509204297E+03 0.  0.
          5    1    3    3  502    0  0.17238496500E+02 -0.35807515412E+02 -0.46376797719E+02  0.61217837991E+02  0.41800000000E+01 0.  1.
         -5    1    3    3    0  502 -0.52393020595E+02  0.79206261326E+02 -0.17385111285E+03  0.19814222740E+03  0.41800000000E+01 0.  1.
        -11    1    1    2    0    0  0.60715602655E+02 -0.50187073999E+02 -0.12245177196E+03  0.14560069800E+03  0.00000000000E+00 0. -1.
         11    1    1    2    0    0 -0.25561078560E+02  0.67883280849E+01 -0.73779370770E+02  0.78376308197E+02  0.00000000000E+00 0.  1.
</event>
<event>
 7    1  0.2440960E-009  0.1499094E+03  0.7561462E-02  0.1200584E+00
         -1   -1    0    0    0  501 -0.00000000000E+00  0.00000000000E+00  0.94332725764E+02  0.94332725764E+02  0.00000000000E+00 0.  1.
          1   -1    0    0  501    0  0.00000000000E+00 -0.00000000000E+00 -0.32669189780E+03  0.32669189780E+03  0.00000000000E+00 0. -1.
         25    2    1    2    0    0  0.83430397806E+02 -0.87032553827E+02 -0.20501174331E+03  0.26872144730E+03  0.12508439008E+03 0.  0.
          5    1    3    3  502    0  0.98834708660E+02 -0.31559709045E+02 -0.80178294545E+02  0.13118820902E+03  0.41800000000E+01 0. -1.
         -5    1    3    3    0  502 -0.15404310854E+02 -0.55472844781E+02 -0.12483344876E+03  0.13753323828E+03  0.41800000000E+01 0. -1.
        -11    1    1    2    0    0  0.10605807693E+02  0.74147409745E+00 -0.22149753640E+02  0.24569178394E+02  0.00000000000E+00 0. -1.
         11    1    1    2    0    0 -0.94036205499E+02  0.86291079729E+02 -0.51976750904E+01  0.12773399787E+03  0.00000000000E+00 0.  1.
</event>
<event>
 7    1  0.2440960E-009  0.1850948E+03  0.7561462E-02  0.1162961E+00
         -3   -1    0    0    0  501 -0.00000000000E+00  0.00000000000E+00  0.49737751182E+03  0.49737751182E+03  0.00000000000E+00 0.  1.
          3   -1    0    0  501    0  0.00000000000E+00 -0.00000000000E+00 -0.87849969459E+02  0.87849969459E+02  0.00000000000E+00 0. -1.
         25    2    1    2    0    0  0.16351711629E+03 -0.57120679161E+02  0.27190806805E+03  0.34580601929E+03  0.12508871333E+03 0.  0.
          5    1    3    3  502    0  0.52140181177E+02  0.23933347446E+02  0.15415870043E+03  0.16454112231E+03  0.41800000000E+01 0.  1.
         -5    1    3    3    0  502  0.11137693511E+03 -0.81054026607E+02  0.11774936762E+03  0.18126489698E+03  0.41800000000E+01 0.  1.
        -11    1    1    2    0    0 -0.66323091864E+02  0.10833764218E+02  0.32970439748E+01  0.67282935879E+02  0.00000000000E+00 0.  1.
         11    1    1    2    0    0 -0.97194024422E+02  0.46286914943E+02  0.13432243034E+03  0.17213852610E+03  0.00000000000E+00 0. -1.
</event>
<event>
 7    1  0.2440960E-009  0.1073490E+03  0.7561462E-02  0.1265559E+00
         -3   -1    0    0    0  501 -0.00000000000E+00  0.00000000000E+00  0.26024948321E+03  0.26024948321E+03  0.00000000000E+00 0.  1.
          3   -1    0    0  501    0  0.00000000000E+00 -0.00000000000E+00 -0.59730259385E+02  0.59730259385E+02  0.00000000000E+00 0. -1.
         25    2    1    2    0    0 -0.37229972983E+02 -0.15486649512E+02  0.52618635038E+02  0.14157344385E+03  0.12509361314E+03 0.  0.
          5    1    3    3  502    0  0.94888547623E+01  0.46958588277E+02  0.39812080812E+02  0.62430934290E+02  0.41800000000E+01 0.  1.
         -5    1    3    3    0  502 -0.46718827746E+02 -0.62445237789E+02  0.12806554226E+02  0.79142509561E+02  0.41800000000E+01 0.  1.
        -11    1    1    2    0    0  0.52211738146E+02  0.35772191448E+02  0.60929408551E+02  0.87852763802E+02  0.00000000000E+00 0. -1.
         11    1    1    2    0    0 -0.14981765162E+02 -0.20285541936E+02  0.86971180235E+02  0.90553534942E+02  0.00000000000E+00 0.  1.
</event>
<event>
 7    1  0.3050442E-009  0.1500436E+03  0.7561462E-02  0.1200419E+00
          2   -1    0    0  501    0  0.00000000000E+00  0.00000000000E+00  0.87027082987E+03  0.87027082987E+03  0.00000000000E+00 0. -1.
         -2   -1    0    0    0  501 -0.00000000000E+00 -0.00000000000E+00 -0.35490124801E+02  0.35490124801E+02  0.00000000000E+00 0.  1.
         25    2    1    2    0    0  0.12452441467E+03  0.53635494788E+02  0.50474796587E+03  0.53740422966E+03  0.12509876442E+03 0.  0.
          5    1    3    3  502    0  0.74160844231E+02  0.18010441738E+02  0.90009907239E+02  0.11808243997E+03  0.41800000000E+01 0.  1.
         -5    1    3    3    0  502  0.50363570435E+02  0.35625053050E+02  0.41473805863E+03  0.41932178969E+03  0.41800000000E+01 0.  1.
        -11    1    1    2    0    0 -0.12753798465E+03 -0.21245822484E+02  0.23974236616E+03  0.27238525039E+03  0.00000000000E+00 0. -1.
         11    1    1    2    0    0  0.30135699815E+01 -0.32389672304E+02  0.90290373044E+02  0.95971474618E+02  0.00000000000E+00 0.  1.
</event>
<event>
 7    1  0.2440960E-009  0.1265807E+03  0.7561462E-02  0.1232619E+00
         -2   -1    0    0    0  501 -0.00000000000E+00  0.00000000000E+00  0.37115660014E+03  0.37115660014E+03  0.00000000000E+00 0.  1.
          2   -1    0    0  501    0  0.00000000000E+00 -0.00000000000E+00 -0.54816914019E+02  0.54816914019E+02  0.00000000000E+00 0. -1.
         25    2    1    2    0    0  0.48111589690E+02  0.64041992531E+02  0.24132980050E+03  0.28337942654E+03  0.12509086660E+03 0.  0.
          5    1    3    3  502    0  0.42270392289E+02 -0.20771204496E+02  0.15538241467E+03  0.16241735187E+03  0.41800000000E+01 0.  1.
         -5    1    3    3    0  502  0.58411974006E+01  0.84813197027E+02  0.85947385831E+02  0.12096207467E+03  0.41800000000E+01 0.  1.
        -11    1    1    2    0    0 -0.32059243179E+02  0.18269394951E+02  0.29059977105E+02  0.46968586677E+02  0.00000000000E+00 0.  1.
         11    1    1    2    0    0 -0.16052346511E+02 -0.82311387482E+02  0.45949908515E+02  0.95625500941E+02  0.00000000000E+00 0. -1.
</event>
<event>
 7    1  0.2440960E-009  0.2379381E+03  0.7561462E-02  0.1121174E+00
          2   -1    0    0  501    0  0.00000000000E+00  0.00000000000E+00  0.14955374858E+04  0.14955374858E+04  0.00000000000E+00 0. -1.
         -2   -1    0    0    0  501 -0.00000000000E+00 -0.00000000000E+00 -0.58342359860E+02  0.58342359860E+02  0.00000000000E+00 0.  1.
         25    2    1    2    0    0 -0.22851281718E+03  0.39696575721E+01  0.11359057697E+04  0.11654026547E+04  0.12509022422E+03 0.  0.
          5    1    3    3  502    0 -0.30187021032E+02 -0.10030937598E+02  0.45290910517E+03  0.45404405722E+03  0.41800000000E+01 0. -1.
         -5    1    3    3    0  502 -0.19832579615E+03  0.14000595170E+02  0.68299666449E+03  0.71135859747E+03  0.41800000000E+01 0. -1.
        -11    1    1    2    0    0  0.74253585751E+02  0.40245266791E+02  0.11319454908E+03  0.14123130828E+03  0.00000000000E+00 0.  1.
         11    1    1    2    0    0  0.15425923143E+03 -0.44214924363E+02  0.18809480721E+03  0.24724588271E+03  0.00000000000E+00 0. -1.
</event>
<event>
 7    1  0.2440960E-009  0.2110901E+03  0.7561462E-02  0.1140706E+00
         -2   -1    0    0    0  501 -0.00000000000E+00  0.00000000000E+00  0.34369778074E+02  0.34369778074E+02  0.00000000000E+00 0.  1.
          2   -1    0    0  501    0  0.00000000000E+00 -0.00000000000E+00 -0.15289839363E+04  0.15289839363E+04  0.00000000000E+00 0. -1.
         25    2    1    2    0    0  0.26670166631E+02 -0.19855882553E+03 -0.71547244850E+03  0.75344813203E+03  0.12508540326E+03 0.  0.
          5    1    3    3  502    0  0.19900324464E+02 -0.20728448803E+03 -0.71090414611E+03  0.74078678393E+03  0.41800000000E+01 0. -1.
         -5    1    3    3    0  502  0.67698421677E+01  0.87256624921E+01 -0.45683023872E+01  0.12661348096E+02  0.41800000000E+01 0. -1.
        -11    1    1    2    0    0 -0.21662481149E+02  0.66519397379E+02 -0.13179758714E+03  0.14921359620E+03  0.00000000000E+00 0. -1.
         11    1    1    2    0    0 -0.50076854826E+01  0.13203942815E+03 -0.64734412263E+03  0.66069198618E+03  0.00000000000E+00 0.  1.
</event>
<event>
 7    1  0.2440960E-009  0.1288180E+03  0.7561462E-02  0.1229220E+00
          2   -1    0    0  501    0  0.00000000000E+00  0.00000000000E+00  0.22567620764E+03  0.22567620764E+03  0.00000000000E+00 0. -1.
         -2   -1    0    0    0  501 -0.00000000000E+00 -0.00000000000E+00 -0.10672881924E+03  0.10672881924E+03  0.00000000000E+00 0.  1.
         25    2    1    2    0    0  0.34705240863E+02  0.10199690363E+03  0.84360259971E+02  0.18539641238E+03  0.12508938471E+03 0.  0.
          5    1    3    3  502    0 -0.29589119234E+02  0.71369637062E+02  0.83797081696E+02  0.11405509358E+03  0.41800000000E+01 0.  1.
         -5    1    3    3    0  502  0.64294360098E+02  0.30627266567E+02  0.56317827458E+00  0.71341318796E+02  0.41800000000E+01 0.  1.
        -11    1    1    2    0    0  0.12950320844E+01 -0.10816215827E+02  0.46954223385E+02  0.48201314573E+02  0.00000000000E+00 0. -1.
         11    1    1    2    0    0 -0.36000272948E+02 -0.91180687802E+02 -0.12367094953E+02  0.98807299923E+02  0.00000000000E+00 0.  1.
</event>
<event>
 7    1  0.2440960E-009  0.2898284E+03  0.7561462E-02  0.1090439E+00
          2   -1    0    0  501    0  0.00000000000E+00  0.00000000000E+00  0.21230954381E+03  0.21230954381E+03  0.00000000000E+00 0. -1.
         -2   -1    0    0    0  501 -0.00000000000E+00 -0.00000000000E+00 -0.41920786917E+03  0.41920786917E+03  0.00000000000E+00 0.  1.
         25    2    1    2    0    0 -0.23994943093E+03  0.13885911819E+03 -0.97723637211E+02  0.31946038748E+03  0.12508975092E+03 0.  0.
          5    1    3    3  502    0 -0.24513121334E+03  0.14206163696E+03 -0.71524725126E+02  0.29223976313E+03  0.41800000000E+01 0. -1.
         -5    1    3    3    0  502  0.51817824042E+01 -0.32025187691E+01 -0.26198912085E+02  0.27220624346E+02  0.41800000000E+01 0. -1.
        -11    1    1    2    0    0  0.42255825320E+02 -0.65710750694E+02 -0.51306885374E+02  0.93465790625E+02  0.00000000000E+00 0.  1.
         11    1    1    2    0    0  0.19769360561E+03 -0.73148367501E+02 -0.57867802778E+02  0.21859123488E+03  0.00000000000E+00 0. -1.
</event>
<event>
 7    1  0.2440960E-009  0.1791894E+03  0.7561462E-02  0.1168590E+00
          2   -1    0    0  501    0  0.00000000000E+00  0.00000000000E+00  0.93216201159E+02  0.93216201159E+02  0.00000000000E+00 0. -1.
         -2   -1    0    0    0  501 -0.00000000000E+00 -0.00000000000E+00 -0.36085677088E+03  0.36085677088E+03  0.00000000000E+00 0.  1.
         25    2    1    2    0    0 -0.11570493960E+03  0.77202732219E+02 -0.14865414023E+03  0.23894316111E+03  0.12509151019E+03 0.  0.
          5    1    3    3  502    0 -0.13801900597E+03  0.41444818418E+02 -0.12232522014E+03  0.18907102069E+03  0.41800000000E+01 0. -1.
         -5    1    3    3    0  502  0.22314066362E+02  0.35757913802E+02 -0.26328920088E+02  0.49872140420E+02  0.41800000000E+01 0. -1.
        -11    1    1    2    0    0  0.27131096005E+02 -0.78723993063E+02 -0.27276935705E+02  0.87621884684E+02  0.00000000000E+00 0. -1.
         11    1    1    2    0    0  0.88573843600E+02  0.15212608437E+01 -0.91709493785E+02  0.12750792624E+03  0.00000000000E+00 0.  1.
</event>
<event>
 7    1  0.2440960E-009  0.1093033E+03  0.7561462E-02  0.1261866E+00
          1   -1    0    0  501    0  0.00000000000E+00  0.00000000000E+00  0.94430710627E+03  0.94430710627E+03  0.00000000000E+00 0. -1.
         -1   -1    0    0    0  501 -0.00000000000E+00 -0.00000000000E+00 -0.23769541109E+02  0.23769541109E+02  0.00000000000E+00 0.  1.
         25    2    1    2    0    0 -0.56796806439E+02  0.71853063943E+01  0.77286668149E+03  0.78501443049E+03  0.12508893984E+03 0.  0.
          5    1    3    3  502    0 -0.51964034420E+02  0.51622686303E+02  0.65136635433E+03  0.65548513528E+03  0.41800000000E+01 0. -1.
         -5    1    3    3    0  502 -0.48327720195E+01 -0.44437379909E+02  0.12150032716E+03  0.12952929522E+03  0.41800000000E+01 0. -1.
        -11    1    1    2    0    0  0.69907477135E+02  0.17792461185E+02  0.13291039515E+03  0.15122433724E+03  0.00000000000E+00 0. -1.
         11    1    1    2    0    0 -0.13110670696E+02 -0.24977767579E+02  0.14760488523E+02  0.31837879652E+02  0.00000000000E+00 0.  1.
</event>
<event>
 7    1  0.2440960E-009  0.8833573E+02  0.7561462E-02  0.1306933E+00
          1   -1    0    0  501    0  0.00000000000E+00  0.00000000000E+00  0.94437611279E+03  0.94437611279E+03  0.00000000000E+00 0. -1.
         -1   -1    0    0    0  501 -0.00000000000E+00 -0.00000000000E+00 -0.15697536302E+02  0.15697536302E+02  0.00000000000E+00 0.  1.
         25    2    1    2    0    0  0.15044964076E+02 -0.52920341433E+02  0.50856185576E+03  0.52660192315E+03  0.12509001096E+03 0.  0.
          5    1    3    3  502    0 -0.14422486077E+02 -0.34954284140E+02  0.48028515904E+03  0.48178949395E+03  0.41800000000E+01 0. -1.
         -5    1    3    3    0  502  0.29467450153E+02 -0.17966057292E+02  0.28276696725E+02  0.44812429200E+02  0.41800000000E+01 0. -1.
        -11    1    1    2    0    0 -0.40514334958E+02 -0.47768591594E+01  0.21654372639E+03  0.22035293318E+03  0.00000000000E+00 0. -1.
         11    1    1    2    0    0  0.25469370882E+02  0.57697200592E+02  0.20357299434E+03  0.21311879277E+03  0.00000000000E+00 0.  1.
</event>
<event>
 7    1  0.2440960E-009  0.1036156E+03  0.7561462E-02  0.1272871E+00
         -2   -1    0    0    0  501 -0.00000000000E+00  0.00000000000E+00  0.35182052471E+02  0.35182052471E+02  0.00000000000E+00 0.  1.
          2   -1    0    0  501    0  0.00000000000E+00 -0.00000000000E+00 -0.54158416125E+03  0.54158416125E+03  0.00000000000E+00 0. -1.
         25    2    1    2    0    0 -0.34534651820E+02  0.12143574564E+02 -0.11693876283E+03  0.17510996746E+03  0.12509483552E+03 0.  0.
          5    1    3    3  502    0  0.37284998947E+02  0.16861883237E+02 -0.88529388629E+02  0.97618744634E+02  0.41800000000E+01 0. -1.
         -5    1    3    3    0  502 -0.71819650767E+02 -0.47183086732E+01 -0.28409374197E+02  0.77491222828E+02  0.41800000000E+01 0. -1.
        -11    1    1    2    0    0 -0.28832326274E+02  0.25780617590E+01 -0.72101924189E+02  0.77695797265E+02  0.00000000000E+00 0.  1.
         11    1    1    2    0    0  0.63366978094E+02 -0.14721636323E+02 -0.31736142176E+03  0.32396044899E+03  0.00000000000E+00 0. -1.
</event>
<event>
 7    1  0.2440960E-009  0.2273293E+03  0.7561462E-02  0.1128534E+00
         -1   -1    0    0    0  501 -0.00000000000E+00  0.00000000000E+00  0.10756156822E+03  0.10756156822E+03  0.00000000000E+00 0.  1.
          1   -1    0    0  501    0  0.00000000000E+00 -0.00000000000E+00 -0.54221004142E+03  0.54221004142E+03  0.00000000000E+00 0. -1.
         25    2    1    2    0    0 -0.47778003721E+02 -0.20455983068E+03 -0.28798418194E+03  0.37777026755E+03  0.12509206222E+03 0.  0.
          5    1    3    3  502    0 -0.87053636987E+02 -0.10064047228E+03 -0.16423797816E+03  0.21142002328E+03  0.41800000000E+01 0.  1.
         -5    1    3    3    0  502  0.39275633266E+02 -0.10391935840E+03 -0.12374620378E+03  0.16635024428E+03  0.41800000000E+01 0.  1.
        -11    1    1    2    0    0  0.27822183034E+02  0.94960238110E+02 -0.15906085295E+02  0.10022237395E+03  0.00000000000E+00 0.  1.
         11    1    1    2    0    0  0.19955820687E+02  0.10959959257E+03 -0.13075820596E+03  0.17177896814E+03  0.00000000000E+00 0. -1.
</event>
<event>
 7    1  0.3040140E-009  0.1090800E+03  0.7561462E-02  0.1262283E+00
         -4   -1    0    0    0  501 -0.00000000000E+00  0.00000000000E+00  0.43876693948E+02  0.43876693948E+02  0.00000000000E+00 0.  1.
          4   -1    0    0  501    0  0.00000000000E+00 -0.00000000000E+00 -0.40909384598E+03  0.40909384598E+03  0.00000000000E+00 0. -1.
         25    2    1    2    0    0  0.37899690934E+02  0.56653444729E+02 -0.26322885553E+03  0.29930616106E+03  0.12509495710E+03 0.  0.
          5    1    3    3  502    0 -0.10709100450E+02  0.66442462936E+02 -0.22947724367E+03  0.23917893611E+03  0.41800000000E+01 0. -1.
         -5    1    3    3    0  502  0.48608791384E+02 -0.97890182077E+01 -0.33751611857E+02  0.60127224950E+02  0.41800000000E+01 0. -1.
        -11    1    1    2    0    0 -0.45622882010E+02 -0.18874897701E+01 -0.83817094085E+02  0.95447971384E+02  0.00000000000E+00 0. -1.
         11    1    1    2    0    0  0.77231910764E+01 -0.54765954959E+02 -0.18171202411E+02  0.58216407481E+02  0.00000000000E+00 0.  1.
</event>
<event>
 7    1  0.2440960E-009  0.1161657E+03  0.7561462E-02  0.1249560E+00
          2   -1    0    0  501    0  0.00000000000E+00  0.00000000000E+00  0.47230765188E+02  0.47230765188E+02  0.00000000000E+00 0. -1.
         -2   -1    0    0    0  501 -0.00000000000E+00 -0.00000000000E+00 -0.84807181785E+03  0.84807181785E+03  0.00000000000E+00 0.  1.
         25    2    1    2    0    0  0.19810113523E+02  0.94002093952E+02 -0.72566961098E+03  0.74261212374E+03  0.12509015848E+03 0.  0.
          5    1    3    3  502    0  0.32607989947E+02  0.48407468353E+02 -0.65397376970E+03  0.65658642070E+03  0.41800000000E+01 0.  1.
         -5    1    3    3    0  502 -0.12797876424E+02  0.45594625599E+02 -0.71695841289E+02  0.86025703035E+02  0.41800000000E+01 0.  1.
        -11    1    1    2    0    0  0.31913631260E+02 -0.43814214178E+02 -0.56379843661E+02  0.78210306197E+02  0.00000000000E+00 0.  1.
         11    1    1    2    0    0 -0.51723744783E+02 -0.50187879774E+02 -0.18791598017E+02  0.74480153105E+02  0.00000000000E+00 0. -1.
</event>
<event>
 7    1  0.2440960E-009  0.6686106E+02  0.7561462E-02  0.1371105E+00
          2   -1    0    0  501    0  0.00000000000E+00  0.00000000000E+00  0.35782474512E+03  0.35782474512E+03  0.00000000000E+00 0. -1.
         -2   -1    0    0    0  501 -0.00000000000E+00 -0.00000000000E+00 -0.35531584320E+02  0.35531584320E+02  0.00000000000E+00 0.  1.
         25    2    1    2    0    0  0.16129084885E+02 -0.10034180697E+02  0.23687935205E+03  0.26855225541E+03  0.12509058436E+03 0.  0.
          5    1    3    3  502    0 -0.41154077731E+01 -0.19237191004E+02  0.24400252971E+03  0.24482996754E+03  0.41800000000E+01 0. -1.
         -5    1    3    3    0  502  0.20244492659E+02  0.92030103070E+01 -0.71231776640E+01  0.23722287869E+02  0.41800000000E+01 0. -1.
        -11    1    1    2    0    0 -0.19255572571E+02 -0.38130601864E+02  0.41217538163E+02  0.59359963997E+02  0.00000000000E+00 0. -1.
         11    1    1    2    0    0  0.31264876852E+01  0.48164782560E+02  0.44196270589E+02  0.65444110035E+02  0.00000000000E+00 0.  1.
</event>
<event>
 7    1  0.2440960E-009  0.9178886E+02  0.7561462E-02  0.1298577E+00
          3   -1    0    0  501    0  0.00000000000E+00  0.00000000000E+00  0.34183917652E+03  0.34183917652E+03  0.00000000000E+00 0. -1.
         -3   -1    0    0    0  501 -0.00000000000E+00 -0.00000000000E+00 -0.48610418928E+02  0.48610418928E+02  0.00000000000E+00 0.  1.
         25    2    1    2    0    0 -0.22335820238E+02 -0.65550006868E+02  0.13940270838E+03  0.19968900586E+03  0.12508753611E+03 0.  0.
          5    1    3    3  502    0  0.20632062770E+02 -0.45395035136E+02  0.14339820211E+03  0.15187793783E+03  0.41800000000E+01 0. -1.
         -5    1    3    3    0  502 -0.42967883008E+02 -0.20154971732E+02 -0.39954937321E+01  0.47811068027E+02  0.41800000000E+01 0. -1.
        -11    1    1    2    0    0  0.16317737120E+02 -0.34124483230E+01 -0.50827933546E+01  0.17428371598E+02  0.00000000000E+00 0.  1.
         11    1    1    2    0    0  0.60180831184E+01  0.68962455191E+02  0.15890884257E+03  0.17333221800E+03  0.00000000000E+00 0. -1.
</event>
<event>
 7    1  0.2440960E-009  0.1209627E+03  0.7561462E-02  0.1241517E+00
         -2   -1    0    0    0  501 -0.00000000000E+00  0.00000000000E+00  0.12824572715E+02  0.12824572715E+02  0.00000000000E+00 0.  1.
          2   -1    0    0  501    0  0.00000000000E+00 -0.00000000000E+00 -0.17602769176E+04  0.17602769176E+04  0.00000000000E+00 0. -1.
         25    2    1    2    0    0  0.50180320677E+02 -0.42023378068E+02 -0.14423521053E+04  0.14492448943E+04  0.12508852562E+03 0.  0.
          5    1    3    3  502    0 -0.49711729834E+01 -0.75849267022E+02 -0.81887443358E+03  0.82240539531E+03  0.41800000000E+01 0.  1.
         -5    1    3    3    0  502  0.55151493660E+02  0.33825888953E+02 -0.62347767168E+03  0.62683949899E+03  0.41800000000E+01 0.  1.
        -11    1    1    2    0    0 -0.59301429993E+02  0.13868715676E+01 -0.11672586330E+03  0.13093322792E+03  0.00000000000E+00 0. -1.
         11    1    1    2    0    0  0.91211093167E+01  0.40636506501E+02 -0.18837437631E+03  0.19292336807E+03  0.00000000000E+00 0.  1.
</event>
<event>
 7    1  0.2440960E-009  0.8768892E+02  0.7561462E-02  0.1308547E+00
         -1   -1    0    0    0  501 -0.00000000000E+00  0.00000000000E+00  0.18738228845E+03  0.18738228845E+03  0.00000000000E+00 0.  1.
          1   -1    0    0  501    0  0.00000000000E+00 -0.00000000000E+00 -0.72210363819E+02  0.72210363819E+02  0.00000000000E+00 0. -1.
         25    2    1    2    0    0  0.64273202024E+00 -0.33418009963E+02  0.37272018916E+02  0.13473730456E+03  0.12509101227E+03 0.  0.
          5    1    3    3  502    0 -0.35311458606E+02 -0.13130350640E+02 -0.34875814230E+02  0.51508252106E+02  0.41800000000E+01 0.  1.
         -5    1    3    3    0  502  0.35954190626E+02 -0.20287659323E+02  0.72147833146E+02  0.83229052452E+02  0.41800000000E+01 0.  1.
        -11    1    1    2    0    0 -0.35065696872E+02  0.47284530999E+02  0.36538002305E+02  0.69285320100E+02  0.00000000000E+00 0. -1.
         11    1    1    2    0    0  0.34422964852E+02 -0.13866521036E+02  0.41361903410E+02  0.55570027610E+02  0.00000000000E+00 0.  1.
</event>
<event>
 7    1  0.2440960E-009  0.9817190E+02  0.7561462E-02  0.1284188E+00
         -2   -1    0    0    0  501 -0.00000000000E+00  0.00000000000E+00  0.12796318075E+02  0.12796318075E+02  0.00000000000E+00 0.  1.
          2   -1    0    0  501    0  0.00000000000E+00 -0.00000000000E+00 -0.15543424881E+04  0.15543424881E+04  0.00000000000E+00 0. -1.
         25    2    1    2    0    0  0.35021558510E+02  0.67496794113E+02 -0.10873060663E+04  0.10971161904E+04  0.12508847510E+03 0.  0.
          5    1    3    3  502    0  0.27334815603E+02  0.36275335509E+02 -0.10319897603E+04  0.10329973039E+04  0.41800000000E+01 0.  1.
         -5    1    3    3    0  502  0.76867429069E+01  0.31221458604E+02 -0.55316306037E+02  0.64118886511E+02  0.41800000000E+01 0.  1.
        -11    1    1    2    0    0  0.30400235439E+02 -0.30885575662E+02 -0.12320740632E+03  0.13060688370E+03  0.00000000000E+00 0.  1.
         11    1    1    2    0    0 -0.65421793948E+02 -0.36611218451E+02 -0.33103269740E+03  0.33941573208E+03  0.00000000000E+00 0. -1.
</event>
<event>
 7    1  0.2440960E-009  0.9203270E+02  0.7561462E-02  0.1298003E+00
          1   -1    0    0  501    0  0.00000000000E+00  0.00000000000E+00  0.35377351693E+03  0.35377351693E+03  0.00000000000E+00 0. -1.
         -1   -1    0    0    0  501 -0.00000000000E+00 -0.00000000000E+00 -0.48004836546E+02  0.48004836546E+02  0.00000000000E+00 0.  1.
         25    2    1    2    0    0  0.50937038538E+02 -0.21743095272E+02  0.93730597188E+02  0.16583198889E+03  0.12508988610E+03 0.  0.
          5    1    3    3  502    0  0.35957879050E+02 -0.49441583792E+02 -0.56125082233E+01  0.61533827463E+02  0.41800000000E+01 0. -1.
         -5    1    3    3    0  502  0.14979159488E+02  0.27698488520E+02  0.99343105411E+02  0.10429816143E+03  0.41800000000E+01 0. -1.
        -11    1    1    2    0    0 -0.35233396593E+02  0.48530329478E+02  0.78172707850E+02  0.98526937268E+02  0.00000000000E+00 0.  1.
         11    1    1    2    0    0 -0.15703641944E+02 -0.26787234206E+02  0.13386537534E+03  0.13741942731E+03  0.00000000000E+00 0. -1.
</event>
<event>
 7    1  0.2440960E-009  0.8832887E+02  0.7561462E-02  0.1306950E+00
          2   -1    0    0  501    0  0.00000000000E+00  0.00000000000E+00  0.42240691595E+03  0.42240691595E+03  0.00000000000E+00 0. -1.
         -2   -1    0    0    0  501 -0.00000000000E+00 -0.00000000000E+00 -0.36960109471E+02  0.36960109471E+02  0.00000000000E+00 0.  1.
         25    2    1    2    0    0 -0.62491211509E+02  0.15195318703E+02  0.22364741681E+03  0.26419991742E+03  0.12508948834E+03 0.  0.
          5    1    3    3  502    0  0.54430095164E+01 -0.20226828357E+02 -0.59074790137E+01  0.22161264546E+02  0.41800000000E+01 0. -1.
         -5    1    3    3    0  502 -0.67934221025E+02  0.35422147060E+02  0.22955489582E+03  0.24203865287E+03  0.41800000000E+01 0. -1.
        -11    1    1    2    0    0  0.33066177207E+02  0.15087549839E+02  0.10131547691E+02  0.37731346303E+02  0.00000000000E+00 0.  1.
         11    1    1    2    0    0  0.29425034302E+02 -0.30282868542E+02  0.15166784198E+03  0.15743576170E+03  0.00000000000E+00 0. -1.
</event>
<event>
 7    1  0.2680524E-009  0.1262465E+03  0.7561462E-02  0.1233134E+00
         -1   -1    0    0    0  501 -0.00000000000E+00  0.00000000000E+00  0.13148701188E+03  0.13148701188E+03  0.00000000000E+00 0.  1.
          1   -1    0    0  501    0  0.00000000000E+00 -0.00000000000E+00 -0.16866988797E+03  0.16866988797E+03  0.00000000000E+00 0. -1.
         25    2    1    2    0    0  0.50753061752E+02 -0.88046334168E+02 -0.12234562416E+02  0.16162947594E+03  0.12508546173E+03 0.  0.
          5    1    3    3  502    0 -0.40451060767E+00  0.25455887872E+02  0.20361455608E+02  0.32866808952E+02  0.41800000000E+01 0. -1.
         -5    1    3    3    0  502  0.51157572359E+02 -0.11350222204E+03 -0.32596018024E+02  0.12876266698E+03  0.41800000000E+01 0. -1.
        -11    1    1    2    0    0 -0.12019216109E+02  0.13218547686E+02 -0.47962828877E+02  0.51182267561E+02  0.00000000000E+00 0. -1.
         11    1    1    2    0    0 -0.38733845642E+02  0.74827786481E+02  0.23014515211E+02  0.87345156353E+02  0.00000000000E+00 0.  1.
</event>
<event>
 7    1  0.2440960E-009  0.1166446E+03  0.7561462E-02  0.1248737E+00
         -2   -1    0    0    0  501 -0.00000000000E+00  0.00000000000E+00  0.39014818814E+02  0.39014818814E+02  0.00000000000E+00 0.  1.
          2   -1    0    0  501    0  0.00000000000E+00 -0.00000000000E+00 -0.47327956368E+03  0.47327956368E+03  0.00000000000E+00 0. -1.
         25    2    1    2    0    0  0.72584513771E+02  0.26789689785E+02 -0.20164620919E+03  0.24958897340E+03  0.12508901968E+03 0.  0.
          5    1    3    3  502    0  0.83829413646E+02 -0.77334407177E+01 -0.60412677785E+02  0.10370313754E+03  0.41800000000E+01 0.  1.
         -5    1    3    3    0  502 -0.11244899875E+02  0.34523130503E+02 -0.14123353141E+03  0.14588583587E+03  0.41800000000E+01 0.  1.
        -11    1    1    2    0    0  0.77711168521E+01 -0.31026286389E+02 -0.26842419710E+02  0.41755672669E+02  0.00000000000E+00 0.  1.
         11    1    1    2    0    0 -0.80355630624E+02  0.42365966034E+01 -0.20577611596E+03  0.22094973642E+03  0.00000000000E+00 0. -1.
</event>
<event>
 7    1  0.2440960E-009  0.1864319E+03  0.7561462E-02  0.1161719E+00
         -2   -1    0    0    0  501 -0.00000000000E+00  0.00000000000E+00  0.47699680044E+03  0.47699680044E+03  0.00000000000E+00 0.  1.
          2   -1    0    0  501    0  0.00000000000E+00 -0.00000000000E+00 -0.82662882344E+02  0.82662882344E+02  0.00000000000E+00 0. -1.
         25    2    1    2    0    0  0.62542821898E+02 -0.15537216998E+03  0.17390272383E+03  0.27192050905E+03  0.12508593092E+03 0.  0.
          5    1    3    3  502    0  0.92588349942E+02 -0.14684871946E+03  0.16409972772E+03  0.23892120456E+03  0.41800000000E+01 0.  1.
         -5    1    3    3    0  502 -0.30045528044E+02 -0.85234505199E+01  0.98029961070E+01  0.32999304491E+02  0.41800000000E+01 0.  1.
        -11    1    1    2    0    0 -0.38089772266E+02  0.10534611538E+03  0.19843228635E+03  0.22786839852E+03  0.00000000000E+00 0.  1.
         11    1    1    2    0    0 -0.24453049632E+02  0.50026054598E+02  0.21998907915E+02  0.59870775211E+02  0.00000000000E+00 0. -1.
</event>
<event>
 7    1  0.2440960E-009  0.1507768E+03  0.7561462E-02  0.1199522E+00
          1   -1    0    0  501    0  0.00000000000E+00  0.00000000000E+00  0.23142510212E+03  0.23142510212E+03  0.00000000000E+00 0. -1.
         -1   -1    0    0    0  501 -0.00000000000E+00 -0.00000000000E+00 -0.13000285181E+03  0.13000285181E+03  0.00000000000E+00 0.  1.
         25    2    1    2    0    0  0.70121688403E+02  0.11081735385E+03  0.90245132520E+02  0.20246622439E+03  0.12510336117E+03 0.  0.
          5    1    3    3  502    0  0.40791896570E+02  0.12360323932E+03  0.29265164299E+02  0.13347532296E+03  0.41800000000E+01 0. -1.
         -5    1    3    3    0  502  0.29329791833E+02 -0.12785885470E+02  0.60979968221E+02  0.68990901433E+02  0.41800000000E+01 0. -1.
        -11    1    1    2    0    0 -0.58689337889E+02 -0.11308141905E+03  0.35271686354E+02  0.13219658685E+03  0.00000000000E+00 0. -1.
         11    1    1    2    0    0 -0.11432350514E+02  0.22640651958E+01 -0.24094568564E+02  0.26765142700E+02  0.00000000000E+00 0.  1.
</event>
<event>
 7    1  0.2440960E-009  0.1180513E+03  0.7561462E-02  0.1246347E+00
         -1   -1    0    0    0  501 -0.00000000000E+00  0.00000000000E+00  0.32157562083E+02  0.32157562083E+02  0.00000000000E+00 0.  1.
          1   -1    0    0  501    0  0.00000000000E+00 -0.00000000000E+00 -0.54085708048E+03  0.54085708048E+03  0.00000000000E+00 0. -1.
         25    2    1    2    0    0  0.25310060574E+02  0.54779663314E+02 -0.20122027325E+03  0.24449169774E+03  0.12508069881E+03 0.  0.
          5    1    3    3  502    0 -0.45099942988E+02  0.32843288142E+02 -0.13154818683E+03  0.14295133540E+03  0.41800000000E+01 0.  1.
         -5    1    3    3    0  502  0.70410003562E+02  0.21936375171E+02 -0.69672086422E+02  0.10154036234E+03  0.41800000000E+01 0.  1.
        -11    1    1    2    0    0 -0.53603590496E+02 -0.56577068308E+02 -0.15568394935E+03  0.17410284793E+03  0.00000000000E+00 0.  1.
         11    1    1    2    0    0  0.28293529922E+02  0.17974049940E+01 -0.15179529580E+03  0.15442009690E+03  0.00000000000E+00 0. -1.
</event>
<event>
 7    1  0.2440960E-009  0.1052610E+03  0.7561462E-02  0.1269606E+00
         -4   -1    0    0    0  501 -0.00000000000E+00  0.00000000000E+00  0.29677681722E+03  0.29677681722E+03  0.00000000000E+00 0.  1.
          4   -1    0    0  501    0  0.00000000000E+00 -0.00000000000E+00 -0.56173609155E+02  0.56173609155E+02  0.00000000000E+00 0. -1.
         25    2    1    2    0    0  0.21908004783E+02  0.15445241193E+02  0.22395110759E+03  0.25791869879E+03  0.12509772358E+03 0.  0.
          5    1    3    3  502    0 -0.28985944722E+02 -0.41668126482E+02  0.99469742625E+02  0.11175025662E+03  0.41800000000E+01 0. -1.
         -5    1    3    3    0  502  0.50893949505E+02  0.57113367675E+02  0.12448136497E+03  0.14616844217E+03  0.41800000000E+01 0. -1.
        -11    1    1    2    0    0 -0.32630361537E+02  0.25018728128E+02  0.30218473355E+02  0.51027770705E+02  0.00000000000E+00 0.  1.
         11    1    1    2    0    0  0.10722356754E+02 -0.40463969320E+02 -0.13566372886E+02  0.44003956877E+02  0.00000000000E+00 0. -1.
</event>
<event>
 7    1  0.2440960E-009  0.1758538E+03  0.7561462E-02  0.1171877E+00
          1   -1    0    0  501    0  0.00000000000E+00  0.00000000000E+00  0.15728751317E+04  0.15728751317E+04  0.00000000000E+00 0. -1.
         -1   -1    0    0    0  501 -0.00000000000E+00 -0.00000000000E+00 -0.24570575753E+02  0.24570575753E+02  0.00000000000E+00 0.  1.
         25    2    1    2    0    0 -0.21950657877E+02  0.16158759044E+03  0.83989557699E+03  0.86467599693E+03  0.12509044191E+03 0.  0.
          5    1    3    3  502    0  0.75861340578E+01  0.10195004920E+03  0.23751619983E+03  0.25861705191E+03  0.41800000000E+01 0.  1.
         -5    1    3    3    0  502 -0.29536791935E+02  0.59637541243E+02  0.60237937716E+03  0.60605894502E+03  0.41800000000E+01 0.  1.
        -11    1    1    2    0    0 -0.29735697796E+02 -0.87168054294E+02  0.27572311377E+03  0.29069867024E+03  0.00000000000E+00 0.  1.
         11    1    1    2    0    0  0.51686355673E+02 -0.74419536144E+02  0.43268586524E+03  0.44207104033E+03  0.00000000000E+00 0. -1.
</event>
<event>
 7    1  0.2440960E-009  0.1231353E+03  0.7561462E-02  0.1238013E+00
          2   -1    0    0  501    0  0.00000000000E+00  0.00000000000E+00  0.62101305008E+03  0.62101305008E+03  0.00000000000E+00 0.  1.
         -2   -1    0    0    0  501 -0.00000000000E+00 -0.00000000000E+00 -0.47371956912E+02  0.47371956912E+02  0.00000000000E+00 0. -1.
         25    2    1    2    0    0 -0.10579126969E+03 -0.81980309830E+00  0.45965231068E+03  0.48797497601E+03  0.12508743214E+03 0.  0.
          5    1    3    3  502    0 -0.89236290523E+02  0.37081744005E+01  0.46162157712E+03  0.47020082833E+03  0.41800000000E+01 0. -1.
         -5    1    3    3    0  502 -0.16554979169E+02 -0.45279774988E+01 -0.19692664340E+01  0.17774147681E+02  0.41800000000E+01 0. -1.
        -11    1    1    2    0    0  0.96313893796E+02 -0.34744709220E+02  0.91227013953E+02  0.13713471126E+03  0.00000000000E+00 0.  1.
         11    1    1    2    0    0  0.94773758954E+01  0.35564512318E+02  0.22761768535E+02  0.43275319723E+02  0.00000000000E+00 0. -1.
</event>
<event>
 7    1  0.2440960E-009  0.1135612E+03  0.7561462E-02  0.1254114E+00
          1   -1    0    0  501    0  0.00000000000E+00  0.00000000000E+00  0.97574594225E+02  0.97574594225E+02  0.00000000000E+00 0. -1.
         -1   -1    0    0    0  501 -0.00000000000E+00 -0.00000000000E+00 -0.22373306276E+03  0.22373306276E+03  0.00000000000E+00 0.  1.
         25    2    1    2    0    0 -0.33416129664E+02 -0.92142730170E+02 -0.42542042117E+02  0.16451190512E+03  0.12508965239E+03 0.  0.
          5    1    3    3  502    0 -0.60259001455E+02 -0.72834428767E+02 -0.72885351321E+02  0.11943930721E+03  0.41800000000E+01 0.  1.
         -5    1    3    3    0  502  0.26842871791E+02 -0.19308301403E+02  0.30343309204E+02  0.45072597912E+02  0.41800000000E+01 0.  1.
        -11    1    1    2    0    0  0.32791044370E+02  0.73102626039E+02 -0.10241557192E+03  0.13003151885E+03  0.00000000000E+00 0.  1.
         11    1    1    2    0    0  0.62508529341E+00  0.19040104131E+02  0.18799145498E+02  0.26764233006E+02  0.00000000000E+00 0. -1.
</event>
<event>
 7    1  0.2440960E-009  0.1132894E+03  0.7561462E-02  0.1254597E+00
         -2   -1    0    0    0  501 -0.00000000000E+00  0.00000000000E+00  0.15790457712E+03  0.15790457712E+03  0.00000000000E+00 0.  1.
          2   -1    0    0  501    0  0.00000000000E+00 -0.00000000000E+00 -0.11472580469E+03  0.11472580469E+03  0.00000000000E+00 0. -1.
         25    2    1    2    0    0 -0.29704848113E+02 -0.69206408169E+01  0.95174568339E+02  0.16010909264E+03  0.12508576984E+03 0.  0.
          5    1    3    3  502    0 -0.48548198964E+02  0.49253623767E+02  0.53843584750E+02  0.87746516145E+02  0.41800000000E+01 0. -1.
         -5    1    3    3    0  502  0.18843350851E+02 -0.56174264584E+02  0.41330983588E+02  0.72362576497E+02  0.41800000000E+01 0. -1.
        -11    1    1    2    0    0 -0.32985515685E+02 -0.69035242709E+01 -0.28581023034E+02  0.44187982191E+02  0.00000000000E+00 0. -1.
         11    1    1    2    0    0  0.62690363798E+02  0.13824165088E+02 -0.23414772882E+02  0.68333306979E+02  0.00000000000E+00 0.  1.
</event>
<event>
 7    1  0.2440960E-009  0.1116552E+03  0.7561462E-02  0.1257535E+00
         -1   -1    0    0    0  501 -0.00000000000E+00  0.00000000000E+00  0.35911905956E+03  0.35911905956E+03  0.00000000000E+00 0.  1.
          1   -1    0    0  501    0  0.00000000000E+00 -0.00000000000E+00 -0.55895137738E+02  0.55895137738E+02  0.00000000000E+00 0. -1.
         25    2    1    2    0    0  0.24022384190E+02  0.65874695377E+02  0.24736521565E+03  0.28592586702E+03  0.12508997197E+03 0.  0.
          5    1    3    3  502    0 -0.97723519683E+01 -0.31026743009E+02  0.25858543081E+02  0.41764749431E+02  0.41800000000E+01 0. -1.
         -5    1    3    3    0  502  0.33794736158E+02  0.96901438386E+02  0.22150667257E+03  0.24416111759E+03  0.41800000000E+01 0. -1.
        -11    1    1    2    0    0  0.16392897172E+02 -0.11373611008E+02  0.57864418697E+02  0.61207655209E+02  0.00000000000E+00 0.  1.
         11    1    1    2    0    0 -0.40415281361E+02 -0.54501084370E+02 -0.20057125185E+01  0.67880675068E+02  0.00000000000E+00 0. -1.
</event>
<event>
 7    1  0.2440960E-009  0.1924043E+03  0.7561462E-02  0.1156311E+00
          1   -1    0    0  501    0  0.00000000000E+00  0.00000000000E+00  0.11893623608E+04  0.11893623608E+04  0.00000000000E+00 0. -1.
         -1   -1    0    0    0  501 -0.00000000000E+00 -0.00000000000E+00 -0.39935989832E+02  0.39935989832E+02  0.00000000000E+00 0.  1.
         25    2    1    2    0    0 -0.69649311372E+02 -0.15570769266E+03  0.80852553780E+03  0.83573748836E+03  0.12509073527E+03 0.  0.
          5    1    3    3  502    0 -0.97782385472E+02 -0.10276951647E+03  0.43933212824E+03  0.46168513050E+03  0.41800000000E+01 0. -1.
         -5    1    3    3    0  502  0.28133074100E+02 -0.52938176192E+02  0.36919340956E+03  0.37405235786E+03  0.41800000000E+01 0. -1.
        -11    1    1    2    0    0  0.89451855159E+01  0.10001882927E+03  0.11270527258E+03  0.15095118754E+03  0.00000000000E+00 0.  1.
         11    1    1    2    0    0  0.60704125856E+02  0.55688863389E+02  0.22819556061E+03  0.24260967475E+03  0.00000000000E+00 0. -1.
</event>
<event>
 7    1  0.2440960E-009  0.1387850E+03  0.7561462E-02  0.1214973E+00
         -2   -1    0    0    0  501 -0.00000000000E+00  0.00000000000E+00  0.44582427439E+02  0.44582427439E+02  0.00000000000E+00 0.  1.
          2   -1    0    0  501    0  0.00000000000E+00 -0.00000000000E+00 -0.52373439475E+03  0.52373439475E+03  0.00000000000E+00 0. -1.
         25    2    1    2    0    0  0.99255234015E+02 -0.34557031685E+02 -0.30778605041E+03  0.34846166050E+03  0.12508991205E+03 0.  0.
          5    1    3    3  502    0 -0.21585809327E+02  0.85079471878E+01 -0.11128533283E+03  0.11375513190E+03  0.41800000000E+01 0. -1.
         -5    1    3    3    0  502  0.12084104334E+03 -0.43064978872E+02 -0.19650071757E+03  0.23470652860E+03  0.41800000000E+01 0. -1.
        -11    1    1    2    0    0 -0.79019147366E+02  0.55466304536E+02 -0.84688159256E+02  0.12842359950E+03  0.00000000000E+00 0.  1.
         11    1    1    2    0    0 -0.20236086649E+02 -0.20909272852E+02 -0.86677757650E+02  0.91431562194E+02  0.00000000000E+00 0. -1.
</event>
<event>
 7    1  0.2440960E-009  0.1077501E+03  0.7561462E-02  0.1264794E+00
          1   -1    0    0  501    0  0.00000000000E+00  0.00000000000E+00  0.32111815961E+03  0.32111815961E+03  0.00000000000E+00 0. -1.
         -1   -1    0    0    0  501 -0.00000000000E+00 -0.00000000000E+00 -0.64649016285E+02  0.64649016285E+02  0.00000000000E+00 0.  1.
         25    2    1    2    0    0 -0.46442602148E+02 -0.33836600958E+02  0.39962009704E+02  0.14334347795E+03  0.12509420287E+03 0.  0.
          5    1    3    3  502    0 -0.57147463706E+02  0.12777946953E+02 -0.23952370028E+02  0.63405811771E+02  0.41800000000E+01 0. -1.
         -5    1    3    3    0  502  0.10704861558E+02 -0.46614547911E+02  0.63914379732E+02  0.79937666181E+02  0.41800000000E+01 0. -1.
        -11    1    1    2    0    0  0.57699911285E+02 -0.14218805954E+02  0.12681741259E+03  0.14005038501E+03  0.00000000000E+00 0.  1.
         11    1    1    2    0    0 -0.11257309138E+02  0.48055406912E+02  0.89689721031E+02  0.10237331293E+03  0.00000000000E+00 0. -1.
</event>
<event>
 7    1  0.2440960E-009  0.1593907E+03  0.7561462E-02  0.1189386E+00
          4   -1    0    0  501    0  0.00000000000E+00  0.00000000000E+00  0.90971205334E+03  0.90971205334E+03  0.00000000000E+00 0. -1.
         -4   -1    0    0    0  501 -0.00000000000E+00 -0.00000000000E+00 -0.31358366284E+02  0.31358366284E+02  0.00000000000E+00 0.  1.
         25    2    1    2    0    0 -0.12625407389E+03 -0.28612601944E+02  0.47448468052E+03  0.50748582531E+03  0.12508948268E+03 0.  0.
          5    1    3    3  502    0  0.51819030488E+01  0.21911997665E+02  0.16237062959E+02  0.28073161104E+02  0.41800000000E+01 0.  1.
         -5    1    3    3    0  502 -0.13143597694E+03 -0.50524599609E+02  0.45824761756E+03  0.47941266421E+03  0.41800000000E+01 0.  1.
        -11    1    1    2    0    0  0.11033424156E+03 -0.12383608951E+02  0.24981693142E+03  0.27337793959E+03  0.00000000000E+00 0.  1.
         11    1    1    2    0    0  0.15919832329E+02  0.40996210895E+02  0.15405207511E+03  0.16020665472E+03  0.00000000000E+00 0. -1.
</event>
<event>
 7    1  0.2440960E-009  0.8396188E+02  0.7561462E-02  0.1318170E+00
         -2   -1    0    0    0  501 -0.00000000000E+00  0.00000000000E+00  0.54375041835E+02  0.54375041835E+02  0.00000000000E+00 0.  1.
          2   -1    0    0  501    0  0.00000000000E+00 -0.00000000000E+00 -0.24141440477E+03  0.24141440477E+03  0.00000000000E+00 0. -1.
         25    2    1    2    0    0  0.23451540466E+02  0.79219041915E+01 -0.14908521955E+03  0.19617693993E+03  0.12508500212E+03 0.  0.
          5    1    3    3  502    0  0.71025666596E+02 -0.75832215768E+01 -0.57748327772E+02  0.91948313336E+02  0.41800000000E+01 0. -1.
         -5    1    3    3    0  502 -0.47574126130E+02  0.15505125768E+02 -0.91336891782E+02  0.10422862660E+03  0.41800000000E+01 0. -1.
        -11    1    1    2    0    0  0.41318024511E+00 -0.19591447069E+02 -0.61232314039E+02  0.64291459765E+02  0.00000000000E+00 0. -1.
         11    1    1    2    0    0 -0.23864720711E+02  0.11669542877E+02  0.23278170656E+02  0.35321046908E+02  0.00000000000E+00 0.  1.
</event>
<event>
 7    1  0.2440960E-009  0.1595668E+03  0.7561462E-02  0.1189187E+00
         -1   -1    0    0    0  501 -0.00000000000E+00  0.00000000000E+00  0.95023531250E+03  0.95023531250E+03  0.00000000000E+00 0.  1.
          1   -1    0    0  501    0  0.00000000000E+00 -0.00000000000E+00 -0.32227879593E+02  0.32227879593E+02  0.00000000000E+00 0. -1.
         25    2    1    2    0    0  0.11592302328E+03  0.35271561704E+02  0.63234621739E+03  0.65588995750E+03  0.12509063638E+03 0.  0.
          5    1    3    3  502    0  0.65620355069E+02  0.79372367957E+02  0.44893146752E+03  0.46061148349E+03  0.41800000000E+01 0.  1.
         -5    1    3    3    0  502  0.50302668212E+02 -0.44100806253E+02  0.18341474987E+03  0.19527847401E+03  0.41800000000E+01 0.  1.
        -11    1    1    2    0    0 -0.12223284920E+03 -0.50727731431E+02  0.27862298755E+03  0.30845573645E+03  0.00000000000E+00 0.  1.
         11    1    1    2    0    0  0.63098259218E+01  0.15456169727E+02  0.70382279650E+01  0.18117498135E+02  0.00000000000E+00 0. -1.
</event>
<event>
 7    1  0.2440960E-009  0.6077811E+02  0.7561462E-02  0.1394595E+00
          1   -1    0    0  501    0  0.00000000000E+00  0.00000000000E+00  0.54594324165E+02  0.54594324165E+02  0.00000000000E+00 0. -1.
         -1   -1    0    0    0  501 -0.00000000000E+00 -0.00000000000E+00 -0.24503318493E+03  0.24503318493E+03  0.00000000000E+00 0.  1.
         25    2    1    2    0    0  0.15200773752E+02  0.77068362796E+01 -0.15206850177E+03  0.19764483430E+03  0.12509273540E+03 0.  0.
          5    1    3    3  502    0  0.21764459432E+02 -0.54546499113E+01  0.16639636921E+02  0.28245261848E+02  0.41800000000E+01 0.  1.
         -5    1    3    3    0  502 -0.65636856793E+01  0.13161486191E+02 -0.16870813869E+03  0.16939957245E+03  0.41800000000E+01 0.  1.
        -11    1    1    2    0    0 -0.12567846481E+01  0.36790416057E+02 -0.41219937230E+02  0.55264793916E+02  0.00000000000E+00 0.  1.
         11    1    1    2    0    0 -0.13943989104E+02 -0.44497252337E+02  0.28495782296E+01  0.46717880878E+02  0.00000000000E+00 0. -1.
</event>
<event>
 7    1  0.2440960E-009  0.9154701E+02  0.7561462E-02  0.1299148E+00
         -3   -1    0    0    0  501 -0.00000000000E+00  0.00000000000E+00  0.17152031434E+03  0.17152031434E+03  0.00000000000E+00 0.  1.
          3   -1    0    0  501    0  0.00000000000E+00 -0.00000000000E+00 -0.86412731259E+02  0.86412731259E+02  0.00000000000E+00 0. -1.
         25    2    1    2    0    0 -0.16042549286E+02 -0.54073839905E+02  0.64746235992E+02  0.15171748995E+03  0.12507908751E+03 0.  0.
          5    1    3    3  502    0 -0.33405641033E+02 -0.67614754090E+02  0.90301608748E+02  0.11772656780E+03  0.41800000000E+01 0. -1.
         -5    1    3    3    0  502  0.17363091747E+02  0.13540914185E+02 -0.25555372756E+02  0.33990922151E+02  0.41800000000E+01 0. -1.
        -11    1    1    2    0    0 -0.24637530101E+02  0.15624883309E+02  0.37650916805E+02  0.47631254488E+02  0.00000000000E+00 0.  1.
         11    1    1    2    0    0  0.40680079387E+02  0.38448956596E+02 -0.17289569712E+02  0.58584301165E+02  0.00000000000E+00 0. -1.
</event>
<event>
 7    1  0.2766343E-009  0.8903452E+02  0.7561462E-02  0.1305207E+00
          1   -1    0    0  501    0  0.00000000000E+00  0.00000000000E+00  0.79949103096E+02  0.79949103096E+02  0.00000000000E+00 0. -1.
         -1   -1    0    0    0  501 -0.00000000000E+00 -0.00000000000E+00 -0.20645175553E+03  0.20645175553E+03  0.00000000000E+00 0.  1.
         25    2    1    2    0    0 -0.27888694766E+02 -0.53408239614E+02 -0.10657721268E+03  0.17502775981E+03  0.12508315269E+03 0.  0.
          5    1    3    3  502    0 -0.36997537707E+00 -0.65523611659E+02 -0.12379429352E+03  0.14012844134E+03  0.41800000000E+01 0.  1.
         -5    1    3    3    0  502 -0.27518719389E+02  0.12115372045E+02  0.17217080835E+02  0.34899318462E+02  0.41800000000E+01 0.  1.
        -11    1    1    2    0    0 -0.98696900062E+01  0.41208685542E+02 -0.47041645388E+02  0.63312581260E+02  0.00000000000E+00 0.  1.
         11    1    1    2    0    0  0.37758384772E+02  0.12199554072E+02  0.27116205634E+02  0.48060517560E+02  0.00000000000E+00 0. -1.
</event>
<event>
 7    1  0.2440960E-009  0.1147393E+03  0.7561462E-02  0.1252037E+00
         -4   -1    0    0    0  501 -0.00000000000E+00  0.00000000000E+00  0.59531314293E+02  0.59531314293E+02  0.00000000000E+00 0.  1.
          4   -1    0    0  501    0  0.00000000000E+00 -0.00000000000E+00 -0.26379764305E+03  0.26379764305E+03  0.00000000000E+00 0. -1.
         25    2    1    2    0    0 -0.42698983907E+02  0.33829258648E+02 -0.76054666328E+02  0.15620021376E+03  0.12508626040E+03 0.  0.
          5    1    3    3  502    0  0.28985498926E+02 -0.17803709870E+02 -0.55773308081E+02  0.65461939533E+02  0.41800000000E+01 0. -1.
         -5    1    3    3    0  502 -0.71684482833E+02  0.51632968518E+02 -0.20281358247E+02  0.90738274225E+02  0.41800000000E+01 0. -1.
        -11    1    1    2    0    0 -0.19064145584E+02  0.17936647884E+02 -0.25147194074E+02  0.36298021350E+02  0.00000000000E+00 0. -1.
         11    1    1    2    0    0  0.61763129491E+02 -0.51765906532E+02 -0.10306446835E+03  0.13083072224E+03  0.00000000000E+00 0.  1.
</event>
<event>
 7    1  0.2440960E-009  0.9691505E+02  0.7561462E-02  0.1286920E+00
          1   -1    0    0  501    0  0.00000000000E+00  0.00000000000E+00  0.17517922259E+02  0.17517922259E+02  0.00000000000E+00 0. -1.
         -1   -1    0    0    0  501 -0.00000000000E+00 -0.00000000000E+00 -0.95795620973E+03  0.95795620973E+03  0.00000000000E+00 0.  1.
         25    2    1    2    0    0  0.32522578196E+02  0.62748832184E+02 -0.56351914222E+03  0.58154736790E+03  0.12509349873E+03 0.  0.
          5    1    3    3  502    0 -0.13115516501E+02  0.32754628032E+02 -0.33913520825E+02  0.49117020729E+02  0.41800000000E+01 0.  1.
         -5    1    3    3    0  502  0.45638094697E+02  0.29994204153E+02 -0.52960562140E+03  0.53243034717E+03  0.41800000000E+01 0.  1.
        -11    1    1    2    0    0 -0.86772460493E+01  0.17650258896E+02 -0.23258818494E+02  0.30459791132E+02  0.00000000000E+00 0. -1.
         11    1    1    2    0    0 -0.23845332147E+02 -0.80399091080E+02 -0.35366032675E+03  0.36346697296E+03  0.00000000000E+00 0.  1.
</event>
<event>
 7    1  0.2440960E-009  0.2750890E+03  0.7561462E-02  0.1098402E+00
          2   -1    0    0  501    0  0.00000000000E+00  0.00000000000E+00  0.88259384588E+02  0.88259384588E+02  0.00000000000E+00 0. -1.
         -2   -1    0    0    0  501 -0.00000000000E+00 -0.00000000000E+00 -0.91867286651E+03  0.91867286651E+03  0.00000000000E+00 0.  1.
         25    2    1    2    0    0 -0.25652963576E+03 -0.87031168553E+01 -0.32380848997E+03  0.43172015592E+03  0.12508859493E+03 0.  0.
          5    1    3    3  502    0  0.13263617881E+02  0.42554141724E+01 -0.24854675169E+02  0.28796864184E+02  0.41800000000E+01 0. -1.
         -5    1    3    3    0  502 -0.26979325365E+03 -0.12958531028E+02 -0.29895381480E+03  0.40292329174E+03  0.41800000000E+01 0. -1.
        -11    1    1    2    0    0  0.20538676832E+03  0.34424191301E+02 -0.33645692537E+03  0.39569181464E+03  0.00000000000E+00 0. -1.
         11    1    1    2    0    0  0.51142867445E+02 -0.25721074446E+02 -0.17014806658E+03  0.17952028053E+03  0.00000000000E+00 0.  1.
</event>
<event>
 7    1  0.2610974E-009  0.1023441E+03  0.7561462E-02  0.1275442E+00
         -3   -1    0    0    0  501 -0.00000000000E+00  0.00000000000E+00  0.35900778520E+02  0.35900778520E+02  0.00000000000E+00 0.  1.
          3   -1    0    0  501    0  0.00000000000E+00 -0.00000000000E+00 -0.47746053826E+03  0.47746053826E+03  0.00000000000E+00 0. -1.
         25    2    1    2    0    0 -0.48414080508E+02 -0.32775081722E+02 -0.32799407381E+03  0.35587332992E+03  0.12509030866E+03 0.  0.
          5    1    3    3  502    0 -0.76765595945E+02 -0.29819068784E+02 -0.31242863958E+03  0.32312731363E+03  0.41800000000E+01 0. -1.
         -5    1    3    3    0  502  0.28351515437E+02 -0.29560129383E+01 -0.15565434227E+02  0.32746016288E+02  0.41800000000E+01 0. -1.
        -11    1    1    2    0    0  0.35835014353E+02 -0.18705543992E+02 -0.10766382278E+02  0.41832530608E+02  0.00000000000E+00 0.  1.
         11    1    1    2    0    0  0.12579066155E+02  0.51480625714E+02 -0.10279930365E+03  0.11565545625E+03  0.00000000000E+00 0. -1.
</event>
<event>
 7    1  0.2440960E-009  0.1265793E+03  0.7561462E-02  0.1232622E+00
          2   -1    0    0  501    0  0.00000000000E+00  0.00000000000E+00  0.41100942170E+03  0.41100942170E+03  0.00000000000E+00 0. -1.
         -2   -1    0    0    0  501 -0.00000000000E+00 -0.00000000000E+00 -0.59190801395E+02  0.59190801395E+02  0.00000000000E+00 0.  1.
         25    2    1    2    0    0  0.76221904416E+02 -0.60378850926E+01  0.74781094219E+02  0.16457219687E+03  0.12508221760E+03 0.  0.
          5    1    3    3  502    0  0.11117869733E+03 -0.54315412010E+01  0.56848093450E+02  0.12505751681E+03  0.41800000000E+01 0. -1.
         -5    1    3    3    0  502 -0.34956792918E+02 -0.60634389160E+00  0.17933000769E+02  0.39514680064E+02  0.41800000000E+01 0. -1.
        -11    1    1    2    0    0 -0.20787611346E+01  0.28896322884E+02  0.15565768788E+02  0.32887868311E+02  0.00000000000E+00 0.  1.
         11    1    1    2    0    0 -0.74143143282E+02 -0.22858437792E+02  0.26147175730E+03  0.27274015791E+03  0.00000000000E+00 0. -1.
</event>
<event>
 7    1  0.2440960E-009  0.1103849E+03  0.7561462E-02  0.1259859E+00
          2   -1    0    0  501    0  0.00000000000E+00  0.00000000000E+00  0.50079867492E+02  0.50079867492E+02  0.00000000000E+00 0. -1.
         -2   -1    0    0    0  501 -0.00000000000E+00 -0.00000000000E+00 -0.33306551125E+03  0.33306551125E+03  0.00000000000E+00 0.  1.
         25    2    1    2    0    0  0.38035088690E+02 -0.43342608044E+02 -0.98392316684E+02  0.16927457912E+03  0.12509030942E+03 0.  0.
          5    1    3    3  502    0  0.58446604753E+02 -0.64781294308E+02 -0.26290924246E+02  0.91221197082E+02  0.41800000000E+01 0. -1.
         -5    1    3    3    0  502 -0.20411516062E+02  0.21438686264E+02 -0.72101392438E+02  0.78053382042E+02  0.41800000000E+01 0. -1.
        -11    1    1    2    0    0 -0.43461673504E+02 -0.14202799799E+02 -0.52100415096E+02  0.69318755320E+02  0.00000000000E+00 0.  1.
         11    1    1    2    0    0  0.54265848140E+01  0.57545407843E+02 -0.13249291198E+03  0.14455204430E+03  0.00000000000E+00 0. -1.
</event>
<event>
 7    1  0.2440960E-009  0.1150154E+03  0.7561462E-02  0.1251554E+00
         -2   -1    0    0    0  501 -0.00000000000E+00  0.00000000000E+00  0.45796722520E+02  0.45796722520E+02  0.00000000000E+00 0. -1.
          2   -1    0    0  501    0  0.00000000000E+00 -0.00000000000E+00 -0.67710153268E+03  0.67710153268E+03  0.00000000000E+00 0.  1.
         25    2    1    2    0    0 -0.26135786268E+02 -0.95459091269E+02 -0.53222157298E+03  0.55561047215E+03  0.12509067346E+03 0.  0.
          5    1    3    3  502    0 -0.21869679948E+02 -0.74670603174E+02 -0.12162177402E+03  0.14444137286E+03  0.41800000000E+01 0. -1.
         -5    1    3    3    0  502 -0.42661063198E+01 -0.20788488095E+02 -0.41059979896E+03  0.41116909929E+03  0.41800000000E+01 0. -1.
        -11    1    1    2    0    0 -0.19552835272E+02 -0.49472901361E+01 -0.18748890017E+01  0.20255968395E+02  0.00000000000E+00 0.  1.
         11    1    1    2    0    0  0.45688621540E+02  0.10040638140E+03 -0.97208348175E+02  0.14703181465E+03  0.00000000000E+00 0. -1.
</event>
<event>
 7    1  0.2440960E-009  0.1035423E+03  0.7561462E-02  0.1273019E+00
         -1   -1    0    0    0  501 -0.00000000000E+00  0.00000000000E+00  0.57246321107E+02  0.57246321107E+02  0.00000000000E+00 0.  1.
          1   -1    0    0  501    0  0.00000000000E+00 -0.00000000000E+00 -0.33634134469E+03  0.33634134469E+03  0.00000000000E+00 0. -1.
         25    2    1    2    0    0  0.41643941697E+02 -0.19660923175E+02 -0.50214249804E+02  0.14244828198E+03  0.12509705182E+03 0.  0.
          5    1    3    3  502    0 -0.40982308572E+02  0.89614226935E+01 -0.13258509983E+01  0.42179224667E+02  0.41800000000E+01 0.  1.
         -5    1    3    3    0  502  0.82626250269E+02 -0.28622345869E+02 -0.48888398806E+02  0.10026905731E+03  0.41800000000E+01 0.  1.
        -11    1    1    2    0    0 -0.58045335249E+02  0.18578192717E+02 -0.22646891068E+03  0.23452628359E+03  0.00000000000E+00 0. -1.
         11    1    1    2    0    0  0.16401393552E+02  0.10827304578E+01 -0.24118631005E+01  0.16613100232E+02  0.00000000000E+00 0.  1.
</event>
<event>
 7    1  0.2440960E-009  0.4480067E+03  0.7561462E-02  0.1028318E+00
          2   -1    0    0  501    0  0.00000000000E+00  0.00000000000E+00  0.18947369949E+03  0.18947369949E+03  0.00000000000E+00 0. -1.
         -2   -1    0    0    0  501 -0.00000000000E+00 -0.00000000000E+00 -0.11771291216E+04  0.11771291216E+04  0.00000000000E+00 0.  1.
         25    2    1    2    0    0  0.88528613311E+02 -0.43558124291E+03 -0.32852278096E+03  0.56669529921E+03  0.12509200607E+03 0.  0.
          5    1    3    3  502    0  0.41902982996E+02 -0.35722180492E+03 -0.30704606737E+03  0.47292498113E+03  0.41800000000E+01 0.  1.
         -5    1    3    3    0  502  0.46625630316E+02 -0.78359437993E+02 -0.21476713591E+02  0.93770318074E+02  0.41800000000E+01 0.  1.
        -11    1    1    2    0    0 -0.34613766657E+02  0.12022885063E+03 -0.25869468529E+03  0.28736045233E+03  0.00000000000E+00 0.  1.
         11    1    1    2    0    0 -0.53914846654E+02  0.31535239229E+03 -0.40043795586E+03  0.51254706955E+03  0.00000000000E+00 0. -1.
</event>
<event>
 7    1  0.2440960E-009  0.9189654E+02  0.7561462E-02  0.1298323E+00
          1   -1    0    0  501    0  0.00000000000E+00  0.00000000000E+00  0.25541479654E+03  0.25541479654E+03  0.00000000000E+00 0. -1.
         -1   -1    0    0    0  501 -0.00000000000E+00 -0.00000000000E+00 -0.57989949466E+02  0.57989949466E+02  0.00000000000E+00 0.  1.
         25    2    1    2    0    0 -0.23453588971E+02  0.23141967994E+02  0.16659308632E+03  0.21091722197E+03  0.12508875488E+03 0.  0.
          5    1    3    3  502    0  0.29333831261E+02 -0.32366637356E+02  0.10048308276E+03  0.10964668345E+03  0.41800000000E+01 0.  1.
         -5    1    3    3    0  502 -0.52787420232E+02  0.55508605350E+02  0.66110003560E+02  0.10127053853E+03  0.41800000000E+01 0.  1.
        -11    1    1    2    0    0  0.41065480296E+02 -0.14249227014E+02  0.55757242539E+02  0.70698544808E+02  0.00000000000E+00 0. -1.
         11    1    1    2    0    0 -0.17611891325E+02 -0.88927409798E+01 -0.24925481782E+02  0.31788979226E+02  0.00000000000E+00 0.  1.
</event>
<event>
 7    1  0.2440960E-009  0.1784485E+03  0.7561462E-02  0.1169313E+00
          2   -1    0    0  501    0  0.00000000000E+00  0.00000000000E+00  0.15117633498E+04  0.15117633498E+04  0.00000000000E+00 0. -1.
         -2   -1    0    0    0  501 -0.00000000000E+00 -0.00000000000E+00 -0.26716326268E+02  0.26716326268E+02  0.00000000000E+00 0.  1.
         25    2    1    2    0    0 -0.14131569942E+03 -0.67309836424E+02  0.10187457741E+04  0.10382622586E+04  0.12507927192E+03 0.  0.
          5    1    3    3  502    0 -0.30734092288E+02 -0.82828351600E+02  0.47172559803E+03  0.47994544741E+03  0.41800000000E+01 0.  1.
         -5    1    3    3    0  502 -0.11058160713E+03  0.15518515177E+02  0.54702017610E+03  0.55831681115E+03  0.41800000000E+01 0.  1.
        -11    1    1    2    0    0  0.48984748660E+02  0.19392148650E+02  0.55801067121E+02  0.76741905908E+02  0.00000000000E+00 0.  1.
         11    1    1    2    0    0  0.92330950761E+02  0.47917687774E+02  0.41050018227E+03  0.42347551159E+03  0.00000000000E+00 0. -1.
</event>
<event>
 7    1  0.2440960E-009  0.1133425E+03  0.7561462E-02  0.1254502E+00
         -3   -1    0    0    0  501 -0.00000000000E+00  0.00000000000E+00  0.10639461745E+03  0.10639461745E+03  0.00000000000E+00 0.  1.
          3   -1    0    0  501    0  0.00000000000E+00 -0.00000000000E+00 -0.21607033977E+03  0.21607033977E+03  0.00000000000E+00 0. -1.
         25    2    1    2    0    0 -0.14243854329E+02 -0.10104680396E+03 -0.28337936775E+02  0.16389601806E+03  0.12508206145E+03 0.  0.
          5    1    3    3  502    0 -0.11326818861E+02 -0.75666726140E+02  0.43099042583E+02  0.87913310379E+02  0.41800000000E+01 0.  1.
         -5    1    3    3    0  502 -0.29170354681E+01 -0.25380077823E+02 -0.71436979358E+02  0.75982707677E+02  0.41800000000E+01 0.  1.
        -11    1    1    2    0    0 -0.12380095661E+02  0.96346382213E+02 -0.87615186327E+02  0.13081403980E+03  0.00000000000E+00 0. -1.
         11    1    1    2    0    0  0.26623949991E+02  0.47004217500E+01  0.62774007888E+01  0.27754899358E+02  0.00000000000E+00 0.  1.
</event>
<event>
 7    1  0.2440960E-009  0.1023434E+03  0.7561462E-02  0.1275444E+00
         -1   -1    0    0    0  501 -0.00000000000E+00  0.00000000000E+00  0.11482846882E+04  0.11482846882E+04  0.00000000000E+00 0.  1.
          1   -1    0    0  501    0  0.00000000000E+00 -0.00000000000E+00 -0.14523538412E+02  0.14523538412E+02  0.00000000000E+00 0. -1.
         25    2    1    2    0    0  0.61707082568E+02  0.16180174486E+02  0.76006501542E+03  0.77292644770E+03  0.12508758450E+03 0.  0.
          5    1    3    3  502    0  0.52540607952E+02 -0.34576638971E+02  0.62688892282E+03  0.63005019912E+03  0.41800000000E+01 0. -1.
         -5    1    3    3    0  502  0.91664746161E+01  0.50756813458E+02  0.13317609260E+03  0.14287624858E+03  0.41800000000E+01 0. -1.
        -11    1    1    2    0    0 -0.59627688558E+02  0.12686444670E+02  0.34018028743E+03  0.34559952991E+03  0.00000000000E+00 0.  1.
         11    1    1    2    0    0 -0.20793940097E+01 -0.28866619156E+02  0.33515846955E+02  0.44282249018E+02  0.00000000000E+00 0. -1.
</event>
<event>
 7    1  0.2440960E-009  0.2537599E+03  0.7561462E-02  0.1110951E+00
         -1   -1    0    0    0  501 -0.00000000000E+00  0.00000000000E+00  0.20701947840E+04  0.20701947840E+04  0.00000000000E+00 0. -1.
          1   -1    0    0  501    0  0.00000000000E+00 -0.00000000000E+00 -0.40606409424E+02  0.40606409424E+02  0.00000000000E+00 0.  1.
         25    2    1    2    0    0  0.24132853648E+03 -0.50179208826E+02  0.14241102541E+04  0.14506876008E+04  0.12508830379E+03 0.  0.
          5    1    3    3  502    0  0.27320041944E+02  0.21244914577E+02  0.73389459905E+02  0.81247869587E+02  0.41800000000E+01 0. -1.
         -5    1    3    3    0  502  0.21400849454E+03 -0.71424123402E+02  0.13507207942E+04  0.13694397312E+04  0.41800000000E+01 0. -1.
        -11    1    1    2    0    0 -0.48279042714E+02  0.35605043919E+01  0.47400269568E+02  0.67751964636E+02  0.00000000000E+00 0.  1.
         11    1    1    2    0    0 -0.19304949377E+03  0.46618704434E+02  0.55807785093E+03  0.59236162801E+03  0.00000000000E+00 0. -1.
</event>
<event>
 7    1  0.2440960E-009  0.9844845E+02  0.7561462E-02  0.1283593E+00
         -1   -1    0    0    0  501 -0.00000000000E+00  0.00000000000E+00  0.57593682904E+02  0.57593682904E+02  0.00000000000E+00 0.  1.
          1   -1    0    0  501    0  0.00000000000E+00 -0.00000000000E+00 -0.25580727487E+03  0.25580727487E+03  0.00000000000E+00 0. -1.
         25    2    1    2    0    0  0.46538758178E+02 -0.24502818044E+02 -0.13582999968E+03  0.19199609499E+03  0.12508584082E+03 0.  0.
          5    1    3    3  502    0  0.30291212842E+02 -0.75362458138E+02 -0.91975697547E+02  0.12277645952E+03  0.41800000000E+01 0.  1.
         -5    1    3    3    0  502  0.16247545336E+02  0.50859640094E+02 -0.43854302132E+02  0.69219635476E+02  0.41800000000E+01 0.  1.
        -11    1    1    2    0    0 -0.12028826788E+02 -0.81281717321E+01 -0.71572264444E+02  0.73029780824E+02  0.00000000000E+00 0. -1.
         11    1    1    2    0    0 -0.34509931390E+02  0.32630989776E+02  0.91886721586E+01  0.48375081957E+02  0.00000000000E+00 0.  1.
</event>
<event>
 7    1  0.2440960E-009  0.1079341E+03  0.7561462E-02  0.1264444E+00
          1   -1    0    0  501    0  0.00000000000E+00  0.00000000000E+00  0.24025406792E+03  0.24025406792E+03  0.00000000000E+00 0. -1.
         -1   -1    0    0    0  501 -0.00000000000E+00 -0.00000000000E+00 -0.99002252753E+02  0.99002252753E+02  0.00000000000E+00 0.  1.
         25    2    1    2    0    0  0.82430328496E+01  0.80578749403E+02 -0.42899402086E+01  0.14909190623E+03  0.12509640470E+03 0.  0.
          5    1    3    3  502    0 -0.28909608692E+02  0.63704774387E+02  0.46275084129E+02  0.83981662079E+02  0.41800000000E+01 0. -1.
         -5    1    3    3    0  502  0.37152641542E+02  0.16873975017E+02 -0.50565024338E+02  0.65110244146E+02  0.41800000000E+01 0. -1.
        -11    1    1    2    0    0 -0.37585814562E+02 -0.46766089508E+02  0.31746574206E+02  0.67879345592E+02  0.00000000000E+00 0.  1.
         11    1    1    2    0    0  0.29342781712E+02 -0.33812659895E+02  0.11379518117E+03  0.12228506886E+03  0.00000000000E+00 0. -1.
</event>
<event>
 7    1  0.2440960E-009  0.1109513E+03  0.7561462E-02  0.1258818E+00
          1   -1    0    0  501    0  0.00000000000E+00  0.00000000000E+00  0.11905512996E+03  0.11905512996E+03  0.00000000000E+00 0. -1.
         -1   -1    0    0    0  501 -0.00000000000E+00 -0.00000000000E+00 -0.15923546827E+03  0.15923546827E+03  0.00000000000E+00 0.  1.
         25    2    1    2    0    0 -0.55666433555E+02  0.81681361180E+01  0.41779995110E+02  0.14338226829E+03  0.12508971419E+03 0.  0.
          5    1    3    3  502    0  0.19447890293E+02 -0.38529679832E+02 -0.42816258541E+01  0.43572484262E+02  0.41800000000E+01 0. -1.
         -5    1    3    3    0  502 -0.75114323848E+02  0.46697815950E+02  0.46061620965E+02  0.99809784027E+02  0.41800000000E+01 0. -1.
        -11    1    1    2    0    0  0.27063881683E+02  0.31220060692E+02 -0.20864794432E+01  0.41370270459E+02  0.00000000000E+00 0. -1.
         11    1    1    2    0    0  0.28602551872E+02 -0.39388196810E+02 -0.79873853976E+02  0.93538059476E+02  0.00000000000E+00 0.  1.
</event>
<event>
 7    1  0.2440960E-009  0.1073573E+03  0.7561462E-02  0.1265543E+00
          1   -1    0    0  501    0  0.00000000000E+00  0.00000000000E+00  0.80644242112E+02  0.80644242112E+02  0.00000000000E+00 0. -1.
         -1   -1    0    0    0  501 -0.00000000000E+00 -0.00000000000E+00 -0.14891510808E+03  0.14891510808E+03  0.00000000000E+00 0.  1.
         25    2    1    2    0    0 -0.39357149435E+01 -0.13701932938E+01 -0.19690854357E+02  0.12670346251E+03  0.12509464570E+03 0.  0.
          5    1    3    3  502    0 -0.12495523858E+02  0.60398561277E+02 -0.17145542934E+02  0.64152680095E+02  0.41800000000E+01 0. -1.
         -5    1    3    3    0  502  0.85598089145E+01 -0.61768754571E+02 -0.25453114237E+01  0.62550782410E+02  0.41800000000E+01 0. -1.
        -11    1    1    2    0    0 -0.32105374994E+02 -0.29001562179E+02 -0.27174090099E+02  0.51090868901E+02  0.00000000000E+00 0.  1.
         11    1    1    2    0    0  0.36041089938E+02  0.30371755473E+02 -0.21405921516E+02  0.51765018790E+02  0.00000000000E+00 0. -1.
</event>
<event>
 7    1  0.2440960E-009  0.1272930E+03  0.7561462E-02  0.1231529E+00
          2   -1    0    0  501    0  0.00000000000E+00  0.00000000000E+00  0.55932992314E+03  0.55932992314E+03  0.00000000000E+00 0. -1.
         -2   -1    0    0    0  501 -0.00000000000E+00 -0.00000000000E+00 -0.47878849100E+02  0.47878849100E+02  0.00000000000E+00 0.  1.
         25    2    1    2    0    0  0.14792883603E+02 -0.93705963278E+02  0.41679527766E+03  0.44538252266E+03  0.12509057137E+03 0.  0.
          5    1    3    3  502    0 -0.39853698190E+02 -0.71842006688E+02  0.33225039067E+03  0.34228261085E+03  0.41800000000E+01 0. -1.
         -5    1    3    3    0  502  0.54646581793E+02 -0.21863956590E+02  0.84544886989E+02  0.10309991181E+03  0.41800000000E+01 0. -1.
        -11    1    1    2    0    0  0.14170679281E+02  0.80052361494E+02  0.24822895646E+02  0.85002146328E+02  0.00000000000E+00 0.  1.
         11    1    1    2    0    0 -0.28963562885E+02  0.13653601784E+02  0.69832900735E+02  0.76824103260E+02  0.00000000000E+00 0. -1.
</event>
<event>
 7    1  0.2440960E-009  0.1199769E+03  0.7561462E-02  0.1243135E+00
          1   -1    0    0  501    0  0.00000000000E+00  0.00000000000E+00  0.13809942247E+03  0.13809942247E+03  0.00000000000E+00 0. -1.
         -1   -1    0    0    0  501 -0.00000000000E+00 -0.00000000000E+00 -0.10704790356E+03  0.10704790356E+03  0.00000000000E+00 0.  1.
         25    2    1    2    0    0 -0.44143885535E+02 -0.32120175967E+02  0.11107986156E+02  0.13693527463E+03  0.12508994263E+03 0.  0.
          5    1    3    3  502    0 -0.40001224842E+01  0.47004897461E+02 -0.45226421507E+00  0.47361781091E+02  0.41800000000E+01 0. -1.
         -5    1    3    3    0  502 -0.40143763051E+02 -0.79125073428E+02  0.11560250372E+02  0.89573493543E+02  0.41800000000E+01 0. -1.
        -11    1    1    2    0    0 -0.21727331140E+01  0.52943122429E+02  0.22035354168E+02  0.57386860997E+02  0.00000000000E+00 0.  1.
         11    1    1    2    0    0  0.46316618649E+02 -0.20822946462E+02 -0.20918214114E+01  0.50825190401E+02  0.00000000000E+00 0. -1.
</event>
<event>
 7    1  0.2440960E-009  0.1536071E+03  0.7561462E-02  0.1196109E+00
         -1   -1    0    0    0  501 -0.00000000000E+00  0.00000000000E+00  0.17109226500E+03  0.17109226500E+03  0.00000000000E+00 0.  1.
          1   -1    0    0  501    0  0.00000000000E+00 -0.00000000000E+00 -0.22997394860E+03  0.22997394860E+03  0.00000000000E+00 0. -1.
         25    2    1    2    0    0 -0.43992450418E+02 -0.10652102231E+03  0.89387586707E+02  0.19215751614E+03  0.12510917817E+03 0.  0.
          5    1    3    3  502    0 -0.82262226083E+02 -0.92260404506E+02  0.86650268543E+02  0.15101257404E+03  0.41800000000E+01 0.  1.
         -5    1    3    3    0  502  0.38269775664E+02 -0.14260617807E+02  0.27373181644E+01  0.41144942100E+02  0.41800000000E+01 0.  1.
        -11    1    1    2    0    0  0.61278898089E+02  0.38663989629E+02 -0.10147422023E+03  0.12468770916E+03  0.00000000000E+00 0. -1.
         11    1    1    2    0    0 -0.17286447671E+02  0.67857032684E+02 -0.46795050083E+02  0.84220988299E+02  0.00000000000E+00 0.  1.
</event>
<event>
 7    1  0.2440960E-009  0.1282265E+03  0.7561462E-02  0.1230111E+00
         -1   -1    0    0    0  501 -0.00000000000E+00  0.00000000000E+00  0.31705743951E+03  0.31705743951E+03  0.00000000000E+00 0.  1.
          1   -1    0    0  501    0  0.00000000000E+00 -0.00000000000E+00 -0.64183542360E+02  0.64183542360E+02  0.00000000000E+00 0. -1.
         25    2    1    2    0    0 -0.80240519291E+02 -0.47189196406E+02  0.14721860095E+03  0.21443356300E+03  0.12507228023E+03 0.  0.
          5    1    3    3  502    0 -0.56684774678E+02 -0.82897240686E+02  0.59633935243E+02  0.11687084678E+03  0.41800000000E+01 0. -1.
         -5    1    3    3    0  502 -0.23555744612E+02  0.35708044280E+02  0.87584665703E+02  0.97562716223E+02  0.41800000000E+01 0. -1.
        -11    1    1    2    0    0  0.43921772623E+02 -0.10156489811E+02  0.84388174046E+02  0.95674658685E+02  0.00000000000E+00 0.  1.
         11    1    1    2    0    0  0.36318746668E+02  0.57345686216E+02  0.21267122162E+02  0.71132760190E+02  0.00000000000E+00 0. -1.
</event>
<event>
 7    1  0.2440960E-009  0.1259409E+03  0.7561462E-02  0.1233606E+00
         -2   -1    0    0    0  501 -0.00000000000E+00  0.00000000000E+00  0.21034383291E+02  0.21034383291E+02  0.00000000000E+00 0. -1.
          2   -1    0    0  501    0  0.00000000000E+00 -0.00000000000E+00 -0.85791051534E+03  0.85791051534E+03  0.00000000000E+00 0.  1.
         25    2    1    2    0    0  0.72206387542E+02 -0.32713397116E+02 -0.46589697597E+03  0.48886731568E+03  0.12508929360E+03 0.  0.
          5    1    3    3  502    0  0.89846006568E+02 -0.53767774762E+02 -0.43443298143E+03  0.44689234302E+03  0.41800000000E+01 0.  1.
         -5    1    3    3    0  502 -0.17639619025E+02  0.21054377646E+02 -0.31463994540E+02  0.41974972661E+02  0.41800000000E+01 0.  1.
        -11    1    1    2    0    0 -0.77967956873E+02  0.55565610834E+02 -0.31783532451E+03  0.33194251447E+03  0.00000000000E+00 0. -1.
         11    1    1    2    0    0  0.57615693309E+01 -0.22852213718E+02 -0.53143831570E+02  0.58135068478E+02  0.00000000000E+00 0.  1.
</event>
<event>
 7    1  0.2440960E-009  0.1124819E+03  0.7561462E-02  0.1256042E+00
         -1   -1    0    0    0  501 -0.00000000000E+00  0.00000000000E+00  0.49086732534E+02  0.49086732534E+02  0.00000000000E+00 0. -1.
          1   -1    0    0  501    0  0.00000000000E+00 -0.00000000000E+00 -0.33270415841E+03  0.33270415841E+03  0.00000000000E+00 0.  1.
         25    2    1    2    0    0 -0.22610005237E+02  0.52406487316E+02 -0.10357648329E+03  0.17214133907E+03  0.12508757123E+03 0.  0.
          5    1    3    3  502    0 -0.46595350188E+02 -0.25979678516E+02 -0.27222849661E+02  0.60038540111E+02  0.41800000000E+01 0.  1.
         -5    1    3    3    0  502  0.23985344952E+02  0.78386165832E+02 -0.76353633632E+02  0.11210279896E+03  0.41800000000E+01 0.  1.
        -11    1    1    2    0    0  0.46934769703E+02 -0.41743072142E+02 -0.60558257854E+02  0.87250554572E+02  0.00000000000E+00 0. -1.
         11    1    1    2    0    0 -0.24324764466E+02 -0.10663415174E+02 -0.11948268473E+03  0.12239899729E+03  0.00000000000E+00 0.  1.
</event>
<event>
 7    1  0.2440960E-009  0.1839466E+03  0.7561462E-02  0.1164037E+00
          2   -1    0    0  501    0  0.00000000000E+00  0.00000000000E+00  0.93081469087E+03  0.93081469087E+03  0.00000000000E+00 0. -1.
         -2   -1    0    0    0  501 -0.00000000000E+00 -0.00000000000E+00 -0.39812601333E+02  0.39812601333E+02  0.00000000000E+00 0.  1.
         25    2    1    2    0    0  0.60426599555E+02 -0.14668377383E+03  0.45985750341E+03  0.50227852261E+03  0.12508911784E+03 0.  0.
          5    1    3    3  502    0 -0.35316183575E+02 -0.53771149495E+02  0.10577819883E+03  0.12387521579E+03  0.41800000000E+01 0. -1.
         -5    1    3    3    0  502  0.95742783130E+02 -0.92912624331E+02  0.35407930458E+03  0.37840330682E+03  0.41800000000E+01 0. -1.
        -11    1    1    2    0    0 -0.41442612493E+02  0.28617883007E+02  0.59575125159E+02  0.78010697316E+02  0.00000000000E+00 0.  1.
         11    1    1    2    0    0 -0.18983987061E+02  0.11806589082E+03  0.37156946097E+03  0.39033807227E+03  0.00000000000E+00 0. -1.
</event>
<event>
 7    1  0.2440960E-009  0.1450874E+03  0.7561462E-02  0.1206643E+00
         -1   -1    0    0    0  501 -0.00000000000E+00  0.00000000000E+00  0.13485916376E+03  0.13485916376E+03  0.00000000000E+00 0.  1.
          1   -1    0    0  501    0  0.00000000000E+00 -0.00000000000E+00 -0.21059380836E+03  0.21059380836E+03  0.00000000000E+00 0. -1.
         25    2    1    2    0    0  0.12367749747E+03 -0.22373270231E+02 -0.76248941644E+02  0.19302291279E+03  0.12508899695E+03 0.  0.
          5    1    3    3  502    0  0.17646388603E+02 -0.41685003535E+02  0.18865756557E+02  0.49218123907E+02  0.41800000000E+01 0. -1.
         -5    1    3    3    0  502  0.10603110887E+03  0.19311733304E+02 -0.95114698201E+02  0.14380478888E+03  0.41800000000E+01 0. -1.
        -11    1    1    2    0    0 -0.88879404906E+02  0.40444449877E+02 -0.30646908294E+02  0.10234517639E+03  0.00000000000E+00 0. -1.
         11    1    1    2    0    0 -0.34798092569E+02 -0.18071179646E+02  0.31161205338E+02  0.50084882932E+02  0.00000000000E+00 0.  1.
</event>
<event>
 7    1  0.2440960E-009  0.1097700E+03  0.7561462E-02  0.1260996E+00
         -2   -1    0    0    0  501 -0.00000000000E+00  0.00000000000E+00  0.43749425446E+02  0.43749425446E+02  0.00000000000E+00 0.  1.
          2   -1    0    0  501    0  0.00000000000E+00 -0.00000000000E+00 -0.32159494461E+03  0.32159494461E+03  0.00000000000E+00 0. -1.
         25    2    1    2    0    0 -0.29312236408E+02 -0.13795919474E+02 -0.10228274996E+03  0.16479807845E+03  0.12508841322E+03 0.  0.
          5    1    3    3  502    0 -0.27139340893E+02  0.53981760429E+02 -0.56849115781E+02  0.83065447980E+02  0.41800000000E+01 0. -1.
         -5    1    3    3    0  502 -0.21728955148E+01 -0.67777679903E+02 -0.45433634182E+02  0.81732630466E+02  0.41800000000E+01 0. -1.
        -11    1    1    2    0    0  0.42911346790E+02  0.41798684305E+02 -0.79352283546E+02  0.99424838934E+02  0.00000000000E+00 0. -1.
         11    1    1    2    0    0 -0.13599110383E+02 -0.28002764832E+02 -0.96210485660E+02  0.10112145268E+03  0.00000000000E+00 0.  1.
</event>
<event>
 7    1  0.2440960E-009  0.1505835E+03  0.7561462E-02  0.1199758E+00
         -4   -1    0    0    0  501 -0.00000000000E+00  0.00000000000E+00  0.95514461521E+02  0.95514461521E+02  0.00000000000E+00 0.  1.
          4   -1    0    0  501    0  0.00000000000E+00 -0.00000000000E+00 -0.40347012813E+03  0.40347012813E+03  0.00000000000E+00 0. -1.
         25    2    1    2    0    0 -0.10905760715E+03 -0.72781406854E+02 -0.27715047916E+03  0.33113501178E+03  0.12508922042E+03 0.  0.
          5    1    3    3  502    0 -0.65372686074E+02 -0.13923352472E+02 -0.30130245462E+02  0.73435358787E+02  0.41800000000E+01 0.  1.
         -5    1    3    3    0  502 -0.43684921077E+02 -0.58858054382E+02 -0.24702023370E+03  0.25769965299E+03  0.41800000000E+01 0.  1.
        -11    1    1    2    0    0  0.58860178314E+02  0.90148819623E+02 -0.25682511313E+01  0.10769366826E+03  0.00000000000E+00 0.  1.
         11    1    1    2    0    0  0.50197428837E+02 -0.17367412768E+02 -0.28236936315E+02  0.60155909606E+02  0.00000000000E+00 0. -1.
</event>
<event>
 7    1  0.2440960E-009  0.7836528E+02  0.7561462E-02  0.1333756E+00
         -2   -1    0    0    0  501 -0.00000000000E+00  0.00000000000E+00  0.41461889586E+02  0.41461889586E+02  0.00000000000E+00 0. -1.
          2   -1    0    0  501    0  0.00000000000E+00 -0.00000000000E+00 -0.39270850241E+03  0.39270850241E+03  0.00000000000E+00 0.  1.
         25    2    1    2    0    0 -0.33065246579E+02 -0.26189132655E+02 -0.28540172865E+03  0.31445137570E+03  0.12508532992E+03 0.  0.
          5    1    3    3  502    0 -0.51780374034E+02 -0.50161310750E+01 -0.35960562186E+02  0.63379832272E+02  0.41800000000E+01 0. -1.
         -5    1    3    3    0  502  0.18715127455E+02 -0.21173001580E+02 -0.24944116647E+03  0.25107154343E+03  0.41800000000E+01 0. -1.
        -11    1    1    2    0    0  0.48923658048E+02  0.32684339637E+02 -0.78724289413E+02  0.98281758826E+02  0.00000000000E+00 0.  1.
         11    1    1    2    0    0 -0.15858411469E+02 -0.64952069822E+01  0.12879405247E+02  0.21437257464E+02  0.00000000000E+00 0. -1.
</event>
<event>
 7    1  0.2440960E-009  0.8891383E+02  0.7561462E-02  0.1305504E+00
         -2   -1    0    0    0  501 -0.00000000000E+00  0.00000000000E+00  0.41325840607E+02  0.41325840607E+02  0.00000000000E+00 0. -1.
          2   -1    0    0  501    0  0.00000000000E+00 -0.00000000000E+00 -0.46555961562E+03  0.46555961562E+03  0.00000000000E+00 0.  1.
         25    2    1    2    0    0  0.17299937742E+01 -0.45229074306E+02 -0.33779581936E+03  0.36304453159E+03  0.12508658722E+03 0.  0.
          5    1    3    3  502    0 -0.85685991124E+00 -0.74476579366E+02 -0.31973085643E+03  0.32831812017E+03  0.41800000000E+01 0. -1.
         -5    1    3    3    0  502  0.25868536855E+01  0.29247505060E+02 -0.18064962932E+02  0.34726411418E+02  0.41800000000E+01 0. -1.
        -11    1    1    2    0    0  0.28014310001E+02  0.18415473325E+02  0.13528378108E+02  0.36151739057E+02  0.00000000000E+00 0. -1.
         11    1    1    2    0    0 -0.29744303775E+02  0.26813600981E+02 -0.99966333767E+02  0.10768918558E+03  0.00000000000E+00 0.  1.
</event>
<event>
 7    1  0.2440960E-009  0.1069973E+03  0.7561462E-02  0.1266234E+00
          1   -1    0    0  501    0  0.00000000000E+00  0.00000000000E+00  0.14225996967E+03  0.14225996967E+03  0.00000000000E+00 0. -1.
         -1   -1    0    0    0  501 -0.00000000000E+00 -0.00000000000E+00 -0.12497430420E+03  0.12497430420E+03  0.00000000000E+00 0.  1.
         25    2    1    2    0    0 -0.36760904599E+01 -0.25614740797E+02  0.83174880327E+02  0.15243015430E+03  0.12508901884E+03 0.  0.
          5    1    3    3  502    0 -0.36960159808E+02  0.39599687003E+02  0.37933332532E+02  0.66261593255E+02  0.41800000000E+01 0.  1.
         -5    1    3    3    0  502  0.33284069348E+02 -0.65214427800E+02  0.45241547795E+02  0.86168561045E+02  0.41800000000E+01 0.  1.
        -11    1    1    2    0    0 -0.43493314056E+01 -0.29911422107E+02 -0.46469843842E+02  0.55435153494E+02  0.00000000000E+00 0.  1.
         11    1    1    2    0    0  0.80254218655E+01  0.55526162904E+02 -0.19419371010E+02  0.59368966079E+02  0.00000000000E+00 0. -1.
</event>
<event>
 7    1  0.2440960E-009  0.1059698E+03  0.7561462E-02  0.1268221E+00
         -4   -1    0    0    0  501 -0.00000000000E+00  0.00000000000E+00  0.88238789442E+02  0.88238789442E+02  0.00000000000E+00 0.  1.
          4   -1    0    0  501    0  0.00000000000E+00 -0.00000000000E+00 -0.17391060881E+03  0.17391060881E+03  0.00000000000E+00 0. -1.
         25    2    1    2    0    0 -0.25451173711E+02 -0.16154676043E+02 -0.99127578940E+02  0.16242880745E+03  0.12509238498E+03 0.  0.
          5    1    3    3  502    0 -0.70562420157E+02  0.10525454039E+02 -0.35219166897E+02  0.79672469762E+02  0.41800000000E+01 0.  1.
         -5    1    3    3    0  502  0.45111246446E+02 -0.26680130082E+02 -0.63908412043E+02  0.82756337684E+02  0.41800000000E+01 0.  1.
        -11    1    1    2    0    0 -0.19882579315E+02  0.33829586388E+02 -0.16514920143E+02  0.42573471349E+02  0.00000000000E+00 0. -1.
         11    1    1    2    0    0  0.45333753026E+02 -0.17674910345E+02  0.29970679717E+02  0.57147119453E+02  0.00000000000E+00 0.  1.
</event>
<event>
 7    1  0.2440960E-009  0.1285224E+03  0.7561462E-02  0.1229665E+00
         -1   -1    0    0    0  501 -0.00000000000E+00  0.00000000000E+00  0.22162581342E+02  0.22162581342E+02  0.00000000000E+00 0.  1.
          1   -1    0    0  501    0  0.00000000000E+00 -0.00000000000E+00 -0.10927141865E+04  0.10927141865E+04  0.00000000000E+00 0. -1.
         25    2    1    2    0    0  0.88464204812E+02  0.41604309619E+02 -0.90811451136E+03  0.92188497718E+03  0.12507242415E+03 0.  0.
          5    1    3    3  502    0 -0.24024950201E+02  0.31766033609E+02 -0.36163559773E+03  0.36384619975E+03  0.41800000000E+01 0.  1.
         -5    1    3    3    0  502  0.11248915501E+03  0.98382760104E+01 -0.54647891363E+03  0.55803877743E+03  0.41800000000E+01 0.  1.
        -11    1    1    2    0    0 -0.82284749079E+02 -0.24559621317E+02 -0.12926135780E+03  0.15518522336E+03  0.00000000000E+00 0. -1.
         11    1    1    2    0    0 -0.61794557335E+01 -0.17044688302E+02 -0.33175736007E+02  0.37806567315E+02  0.00000000000E+00 0.  1.
</event>
<event>
 7    1  0.2440960E-009  0.1407430E+03  0.7561462E-02  0.1212333E+00
          1   -1    0    0  501    0  0.00000000000E+00  0.00000000000E+00  0.72494441692E+03  0.72494441692E+03  0.00000000000E+00 0. -1.
         -1   -1    0    0    0  501 -0.00000000000E+00 -0.00000000000E+00 -0.38309584978E+02  0.38309584978E+02  0.00000000000E+00 0.  1.
         25    2    1    2    0    0  0.31988623449E+02 -0.10097271765E+03  0.20553166000E+03  0.26288901187E+03  0.12509439460E+03 0.  0.
          5    1    3    3  502    0  0.59369954343E+02 -0.11578241533E+03  0.14623152058E+03  0.19578429250E+03  0.41800000000E+01 0. -1.
         -5    1    3    3    0  502 -0.27381330893E+02  0.14809697678E+02  0.59300139419E+02  0.67104719372E+02  0.41800000000E+01 0. -1.
        -11    1    1    2    0    0 -0.41577516001E+02  0.38423845174E+02  0.10805192745E+03  0.12198483815E+03  0.00000000000E+00 0.  1.
         11    1    1    2    0    0  0.95888925511E+01  0.62548872481E+02  0.37305124450E+03  0.37838015188E+03  0.00000000000E+00 0. -1.
</event>
<event>
 7    1  0.2440960E-009  0.1091548E+03  0.7561462E-02  0.1262143E+00
          2   -1    0    0  501    0  0.00000000000E+00  0.00000000000E+00  0.77186736698E+03  0.77186736698E+03  0.00000000000E+00 0. -1.
         -2   -1    0    0    0  501 -0.00000000000E+00 -0.00000000000E+00 -0.34275304476E+02  0.34275304476E+02  0.00000000000E+00 0.  1.
         25    2    1    2    0    0 -0.81568121845E+02 -0.61754341604E+02  0.55037584418E+03  0.57360935697E+03  0.12508863792E+03 0.  0.
          5    1    3    3  502    0 -0.72831620796E+01 -0.16814567603E+02  0.39599391833E+03  0.39643969262E+03  0.41800000000E+01 0. -1.
         -5    1    3    3    0  502 -0.74284959765E+02 -0.44939774000E+02  0.15438192586E+03  0.17716966435E+03  0.41800000000E+01 0. -1.
        -11    1    1    2    0    0  0.24859351760E+02 -0.46279639369E+01 -0.73158058277E+00  0.25297047857E+02  0.00000000000E+00 0.  1.
         11    1    1    2    0    0  0.56708770085E+02  0.66382305540E+02  0.18794779890E+03  0.20723626663E+03  0.00000000000E+00 0. -1.
</event>
<event>
 7    1  0.2440960E-009  0.1108320E+03  0.7561462E-02  0.1259037E+00
          1   -1    0    0  501    0  0.00000000000E+00  0.00000000000E+00  0.17166767157E+03  0.17166767157E+03  0.00000000000E+00 0. -1.
         -1   -1    0    0    0  501 -0.00000000000E+00 -0.00000000000E+00 -0.87365628258E+02  0.87365628258E+02  0.00000000000E+00 0.  1.
         25    2    1    2    0    0  0.46354346346E+02 -0.82329425417E+01  0.82083352072E+02  0.15685170499E+03  0.12509306097E+03 0.  0.
          5    1    3    3  502    0 -0.23677427037E+02 -0.44575177126E+02  0.51207295047E+02  0.72022402299E+02  0.41800000000E+01 0.  1.
         -5    1    3    3    0  502  0.70031773383E+02  0.36342234584E+02  0.30876057025E+02  0.84829302692E+02  0.41800000000E+01 0.  1.
        -11    1    1    2    0    0 -0.49083563568E+02  0.38025599580E+02 -0.19648500941E+02  0.65124542418E+02  0.00000000000E+00 0.  1.
         11    1    1    2    0    0  0.27292172219E+01 -0.29792657038E+02  0.21867192179E+02  0.37057052417E+02  0.00000000000E+00 0. -1.
</event>
<event>
 7    1  0.2440960E-009  0.8691759E+02  0.7561462E-02  0.1310493E+00
         -2   -1    0    0    0  501 -0.00000000000E+00  0.00000000000E+00  0.25802323635E+02  0.25802323635E+02  0.00000000000E+00 0.  1.
          2   -1    0    0  501    0  0.00000000000E+00 -0.00000000000E+00 -0.49325527020E+03  0.49325527020E+03  0.00000000000E+00 0. -1.
         25    2    1    2    0    0 -0.64883072877E+01 -0.28599040399E+02 -0.23722647182E+03  0.26978596703E+03  0.12509222930E+03 0.  0.
          5    1    3    3  502    0  0.22700996697E+02 -0.44183884476E+02 -0.26537645587E+02  0.56473621557E+02  0.41800000000E+01 0.  1.
         -5    1    3    3    0  502 -0.29189303985E+02  0.15584844076E+02 -0.21068882624E+03  0.21331234548E+03  0.41800000000E+01 0.  1.
        -11    1    1    2    0    0 -0.25702528347E+02 -0.19842550610E+02 -0.47704443295E+02  0.57706678020E+02  0.00000000000E+00 0.  1.
         11    1    1    2    0    0  0.32190835634E+02  0.48441591009E+02 -0.18252203145E+03  0.19156494879E+03  0.00000000000E+00 0. -1.
</event>
<event>
 7    1  0.2440960E-009  0.1112652E+03  0.7561462E-02  0.1258245E+00
         -4   -1    0    0    0  501 -0.00000000000E+00  0.00000000000E+00  0.39841582226E+02  0.39841582226E+02  0.00000000000E+00 0.  1.
          4   -1    0    0  501    0  0.00000000000E+00 -0.00000000000E+00 -0.53373086134E+03  0.53373086134E+03  0.00000000000E+00 0. -1.
         25    2    1    2    0    0  0.44127901868E+02 -0.60419954918E+02 -0.14615588215E+03  0.20641659202E+03  0.12509366451E+03 0.  0.
          5    1    3    3  502    0 -0.17050375147E+02 -0.36748305709E+02  0.55310970308E+01  0.41100105833E+02  0.41800000000E+01 0. -1.
         -5    1    3    3    0  502  0.61178277014E+02 -0.23671649208E+02 -0.15168697918E+03  0.16531648619E+03  0.41800000000E+01 0. -1.
        -11    1    1    2    0    0 -0.62102569212E+02  0.71697066241E+02 -0.25620407996E+03  0.27319906478E+03  0.00000000000E+00 0.  1.
         11    1    1    2    0    0  0.17974667344E+02 -0.11277111323E+02 -0.91529317007E+02  0.93956786757E+02  0.00000000000E+00 0. -1.
</event>
<event>
 7    1  0.2440960E-009  0.7315211E+02  0.7561462E-02  0.1349691E+00
         -2   -1    0    0    0  501 -0.00000000000E+00  0.00000000000E+00  0.25920044615E+03  0.25920044615E+03  0.00000000000E+00 0.  1.
          2   -1    0    0  501    0  0.00000000000E+00 -0.00000000000E+00 -0.64044198845E+02  0.64044198845E+02  0.00000000000E+00 0. -1.
         25    2    1    2    0    0 -0.92911217882E+01 -0.57735485697E+02  0.61332876583E+02  0.15109330009E+03  0.12509097621E+03 0.  0.
          5    1    3    3  502    0 -0.24172497254E+01  0.73964165947E+00 -0.36504288471E+02  0.36829684261E+02  0.41800000000E+01 0. -1.
         -5    1    3    3    0  502 -0.68738720628E+01 -0.58475127356E+02  0.97837165053E+02  0.11426361583E+03  0.41800000000E+01 0. -1.
        -11    1    1    2    0    0 -0.23923670395E+02  0.33983283517E+02  0.12310995879E+03  0.12993562836E+03  0.00000000000E+00 0.  1.
         11    1    1    2    0    0  0.33214792183E+02  0.23752202180E+02  0.10713411931E+02  0.42215716545E+02  0.00000000000E+00 0. -1.
</event>
<event>
 7    1  0.2440960E-009  0.8097931E+02  0.7561462E-02  0.1326295E+00
          1   -1    0    0  501    0  0.00000000000E+00  0.00000000000E+00  0.68426134584E+03  0.68426134584E+03  0.00000000000E+00 0. -1.
         -1   -1    0    0    0  501 -0.00000000000E+00 -0.00000000000E+00 -0.24517537691E+02  0.24517537691E+02  0.00000000000E+00 0.  1.
         25    2    1    2    0    0  0.40011788682E+02 -0.42876220986E+02  0.30673373883E+03  0.33641349722E+03  0.12509652679E+03 0.  0.
          5    1    3    3  502    0  0.46190636573E+02 -0.38652794541E+02  0.46931687388E+02  0.76470053706E+02  0.41800000000E+01 0.  1.
         -5    1    3    3    0  502 -0.61788478904E+01 -0.42234264451E+01  0.25980205144E+03  0.25994344351E+03  0.41800000000E+01 0.  1.
        -11    1    1    2    0    0  0.20276861485E+02  0.24514781403E+01  0.11943569416E+02  0.23660298120E+02  0.00000000000E+00 0.  1.
         11    1    1    2    0    0 -0.60288650167E+02  0.40424742846E+02  0.34106649991E+03  0.34870508820E+03  0.00000000000E+00 0. -1.
</event>
<event>
 7    1  0.2440960E-009  0.1008393E+03  0.7561462E-02  0.1278541E+00
          1   -1    0    0  501    0  0.00000000000E+00  0.00000000000E+00  0.31063735663E+03  0.31063735663E+03  0.00000000000E+00 0. -1.
         -1   -1    0    0    0  501 -0.00000000000E+00 -0.00000000000E+00 -0.63102730032E+02  0.63102730032E+02  0.00000000000E+00 0.  1.
         25    2    1    2    0    0 -0.82568264756E+02  0.45577899262E+02  0.11566008841E+03  0.19472983130E+03  0.12509031897E+03 0.  0.
          5    1    3    3  502    0 -0.31480286411E+02 -0.13378934323E+01  0.12093499654E+03  0.12504216961E+03  0.41800000000E+01 0. -1.
         -5    1    3    3    0  502 -0.51087978345E+02  0.46915792695E+02 -0.52749081383E+01  0.69687661687E+02  0.41800000000E+01 0. -1.
        -11    1    1    2    0    0  0.69070083271E+02 -0.51001146729E+02  0.57755075363E+02  0.10347677083E+03  0.00000000000E+00 0. -1.
         11    1    1    2    0    0  0.13498181485E+02  0.54232474662E+01  0.74119462825E+02  0.75533484534E+02  0.00000000000E+00 0.  1.
</event>
<event>
 7    1  0.2440960E-009  0.1025614E+03  0.7561462E-02  0.1275000E+00
         -1   -1    0    0    0  501 -0.00000000000E+00  0.00000000000E+00  0.47463230973E+02  0.47463230973E+02  0.00000000000E+00 0.  1.
          1   -1    0    0  501    0  0.00000000000E+00 -0.00000000000E+00 -0.28954659277E+03  0.28954659277E+03  0.00000000000E+00 0. -1.
         25    2    1    2    0    0  0.35482214175E+02 -0.29122165873E+02 -0.12971099445E+03  0.18595757512E+03  0.12509272400E+03 0.  0.
          5    1    3    3  502    0 -0.33489835332E+02 -0.30662780490E+02 -0.84393136250E+01  0.46373155946E+02  0.41800000000E+01 0. -1.
         -5    1    3    3    0  502  0.68972049507E+02  0.15406146169E+01 -0.12127168083E+03  0.13958441918E+03  0.41800000000E+01 0. -1.
        -11    1    1    2    0    0 -0.23224402166E+02 -0.25463136036E+02 -0.12655420563E+02  0.36713809696E+02  0.00000000000E+00 0.  1.
         11    1    1    2    0    0 -0.12257812009E+02  0.54585301910E+02 -0.99716946783E+02  0.11433843892E+03  0.00000000000E+00 0. -1.
</event>
<event>
 7    1  0.2440960E-009  0.1892268E+03  0.7561462E-02  0.1159161E+00
          2   -1    0    0  501    0  0.00000000000E+00  0.00000000000E+00  0.11614906632E+04  0.11614906632E+04  0.00000000000E+00 0. -1.
         -2   -1    0    0    0  501 -0.00000000000E+00 -0.00000000000E+00 -0.42678350174E+02  0.42678350174E+02  0.00000000000E+00 0.  1.
         25    2    1    2    0    0  0.14696310574E+03 -0.95041663746E+02  0.35422877843E+03  0.41443524780E+03  0.12508986710E+03 0.  0.
          5    1    3    3  502    0  0.14144499100E+03 -0.38972158014E+02  0.30892082949E+03  0.34201617779E+03  0.41800000000E+01 0.  1.
         -5    1    3    3    0  502  0.55181147398E+01 -0.56069505731E+02  0.45307948947E+02  0.72419070009E+02  0.41800000000E+01 0.  1.
        -11    1    1    2    0    0 -0.60504782601E+02  0.43614302896E+02  0.15625334555E+03  0.17314197680E+03  0.00000000000E+00 0.  1.
         11    1    1    2    0    0 -0.86458323138E+02  0.51427360849E+02  0.60833018901E+03  0.61659178874E+03  0.00000000000E+00 0. -1.
</event>
<event>
 7    1  0.2440960E-009  0.1018691E+03  0.7561462E-02  0.1276414E+00
         -1   -1    0    0    0  501 -0.00000000000E+00  0.00000000000E+00  0.37938972951E+02  0.37938972951E+02  0.00000000000E+00 0.  1.
          1   -1    0    0  501    0  0.00000000000E+00 -0.00000000000E+00 -0.32636423439E+03  0.32636423439E+03  0.00000000000E+00 0. -1.
         25    2    1    2    0    0 -0.58099631744E+01 -0.13208173758E+02 -0.13196237515E+03  0.18240013657E+03  0.12509008689E+03 0.  0.
          5    1    3    3  502    0 -0.21654998960E+02 -0.59580027865E+02 -0.11310570652E+03  0.12972699005E+03  0.41800000000E+01 0. -1.
         -5    1    3    3    0  502  0.15845035785E+02  0.46371854106E+02 -0.18856668629E+02  0.52673146518E+02  0.41800000000E+01 0. -1.
        -11    1    1    2    0    0  0.47342278258E+02  0.14373853124E+02 -0.67247925197E+02  0.83487618289E+02  0.00000000000E+00 0.  1.
         11    1    1    2    0    0 -0.41532315083E+02 -0.11656793662E+01 -0.89214961093E+02  0.98415452483E+02  0.00000000000E+00 0. -1.
</event>
<event>
 7    1  0.2440960E-009  0.9057071E+02  0.7561462E-02  0.1301476E+00
         -2   -1    0    0    0  501 -0.00000000000E+00  0.00000000000E+00  0.21213645631E+02  0.21213645631E+02  0.00000000000E+00 0.  1.
          2   -1    0    0  501    0  0.00000000000E+00 -0.00000000000E+00 -0.84239841892E+03  0.84239841892E+03  0.00000000000E+00 0. -1.
         25    2    1    2    0    0  0.52996915376E+02 -0.29137411147E+02 -0.62636426087E+03  0.64158929877E+03  0.12508788602E+03 0.  0.
          5    1    3    3  502    0  0.57002979232E+02  0.96274748285E+00 -0.59498089797E+03  0.59772067713E+03  0.41800000000E+01 0. -1.
         -5    1    3    3    0  502 -0.40060638556E+01 -0.30100158630E+02 -0.31383362904E+02  0.43868621637E+02  0.41800000000E+01 0. -1.
        -11    1    1    2    0    0 -0.70823016207E+02  0.23867682250E+02 -0.18784813807E+03  0.20216945579E+03  0.00000000000E+00 0. -1.
         11    1    1    2    0    0  0.17826100831E+02  0.52697288965E+01 -0.69723743518E+01  0.19853309991E+02  0.00000000000E+00 0.  1.
</event>
<event>
 7    1  0.2440960E-009  0.1164888E+03  0.7561462E-02  0.1249004E+00
          1   -1    0    0  501    0  0.00000000000E+00  0.00000000000E+00  0.68309414972E+03  0.68309414972E+03  0.00000000000E+00 0. -1.
         -1   -1    0    0    0  501 -0.00000000000E+00 -0.00000000000E+00 -0.29104442932E+02  0.29104442932E+02  0.00000000000E+00 0.  1.
         25    2    1    2    0    0 -0.44498412827E+02 -0.42229629673E+02  0.51338864926E+03  0.53195792159E+03  0.12509146570E+03 0.  0.
          5    1    3    3  502    0 -0.60480309410E+02  0.19793989279E+02  0.15078197638E+03  0.16371422247E+03  0.41800000000E+01 0. -1.
         -5    1    3    3    0  502  0.15981896583E+02 -0.62023618952E+02  0.36260667288E+03  0.36824369913E+03  0.41800000000E+01 0. -1.
        -11    1    1    2    0    0  0.43739687483E+02 -0.16155293536E+02  0.96138612828E+02  0.10684936428E+03  0.00000000000E+00 0. -1.
         11    1    1    2    0    0  0.75872534411E+00  0.58384923209E+02  0.44462444703E+02  0.73391306782E+02  0.00000000000E+00 0.  1.
</event>
<event>
 7    1  0.2440960E-009  0.1174294E+03  0.7561462E-02  0.1247399E+00
         -2   -1    0    0    0  501 -0.00000000000E+00  0.00000000000E+00  0.16954474436E+02  0.16954474436E+02  0.00000000000E+00 0.  1.
          2   -1    0    0  501    0  0.00000000000E+00 -0.00000000000E+00 -0.10108201043E+04  0.10108201043E+04  0.00000000000E+00 0. -1.
         25    2    1    2    0    0 -0.52988311538E+02  0.49432329628E+02 -0.52361975749E+03  0.54320995269E+03  0.12509230950E+03 0.  0.
          5    1    3    3  502    0 -0.85704350016E+02  0.37418399800E+02 -0.24306362588E+03  0.26046644867E+03  0.41800000000E+01 0. -1.
         -5    1    3    3    0  502  0.32716038479E+02  0.12013929828E+02 -0.28055613161E+03  0.28274350402E+03  0.41800000000E+01 0. -1.
        -11    1    1    2    0    0 -0.19806629323E+02 -0.36166479763E+01 -0.30916807788E+02  0.36894873784E+02  0.00000000000E+00 0.  1.
         11    1    1    2    0    0  0.72794940860E+02 -0.45815681652E+02 -0.43932906463E+03  0.44766975230E+03  0.00000000000E+00 0. -1.
</event>
<event>
 7    1  0.2440960E-009  0.1032785E+03  0.7561462E-02  0.1273549E+00
         -1   -1    0    0    0  501 -0.00000000000E+00  0.00000000000E+00  0.53423375245E+03  0.53423375245E+03  0.00000000000E+00 0.  1.
          1   -1    0    0  501    0  0.00000000000E+00 -0.00000000000E+00 -0.35937731210E+02  0.35937731210E+02  0.00000000000E+00 0. -1.
         25    2    1    2    0    0 -0.45464703557E+02  0.65061534466E+01  0.12116248186E+03  0.18009825968E+03  0.12508263999E+03 0.  0.
          5    1    3    3  502    0  0.18406239846E+02 -0.29987470683E+02 -0.31690470886E+01  0.35574616269E+02  0.41800000000E+01 0. -1.
         -5    1    3    3    0  502 -0.63870943402E+02  0.36493624130E+02  0.12433152895E+03  0.14452364341E+03  0.41800000000E+01 0. -1.
        -11    1    1    2    0    0  0.48860258171E+02  0.32246860089E+02  0.26481373182E+03  0.27120748031E+03  0.00000000000E+00 0.  1.
         11    1    1    2    0    0 -0.33955546143E+01 -0.38753013536E+02  0.11231980756E+03  0.11886574368E+03  0.00000000000E+00 0. -1.
</event>
<event>
 7    1  0.2440960E-009  0.1283804E+03  0.7561462E-02  0.1229879E+00
         -1   -1    0    0    0  501 -0.00000000000E+00  0.00000000000E+00  0.31807039030E+02  0.31807039030E+02  0.00000000000E+00 0.  1.
          1   -1    0    0  501    0  0.00000000000E+00 -0.00000000000E+00 -0.74630032797E+03  0.74630032797E+03  0.00000000000E+00 0. -1.
         25    2    1    2    0    0  0.34760359130E+02 -0.10302521514E+03 -0.35271137873E+03  0.38971239778E+03  0.12509180140E+03 0.  0.
          5    1    3    3  502    0  0.20620231290E+02 -0.11724891849E+03 -0.18035861404E+03  0.21614625809E+03  0.41800000000E+01 0.  1.
         -5    1    3    3    0  502  0.14140127841E+02  0.14223703354E+02 -0.17235276468E+03  0.17356613969E+03  0.41800000000E+01 0.  1.
        -11    1    1    2    0    0 -0.25201593377E+02  0.16550272647E+02 -0.21151995424E+02  0.36829862121E+02  0.00000000000E+00 0.  1.
         11    1    1    2    0    0 -0.95587657532E+01  0.86474942492E+02 -0.34062991479E+03  0.35156510710E+03  0.00000000000E+00 0. -1.
</event>
<event>
 7    1  0.2440960E-009  0.9668791E+02  0.7561462E-02  0.1287419E+00
         -4   -1    0    0    0  501 -0.00000000000E+00  0.00000000000E+00  0.55696740078E+02  0.55696740078E+02  0.00000000000E+00 0.  1.
          4   -1    0    0  501    0  0.00000000000E+00 -0.00000000000E+00 -0.25735139361E+03  0.25735139361E+03  0.00000000000E+00 0. -1.
         25    2    1    2    0    0 -0.19251660131E+02 -0.13391949479E+02 -0.14343309767E+03  0.19175828337E+03  0.12509282556E+03 0.  0.
          5    1    3    3  502    0  0.15891054044E+02  0.30627094347E+02 -0.12880686933E+03  0.13341374177E+03  0.41800000000E+01 0. -1.
         -5    1    3    3    0  502 -0.35142714175E+02 -0.44019043826E+02 -0.14626228339E+02  0.58344541599E+02  0.41800000000E+01 0. -1.
        -11    1    1    2    0    0 -0.30143880989E+02 -0.25330399265E+02 -0.63863366396E+01  0.39888193537E+02  0.00000000000E+00 0.  1.
         11    1    1    2    0    0  0.49395541120E+02  0.38722348745E+02 -0.51835219228E+02  0.81401656785E+02  0.00000000000E+00 0. -1.
</event>
<event>
 7    1  0.2440960E-009  0.7026511E+02  0.7561462E-02  0.1359194E+00
         -4   -1    0    0    0  501 -0.00000000000E+00  0.00000000000E+00  0.81371468618E+03  0.81371468618E+03  0.00000000000E+00 0.  1.
          4   -1    0    0  501    0  0.00000000000E+00 -0.00000000000E+00 -0.18549422028E+02  0.18549422028E+02  0.00000000000E+00 0. -1.
         25    2    1    2    0    0 -0.34480658079E+02 -0.46545010173E+02  0.46213046375E+03  0.48225229204E+03  0.12508938364E+03 0.  0.
          5    1    3    3  502    0 -0.88079575554E+01 -0.20803573893E+02  0.43758565987E+03  0.43818837379E+03  0.41800000000E+01 0. -1.
         -5    1    3    3    0  502 -0.25672700523E+02 -0.25741436280E+02  0.24544803879E+02  0.44063918248E+02  0.41800000000E+01 0. -1.
        -11    1    1    2    0    0  0.34751777145E+02  0.59015405235E+02  0.33019031383E+03  0.33721824894E+03  0.00000000000E+00 0.  1.
         11    1    1    2    0    0 -0.27111906654E+00 -0.12470395062E+02  0.28444865697E+01  0.12793567227E+02  0.00000000000E+00 0. -1.
</event>
<event>
 7    1  0.2440960E-009  0.1074719E+03  0.7561462E-02  0.1265324E+00
          1   -1    0    0  501    0  0.00000000000E+00  0.00000000000E+00  0.11883718934E+03  0.11883718934E+03  0.00000000000E+00 0. -1.
         -1   -1    0    0    0  501 -0.00000000000E+00 -0.00000000000E+00 -0.11887160650E+03  0.11887160650E+03  0.00000000000E+00 0.  1.
         25    2    1    2    0    0 -0.47494315766E+02  0.96474002703E+01 -0.12922095391E+01  0.13416066696E+03  0.12509449385E+03 0.  0.
          5    1    3    3  502    0 -0.44112720662E+02 -0.52743157080E+02  0.12569274956E+02  0.70023080594E+02  0.41800000000E+01 0. -1.
         -5    1    3    3    0  502 -0.33815951047E+01  0.62390557350E+02 -0.13861484495E+02  0.64137586362E+02  0.41800000000E+01 0. -1.
        -11    1    1    2    0    0 -0.59280316012E+01  0.21018193080E+02  0.28741501102E+02  0.36096812665E+02  0.00000000000E+00 0. -1.
         11    1    1    2    0    0  0.53422347367E+02 -0.30665593350E+02 -0.27483708720E+02  0.67451316212E+02  0.00000000000E+00 0.  1.
</event>
<event>
 7    1  0.2440960E-009  0.1072785E+03  0.7561462E-02  0.1265694E+00
          2   -1    0    0  501    0  0.00000000000E+00  0.00000000000E+00  0.21959137872E+04  0.21959137872E+04  0.00000000000E+00 0.  1.
         -2   -1    0    0    0  501 -0.00000000000E+00 -0.00000000000E+00 -0.10417658026E+02  0.10417658026E+02  0.00000000000E+00 0. -1.
         25    2    1    2    0    0 -0.59584768283E+02 -0.41497479519E+02  0.16835505882E+04  0.16897524044E+04  0.12509284457E+03 0.  0.
          5    1    3    3  502    0 -0.40588183535E+02 -0.64810787195E+02  0.50169081994E+03  0.50750269949E+03  0.41800000000E+01 0. -1.
         -5    1    3    3    0  502 -0.18996584748E+02  0.23313307676E+02  0.11818597683E+04  0.11822497049E+04  0.41800000000E+01 0. -1.
        -11    1    1    2    0    0  0.65585814180E+02  0.59549174954E+02  0.47727162978E+03  0.48542333262E+03  0.00000000000E+00 0.  1.
         11    1    1    2    0    0 -0.60010458970E+01 -0.18051695435E+02  0.24673911223E+02  0.31155708224E+02  0.00000000000E+00 0. -1.
</event>
<event>
 7    1  0.2440960E-009  0.1450556E+03  0.7561462E-02  0.1206684E+00
         -2   -1    0    0    0  501 -0.00000000000E+00  0.00000000000E+00  0.47263767475E+03  0.47263767475E+03  0.00000000000E+00 0.  1.
          2   -1    0    0  501    0  0.00000000000E+00 -0.00000000000E+00 -0.55875845838E+02  0.55875845838E+02  0.00000000000E+00 0. -1.
         25    2    1    2    0    0 -0.95048499139E+02  0.32227167798E+02  0.11264820995E+03  0.19597383218E+03  0.12507324320E+03 0.  0.
          5    1    3    3  502    0 -0.96157138874E+02 -0.26897513342E+02  0.81803296133E+02  0.12914690565E+03  0.41800000000E+01 0.  1.
         -5    1    3    3    0  502  0.11086397353E+01  0.59124681139E+02  0.30844913814E+02  0.66826926535E+02  0.41800000000E+01 0.  1.
        -11    1    1    2    0    0  0.69080433978E+02  0.20550772209E+02  0.20483026628E+03  0.21714022792E+03  0.00000000000E+00 0.  1.
         11    1    1    2    0    0  0.25968065161E+02 -0.52777940007E+02  0.99283352688E+02  0.11539946049E+03  0.00000000000E+00 0. -1.
</event>
<event>
 7    1  0.2440960E-009  0.1227998E+03  0.7561462E-02  0.1238548E+00
         -1   -1    0    0    0  501 -0.00000000000E+00  0.00000000000E+00  0.51250857746E+02  0.51250857746E+02  0.00000000000E+00 0.  1.
          1   -1    0    0  501    0  0.00000000000E+00 -0.00000000000E+00 -0.46419423976E+03  0.46419423976E+03  0.00000000000E+00 0. -1.
         25    2    1    2    0    0  0.92782352638E+02 -0.50542117796E+02 -0.26745465674E+03  0.31359581969E+03  0.12508906462E+03 0.  0.
          5    1    3    3  502    0  0.99801592709E+01 -0.12190451433E+02 -0.19843825329E+03  0.19910656306E+03  0.41800000000E+01 0.  1.
         -5    1    3    3    0  502  0.82802193367E+02 -0.38351666363E+02 -0.69016403445E+02  0.11448925663E+03  0.41800000000E+01 0.  1.
        -11    1    1    2    0    0  0.10827629617E+02  0.30574276176E+02 -0.20913884703E+02  0.38592933293E+02  0.00000000000E+00 0. -1.
         11    1    1    2    0    0 -0.10360998225E+03  0.19967841619E+02 -0.12457484057E+03  0.16325634451E+03  0.00000000000E+00 0.  1.
</event>
<event>
 7    1  0.2440960E-009  0.1167906E+03  0.7561462E-02  0.1248487E+00
          2   -1    0    0  501    0  0.00000000000E+00  0.00000000000E+00  0.83685857492E+03  0.83685857492E+03  0.00000000000E+00 0. -1.
         -2   -1    0    0    0  501 -0.00000000000E+00 -0.00000000000E+00 -0.17179093369E+02  0.17179093369E+02  0.00000000000E+00 0.  1.
         25    2    1    2    0    0  0.26977838370E+02  0.42846099756E+02  0.40166879117E+03  0.42373340486E+03  0.12509431867E+03 0.  0.
          5    1    3    3  502    0 -0.40254594614E+02  0.49305785278E+02  0.14733527628E+03  0.16055107874E+03  0.41800000000E+01 0. -1.
         -5    1    3    3    0  502  0.67232432985E+02 -0.64596855222E+01  0.25433351489E+03  0.26318232611E+03  0.41800000000E+01 0. -1.
        -11    1    1    2    0    0  0.14259438117E+02 -0.56819227457E+02  0.24003661709E+03  0.24708163374E+03  0.00000000000E+00 0. -1.
         11    1    1    2    0    0 -0.41237276488E+02  0.13973127702E+02  0.17797407329E+03  0.18322262970E+03  0.00000000000E+00 0.  1.
</event>
<event>
 7    1  0.2440960E-009  0.1252501E+03  0.7561462E-02  0.1234679E+00
          1   -1    0    0  501    0  0.00000000000E+00  0.00000000000E+00  0.45632839816E+03  0.45632839816E+03  0.00000000000E+00 0. -1.
         -1   -1    0    0    0  501 -0.00000000000E+00 -0.00000000000E+00 -0.46937791110E+02  0.46937791110E+02  0.00000000000E+00 0.  1.
         25    2    1    2    0    0 -0.44125818150E+02  0.51155925044E+02  0.34380629075E+03  0.37204424958E+03  0.12510052595E+03 0.  0.
          5    1    3    3  502    0 -0.40045747207E+02 -0.34226465675E+02  0.92065435565E+02  0.10615380185E+03  0.41800000000E+01 0. -1.
         -5    1    3    3    0  502 -0.40800709422E+01  0.85382390719E+02  0.25174085519E+03  0.26589044773E+03  0.41800000000E+01 0. -1.
        -11    1    1    2    0    0 -0.24867063272E+01  0.23733031854E+02  0.54889061645E+01  0.24486089934E+02  0.00000000000E+00 0. -1.
         11    1    1    2    0    0  0.46612524477E+02 -0.74888956898E+02  0.60095410133E+02  0.10673584975E+03  0.00000000000E+00 0.  1.
</event>
<event>
 7    1  0.2440960E-009  0.1555703E+03  0.7561462E-02  0.1193791E+00
          2   -1    0    0  501    0  0.00000000000E+00  0.00000000000E+00  0.30570859992E+03  0.30570859992E+03  0.00000000000E+00 0. -1.
         -2   -1    0    0    0  501 -0.00000000000E+00 -0.00000000000E+00 -0.85330948173E+02  0.85330948173E+02  0.00000000000E+00 0.  1.
         25    2    1    2    0    0 -0.10148017665E+03  0.61564857406E+02  0.11018434112E+03  0.20464085704E+03  0.12509529735E+03 0.  0.
          5    1    3    3  502    0 -0.12419741606E+03  0.42547217217E+02  0.56092447105E+02  0.14282541396E+03  0.41800000000E+01 0. -1.
         -5    1    3    3    0  502  0.22717239410E+02  0.19017640188E+02  0.54091894019E+02  0.61815443081E+02  0.41800000000E+01 0. -1.
        -11    1    1    2    0    0 -0.35760847731E+01 -0.43046712155E+02  0.38568615677E+02  0.57908081689E+02  0.00000000000E+00 0. -1.
         11    1    1    2    0    0  0.10505626143E+03 -0.18518145250E+02  0.71624694942E+02  0.12849060936E+03  0.00000000000E+00 0.  1.
</event>
<event>
 7    1  0.2440960E-009  0.1186185E+03  0.7561462E-02  0.1245394E+00
          3   -1    0    0  501    0  0.00000000000E+00  0.00000000000E+00  0.22396792524E+03  0.22396792524E+03  0.00000000000E+00 0. -1.
         -3   -1    0    0    0  501 -0.00000000000E+00 -0.00000000000E+00 -0.74902390397E+02  0.74902390397E+02  0.00000000000E+00 0.  1.
         25    2    1    2    0    0  0.22674434296E+02  0.65150717348E+02  0.86100269124E+02  0.16679814373E+03  0.12509843512E+03 0.  0.
          5    1    3    3  502    0  0.71823890310E+02  0.46856463148E+02  0.32810495212E+02  0.91914092250E+02  0.41800000000E+01 0.  1.
         -5    1    3    3    0  502 -0.49149456014E+02  0.18294254200E+02  0.53289773911E+02  0.74884051484E+02  0.41800000000E+01 0.  1.
        -11    1    1    2    0    0 -0.46999463814E+02 -0.55170291920E+02  0.10293967620E+02  0.73202981351E+02  0.00000000000E+00 0.  1.
         11    1    1    2    0    0  0.24325029518E+02 -0.99804254278E+01  0.52671298101E+02  0.58869190553E+02  0.00000000000E+00 0. -1.
</event>
<event>
 7    1  0.2440960E-009  0.1277813E+03  0.7561462E-02  0.1230786E+00
          2   -1    0    0  501    0  0.00000000000E+00  0.00000000000E+00  0.10427710341E+04  0.10427710341E+04  0.00000000000E+00 0. -1.
         -2   -1    0    0    0  501 -0.00000000000E+00 -0.00000000000E+00 -0.89034163408E+02  0.89034163408E+02  0.00000000000E+00 0.  1.
         25    2    1    2    0    0  0.84646874533E+02 -0.36061752120E+02  0.98609773698E+03  0.99824935433E+03  0.12508990051E+03 0.  0.
          5    1    3    3  502    0  0.60883957715E+01  0.28062588611E+02  0.60449823405E+02  0.67053940916E+02  0.41800000000E+01 0. -1.
         -5    1    3    3    0  502  0.78558478762E+02 -0.64124340730E+02  0.92564791357E+03  0.93119541341E+03  0.41800000000E+01 0. -1.
        -11    1    1    2    0    0 -0.20252822729E+01 -0.23254370563E+02  0.71942963211E+01  0.24425916935E+02  0.00000000000E+00 0. -1.
         11    1    1    2    0    0 -0.82621592260E+02  0.59316122683E+02 -0.39555162592E+02  0.10912992626E+03  0.00000000000E+00 0.  1.
</event>
<event>
 7    1  0.2440960E-009  0.1270716E+03  0.7561462E-02  0.1231867E+00
         -1   -1    0    0    0  501 -0.00000000000E+00  0.00000000000E+00  0.74142423305E+02  0.74142423305E+02  0.00000000000E+00 0. -1.
          1   -1    0    0  501    0  0.00000000000E+00 -0.00000000000E+00 -0.28612728027E+03  0.28612728027E+03  0.00000000000E+00 0.  1.
         25    2    1    2    0    0 -0.48192200812E+02 -0.59680125493E+02 -0.39483546225E+02  0.15195709700E+03  0.12509117997E+03 0.  0.
          5    1    3    3  502    0  0.39194422769E+02 -0.46224006047E+01  0.38479525590E+01  0.39872904365E+02  0.41800000000E+01 0. -1.
         -5    1    3    3    0  502 -0.87386623582E+02 -0.55057724888E+02 -0.43331498784E+02  0.11208419263E+03  0.41800000000E+01 0. -1.
        -11    1    1    2    0    0 -0.16667627159E+02  0.39957913170E+02 -0.10044752424E+03  0.10938075583E+03  0.00000000000E+00 0.  1.
         11    1    1    2    0    0  0.64859827972E+02  0.19722212323E+02 -0.72053786500E+02  0.98931850748E+02  0.00000000000E+00 0. -1.
</event>
<event>
 7    1  0.2440960E-009  0.2145208E+03  0.7561462E-02  0.1138035E+00
         -4   -1    0    0    0  501 -0.00000000000E+00  0.00000000000E+00  0.27936570139E+03  0.27936570139E+03  0.00000000000E+00 0.  1.
          4   -1    0    0  501    0  0.00000000000E+00 -0.00000000000E+00 -0.28657625641E+03  0.28657625641E+03  0.00000000000E+00 0. -1.
         25    2    1    2    0    0  0.14044052172E+03 -0.14306731913E+03 -0.17149054637E+03  0.29197048605E+03  0.12508380906E+03 0.  0.
          5    1    3    3  502    0  0.14624166668E+03 -0.13975361833E+03 -0.11061715059E+03  0.23058908325E+03  0.41800000000E+01 0. -1.
         -5    1    3    3    0  502 -0.58011449628E+01 -0.33137007942E+01 -0.60873395778E+02  0.61381402798E+02  0.41800000000E+01 0. -1.
        -11    1    1    2    0    0 -0.23444431564E+02  0.85094134268E+02  0.74615448008E+02  0.11557732537E+03  0.00000000000E+00 0.  1.
         11    1    1    2    0    0 -0.11699609016E+03  0.57973184861E+02  0.89664543335E+02  0.15839414638E+03  0.00000000000E+00 0. -1.
</event>
<event>
 7    1  0.2671516E-009  0.1635638E+03  0.7561462E-02  0.1184731E+00
         -1   -1    0    0    0  501 -0.00000000000E+00  0.00000000000E+00  0.16679038031E+02  0.16679038031E+02  0.00000000000E+00 0.  1.
          1   -1    0    0  501    0  0.00000000000E+00 -0.00000000000E+00 -0.17883898814E+04  0.17883898814E+04  0.00000000000E+00 0. -1.
         25    2    1    2    0    0 -0.11427902030E+03 -0.69649633071E+02 -0.92882736624E+03  0.94671961460E+03  0.12508791518E+03 0.  0.
          5    1    3    3  502    0 -0.75616447098E+02  0.99592084369E+01 -0.64178726526E+03  0.64631679474E+03  0.41800000000E+01 0. -1.
         -5    1    3    3    0  502 -0.38662573205E+02 -0.79608841507E+02 -0.28704010098E+03  0.30040281987E+03  0.41800000000E+01 0. -1.
        -11    1    1    2    0    0  0.83388192334E+02  0.91885630743E+02 -0.63478485227E+03  0.64679855321E+03  0.00000000000E+00 0.  1.
         11    1    1    2    0    0  0.30890827969E+02 -0.22235997673E+02 -0.20809862482E+03  0.21155075158E+03  0.00000000000E+00 0. -1.
</event>
<event>
 7    1  0.2440960E-009  0.1832175E+03  0.7561462E-02  0.1164725E+00
         -2   -1    0    0    0  501 -0.00000000000E+00  0.00000000000E+00  0.35135510075E+02  0.35135510075E+02  0.00000000000E+00 0.  1.
          2   -1    0    0  501    0  0.00000000000E+00 -0.00000000000E+00 -0.10865334178E+04  0.10865334178E+04  0.00000000000E+00 0. -1.
         25    2    1    2    0    0  0.15965444803E+03  0.25009169101E+02 -0.55539864310E+03  0.59180211444E+03  0.12508832311E+03 0.  0.
          5    1    3    3  502    0  0.70685242246E+02  0.62590896368E+02 -0.37948564105E+03  0.39107652441E+03  0.41800000000E+01 0.  1.
         -5    1    3    3    0  502  0.88969205780E+02 -0.37581727267E+02 -0.17591300205E+03  0.20072559003E+03  0.41800000000E+01 0.  1.
        -11    1    1    2    0    0 -0.42284490504E+02 -0.38408744297E+02 -0.86434315889E+02  0.10360550535E+03  0.00000000000E+00 0.  1.
         11    1    1    2    0    0 -0.11736995752E+03  0.13399575196E+02 -0.40956494878E+03  0.42626130813E+03  0.00000000000E+00 0. -1.
</event>
<event>
 7    1  0.2440960E-009  0.1225218E+03  0.7561462E-02  0.1238994E+00
          2   -1    0    0  501    0  0.00000000000E+00  0.00000000000E+00  0.30342897850E+03  0.30342897850E+03  0.00000000000E+00 0. -1.
         -2   -1    0    0    0  501 -0.00000000000E+00 -0.00000000000E+00 -0.67997584416E+02  0.67997584416E+02  0.00000000000E+00 0.  1.
         25    2    1    2    0    0  0.50742867589E+02 -0.53852777284E+02  0.49872381512E+02  0.15365118177E+03  0.12508585447E+03 0.  0.
          5    1    3    3  502    0  0.12801574747E+00  0.32111553749E+02  0.42641506935E+02  0.53543802498E+02  0.41800000000E+01 0.  1.
         -5    1    3    3    0  502  0.50614851841E+02 -0.85964331034E+02  0.72308745769E+01  0.10010737927E+03  0.41800000000E+01 0.  1.
        -11    1    1    2    0    0 -0.68132059824E+02  0.14311333710E+02  0.12923929426E+03  0.14679777597E+03  0.00000000000E+00 0. -1.
         11    1    1    2    0    0  0.17389192235E+02  0.39541443575E+02  0.56319718312E+02  0.70977605182E+02  0.00000000000E+00 0.  1.
</event>
<event>
 7    1  0.2440960E-009  0.6834450E+02  0.7561462E-02  0.1365815E+00
          2   -1    0    0  501    0  0.00000000000E+00  0.00000000000E+00  0.20452104030E+03  0.20452104030E+03  0.00000000000E+00 0. -1.
         -2   -1    0    0    0  501 -0.00000000000E+00 -0.00000000000E+00 -0.59541097346E+02  0.59541097346E+02  0.00000000000E+00 0.  1.
         25    2    1    2    0    0 -0.11193599946E+02  0.20388024917E+02  0.79709789789E+02  0.15014321086E+03  0.12509342485E+03 0.  0.
          5    1    3    3  502    0 -0.20353845110E+01 -0.28516244227E+02  0.93893188326E+02  0.98238089298E+02  0.41800000000E+01 0.  1.
         -5    1    3    3    0  502 -0.91582154347E+01  0.48904269144E+02 -0.14183398537E+02  0.51905121563E+02  0.41800000000E+01 0.  1.
        -11    1    1    2    0    0 -0.17476367627E+02  0.64174277526E+01  0.71760960102E+02  0.74136645454E+02  0.00000000000E+00 0. -1.
         11    1    1    2    0    0  0.28669967573E+02 -0.26805452670E+02 -0.64908069334E+01  0.39782281334E+02  0.00000000000E+00 0.  1.
</event>
<event>
 7    1  0.2440960E-009  0.1957889E+03  0.7561462E-02  0.1153341E+00
          2   -1    0    0  501    0  0.00000000000E+00  0.00000000000E+00  0.48357191784E+02  0.48357191784E+02  0.00000000000E+00 0. -1.
         -2   -1    0    0    0  501 -0.00000000000E+00 -0.00000000000E+00 -0.98080622183E+03  0.98080622183E+03  0.00000000000E+00 0.  1.
         25    2    1    2    0    0  0.11661850957E+03  0.14765174576E+03 -0.54250824548E+03  0.58767626203E+03  0.12508907920E+03 0.  0.
          5    1    3    3  502    0  0.10578468387E+02 -0.85112852762E+01 -0.10525126850E+01  0.14245215106E+02  0.41800000000E+01 0. -1.
         -5    1    3    3    0  502  0.10604004118E+03  0.15616303104E+03 -0.54145573280E+03  0.57343104692E+03  0.41800000000E+01 0. -1.
        -11    1    1    2    0    0 -0.17019720474E+02 -0.29242008867E+02 -0.16522652979E+03  0.16865518703E+03  0.00000000000E+00 0.  1.
         11    1    1    2    0    0 -0.99598789096E+02 -0.11840973690E+03 -0.22471425478E+03  0.27283196455E+03  0.00000000000E+00 0. -1.
</event>
<event>
 7    1  0.2440960E-009  0.1372920E+03  0.7561462E-02  0.1217020E+00
         -2   -1    0    0    0  501 -0.00000000000E+00  0.00000000000E+00  0.35493541198E+03  0.35493541198E+03  0.00000000000E+00 0. -1.
          2   -1    0    0  501    0  0.00000000000E+00 -0.00000000000E+00 -0.70061633597E+02  0.70061633597E+02  0.00000000000E+00 0.  1.
         25    2    1    2    0    0 -0.10065064858E+03 -0.51596723776E+02  0.15963994402E+03  0.23222009721E+03  0.12509391215E+03 0.  0.
          5    1    3    3  502    0  0.94450142218E+01 -0.22801764150E+02 -0.10780493709E+02  0.27254727785E+02  0.41800000000E+01 0. -1.
         -5    1    3    3    0  502 -0.11009566280E+03 -0.28794959626E+02  0.17042043773E+03  0.20496536943E+03  0.41800000000E+01 0. -1.
        -11    1    1    2    0    0  0.11229323833E+03  0.39895788134E+02  0.77210817104E+02  0.14199632236E+03  0.00000000000E+00 0.  1.
         11    1    1    2    0    0 -0.11642589754E+02  0.11700935642E+02  0.48023017257E+02  0.50780626006E+02  0.00000000000E+00 0. -1.
</event>
<event>
 7    1  0.2440960E-009  0.1945230E+03  0.7561462E-02  0.1154444E+00
          1   -1    0    0  501    0  0.00000000000E+00  0.00000000000E+00  0.14493100443E+04  0.14493100443E+04  0.00000000000E+00 0. -1.
         -1   -1    0    0    0  501 -0.00000000000E+00 -0.00000000000E+00 -0.35207523820E+02  0.35207523820E+02  0.00000000000E+00 0.  1.
         25    2    1    2    0    0  0.17838363042E+03  0.28169452519E+02  0.99823371607E+03  0.10221214510E+04  0.12508985221E+03 0.  0.
          5    1    3    3  502    0  0.15934890096E+03 -0.30235668668E+01  0.93869557415E+03  0.95213868083E+03  0.41800000000E+01 0. -1.
         -5    1    3    3    0  502  0.19034729464E+02  0.31193019386E+02  0.59538141916E+02  0.69982770215E+02  0.41800000000E+01 0. -1.
        -11    1    1    2    0    0 -0.12909869292E+03  0.11439476424E+02  0.20754277180E+03  0.24468619957E+03  0.00000000000E+00 0.  1.
         11    1    1    2    0    0 -0.49284937504E+02 -0.39608928942E+02  0.20832603259E+03  0.21770991748E+03  0.00000000000E+00 0. -1.
</event>
<event>
 7    1  0.3159911E-009  0.8230186E+02  0.7561462E-02  0.1322643E+00
          2   -1    0    0  501    0  0.00000000000E+00  0.00000000000E+00  0.42695048497E+03  0.42695048497E+03  0.00000000000E+00 0. -1.
         -2   -1    0    0    0  501 -0.00000000000E+00 -0.00000000000E+00 -0.40176863347E+02  0.40176863347E+02  0.00000000000E+00 0.  1.
         25    2    1    2    0    0 -0.59087644823E+02 -0.15072887085E+02  0.28824757839E+03  0.32007924242E+03  0.12508202621E+03 0.  0.
          5    1    3    3  502    0 -0.18122076942E+02 -0.39566649865E+02  0.20874758043E+02  0.48447470291E+02  0.41800000000E+01 0. -1.
         -5    1    3    3    0  502 -0.40965567881E+02  0.24493762780E+02  0.26737282035E+03  0.27163177213E+03  0.41800000000E+01 0. -1.
        -11    1    1    2    0    0  0.15787356241E+02 -0.13766500688E+02  0.92305472113E+02  0.94652297068E+02  0.00000000000E+00 0. -1.
         11    1    1    2    0    0  0.43300288582E+02  0.28839387774E+02  0.62205711207E+01  0.52395808835E+02  0.00000000000E+00 0.  1.
</event>
<event>
 7    1  0.2440960E-009  0.1854733E+03  0.7561462E-02  0.1162609E+00
          4   -1    0    0  501    0  0.00000000000E+00  0.00000000000E+00  0.59632412937E+02  0.59632412937E+02  0.00000000000E+00 0.  1.
         -4   -1    0    0    0  501 -0.00000000000E+00 -0.00000000000E+00 -0.68138985504E+03  0.68138985504E+03  0.00000000000E+00 0. -1.
         25    2    1    2    0    0 -0.12511990557E+03  0.11367224735E+03 -0.34118190096E+03  0.40078581789E+03  0.12509121349E+03 0.  0.
          5    1    3    3  502    0 -0.99240696594E+02  0.15798777285E+02 -0.22606402311E+03  0.24742823640E+03  0.41800000000E+01 0. -1.
         -5    1    3    3    0  502 -0.25879208973E+02  0.97873470060E+02 -0.11511787785E+03  0.15335758149E+03  0.41800000000E+01 0. -1.
        -11    1    1    2    0    0  0.83282172310E+02 -0.75417722557E+02 -0.25376578387E+03  0.27752626211E+03  0.00000000000E+00 0. -1.
         11    1    1    2    0    0  0.41837733257E+02 -0.38254524789E+02 -0.26809757277E+02  0.62710187977E+02  0.00000000000E+00 0.  1.
</event>
<event>
 7    1  0.2440960E-009  0.9003606E+02  0.7561462E-02  0.1302764E+00
          2   -1    0    0  501    0  0.00000000000E+00  0.00000000000E+00  0.10146742746E+03  0.10146742746E+03  0.00000000000E+00 0. -1.
         -2   -1    0    0    0  501 -0.00000000000E+00 -0.00000000000E+00 -0.14508625520E+03  0.14508625520E+03  0.00000000000E+00 0.  1.
         25    2    1    2    0    0  0.35423320098E+02  0.22850657592E+02 -0.57758169842E+02  0.14408787783E+03  0.12509334992E+03 0.  0.
          5    1    3    3  502    0  0.79151801970E+02  0.34618953039E+02 -0.39440035431E+02  0.95060341150E+02  0.41800000000E+01 0. -1.
         -5    1    3    3    0  502 -0.43728481872E+02 -0.11768295447E+02 -0.18318134411E+02  0.49027536680E+02  0.41800000000E+01 0. -1.
        -11    1    1    2    0    0 -0.16163012338E+02  0.24050630550E+01  0.51148879819E+02  0.53695765223E+02  0.00000000000E+00 0. -1.
         11    1    1    2    0    0 -0.19260307760E+02 -0.25255720647E+02 -0.37009537721E+02  0.48770039602E+02  0.00000000000E+00 0.  1.
</event>
<event>
 7    1  0.2440960E-009  0.8897663E+02  0.7561462E-02  0.1305349E+00
          2   -1    0    0  501    0  0.00000000000E+00  0.00000000000E+00  0.43695761424E+03  0.43695761424E+03  0.00000000000E+00 0. -1.
         -2   -1    0    0    0  501 -0.00000000000E+00 -0.00000000000E+00 -0.53603060742E+02  0.53603060742E+02  0.00000000000E+00 0.  1.
         25    2    1    2    0    0 -0.17995285849E+02 -0.57457462317E+02  0.33387000207E+03  0.36158340884E+03  0.12509273752E+03 0.  0.
          5    1    3    3  502    0 -0.16981115609E+02 -0.11606479403E+02 -0.33314005807E+01  0.21251806541E+02  0.41800000000E+01 0.  1.
         -5    1    3    3    0  502 -0.10141702401E+01 -0.45850982914E+02  0.33720140265E+03  0.34033160230E+03  0.41800000000E+01 0.  1.
        -11    1    1    2    0    0  0.26811814682E+02  0.81238777334E+02  0.56669740387E+02  0.10261613823E+03  0.00000000000E+00 0. -1.
         11    1    1    2    0    0 -0.88165288329E+01 -0.23781315017E+02 -0.71851889560E+01  0.26361127915E+02  0.00000000000E+00 0.  1.
</event>
<event>
 7    1  0.2440960E-009  0.1252714E+03  0.7561462E-02  0.1234646E+00
          1   -1    0    0  501    0  0.00000000000E+00  0.00000000000E+00  0.14933828210E+03  0.14933828210E+03  0.00000000000E+00 0. -1.
         -1   -1    0    0    0  501 -0.00000000000E+00 -0.00000000000E+00 -0.18370957736E+03  0.18370957736E+03  0.00000000000E+00 0.  1.
         25    2    1    2    0    0 -0.82480796440E+02  0.72959998006E+02  0.25997078198E+02  0.16867106801E+03  0.12509131872E+03 0.  0.
          5    1    3    3  502    0 -0.27373637807E+02  0.49469720193E+02 -0.47358569804E+02  0.73870669394E+02  0.41800000000E+01 0. -1.
         -5    1    3    3    0  502 -0.55107158633E+02  0.23490277813E+02  0.73355648002E+02  0.94800398618E+02  0.41800000000E+01 0. -1.
        -11    1    1    2    0    0  0.42746969624E+02  0.81162271491E+01 -0.59963882940E+02  0.74086731690E+02  0.00000000000E+00 0.  1.
         11    1    1    2    0    0  0.39733826816E+02 -0.81076225155E+02 -0.40449052075E+00  0.90290059760E+02  0.00000000000E+00 0. -1.
</event>
<event>
 7    1  0.2440960E-009  0.1140605E+03  0.7561462E-02  0.1253230E+00
         -2   -1    0    0    0  501 -0.00000000000E+00  0.00000000000E+00  0.54808888384E+03  0.54808888384E+03  0.00000000000E+00 0.  1.
          2   -1    0    0  501    0  0.00000000000E+00 -0.00000000000E+00 -0.32072392922E+02  0.32072392922E+02  0.00000000000E+00 0. -1.
         25    2    1    2    0    0  0.68636148093E+02 -0.12415201987E+02  0.21068604057E+03  0.25475662602E+03  0.12508905926E+03 0.  0.
          5    1    3    3  502    0  0.96893972839E+02 -0.12890880750E+02  0.20272497902E+03  0.22509888116E+03  0.41800000000E+01 0.  1.
         -5    1    3    3    0  502 -0.28257824747E+02  0.47567876281E+00  0.79610615493E+01  0.29657744868E+02  0.41800000000E+01 0.  1.
        -11    1    1    2    0    0 -0.53245047555E+02 -0.26784016479E+02  0.24284933047E+03  0.25005642551E+03  0.00000000000E+00 0.  1.
         11    1    1    2    0    0 -0.15391100538E+02  0.39199218466E+02  0.62481119881E+02  0.75348225233E+02  0.00000000000E+00 0. -1.
</event>
<event>
 7    1  0.2440960E-009  0.1000984E+03  0.7561462E-02  0.1280089E+00
         -4   -1    0    0    0  501 -0.00000000000E+00  0.00000000000E+00  0.36532610826E+02  0.36532610826E+02  0.00000000000E+00 0.  1.
          4   -1    0    0  501    0  0.00000000000E+00 -0.00000000000E+00 -0.55907469875E+03  0.55907469875E+03  0.00000000000E+00 0. -1.
         25    2    1    2    0    0 -0.10790012763E+01 -0.86764010104E+02 -0.35390255786E+03  0.38525745997E+03  0.12508849791E+03 0.  0.
          5    1    3    3  502    0 -0.54550963185E+01 -0.47667930126E+02 -0.33989361963E+03  0.34328870460E+03  0.41800000000E+01 0.  1.
         -5    1    3    3    0  502  0.43760950422E+01 -0.39096079978E+02 -0.14008938233E+02  0.41968755377E+02  0.41800000000E+01 0.  1.
        -11    1    1    2    0    0  0.35815429856E+02  0.34569543083E+02 -0.12332422293E+03  0.13299121131E+03  0.00000000000E+00 0. -1.
         11    1    1    2    0    0 -0.34736428579E+02  0.52194467021E+02 -0.45315307134E+02  0.77358638294E+02  0.00000000000E+00 0.  1.
</event>
<event>
 7    1  0.2440960E-009  0.1346871E+03  0.7561462E-02  0.1220662E+00
         -2   -1    0    0    0  501 -0.00000000000E+00  0.00000000000E+00  0.10216509667E+03  0.10216509667E+03  0.00000000000E+00 0.  1.
          2   -1    0    0  501    0  0.00000000000E+00 -0.00000000000E+00 -0.25857519253E+03  0.25857519253E+03  0.00000000000E+00 0. -1.
         25    2    1    2    0    0  0.26452153340E+02 -0.73881861947E+02 -0.15611762535E+03  0.21489079224E+03  0.12508834360E+03 0.  0.
          5    1    3    3  502    0  0.76079399224E+02 -0.55356882699E+02 -0.10679846905E+03  0.14239327526E+03  0.41800000000E+01 0.  1.
         -5    1    3    3    0  502 -0.49627245884E+02 -0.18524979247E+02 -0.49319156301E+02  0.72497516981E+02  0.41800000000E+01 0.  1.
        -11    1    1    2    0    0  0.31620954052E+02  0.50859676850E+01 -0.36723981192E+02  0.48727842113E+02  0.00000000000E+00 0. -1.
         11    1    1    2    0    0 -0.58073107392E+02  0.68795894262E+02  0.36431510678E+02  0.97121654844E+02  0.00000000000E+00 0.  1.
</event>
<event>
 7    1  0.2440960E-009  0.1546872E+03  0.7561462E-02  0.1194829E+00
          2   -1    0    0  501    0  0.00000000000E+00  0.00000000000E+00  0.10141393118E+04  0.10141393118E+04  0.00000000000E+00 0. -1.
         -2   -1    0    0    0  501 -0.00000000000E+00 -0.00000000000E+00 -0.26284885707E+02  0.26284885707E+02  0.00000000000E+00 0.  1.
         25    2    1    2    0    0  0.10817761756E+03 -0.41340824097E+02  0.64153420623E+03  0.66379547448E+03  0.12508730351E+03 0.  0.
          5    1    3    3  502    0 -0.13476689490E+02  0.20981691517E+02  0.43409006695E+02  0.50236110526E+02  0.41800000000E+01 0.  1.
         -5    1    3    3    0  502  0.12165430705E+03 -0.62322515614E+02  0.59812519953E+03  0.61355936395E+03  0.41800000000E+01 0.  1.
        -11    1    1    2    0    0  0.98018493366E+01 -0.13945534205E+02  0.52986822446E+02  0.55661095279E+02  0.00000000000E+00 0.  1.
         11    1    1    2    0    0 -0.11797946690E+03  0.55286358302E+02  0.29333339744E+03  0.32096762777E+03  0.00000000000E+00 0. -1.
</event>
<event>
 7    1  0.2440960E-009  0.7843467E+02  0.7561462E-02  0.1333553E+00
          1   -1    0    0  501    0  0.00000000000E+00  0.00000000000E+00  0.86181269618E+02  0.86181269618E+02  0.00000000000E+00 0. -1.
         -1   -1    0    0    0  501 -0.00000000000E+00 -0.00000000000E+00 -0.15974010043E+03  0.15974010043E+03  0.00000000000E+00 0.  1.
         25    2    1    2    0    0  0.10134304087E+02 -0.43817216309E+02 -0.27236140989E+02  0.13569452823E+03  0.12509414475E+03 0.  0.
          5    1    3    3  502    0  0.19395582894E+02  0.15186610715E+02 -0.61731169042E+02  0.66596031505E+02  0.41800000000E+01 0. -1.
         -5    1    3    3    0  502 -0.92612788065E+01 -0.59003827025E+02  0.34495028053E+02  0.69098496721E+02  0.41800000000E+01 0. -1.
        -11    1    1    2    0    0 -0.15762500007E+02 -0.94958327334E+01  0.18509878247E+02  0.26100629082E+02  0.00000000000E+00 0. -1.
         11    1    1    2    0    0  0.56281959199E+01  0.53313049043E+02 -0.64832568072E+02  0.84126212743E+02  0.00000000000E+00 0.  1.
</event>
<event>
 7    1  0.2440960E-009  0.1036309E+03  0.7561462E-02  0.1272841E+00
         -2   -1    0    0    0  501 -0.00000000000E+00  0.00000000000E+00  0.41527861696E+02  0.41527861696E+02  0.00000000000E+00 0.  1.
          2   -1    0    0  501    0  0.00000000000E+00 -0.00000000000E+00 -0.39670805532E+03  0.39670805532E+03  0.00000000000E+00 0. -1.
         25    2    1    2    0    0  0.39379065790E+02 -0.31576398560E+02 -0.28625312936E+03  0.31644473889E+03  0.12509452000E+03 0.  0.
          5    1    3    3  502    0 -0.18926051933E+02 -0.58558667421E+02 -0.84159249375E+02  0.10434349346E+03  0.41800000000E+01 0.  1.
         -5    1    3    3    0  502  0.58305117723E+02  0.26982268861E+02 -0.20209387998E+03  0.21210124543E+03  0.41800000000E+01 0.  1.
        -11    1    1    2    0    0 -0.44197598145E+02 -0.48414887947E+01 -0.72325504344E+02  0.84899035767E+02  0.00000000000E+00 0. -1.
         11    1    1    2    0    0  0.48185323547E+01  0.36417887355E+02  0.33984400732E+01  0.36892142367E+02  0.00000000000E+00 0.  1.
</event>
<event>
 7    1  0.2440960E-009  0.6142751E+02  0.7561462E-02  0.1391937E+00
         -2   -1    0    0    0  501 -0.00000000000E+00  0.00000000000E+00  0.35044345625E+02  0.35044345625E+02  0.00000000000E+00 0.  1.
          2   -1    0    0  501    0  0.00000000000E+00 -0.00000000000E+00 -0.37358660430E+03  0.37358660430E+03  0.00000000000E+00 0. -1.
         25    2    1    2    0    0 -0.26493307098E+02  0.43220019607E+01 -0.15108391251E+03  0.19798075871E+03  0.12509779046E+03 0.  0.
          5    1    3    3  502    0 -0.34091351159E+01  0.14919487234E+02 -0.16697616286E+03  0.16772812723E+03  0.41800000000E+01 0.  1.
         -5    1    3    3    0  502 -0.23084171982E+02 -0.10597485273E+02  0.15892250347E+02  0.30252631477E+02  0.41800000000E+01 0.  1.
        -11    1    1    2    0    0  0.53734798471E+02 -0.52524537321E+01 -0.16978961069E+03  0.17816713708E+03  0.00000000000E+00 0. -1.
         11    1    1    2    0    0 -0.27241491373E+02  0.93045177136E+00 -0.17668735470E+02  0.32483054133E+02  0.00000000000E+00 0.  1.
</event>
<event>
 7    1  0.2440960E-009  0.1975197E+03  0.7561462E-02  0.1151849E+00
          2   -1    0    0  501    0  0.00000000000E+00  0.00000000000E+00  0.73595584708E+03  0.73595584708E+03  0.00000000000E+00 0. -1.
         -2   -1    0    0    0  501 -0.00000000000E+00 -0.00000000000E+00 -0.57503776276E+02  0.57503776276E+02  0.00000000000E+00 0.  1.
         25    2    1    2    0    0  0.16886877068E+03  0.31231641380E+02  0.41491751188E+03  0.46615026221E+03  0.12508976043E+03 0.  0.
          5    1    3    3  502    0  0.15264209074E+03  0.68578758957E+02  0.36530650872E+03  0.40183201933E+03  0.41800000000E+01 0. -1.
         -5    1    3    3    0  502  0.16226679933E+02 -0.37347117577E+02  0.49611003159E+02  0.64318242881E+02  0.41800000000E+01 0. -1.
        -11    1    1    2    0    0 -0.10022518920E+03  0.18538601867E+02  0.18754485591E+03  0.21345219907E+03  0.00000000000E+00 0. -1.
         11    1    1    2    0    0 -0.68643581474E+02 -0.49770243247E+02  0.75989703012E+02  0.11385716207E+03  0.00000000000E+00 0.  1.
</event>
<event>
 7    1  0.2440960E-009  0.1480385E+03  0.7561462E-02  0.1202904E+00
         -3   -1    0    0    0  501 -0.00000000000E+00  0.00000000000E+00  0.14563442386E+03  0.14563442386E+03  0.00000000000E+00 0.  1.
          3   -1    0    0  501    0  0.00000000000E+00 -0.00000000000E+00 -0.16188545984E+03  0.16188545984E+03  0.00000000000E+00 0. -1.
         25    2    1    2    0    0 -0.50984230148E+02  0.87771197493E+02  0.31096293163E+02  0.16406545447E+03  0.12508924442E+03 0.  0.
          5    1    3    3  502    0  0.28104277012E+02  0.75834857686E+02  0.16762078088E+02  0.82699550715E+02  0.41800000000E+01 0. -1.
         -5    1    3    3    0  502 -0.79088507160E+02  0.11936339807E+02  0.14334215075E+02  0.81365903759E+02  0.41800000000E+01 0. -1.
        -11    1    1    2    0    0  0.55332441228E+02 -0.89404667951E+01 -0.14151821136E+02  0.57809039434E+02  0.00000000000E+00 0.  1.
         11    1    1    2    0    0 -0.43482110807E+01 -0.78830730698E+02 -0.33195508003E+02  0.85645389798E+02  0.00000000000E+00 0. -1.
</event>
<event>
 7    1  0.2440960E-009  0.9126298E+02  0.7561462E-02  0.1299822E+00
         -1   -1    0    0    0  501 -0.00000000000E+00  0.00000000000E+00  0.37600017456E+02  0.37600017456E+02  0.00000000000E+00 0.  1.
          1   -1    0    0  501    0  0.00000000000E+00 -0.00000000000E+00 -0.40506434006E+03  0.40506434006E+03  0.00000000000E+00 0. -1.
         25    2    1    2    0    0 -0.62012603032E+01 -0.57276305737E+02 -0.17875829604E+03  0.22565716345E+03  0.12509035209E+03 0.  0.
          5    1    3    3  502    0 -0.19583213315E+02 -0.67345981017E+02 -0.19164364136E+03  0.20411697890E+03  0.41800000000E+01 0.  1.
         -5    1    3    3    0  502  0.13381953012E+02  0.10069675280E+02  0.12885345315E+02  0.21540184553E+02  0.41800000000E+01 0.  1.
        -11    1    1    2    0    0 -0.28467246627E+02  0.52884136177E+02 -0.65172532265E+02  0.88626039918E+02  0.00000000000E+00 0.  1.
         11    1    1    2    0    0  0.34668506930E+02  0.43921695599E+01 -0.12353349429E+03  0.12838115414E+03  0.00000000000E+00 0. -1.
</event>
<event>
 7    1  0.2440960E-009  0.1887798E+03  0.7561462E-02  0.1159567E+00
         -2   -1    0    0    0  501 -0.00000000000E+00  0.00000000000E+00  0.20793115377E+02  0.20793115377E+02  0.00000000000E+00 0.  1.
          2   -1    0    0  501    0  0.00000000000E+00 -0.00000000000E+00 -0.19206139575E+04  0.19206139575E+04  0.00000000000E+00 0. -1.
         25    2    1    2    0    0 -0.37624707834E+02  0.16373128253E+03 -0.95953362206E+03  0.98212859160E+03  0.12509295367E+03 0.  0.
          5    1    3    3  502    0 -0.23211506741E+00 -0.14204936140E+02 -0.18579332693E+02  0.23759168577E+02  0.41800000000E+01 0.  1.
         -5    1    3    3    0  502 -0.37392592767E+02  0.17793621867E+03 -0.94095428936E+03  0.95836942302E+03  0.41800000000E+01 0.  1.
        -11    1    1    2    0    0  0.34165811641E+01 -0.13808071439E+03 -0.82149492574E+03  0.83302573173E+03  0.00000000000E+00 0. -1.
         11    1    1    2    0    0  0.34208126670E+02 -0.25650568143E+02 -0.11879229431E+03  0.12625274953E+03  0.00000000000E+00 0.  1.
</event>
<event>
 7    1  0.2440960E-009  0.1182709E+03  0.7561462E-02  0.1245977E+00
          1   -1    0    0  501    0  0.00000000000E+00  0.00000000000E+00  0.19530416910E+03  0.19530416910E+03  0.00000000000E+00 0. -1.
         -1   -1    0    0    0  501 -0.00000000000E+00 -0.00000000000E+00 -0.86779910660E+02  0.86779910660E+02  0.00000000000E+00 0.  1.
         25    2    1    2    0    0  0.35501315037E+02 -0.61572029137E+02  0.56299192839E+02  0.15449038645E+03  0.12508486019E+03 0.  0.
          5    1    3    3  502    0  0.68555072954E+02 -0.87373651294E+01  0.60420206680E+02  0.91892400950E+02  0.41800000000E+01 0. -1.
         -5    1    3    3    0  502 -0.33053757918E+02 -0.52834664007E+02 -0.41210138410E+01  0.62597985497E+02  0.41800000000E+01 0. -1.
        -11    1    1    2    0    0  0.23454974822E+02  0.69243252285E+01 -0.95059199621E+01  0.26238228562E+02  0.00000000000E+00 0.  1.
         11    1    1    2    0    0 -0.58956289859E+02  0.54647703908E+02  0.61730985569E+02  0.10135546475E+03  0.00000000000E+00 0. -1.
</event>
<event>
 7    1  0.2440960E-009  0.1173665E+03  0.7561462E-02  0.1247506E+00
         -1   -1    0    0    0  501 -0.00000000000E+00  0.00000000000E+00  0.85431067307E+03  0.85431067307E+03  0.00000000000E+00 0.  1.
          1   -1    0    0  501    0  0.00000000000E+00 -0.00000000000E+00 -0.20901744361E+02  0.20901744361E+02  0.00000000000E+00 0. -1.
         25    2    1    2    0    0  0.59006113788E+02  0.39681150153E+02  0.50140618887E+03  0.52164372663E+03  0.12509075168E+03 0.  0.
          5    1    3    3  502    0 -0.13103272088E+01 -0.34657903556E+02  0.25293605001E+03  0.25533704202E+03  0.41800000000E+01 0. -1.
         -5    1    3    3    0  502  0.60316440996E+02  0.74339053709E+02  0.24847013886E+03  0.26630668461E+03  0.41800000000E+01 0. -1.
        -11    1    1    2    0    0 -0.32492693084E+02  0.20358854940E+02  0.44831377774E+02  0.58992461480E+02  0.00000000000E+00 0. -1.
         11    1    1    2    0    0 -0.26513420704E+02 -0.60040005092E+02  0.28717136206E+03  0.29457622932E+03  0.00000000000E+00 0.  1.
</event>
<event>
 7    1  0.2440960E-009  0.1147256E+03  0.7561462E-02  0.1252061E+00
         -1   -1    0    0    0  501 -0.00000000000E+00  0.00000000000E+00  0.47309942992E+02  0.47309942992E+02  0.00000000000E+00 0.  1.
          1   -1    0    0  501    0  0.00000000000E+00 -0.00000000000E+00 -0.31844948422E+03  0.31844948422E+03  0.00000000000E+00 0. -1.
         25    2    1    2    0    0  0.26125373897E+02  0.57599945340E+02 -0.15583543803E+03  0.20959909754E+03  0.12508720590E+03 0.  0.
          5    1    3    3  502    0  0.72106993806E+02  0.25038191944E+02 -0.55559660564E+02  0.94502263960E+02  0.41800000000E+01 0.  1.
         -5    1    3    3    0  502 -0.45981619909E+02  0.32561753396E+02 -0.10027577746E+03  0.11509683358E+03  0.41800000000E+01 0.  1.
        -11    1    1    2    0    0 -0.44820423200E+02 -0.62753454331E+02 -0.60467734137E+02  0.97995985826E+02  0.00000000000E+00 0.  1.
         11    1    1    2    0    0  0.18695049303E+02  0.51535089909E+01 -0.54836369058E+02  0.58164343844E+02  0.00000000000E+00 0. -1.
</event>
<event>
 7    1  0.2440960E-009  0.1043479E+03  0.7561462E-02  0.1271410E+00
         -2   -1    0    0    0  501 -0.00000000000E+00  0.00000000000E+00  0.38242197174E+02  0.38242197174E+02  0.00000000000E+00 0.  1.
          2   -1    0    0  501    0  0.00000000000E+00 -0.00000000000E+00 -0.41974962907E+03  0.41974962907E+03  0.00000000000E+00 0. -1.
         25    2    1    2    0    0  0.36143176282E+02  0.52123706058E+02 -0.19488303395E+03  0.24010072541E+03  0.12508297844E+03 0.  0.
          5    1    3    3  502    0 -0.75258469438E+01 -0.21150717228E+02 -0.13221381820E+03  0.13417137300E+03  0.41800000000E+01 0. -1.
         -5    1    3    3    0  502  0.43669023226E+02  0.73274423287E+02 -0.62669215753E+02  0.10592935240E+03  0.41800000000E+01 0. -1.
        -11    1    1    2    0    0  0.24214453051E+02 -0.73468502814E+01 -0.12464078382E+02  0.28207608823E+02  0.00000000000E+00 0.  1.
         11    1    1    2    0    0 -0.60357629333E+02 -0.44776855777E+02 -0.17416031956E+03  0.18968349201E+03  0.00000000000E+00 0. -1.
</event>
<event>
 7    1  0.2440960E-009  0.1026001E+03  0.7561462E-02  0.1274921E+00
         -1   -1    0    0    0  501 -0.00000000000E+00  0.00000000000E+00  0.33231316176E+02  0.33231316176E+02  0.00000000000E+00 0.  1.
          1   -1    0    0  501    0  0.00000000000E+00 -0.00000000000E+00 -0.38452499159E+03  0.38452499159E+03  0.00000000000E+00 0. -1.
         25    2    1    2    0    0  0.53617578023E+01 -0.94418571890E+01 -0.14599507893E+03  0.19256155545E+03  0.12508993745E+03 0.  0.
          5    1    3    3  502    0  0.18421787450E+02  0.50279066907E+02 -0.10757413838E+03  0.12023732561E+03  0.41800000000E+01 0.  1.
         -5    1    3    3    0  502 -0.13060029648E+02 -0.59720924096E+02 -0.38420940552E+02  0.72324229842E+02  0.41800000000E+01 0.  1.
        -11    1    1    2    0    0  0.26448018973E+02 -0.29705208725E+02 -0.66157093541E+02  0.77192345208E+02  0.00000000000E+00 0. -1.
         11    1    1    2    0    0 -0.31809776775E+02  0.39147065914E+02 -0.13914150294E+03  0.14800240710E+03  0.00000000000E+00 0.  1.
</event>
<event>
 7    1  0.2440960E-009  0.1444174E+03  0.7561462E-02  0.1207506E+00
          1   -1    0    0  501    0  0.00000000000E+00  0.00000000000E+00  0.69773121517E+03  0.69773121517E+03  0.00000000000E+00 0. -1.
         -1   -1    0    0    0  501 -0.00000000000E+00 -0.00000000000E+00 -0.34243926553E+02  0.34243926553E+02  0.00000000000E+00 0.  1.
         25    2    1    2    0    0  0.10393266395E+02 -0.10800547366E+03  0.38653090934E+03  0.42050716133E+03  0.12508767538E+03 0.  0.
          5    1    3    3  502    0  0.13619570340E+02  0.25657164838E+02  0.10133089520E+03  0.10549504977E+03  0.41800000000E+01 0. -1.
         -5    1    3    3    0  502 -0.32263039451E+01 -0.13366263850E+03  0.28520001414E+03  0.31501211156E+03  0.41800000000E+01 0. -1.
        -11    1    1    2    0    0 -0.36203331572E+02  0.45854858367E+02  0.57689459818E+02  0.82106169238E+02  0.00000000000E+00 0.  1.
         11    1    1    2    0    0  0.25810065177E+02  0.62150615290E+02  0.21926691946E+03  0.22936181115E+03  0.00000000000E+00 0. -1.
</event>
<event>
 7    1  0.2440960E-009  0.1098343E+03  0.7561462E-02  0.1260877E+00
          2   -1    0    0  501    0  0.00000000000E+00  0.00000000000E+00  0.23946398437E+03  0.23946398437E+03  0.00000000000E+00 0. -1.
         -2   -1    0    0    0  501 -0.00000000000E+00 -0.00000000000E+00 -0.74547945576E+02  0.74547945576E+02  0.00000000000E+00 0.  1.
         25    2    1    2    0    0  0.59564213962E+02  0.27081810315E+02  0.42050833658E+02  0.14730270676E+03  0.12509394379E+03 0.  0.
          5    1    3    3  502    0  0.18204761823E+02  0.60442032132E+02  0.63696799431E+02  0.89774201523E+02  0.41800000000E+01 0. -1.
         -5    1    3    3    0  502  0.41359452139E+02 -0.33360221818E+02 -0.21645965773E+02  0.57528505240E+02  0.41800000000E+01 0. -1.
        -11    1    1    2    0    0 -0.53437929536E+02 -0.53719643876E+02  0.55243814358E+02  0.93772551827E+02  0.00000000000E+00 0.  1.
         11    1    1    2    0    0 -0.61262844253E+01  0.26637833561E+02  0.67621390780E+02  0.72936671357E+02  0.00000000000E+00 0. -1.
</event>
<event>
 7    1  0.2440960E-009  0.8538895E+02  0.7561462E-02  0.1314419E+00
          2   -1    0    0  501    0  0.00000000000E+00  0.00000000000E+00  0.16685508152E+03  0.16685508152E+03  0.00000000000E+00 0. -1.
         -2   -1    0    0    0  501 -0.00000000000E+00 -0.00000000000E+00 -0.84050484604E+02  0.84050484604E+02  0.00000000000E+00 0.  1.
         25    2    1    2    0    0  0.42264807564E+02  0.15239695839E+02  0.41070966463E+02  0.13911714201E+03  0.12509273611E+03 0.  0.
          5    1    3    3  502    0  0.83067308870E+02  0.16020139359E+02  0.48235320674E+02  0.97472771729E+02  0.41800000000E+01 0. -1.
         -5    1    3    3    0  502 -0.40802501306E+02 -0.78044352034E+00 -0.71643542114E+01  0.41644370282E+02  0.41800000000E+01 0. -1.
        -11    1    1    2    0    0 -0.30776126937E+02 -0.94898056948E+01 -0.26900257497E+02  0.41962486279E+02  0.00000000000E+00 0.  1.
         11    1    1    2    0    0 -0.11488680627E+02 -0.57498901441E+01  0.68633887949E+02  0.69825937833E+02  0.00000000000E+00 0. -1.
</event>
<event>
 7    1  0.2440960E-009  0.1368791E+03  0.7561462E-02  0.1217591E+00
         -1   -1    0    0    0  501 -0.00000000000E+00  0.00000000000E+00  0.53120187648E+02  0.53120187648E+02  0.00000000000E+00 0.  1.
          1   -1    0    0  501    0  0.00000000000E+00 -0.00000000000E+00 -0.55317581467E+03  0.55317581467E+03  0.00000000000E+00 0. -1.
         25    2    1    2    0    0 -0.73964984541E+02  0.10840476381E+03 -0.29344779947E+03  0.34493740756E+03  0.12509113624E+03 0.  0.
          5    1    3    3  502    0 -0.32787927751E+02  0.17239640996E+02 -0.21373015955E+03  0.21695692414E+03  0.41800000000E+01 0. -1.
         -5    1    3    3    0  502 -0.41177056790E+02  0.91165122812E+02 -0.79717639914E+02  0.12798048342E+03  0.41800000000E+01 0. -1.
        -11    1    1    2    0    0 -0.66822019914E+00 -0.22711294745E+02 -0.10964854422E+03  0.11197791156E+03  0.00000000000E+00 0. -1.
         11    1    1    2    0    0  0.74633204740E+02 -0.85693469063E+02 -0.96959283337E+02  0.14938068321E+03  0.00000000000E+00 0.  1.
</event>
<event>
 7    1  0.2440960E-009  0.1179783E+03  0.7561462E-02  0.1246470E+00
          2   -1    0    0  501    0  0.00000000000E+00  0.00000000000E+00  0.41308033944E+03  0.41308033944E+03  0.00000000000E+00 0. -1.
         -2   -1    0    0    0  501 -0.00000000000E+00 -0.00000000000E+00 -0.48129151247E+02  0.48129151247E+02  0.00000000000E+00 0.  1.
         25    2    1    2    0    0 -0.16467043947E+01  0.88869156457E+02  0.22760376613E+03  0.27450370038E+03  0.12509343932E+03 0.  0.
          5    1    3    3  502    0  0.16101315017E+02 -0.24777831552E+01  0.15628533005E+03  0.15718768573E+03  0.41800000000E+01 0. -1.
         -5    1    3    3    0  502 -0.17748019412E+02  0.91346939612E+02  0.71318436074E+02  0.11731601465E+03  0.41800000000E+01 0. -1.
        -11    1    1    2    0    0 -0.10375734239E+02  0.16741704380E+02  0.15901316183E+02  0.25313877279E+02  0.00000000000E+00 0.  1.
         11    1    1    2    0    0  0.12022438633E+02 -0.10561086084E+03  0.12144610588E+03  0.16139191303E+03  0.00000000000E+00 0. -1.
</event>
<event>
 7    1  0.2440960E-009  0.9260087E+02  0.7561462E-02  0.1296673E+00
         -2   -1    0    0    0  501 -0.00000000000E+00  0.00000000000E+00  0.49186780850E+03  0.49186780850E+03  0.00000000000E+00 0.  1.
          2   -1    0    0  501    0  0.00000000000E+00 -0.00000000000E+00 -0.40425948765E+02  0.40425948765E+02  0.00000000000E+00 0. -1.
         25    2    1    2    0    0 -0.36088619683E+02  0.13462062432E+02  0.40110897086E+03  0.42192362896E+03  0.12509007384E+03 0.  0.
          5    1    3    3  502    0 -0.77115881932E+01 -0.32481468828E+02  0.24953281415E+02  0.41888579148E+02  0.41800000000E+01 0.  1.
         -5    1    3    3    0  502 -0.28377031490E+02  0.45943531260E+02  0.37615568945E+03  0.38003504981E+03  0.41800000000E+01 0.  1.
        -11    1    1    2    0    0 -0.20690673060E+02  0.22198236350E+02  0.91999449738E+01  0.31709693096E+02  0.00000000000E+00 0. -1.
         11    1    1    2    0    0  0.56779292743E+02 -0.35660298781E+02  0.41132943900E+02  0.78660435210E+02  0.00000000000E+00 0.  1.
</event>
<event>
 7    1  0.2440960E-009  0.1286814E+03  0.7561462E-02  0.1229425E+00
         -2   -1    0    0    0  501 -0.00000000000E+00  0.00000000000E+00  0.99961359090E+02  0.99961359090E+02  0.00000000000E+00 0. -1.
          2   -1    0    0  501    0  0.00000000000E+00 -0.00000000000E+00 -0.21358848481E+03  0.21358848481E+03  0.00000000000E+00 0.  1.
         25    2    1    2    0    0 -0.52821955509E+02 -0.79912599681E+02 -0.41152110352E+02  0.16284028611E+03  0.12508908834E+03 0.  0.
          5    1    3    3  502    0 -0.13970373269E+02 -0.85277393969E+02  0.21186635009E+02  0.89071606892E+02  0.41800000000E+01 0. -1.
         -5    1    3    3    0  502 -0.38851582240E+02  0.53647942871E+01 -0.62338745362E+02  0.73768679218E+02  0.41800000000E+01 0. -1.
        -11    1    1    2    0    0  0.21793993625E+02  0.94599051221E+02 -0.60329309265E+02  0.11429603758E+03  0.00000000000E+00 0. -1.
         11    1    1    2    0    0  0.31027961883E+02 -0.14686451540E+02 -0.12145706104E+02  0.36413520212E+02  0.00000000000E+00 0.  1.
</event>
<event>
 7    1  0.2440960E-009  0.1602178E+03  0.7561462E-02  0.1188451E+00
         -1   -1    0    0    0  501 -0.00000000000E+00  0.00000000000E+00  0.20007032314E+02  0.20007032314E+02  0.00000000000E+00 0.  1.
          1   -1    0    0  501    0  0.00000000000E+00 -0.00000000000E+00 -0.14307760074E+04  0.14307760074E+04  0.00000000000E+00 0. -1.
         25    2    1    2    0    0 -0.84475859491E+02  0.96729530507E+02 -0.80953872049E+03  0.82915215544E+03  0.12509030340E+03 0.  0.
          5    1    3    3  502    0 -0.77835329582E+02  0.11310832814E+01 -0.46592469564E+03  0.47240121960E+03  0.41800000000E+01 0.  1.
         -5    1    3    3    0  502 -0.66405299092E+01  0.95598447226E+02 -0.34361402485E+03  0.35675093584E+03  0.41800000000E+01 0.  1.
        -11    1    1    2    0    0  0.69606454371E+02 -0.26031010385E+02 -0.42013465741E+03  0.42665653909E+03  0.00000000000E+00 0. -1.
         11    1    1    2    0    0  0.14869405120E+02 -0.70698520122E+02 -0.18109559720E+03  0.19497434519E+03  0.00000000000E+00 0.  1.
</event>
<event>
 7    1  0.2440960E-009  0.2108312E+03  0.7561462E-02  0.1140909E+00
          2   -1    0    0  501    0  0.00000000000E+00  0.00000000000E+00  0.47053819217E+03  0.47053819217E+03  0.00000000000E+00 0.  1.
         -2   -1    0    0    0  501 -0.00000000000E+00 -0.00000000000E+00 -0.10974186317E+03  0.10974186317E+03  0.00000000000E+00 0. -1.
         25    2    1    2    0    0 -0.13819427221E+03 -0.14353175677E+03  0.17681102006E+03  0.29429265769E+03  0.12508800695E+03 0.  0.
          5    1    3    3  502    0 -0.35483907900E+02 -0.67077147091E+02  0.14276839942E+03  0.16173663671E+03  0.41800000000E+01 0. -1.
         -5    1    3    3    0  502 -0.10271036431E+03 -0.76454609681E+02  0.34042620641E+02  0.13255602098E+03  0.41800000000E+01 0. -1.
        -11    1    1    2    0    0  0.47327749034E+02  0.11163065359E+03  0.86394526487E+02  0.14888026349E+03  0.00000000000E+00 0. -1.
         11    1    1    2    0    0  0.90866523180E+02  0.31901103184E+02  0.97590782448E+02  0.13710713416E+03  0.00000000000E+00 0.  1.
</event>
<event>
 7    1  0.2440960E-009  0.1326364E+03  0.7561462E-02  0.1223595E+00
         -2   -1    0    0    0  501 -0.00000000000E+00  0.00000000000E+00  0.30920824266E+03  0.30920824266E+03  0.00000000000E+00 0.  1.
          2   -1    0    0  501    0  0.00000000000E+00 -0.00000000000E+00 -0.73377813693E+02  0.73377813693E+02  0.00000000000E+00 0. -1.
         25    2    1    2    0    0  0.57691753453E+02  0.89398167268E+02  0.13527613420E+03  0.21275920077E+03  0.12508586771E+03 0.  0.
          5    1    3    3  502    0  0.58257267886E+02 -0.95611337733E+01  0.79417063489E+02  0.99044772269E+02  0.41800000000E+01 0.  1.
         -5    1    3    3    0  502 -0.56551443280E+00  0.98959301041E+02  0.55859070707E+02  0.11371442850E+03  0.41800000000E+01 0.  1.
        -11    1    1    2    0    0 -0.40062124595E+02 -0.51552303845E+02  0.10916354070E+03  0.12719784777E+03  0.00000000000E+00 0.  1.
         11    1    1    2    0    0 -0.17629628858E+02 -0.37845863422E+02 -0.86092459290E+01  0.42629007815E+02  0.00000000000E+00 0. -1.
</event>
<event>
 7    1  0.2440960E-009  0.8385727E+02  0.7561462E-02  0.1318448E+00
         -2   -1    0    0    0  501 -0.00000000000E+00  0.00000000000E+00  0.74170190808E+02  0.74170190808E+02  0.00000000000E+00 0.  1.
          2   -1    0    0  501    0  0.00000000000E+00 -0.00000000000E+00 -0.33950021734E+03  0.33950021734E+03  0.00000000000E+00 0. -1.
         25    2    1    2    0    0  0.56678680165E+02  0.25439902635E+02 -0.25694862318E+03  0.29245290892E+03  0.12508576078E+03 0.  0.
          5    1    3    3  502    0  0.11375518441E+02  0.32063713900E+02 -0.24154618885E+03  0.24396622291E+03  0.41800000000E+01 0.  1.
         -5    1    3    3    0  502  0.45303161723E+02 -0.66238112655E+01 -0.15402434330E+02  0.48486686019E+02  0.41800000000E+01 0.  1.
        -11    1    1    2    0    0 -0.69343698371E+01 -0.35955461985E+02 -0.45398621918E+02  0.58325942801E+02  0.00000000000E+00 0. -1.
         11    1    1    2    0    0 -0.49744310327E+02  0.10515559350E+02  0.37017218572E+02  0.62891556422E+02  0.00000000000E+00 0.  1.
</event>
<event>
 7    1  0.2440960E-009  0.1095055E+03  0.7561462E-02  0.1261488E+00
          4   -1    0    0  501    0  0.00000000000E+00  0.00000000000E+00  0.25209608370E+02  0.25209608370E+02  0.00000000000E+00 0. -1.
         -4   -1    0    0    0  501 -0.00000000000E+00 -0.00000000000E+00 -0.51131181354E+03  0.51131181354E+03  0.00000000000E+00 0.  1.
         25    2    1    2    0    0 -0.17024990217E+02 -0.77349741620E+01 -0.22406629360E+03  0.25730019792E+03  0.12509199737E+03 0.  0.
          5    1    3    3  502    0  0.18440508556E+02  0.50684827853E+02 -0.68141071534E+02  0.87003920372E+02  0.41800000000E+01 0. -1.
         -5    1    3    3    0  502 -0.35465498773E+02 -0.58419802015E+02 -0.15592522206E+03  0.17029627755E+03  0.41800000000E+01 0. -1.
        -11    1    1    2    0    0  0.27891424834E+02 -0.39288052460E+02 -0.13159571373E+03  0.14013891151E+03  0.00000000000E+00 0. -1.
         11    1    1    2    0    0 -0.10866434617E+02  0.47023026622E+02 -0.13044019784E+03  0.13908231249E+03  0.00000000000E+00 0.  1.
</event>
<event>
 7    1  0.2440960E-009  0.1877850E+03  0.7561462E-02  0.1160474E+00
         -4   -1    0    0    0  501 -0.00000000000E+00  0.00000000000E+00  0.25497924439E+03  0.25497924439E+03  0.00000000000E+00 0.  1.
          4   -1    0    0  501    0  0.00000000000E+00 -0.00000000000E+00 -0.34891127649E+03  0.34891127649E+03  0.00000000000E+00 0. -1.
         25    2    1    2    0    0  0.17630782698E+03  0.43730446947E+02 -0.26024633630E+03  0.34113308690E+03  0.12508727184E+03 0.  0.
          5    1    3    3  502    0  0.33746067418E+02  0.32000375419E+02 -0.15931256404E+03  0.16601441671E+03  0.41800000000E+01 0. -1.
         -5    1    3    3    0  502  0.14256175956E+03  0.11730071527E+02 -0.10093377225E+03  0.17511867019E+03  0.41800000000E+01 0. -1.
        -11    1    1    2    0    0 -0.64030321255E+02 -0.35451589832E+02  0.12096800014E+03  0.14138583493E+03  0.00000000000E+00 0.  1.
         11    1    1    2    0    0 -0.11227750572E+03 -0.82788571150E+01  0.45346304060E+02  0.12137159906E+03  0.00000000000E+00 0. -1.
</event>
<event>
 7    1  0.3251588E-009  0.1037123E+03  0.7561462E-02  0.1272678E+00
          1   -1    0    0  501    0  0.00000000000E+00  0.00000000000E+00  0.57995608263E+03  0.57995608263E+03  0.00000000000E+00 0. -1.
         -1   -1    0    0    0  501 -0.00000000000E+00 -0.00000000000E+00 -0.33859917542E+02  0.33859917542E+02  0.00000000000E+00 0.  1.
         25    2    1    2    0    0 -0.86788201834E+02 -0.20801696739E+01  0.26453770893E+03  0.30522781920E+03  0.12508918053E+03 0.  0.
          5    1    3    3  502    0 -0.30356322931E+02  0.97951628193E+01  0.24044883164E+03  0.24259135309E+03  0.41800000000E+01 0.  1.
         -5    1    3    3    0  502 -0.56431878903E+02 -0.11875332493E+02  0.24088877293E+02  0.62636466117E+02  0.41800000000E+01 0.  1.
        -11    1    1    2    0    0  0.47313070395E+02  0.40552207406E+02  0.20492452364E+03  0.21418932874E+03  0.00000000000E+00 0. -1.
         11    1    1    2    0    0  0.39475131439E+02 -0.38472037732E+02  0.76633932513E+02  0.94398852227E+02  0.00000000000E+00 0.  1.
</event>
<event>
 7    1  0.2440960E-009  0.9848219E+02  0.7561462E-02  0.1283520E+00
          2   -1    0    0  501    0  0.00000000000E+00  0.00000000000E+00  0.15414239332E+03  0.15414239332E+03  0.00000000000E+00 0. -1.
         -2   -1    0    0    0  501 -0.00000000000E+00 -0.00000000000E+00 -0.11375119705E+03  0.11375119705E+03  0.00000000000E+00 0.  1.
         25    2    1    2    0    0  0.36484826533E+01 -0.55022875208E+02  0.75279116389E+02  0.15606237694E+03  0.12509073471E+03 0.  0.
          5    1    3    3  502    0 -0.79476259113E+01  0.19555677892E+02 -0.23379182993E+02  0.31774957008E+02  0.41800000000E+01 0.  1.
         -5    1    3    3    0  502  0.11596108565E+02 -0.74578553100E+02  0.98658299382E+02  0.12428741993E+03  0.41800000000E+01 0.  1.
        -11    1    1    2    0    0  0.31150604669E+02  0.57046356757E+02 -0.40415262021E+02  0.76537836360E+02  0.00000000000E+00 0.  1.
         11    1    1    2    0    0 -0.34799087323E+02 -0.20234815490E+01  0.55273418986E+01  0.35293377063E+02  0.00000000000E+00 0. -1.
</event>
<event>
 7    1  0.2440960E-009  0.1281695E+03  0.7561462E-02  0.1230197E+00
          1   -1    0    0  501    0  0.00000000000E+00  0.00000000000E+00  0.50251374477E+03  0.50251374477E+03  0.00000000000E+00 0. -1.
         -1   -1    0    0    0  501 -0.00000000000E+00 -0.00000000000E+00 -0.37982364513E+02  0.37982364513E+02  0.00000000000E+00 0.  1.
         25    2    1    2    0    0 -0.31959313989E+01 -0.85088045723E+02  0.22819875926E+03  0.27380977831E+03  0.12508769512E+03 0.  0.
          5    1    3    3  502    0 -0.47732974797E+02 -0.13834525224E+02  0.29283692368E+02  0.57834574520E+02  0.41800000000E+01 0. -1.
         -5    1    3    3    0  502  0.44537043398E+02 -0.71253520499E+02  0.19891506689E+03  0.21597520379E+03  0.41800000000E+01 0. -1.
        -11    1    1    2    0    0  0.12160747999E+02  0.10225099297E+03  0.18350076889E+03  0.21041787362E+03  0.00000000000E+00 0.  1.
         11    1    1    2    0    0 -0.89648166002E+01 -0.17162947252E+02  0.52831852101E+02  0.56268457341E+02  0.00000000000E+00 0. -1.
</event>
<event>
 7    1  0.2440960E-009  0.1183384E+03  0.7561462E-02  0.1245864E+00
         -1   -1    0    0    0  501 -0.00000000000E+00  0.00000000000E+00  0.65005502709E+02  0.65005502709E+02  0.00000000000E+00 0.  1.
          1   -1    0    0  501    0  0.00000000000E+00 -0.00000000000E+00 -0.31509036744E+03  0.31509036744E+03  0.00000000000E+00 0. -1.
         25    2    1    2    0    0 -0.62454163106E+02  0.60566054499E+02 -0.18000900799E+03  0.23583218815E+03  0.12507920915E+03 0.  0.
          5    1    3    3  502    0  0.26887796310E+02  0.40852569299E+02 -0.23328017228E+02  0.54346617158E+02  0.41800000000E+01 0.  1.
         -5    1    3    3    0  502 -0.89341959416E+02  0.19713485200E+02 -0.15668099077E+03  0.18148557099E+03  0.41800000000E+01 0.  1.
        -11    1    1    2    0    0  0.23064451835E+02 -0.50244677062E+02  0.83348158228E+01  0.55910335952E+02  0.00000000000E+00 0.  1.
         11    1    1    2    0    0  0.39389711271E+02 -0.10321377437E+02 -0.78410672558E+02  0.88353346045E+02  0.00000000000E+00 0. -1.
</event>
<event>
 7    1  0.2440960E-009  0.1925805E+03  0.7561462E-02  0.1156154E+00
          2   -1    0    0  501    0  0.00000000000E+00  0.00000000000E+00  0.46544398817E+02  0.46544398817E+02  0.00000000000E+00 0. -1.
         -2   -1    0    0    0  501 -0.00000000000E+00 -0.00000000000E+00 -0.10585026545E+04  0.10585026545E+04  0.00000000000E+00 0.  1.
         25    2    1    2    0    0  0.18411941540E+03  0.38178928266E+02 -0.63929690249E+03  0.67801685403E+03  0.12509490446E+03 0.  0.
          5    1    3    3  502    0  0.15657561659E+03  0.96842700390E+01 -0.32176722074E+03  0.35799626470E+03  0.41800000000E+01 0. -1.
         -5    1    3    3    0  502  0.27543798805E+02  0.28494658227E+02 -0.31752968175E+03  0.32002058932E+03  0.41800000000E+01 0. -1.
        -11    1    1    2    0    0 -0.57034610629E+02 -0.17227167792E+02 -0.44100360555E+02  0.74125325772E+02  0.00000000000E+00 0.  1.
         11    1    1    2    0    0 -0.12708480477E+03 -0.20951760473E+02 -0.32856099268E+03  0.35290487355E+03  0.00000000000E+00 0. -1.
</event>
<event>
 7    1  0.2440960E-009  0.9697234E+02  0.7561462E-02  0.1286795E+00
          2   -1    0    0  501    0  0.00000000000E+00  0.00000000000E+00  0.11933122245E+03  0.11933122245E+03  0.00000000000E+00 0.  1.
         -2   -1    0    0    0  501 -0.00000000000E+00 -0.00000000000E+00 -0.10510071441E+03  0.10510071441E+03  0.00000000000E+00 0. -1.
         25    2    1    2    0    0 -0.20630234498E+01 -0.27286449838E+02 -0.38176068868E+01  0.12810342754E+03  0.12508839920E+03 0.  0.
          5    1    3    3  502    0  0.41533903686E+02 -0.44022469964E+02  0.32475143274E+02  0.68812428731E+02  0.41800000000E+01 0. -1.
         -5    1    3    3    0  502 -0.43596927136E+02  0.16736020127E+02 -0.36292750160E+02  0.59290998808E+02  0.41800000000E+01 0. -1.
        -11    1    1    2    0    0 -0.13171520809E+02 -0.26982158014E+02 -0.12140420928E+02  0.32386967006E+02  0.00000000000E+00 0. -1.
         11    1    1    2    0    0  0.15234544259E+02  0.54268607851E+02  0.30188535853E+02  0.63941542317E+02  0.00000000000E+00 0.  1.
</event>
<event>
 7    1  0.2440960E-009  0.1654536E+03  0.7561462E-02  0.1182674E+00
          2   -1    0    0  501    0  0.00000000000E+00  0.00000000000E+00  0.25851665368E+03  0.25851665368E+03  0.00000000000E+00 0. -1.
         -2   -1    0    0    0  501 -0.00000000000E+00 -0.00000000000E+00 -0.10726799463E+03  0.10726799463E+03  0.00000000000E+00 0.  1.
         25    2    1    2    0    0  0.21928339128E+02  0.12477264876E+03  0.84467888696E+02  0.19704562644E+03  0.12507233405E+03 0.  0.
          5    1    3    3  502    0  0.32286901916E+02 -0.14916523250E+02  0.29932093436E+02  0.46672789918E+02  0.41800000000E+01 0. -1.
         -5    1    3    3    0  502 -0.10358562788E+02  0.13968917201E+03  0.54535795260E+02  0.15037283652E+03  0.41800000000E+01 0. -1.
        -11    1    1    2    0    0  0.12157212237E+02 -0.11991683589E+03  0.51734969712E+02  0.13116536292E+03  0.00000000000E+00 0. -1.
         11    1    1    2    0    0 -0.34085551366E+02 -0.48558128745E+01  0.15045800641E+02  0.37573658958E+02  0.00000000000E+00 0.  1.
</event>
<event>
 7    1  0.2440960E-009  0.7068087E+02  0.7561462E-02  0.1357793E+00
          2   -1    0    0  501    0  0.00000000000E+00  0.00000000000E+00  0.44367074350E+02  0.44367074350E+02  0.00000000000E+00 0. -1.
         -2   -1    0    0    0  501 -0.00000000000E+00 -0.00000000000E+00 -0.34996436937E+03  0.34996436937E+03  0.00000000000E+00 0.  1.
         25    2    1    2    0    0  0.29437645456E+02  0.26460753525E+02 -0.24328195223E+03  0.27640572121E+03  0.12508904024E+03 0.  0.
          5    1    3    3  502    0  0.33460435026E+01 -0.98805193909E+01 -0.22897474247E+03  0.22925035608E+03  0.41800000000E+01 0. -1.
         -5    1    3    3    0  502  0.26091601954E+02  0.36341272916E+02 -0.14307209759E+02  0.47155365132E+02  0.41800000000E+01 0. -1.
        -11    1    1    2    0    0 -0.11290016304E+02  0.26715724735E+02 -0.53767735760E+02  0.61091438230E+02  0.00000000000E+00 0.  1.
         11    1    1    2    0    0 -0.18147629153E+02 -0.53176478260E+02 -0.85476070285E+01  0.56834284282E+02  0.00000000000E+00 0. -1.
</event>
<event>
 7    1  0.2440960E-009  0.1080815E+03  0.7561462E-02  0.1264164E+00
         -1   -1    0    0    0  501 -0.00000000000E+00  0.00000000000E+00  0.30852033759E+03  0.30852033759E+03  0.00000000000E+00 0.  1.
          1   -1    0    0  501    0  0.00000000000E+00 -0.00000000000E+00 -0.46206929918E+02  0.46206929918E+02  0.00000000000E+00 0. -1.
         25    2    1    2    0    0  0.27326340351E+02  0.39972599669E+02  0.17830010703E+03  0.22312009057E+03  0.12508840492E+03 0.  0.
          5    1    3    3  502    0  0.32675530900E+02 -0.37447038562E+02  0.37881903267E+02  0.62629721473E+02  0.41800000000E+01 0. -1.
         -5    1    3    3    0  502 -0.53491905481E+01  0.77419638232E+02  0.14041820377E+03  0.16049036910E+03  0.41800000000E+01 0. -1.
        -11    1    1    2    0    0 -0.40506602825E+02  0.58179745731E+01  0.71433528756E+02  0.82324860954E+02  0.00000000000E+00 0. -1.
         11    1    1    2    0    0  0.13180262474E+02 -0.45790574243E+02  0.12579771884E+02  0.49282315987E+02  0.00000000000E+00 0.  1.
</event>
<event>
 7    1  0.2440960E-009  0.6458444E+02  0.7561462E-02  0.1379542E+00
         -2   -1    0    0    0  501 -0.00000000000E+00  0.00000000000E+00  0.16639083879E+02  0.16639083879E+02  0.00000000000E+00 0.  1.
          2   -1    0    0  501    0  0.00000000000E+00 -0.00000000000E+00 -0.73686744361E+03  0.73686744361E+03  0.00000000000E+00 0. -1.
         25    2    1    2    0    0 -0.94802828997E+01 -0.73069074435E+01 -0.48053074477E+03  0.49668998307E+03  0.12509147031E+03 0.  0.
          5    1    3    3  502    0 -0.25517286452E+02 -0.13775837622E+02 -0.47779246424E+03  0.47868989637E+03  0.41800000000E+01 0. -1.
         -5    1    3    3    0  502  0.16037003553E+02  0.64689301789E+01 -0.27382805373E+01  0.18000086692E+02  0.41800000000E+01 0. -1.
        -11    1    1    2    0    0  0.44032177742E+02 -0.71808035733E+01 -0.18641987370E+03  0.19168402627E+03  0.00000000000E+00 0. -1.
         11    1    1    2    0    0 -0.34551894842E+02  0.14487711017E+02 -0.53277741264E+02  0.65132518161E+02  0.00000000000E+00 0.  1.
</event>
<event>
 7    1  0.2440960E-009  0.1146421E+03  0.7561462E-02  0.1252207E+00
          3   -1    0    0  501    0  0.00000000000E+00  0.00000000000E+00  0.63596580076E+02  0.63596580076E+02  0.00000000000E+00 0. -1.
         -3   -1    0    0    0  501 -0.00000000000E+00 -0.00000000000E+00 -0.22980904500E+03  0.22980904500E+03  0.00000000000E+00 0.  1.
         25    2    1    2    0    0 -0.38717627272E+01 -0.50354242672E+02 -0.74966595505E+02  0.15433210014E+03  0.12509143212E+03 0.  0.
          5    1    3    3  502    0  0.54932760528E+02 -0.18024586584E+02 -0.64277461383E+01  0.58320512868E+02  0.41800000000E+01 0.  1.
         -5    1    3    3    0  502 -0.58804523255E+02 -0.32329656088E+02 -0.68538849367E+02  0.96011587272E+02  0.41800000000E+01 0.  1.
        -11    1    1    2    0    0 -0.38096988927E+02  0.49033003960E+02 -0.45508666163E+02  0.76984769523E+02  0.00000000000E+00 0.  1.
         11    1    1    2    0    0  0.41968751654E+02  0.13212387126E+01 -0.45737203259E+02  0.62088755416E+02  0.00000000000E+00 0. -1.
</event>
<event>
 7    1  0.2440960E-009  0.9598964E+02  0.7561462E-02  0.1288963E+00
          1   -1    0    0  501    0  0.00000000000E+00  0.00000000000E+00  0.72321195640E+03  0.72321195640E+03  0.00000000000E+00 0. -1.
         -1   -1    0    0    0  501 -0.00000000000E+00 -0.00000000000E+00 -0.20486005171E+02  0.20486005171E+02  0.00000000000E+00 0.  1.
         25    2    1    2    0    0 -0.52583072425E+02 -0.13563346979E+02  0.31250093208E+03  0.34096351533E+03  0.12510132832E+03 0.  0.
          5    1    3    3  502    0  0.22886466830E+02  0.87529349521E+01  0.75280157123E+01  0.25972055267E+02  0.41800000000E+01 0.  1.
         -5    1    3    3    0  502 -0.75469539255E+02 -0.22316281931E+02  0.30497291636E+03  0.31499146006E+03  0.41800000000E+01 0.  1.
        -11    1    1    2    0    0  0.55073890928E+02  0.35961530104E+02  0.35409355634E+03  0.36015081806E+03  0.00000000000E+00 0. -1.
         11    1    1    2    0    0 -0.24908185038E+01 -0.22398183124E+02  0.36131462810E+02  0.42583628179E+02  0.00000000000E+00 0.  1.
</event>
<event>
 7    1  0.2440960E-009  0.7977144E+02  0.7561462E-02  0.1329701E+00
         -3   -1    0    0    0  501 -0.00000000000E+00  0.00000000000E+00  0.48163276981E+03  0.48163276981E+03  0.00000000000E+00 0.  1.
          3   -1    0    0  501    0  0.00000000000E+00 -0.00000000000E+00 -0.27900165700E+02  0.27900165700E+02  0.00000000000E+00 0. -1.
         25    2    1    2    0    0  0.14444505289E+02 -0.29680701335E+02  0.20871847641E+03  0.24556019738E+03  0.12508725105E+03 0.  0.
          5    1    3    3  502    0 -0.16786277149E+02 -0.38869192046E+02  0.94175080762E+01  0.43574706530E+02  0.41800000000E+01 0. -1.
         -5    1    3    3    0  502  0.31230782438E+02  0.91884907105E+01  0.19930096834E+03  0.20198549085E+03  0.41800000000E+01 0. -1.
        -11    1    1    2    0    0 -0.30494211852E+02  0.49827492801E+02  0.22157412413E+03  0.22914573633E+03  0.00000000000E+00 0.  1.
         11    1    1    2    0    0  0.16049706563E+02 -0.20146791466E+02  0.23440003569E+02  0.34827001800E+02  0.00000000000E+00 0. -1.
</event>
<event>
 7    1  0.2440960E-009  0.1065390E+03  0.7561462E-02  0.1267117E+00
          2   -1    0    0  501    0  0.00000000000E+00  0.00000000000E+00  0.23178092431E+02  0.23178092431E+02  0.00000000000E+00 0. -1.
         -2   -1    0    0    0  501 -0.00000000000E+00 -0.00000000000E+00 -0.65019962181E+03  0.65019962181E+03  0.00000000000E+00 0.  1.
         25    2    1    2    0    0  0.37812182429E+02 -0.44678371413E+02 -0.42392045073E+03  0.44585038223E+03  0.12509235300E+03 0.  0.
          5    1    3    3  502    0  0.17973905930E+02 -0.78337358537E+02 -0.37271962378E+03  0.38130983909E+03  0.41800000000E+01 0.  1.
         -5    1    3    3    0  502  0.19838276499E+02  0.33658987124E+02 -0.51200826945E+02  0.64540543138E+02  0.41800000000E+01 0.  1.
        -11    1    1    2    0    0 -0.19582732693E+02  0.63887356079E+02 -0.18131281028E+03  0.19323408824E+03  0.00000000000E+00 0.  1.
         11    1    1    2    0    0 -0.18229449735E+02 -0.19208984666E+02 -0.21788268370E+02  0.34293243768E+02  0.00000000000E+00 0. -1.
</event>
<event>
 7    1  0.2440960E-009  0.9779657E+02  0.7561462E-02  0.1284999E+00
         -2   -1    0    0    0  501 -0.00000000000E+00  0.00000000000E+00  0.96634137102E+02  0.96634137102E+02  0.00000000000E+00 0.  1.
          2   -1    0    0  501    0  0.00000000000E+00 -0.00000000000E+00 -0.11924273968E+03  0.11924273968E+03  0.00000000000E+00 0. -1.
         25    2    1    2    0    0 -0.33426171656E+02  0.38872161674E+02 -0.48753193113E+02  0.14371384201E+03  0.12509372742E+03 0.  0.
          5    1    3    3  502    0  0.46499940039E+02  0.24105062139E+02 -0.96530199817E+01  0.53422388931E+02  0.41800000000E+01 0. -1.
         -5    1    3    3    0  502 -0.79926111695E+02  0.14767099535E+02 -0.39100173131E+02  0.90291453074E+02  0.41800000000E+01 0. -1.
        -11    1    1    2    0    0 -0.67560509654E+00 -0.24740895163E+02  0.25077019527E+02  0.35233865017E+02  0.00000000000E+00 0.  1.
         11    1    1    2    0    0  0.34101776753E+02 -0.14131266511E+02  0.10675710123E+01  0.36929169754E+02  0.00000000000E+00 0. -1.
</event>
<event>
 7    1  0.2440960E-009  0.2187118E+03  0.7561462E-02  0.1134847E+00
         -2   -1    0    0    0  501 -0.00000000000E+00  0.00000000000E+00  0.48291413206E+02  0.48291413206E+02  0.00000000000E+00 0.  1.
          2   -1    0    0  501    0  0.00000000000E+00 -0.00000000000E+00 -0.11971432971E+04  0.11971432971E+04  0.00000000000E+00 0. -1.
         25    2    1    2    0    0  0.18763293457E+03 -0.70540790761E+02 -0.83147907687E+03  0.86439891870E+03  0.12508362834E+03 0.  0.
          5    1    3    3  502    0  0.10318008293E+03  0.27314355108E+02 -0.39079387639E+03  0.40512902849E+03  0.41800000000E+01 0. -1.
         -5    1    3    3    0  502  0.84452851641E+02 -0.97855145868E+02 -0.44068520048E+03  0.45926989020E+03  0.41800000000E+01 0. -1.
        -11    1    1    2    0    0 -0.11773339478E+03  0.53585146037E+02 -0.14531004460E+03  0.19454441443E+03  0.00000000000E+00 0.  1.
         11    1    1    2    0    0 -0.69899539782E+02  0.16955644724E+02 -0.17206276245E+03  0.18649137720E+03  0.00000000000E+00 0. -1.
</event>
<event>
 7    1  0.2440960E-009  0.1267596E+03  0.7561462E-02  0.1232345E+00
          2   -1    0    0  501    0  0.00000000000E+00  0.00000000000E+00  0.97359323226E+02  0.97359323226E+02  0.00000000000E+00 0. -1.
         -2   -1    0    0    0  501 -0.00000000000E+00 -0.00000000000E+00 -0.20502969921E+03  0.20502969921E+03  0.00000000000E+00 0.  1.
         25    2    1    2    0    0  0.44834973475E+02  0.70136739237E+02 -0.97053655247E+02  0.17887589836E+03  0.12509131856E+03 0.  0.
          5    1    3    3  502    0 -0.43653371562E+02  0.17542909762E+02 -0.30072376790E+02  0.55992774332E+02  0.41800000000E+01 0. -1.
         -5    1    3    3    0  502  0.88488345037E+02  0.52593829475E+02 -0.66981278458E+02  0.12288312402E+03  0.41800000000E+01 0. -1.
        -11    1    1    2    0    0 -0.10987857220E+02 -0.68502124464E+02 -0.38753761582E+02  0.79467780258E+02  0.00000000000E+00 0.  1.
         11    1    1    2    0    0 -0.33847116255E+02 -0.16346147729E+01  0.28137040849E+02  0.44045343817E+02  0.00000000000E+00 0. -1.
</event>
<event>
 7    1  0.2440960E-009  0.1198177E+03  0.7561462E-02  0.1243398E+00
         -2   -1    0    0    0  501 -0.00000000000E+00  0.00000000000E+00  0.26263765829E+02  0.26263765829E+02  0.00000000000E+00 0.  1.
          2   -1    0    0  501    0  0.00000000000E+00 -0.00000000000E+00 -0.67347551299E+03  0.67347551299E+03  0.00000000000E+00 0. -1.
         25    2    1    2    0    0  0.37237823652E+02 -0.91956228506E+02 -0.38416835216E+03  0.41602127465E+03  0.12508307115E+03 0.  0.
          5    1    3    3  502    0  0.72849297231E+01 -0.10563776133E+03 -0.17767878251E+03  0.20688071195E+03  0.41800000000E+01 0. -1.
         -5    1    3    3    0  502  0.29952893929E+02  0.13681532826E+02 -0.20648956964E+03  0.20914056270E+03  0.41800000000E+01 0. -1.
        -11    1    1    2    0    0 -0.15813860282E+02  0.59615695845E+02 -0.20359273949E+03  0.21273014112E+03  0.00000000000E+00 0. -1.
         11    1    1    2    0    0 -0.21423963370E+02  0.32340532661E+02 -0.59450655512E+02  0.70987863048E+02  0.00000000000E+00 0.  1.
</event>
<event>
 7    1  0.3967371E-009  0.1004058E+03  0.7561462E-02  0.1279445E+00
          2   -1    0    0  501    0  0.00000000000E+00  0.00000000000E+00  0.34684807114E+03  0.34684807114E+03  0.00000000000E+00 0. -1.
         -2   -1    0    0    0  501 -0.00000000000E+00 -0.00000000000E+00 -0.48453318394E+02  0.48453318394E+02  0.00000000000E+00 0.  1.
         25    2    1    2    0    0  0.37826362994E+02 -0.53982712589E+02  0.20303059712E+03  0.24741406120E+03  0.12508927740E+03 0.  0.
          5    1    3    3  502    0 -0.29631331949E+02  0.13228858848E+02  0.10788171561E+03  0.11273400331E+03  0.41800000000E+01 0. -1.
         -5    1    3    3    0  502  0.67457694943E+02 -0.67211571438E+02  0.95148881504E+02  0.13468005789E+03  0.41800000000E+01 0. -1.
        -11    1    1    2    0    0 -0.16746759734E+02  0.48038916158E+02  0.11023917322E+03  0.12141197115E+03  0.00000000000E+00 0. -1.
         11    1    1    2    0    0 -0.21079603260E+02  0.59437964314E+01 -0.14875017586E+02  0.26475357180E+02  0.00000000000E+00 0.  1.
</event>
<event>
 7    1  0.2440960E-009  0.9848512E+02  0.7561462E-02  0.1283514E+00
         -2   -1    0    0    0  501 -0.00000000000E+00  0.00000000000E+00  0.17378420708E+03  0.17378420708E+03  0.00000000000E+00 0.  1.
          2   -1    0    0  501    0  0.00000000000E+00 -0.00000000000E+00 -0.74182877927E+02  0.74182877927E+02  0.00000000000E+00 0. -1.
         25    2    1    2    0    0  0.80385562755E+01 -0.87009097858E+01  0.10358079833E+03  0.16283931839E+03  0.12508931854E+03 0.  0.
          5    1    3    3  502    0  0.55236687485E+02  0.28656074994E+02  0.70124335444E+02  0.93846454913E+02  0.41800000000E+01 0.  1.
         -5    1    3    3    0  502 -0.47198131209E+02 -0.37356984779E+02  0.33456462887E+02  0.68992863474E+02  0.41800000000E+01 0.  1.
        -11    1    1    2    0    0 -0.40736492992E+02  0.82494904108E+01 -0.22791055339E+02  0.47401984735E+02  0.00000000000E+00 0. -1.
         11    1    1    2    0    0  0.32697936717E+02  0.45141937496E+00  0.18811586162E+02  0.37725781886E+02  0.00000000000E+00 0.  1.
</event>
<event>
 7    1  0.2440960E-009  0.1384895E+03  0.7561462E-02  0.1215376E+00
         -2   -1    0    0    0  501 -0.00000000000E+00  0.00000000000E+00  0.52334379051E+03  0.52334379051E+03  0.00000000000E+00 0.  1.
          2   -1    0    0  501    0  0.00000000000E+00 -0.00000000000E+00 -0.50823456623E+02  0.50823456623E+02  0.00000000000E+00 0. -1.
         25    2    1    2    0    0  0.84149920439E+01  0.11508803618E+03  0.17728841432E+03  0.24575676475E+03  0.12509651236E+03 0.  0.
          5    1    3    3  502    0 -0.66990657207E+01  0.11708837215E+03  0.68618734506E+02  0.13594325102E+03  0.41800000000E+01 0.  1.
         -5    1    3    3    0  502  0.15114057765E+02 -0.20003359656E+01  0.10866967982E+03  0.10981351373E+03  0.41800000000E+01 0.  1.
        -11    1    1    2    0    0  0.18934819290E+02  0.58549211893E+01  0.38439971358E+02  0.43248570863E+02  0.00000000000E+00 0.  1.
         11    1    1    2    0    0 -0.27349811334E+02 -0.12094295737E+03  0.25679194820E+03  0.28516191152E+03  0.00000000000E+00 0. -1.
</event>
<event>
 7    1  0.2440960E-009  0.1142325E+03  0.7561462E-02  0.1252927E+00
         -1   -1    0    0    0  501 -0.00000000000E+00  0.00000000000E+00  0.12623088678E+02  0.12623088678E+02  0.00000000000E+00 0. -1.
          1   -1    0    0  501    0  0.00000000000E+00 -0.00000000000E+00 -0.13564000203E+04  0.13564000203E+04  0.00000000000E+00 0.  1.
         25    2    1    2    0    0 -0.66650986567E+01  0.51498701754E+02 -0.10115514915E+04  0.10205787736E+04  0.12509225976E+03 0.  0.
          5    1    3    3  502    0 -0.32506108778E+02  0.85958468007E+02 -0.71153748518E+03  0.71745980414E+03  0.41800000000E+01 0. -1.
         -5    1    3    3    0  502  0.25841010122E+02 -0.34459766252E+02 -0.30001400627E+03  0.30311896947E+03  0.41800000000E+01 0. -1.
        -11    1    1    2    0    0 -0.17983990458E+02 -0.63344595515E+02 -0.29496043583E+03  0.30222114486E+03  0.00000000000E+00 0. -1.
         11    1    1    2    0    0  0.24649089115E+02  0.11845893760E+02 -0.37265004344E+02  0.46223190521E+02  0.00000000000E+00 0.  1.
</event>
<event>
 7    1  0.2440960E-009  0.1167372E+03  0.7561462E-02  0.1248579E+00
         -1   -1    0    0    0  501 -0.00000000000E+00  0.00000000000E+00  0.33592779601E+02  0.33592779601E+02  0.00000000000E+00 0.  1.
          1   -1    0    0  501    0  0.00000000000E+00 -0.00000000000E+00 -0.80054774646E+03  0.80054774646E+03  0.00000000000E+00 0. -1.
         25    2    1    2    0    0  0.85383045666E+02 -0.31818002342E+02 -0.62083080039E+03  0.63982886622E+03  0.12508975004E+03 0.  0.
          5    1    3    3  502    0  0.43250547851E+02 -0.71828918093E+02 -0.23330226542E+03  0.24794641118E+03  0.41800000000E+01 0.  1.
         -5    1    3    3    0  502  0.42132497815E+02  0.40010915751E+02 -0.38752853497E+03  0.39188245504E+03  0.41800000000E+01 0.  1.
        -11    1    1    2    0    0 -0.32787544593E+02  0.14970430316E+02  0.21283238984E+01  0.36106323919E+02  0.00000000000E+00 0.  1.
         11    1    1    2    0    0 -0.52595501073E+02  0.16847572026E+02 -0.14825249036E+03  0.15820533592E+03  0.00000000000E+00 0. -1.
</event>
<event>
 7    1  0.2440960E-009  0.1170973E+03  0.7561462E-02  0.1247964E+00
         -1   -1    0    0    0  501 -0.00000000000E+00  0.00000000000E+00  0.22434264726E+02  0.22434264726E+02  0.00000000000E+00 0.  1.
          1   -1    0    0  501    0  0.00000000000E+00 -0.00000000000E+00 -0.65811232890E+03  0.65811232890E+03  0.00000000000E+00 0. -1.
         25    2    1    2    0    0  0.51863989723E+02  0.72575718888E+01 -0.40582057072E+03  0.42787948114E+03  0.12509184217E+03 0.  0.
          5    1    3    3  502    0  0.75711905391E+02 -0.32795769441E+02 -0.19240081145E+03  0.20938815573E+03  0.41800000000E+01 0.  1.
         -5    1    3    3    0  502 -0.23847915668E+02  0.40053341330E+02 -0.21341975927E+03  0.21849132541E+03  0.41800000000E+01 0.  1.
        -11    1    1    2    0    0 -0.59101301576E+02  0.30378111485E+02 -0.13955704170E+03  0.15457024744E+03  0.00000000000E+00 0. -1.
         11    1    1    2    0    0  0.72373118521E+01 -0.37635683373E+02 -0.90300451749E+02  0.98096865046E+02  0.00000000000E+00 0.  1.
</event>
<event>
 7    1  0.2440960E-009  0.1619806E+03  0.7561462E-02  0.1186479E+00
          2   -1    0    0  501    0  0.00000000000E+00  0.00000000000E+00  0.27749321193E+03  0.27749321193E+03  0.00000000000E+00 0. -1.
         -2   -1    0    0    0  501 -0.00000000000E+00 -0.00000000000E+00 -0.15669816516E+03  0.15669816516E+03  0.00000000000E+00 0.  1.
         25    2    1    2    0    0  0.11648754496E+03 -0.55690506415E+02 -0.63892975956E+02  0.19079048609E+03  0.12509163270E+03 0.  0.
          5    1    3    3  502    0  0.84759364232E+02 -0.90325011283E+02 -0.71412861165E+02  0.14303854945E+03  0.41800000000E+01 0. -1.
         -5    1    3    3    0  502  0.31728180725E+02  0.34634504869E+02  0.75198852089E+01  0.47751936643E+02  0.41800000000E+01 0. -1.
        -11    1    1    2    0    0 -0.89103069303E+02 -0.18736116183E+01  0.13843555506E+03  0.16464285676E+03  0.00000000000E+00 0.  1.
         11    1    1    2    0    0 -0.27384475654E+02  0.57564118033E+02  0.46252467669E+02  0.78758034239E+02  0.00000000000E+00 0. -1.
</event>
<event>
 7    1  0.2440960E-009  0.1157046E+03  0.7561462E-02  0.1250356E+00
          2   -1    0    0  501    0  0.00000000000E+00  0.00000000000E+00  0.75229861632E+03  0.75229861632E+03  0.00000000000E+00 0. -1.
         -2   -1    0    0    0  501 -0.00000000000E+00 -0.00000000000E+00 -0.27514321236E+02  0.27514321236E+02  0.00000000000E+00 0.  1.
         25    2    1    2    0    0  0.73895374110E+02  0.21007243576E+02  0.24576813797E+03  0.28626581461E+03  0.12507720966E+03 0.  0.
          5    1    3    3  502    0 -0.22731756217E+02  0.27509924673E+02  0.21320335740E+02  0.41779873292E+02  0.41800000000E+01 0.  1.
         -5    1    3    3    0  502  0.96627130327E+02 -0.65026810967E+01  0.22444780223E+03  0.24448594132E+03  0.41800000000E+01 0.  1.
        -11    1    1    2    0    0  0.33041797963E+01 -0.21085950658E+02  0.24377265658E+02  0.32400401236E+02  0.00000000000E+00 0. -1.
         11    1    1    2    0    0 -0.77199553906E+02  0.78707081904E-01  0.45463889146E+03  0.46114672171E+03  0.00000000000E+00 0.  1.
</event>
<event>
 7    1  0.2440960E-009  0.6130035E+02  0.7561462E-02  0.1392454E+00
          1   -1    0    0  501    0  0.00000000000E+00  0.00000000000E+00  0.18117586163E+03  0.18117586163E+03  0.00000000000E+00 0. -1.
         -1   -1    0    0    0  501 -0.00000000000E+00 -0.00000000000E+00 -0.68707910949E+02  0.68707910949E+02  0.00000000000E+00 0.  1.
         25    2    1    2    0    0  0.97677021303E+01 -0.53141741435E+01  0.69672063459E+02  0.14361568437E+03  0.12509044696E+03 0.  0.
          5    1    3    3  502    0  0.30242410790E+02 -0.19604523352E+02 -0.26009273368E+02  0.44641857571E+02  0.41800000000E+01 0.  1.
         -5    1    3    3    0  502 -0.20474708659E+02  0.14290349209E+02  0.95681336827E+02  0.98973826803E+02  0.41800000000E+01 0.  1.
        -11    1    1    2    0    0 -0.31936698641E+02  0.16744407687E+02 -0.18183221011E+02  0.40385114030E+02  0.00000000000E+00 0.  1.
         11    1    1    2    0    0  0.22168996511E+02 -0.11430233544E+02  0.60979108236E+02  0.65882974177E+02  0.00000000000E+00 0. -1.
</event>
<event>
 7    1  0.2440960E-009  0.1212996E+03  0.7561462E-02  0.1240968E+00
          1   -1    0    0  501    0  0.00000000000E+00  0.00000000000E+00  0.36090102678E+03  0.36090102678E+03  0.00000000000E+00 0. -1.
         -1   -1    0    0    0  501 -0.00000000000E+00 -0.00000000000E+00 -0.54577921646E+02  0.54577921646E+02  0.00000000000E+00 0.  1.
         25    2    1    2    0    0 -0.48556641274E+02  0.81196782665E+02  0.16817786060E+03  0.22995568388E+03  0.12508060932E+03 0.  0.
          5    1    3    3  502    0 -0.19942588329E+02 -0.21465438425E+02 -0.13949205682E+01  0.29629209902E+02  0.41800000000E+01 0. -1.
         -5    1    3    3    0  502 -0.28614052945E+02  0.10266222109E+03  0.16957278117E+03  0.20032647398E+03  0.41800000000E+01 0. -1.
        -11    1    1    2    0    0  0.39742514132E+02 -0.87099119149E+02  0.75336206917E+02  0.12182474321E+03  0.00000000000E+00 0.  1.
         11    1    1    2    0    0  0.88141271421E+01  0.59023364843E+01  0.62809037620E+02  0.63698521333E+02  0.00000000000E+00 0. -1.
</event>
<event>
 7    1  0.2440960E-009  0.1243074E+03  0.7561462E-02  0.1236156E+00
          2   -1    0    0  501    0  0.00000000000E+00  0.00000000000E+00  0.34774422023E+02  0.34774422023E+02  0.00000000000E+00 0. -1.
         -2   -1    0    0    0  501 -0.00000000000E+00 -0.00000000000E+00 -0.49451263644E+03  0.49451263644E+03  0.00000000000E+00 0.  1.
         25    2    1    2    0    0 -0.63915995325E+02  0.37782810841E+02 -0.25259407269E+03  0.29148574167E+03  0.12508947512E+03 0.  0.
          5    1    3    3  502    0 -0.93551305308E+02  0.51050944795E+02 -0.22368238255E+03  0.24780905220E+03  0.41800000000E+01 0. -1.
         -5    1    3    3    0  502  0.29635309983E+02 -0.13268133955E+02 -0.28911690145E+02  0.43676689475E+02  0.41800000000E+01 0. -1.
        -11    1    1    2    0    0  0.82655401210E+02 -0.24360982409E+02 -0.19135453468E+03  0.20986169435E+03  0.00000000000E+00 0.  1.
         11    1    1    2    0    0 -0.18739405886E+02 -0.13421828432E+02 -0.15789607046E+02  0.27939622440E+02  0.00000000000E+00 0. -1.
</event>
<event>
 7    1  0.2440960E-009  0.1128898E+03  0.7561462E-02  0.1255310E+00
          1   -1    0    0  501    0  0.00000000000E+00  0.00000000000E+00  0.23790786565E+02  0.23790786565E+02  0.00000000000E+00 0. -1.
         -1   -1    0    0    0  501 -0.00000000000E+00 -0.00000000000E+00 -0.70542813767E+03  0.70542813767E+03  0.00000000000E+00 0.  1.
         25    2    1    2    0    0  0.27622485512E+02 -0.40651051437E+02 -0.23417466136E+03  0.27000367293E+03  0.12509477081E+03 0.  0.
          5    1    3    3  502    0  0.30588462931E+02  0.35128159708E+02 -0.14761376358E+03  0.15484488131E+03  0.41800000000E+01 0. -1.
         -5    1    3    3    0  502 -0.29659774194E+01 -0.75779211145E+02 -0.86560897777E+02  0.11515879162E+03  0.41800000000E+01 0. -1.
        -11    1    1    2    0    0  0.17302294800E+02 -0.20726143843E+02 -0.12902220309E+03  0.13181680975E+03  0.00000000000E+00 0.  1.
         11    1    1    2    0    0 -0.44924780311E+02  0.61377195280E+02 -0.31844048666E+03  0.32739844156E+03  0.00000000000E+00 0. -1.
</event>
<event>
 7    1  0.2440960E-009  0.1312930E+03  0.7561462E-02  0.1225550E+00
         -2   -1    0    0    0  501 -0.00000000000E+00  0.00000000000E+00  0.97489643611E+03  0.97489643611E+03  0.00000000000E+00 0.  1.
          2   -1    0    0  501    0  0.00000000000E+00 -0.00000000000E+00 -0.18548496318E+02  0.18548496318E+02  0.00000000000E+00 0. -1.
         25    2    1    2    0    0 -0.66628905829E+02  0.35696789975E+02  0.58946930554E+03  0.60731890338E+03  0.12509402992E+03 0.  0.
          5    1    3    3  502    0 -0.80513434070E+01  0.74963298069E+02  0.30251870036E+03  0.31180018706E+03  0.41800000000E+01 0.  1.
         -5    1    3    3    0  502 -0.58577562422E+02 -0.39266508095E+02  0.28695060519E+03  0.29551871632E+03  0.41800000000E+01 0.  1.
        -11    1    1    2    0    0 -0.22027211747E+02 -0.94742943821E+01  0.12291109041E+03  0.12522817756E+03  0.00000000000E+00 0.  1.
         11    1    1    2    0    0  0.88656117576E+02 -0.26222495593E+02  0.24396754385E+03  0.26089785149E+03  0.00000000000E+00 0. -1.
</event>
<event>
 7    1  0.2440960E-009  0.1119574E+03  0.7561462E-02  0.1256987E+00
         -1   -1    0    0    0  501 -0.00000000000E+00  0.00000000000E+00  0.39138451001E+02  0.39138451001E+02  0.00000000000E+00 0.  1.
          1   -1    0    0  501    0  0.00000000000E+00 -0.00000000000E+00 -0.42397660898E+03  0.42397660898E+03  0.00000000000E+00 0. -1.
         25    2    1    2    0    0  0.23022619758E+02  0.25096633057E+02 -0.10541621906E+03  0.16709380884E+03  0.12509148532E+03 0.  0.
          5    1    3    3  502    0  0.34023071695E+02  0.71384447691E+02 -0.48775060530E+02  0.93004234900E+02  0.41800000000E+01 0.  1.
         -5    1    3    3    0  502 -0.11000451936E+02 -0.46287814633E+02 -0.56641158535E+02  0.74089573939E+02  0.41800000000E+01 0.  1.
        -11    1    1    2    0    0 -0.55498145134E+02 -0.31574108562E+02 -0.20087939910E+03  0.21078306722E+03  0.00000000000E+00 0. -1.
         11    1    1    2    0    0  0.32475525376E+02  0.64774755042E+01 -0.78542539816E+02  0.85238183921E+02  0.00000000000E+00 0.  1.
</event>
<event>
 7    1  0.2440960E-009  0.1780624E+03  0.7561462E-02  0.1169691E+00
          1   -1    0    0  501    0  0.00000000000E+00  0.00000000000E+00  0.19521309097E+03  0.19521309097E+03  0.00000000000E+00 0. -1.
         -1   -1    0    0    0  501 -0.00000000000E+00 -0.00000000000E+00 -0.17763440531E+03  0.17763440531E+03  0.00000000000E+00 0.  1.
         25    2    1    2    0    0  0.22563048451E+02  0.14867724283E+03  0.17358650647E+02  0.19637262040E+03  0.12508744782E+03 0.  0.
          5    1    3    3  502    0 -0.49343789384E+02  0.61221487138E+02 -0.11187699402E+02  0.79533119240E+02  0.41800000000E+01 0. -1.
         -5    1    3    3    0  502  0.71906837835E+02  0.87455755691E+02  0.28546350049E+02  0.11683950116E+03  0.41800000000E+01 0. -1.
        -11    1    1    2    0    0 -0.20078722659E+02 -0.54094666569E+01 -0.23341988961E+02  0.31261252083E+02  0.00000000000E+00 0.  1.
         11    1    1    2    0    0 -0.24843257920E+01 -0.14326777617E+03  0.23562023973E+02  0.14521362380E+03  0.00000000000E+00 0. -1.
</event>
<event>
 7    1  0.2440960E-009  0.1183385E+03  0.7561462E-02  0.1245863E+00
          2   -1    0    0  501    0  0.00000000000E+00  0.00000000000E+00  0.25823236854E+03  0.25823236854E+03  0.00000000000E+00 0.  1.
         -2   -1    0    0    0  501 -0.00000000000E+00 -0.00000000000E+00 -0.70593112852E+02  0.70593112852E+02  0.00000000000E+00 0. -1.
         25    2    1    2    0    0  0.60248202834E+02  0.13539548612E+02  0.15264505036E+03  0.20678692737E+03  0.12508859504E+03 0.  0.
          5    1    3    3  502    0  0.94735658177E+00 -0.50097675126E+02  0.73875224235E+02  0.89362719818E+02  0.41800000000E+01 0. -1.
         -5    1    3    3    0  502  0.59300846252E+02  0.63637223738E+02  0.78769826121E+02  0.11742420755E+03  0.41800000000E+01 0. -1.
        -11    1    1    2    0    0 -0.24525726017E+02  0.32703116299E+02  0.47098972334E+02  0.62364398876E+02  0.00000000000E+00 0.  1.
         11    1    1    2    0    0 -0.35722476816E+02 -0.46242664911E+02 -0.12104767006E+02  0.59674155144E+02  0.00000000000E+00 0. -1.
</event>
<event>
 7    1  0.2440960E-009  0.1338844E+03  0.7561462E-02  0.1221803E+00
          1   -1    0    0  501    0  0.00000000000E+00  0.00000000000E+00  0.32543853086E+02  0.32543853086E+02  0.00000000000E+00 0. -1.
         -1   -1    0    0    0  501 -0.00000000000E+00 -0.00000000000E+00 -0.77323274049E+03  0.77323274049E+03  0.00000000000E+00 0.  1.
         25    2    1    2    0    0  0.60213372818E+02 -0.60326637997E+02 -0.59453871583E+03  0.61350518837E+03  0.12508948009E+03 0.  0.
          5    1    3    3  502    0  0.95179064610E+02 -0.27761552223E+02 -0.46246777864E+03  0.47299437291E+03  0.41800000000E+01 0.  1.
         -5    1    3    3    0  502 -0.34965691793E+02 -0.32565085774E+02 -0.13207093718E+03  0.14051081546E+03  0.41800000000E+01 0.  1.
        -11    1    1    2    0    0  0.15237207403E+02  0.39443321654E+02 -0.76865362472E+02  0.87728171419E+02  0.00000000000E+00 0.  1.
         11    1    1    2    0    0 -0.75450580221E+02  0.20883316343E+02 -0.69284809111E+02  0.10454323379E+03  0.00000000000E+00 0. -1.
</event>
<event>
 7    1  0.2440960E-009  0.1807121E+03  0.7561462E-02  0.1167116E+00
         -1   -1    0    0    0  501 -0.00000000000E+00  0.00000000000E+00  0.14352013565E+03  0.14352013565E+03  0.00000000000E+00 0.  1.
          1   -1    0    0  501    0  0.00000000000E+00 -0.00000000000E+00 -0.25615651556E+03  0.25615651556E+03  0.00000000000E+00 0. -1.
         25    2    1    2    0    0  0.55487028569E+02 -0.13552533806E+03 -0.12133596682E+03  0.22763255857E+03  0.12509291459E+03 0.  0.
          5    1    3    3  502    0 -0.40444851104E+02 -0.43940463199E+02 -0.39765643534E+02  0.71870223964E+02  0.41800000000E+01 0. -1.
         -5    1    3    3    0  502  0.95931879673E+02 -0.91584874862E+02 -0.81570323290E+02  0.15576233461E+03  0.41800000000E+01 0. -1.
        -11    1    1    2    0    0 -0.51319888342E+02  0.22964352654E+02  0.17969017556E+02  0.59025232098E+02  0.00000000000E+00 0.  1.
         11    1    1    2    0    0 -0.41671402266E+01  0.11256098541E+03 -0.92694306344E+01  0.11301886054E+03  0.00000000000E+00 0. -1.
</event>
<event>
 7    1  0.2440960E-009  0.3345531E+03  0.7561462E-02  0.1069140E+00
         -1   -1    0    0    0  501 -0.00000000000E+00  0.00000000000E+00  0.24558537483E+03  0.24558537483E+03  0.00000000000E+00 0.  1.
          1   -1    0    0  501    0  0.00000000000E+00 -0.00000000000E+00 -0.62945478640E+03  0.62945478640E+03  0.00000000000E+00 0. -1.
         25    2    1    2    0    0  0.14137405518E+03  0.30137549411E+03  0.36995838148E+01  0.35563301675E+03  0.12508934309E+03 0.  0.
          5    1    3    3  502    0 -0.24646577809E+01  0.13538506931E+02 -0.28801800746E+02  0.32192884836E+02  0.41800000000E+01 0. -1.
         -5    1    3    3    0  502  0.14383871296E+03  0.28783698718E+03  0.32501384560E+02  0.32344013191E+03  0.41800000000E+01 0. -1.
        -11    1    1    2    0    0 -0.65131593191E+02 -0.13326263566E+03 -0.24403281327E+03  0.28557497868E+03  0.00000000000E+00 0. -1.
         11    1    1    2    0    0 -0.76242461985E+02 -0.16811285845E+03 -0.14353618213E+03  0.23383216580E+03  0.00000000000E+00 0.  1.
</event>
<event>
 7    1  0.2440960E-009  0.1204278E+03  0.7561462E-02  0.1242393E+00
         -4   -1    0    0    0  501 -0.00000000000E+00  0.00000000000E+00  0.14011501067E+02  0.14011501067E+02  0.00000000000E+00 0.  1.
          4   -1    0    0  501    0  0.00000000000E+00 -0.00000000000E+00 -0.11071817309E+04  0.11071817309E+04  0.00000000000E+00 0. -1.
         25    2    1    2    0    0  0.28456520803E+02 -0.55194585667E+02 -0.58040384095E+03  0.59696943724E+03  0.12509066528E+03 0.  0.
          5    1    3    3  502    0  0.10015998340E+02 -0.91292666650E+02 -0.30461354408E+03  0.31818478098E+03  0.41800000000E+01 0. -1.
         -5    1    3    3    0  502  0.18440522462E+02  0.36098080983E+02 -0.27579029687E+03  0.27878465626E+03  0.41800000000E+01 0. -1.
        -11    1    1    2    0    0 -0.38180680650E+01  0.75894146169E+02 -0.38823005767E+03  0.39559711418E+03  0.00000000000E+00 0.  1.
         11    1    1    2    0    0 -0.24638452738E+02 -0.20699560502E+02 -0.12453633117E+03  0.12862668051E+03  0.00000000000E+00 0. -1.
</event>
<event>
 7    1  0.2440960E-009  0.1027194E+03  0.7561462E-02  0.1274679E+00
          2   -1    0    0  501    0  0.00000000000E+00  0.00000000000E+00  0.16896448999E+03  0.16896448999E+03  0.00000000000E+00 0. -1.
         -2   -1    0    0    0  501 -0.00000000000E+00 -0.00000000000E+00 -0.13913984840E+03  0.13913984840E+03  0.00000000000E+00 0.  1.
         25    2    1    2    0    0  0.49477481585E+01  0.47708803993E+02  0.11228455558E+03  0.17480153130E+03  0.12508854357E+03 0.  0.
          5    1    3    3  502    0 -0.15268887212E+02 -0.26999845895E+02  0.88275224653E+02  0.93659587243E+02  0.41800000000E+01 0.  1.
         -5    1    3    3    0  502  0.20216635370E+02  0.74708649888E+02  0.24009330922E+02  0.81141944056E+02  0.41800000000E+01 0.  1.
        -11    1    1    2    0    0 -0.23456392861E+02 -0.66343033418E+02 -0.80567394234E+02  0.10697058223E+03  0.00000000000E+00 0.  1.
         11    1    1    2    0    0  0.18508644702E+02  0.18634229425E+02 -0.18925197579E+01  0.26332224859E+02  0.00000000000E+00 0. -1.
</event>
<event>
 7    1  0.2440960E-009  0.1085826E+03  0.7561462E-02  0.1263217E+00
         -1   -1    0    0    0  501 -0.00000000000E+00  0.00000000000E+00  0.49804021965E+02  0.49804021965E+02  0.00000000000E+00 0.  1.
          1   -1    0    0  501    0  0.00000000000E+00 -0.00000000000E+00 -0.38007189392E+03  0.38007189392E+03  0.00000000000E+00 0. -1.
         25    2    1    2    0    0 -0.82104146084E+02  0.13586547115E+02 -0.17726120907E+03  0.23236906044E+03  0.12509260146E+03 0.  0.
          5    1    3    3  502    0 -0.45828185998E+02  0.53668856619E+02 -0.16087758841E+03  0.17572603579E+03  0.41800000000E+01 0. -1.
         -5    1    3    3    0  502 -0.36275960085E+02 -0.40082309504E+02 -0.16383620667E+02  0.56643024650E+02  0.41800000000E+01 0. -1.
        -11    1    1    2    0    0  0.27341991359E+02  0.14231357794E+02 -0.12720295698E+03  0.13088433177E+03  0.00000000000E+00 0. -1.
         11    1    1    2    0    0  0.54762154724E+02 -0.27817904908E+02 -0.25803705897E+02  0.66622523681E+02  0.00000000000E+00 0.  1.
</event>
<event>
 7    1  0.2440960E-009  0.1158113E+03  0.7561462E-02  0.1250171E+00
          1   -1    0    0  501    0  0.00000000000E+00  0.00000000000E+00  0.88208150923E+02  0.88208150923E+02  0.00000000000E+00 0. -1.
         -1   -1    0    0    0  501 -0.00000000000E+00 -0.00000000000E+00 -0.19511957134E+03  0.19511957134E+03  0.00000000000E+00 0.  1.
         25    2    1    2    0    0  0.78338386628E+01 -0.65383191267E+02 -0.35295726578E+02  0.14570635338E+03  0.12509285500E+03 0.  0.
          5    1    3    3  502    0 -0.54661099829E+02 -0.48947700467E+02 -0.35247552632E+01  0.73577235034E+02  0.41800000000E+01 0. -1.
         -5    1    3    3    0  502  0.62494938492E+02 -0.16435490799E+02 -0.31770971315E+02  0.72129118345E+02  0.41800000000E+01 0. -1.
        -11    1    1    2    0    0 -0.29841978049E+02  0.65393355402E+01 -0.68169633826E+02  0.74702112013E+02  0.00000000000E+00 0.  1.
         11    1    1    2    0    0  0.22008139386E+02  0.58843855726E+02 -0.34460600163E+01  0.62919256875E+02  0.00000000000E+00 0. -1.
</event>
<event>
 7    1  0.2440960E-009  0.1147813E+03  0.7561462E-02  0.1251963E+00
          1   -1    0    0  501    0  0.00000000000E+00  0.00000000000E+00  0.76537135529E+03  0.76537135529E+03  0.00000000000E+00 0. -1.
         -1   -1    0    0    0  501 -0.00000000000E+00 -0.00000000000E+00 -0.18785002350E+02  0.18785002350E+02  0.00000000000E+00 0.  1.
         25    2    1    2    0    0  0.36117514491E+02  0.30182948061E+02  0.47814393677E+03  0.49647557853E+03  0.12510351953E+03 0.  0.
          5    1    3    3  502    0  0.43322013250E+02 -0.40793518961E+02  0.17028569002E+03  0.18043169524E+03  0.41800000000E+01 0. -1.
         -5    1    3    3    0  502 -0.72044987591E+01  0.70976467022E+02  0.30785824674E+03  0.31604388328E+03  0.41800000000E+01 0. -1.
        -11    1    1    2    0    0  0.24349070073E+02  0.94835196069E+01  0.11666753149E+03  0.11955804975E+03  0.00000000000E+00 0. -1.
         11    1    1    2    0    0 -0.60466584565E+02 -0.39666467668E+02  0.15177488469E+03  0.16812272936E+03  0.00000000000E+00 0.  1.
</event>
<event>
 7    1  0.2440960E-009  0.1517992E+03  0.7561462E-02  0.1198279E+00
          1   -1    0    0  501    0  0.00000000000E+00  0.00000000000E+00  0.45304527676E+03  0.45304527676E+03  0.00000000000E+00 0. -1.
         -1   -1    0    0    0  501 -0.00000000000E+00 -0.00000000000E+00 -0.60967854506E+02  0.60967854506E+02  0.00000000000E+00 0.  1.
         25    2    1    2    0    0 -0.47303979576E+01  0.12360262316E+03  0.19184343058E+03  0.26029154760E+03  0.12509117786E+03 0.  0.
          5    1    3    3  502    0  0.86383277090E+01 -0.98536496266E+01  0.92026285907E+02  0.93048507857E+02  0.41800000000E+01 0. -1.
         -5    1    3    3    0  502 -0.13368725667E+02  0.13345627279E+03  0.99817144668E+02  0.16724303974E+03  0.41800000000E+01 0. -1.
        -11    1    1    2    0    0 -0.41452170846E+02 -0.88228188280E+02  0.13106248974E+03  0.16333974376E+03  0.00000000000E+00 0. -1.
         11    1    1    2    0    0  0.46182568804E+02 -0.35374434880E+02  0.69171501939E+02  0.90381839906E+02  0.00000000000E+00 0.  1.
</event>
<event>
 7    1  0.3119562E-009  0.1202346E+03  0.7561462E-02  0.1242711E+00
          2   -1    0    0  501    0  0.00000000000E+00  0.00000000000E+00  0.78827716126E+03  0.78827716126E+03  0.00000000000E+00 0. -1.
         -2   -1    0    0    0  501 -0.00000000000E+00 -0.00000000000E+00 -0.32040672980E+02  0.32040672980E+02  0.00000000000E+00 0.  1.
         25    2    1    2    0    0 -0.90318456778E+02  0.53224815886E+02  0.53250760326E+03  0.55695934847E+03  0.12509621761E+03 0.  0.
          5    1    3    3  502    0 -0.87588671751E+02  0.22689821964E+02  0.16562369859E+03  0.18877310554E+03  0.41800000000E+01 0.  1.
         -5    1    3    3    0  502 -0.27297850264E+01  0.30534993922E+02  0.36688390466E+03  0.36818624293E+03  0.41800000000E+01 0.  1.
        -11    1    1    2    0    0  0.84680667077E+02 -0.22368355810E+02  0.21283739648E+03  0.23015411371E+03  0.00000000000E+00 0. -1.
         11    1    1    2    0    0  0.56377897007E+01 -0.30856460076E+02  0.10891488543E+02  0.33204372058E+02  0.00000000000E+00 0.  1.
</event>
<event>
 7    1  0.2440960E-009  0.1440262E+03  0.7561462E-02  0.1208012E+00
          1   -1    0    0  501    0  0.00000000000E+00  0.00000000000E+00  0.61191337913E+02  0.61191337913E+02  0.00000000000E+00 0. -1.
         -1   -1    0    0    0  501 -0.00000000000E+00 -0.00000000000E+00 -0.35242106692E+03  0.35242106692E+03  0.00000000000E+00 0.  1.
         25    2    1    2    0    0 -0.38876466192E+02 -0.89574820113E+02 -0.17722552021E+03  0.23788691073E+03  0.12508504810E+03 0.  0.
          5    1    3    3  502    0  0.12154297852E+02 -0.10240059564E+03 -0.95579548355E+02  0.14066460610E+03  0.41800000000E+01 0.  1.
         -5    1    3    3    0  502 -0.51030764045E+02  0.12825775530E+02 -0.81645971859E+02  0.97222304631E+02  0.41800000000E+01 0.  1.
        -11    1    1    2    0    0 -0.23606454449E+02  0.94667637636E+00 -0.31970861478E+02  0.39752947960E+02  0.00000000000E+00 0.  1.
         11    1    1    2    0    0  0.62482920641E+02  0.88628143737E+02 -0.82033347314E+02  0.13597254615E+03  0.00000000000E+00 0. -1.
</event>
<event>
 7    1  0.2440960E-009  0.1766196E+03  0.7561462E-02  0.1171115E+00
         -2   -1    0    0    0  501 -0.00000000000E+00  0.00000000000E+00  0.45768864959E+03  0.45768864959E+03  0.00000000000E+00 0. -1.
          2   -1    0    0  501    0  0.00000000000E+00 -0.00000000000E+00 -0.87136258862E+02  0.87136258862E+02  0.00000000000E+00 0.  1.
         25    2    1    2    0    0 -0.15018800869E+03  0.44556935075E+02  0.27193315452E+03  0.33784117151E+03  0.12508900120E+03 0.  0.
          5    1    3    3  502    0 -0.63199476897E+02 -0.40121305739E+02  0.72299056385E+02  0.10415622405E+03  0.41800000000E+01 0. -1.
         -5    1    3    3    0  502 -0.86988531794E+02  0.84678240814E+02  0.19963409814E+03  0.23368494746E+03  0.41800000000E+01 0. -1.
        -11    1    1    2    0    0  0.10136987351E+02 -0.47553004731E+01  0.53348884697E+02  0.54511236397E+02  0.00000000000E+00 0. -1.
         11    1    1    2    0    0  0.14005102134E+03 -0.39801634602E+02  0.45270351506E+02  0.15247250054E+03  0.00000000000E+00 0.  1.
</event>
<event>
 7    1  0.2440960E-009  0.1192744E+03  0.7561462E-02  0.1244299E+00
          1   -1    0    0  501    0  0.00000000000E+00  0.00000000000E+00  0.80209716226E+03  0.80209716226E+03  0.00000000000E+00 0. -1.
         -1   -1    0    0    0  501 -0.00000000000E+00 -0.00000000000E+00 -0.20377087629E+02  0.20377087629E+02  0.00000000000E+00 0.  1.
         25    2    1    2    0    0 -0.17861298931E+01  0.66618983856E+02  0.38982744287E+03  0.41479480795E+03  0.12509203899E+03 0.  0.
          5    1    3    3  502    0  0.32289177259E+02  0.92670854417E+02  0.28513564767E+03  0.30157965481E+03  0.41800000000E+01 0.  1.
         -5    1    3    3    0  502 -0.34075307152E+02 -0.26051870561E+02  0.10469179520E+03  0.11321515314E+03  0.41800000000E+01 0.  1.
        -11    1    1    2    0    0  0.36017539619E+02 -0.27990251259E+02  0.84898227796E+02  0.96376482653E+02  0.00000000000E+00 0.  1.
         11    1    1    2    0    0 -0.34231409726E+02 -0.38628732596E+02  0.30699440397E+03  0.31130295929E+03  0.00000000000E+00 0. -1.
</event>
<event>
 7    1  0.2440960E-009  0.1146333E+03  0.7561462E-02  0.1252223E+00
          1   -1    0    0  501    0  0.00000000000E+00  0.00000000000E+00  0.41350777867E+03  0.41350777867E+03  0.00000000000E+00 0. -1.
         -1   -1    0    0    0  501 -0.00000000000E+00 -0.00000000000E+00 -0.36016646786E+02  0.36016646786E+02  0.00000000000E+00 0.  1.
         25    2    1    2    0    0  0.30292940107E+02  0.46369238256E+02  0.19735019054E+03  0.24012898306E+03  0.12508821816E+03 0.  0.
          5    1    3    3  502    0  0.42817790312E+02 -0.33851015486E+02  0.67226896090E+02  0.86695919019E+02  0.41800000000E+01 0. -1.
         -5    1    3    3    0  502 -0.12524850205E+02  0.80220253743E+02  0.13012329445E+03  0.15343306404E+03  0.41800000000E+01 0. -1.
        -11    1    1    2    0    0 -0.70899320017E+01 -0.63806900135E+02  0.67828854725E+02  0.93393475007E+02  0.00000000000E+00 0. -1.
         11    1    1    2    0    0 -0.23203008105E+02  0.17437661878E+02  0.11231208662E+03  0.11600196739E+03  0.00000000000E+00 0.  1.
</event>
<event>
 7    1  0.2440960E-009  0.1506266E+03  0.7561462E-02  0.1199705E+00
         -2   -1    0    0    0  501 -0.00000000000E+00  0.00000000000E+00  0.26155630477E+03  0.26155630477E+03  0.00000000000E+00 0.  1.
          2   -1    0    0  501    0  0.00000000000E+00 -0.00000000000E+00 -0.90535089613E+02  0.90535089613E+02  0.00000000000E+00 0. -1.
         25    2    1    2    0    0  0.14351985739E+02 -0.10681679137E+03  0.86296288318E+02  0.18630706640E+03  0.12508983652E+03 0.  0.
          5    1    3    3  502    0 -0.55264728867E+02 -0.45984289875E+02  0.45378147727E+02  0.85119879365E+02  0.41800000000E+01 0.  1.
         -5    1    3    3    0  502  0.69616714606E+02 -0.60832501490E+02  0.40918140591E+02  0.10118718703E+03  0.41800000000E+01 0.  1.
        -11    1    1    2    0    0  0.17453641893E+02 -0.67824290007E+01  0.30869418492E+02  0.36104735929E+02  0.00000000000E+00 0.  1.
         11    1    1    2    0    0 -0.31805627632E+02  0.11359922037E+03  0.53855508349E+02  0.12967959206E+03  0.00000000000E+00 0. -1.
</event>
<event>
 7    1  0.2440960E-009  0.7164867E+02  0.7561462E-02  0.1354575E+00
          2   -1    0    0  501    0  0.00000000000E+00  0.00000000000E+00  0.12150202432E+03  0.12150202432E+03  0.00000000000E+00 0. -1.
         -2   -1    0    0    0  501 -0.00000000000E+00 -0.00000000000E+00 -0.91183160048E+02  0.91183160048E+02  0.00000000000E+00 0.  1.
         25    2    1    2    0    0  0.28233112383E+02 -0.31940986078E+02 -0.13638503448E+02  0.13285648529E+03  0.12508997434E+03 0.  0.
          5    1    3    3  502    0 -0.25144788298E+02  0.88942569407E+01 -0.49635353500E+02  0.56502291123E+02  0.41800000000E+01 0.  1.
         -5    1    3    3    0  502  0.53377900681E+02 -0.40835243019E+02  0.35996850052E+02  0.76354194169E+02  0.41800000000E+01 0.  1.
        -11    1    1    2    0    0 -0.18541326111E+02  0.34368617554E+01  0.45937115710E+02  0.49656937002E+02  0.00000000000E+00 0. -1.
         11    1    1    2    0    0 -0.96917862716E+01  0.28504124323E+02 -0.19797479902E+01  0.30171762074E+02  0.00000000000E+00 0.  1.
</event>
<event>
 7    1  0.2440960E-009  0.1027304E+03  0.7561462E-02  0.1274657E+00
         -2   -1    0    0    0  501 -0.00000000000E+00  0.00000000000E+00  0.24993375915E+03  0.24993375915E+03  0.00000000000E+00 0.  1.
          2   -1    0    0  501    0  0.00000000000E+00 -0.00000000000E+00 -0.75350530293E+02  0.75350530293E+02  0.00000000000E+00 0. -1.
         25    2    1    2    0    0  0.47793626864E+02  0.14050878861E+02  0.16093118354E+02  0.13560302876E+03  0.12509010746E+03 0.  0.
          5    1    3    3  502    0 -0.31158037230E+02 -0.27042275427E+02  0.20766000025E+02  0.46376794859E+02  0.41800000000E+01 0.  1.
         -5    1    3    3    0  502  0.78951664094E+02  0.41093154288E+02 -0.46728816708E+01  0.89226233898E+02  0.41800000000E+01 0.  1.
        -11    1    1    2    0    0 -0.41968088260E+02 -0.34059558457E+02  0.15990606066E+03  0.16879372675E+03  0.00000000000E+00 0.  1.
         11    1    1    2    0    0 -0.58255386036E+01  0.20008679595E+02 -0.14159501556E+01  0.20887533938E+02  0.00000000000E+00 0. -1.
</event>
<event>
 7    1  0.2440960E-009  0.1011840E+03  0.7561462E-02  0.1277826E+00
         -1   -1    0    0    0  501 -0.00000000000E+00  0.00000000000E+00  0.28752553123E+03  0.28752553123E+03  0.00000000000E+00 0.  1.
          1   -1    0    0  501    0  0.00000000000E+00 -0.00000000000E+00 -0.45763366595E+02  0.45763366595E+02  0.00000000000E+00 0. -1.
         25    2    1    2    0    0  0.15232223495E+02 -0.44466778646E+02  0.12548735689E+03  0.18331386304E+03  0.12509028981E+03 0.  0.
          5    1    3    3  502    0  0.62540098880E+02 -0.45475668790E+02  0.10756910846E+03  0.13254390184E+03  0.41800000000E+01 0. -1.
         -5    1    3    3    0  502 -0.47307875386E+02  0.10088901433E+01  0.17918248431E+02  0.50769961194E+02  0.41800000000E+01 0. -1.
        -11    1    1    2    0    0 -0.35867688225E+02  0.99683215037E+01  0.13468061030E+02  0.39588472566E+02  0.00000000000E+00 0. -1.
         11    1    1    2    0    0  0.20635464731E+02  0.34498457142E+02  0.10280674671E+03  0.11038656222E+03  0.00000000000E+00 0.  1.
</event>
<event>
 7    1  0.2440960E-009  0.7456822E+02  0.7561462E-02  0.1345213E+00
          4   -1    0    0  501    0  0.00000000000E+00  0.00000000000E+00  0.21302043713E+03  0.21302043713E+03  0.00000000000E+00 0. -1.
         -4   -1    0    0    0  501 -0.00000000000E+00 -0.00000000000E+00 -0.75747950722E+02  0.75747950722E+02  0.00000000000E+00 0.  1.
         25    2    1    2    0    0 -0.23294929991E+02 -0.25027097161E+02  0.14129124096E+03  0.19178027590E+03  0.12508976815E+03 0.  0.
          5    1    3    3  502    0 -0.20636254841E+02  0.11590363979E+02  0.15154009979E+03  0.15343423932E+03  0.41800000000E+01 0.  1.
         -5    1    3    3    0  502 -0.26586751498E+01 -0.36617461140E+02 -0.10248858831E+02  0.38346036578E+02  0.41800000000E+01 0.  1.
        -11    1    1    2    0    0 -0.13431639986E+02  0.44568864026E+02 -0.22218252826E+02  0.51579485767E+02  0.00000000000E+00 0.  1.
         11    1    1    2    0    0  0.36726569977E+02 -0.19541766865E+02  0.18199498271E+02  0.45408626183E+02  0.00000000000E+00 0. -1.
</event>
<event>
 7    1  0.2440960E-009  0.1133795E+03  0.7561462E-02  0.1254436E+00
          1   -1    0    0  501    0  0.00000000000E+00  0.00000000000E+00  0.47352598480E+02  0.47352598480E+02  0.00000000000E+00 0. -1.
         -1   -1    0    0    0  501 -0.00000000000E+00 -0.00000000000E+00 -0.42482529757E+03  0.42482529757E+03  0.00000000000E+00 0.  1.
         25    2    1    2    0    0  0.65676907969E+02  0.50211076597E+02 -0.25401025729E+03  0.29496329510E+03  0.12509007234E+03 0.  0.
          5    1    3    3  502    0 -0.20116908701E+01  0.43647857075E+02 -0.14929145394E+02  0.46363068379E+02  0.41800000000E+01 0.  1.
         -5    1    3    3    0  502  0.67688598839E+02  0.65632195220E+01 -0.23908111189E+03  0.24860022672E+03  0.41800000000E+01 0.  1.
        -11    1    1    2    0    0 -0.21346496056E+02 -0.64670160312E+02 -0.33521731693E+02  0.75905263483E+02  0.00000000000E+00 0. -1.
         11    1    1    2    0    0 -0.44330411913E+02  0.14459083716E+02 -0.89940710113E+02  0.10130933747E+03  0.00000000000E+00 0.  1.
</event>
<event>
 7    1  0.2440960E-009  0.1553401E+03  0.7561462E-02  0.1194060E+00
          1   -1    0    0  501    0  0.00000000000E+00  0.00000000000E+00  0.99912309205E+02  0.99912309205E+02  0.00000000000E+00 0. -1.
         -1   -1    0    0    0  501 -0.00000000000E+00 -0.00000000000E+00 -0.26180799348E+03  0.26180799348E+03  0.00000000000E+00 0.  1.
         25    2    1    2    0    0  0.38947555608E+01  0.11913938054E+03 -0.68187567674E+02  0.18575808875E+03  0.12508861673E+03 0.  0.
          5    1    3    3  502    0 -0.40198615697E+02  0.10949628348E+03 -0.17942625386E+02  0.11808799687E+03  0.41800000000E+01 0.  1.
         -5    1    3    3    0  502  0.44093371258E+02  0.96430970611E+01 -0.50244942289E+02  0.67670091883E+02  0.41800000000E+01 0.  1.
        -11    1    1    2    0    0 -0.15502429062E+02  0.10341071977E+02 -0.81849720784E+01  0.20353300577E+02  0.00000000000E+00 0.  1.
         11    1    1    2    0    0  0.11607673501E+02 -0.12948045251E+03 -0.85523144527E+02  0.15560891336E+03  0.00000000000E+00 0. -1.
</event>
<event>
 7    1  0.2440960E-009  0.1075638E+03  0.7561462E-02  0.1265149E+00
          2   -1    0    0  501    0  0.00000000000E+00  0.00000000000E+00  0.54979275562E+02  0.54979275562E+02  0.00000000000E+00 0. -1.
         -2   -1    0    0    0  501 -0.00000000000E+00 -0.00000000000E+00 -0.27278988818E+03  0.27278988818E+03  0.00000000000E+00 0.  1.
         25    2    1    2    0    0  0.21479522233E+02  0.17761572533E+02 -0.19256816538E+03  0.23131646610E+03  0.12509182961E+03 0.  0.
          5    1    3    3  502    0 -0.49800367225E+02  0.21272086538E+02 -0.61741170362E+02  0.82231519256E+02  0.41800000000E+01 0.  1.
         -5    1    3    3    0  502  0.71279889458E+02 -0.35105140044E+01 -0.13082699502E+03  0.14908494684E+03  0.41800000000E+01 0.  1.
        -11    1    1    2    0    0 -0.39457128665E+02  0.22365048736E+02 -0.26379089937E+02  0.52468245571E+02  0.00000000000E+00 0.  1.
         11    1    1    2    0    0  0.17977606432E+02 -0.40126621270E+02  0.11366426968E+01  0.43984452073E+02  0.00000000000E+00 0. -1.
</event>
<event>
 7    1  0.2446338E-009  0.1438770E+03  0.7561462E-02  0.1208205E+00
          2   -1    0    0  501    0  0.00000000000E+00  0.00000000000E+00  0.13482603072E+03  0.13482603072E+03  0.00000000000E+00 0.  1.
         -2   -1    0    0    0  501 -0.00000000000E+00 -0.00000000000E+00 -0.16114850308E+03  0.16114850308E+03  0.00000000000E+00 0. -1.
         25    2    1    2    0    0 -0.84176996625E+02  0.50839444178E+02 -0.22728996304E+02  0.16073660215E+03  0.12509689105E+03 0.  0.
          5    1    3    3  502    0 -0.31381522004E+02 -0.38077893005E+02 -0.28402237356E+02  0.57086647701E+02  0.41800000000E+01 0.  1.
         -5    1    3    3    0  502 -0.52795474621E+02  0.88917337183E+02  0.56732410521E+01  0.10364995444E+03  0.41800000000E+01 0.  1.
        -11    1    1    2    0    0  0.26222980899E+02  0.27037358899E+02  0.39447357792E+01  0.37871155829E+02  0.00000000000E+00 0.  1.
         11    1    1    2    0    0  0.57954015725E+02 -0.77876803077E+02 -0.75382118401E+01  0.97366775822E+02  0.00000000000E+00 0. -1.
</event>
<event>
 7    1  0.2440960E-009  0.1150488E+03  0.7561462E-02  0.1251496E+00
          1   -1    0    0  501    0  0.00000000000E+00  0.00000000000E+00  0.27510803554E+03  0.27510803554E+03  0.00000000000E+00 0. -1.
         -1   -1    0    0    0  501 -0.00000000000E+00 -0.00000000000E+00 -0.72989530342E+02  0.72989530342E+02  0.00000000000E+00 0.  1.
         25    2    1    2    0    0 -0.60590174438E+02 -0.22933739141E+00  0.19511532135E+03  0.23955548912E+03  0.12508246044E+03 0.  0.
          5    1    3    3  502    0 -0.30136129533E+02  0.59969266783E+02  0.68281785727E+02  0.95835139295E+02  0.41800000000E+01 0.  1.
         -5    1    3    3    0  502 -0.30454044905E+02 -0.60198604174E+02  0.12683353562E+03  0.14372034982E+03  0.41800000000E+01 0.  1.
        -11    1    1    2    0    0  0.77548171513E+02 -0.44241510560E+01 -0.16282397791E+02  0.79362513162E+02  0.00000000000E+00 0.  1.
         11    1    1    2    0    0 -0.16957997076E+02  0.46534884474E+01  0.23285581640E+02  0.29179563599E+02  0.00000000000E+00 0. -1.
</event>
<event>
 7    1  0.2440960E-009  0.9422998E+02  0.7561462E-02  0.1292920E+00
         -1   -1    0    0    0  501 -0.00000000000E+00  0.00000000000E+00  0.21414267078E+03  0.21414267078E+03  0.00000000000E+00 0.  1.
          1   -1    0    0  501    0  0.00000000000E+00 -0.00000000000E+00 -0.57828359764E+02  0.57828359764E+02  0.00000000000E+00 0. -1.
         25    2    1    2    0    0  0.10593222033E+01  0.30138868006E+02  0.86192348635E+02  0.15487259580E+03  0.12508767500E+03 0.  0.
          5    1    3    3  502    0  0.55995290625E+02 -0.93703355853E+01  0.20602292683E+02  0.60540916948E+02  0.41800000000E+01 0. -1.
         -5    1    3    3    0  502 -0.54935968421E+02  0.39509203591E+02  0.65590055952E+02  0.94331678849E+02  0.41800000000E+01 0. -1.
        -11    1    1    2    0    0 -0.17353115106E+02 -0.40750118741E+02 -0.40826061958E-01  0.44291132837E+02  0.00000000000E+00 0. -1.
         11    1    1    2    0    0  0.16293792902E+02  0.10611250734E+02  0.70162788442E+02  0.72807301909E+02  0.00000000000E+00 0.  1.
</event>
<event>
 7    1  0.2440960E-009  0.2738118E+03  0.7561462E-02  0.1099118E+00
          1   -1    0    0  501    0  0.00000000000E+00  0.00000000000E+00  0.82912197391E+03  0.82912197391E+03  0.00000000000E+00 0. -1.
         -1   -1    0    0    0  501 -0.00000000000E+00 -0.00000000000E+00 -0.94712296497E+02  0.94712296497E+02  0.00000000000E+00 0.  1.
         25    2    1    2    0    0 -0.55719161280E+02  0.25470372248E+03  0.38082930617E+03  0.47818229228E+03  0.12509489609E+03 0.  0.
          5    1    3    3  502    0 -0.90367627205E+02  0.13769343601E+03  0.24821450525E+03  0.29791559775E+03  0.41800000000E+01 0. -1.
         -5    1    3    3    0  502  0.34648465925E+02  0.11701028648E+03  0.13261480092E+03  0.18026669453E+03  0.41800000000E+01 0. -1.
        -11    1    1    2    0    0  0.40116056729E+02 -0.17338556318E+03  0.29390531942E+03  0.34358723537E+03  0.00000000000E+00 0.  1.
         11    1    1    2    0    0  0.15603104551E+02 -0.81318159308E+02  0.59675051825E+02  0.10206474276E+03  0.00000000000E+00 0. -1.
</event>
<event>
 7    1  0.2440960E-009  0.2169360E+03  0.7561462E-02  0.1136188E+00
          1   -1    0    0  501    0  0.00000000000E+00  0.00000000000E+00  0.56290165960E+02  0.56290165960E+02  0.00000000000E+00 0. -1.
         -1   -1    0    0    0  501 -0.00000000000E+00 -0.00000000000E+00 -0.10119055731E+04  0.10119055731E+04  0.00000000000E+00 0.  1.
         25    2    1    2    0    0  0.30381360417E+02  0.18518509213E+03 -0.27126758824E+03  0.35277489425E+03  0.12508987240E+03 0.  0.
          5    1    3    3  502    0  0.78288019741E+02  0.93914952284E+02 -0.14998758032E+03  0.19355303910E+03  0.41800000000E+01 0. -1.
         -5    1    3    3    0  502 -0.47906659324E+02  0.91270139845E+02 -0.12128000792E+03  0.15922185515E+03  0.41800000000E+01 0. -1.
        -11    1    1    2    0    0 -0.54946924479E+02 -0.62364227588E+02 -0.28781675142E+03  0.29957794276E+03  0.00000000000E+00 0.  1.
         11    1    1    2    0    0  0.24565564063E+02 -0.12282086454E+03 -0.39653106752E+03  0.41584290209E+03  0.00000000000E+00 0. -1.
</event>
<event>
 7    1  0.2440960E-009  0.1571476E+03  0.7561462E-02  0.1191955E+00
          2   -1    0    0  501    0  0.00000000000E+00  0.00000000000E+00  0.13776808317E+03  0.13776808317E+03  0.00000000000E+00 0. -1.
         -2   -1    0    0    0  501 -0.00000000000E+00 -0.00000000000E+00 -0.20356746523E+03  0.20356746523E+03  0.00000000000E+00 0.  1.
         25    2    1    2    0    0  0.67728460357E+02  0.95306927220E+02  0.16227512828E+02  0.17199288881E+03  0.12509063478E+03 0.  0.
          5    1    3    3  502    0  0.98638693088E+02  0.92339484545E+02 -0.30328467157E+01  0.13521406265E+03  0.41800000000E+01 0.  1.
         -5    1    3    3    0  502 -0.30910232731E+02  0.29674426756E+01  0.19260359544E+02  0.36778826154E+02  0.41800000000E+01 0.  1.
        -11    1    1    2    0    0 -0.64449265046E+02 -0.13421948934E+02 -0.30635891220E+02  0.72611392418E+02  0.00000000000E+00 0.  1.
         11    1    1    2    0    0 -0.32791953111E+01 -0.81884978287E+02 -0.51391003666E+02  0.96731267172E+02  0.00000000000E+00 0. -1.
</event>
<event>
 7    1  0.2901171E-009  0.1029316E+03  0.7561462E-02  0.1274249E+00
          2   -1    0    0  501    0  0.00000000000E+00  0.00000000000E+00  0.21008489746E+03  0.21008489746E+03  0.00000000000E+00 0. -1.
         -2   -1    0    0    0  501 -0.00000000000E+00 -0.00000000000E+00 -0.11612734623E+03  0.11612734623E+03  0.00000000000E+00 0.  1.
         25    2    1    2    0    0 -0.60831645972E+02  0.30879275890E+02  0.14302205034E+03  0.20188389717E+03  0.12509109569E+03 0.  0.
          5    1    3    3  502    0  0.41444347663E+01 -0.38685847892E+02  0.14144878165E+02  0.41609147371E+02  0.41800000000E+01 0. -1.
         -5    1    3    3    0  502 -0.64976080738E+02  0.69565123782E+02  0.12887717217E+03  0.16027474980E+03  0.41800000000E+01 0. -1.
        -11    1    1    2    0    0  0.14014848865E+02  0.21169589835E+01  0.26176416292E+02  0.29767470062E+02  0.00000000000E+00 0. -1.
         11    1    1    2    0    0  0.46816797107E+02 -0.32996234874E+02 -0.75240915403E+02  0.94560876465E+02  0.00000000000E+00 0.  1.
</event>
<event>
 7    1  0.2440960E-009  0.1466583E+03  0.7561462E-02  0.1204640E+00
         -2   -1    0    0    0  501 -0.00000000000E+00  0.00000000000E+00  0.52036775902E+02  0.52036775902E+02  0.00000000000E+00 0.  1.
          2   -1    0    0  501    0  0.00000000000E+00 -0.00000000000E+00 -0.45103604350E+03  0.45103604350E+03  0.00000000000E+00 0. -1.
         25    2    1    2    0    0  0.81296595838E+02  0.65684921443E+02 -0.25017660425E+03  0.29859611741E+03  0.12509061762E+03 0.  0.
          5    1    3    3  502    0  0.12608611442E+01  0.73003388579E+02 -0.16967975393E+03  0.18476952077E+03  0.41800000000E+01 0. -1.
         -5    1    3    3    0  502  0.80035734693E+02 -0.73184671361E+01 -0.80496850327E+02  0.11382659664E+03  0.41800000000E+01 0. -1.
        -11    1    1    2    0    0 -0.79331590209E+02 -0.55370032017E+01 -0.93339447731E+02  0.12262304886E+03  0.00000000000E+00 0.  1.
         11    1    1    2    0    0 -0.19650056281E+01 -0.60147918241E+02 -0.55483215613E+02  0.81853653129E+02  0.00000000000E+00 0. -1.
</event>
<event>
 7    1  0.2440960E-009  0.9992087E+02  0.7561462E-02  0.1280462E+00
          1   -1    0    0  501    0  0.00000000000E+00  0.00000000000E+00  0.35588941134E+03  0.35588941134E+03  0.00000000000E+00 0. -1.
         -1   -1    0    0    0  501 -0.00000000000E+00 -0.00000000000E+00 -0.47802850972E+02  0.47802850972E+02  0.00000000000E+00 0.  1.
         25    2    1    2    0    0 -0.70050478535E+02  0.35853423036E+01  0.16031989303E+03  0.21510413414E+03  0.12508955272E+03 0.  0.
          5    1    3    3  502    0 -0.22886963277E+02 -0.22181084012E+02 -0.12182199089E+02  0.34375746546E+02  0.41800000000E+01 0. -1.
         -5    1    3    3    0  502 -0.47163515258E+02  0.25766426315E+02  0.17250209212E+03  0.18072838759E+03  0.41800000000E+01 0. -1.
        -11    1    1    2    0    0  0.25085408205E+01 -0.37934378943E+02  0.72066439497E+02  0.81479332254E+02  0.00000000000E+00 0. -1.
         11    1    1    2    0    0  0.67541937715E+02  0.34349036640E+02  0.75700227848E+02  0.10710879593E+03  0.00000000000E+00 0.  1.
</event>
<event>
 7    1  0.2440960E-009  0.1328875E+03  0.7561462E-02  0.1223233E+00
          3   -1    0    0  501    0  0.00000000000E+00  0.00000000000E+00  0.18211867567E+03  0.18211867567E+03  0.00000000000E+00 0. -1.
         -3   -1    0    0    0  501 -0.00000000000E+00 -0.00000000000E+00 -0.15486145595E+03  0.15486145595E+03  0.00000000000E+00 0.  1.
         25    2    1    2    0    0  0.57746363546E+02  0.11313548132E+03 -0.33232628767E+01  0.17830570438E+03  0.12509036934E+03 0.  0.
          5    1    3    3  502    0  0.30478912369E+02  0.10135930785E+03  0.49994093426E+02  0.11713050484E+03  0.41800000000E+01 0. -1.
         -5    1    3    3    0  502  0.27267451177E+02  0.11776173473E+02 -0.53317356302E+02  0.61175199537E+02  0.41800000000E+01 0. -1.
        -11    1    1    2    0    0 -0.17335972226E+02 -0.63637546775E+02  0.59229083778E+02  0.88647378178E+02  0.00000000000E+00 0. -1.
         11    1    1    2    0    0 -0.40410391321E+02 -0.49497934547E+02 -0.28648601174E+02  0.70027049062E+02  0.00000000000E+00 0.  1.
</event>
<event>
 7    1  0.2440960E-009  0.1120948E+03  0.7561462E-02  0.1256739E+00
          1   -1    0    0  501    0  0.00000000000E+00  0.00000000000E+00  0.33619759699E+03  0.33619759699E+03  0.00000000000E+00 0. -1.
         -1   -1    0    0    0  501 -0.00000000000E+00 -0.00000000000E+00 -0.53354387213E+02  0.53354387213E+02  0.00000000000E+00 0.  1.
         25    2    1    2    0    0  0.11066887908E+02 -0.63199668930E+02  0.21121329637E+03  0.25372435248E+03  0.12509323051E+03 0.  0.
          5    1    3    3  502    0 -0.29040914054E+02  0.11546249020E+02  0.13811680448E+03  0.14167009083E+03  0.41800000000E+01 0. -1.
         -5    1    3    3    0  502  0.40107801962E+02 -0.74745917950E+02  0.73096491886E+02  0.11205426165E+03  0.41800000000E+01 0. -1.
        -11    1    1    2    0    0 -0.42011022748E+02  0.56516247772E+01  0.52986558578E+01  0.42719347477E+02  0.00000000000E+00 0.  1.
         11    1    1    2    0    0  0.30944134840E+02  0.57548044153E+02  0.66331257556E+02  0.93108284249E+02  0.00000000000E+00 0. -1.
</event>
<event>
 7    1  0.2440960E-009  0.1579564E+03  0.7561462E-02  0.1191023E+00
         -1   -1    0    0    0  501 -0.00000000000E+00  0.00000000000E+00  0.19184602683E+03  0.19184602683E+03  0.00000000000E+00 0.  1.
          1   -1    0    0  501    0  0.00000000000E+00 -0.00000000000E+00 -0.16559791633E+03  0.16559791633E+03  0.00000000000E+00 0. -1.
         25    2    1    2    0    0 -0.10072460112E+02  0.12838807575E+03  0.73333732251E+02  0.19393309992E+03  0.12508900236E+03 0.  0.
          5    1    3    3  502    0  0.14026354774E+02  0.13586779450E+03  0.24536469027E+02  0.13883914046E+03  0.41800000000E+01 0. -1.
         -5    1    3    3    0  502 -0.24098814886E+02 -0.74797187442E+01  0.48797263225E+02  0.55093959466E+02  0.41800000000E+01 0. -1.
        -11    1    1    2    0    0  0.45042406016E+02 -0.95895105832E+02 -0.17587763913E+02  0.10739655070E+03  0.00000000000E+00 0.  1.
         11    1    1    2    0    0 -0.34969945904E+02 -0.32492969922E+02 -0.29497857832E+02  0.56114292542E+02  0.00000000000E+00 0. -1.
</event>
<event>
 7    1  0.2440960E-009  0.1301458E+03  0.7561462E-02  0.1227239E+00
         -1   -1    0    0    0  501 -0.00000000000E+00  0.00000000000E+00  0.15737591222E+03  0.15737591222E+03  0.00000000000E+00 0.  1.
          1   -1    0    0  501    0  0.00000000000E+00 -0.00000000000E+00 -0.38488113891E+03  0.38488113891E+03  0.00000000000E+00 0. -1.
         25    2    1    2    0    0  0.61578153503E+02  0.39957417198E+02  0.11178397331E+03  0.18311711678E+03  0.12509099724E+03 0.  0.
          5    1    3    3  502    0 -0.37612835695E+02  0.22578513944E+02  0.29840711022E+02  0.53220814868E+02  0.41800000000E+01 0. -1.
         -5    1    3    3    0  502  0.99190989198E+02  0.17378903254E+02  0.81943262288E+02  0.12989630191E+03  0.41800000000E+01 0. -1.
        -11    1    1    2    0    0 -0.20997091033E+02  0.28772246761E+02 -0.74398280333E+02  0.82485296460E+02  0.00000000000E+00 0. -1.
         11    1    1    2    0    0 -0.40581062470E+02 -0.68729663959E+02 -0.26489091967E+03  0.27665463788E+03  0.00000000000E+00 0.  1.
</event>
<event>
 7    1  0.2440960E-009  0.1426654E+03  0.7561462E-02  0.1209787E+00
          1   -1    0    0  501    0  0.00000000000E+00  0.00000000000E+00  0.24085652478E+02  0.24085652478E+02  0.00000000000E+00 0. -1.
         -1   -1    0    0    0  501 -0.00000000000E+00 -0.00000000000E+00 -0.10803672038E+04  0.10803672038E+04  0.00000000000E+00 0.  1.
         25    2    1    2    0    0 -0.33551252293E+02 -0.10537020634E+03 -0.71044538992E+03  0.72979958240E+03  0.12508481719E+03 0.  0.
          5    1    3    3  502    0 -0.49869978542E+02 -0.11236253110E+03 -0.39229333178E+03  0.41112514362E+03  0.41800000000E+01 0. -1.
         -5    1    3    3    0  502  0.16318726249E+02  0.69923247594E+01 -0.31815205814E+03  0.31867443878E+03  0.41800000000E+01 0. -1.
        -11    1    1    2    0    0  0.48031589531E+02  0.11637718584E+03 -0.30302770503E+03  0.32814093464E+03  0.00000000000E+00 0.  1.
         11    1    1    2    0    0 -0.14480337239E+02 -0.11006979497E+02 -0.42808456391E+02  0.46512339253E+02  0.00000000000E+00 0. -1.
</event>
<event>
 7    1  0.2440960E-009  0.1593327E+03  0.7561462E-02  0.1189452E+00
         -3   -1    0    0    0  501 -0.00000000000E+00  0.00000000000E+00  0.11524120195E+02  0.11524120195E+02  0.00000000000E+00 0.  1.
          3   -1    0    0  501    0  0.00000000000E+00 -0.00000000000E+00 -0.34164677003E+04  0.34164677003E+04  0.00000000000E+00 0. -1.
         25    2    1    2    0    0 -0.95089279692E+02  0.74414327849E+02 -0.26695659068E+04  0.26752220334E+04  0.12510529071E+03 0.  0.
          5    1    3    3  502    0  0.84777811986E+01 -0.18039295685E+02 -0.10863818570E+03  0.11053061456E+03  0.41800000000E+01 0.  1.
         -5    1    3    3    0  502 -0.10356706089E+03  0.92453623533E+02 -0.25609277211E+04  0.25646914188E+04  0.41800000000E+01 0.  1.
        -11    1    1    2    0    0 -0.16302234281E+02 -0.39403587491E+02 -0.24492454253E+03  0.24860900443E+03  0.00000000000E+00 0. -1.
         11    1    1    2    0    0  0.11139151397E+03 -0.35010740358E+02 -0.49045313080E+03  0.50416078273E+03  0.00000000000E+00 0.  1.
</event>
<event>
 7    1  0.2440960E-009  0.1106540E+03  0.7561462E-02  0.1259364E+00
          2   -1    0    0  501    0  0.00000000000E+00  0.00000000000E+00  0.85884819492E+03  0.85884819492E+03  0.00000000000E+00 0. -1.
         -2   -1    0    0    0  501 -0.00000000000E+00 -0.00000000000E+00 -0.22113348092E+02  0.22113348092E+02  0.00000000000E+00 0.  1.
         25    2    1    2    0    0  0.73159077286E+02 -0.28384676966E+02  0.55980347156E+03  0.57895199767E+03  0.12509016095E+03 0.  0.
          5    1    3    3  502    0  0.77745253541E+02 -0.11752543682E+01  0.53781443673E+03  0.54342207024E+03  0.41800000000E+01 0. -1.
         -5    1    3    3    0  502 -0.45861762547E+01 -0.27209422597E+02  0.21989034833E+02  0.35529927436E+02  0.41800000000E+01 0. -1.
        -11    1    1    2    0    0  0.12395587724E+02  0.27288475557E+02  0.11525904410E+03  0.11909222788E+03  0.00000000000E+00 0.  1.
         11    1    1    2    0    0 -0.85554665010E+02  0.10962014085E+01  0.16167233116E+03  0.18291731746E+03  0.00000000000E+00 0. -1.
</event>
<event>
 7    1  0.2440960E-009  0.1202937E+03  0.7561462E-02  0.1242613E+00
         -1   -1    0    0    0  501 -0.00000000000E+00  0.00000000000E+00  0.42484120657E+02  0.42484120657E+02  0.00000000000E+00 0.  1.
          1   -1    0    0  501    0  0.00000000000E+00 -0.00000000000E+00 -0.38468338135E+03  0.38468338135E+03  0.00000000000E+00 0. -1.
         25    2    1    2    0    0 -0.62891439688E+02  0.11320710652E+02 -0.23366861647E+03  0.27263891945E+03  0.12508983332E+03 0.  0.
          5    1    3    3  502    0 -0.30044750237E+02 -0.53387433487E+02 -0.67402043208E+02  0.91177918927E+02  0.41800000000E+01 0. -1.
         -5    1    3    3    0  502 -0.32846689451E+02  0.64708144139E+02 -0.16626657327E+03  0.18146100052E+03  0.41800000000E+01 0. -1.
        -11    1    1    2    0    0 -0.21328267841E+02 -0.57635929883E+01 -0.85617352359E+01  0.23694246633E+02  0.00000000000E+00 0.  1.
         11    1    1    2    0    0  0.84219707529E+02 -0.55571176632E+01 -0.99968908981E+02  0.13083433592E+03  0.00000000000E+00 0. -1.
</event>
<event>
 7    1  0.2440960E-009  0.1342709E+03  0.7561462E-02  0.1221253E+00
         -1   -1    0    0    0  501 -0.00000000000E+00  0.00000000000E+00  0.63575852977E+03  0.63575852977E+03  0.00000000000E+00 0.  1.
          1   -1    0    0  501    0  0.00000000000E+00 -0.00000000000E+00 -0.31648579917E+02  0.31648579917E+02  0.00000000000E+00 0. -1.
         25    2    1    2    0    0 -0.37550747147E+02  0.54396485806E+02  0.41477811586E+03  0.43824282625E+03  0.12508738180E+03 0.  0.
          5    1    3    3  502    0  0.31142950910E+01 -0.38023127617E+02  0.15009070607E+03  0.15491981641E+03  0.41800000000E+01 0.  1.
         -5    1    3    3    0  502 -0.40665042238E+02  0.92419613423E+02  0.26468740979E+03  0.28332300984E+03  0.41800000000E+01 0.  1.
        -11    1    1    2    0    0  0.33697200172E+02  0.29702239682E+02  0.64892280157E+02  0.78922318552E+02  0.00000000000E+00 0. -1.
         11    1    1    2    0    0  0.38535469741E+01 -0.84098725488E+02  0.12443955384E+03  0.15024196489E+03  0.00000000000E+00 0.  1.
</event>
<event>
 7    1  0.2440960E-009  0.1120656E+03  0.7561462E-02  0.1256792E+00
         -2   -1    0    0    0  501 -0.00000000000E+00  0.00000000000E+00  0.22553303238E+02  0.22553303238E+02  0.00000000000E+00 0. -1.
          2   -1    0    0  501    0  0.00000000000E+00 -0.00000000000E+00 -0.93359855569E+03  0.93359855569E+03  0.00000000000E+00 0.  1.
         25    2    1    2    0    0  0.51402102957E+02  0.56063931759E+02 -0.68595009251E+03  0.70139883956E+03  0.12508981607E+03 0.  0.
          5    1    3    3  502    0  0.59621600267E+01  0.89223211910E+02 -0.39288355755E+03  0.40295321204E+03  0.41800000000E+01 0.  1.
         -5    1    3    3    0  502  0.45439942930E+02 -0.33159280151E+02 -0.29306653496E+03  0.29844562752E+03  0.41800000000E+01 0.  1.
        -11    1    1    2    0    0 -0.41302995745E+02 -0.53848566007E+02 -0.23239187354E+03  0.24209830319E+03  0.00000000000E+00 0.  1.
         11    1    1    2    0    0 -0.10099107212E+02 -0.22153657515E+01  0.72967136098E+01  0.12654716172E+02  0.00000000000E+00 0. -1.
</event>
<event>
 7    1  0.2440960E-009  0.1120052E+03  0.7561462E-02  0.1256901E+00
         -1   -1    0    0    0  501 -0.00000000000E+00  0.00000000000E+00  0.11855710071E+03  0.11855710071E+03  0.00000000000E+00 0.  1.
          1   -1    0    0  501    0  0.00000000000E+00 -0.00000000000E+00 -0.20039414952E+03  0.20039414952E+03  0.00000000000E+00 0. -1.
         25    2    1    2    0    0  0.23239218914E+02 -0.73655102429E+02 -0.12413265871E+03  0.19240881353E+03  0.12508836539E+03 0.  0.
          5    1    3    3  502    0 -0.16339792396E+02 -0.82672867636E+02 -0.29553942584E+02  0.89401900321E+02  0.41800000000E+01 0. -1.
         -5    1    3    3    0  502  0.39579011311E+02  0.90177652069E+01 -0.94578716122E+02  0.10300691321E+03  0.41800000000E+01 0. -1.
        -11    1    1    2    0    0 -0.30445337180E+02  0.63039105162E+01 -0.17941850291E+02  0.35896627080E+02  0.00000000000E+00 0. -1.
         11    1    1    2    0    0  0.72061182661E+01  0.67351191913E+02  0.60237460190E+02  0.90645809626E+02  0.00000000000E+00 0.  1.
</event>
<event>
 7    1  0.2440960E-009  0.1184710E+03  0.7561462E-02  0.1245641E+00
          2   -1    0    0  501    0  0.00000000000E+00  0.00000000000E+00  0.44859254981E+02  0.44859254981E+02  0.00000000000E+00 0. -1.
         -2   -1    0    0    0  501 -0.00000000000E+00 -0.00000000000E+00 -0.43831225846E+03  0.43831225846E+03  0.00000000000E+00 0.  1.
         25    2    1    2    0    0 -0.28873818052E+02 -0.69964458995E+02 -0.31091573491E+03  0.34357891385E+03  0.12509657443E+03 0.  0.
          5    1    3    3  502    0  0.46856329724E+02 -0.46318755455E+02 -0.12397769882E+03  0.14045954914E+03  0.41800000000E+01 0. -1.
         -5    1    3    3    0  502 -0.75730147776E+02 -0.23645703539E+02 -0.18693803609E+03  0.20311936470E+03  0.41800000000E+01 0. -1.
        -11    1    1    2    0    0  0.36686805957E+02  0.21781867633E+02 -0.80058357412E+02  0.90717760557E+02  0.00000000000E+00 0.  1.
         11    1    1    2    0    0 -0.78129879051E+01  0.48182591362E+02 -0.24789111554E+01  0.48874839037E+02  0.00000000000E+00 0. -1.
</event>
<event>
 7    1  0.2440960E-009  0.1295749E+03  0.7561462E-02  0.1228088E+00
         -1   -1    0    0    0  501 -0.00000000000E+00  0.00000000000E+00  0.52898391601E+02  0.52898391601E+02  0.00000000000E+00 0.  1.
          1   -1    0    0  501    0  0.00000000000E+00 -0.00000000000E+00 -0.56383019009E+03  0.56383019009E+03  0.00000000000E+00 0. -1.
         25    2    1    2    0    0  0.96664404051E+02 -0.33212865298E+02 -0.42135458310E+03  0.45125843062E+03  0.12508950826E+03 0.  0.
          5    1    3    3  502    0  0.56758147545E+02 -0.65673134285E+02 -0.13685041758E+03  0.16211094063E+03  0.41800000000E+01 0.  1.
         -5    1    3    3    0  502  0.39906256505E+02  0.32460268988E+02 -0.28450416552E+03  0.28914748999E+03  0.41800000000E+01 0.  1.
        -11    1    1    2    0    0 -0.63779740373E+02 -0.11830160100E+02 -0.62037862561E+01  0.65163601296E+02  0.00000000000E+00 0.  1.
         11    1    1    2    0    0 -0.32884663678E+02  0.45043025397E+02 -0.83373429134E+02  0.10030654977E+03  0.00000000000E+00 0. -1.
</event>
<event>
 7    1  0.2440960E-009  0.1316376E+03  0.7561462E-02  0.1225046E+00
         -1   -1    0    0    0  501 -0.00000000000E+00  0.00000000000E+00  0.42077514299E+02  0.42077514299E+02  0.00000000000E+00 0.  1.
          1   -1    0    0  501    0  0.00000000000E+00 -0.00000000000E+00 -0.48948845973E+03  0.48948845973E+03  0.00000000000E+00 0. -1.
         25    2    1    2    0    0 -0.24658553390E+02  0.91147093313E+02 -0.25137756749E+03  0.29623107522E+03  0.12508529734E+03 0.  0.
          5    1    3    3  502    0  0.42681793343E+02  0.76467924146E+02 -0.13989964729E+03  0.16510137073E+03  0.41800000000E+01 0.  1.
         -5    1    3    3    0  502 -0.67340346733E+02  0.14679169168E+02 -0.11147792021E+03  0.13112970449E+03  0.41800000000E+01 0.  1.
        -11    1    1    2    0    0  0.39876066089E+02 -0.63082453385E+02 -0.60439623251E+02  0.96033559918E+02  0.00000000000E+00 0.  1.
         11    1    1    2    0    0 -0.15217512699E+02 -0.28064639929E+02 -0.13559375468E+03  0.13930133889E+03  0.00000000000E+00 0. -1.
</event>
<event>
 7    1  0.2440960E-009  0.1076982E+03  0.7561462E-02  0.1264893E+00
          4   -1    0    0  501    0  0.00000000000E+00  0.00000000000E+00  0.52147599776E+03  0.52147599776E+03  0.00000000000E+00 0. -1.
         -4   -1    0    0    0  501 -0.00000000000E+00 -0.00000000000E+00 -0.23035950888E+02  0.23035950888E+02  0.00000000000E+00 0.  1.
         25    2    1    2    0    0  0.20069661129E+02 -0.17326043000E+02  0.27700621510E+03  0.30509476197E+03  0.12508951799E+03 0.  0.
          5    1    3    3  502    0 -0.43074987766E+02 -0.39636185696E+02  0.15689937873E+03  0.16751528059E+03  0.41800000000E+01 0.  1.
         -5    1    3    3    0  502  0.63144648894E+02  0.22310142697E+02  0.12010683637E+03  0.13757948137E+03  0.41800000000E+01 0.  1.
        -11    1    1    2    0    0  0.31349475259E+02 -0.79109046626E+01  0.60557351969E+02  0.68648123711E+02  0.00000000000E+00 0.  1.
         11    1    1    2    0    0 -0.51419136388E+02  0.25236947662E+02  0.16087647980E+03  0.17076906297E+03  0.00000000000E+00 0. -1.
</event>
<event>
 7    1  0.2440960E-009  0.1494489E+03  0.7561462E-02  0.1201152E+00
         -1   -1    0    0    0  501 -0.00000000000E+00  0.00000000000E+00  0.19762787199E+02  0.19762787199E+02  0.00000000000E+00 0.  1.
          1   -1    0    0  501    0  0.00000000000E+00 -0.00000000000E+00 -0.17293400820E+04  0.17293400820E+04  0.00000000000E+00 0. -1.
         25    2    1    2    0    0 -0.81898483879E+01  0.14258777465E+03 -0.11365422960E+04  0.11522908764E+04  0.12509007173E+03 0.  0.
          5    1    3    3  502    0  0.23118163592E+02  0.10158569366E+03 -0.10129029162E+04  0.10182553180E+04  0.41800000000E+01 0.  1.
         -5    1    3    3    0  502 -0.31308011980E+02  0.41002080997E+02 -0.12363937982E+03  0.13403555835E+03  0.41800000000E+01 0.  1.
        -11    1    1    2    0    0  0.15023164995E+01 -0.58841737561E+02 -0.97320738901E+02  0.11373624424E+03  0.00000000000E+00 0.  1.
         11    1    1    2    0    0  0.66875318884E+01 -0.83746037092E+02 -0.47571425988E+03  0.48307574858E+03  0.00000000000E+00 0. -1.
</event>
<event>
 7    1  0.2440960E-009  0.9869833E+02  0.7561462E-02  0.1283057E+00
         -1   -1    0    0    0  501 -0.00000000000E+00  0.00000000000E+00  0.79674747263E+02  0.79674747263E+02  0.00000000000E+00 0.  1.
          1   -1    0    0  501    0  0.00000000000E+00 -0.00000000000E+00 -0.18556397142E+03  0.18556397142E+03  0.00000000000E+00 0. -1.
         25    2    1    2    0    0 -0.13909752202E+02  0.50058362306E+02 -0.85041779279E+02  0.15993501118E+03  0.12509109775E+03 0.  0.
          5    1    3    3  502    0  0.39023654898E+01  0.71333149386E+02 -0.12534165673E+01  0.71572970532E+02  0.41800000000E+01 0. -1.
         -5    1    3    3    0  502 -0.17812117692E+02 -0.21274787080E+02 -0.83788362711E+02  0.88362040650E+02  0.41800000000E+01 0. -1.
        -11    1    1    2    0    0  0.26968570160E+01  0.23354894310E+02 -0.20262207814E+02  0.31036771602E+02  0.00000000000E+00 0. -1.
         11    1    1    2    0    0  0.11212895186E+02 -0.73413256616E+02 -0.58523706342E+00  0.74266935899E+02  0.00000000000E+00 0.  1.
</event>
<event>
 7    1  0.2440960E-009  0.9983556E+02  0.7561462E-02  0.1280642E+00
          2   -1    0    0  501    0  0.00000000000E+00  0.00000000000E+00  0.44250020922E+03  0.44250020922E+03  0.00000000000E+00 0. -1.
         -2   -1    0    0    0  501 -0.00000000000E+00 -0.00000000000E+00 -0.54568076178E+02  0.54568076178E+02  0.00000000000E+00 0.  1.
         25    2    1    2    0    0  0.82639970900E+02  0.91782027744E+01  0.32667844112E+03  0.35955735100E+03  0.12509628520E+03 0.  0.
          5    1    3    3  502    0 -0.14435188889E+02 -0.16193538158E+01 -0.32401939530E+01  0.15458597669E+02  0.41800000000E+01 0.  1.
         -5    1    3    3    0  502  0.97075159789E+02  0.10797556590E+02  0.32991863507E+03  0.34409875333E+03  0.41800000000E+01 0.  1.
        -11    1    1    2    0    0 -0.56674673646E+02  0.55421370189E+01  0.82946870163E+02  0.10061270887E+03  0.00000000000E+00 0. -1.
         11    1    1    2    0    0 -0.25965297254E+02 -0.14720339793E+02 -0.21693178241E+02  0.36898225530E+02  0.00000000000E+00 0.  1.
</event>
<event>
 7    1  0.2440960E-009  0.1067312E+03  0.7561462E-02  0.1266746E+00
          2   -1    0    0  501    0  0.00000000000E+00  0.00000000000E+00  0.78864974736E+03  0.78864974736E+03  0.00000000000E+00 0. -1.
         -2   -1    0    0    0  501 -0.00000000000E+00 -0.00000000000E+00 -0.18477222009E+02  0.18477222009E+02  0.00000000000E+00 0.  1.
         25    2    1    2    0    0  0.78898269365E+01 -0.53152036027E+02  0.43068616280E+03  0.45169156623E+03  0.12508921565E+03 0.  0.
          5    1    3    3  502    0  0.31052037341E+02  0.18272420551E+02  0.28915992502E+03  0.29142588253E+03  0.41800000000E+01 0. -1.
         -5    1    3    3    0  502 -0.23162210404E+02 -0.71424456578E+02  0.14152623779E+03  0.16026568370E+03  0.41800000000E+01 0. -1.
        -11    1    1    2    0    0 -0.39073807105E+02  0.58500428215E+02  0.18922332227E+03  0.20187750789E+03  0.00000000000E+00 0.  1.
         11    1    1    2    0    0  0.31183980168E+02 -0.53483921881E+01  0.15026304028E+03  0.15355789524E+03  0.00000000000E+00 0. -1.
</event>
<event>
 7    1  0.2440960E-009  0.1287508E+03  0.7561462E-02  0.1229321E+00
         -1   -1    0    0    0  501 -0.00000000000E+00  0.00000000000E+00  0.59106617852E+02  0.59106617852E+02  0.00000000000E+00 0.  1.
          1   -1    0    0  501    0  0.00000000000E+00 -0.00000000000E+00 -0.36065782842E+03  0.36065782842E+03  0.00000000000E+00 0. -1.
         25    2    1    2    0    0  0.34305207909E+02 -0.61055821969E+02 -0.70716385586E+02  0.15985465118E+03  0.12509213256E+03 0.  0.
          5    1    3    3  502    0  0.73736483440E+02 -0.11272859161E+02 -0.58869113982E+02  0.95116724737E+02  0.41800000000E+01 0. -1.
         -5    1    3    3    0  502 -0.39431275531E+02 -0.49782962809E+02 -0.11847271604E+02  0.64737926445E+02  0.41800000000E+01 0. -1.
        -11    1    1    2    0    0 -0.58372230857E+02  0.55350084559E+01 -0.10434820443E+03  0.11969336415E+03  0.00000000000E+00 0. -1.
         11    1    1    2    0    0  0.24067022948E+02  0.55520813513E+02 -0.12648662054E+03  0.14021643093E+03  0.00000000000E+00 0.  1.
</event>
<event>
 7    1  0.2440960E-009  0.9747882E+02  0.7561462E-02  0.1285689E+00
         -1   -1    0    0    0  501 -0.00000000000E+00  0.00000000000E+00  0.38218049143E+02  0.38218049143E+02  0.00000000000E+00 0.  1.
          1   -1    0    0  501    0  0.00000000000E+00 -0.00000000000E+00 -0.52474681714E+03  0.52474681714E+03  0.00000000000E+00 0. -1.
         25    2    1    2    0    0 -0.68954153303E+02  0.37308269475E+02 -0.17500070351E+03  0.22895264010E+03  0.12508989948E+03 0.  0.
          5    1    3    3  502    0 -0.33132580672E+02  0.15307243586E+02  0.10894439542E+02  0.38317630683E+02  0.41800000000E+01 0.  1.
         -5    1    3    3    0  502 -0.35821572631E+02  0.22001025889E+02 -0.18589514305E+03  0.19063500942E+03  0.41800000000E+01 0.  1.
        -11    1    1    2    0    0  0.55062350712E+02  0.18792177278E+02 -0.11102583499E+03  0.12534649747E+03  0.00000000000E+00 0. -1.
         11    1    1    2    0    0  0.13891802591E+02 -0.56100446753E+02 -0.20050222950E+03  0.20866572871E+03  0.00000000000E+00 0.  1.
</event>
<event>
 7    1  0.2440960E-009  0.1115223E+03  0.7561462E-02  0.1257777E+00
          1   -1    0    0  501    0  0.00000000000E+00  0.00000000000E+00  0.24945596137E+03  0.24945596137E+03  0.00000000000E+00 0. -1.
         -1   -1    0    0    0  501 -0.00000000000E+00 -0.00000000000E+00 -0.67361047166E+02  0.67361047166E+02  0.00000000000E+00 0.  1.
         25    2    1    2    0    0 -0.38887153702E+01 -0.39454183941E+02  0.17075567954E+03  0.21535400152E+03  0.12509232246E+03 0.  0.
          5    1    3    3  502    0  0.46773203017E+02  0.13518818678E+02  0.32119647325E+02  0.58477646355E+02  0.41800000000E+01 0. -1.
         -5    1    3    3    0  502 -0.50661918388E+02 -0.52973002619E+02  0.13863603221E+03  0.15687635516E+03  0.41800000000E+01 0. -1.
        -11    1    1    2    0    0 -0.10033180998E+02 -0.29112926259E+02  0.51837295703E+01  0.31226563188E+02  0.00000000000E+00 0. -1.
         11    1    1    2    0    0  0.13921896369E+02  0.68567110200E+02  0.61555051002E+01  0.70236443835E+02  0.00000000000E+00 0.  1.
</event>
<event>
 7    1  0.2440960E-009  0.1005280E+03  0.7561462E-02  0.1279190E+00
          2   -1    0    0  501    0  0.00000000000E+00  0.00000000000E+00  0.12448640027E+04  0.12448640027E+04  0.00000000000E+00 0. -1.
         -2   -1    0    0    0  501 -0.00000000000E+00 -0.00000000000E+00 -0.35361305915E+02  0.35361305915E+02  0.00000000000E+00 0.  1.
         25    2    1    2    0    0  0.52297191107E+02  0.34119078069E+02  0.10660914815E+04  0.10752200115E+04  0.12509164047E+03 0.  0.
          5    1    3    3  502    0 -0.13895506269E+02  0.21589347051E+02  0.45592624428E+02  0.52491378366E+02  0.41800000000E+01 0.  1.
         -5    1    3    3    0  502  0.66192697376E+02  0.12529731017E+02  0.10204988571E+04  0.10227286331E+04  0.41800000000E+01 0.  1.
        -11    1    1    2    0    0 -0.26602336693E+02 -0.63300964921E+02  0.15055401664E+03  0.16547268174E+03  0.00000000000E+00 0. -1.
         11    1    1    2    0    0 -0.25694854414E+02  0.29181886852E+02 -0.71428013883E+01  0.39532615336E+02  0.00000000000E+00 0.  1.
</event>
<event>
 7    1  0.2440960E-009  0.9636571E+02  0.7561462E-02  0.1288129E+00
          2   -1    0    0  501    0  0.00000000000E+00  0.00000000000E+00  0.14345075634E+03  0.14345075634E+03  0.00000000000E+00 0. -1.
         -2   -1    0    0    0  501 -0.00000000000E+00 -0.00000000000E+00 -0.10122534772E+03  0.10122534772E+03  0.00000000000E+00 0.  1.
         25    2    1    2    0    0  0.51947479164E+02  0.48122617502E+01  0.20711730540E+02  0.13710601128E+03  0.12508950432E+03 0.  0.
          5    1    3    3  502    0 -0.21250657239E+02  0.29680821552E+02 -0.27506637951E+02  0.45898029723E+02  0.41800000000E+01 0. -1.
         -5    1    3    3    0  502  0.73198136403E+02 -0.24868559801E+02  0.48218368491E+02  0.91207981556E+02  0.41800000000E+01 0. -1.
        -11    1    1    2    0    0  0.13203007532E+02 -0.20361378577E+01 -0.24400358831E+02  0.27818029699E+02  0.00000000000E+00 0.  1.
         11    1    1    2    0    0 -0.65150486696E+02 -0.27761238925E+01  0.45914036914E+02  0.79752063085E+02  0.00000000000E+00 0. -1.
</event>
<event>
 7    1  0.3208111E-009  0.1166175E+03  0.7561462E-02  0.1248784E+00
          1   -1    0    0  501    0  0.00000000000E+00  0.00000000000E+00  0.39167873738E+03  0.39167873738E+03  0.00000000000E+00 0.  1.
         -1   -1    0    0    0  501 -0.00000000000E+00 -0.00000000000E+00 -0.51960160481E+02  0.51960160481E+02  0.00000000000E+00 0. -1.
         25    2    1    2    0    0 -0.57913504420E+02 -0.60802604362E+02  0.12565413078E+03  0.19618122693E+03  0.12508869864E+03 0.  0.
          5    1    3    3  502    0  0.30627910377E+02 -0.15288597987E+02  0.78915790832E+02  0.86121916869E+02  0.41800000000E+01 0. -1.
         -5    1    3    3    0  502 -0.88541414798E+02 -0.45514006374E+02  0.46738339949E+02  0.11005931006E+03  0.41800000000E+01 0. -1.
        -11    1    1    2    0    0  0.29904153035E+02 -0.23753285328E+01  0.93943338368E+01  0.31434917888E+02  0.00000000000E+00 0. -1.
         11    1    1    2    0    0  0.28009351385E+02  0.63177932894E+02  0.20467011228E+03  0.21602275304E+03  0.00000000000E+00 0.  1.
</event>
<event>
 7    1  0.2440960E-009  0.1804762E+03  0.7561462E-02  0.1167343E+00
         -2   -1    0    0    0  501 -0.00000000000E+00  0.00000000000E+00  0.26016110218E+03  0.26016110218E+03  0.00000000000E+00 0.  1.
          2   -1    0    0  501    0  0.00000000000E+00 -0.00000000000E+00 -0.14530071547E+03  0.14530071547E+03  0.00000000000E+00 0. -1.
         25    2    1    2    0    0 -0.67783047702E+02  0.14557840399E+03  0.54065198729E+02  0.21061358379E+03  0.12508965864E+03 0.  0.
          5    1    3    3  502    0 -0.26561230915E+02  0.13912121908E+03  0.78594026981E+02  0.16203304004E+03  0.41800000000E+01 0.  1.
         -5    1    3    3    0  502 -0.41221816787E+02  0.64571849102E+01 -0.24528828252E+02  0.48580543756E+02  0.41800000000E+01 0.  1.
        -11    1    1    2    0    0  0.57017940488E+02 -0.36467367920E+02  0.51047890780E+02  0.84775005831E+02  0.00000000000E+00 0.  1.
         11    1    1    2    0    0  0.10765107214E+02 -0.10911103607E+03  0.97472971995E+01  0.11007322803E+03  0.00000000000E+00 0. -1.
</event>
<event>
 7    1  0.2440960E-009  0.1268575E+03  0.7561462E-02  0.1232195E+00
          2   -1    0    0  501    0  0.00000000000E+00  0.00000000000E+00  0.87555119483E+02  0.87555119483E+02  0.00000000000E+00 0. -1.
         -2   -1    0    0    0  501 -0.00000000000E+00 -0.00000000000E+00 -0.26007568595E+03  0.26007568595E+03  0.00000000000E+00 0.  1.
         25    2    1    2    0    0 -0.30116392760E+02  0.63146758197E+02 -0.26071309462E+01  0.14335335237E+03  0.12509546882E+03 0.  0.
          5    1    3    3  502    0 -0.68978112674E+02  0.23003232627E+01  0.10256532154E+02  0.69899501908E+02  0.41800000000E+01 0.  1.
         -5    1    3    3    0  502  0.38861719913E+02  0.60846434934E+02 -0.12863663100E+02  0.73453850458E+02  0.41800000000E+01 0.  1.
        -11    1    1    2    0    0  0.35538482330E+02 -0.83734267712E+02 -0.14804295926E+03  0.17375594696E+03  0.00000000000E+00 0.  1.
         11    1    1    2    0    0 -0.54220895695E+01  0.20587509516E+02 -0.21870476256E+02  0.30521506107E+02  0.00000000000E+00 0. -1.
</event>
<event>
 7    1  0.2440960E-009  0.1424955E+03  0.7561462E-02  0.1210010E+00
          1   -1    0    0  501    0  0.00000000000E+00  0.00000000000E+00  0.10380479188E+03  0.10380479188E+03  0.00000000000E+00 0. -1.
         -1   -1    0    0    0  501 -0.00000000000E+00 -0.00000000000E+00 -0.27773425747E+03  0.27773425747E+03  0.00000000000E+00 0.  1.
         25    2    1    2    0    0 -0.84200116541E+02 -0.85270272902E+02 -0.15113346840E+03  0.22988852633E+03  0.12508689060E+03 0.  0.
          5    1    3    3  502    0  0.17127674526E+02 -0.27803013366E+02 -0.94940169952E+02  0.10048618342E+03  0.41800000000E+01 0. -1.
         -5    1    3    3    0  502 -0.10132779107E+03 -0.57467259536E+02 -0.56193298447E+02  0.12940234291E+03  0.41800000000E+01 0. -1.
        -11    1    1    2    0    0  0.12327989055E+02  0.56926002239E+02 -0.42278811933E+02  0.71972543261E+02  0.00000000000E+00 0.  1.
         11    1    1    2    0    0  0.71872127486E+02  0.28344270663E+02  0.19482814744E+02  0.79677979763E+02  0.00000000000E+00 0. -1.
</event>
<event>
 7    1  0.2440960E-009  0.1097444E+03  0.7561462E-02  0.1261044E+00
         -1   -1    0    0    0  501 -0.00000000000E+00  0.00000000000E+00  0.15736602985E+02  0.15736602985E+02  0.00000000000E+00 0.  1.
          1   -1    0    0  501    0  0.00000000000E+00 -0.00000000000E+00 -0.80179532161E+03  0.80179532161E+03  0.00000000000E+00 0. -1.
         25    2    1    2    0    0 -0.17388929626E+02  0.77503108640E+01 -0.53239682102E+03  0.54722333677E+03  0.12507822784E+03 0.  0.
          5    1    3    3  502    0 -0.60856775457E+02  0.39116058362E+02 -0.32372670882E+03  0.33173795011E+03  0.41800000000E+01 0. -1.
         -5    1    3    3    0  502  0.43467845832E+02 -0.31365747498E+02 -0.20867011220E+03  0.21548538666E+03  0.41800000000E+01 0. -1.
        -11    1    1    2    0    0  0.53965800999E+02 -0.14910469996E+02 -0.14510076218E+03  0.15552768557E+03  0.00000000000E+00 0. -1.
         11    1    1    2    0    0 -0.36576871373E+02  0.71601591316E+01 -0.10856113543E+03  0.11478090226E+03  0.00000000000E+00 0.  1.
</event>
<event>
 7    1  0.2440960E-009  0.8225343E+02  0.7561462E-02  0.1322775E+00
         -4   -1    0    0    0  501 -0.00000000000E+00  0.00000000000E+00  0.61532072151E+02  0.61532072151E+02  0.00000000000E+00 0.  1.
          4   -1    0    0  501    0  0.00000000000E+00 -0.00000000000E+00 -0.27774202298E+03  0.27774202298E+03  0.00000000000E+00 0. -1.
         25    2    1    2    0    0 -0.17819256004E+02 -0.55769087045E+02 -0.17310366982E+03  0.22145195163E+03  0.12509344275E+03 0.  0.
          5    1    3    3  502    0 -0.27909134876E+02 -0.18229247619E+02 -0.17881238220E+03  0.18194110505E+03  0.41800000000E+01 0.  1.
         -5    1    3    3    0  502  0.10089878872E+02 -0.37539839426E+02  0.57087123853E+01  0.39510846573E+02  0.41800000000E+01 0.  1.
        -11    1    1    2    0    0  0.15231315854E+02  0.72907637940E+02 -0.34708005920E+01  0.74562477892E+02  0.00000000000E+00 0.  1.
         11    1    1    2    0    0  0.25879401495E+01 -0.17138550895E+02 -0.39635480421E+02  0.43259665616E+02  0.00000000000E+00 0. -1.
</event>
<event>
 7    1  0.2440960E-009  0.7000409E+02  0.7561462E-02  0.1360079E+00
         -3   -1    0    0    0  501 -0.00000000000E+00  0.00000000000E+00  0.22362912354E+02  0.22362912354E+02  0.00000000000E+00 0.  1.
          3   -1    0    0  501    0  0.00000000000E+00 -0.00000000000E+00 -0.51023891092E+03  0.51023891092E+03  0.00000000000E+00 0. -1.
         25    2    1    2    0    0 -0.76507680938E+01 -0.15930375073E+01 -0.30151478359E+03  0.32652880534E+03  0.12509525960E+03 0.  0.
          5    1    3    3  502    0 -0.22652427564E+02  0.31070152117E+02 -0.28346436718E+03  0.28609090634E+03  0.41800000000E+01 0. -1.
         -5    1    3    3    0  502  0.15001659470E+02 -0.32663189625E+02 -0.18050416405E+02  0.40437899002E+02  0.41800000000E+01 0. -1.
        -11    1    1    2    0    0  0.34634314112E+02  0.11357371529E+02 -0.30308667743E+02  0.47404018210E+02  0.00000000000E+00 0.  1.
         11    1    1    2    0    0 -0.26983546018E+02 -0.97643340217E+01 -0.15605254724E+03  0.15866899973E+03  0.00000000000E+00 0. -1.
</event>
<event>
 7    1  0.2440960E-009  0.9884960E+02  0.7561462E-02  0.1282734E+00
         -1   -1    0    0    0  501 -0.00000000000E+00  0.00000000000E+00  0.45759187891E+03  0.45759187891E+03  0.00000000000E+00 0.  1.
          1   -1    0    0  501    0  0.00000000000E+00 -0.00000000000E+00 -0.27759834497E+02  0.27759834497E+02  0.00000000000E+00 0. -1.
         25    2    1    2    0    0 -0.70066746743E+01 -0.68432219793E+01  0.31507954556E+03  0.33914414895E+03  0.12509080924E+03 0.  0.
          5    1    3    3  502    0  0.52477860718E+02  0.18909863643E+02  0.19191919448E+03  0.19990487343E+03  0.41800000000E+01 0. -1.
         -5    1    3    3    0  502 -0.59484535392E+02 -0.25753085622E+02  0.12316035108E+03  0.13923927552E+03  0.41800000000E+01 0. -1.
        -11    1    1    2    0    0 -0.85286407312E+01 -0.32978001661E+02  0.91310520427E+02  0.97457156982E+02  0.00000000000E+00 0.  1.
         11    1    1    2    0    0  0.15535315406E+02  0.39821223640E+02  0.23441978426E+02  0.48750407480E+02  0.00000000000E+00 0. -1.
</event>
<event>
 7    1  0.2440960E-009  0.1206787E+03  0.7561462E-02  0.1241982E+00
         -2   -1    0    0    0  501 -0.00000000000E+00  0.00000000000E+00  0.44800711948E+02  0.44800711948E+02  0.00000000000E+00 0.  1.
          2   -1    0    0  501    0  0.00000000000E+00 -0.00000000000E+00 -0.88471553766E+03  0.88471553766E+03  0.00000000000E+00 0. -1.
         25    2    1    2    0    0 -0.67255835497E+02 -0.73012986081E+02 -0.72053077541E+03  0.73801534144E+03  0.12509117614E+03 0.  0.
          5    1    3    3  502    0 -0.26476601869E+02 -0.44765715864E+02 -0.64768708737E+03  0.64978536095E+03  0.41800000000E+01 0.  1.
         -5    1    3    3    0  502 -0.40779233628E+02 -0.28247270216E+02 -0.72843688038E+02  0.88229980488E+02  0.41800000000E+01 0.  1.
        -11    1    1    2    0    0  0.81929786102E+02  0.19923645268E+02 -0.36258501935E+02  0.91783007437E+02  0.00000000000E+00 0.  1.
         11    1    1    2    0    0 -0.14673950605E+02  0.53089340813E+02 -0.83125548373E+02  0.99717900733E+02  0.00000000000E+00 0. -1.
</event>
<event>
 7    1  0.2440960E-009  0.1070072E+03  0.7561462E-02  0.1266215E+00
          3   -1    0    0  501    0  0.00000000000E+00  0.00000000000E+00  0.29489239780E+03  0.29489239780E+03  0.00000000000E+00 0. -1.
         -3   -1    0    0    0  501 -0.00000000000E+00 -0.00000000000E+00 -0.41347165952E+02  0.41347165952E+02  0.00000000000E+00 0.  1.
         25    2    1    2    0    0  0.93594272167E+01 -0.11511435987E+02  0.13084231832E+03  0.18162331731E+03  0.12508878883E+03 0.  0.
          5    1    3    3  502    0 -0.63110720762E+01 -0.67279071172E+02  0.75303207448E+02  0.10126375709E+03  0.41800000000E+01 0. -1.
         -5    1    3    3    0  502  0.15670499293E+02  0.55767635185E+02  0.55539110869E+02  0.80359560217E+02  0.41800000000E+01 0. -1.
        -11    1    1    2    0    0  0.82082929297E+01 -0.36341541631E+02  0.26427289779E+02  0.45678062196E+02  0.00000000000E+00 0.  1.
         11    1    1    2    0    0 -0.17567720146E+02  0.47852977618E+02  0.96275623751E+02  0.10893818425E+03  0.00000000000E+00 0. -1.
</event>
<event>
 7    1  0.2440960E-009  0.1521866E+03  0.7561462E-02  0.1197812E+00
          3   -1    0    0  501    0  0.00000000000E+00  0.00000000000E+00  0.44664946195E+03  0.44664946195E+03  0.00000000000E+00 0. -1.
         -3   -1    0    0    0  501 -0.00000000000E+00 -0.00000000000E+00 -0.71952065539E+02  0.71952065539E+02  0.00000000000E+00 0.  1.
         25    2    1    2    0    0  0.91869410538E+02  0.10158027551E+03  0.14555614530E+03  0.23578157106E+03  0.12509123412E+03 0.  0.
          5    1    3    3  502    0  0.10557612707E+03  0.10755045227E+03  0.84603909557E+02  0.17288352236E+03  0.41800000000E+01 0.  1.
         -5    1    3    3    0  502 -0.13706716531E+02 -0.59701767631E+01  0.60952235747E+02  0.62898048707E+02  0.41800000000E+01 0.  1.
        -11    1    1    2    0    0 -0.73803265200E+02 -0.70115826419E+02  0.22416606709E+03  0.24619824675E+03  0.00000000000E+00 0. -1.
         11    1    1    2    0    0 -0.18066145339E+02 -0.31464449087E+02  0.49751840210E+01  0.36621709678E+02  0.00000000000E+00 0.  1.
</event>
<event>
 7    1  0.2440960E-009  0.1642694E+03  0.7561462E-02  0.1183959E+00
         -2   -1    0    0    0  501 -0.00000000000E+00  0.00000000000E+00  0.40402408142E+03  0.40402408142E+03  0.00000000000E+00 0. -1.
          2   -1    0    0  501    0  0.00000000000E+00 -0.00000000000E+00 -0.89331217726E+02  0.89331217726E+02  0.00000000000E+00 0.  1.
         25    2    1    2    0    0  0.80947170675E+02 -0.11160567589E+03  0.25856522780E+03  0.31860903953E+03  0.12508985454E+03 0.  0.
          5    1    3    3  502    0 -0.29533810599E+02 -0.47030950371E+02  0.10334405799E+03  0.11739515741E+03  0.41800000000E+01 0.  1.
         -5    1    3    3    0  502  0.11048098127E+03 -0.64574725520E+02  0.15522116981E+03  0.20121388212E+03  0.41800000000E+01 0.  1.
        -11    1    1    2    0    0 -0.16701405260E+02  0.60363419049E+02 -0.16831953648E+02  0.64853634906E+02  0.00000000000E+00 0.  1.
         11    1    1    2    0    0 -0.64245765415E+02  0.51242256842E+02  0.72959589537E+02  0.10989262471E+03  0.00000000000E+00 0. -1.
</event>
<event>
 7    1  0.2440960E-009  0.9637657E+02  0.7561462E-02  0.1288105E+00
         -1   -1    0    0    0  501 -0.00000000000E+00  0.00000000000E+00  0.24547727633E+03  0.24547727633E+03  0.00000000000E+00 0.  1.
          1   -1    0    0  501    0  0.00000000000E+00 -0.00000000000E+00 -0.11169980828E+03  0.11169980828E+03  0.00000000000E+00 0. -1.
         25    2    1    2    0    0 -0.10788552125E+02 -0.34610775150E+01 -0.62225550494E+02  0.14017073632E+03  0.12508974487E+03 0.  0.
          5    1    3    3  502    0 -0.13772537329E+02 -0.54676384222E+02  0.35489012659E+01  0.56650303409E+02  0.41800000000E+01 0. -1.
         -5    1    3    3    0  502  0.29839852038E+01  0.51215306707E+02 -0.65774451760E+02  0.83520432908E+02  0.41800000000E+01 0. -1.
        -11    1    1    2    0    0  0.45993271034E+02  0.13855194186E+02  0.64160940429E+02  0.80149695340E+02  0.00000000000E+00 0. -1.
         11    1    1    2    0    0 -0.35204718909E+02 -0.10394116671E+02  0.13184207812E+03  0.13685665295E+03  0.00000000000E+00 0.  1.
</event>
<event>
 7    1  0.2440960E-009  0.1289259E+03  0.7561462E-02  0.1229058E+00
         -1   -1    0    0    0  501 -0.00000000000E+00  0.00000000000E+00  0.49324538409E+03  0.49324538409E+03  0.00000000000E+00 0.  1.
          1   -1    0    0  501    0  0.00000000000E+00 -0.00000000000E+00 -0.45770835197E+02  0.45770835197E+02  0.00000000000E+00 0. -1.
         25    2    1    2    0    0 -0.21890013139E+02 -0.10072816386E+03  0.23885314298E+03  0.28866027993E+03  0.12509435490E+03 0.  0.
          5    1    3    3  502    0  0.17859193180E+02 -0.70944681613E+02  0.39652393657E+02  0.83317965367E+02  0.41800000000E+01 0. -1.
         -5    1    3    3    0  502 -0.39749206319E+02 -0.29783482243E+02  0.19920074932E+03  0.20534231456E+03  0.41800000000E+01 0. -1.
        -11    1    1    2    0    0  0.54938981907E+02  0.50620099253E+02  0.14356521900E+03  0.16183837088E+03  0.00000000000E+00 0.  1.
         11    1    1    2    0    0 -0.33048968768E+02  0.50108064603E+02  0.65056186916E+02  0.88517568487E+02  0.00000000000E+00 0. -1.
</event>
<event>
 7    1  0.2440960E-009  0.1612893E+03  0.7561462E-02  0.1187249E+00
          1   -1    0    0  501    0  0.00000000000E+00  0.00000000000E+00  0.14408984206E+03  0.14408984206E+03  0.00000000000E+00 0. -1.
         -1   -1    0    0    0  501 -0.00000000000E+00 -0.00000000000E+00 -0.24289956886E+03  0.24289956886E+03  0.00000000000E+00 0.  1.
         25    2    1    2    0    0  0.12546207984E+03  0.56809587666E+02  0.16625424117E+02  0.18679632228E+03  0.12509355924E+03 0.  0.
          5    1    3    3  502    0  0.19772774462E+02  0.73406867426E+02 -0.91083605751E+01  0.76680932621E+02  0.41800000000E+01 0.  1.
         -5    1    3    3    0  502  0.10568930538E+03 -0.16597279760E+02  0.25733784692E+02  0.11011538966E+03  0.41800000000E+01 0.  1.
        -11    1    1    2    0    0 -0.62476651523E+02 -0.39999732898E+02 -0.81174824542E+01  0.74627100566E+02  0.00000000000E+00 0. -1.
         11    1    1    2    0    0 -0.62985428315E+02 -0.16809854768E+02 -0.10731766846E+03  0.12556598808E+03  0.00000000000E+00 0.  1.
</event>
<event>
 7    1  0.2440960E-009  0.1079911E+03  0.7561462E-02  0.1264336E+00
          2   -1    0    0  501    0  0.00000000000E+00  0.00000000000E+00  0.17718303427E+03  0.17718303427E+03  0.00000000000E+00 0. -1.
         -2   -1    0    0    0  501 -0.00000000000E+00 -0.00000000000E+00 -0.82076536129E+02  0.82076536129E+02  0.00000000000E+00 0.  1.
         25    2    1    2    0    0  0.34384667729E+02 -0.92821932703E+01  0.11933810031E+02  0.13061706902E+03  0.12509971387E+03 0.  0.
          5    1    3    3  502    0  0.75868532871E+02  0.17857075022E+02 -0.46101236297E+01  0.78189737486E+02  0.41800000000E+01 0. -1.
         -5    1    3    3    0  502 -0.41483865142E+02 -0.27139268292E+02  0.16543933660E+02  0.52427331531E+02  0.41800000000E+01 0. -1.
        -11    1    1    2    0    0 -0.60755467349E+02  0.11041191241E+02  0.81375086220E+02  0.10215204048E+03  0.00000000000E+00 0. -1.
         11    1    1    2    0    0  0.26370799620E+02 -0.17589979706E+01  0.17976018943E+01  0.26490460906E+02  0.00000000000E+00 0.  1.
</event>
<event>
 7    1  0.2440960E-009  0.9869048E+02  0.7561462E-02  0.1283074E+00
          4   -1    0    0  501    0  0.00000000000E+00  0.00000000000E+00  0.12262179980E+04  0.12262179980E+04  0.00000000000E+00 0. -1.
         -4   -1    0    0    0  501 -0.00000000000E+00 -0.00000000000E+00 -0.10178050663E+02  0.10178050663E+02  0.00000000000E+00 0.  1.
         25    2    1    2    0    0 -0.13405924715E+02  0.49187308418E+00  0.85920595023E+03  0.86836692085E+03  0.12508510529E+03 0.  0.
          5    1    3    3  502    0 -0.58571888382E+02  0.13806332341E+02  0.24394183193E+03  0.25128941618E+03  0.41800000000E+01 0. -1.
         -5    1    3    3    0  502  0.45165963667E+02 -0.13314459257E+02  0.61526411830E+03  0.61707750467E+03  0.41800000000E+01 0. -1.
        -11    1    1    2    0    0 -0.27074972821E+02 -0.29457157639E+02  0.17397450074E+03  0.17851584019E+03  0.00000000000E+00 0. -1.
         11    1    1    2    0    0  0.40480897536E+02  0.28965284555E+02  0.18285949637E+03  0.18951328763E+03  0.00000000000E+00 0.  1.
</event>
<event>
 7    1  0.2440960E-009  0.2376667E+03  0.7561462E-02  0.1121357E+00
          3   -1    0    0  501    0  0.00000000000E+00  0.00000000000E+00  0.52341586893E+03  0.52341586893E+03  0.00000000000E+00 0. -1.
         -3   -1    0    0    0  501 -0.00000000000E+00 -0.00000000000E+00 -0.26689740919E+03  0.26689740919E+03  0.00000000000E+00 0.  1.
         25    2    1    2    0    0 -0.17643390217E+03  0.11981233320E+03  0.43298375239E+03  0.49860459826E+03  0.12509076125E+03 0.  0.
          5    1    3    3  502    0 -0.18669333938E+03  0.82041118277E+02  0.32534895081E+03  0.38399812532E+03  0.41800000000E+01 0. -1.
         -5    1    3    3    0  502  0.10259437205E+02  0.37771214918E+02  0.10763480158E+03  0.11460647294E+03  0.41800000000E+01 0. -1.
        -11    1    1    2    0    0  0.14971917002E+03 -0.50966129326E+02 -0.11359537803E+03  0.19472361469E+03  0.00000000000E+00 0.  1.
         11    1    1    2    0    0  0.26714732151E+02 -0.68846203869E+02 -0.62869914621E+02  0.96985065167E+02  0.00000000000E+00 0. -1.
</event>
<event>
 7    1  0.2440960E-009  0.9096126E+02  0.7561462E-02  0.1300540E+00
          2   -1    0    0  501    0  0.00000000000E+00  0.00000000000E+00  0.25254586825E+03  0.25254586825E+03  0.00000000000E+00 0. -1.
         -2   -1    0    0    0  501 -0.00000000000E+00 -0.00000000000E+00 -0.70967384556E+02  0.70967384556E+02  0.00000000000E+00 0.  1.
         25    2    1    2    0    0 -0.71501792629E+02  0.21478405511E+02  0.12948615381E+03  0.19490402883E+03  0.12508832149E+03 0.  0.
          5    1    3    3  502    0 -0.43018837466E+02  0.10814310968E+02 -0.15139631363E+02  0.47055823619E+02  0.41800000000E+01 0.  1.
         -5    1    3    3    0  502 -0.28482955163E+02  0.10664094543E+02  0.14462578517E+03  0.14784820521E+03  0.41800000000E+01 0.  1.
        -11    1    1    2    0    0  0.75389255214E+02 -0.41647855731E+02  0.16765685076E+02  0.87744925123E+02  0.00000000000E+00 0. -1.
         11    1    1    2    0    0 -0.38874625853E+01  0.20169450220E+02  0.35326644816E+02  0.40864298862E+02  0.00000000000E+00 0.  1.
</event>
<event>
 7    1  0.2440960E-009  0.1900863E+03  0.7561462E-02  0.1158383E+00
          1   -1    0    0  501    0  0.00000000000E+00  0.00000000000E+00  0.12743697489E+03  0.12743697489E+03  0.00000000000E+00 0. -1.
         -1   -1    0    0    0  501 -0.00000000000E+00 -0.00000000000E+00 -0.32496776284E+03  0.32496776284E+03  0.00000000000E+00 0.  1.
         25    2    1    2    0    0 -0.13616124315E+03  0.10388543707E+03 -0.10929743550E+03  0.23858974590E+03  0.12508824593E+03 0.  0.
          5    1    3    3  502    0 -0.11004804233E+03  0.91179047211E+01 -0.37143334581E+02  0.11657961876E+03  0.41800000000E+01 0.  1.
         -5    1    3    3    0  502 -0.26113200825E+02  0.94767532350E+02 -0.72154100918E+02  0.12201012714E+03  0.41800000000E+01 0.  1.
        -11    1    1    2    0    0  0.10601062716E+03 -0.82021652757E+02 -0.10755821642E+03  0.17185626119E+03  0.00000000000E+00 0.  1.
         11    1    1    2    0    0  0.30150615996E+02 -0.21863784314E+02  0.19324863975E+02  0.41958730642E+02  0.00000000000E+00 0. -1.
</event>
<event>
 7    1  0.2440960E-009  0.1149817E+03  0.7561462E-02  0.1251613E+00
         -2   -1    0    0    0  501 -0.00000000000E+00  0.00000000000E+00  0.12522690920E+03  0.12522690920E+03  0.00000000000E+00 0.  1.
          2   -1    0    0  501    0  0.00000000000E+00 -0.00000000000E+00 -0.24395346979E+03  0.24395346979E+03  0.00000000000E+00 0. -1.
         25    2    1    2    0    0  0.38961854207E+02  0.81144523061E+02 -0.17100640953E+03  0.23020122722E+03  0.12508778200E+03 0.  0.
          5    1    3    3  502    0 -0.86846342568E+01  0.36864947999E+02 -0.15953223680E+03  0.16401967639E+03  0.41800000000E+01 0. -1.
         -5    1    3    3    0  502  0.47646488464E+02  0.44279575062E+02 -0.11474172730E+02  0.66181550831E+02  0.41800000000E+01 0. -1.
        -11    1    1    2    0    0  0.13645835358E+02  0.12991677879E+02  0.17381546919E+02  0.25634170360E+02  0.00000000000E+00 0.  1.
         11    1    1    2    0    0 -0.52607689564E+02 -0.94136200940E+02  0.34898302023E+02  0.11334498142E+03  0.00000000000E+00 0. -1.
</event>
<event>
 7    1  0.2440960E-009  0.1117206E+03  0.7561462E-02  0.1257416E+00
         -1   -1    0    0    0  501 -0.00000000000E+00  0.00000000000E+00  0.42386161504E+02  0.42386161504E+02  0.00000000000E+00 0.  1.
          1   -1    0    0  501    0  0.00000000000E+00 -0.00000000000E+00 -0.31162166442E+03  0.31162166442E+03  0.00000000000E+00 0. -1.
         25    2    1    2    0    0 -0.25117506788E+02 -0.29233939870E+02 -0.13542381484E+03  0.18834208278E+03  0.12509043982E+03 0.  0.
          5    1    3    3  502    0 -0.70732724952E+02 -0.40342265382E+02 -0.68528661162E+02  0.10650946698E+03  0.41800000000E+01 0.  1.
         -5    1    3    3    0  502  0.45615218164E+02  0.11108325512E+02 -0.66895153676E+02  0.81832615803E+02  0.41800000000E+01 0.  1.
        -11    1    1    2    0    0  0.57628111552E+02  0.19406209361E+02 -0.10400963816E+03  0.12048072474E+03  0.00000000000E+00 0. -1.
         11    1    1    2    0    0 -0.32510604764E+02  0.98277305087E+01 -0.29802049918E+02  0.45185018406E+02  0.00000000000E+00 0.  1.
</event>
<event>
 7    1  0.2440960E-009  0.2184940E+03  0.7561462E-02  0.1135011E+00
         -2   -1    0    0    0  501 -0.00000000000E+00  0.00000000000E+00  0.77758218722E+02  0.77758218722E+02  0.00000000000E+00 0.  1.
          2   -1    0    0  501    0  0.00000000000E+00 -0.00000000000E+00 -0.71020660707E+03  0.71020660707E+03  0.00000000000E+00 0. -1.
         25    2    1    2    0    0  0.17753823011E+03 -0.10496003140E+03 -0.37189615923E+03  0.44327265727E+03  0.12508982408E+03 0.  0.
          5    1    3    3  502    0  0.12347381753E+03 -0.23838648826E+02 -0.28913189769E+03  0.31532331257E+03  0.41800000000E+01 0.  1.
         -5    1    3    3    0  502  0.54064412575E+02 -0.81121382576E+02 -0.82764261546E+02  0.12794934469E+03  0.41800000000E+01 0.  1.
        -11    1    1    2    0    0 -0.74377342479E+02  0.13234225386E+02 -0.14957934182E+03  0.16757420235E+03  0.00000000000E+00 0. -1.
         11    1    1    2    0    0 -0.10316088763E+03  0.91725806016E+02 -0.11097288730E+03  0.17711796617E+03  0.00000000000E+00 0.  1.
</event>
<event>
 7    1  0.2440960E-009  0.9423283E+02  0.7561462E-02  0.1292913E+00
          1   -1    0    0  501    0  0.00000000000E+00  0.00000000000E+00  0.52495722917E+03  0.52495722917E+03  0.00000000000E+00 0. -1.
         -1   -1    0    0    0  501 -0.00000000000E+00 -0.00000000000E+00 -0.52662710774E+02  0.52662710774E+02  0.00000000000E+00 0.  1.
         25    2    1    2    0    0  0.21043400299E+02  0.70268709694E+02  0.73877949087E+02  0.16273732107E+03  0.12507984669E+03 0.  0.
          5    1    3    3  502    0  0.51439605755E+01  0.26636403165E+01  0.90843154737E+02  0.91123578029E+02  0.41800000000E+01 0. -1.
         -5    1    3    3    0  502  0.15899439724E+02  0.67605069378E+02 -0.16965205650E+02  0.71613743038E+02  0.41800000000E+01 0. -1.
        -11    1    1    2    0    0 -0.80749813876E+01 -0.88779266390E+02  0.26571921661E+03  0.28027426843E+03  0.00000000000E+00 0. -1.
         11    1    1    2    0    0 -0.12968418912E+02  0.18510556696E+02  0.13269735270E+03  0.13460835045E+03  0.00000000000E+00 0.  1.
</event>
<event>
 7    1  0.2440960E-009  0.2954900E+03  0.7561462E-02  0.1087517E+00
          3   -1    0    0  501    0  0.00000000000E+00  0.00000000000E+00  0.51127270926E+03  0.51127270926E+03  0.00000000000E+00 0. -1.
         -3   -1    0    0    0  501 -0.00000000000E+00 -0.00000000000E+00 -0.19530243206E+03  0.19530243206E+03  0.00000000000E+00 0.  1.
         25    2    1    2    0    0 -0.79645872382E+02 -0.28407264485E+03  0.19081811927E+03  0.37296503889E+03  0.12510249017E+03 0.  0.
          5    1    3    3  502    0 -0.25095617886E+02 -0.84599533240E+02 -0.45311734902E+01  0.88458323490E+02  0.41800000000E+01 0. -1.
         -5    1    3    3    0  502 -0.54550254496E+02 -0.19947311162E+03  0.19534929276E+03  0.28450671540E+03  0.41800000000E+01 0. -1.
        -11    1    1    2    0    0  0.60077830856E+01  0.51416530628E+02  0.63470212339E+02  0.81903729670E+02  0.00000000000E+00 0. -1.
         11    1    1    2    0    0  0.73638089297E+02  0.23265611423E+03  0.61681945587E+02  0.25170637277E+03  0.00000000000E+00 0.  1.
</event>
<event>
 7    1  0.2440960E-009  0.2436834E+03  0.7561462E-02  0.1117363E+00
          2   -1    0    0  501    0  0.00000000000E+00  0.00000000000E+00  0.16809969458E+04  0.16809969458E+04  0.00000000000E+00 0. -1.
         -2   -1    0    0    0  501 -0.00000000000E+00 -0.00000000000E+00 -0.44217173668E+02  0.44217173668E+02  0.00000000000E+00 0.  1.
         25    2    1    2    0    0 -0.22042421830E+03 -0.90167054624E+02  0.59902976500E+03  0.65665820633E+03  0.12508559804E+03 0.  0.
          5    1    3    3  502    0 -0.21174761152E+03 -0.63923157484E+02  0.58489183812E+03  0.62533123682E+03  0.41800000000E+01 0. -1.
         -5    1    3    3    0  502 -0.86766067795E+01 -0.26243897140E+02  0.14137926881E+02  0.31326969512E+02  0.41800000000E+01 0. -1.
        -11    1    1    2    0    0  0.57347255395E+02  0.21588396491E+02  0.12986961765E+03  0.14359973591E+03  0.00000000000E+00 0.  1.
         11    1    1    2    0    0  0.16307696291E+03  0.68578658133E+02  0.90788038948E+03  0.92495617722E+03  0.00000000000E+00 0. -1.
</event>
<event>
 7    1  0.2440960E-009  0.9010515E+02  0.7561462E-02  0.1302597E+00
          1   -1    0    0  501    0  0.00000000000E+00  0.00000000000E+00  0.25345014454E+03  0.25345014454E+03  0.00000000000E+00 0. -1.
         -1   -1    0    0    0  501 -0.00000000000E+00 -0.00000000000E+00 -0.56269101042E+02  0.56269101042E+02  0.00000000000E+00 0.  1.
         25    2    1    2    0    0  0.50660616049E+02 -0.16167336093E+02  0.12150869781E+03  0.18231901006E+03  0.12509187428E+03 0.  0.
          5    1    3    3  502    0  0.15508245997E+01 -0.32174947805E+02 -0.15387396220E+02  0.35942686122E+02  0.41800000000E+01 0.  1.
         -5    1    3    3    0  502  0.49109791449E+02  0.16007611712E+02  0.13689609403E+03  0.14637632394E+03  0.41800000000E+01 0.  1.
        -11    1    1    2    0    0 -0.50344707247E+02  0.44728034689E+02  0.72027746813E+02  0.98606201356E+02  0.00000000000E+00 0.  1.
         11    1    1    2    0    0 -0.31590880213E+00 -0.28560698596E+02  0.36445988777E+01  0.28794034168E+02  0.00000000000E+00 0. -1.
</event>
<event>
 7    1  0.2440960E-009  0.8565926E+02  0.7561462E-02  0.1313717E+00
         -2   -1    0    0    0  501 -0.00000000000E+00  0.00000000000E+00  0.22328248620E+03  0.22328248620E+03  0.00000000000E+00 0. -1.
          2   -1    0    0  501    0  0.00000000000E+00 -0.00000000000E+00 -0.11025813099E+03  0.11025813099E+03  0.00000000000E+00 0.  1.
         25    2    1    2    0    0 -0.44364090394E+02  0.47743747752E+02  0.15836080255E+03  0.21206736066E+03  0.12508710448E+03 0.  0.
          5    1    3    3  502    0 -0.50262162011E+02  0.68782842075E+01  0.27050647197E+01  0.50974361190E+02  0.41800000000E+01 0.  1.
         -5    1    3    3    0  502  0.58980716163E+01  0.40865463545E+02  0.15565573783E+03  0.16109299947E+03  0.41800000000E+01 0.  1.
        -11    1    1    2    0    0  0.21602504808E+02 -0.51499365906E+02 -0.68769908090E+02  0.88589802807E+02  0.00000000000E+00 0.  1.
         11    1    1    2    0    0  0.22761585587E+02  0.37556181536E+01  0.23433460748E+02  0.32883453723E+02  0.00000000000E+00 0. -1.
</event>
<event>
 7    1  0.2440960E-009  0.9423449E+02  0.7561462E-02  0.1292910E+00
         -4   -1    0    0    0  501 -0.00000000000E+00  0.00000000000E+00  0.16071790531E+03  0.16071790531E+03  0.00000000000E+00 0.  1.
          4   -1    0    0  501    0  0.00000000000E+00 -0.00000000000E+00 -0.10608896191E+03  0.10608896191E+03  0.00000000000E+00 0. -1.
         25    2    1    2    0    0 -0.26131864187E+02 -0.43583410131E+02  0.81841754834E+02  0.15788938773E+03  0.12509435623E+03 0.  0.
          5    1    3    3  502    0  0.23867601988E+02 -0.23344657425E+02 -0.22416006385E+02  0.40430003676E+02  0.41800000000E+01 0. -1.
         -5    1    3    3    0  502 -0.49999466176E+02 -0.20238752706E+02  0.10425776122E+03  0.11745938406E+03  0.41800000000E+01 0. -1.
        -11    1    1    2    0    0  0.49524018291E+01  0.68124115798E+02 -0.28438888922E+01  0.68363068547E+02  0.00000000000E+00 0.  1.
         11    1    1    2    0    0  0.21179462358E+02 -0.24540705666E+02 -0.24368922549E+02  0.40554410939E+02  0.00000000000E+00 0. -1.
</event>
<event>
 7    1  0.2440960E-009  0.6374120E+02  0.7561462E-02  0.1382770E+00
          1   -1    0    0  501    0  0.00000000000E+00  0.00000000000E+00  0.18311134689E+04  0.18311134689E+04  0.00000000000E+00 0. -1.
         -1   -1    0    0    0  501 -0.00000000000E+00 -0.00000000000E+00 -0.23713843767E+02  0.23713843767E+02  0.00000000000E+00 0.  1.
         25    2    1    2    0    0  0.43355487034E+02  0.13148720757E+02  0.17082692559E+04  0.17134418572E+04  0.12508621149E+03 0.  0.
          5    1    3    3  502    0  0.27563118775E+02  0.36956561145E+01  0.16746560457E+04  0.16748921539E+04  0.41800000000E+01 0. -1.
         -5    1    3    3    0  502  0.15792368259E+02  0.94530646427E+01  0.33613210220E+02  0.38549703341E+02  0.41800000000E+01 0. -1.
        -11    1    1    2    0    0 -0.26954331923E+02 -0.40467248324E+02  0.98119066528E+02  0.10950564101E+03  0.00000000000E+00 0. -1.
         11    1    1    2    0    0 -0.16401155112E+02  0.27318527567E+02  0.10113027358E+01  0.31879814470E+02  0.00000000000E+00 0.  1.
</event>
<event>
 7    1  0.2440960E-009  0.8579802E+02  0.7561462E-02  0.1313359E+00
         -2   -1    0    0    0  501 -0.00000000000E+00  0.00000000000E+00  0.26774211706E+03  0.26774211706E+03  0.00000000000E+00 0.  1.
          2   -1    0    0  501    0  0.00000000000E+00 -0.00000000000E+00 -0.62705014370E+02  0.62705014370E+02  0.00000000000E+00 0. -1.
         25    2    1    2    0    0  0.28699623588E+02  0.60585869061E+02  0.14159722860E+03  0.20047847252E+03  0.12509007503E+03 0.  0.
          5    1    3    3  502    0 -0.16274146856E+02  0.18594734517E+02 -0.17019500661E+02  0.30294352781E+02  0.41800000000E+01 0. -1.
         -5    1    3    3    0  502  0.44973770444E+02  0.41991134544E+02  0.15861672926E+03  0.17018411974E+03  0.41800000000E+01 0. -1.
        -11    1    1    2    0    0 -0.39638447222E+02 -0.23241938641E+02  0.76229676813E+02  0.89007627971E+02  0.00000000000E+00 0.  1.
         11    1    1    2    0    0  0.10938823633E+02 -0.37343930420E+02 -0.12789802728E+02  0.40961030938E+02  0.00000000000E+00 0. -1.
</event>
<event>
 7    1  0.2440960E-009  0.4714842E+02  0.7561462E-02  0.1461358E+00
          2   -1    0    0  501    0  0.00000000000E+00  0.00000000000E+00  0.41642745686E+03  0.41642745686E+03  0.00000000000E+00 0. -1.
         -2   -1    0    0    0  501 -0.00000000000E+00 -0.00000000000E+00 -0.30122473820E+02  0.30122473820E+02  0.00000000000E+00 0.  1.
         25    2    1    2    0    0 -0.28909499259E+02  0.59581010480E+01  0.24357297013E+03  0.27540551881E+03  0.12509656230E+03 0.  0.
          5    1    3    3  502    0 -0.13851792410E+02 -0.10168129293E+02  0.25109987985E+03  0.25172184066E+03  0.41800000000E+01 0.  1.
         -5    1    3    3    0  502 -0.15057706849E+02  0.16126230340E+02 -0.75269097246E+01  0.23683678146E+02  0.41800000000E+01 0.  1.
        -11    1    1    2    0    0  0.19399543146E+02 -0.25725774444E+02  0.14550847165E+03  0.14903312742E+03  0.00000000000E+00 0. -1.
         11    1    1    2    0    0  0.95099561134E+01  0.19767673396E+02 -0.27764587436E+01  0.22111284447E+02  0.00000000000E+00 0.  1.
</event>
<event>
 7    1  0.2440960E-009  0.9701719E+02  0.7561462E-02  0.1286696E+00
          2   -1    0    0  501    0  0.00000000000E+00  0.00000000000E+00  0.12061742883E+04  0.12061742883E+04  0.00000000000E+00 0. -1.
         -2   -1    0    0    0  501 -0.00000000000E+00 -0.00000000000E+00 -0.98497432363E+01  0.98497432363E+01  0.00000000000E+00 0.  1.
         25    2    1    2    0    0  0.59237741192E+01  0.17226789621E+02  0.86834697217E+03  0.87750045349E+03  0.12509487769E+03 0.  0.
          5    1    3    3  502    0 -0.50946015603E+02  0.18407904762E+02  0.63355392493E+03  0.63587923040E+03  0.41800000000E+01 0. -1.
         -5    1    3    3    0  502  0.56869789722E+02 -0.11811151412E+01  0.23479304724E+03  0.24162122310E+03  0.41800000000E+01 0. -1.
        -11    1    1    2    0    0 -0.42903713622E+02 -0.28712221475E+01  0.19857480774E+03  0.20317708244E+03  0.00000000000E+00 0. -1.
         11    1    1    2    0    0  0.36979939503E+02 -0.14355567473E+02  0.12940276518E+03  0.13534649563E+03  0.00000000000E+00 0.  1.
</event>
<event>
 7    1  0.2440960E-009  0.1091865E+03  0.7561462E-02  0.1262084E+00
          3   -1    0    0  501    0  0.00000000000E+00  0.00000000000E+00  0.16494125000E+03  0.16494125000E+03  0.00000000000E+00 0. -1.
         -3   -1    0    0    0  501 -0.00000000000E+00 -0.00000000000E+00 -0.94805360639E+02  0.94805360639E+02  0.00000000000E+00 0.  1.
         25    2    1    2    0    0 -0.12355305283E+02  0.57804281010E+02  0.69879030422E+02  0.15499995629E+03  0.12509164275E+03 0.  0.
          5    1    3    3  502    0  0.25984331147E+02  0.76952741305E+02  0.11019701700E+02  0.82072017674E+02  0.41800000000E+01 0. -1.
         -5    1    3    3    0  502 -0.38339636431E+02 -0.19148460295E+02  0.58859328722E+02  0.72927938617E+02  0.41800000000E+01 0. -1.
        -11    1    1    2    0    0  0.43230728854E+02 -0.33454015313E+02 -0.22727693517E+02  0.59199789783E+02  0.00000000000E+00 0.  1.
         11    1    1    2    0    0 -0.30875423570E+02 -0.24350265697E+02  0.22984552460E+02  0.45546864567E+02  0.00000000000E+00 0. -1.
</event>
<event>
 7    1  0.2440960E-009  0.1364874E+03  0.7561462E-02  0.1218135E+00
          2   -1    0    0  501    0  0.00000000000E+00  0.00000000000E+00  0.81028134427E+03  0.81028134427E+03  0.00000000000E+00 0. -1.
         -2   -1    0    0    0  501 -0.00000000000E+00 -0.00000000000E+00 -0.25332268404E+02  0.25332268404E+02  0.00000000000E+00 0.  1.
         25    2    1    2    0    0  0.70643838047E+02  0.46132289052E+02  0.54072039719E+03  0.56137766256E+03  0.12509033589E+03 0.  0.
          5    1    3    3  502    0  0.22571817122E+02  0.84433334693E+02  0.35856076024E+03  0.36908232973E+03  0.41800000000E+01 0.  1.
         -5    1    3    3    0  502  0.48072020925E+02 -0.38301045641E+02  0.18215963695E+03  0.19229533282E+03  0.41800000000E+01 0.  1.
        -11    1    1    2    0    0  0.27710421732E+01 -0.50262793995E+02  0.83767896332E+02  0.97729665868E+02  0.00000000000E+00 0.  1.
         11    1    1    2    0    0 -0.73414880220E+02  0.41305049430E+01  0.16046078235E+03  0.17650628425E+03  0.00000000000E+00 0. -1.
</event>
<event>
 7    1  0.2440960E-009  0.1024854E+03  0.7561462E-02  0.1275155E+00
         -1   -1    0    0    0  501 -0.00000000000E+00  0.00000000000E+00  0.12210485101E+03  0.12210485101E+03  0.00000000000E+00 0.  1.
          1   -1    0    0  501    0  0.00000000000E+00 -0.00000000000E+00 -0.16843072626E+03  0.16843072626E+03  0.00000000000E+00 0. -1.
         25    2    1    2    0    0 -0.20334046276E+02  0.43288109204E+02 -0.10784770031E+03  0.17195224197E+03  0.12509641570E+03 0.  0.
          5    1    3    3  502    0  0.35161012848E+02 -0.13028839205E+02  0.53104247241E+00  0.37733299374E+02  0.41800000000E+01 0. -1.
         -5    1    3    3    0  502 -0.55495059124E+02  0.56316948409E+02 -0.10837874278E+03  0.13421894260E+03  0.41800000000E+01 0. -1.
        -11    1    1    2    0    0 -0.19868332439E+02 -0.43543834116E+02  0.34947817826E+01  0.47989890843E+02  0.00000000000E+00 0. -1.
         11    1    1    2    0    0  0.40202378715E+02  0.25572491168E+00  0.58027043267E+02  0.70593444454E+02  0.00000000000E+00 0.  1.
</event>
<event>
 7    1  0.2440960E-009  0.1231903E+03  0.7561462E-02  0.1237925E+00
         -1   -1    0    0    0  501 -0.00000000000E+00  0.00000000000E+00  0.40764095127E+03  0.40764095127E+03  0.00000000000E+00 0.  1.
          1   -1    0    0  501    0  0.00000000000E+00 -0.00000000000E+00 -0.55657586914E+02  0.55657586914E+02  0.00000000000E+00 0. -1.
         25    2    1    2    0    0 -0.26621703034E+01 -0.71178161535E+02  0.72587973554E+02  0.16121466228E+03  0.12509090933E+03 0.  0.
          5    1    3    3  502    0  0.45286212338E+02  0.61946066346E+01  0.48896861060E+02  0.67064070864E+02  0.41800000000E+01 0.  1.
         -5    1    3    3    0  502 -0.47948382642E+02 -0.77372768170E+02  0.23691112493E+02  0.94150591413E+02  0.41800000000E+01 0.  1.
        -11    1    1    2    0    0  0.54363514869E+01  0.90086277944E+02  0.18582344237E+03  0.20658035513E+03  0.00000000000E+00 0. -1.
         11    1    1    2    0    0 -0.27741811836E+01 -0.18908116409E+02  0.93571948434E+02  0.95503520779E+02  0.00000000000E+00 0.  1.
</event>
<event>
 7    1  0.2440960E-009  0.1163175E+03  0.7561462E-02  0.1249299E+00
         -1   -1    0    0    0  501 -0.00000000000E+00  0.00000000000E+00  0.15632430952E+03  0.15632430952E+03  0.00000000000E+00 0.  1.
          1   -1    0    0  501    0  0.00000000000E+00 -0.00000000000E+00 -0.11713717005E+03  0.11713717005E+03  0.00000000000E+00 0. -1.
         25    2    1    2    0    0  0.65206951229E+02 -0.12398679006E+00  0.44416597777E+01  0.14113449185E+03  0.12508898667E+03 0.  0.
          5    1    3    3  502    0 -0.14719154311E+02  0.21151409321E+02 -0.39528184220E+02  0.47370722684E+02  0.41800000000E+01 0.  1.
         -5    1    3    3    0  502  0.79926105540E+02 -0.21275396111E+02  0.43969843997E+02  0.93763769163E+02  0.41800000000E+01 0.  1.
        -11    1    1    2    0    0  0.22232598279E+02  0.24357894935E+02 -0.48404048347E+01  0.33332041505E+02  0.00000000000E+00 0.  1.
         11    1    1    2    0    0 -0.87439549508E+02 -0.24233908145E+02  0.39585884532E+02  0.98994946216E+02  0.00000000000E+00 0. -1.
</event>
<event>
 7    1  0.2440960E-009  0.1324695E+03  0.7561462E-02  0.1223837E+00
         -1   -1    0    0    0  501 -0.00000000000E+00  0.00000000000E+00  0.19158078827E+03  0.19158078827E+03  0.00000000000E+00 0.  1.
          1   -1    0    0  501    0  0.00000000000E+00 -0.00000000000E+00 -0.15458888088E+03  0.15458888088E+03  0.00000000000E+00 0. -1.
         25    2    1    2    0    0 -0.91092018798E+02 -0.39139276565E+02  0.10682184564E+03  0.19206086728E+03  0.12508729423E+03 0.  0.
          5    1    3    3  502    0  0.44105299722E+01  0.23399347782E+02 -0.12208769224E+02  0.27083365692E+02  0.41800000000E+01 0. -1.
         -5    1    3    3    0  502 -0.95502548770E+02 -0.62538624347E+02  0.11903061486E+03  0.16497750159E+03  0.41800000000E+01 0. -1.
        -11    1    1    2    0    0  0.10505697279E+03  0.28159437132E+02 -0.78700877765E+02  0.13425255898E+03  0.00000000000E+00 0. -1.
         11    1    1    2    0    0 -0.13964953994E+02  0.10979839433E+02  0.88709395194E+01  0.19856242897E+02  0.00000000000E+00 0.  1.
</event>
<event>
 7    1  0.2440960E-009  0.1011321E+03  0.7561462E-02  0.1277933E+00
          1   -1    0    0  501    0  0.00000000000E+00  0.00000000000E+00  0.61217379472E+02  0.61217379472E+02  0.00000000000E+00 0. -1.
         -1   -1    0    0    0  501 -0.00000000000E+00 -0.00000000000E+00 -0.31656552853E+03  0.31656552853E+03  0.00000000000E+00 0.  1.
         25    2    1    2    0    0  0.16901568166E+01  0.59532066672E+02 -0.22359899307E+03  0.26304191376E+03  0.12509042770E+03 0.  0.
          5    1    3    3  502    0 -0.47842029768E+02  0.72095851930E+02 -0.12792594704E+03  0.15449657602E+03  0.41800000000E+01 0. -1.
         -5    1    3    3    0  502  0.49532186584E+02 -0.12563785259E+02 -0.95673046030E+02  0.10854533774E+03  0.41800000000E+01 0. -1.
        -11    1    1    2    0    0  0.11296040606E+02 -0.31731426433E+02 -0.62689827278E+02  0.71165289299E+02  0.00000000000E+00 0.  1.
         11    1    1    2    0    0 -0.12986197423E+02 -0.27800640238E+02  0.30940671289E+02  0.43575704939E+02  0.00000000000E+00 0. -1.
</event>
<event>
 7    1  0.2440960E-009  0.1078985E+03  0.7561462E-02  0.1264512E+00
          2   -1    0    0  501    0  0.00000000000E+00  0.00000000000E+00  0.36356323272E+02  0.36356323272E+02  0.00000000000E+00 0. -1.
         -2   -1    0    0    0  501 -0.00000000000E+00 -0.00000000000E+00 -0.34744470571E+03  0.34744470571E+03  0.00000000000E+00 0.  1.
         25    2    1    2    0    0  0.50040059664E+01  0.27347223800E+02 -0.17793845978E+03  0.21927758605E+03  0.12509058137E+03 0.  0.
          5    1    3    3  502    0  0.61244223574E+02  0.14488664339E+02 -0.12866451140E+03  0.14329272560E+03  0.41800000000E+01 0. -1.
         -5    1    3    3    0  502 -0.56240217608E+02  0.12858559461E+02 -0.49273948384E+02  0.75984860448E+02  0.41800000000E+01 0. -1.
        -11    1    1    2    0    0 -0.47580093751E+02 -0.85599976085E+01 -0.52180817299E+02  0.71133512316E+02  0.00000000000E+00 0. -1.
         11    1    1    2    0    0  0.42576087785E+02 -0.18787226191E+02 -0.80969105357E+02  0.93389930621E+02  0.00000000000E+00 0.  1.
</event>
<event>
 7    1  0.2440960E-009  0.9105940E+02  0.7561462E-02  0.1300306E+00
          1   -1    0    0  501    0  0.00000000000E+00  0.00000000000E+00  0.83627006755E+03  0.83627006755E+03  0.00000000000E+00 0. -1.
         -1   -1    0    0    0  501 -0.00000000000E+00 -0.00000000000E+00 -0.26014746120E+02  0.26014746120E+02  0.00000000000E+00 0.  1.
         25    2    1    2    0    0 -0.58485138500E+02  0.40468088172E+01  0.68401493978E+03  0.69782241811E+03  0.12507118488E+03 0.  0.
          5    1    3    3  502    0  0.15603441839E+02 -0.34816671936E+02  0.88770314600E+02  0.96712507961E+02  0.41800000000E+01 0.  1.
         -5    1    3    3    0  502 -0.74088580339E+02  0.38863480753E+02  0.59524462518E+03  0.60110991015E+03  0.41800000000E+01 0.  1.
        -11    1    1    2    0    0  0.28154342175E+02  0.43736865803E+01 -0.54961430241E+01  0.29017300111E+02  0.00000000000E+00 0.  1.
         11    1    1    2    0    0  0.30330796325E+02 -0.84204953975E+01  0.13173652467E+03  0.13544509545E+03  0.00000000000E+00 0. -1.
</event>
<event>
 7    1  0.2440960E-009  0.1405266E+03  0.7561462E-02  0.1212622E+00
         -3   -1    0    0    0  501 -0.00000000000E+00  0.00000000000E+00  0.23490132873E+03  0.23490132873E+03  0.00000000000E+00 0.  1.
          3   -1    0    0  501    0  0.00000000000E+00 -0.00000000000E+00 -0.11622880134E+03  0.11622880134E+03  0.00000000000E+00 0. -1.
         25    2    1    2    0    0  0.38085473249E+02 -0.11795715270E+03  0.62445373644E+02  0.18684682469E+03  0.12509163866E+03 0.  0.
          5    1    3    3  502    0  0.29136054470E+02 -0.25032468887E+02  0.82652897998E+02  0.91238742407E+02  0.41800000000E+01 0.  1.
         -5    1    3    3    0  502  0.89494187792E+01 -0.92924683813E+02 -0.20207524353E+02  0.95608082287E+02  0.41800000000E+01 0.  1.
        -11    1    1    2    0    0  0.26445582937E+02  0.34550013126E+02  0.36944666221E+02  0.57078723059E+02  0.00000000000E+00 0.  1.
         11    1    1    2    0    0 -0.64531056186E+02  0.83407139573E+02  0.19282487529E+02  0.10720458232E+03  0.00000000000E+00 0. -1.
</event>
<event>
 7    1  0.2440960E-009  0.9428017E+02  0.7561462E-02  0.1292806E+00
          1   -1    0    0  501    0  0.00000000000E+00  0.00000000000E+00  0.29547275037E+03  0.29547275037E+03  0.00000000000E+00 0. -1.
         -1   -1    0    0    0  501 -0.00000000000E+00 -0.00000000000E+00 -0.45294721001E+02  0.45294721001E+02  0.00000000000E+00 0.  1.
         25    2    1    2    0    0 -0.27405864968E+02  0.41916864061E+02  0.16245206213E+03  0.21105574129E+03  0.12508296651E+03 0.  0.
          5    1    3    3  502    0 -0.62042889236E+02  0.52150582505E+02  0.15346541321E+03  0.17360330876E+03  0.41800000000E+01 0. -1.
         -5    1    3    3    0  502  0.34637024268E+02 -0.10233718443E+02  0.89866489271E+01  0.37452432528E+02  0.41800000000E+01 0. -1.
        -11    1    1    2    0    0 -0.14506456035E+02 -0.16744514684E+02  0.76371517465E+02  0.79519964277E+02  0.00000000000E+00 0. -1.
         11    1    1    2    0    0  0.41912321003E+02 -0.25172349378E+02  0.11354449764E+02  0.50191765804E+02  0.00000000000E+00 0.  1.
</event>
<event>
 7    1  0.2440960E-009  0.9922333E+02  0.7561462E-02  0.1281938E+00
         -2   -1    0    0    0  501 -0.00000000000E+00  0.00000000000E+00  0.14233201471E+03  0.14233201471E+03  0.00000000000E+00 0.  1.
          2   -1    0    0  501    0  0.00000000000E+00 -0.00000000000E+00 -0.11915717027E+03  0.11915717027E+03  0.00000000000E+00 0. -1.
         25    2    1    2    0    0  0.51434071805E+01  0.55516649308E+02  0.58772074974E+02  0.14901463436E+03  0.12507058595E+03 0.  0.
          5    1    3    3  502    0  0.23756232896E+02 -0.16346959831E+02 -0.24001104906E+02  0.37750591172E+02  0.41800000000E+01 0. -1.
         -5    1    3    3    0  502 -0.18612825716E+02  0.71863609139E+02  0.82773179880E+02  0.11126404319E+03  0.41800000000E+01 0. -1.
        -11    1    1    2    0    0  0.61444646117E+01  0.18804141129E+02 -0.31491282695E+02  0.37189394385E+02  0.00000000000E+00 0. -1.
         11    1    1    2    0    0 -0.11287871792E+02 -0.74320790437E+02 -0.41059478335E+01  0.75285156229E+02  0.00000000000E+00 0.  1.
</event>
<event>
 7    1  0.2688221E-009  0.7746805E+02  0.7561462E-02  0.1336394E+00
          2   -1    0    0  501    0  0.00000000000E+00  0.00000000000E+00  0.54026294674E+03  0.54026294674E+03  0.00000000000E+00 0. -1.
         -2   -1    0    0    0  501 -0.00000000000E+00 -0.00000000000E+00 -0.30738936223E+02  0.30738936223E+02  0.00000000000E+00 0.  1.
         25    2    1    2    0    0  0.45968398400E+02 -0.29844438547E+02  0.38126878064E+03  0.40499074879E+03  0.12509132404E+03 0.  0.
          5    1    3    3  502    0  0.55718102164E+02 -0.36758681600E+02  0.83639482126E+02  0.10709221705E+03  0.41800000000E+01 0.  1.
         -5    1    3    3    0  502 -0.97497037639E+01  0.69142430531E+01  0.29762929851E+03  0.29789853174E+03  0.41800000000E+01 0.  1.
        -11    1    1    2    0    0 -0.45909532358E+02  0.36357710321E+00  0.13976870861E+02  0.47991356187E+02  0.00000000000E+00 0.  1.
         11    1    1    2    0    0 -0.58866042531E-01  0.29480861444E+02  0.11427835902E+03  0.11801977799E+03  0.00000000000E+00 0. -1.
</event>
<event>
 7    1  0.2497858E-009  0.9263392E+02  0.7561462E-02  0.1296596E+00
          2   -1    0    0  501    0  0.00000000000E+00  0.00000000000E+00  0.91399728438E+03  0.91399728438E+03  0.00000000000E+00 0. -1.
         -2   -1    0    0    0  501 -0.00000000000E+00 -0.00000000000E+00 -0.20846833439E+02  0.20846833439E+02  0.00000000000E+00 0.  1.
         25    2    1    2    0    0  0.26578102535E+02 -0.73525945132E+02  0.60604747382E+03  0.62374067240E+03  0.12508567362E+03 0.  0.
          5    1    3    3  502    0  0.46204980315E+01 -0.23895456973E+02  0.12454625703E+02  0.27657403483E+02  0.41800000000E+01 0.  1.
         -5    1    3    3    0  502  0.21957604504E+02 -0.49630488159E+02  0.59359284812E+03  0.59608326892E+03  0.41800000000E+01 0.  1.
        -11    1    1    2    0    0 -0.48504041766E+02  0.29005636781E+02  0.22291967506E+03  0.22997206475E+03  0.00000000000E+00 0.  1.
         11    1    1    2    0    0  0.21925939231E+02  0.44520308351E+02  0.64183302060E+02  0.81131380675E+02  0.00000000000E+00 0. -1.
</event>
<event>
 7    1  0.2440960E-009  0.1654666E+03  0.7561462E-02  0.1182660E+00
          2   -1    0    0  501    0  0.00000000000E+00  0.00000000000E+00  0.25556074342E+04  0.25556074342E+04  0.00000000000E+00 0. -1.
         -2   -1    0    0    0  501 -0.00000000000E+00 -0.00000000000E+00 -0.22004591551E+02  0.22004591551E+02  0.00000000000E+00 0.  1.
         25    2    1    2    0    0  0.11076843377E+03  0.11139558290E+03  0.21085902598E+04  0.21181312897E+04  0.12509458285E+03 0.  0.
          5    1    3    3  502    0  0.63419555724E+02  0.10534305138E+03  0.87460385058E+03  0.88321490384E+03  0.41800000000E+01 0. -1.
         -5    1    3    3    0  502  0.47348878041E+02  0.60525315177E+01  0.12339864092E+04  0.12349163858E+04  0.41800000000E+01 0. -1.
        -11    1    1    2    0    0 -0.73753704139E+02 -0.92869145245E+02  0.38113900778E+03  0.39916316246E+03  0.00000000000E+00 0. -1.
         11    1    1    2    0    0 -0.37014729627E+02 -0.18526437657E+02  0.43873575091E+02  0.60317573665E+02  0.00000000000E+00 0.  1.
</event>
<event>
 7    1  0.2440960E-009  0.1397389E+03  0.7561462E-02  0.1213681E+00
          4   -1    0    0  501    0  0.00000000000E+00  0.00000000000E+00  0.39709997252E+02  0.39709997252E+02  0.00000000000E+00 0. -1.
         -4   -1    0    0    0  501 -0.00000000000E+00 -0.00000000000E+00 -0.49946724693E+03  0.49946724693E+03  0.00000000000E+00 0.  1.
         25    2    1    2    0    0  0.94120408706E+01  0.90172251273E+02 -0.26092337284E+03  0.30322960912E+03  0.12509023920E+03 0.  0.
          5    1    3    3  502    0 -0.16376067911E+02 -0.27669370848E+02 -0.73071106565E+02  0.79941407906E+02  0.41800000000E+01 0.  1.
         -5    1    3    3    0  502  0.25788108782E+02  0.11784162212E+03 -0.18785226627E+03  0.22328820122E+03  0.41800000000E+01 0.  1.
        -11    1    1    2    0    0 -0.48508530167E+02 -0.40876679584E+02 -0.11198217238E+03  0.12870115525E+03  0.00000000000E+00 0. -1.
         11    1    1    2    0    0  0.39096489296E+02 -0.49295571689E+02 -0.86851704466E+02  0.10724647981E+03  0.00000000000E+00 0.  1.
</event>
<event>
 7    1  0.2440960E-009  0.9240056E+02  0.7561462E-02  0.1297140E+00
          2   -1    0    0  501    0  0.00000000000E+00  0.00000000000E+00  0.14602188495E+03  0.14602188495E+03  0.00000000000E+00 0. -1.
         -2   -1    0    0    0  501 -0.00000000000E+00 -0.00000000000E+00 -0.11164068412E+03  0.11164068412E+03  0.00000000000E+00 0.  1.
         25    2    1    2    0    0 -0.17739416642E+02 -0.21176712430E+02  0.80884059505E+02  0.15150157825E+03  0.12508939634E+03 0.  0.
          5    1    3    3  502    0  0.28429156637E+02  0.26484941316E+02  0.75229147681E+02  0.84773616912E+02  0.41800000000E+01 0. -1.
         -5    1    3    3    0  502 -0.46168573279E+02 -0.47661653746E+02  0.56549118239E+01  0.66727961337E+02  0.41800000000E+01 0. -1.
        -11    1    1    2    0    0  0.26473417374E+02  0.45914696884E+02 -0.26685915187E+00  0.53000683309E+02  0.00000000000E+00 0. -1.
         11    1    1    2    0    0 -0.87340007324E+01 -0.24737984453E+02 -0.46235999517E+02  0.53160307514E+02  0.00000000000E+00 0.  1.
</event>
<event>
 7    1  0.2440960E-009  0.1213330E+03  0.7561462E-02  0.1240914E+00
         -2   -1    0    0    0  501 -0.00000000000E+00  0.00000000000E+00  0.31662771826E+02  0.31662771826E+02  0.00000000000E+00 0.  1.
          2   -1    0    0  501    0  0.00000000000E+00 -0.00000000000E+00 -0.10266678149E+04  0.10266678149E+04  0.00000000000E+00 0. -1.
         25    2    1    2    0    0  0.87190640278E+02 -0.40849755169E+02 -0.83757694532E+03  0.85232245230E+03  0.12509002004E+03 0.  0.
          5    1    3    3  502    0 -0.15446280340E+02  0.16545815593E+02 -0.34967040156E+03  0.35042718747E+03  0.41800000000E+01 0. -1.
         -5    1    3    3    0  502  0.10263692062E+03 -0.57395570763E+02 -0.48790654376E+03  0.50189526483E+03  0.41800000000E+01 0. -1.
        -11    1    1    2    0    0 -0.22908252228E+02  0.28424300675E+02 -0.10997491313E+01  0.36523120583E+02  0.00000000000E+00 0.  1.
         11    1    1    2    0    0 -0.64282388051E+02  0.12425454495E+02 -0.15632834858E+03  0.16948501380E+03  0.00000000000E+00 0. -1.
</event>
<event>
 7    1  0.2440960E-009  0.1110180E+03  0.7561462E-02  0.1258696E+00
          1   -1    0    0  501    0  0.00000000000E+00  0.00000000000E+00  0.10939632385E+03  0.10939632385E+03  0.00000000000E+00 0. -1.
         -1   -1    0    0    0  501 -0.00000000000E+00 -0.00000000000E+00 -0.17614434289E+03  0.17614434289E+03  0.00000000000E+00 0.  1.
         25    2    1    2    0    0  0.36162348534E+02 -0.64137889583E+02 -0.83261345068E+02  0.16733717418E+03  0.12509154227E+03 0.  0.
          5    1    3    3  502    0  0.65580902637E+02 -0.65287276646E+01 -0.57404210937E+01  0.66286528872E+02  0.41800000000E+01 0.  1.
         -5    1    3    3    0  502 -0.29418554102E+02 -0.57609161918E+02 -0.77520923974E+02  0.10105064530E+03  0.41800000000E+01 0.  1.
        -11    1    1    2    0    0 -0.64200801861E+01 -0.96673535015E+01 -0.25648022419E+02  0.28151309158E+02  0.00000000000E+00 0.  1.
         11    1    1    2    0    0 -0.29742268348E+02  0.73805243084E+02  0.42161348447E+02  0.90052183406E+02  0.00000000000E+00 0. -1.
</event>
<event>
 7    1  0.2440960E-009  0.9336379E+02  0.7561462E-02  0.1294904E+00
         -2   -1    0    0    0  501 -0.00000000000E+00  0.00000000000E+00  0.25860227919E+02  0.25860227919E+02  0.00000000000E+00 0. -1.
          2   -1    0    0  501    0  0.00000000000E+00 -0.00000000000E+00 -0.73025927210E+03  0.73025927210E+03  0.00000000000E+00 0.  1.
         25    2    1    2    0    0  0.66953076784E+02 -0.31450706210E+02 -0.47782871265E+03  0.49943832712E+03  0.12508598063E+03 0.  0.
          5    1    3    3  502    0  0.59806521003E+02 -0.30995779095E+02 -0.48426270475E+03  0.48894314381E+03  0.41800000000E+01 0.  1.
         -5    1    3    3    0  502  0.71465557809E+01 -0.45492711520E+00  0.64339920980E+01  0.10495183301E+02  0.41800000000E+01 0.  1.
        -11    1    1    2    0    0 -0.90948063916E+01 -0.27126785134E+02 -0.11199071060E+03  0.11558761714E+03  0.00000000000E+00 0.  1.
         11    1    1    2    0    0 -0.57858270392E+02  0.58577491344E+02 -0.11457962094E+03  0.14109355577E+03  0.00000000000E+00 0. -1.
</event>
<event>
 7    1  0.2440960E-009  0.1364639E+03  0.7561462E-02  0.1218168E+00
          3   -1    0    0  501    0  0.00000000000E+00  0.00000000000E+00  0.21292815873E+03  0.21292815873E+03  0.00000000000E+00 0. -1.
         -3   -1    0    0    0  501 -0.00000000000E+00 -0.00000000000E+00 -0.98396068408E+02  0.98396068408E+02  0.00000000000E+00 0.  1.
         25    2    1    2    0    0  0.73679884797E+02  0.43985724418E+02  0.17256473647E+02  0.15267177333E+03  0.12508962831E+03 0.  0.
          5    1    3    3  502    0  0.10561200158E+03  0.52777377754E+02  0.16452319066E+02  0.11927907479E+03  0.41800000000E+01 0. -1.
         -5    1    3    3    0  502 -0.31932116786E+02 -0.87916533358E+01  0.80415458056E+00  0.33392698534E+02  0.41800000000E+01 0. -1.
        -11    1    1    2    0    0  0.80514508849E+01  0.17411042933E+02  0.32176414436E+02  0.37460538215E+02  0.00000000000E+00 0. -1.
         11    1    1    2    0    0 -0.81731335682E+02 -0.61396767351E+02  0.65099202239E+02  0.12119191560E+03  0.00000000000E+00 0.  1.
</event>
<event>
 7    1  0.2440960E-009  0.9088113E+02  0.7561462E-02  0.1300732E+00
         -2   -1    0    0    0  501 -0.00000000000E+00  0.00000000000E+00  0.88942328938E+01  0.88942328938E+01  0.00000000000E+00 0.  1.
          2   -1    0    0  501    0  0.00000000000E+00 -0.00000000000E+00 -0.20089535726E+04  0.20089535726E+04  0.00000000000E+00 0. -1.
         25    2    1    2    0    0 -0.37682235913E+02 -0.45084810770E+02 -0.14934884741E+04  0.14998690989E+04  0.12508757132E+03 0.  0.
          5    1    3    3  502    0  0.26970548350E+01  0.78403485884E+01 -0.63810526656E+01  0.11266561316E+02  0.41800000000E+01 0. -1.
         -5    1    3    3    0  502 -0.40379290748E+02 -0.52925159358E+02 -0.14871074214E+04  0.14886025375E+04  0.41800000000E+01 0. -1.
        -11    1    1    2    0    0  0.34791319873E+02 -0.20330988144E+02 -0.14349841727E+03  0.14904892075E+03  0.00000000000E+00 0.  1.
         11    1    1    2    0    0  0.28909160399E+01  0.65415798913E+02 -0.36307244833E+03  0.36892978584E+03  0.00000000000E+00 0. -1.
</event>
<event>
 7    1  0.2440960E-009  0.1066425E+03  0.7561462E-02  0.1266917E+00
         -2   -1    0    0    0  501 -0.00000000000E+00  0.00000000000E+00  0.12242875588E+03  0.12242875588E+03  0.00000000000E+00 0.  1.
          2   -1    0    0  501    0  0.00000000000E+00 -0.00000000000E+00 -0.15384089356E+03  0.15384089356E+03  0.00000000000E+00 0. -1.
         25    2    1    2    0    0  0.59938869606E+01 -0.83577292648E+02 -0.65572511554E+01  0.15070116484E+03  0.12508698179E+03 0.  0.
          5    1    3    3  502    0  0.22459475325E+02  0.13183220759E+02 -0.39140485809E+02  0.47198256015E+02  0.41800000000E+01 0.  1.
         -5    1    3    3    0  502 -0.16465588365E+02 -0.96760513407E+02  0.32583234653E+02  0.10350290883E+03  0.41800000000E+01 0.  1.
        -11    1    1    2    0    0 -0.17354498283E+02  0.39379831255E+02 -0.55773856612E+02  0.70446240508E+02  0.00000000000E+00 0. -1.
         11    1    1    2    0    0  0.11360611323E+02  0.44197461393E+02  0.30918970087E+02  0.55122244098E+02  0.00000000000E+00 0.  1.
</event>
<event>
 7    1  0.2440960E-009  0.1481670E+03  0.7561462E-02  0.1202744E+00
         -1   -1    0    0    0  501 -0.00000000000E+00  0.00000000000E+00  0.88088077799E+03  0.88088077799E+03  0.00000000000E+00 0.  1.
          1   -1    0    0  501    0  0.00000000000E+00 -0.00000000000E+00 -0.30776748861E+02  0.30776748861E+02  0.00000000000E+00 0. -1.
         25    2    1    2    0    0  0.41924579381E+02  0.94142493223E+02  0.63204459185E+03  0.65249295672E+03  0.12508482362E+03 0.  0.
          5    1    3    3  502    0  0.75706364469E+02  0.25466131362E+02  0.23853270259E+03  0.25158557206E+03  0.41800000000E+01 0.  1.
         -5    1    3    3    0  502 -0.33781785089E+02  0.68676361861E+02  0.39351188926E+03  0.40090738466E+03  0.41800000000E+01 0.  1.
        -11    1    1    2    0    0 -0.64286786325E+02 -0.97804440539E+02  0.18915224356E+03  0.22243441894E+03  0.00000000000E+00 0. -1.
         11    1    1    2    0    0  0.22362206944E+02  0.36619473167E+01  0.28907193715E+02  0.36730151185E+02  0.00000000000E+00 0.  1.
</event>
<event>
 7    1  0.2440960E-009  0.1265937E+03  0.7561462E-02  0.1232599E+00
          1   -1    0    0  501    0  0.00000000000E+00  0.00000000000E+00  0.46006596532E+03  0.46006596532E+03  0.00000000000E+00 0. -1.
         -1   -1    0    0    0  501 -0.00000000000E+00 -0.00000000000E+00 -0.55412813644E+02  0.55412813644E+02  0.00000000000E+00 0.  1.
         25    2    1    2    0    0 -0.10211117768E+03 -0.53698981002E+01  0.12381442664E+03  0.20355088683E+03  0.12508965933E+03 0.  0.
          5    1    3    3  502    0  0.20140909245E+02 -0.22893478211E+01 -0.93445652761E+01  0.22708822929E+02  0.41800000000E+01 0.  1.
         -5    1    3    3    0  502 -0.12225208693E+03 -0.30805502790E+01  0.13315899192E+03  0.18084206390E+03  0.41800000000E+01 0.  1.
        -11    1    1    2    0    0  0.61219022082E+02 -0.16975292666E+02  0.64144463946E+02  0.90279795529E+02  0.00000000000E+00 0.  1.
         11    1    1    2    0    0  0.40892155599E+02  0.22345190767E+02  0.21669426109E+03  0.22164809661E+03  0.00000000000E+00 0. -1.
</event>
<event>
 7    1  0.2440960E-009  0.1833907E+03  0.7561462E-02  0.1164561E+00
         -2   -1    0    0    0  501 -0.00000000000E+00  0.00000000000E+00  0.43175830171E+03  0.43175830171E+03  0.00000000000E+00 0.  1.
          2   -1    0    0  501    0  0.00000000000E+00 -0.00000000000E+00 -0.12560721715E+03  0.12560721715E+03  0.00000000000E+00 0. -1.
         25    2    1    2    0    0 -0.24821102354E+02  0.18135739090E+03  0.27058524854E+03  0.34981406697E+03  0.12508762676E+03 0.  0.
          5    1    3    3  502    0 -0.18625251925E+02  0.86909744921E+02  0.34513828138E+02  0.95440455281E+02  0.41800000000E+01 0.  1.
         -5    1    3    3    0  502 -0.61958504286E+01  0.94447645979E+02  0.23607142040E+03  0.25437361169E+03  0.41800000000E+01 0.  1.
        -11    1    1    2    0    0  0.46129740305E+01 -0.39264447278E+02  0.49504407012E+02  0.63353473962E+02  0.00000000000E+00 0.  1.
         11    1    1    2    0    0  0.20208128324E+02 -0.14209294362E+03 -0.13938570996E+02  0.14419797793E+03  0.00000000000E+00 0. -1.
</event>
<event>
 7    1  0.2440960E-009  0.9982850E+02  0.7561462E-02  0.1280657E+00
          1   -1    0    0  501    0  0.00000000000E+00  0.00000000000E+00  0.36630624043E+03  0.36630624043E+03  0.00000000000E+00 0. -1.
         -1   -1    0    0    0  501 -0.00000000000E+00 -0.00000000000E+00 -0.28858519767E+02  0.28858519767E+02  0.00000000000E+00 0.  1.
         25    2    1    2    0    0 -0.57317220948E+02  0.11747909769E+02  0.19718209213E+03  0.24072145939E+03  0.12507104523E+03 0.  0.
          5    1    3    3  502    0  0.28663430860E+02 -0.27967241957E+02  0.83474306903E+02  0.92677889511E+02  0.41800000000E+01 0.  1.
         -5    1    3    3    0  502 -0.85980651808E+02  0.39715151726E+02  0.11370778523E+03  0.14804356988E+03  0.41800000000E+01 0.  1.
        -11    1    1    2    0    0  0.32565401786E+02  0.72809285042E+01  0.75475363495E+02  0.82523013809E+02  0.00000000000E+00 0.  1.
         11    1    1    2    0    0  0.24751819162E+02 -0.19028838273E+02  0.64790265040E+02  0.71920286997E+02  0.00000000000E+00 0. -1.
</event>
<event>
 7    1  0.2440960E-009  0.1796843E+03  0.7561462E-02  0.1168109E+00
         -2   -1    0    0    0  501 -0.00000000000E+00  0.00000000000E+00  0.23270581927E+03  0.23270581927E+03  0.00000000000E+00 0.  1.
          2   -1    0    0  501    0  0.00000000000E+00 -0.00000000000E+00 -0.18281860890E+03  0.18281860890E+03  0.00000000000E+00 0. -1.
         25    2    1    2    0    0 -0.16746871540E+03  0.26362033183E+02  0.69606255170E+02  0.22188562559E+03  0.12508985832E+03 0.  0.
          5    1    3    3  502    0 -0.13241790195E+03  0.53449538457E+02  0.43776137973E+01  0.14292651896E+03  0.41800000000E+01 0.  1.
         -5    1    3    3    0  502 -0.35050813448E+02 -0.27087505275E+02  0.65228641373E+02  0.78959106636E+02  0.41800000000E+01 0.  1.
        -11    1    1    2    0    0  0.44006970666E+02 -0.20138947903E+02 -0.46541455035E+02  0.67143858443E+02  0.00000000000E+00 0.  1.
         11    1    1    2    0    0  0.12346174473E+03 -0.62230852795E+01  0.26822410233E+02  0.12649494414E+03  0.00000000000E+00 0. -1.
</event>
<event>
 7    1  0.2440960E-009  0.7604233E+02  0.7561462E-02  0.1340673E+00
         -2   -1    0    0    0  501 -0.00000000000E+00  0.00000000000E+00  0.24578990137E+02  0.24578990137E+02  0.00000000000E+00 0.  1.
          2   -1    0    0  501    0  0.00000000000E+00 -0.00000000000E+00 -0.65764336152E+03  0.65764336152E+03  0.00000000000E+00 0. -1.
         25    2    1    2    0    0 -0.51780976375E+02 -0.23582559610E+02 -0.42550687640E+03  0.44714823601E+03  0.12509211195E+03 0.  0.
          5    1    3    3  502    0  0.11062390105E+02  0.12499541652E+02 -0.31163320252E+03  0.31210789854E+03  0.41800000000E+01 0.  1.
         -5    1    3    3    0  502 -0.62843366480E+02 -0.36082101262E+02 -0.11387367388E+03  0.13504033747E+03  0.41800000000E+01 0.  1.
        -11    1    1    2    0    0  0.11651980401E+02 -0.53487860609E+01  0.71917689325E+01  0.14700329927E+02  0.00000000000E+00 0.  1.
         11    1    1    2    0    0  0.40128995974E+02  0.28931345671E+02 -0.21474926392E+03  0.22037378572E+03  0.00000000000E+00 0. -1.
</event>
<event>
 7    1  0.2933788E-009  0.1095242E+03  0.7561462E-02  0.1261454E+00
          2   -1    0    0  501    0  0.00000000000E+00  0.00000000000E+00  0.17050993647E+03  0.17050993647E+03  0.00000000000E+00 0. -1.
         -2   -1    0    0    0  501 -0.00000000000E+00 -0.00000000000E+00 -0.12708418775E+03  0.12708418775E+03  0.00000000000E+00 0.  1.
         25    2    1    2    0    0  0.24612233153E+02  0.87900543366E+02  0.63711184125E+02  0.16744772444E+03  0.12508939961E+03 0.  0.
          5    1    3    3  502    0  0.17551899078E+02  0.63566127357E+02  0.10188719404E+03  0.12143802707E+03  0.41800000000E+01 0.  1.
         -5    1    3    3    0  502  0.70603340744E+01  0.24334416009E+02 -0.38176009915E+02  0.46009697377E+02  0.41800000000E+01 0.  1.
        -11    1    1    2    0    0  0.33604754872E+02 -0.27754204191E+02  0.16432762110E+01  0.43615086346E+02  0.00000000000E+00 0. -1.
         11    1    1    2    0    0 -0.58216988024E+02 -0.60146339175E+02 -0.21928711611E+02  0.86531313428E+02  0.00000000000E+00 0.  1.
</event>
<event>
 7    1  0.2440960E-009  0.1157704E+03  0.7561462E-02  0.1250242E+00
          2   -1    0    0  501    0  0.00000000000E+00  0.00000000000E+00  0.64148098168E+03  0.64148098168E+03  0.00000000000E+00 0. -1.
         -2   -1    0    0    0  501 -0.00000000000E+00 -0.00000000000E+00 -0.23240529844E+02  0.23240529844E+02  0.00000000000E+00 0.  1.
         25    2    1    2    0    0 -0.18117273642E+02 -0.47438780900E+02  0.28247026095E+03  0.31307303873E+03  0.12508639303E+03 0.  0.
          5    1    3    3  502    0  0.26460715462E+02  0.33263033313E+02  0.90126084341E+02  0.99733556673E+02  0.41800000000E+01 0. -1.
         -5    1    3    3    0  502 -0.44577989105E+02 -0.80701814212E+02  0.19234417661E+03  0.21333948206E+03  0.41800000000E+01 0. -1.
        -11    1    1    2    0    0 -0.17085892076E+02  0.57454564019E+02  0.26805274817E+03  0.27467295178E+03  0.00000000000E+00 0. -1.
         11    1    1    2    0    0  0.35203165718E+02 -0.10015783119E+02  0.67717442717E+02  0.76975521019E+02  0.00000000000E+00 0.  1.
</event>
<event>
 7    1  0.2440960E-009  0.8175582E+02  0.7561462E-02  0.1324141E+00
          2   -1    0    0  501    0  0.00000000000E+00  0.00000000000E+00  0.26983121736E+03  0.26983121736E+03  0.00000000000E+00 0. -1.
         -2   -1    0    0    0  501 -0.00000000000E+00 -0.00000000000E+00 -0.78828178121E+02  0.78828178121E+02  0.00000000000E+00 0.  1.
         25    2    1    2    0    0 -0.17744612751E+02  0.52360094414E+02  0.19875770177E+03  0.24126602575E+03  0.12509284713E+03 0.  0.
          5    1    3    3  502    0 -0.10479730824E+02  0.44297018281E+02  0.21582505374E+03  0.22061273038E+03  0.41800000000E+01 0.  1.
         -5    1    3    3    0  502 -0.72648819270E+01  0.80630761331E+01 -0.17067351973E+02  0.20653295367E+02  0.41800000000E+01 0.  1.
        -11    1    1    2    0    0  0.26160171630E+02 -0.76370907235E+02 -0.11950294237E+02  0.81606859907E+02  0.00000000000E+00 0. -1.
         11    1    1    2    0    0 -0.84155588783E+01  0.24010812821E+02  0.41956317146E+01  0.25786509826E+02  0.00000000000E+00 0.  1.
</event>
<event>
 7    1  0.2440960E-009  0.1873539E+03  0.7561462E-02  0.1160870E+00
          1   -1    0    0  501    0  0.00000000000E+00  0.00000000000E+00  0.91698935788E+03  0.91698935788E+03  0.00000000000E+00 0. -1.
         -1   -1    0    0    0  501 -0.00000000000E+00 -0.00000000000E+00 -0.46899045951E+02  0.46899045951E+02  0.00000000000E+00 0.  1.
         25    2    1    2    0    0 -0.12841597386E+03 -0.10509344037E+03  0.59248082002E+03  0.62786631437E+03  0.12508914052E+03 0.  0.
          5    1    3    3  502    0 -0.92759244446E+02  0.23965364099E+01  0.30593126742E+03  0.31972086826E+03  0.41800000000E+01 0. -1.
         -5    1    3    3    0  502 -0.35656729418E+02 -0.10748997678E+03  0.28654955259E+03  0.30814544610E+03  0.41800000000E+01 0. -1.
        -11    1    1    2    0    0  0.10354611093E+03  0.98159414178E+02  0.15478107914E+03  0.21050950130E+03  0.00000000000E+00 0.  1.
         11    1    1    2    0    0  0.24869862934E+02  0.69340261938E+01  0.12282841277E+03  0.12551258816E+03  0.00000000000E+00 0. -1.
</event>
<event>
 7    1  0.2440960E-009  0.5734915E+02  0.7561462E-02  0.1409305E+00
          1   -1    0    0  501    0  0.00000000000E+00  0.00000000000E+00  0.79075046662E+02  0.79075046662E+02  0.00000000000E+00 0. -1.
         -1   -1    0    0    0  501 -0.00000000000E+00 -0.00000000000E+00 -0.18200459469E+03  0.18200459469E+03  0.00000000000E+00 0.  1.
         25    2    1    2    0    0  0.27831264089E+02 -0.28928259462E+02 -0.14315270725E+02  0.13214997338E+03  0.12508902843E+03 0.  0.
          5    1    3    3  502    0  0.33774216271E+02 -0.15393638759E+02  0.52030374436E+02  0.64049153491E+02  0.41800000000E+01 0.  1.
         -5    1    3    3    0  502 -0.59429521825E+01 -0.13534620703E+02 -0.66345645161E+02  0.68100819893E+02  0.41800000000E+01 0.  1.
        -11    1    1    2    0    0  0.10709212653E+02  0.19595439548E+02 -0.86371876379E+02  0.89211935950E+02  0.00000000000E+00 0.  1.
         11    1    1    2    0    0 -0.38540476742E+02  0.93328199139E+01 -0.22424009281E+01  0.39717732022E+02  0.00000000000E+00 0. -1.
</event>
<event>
 7    1  0.2440960E-009  0.1075797E+03  0.7561462E-02  0.1265119E+00
         -2   -1    0    0    0  501 -0.00000000000E+00  0.00000000000E+00  0.26684817363E+02  0.26684817363E+02  0.00000000000E+00 0.  1.
          2   -1    0    0  501    0  0.00000000000E+00 -0.00000000000E+00 -0.46971541795E+03  0.46971541795E+03  0.00000000000E+00 0. -1.
         25    2    1    2    0    0 -0.64186237178E+02 -0.17904809535E+02 -0.29501737756E+03  0.32729639915E+03  0.12508886676E+03 0.  0.
          5    1    3    3  502    0  0.74787212474E+00 -0.59802298918E+02 -0.89825700680E+02  0.10799538495E+03  0.41800000000E+01 0. -1.
         -5    1    3    3    0  502 -0.64934109302E+02  0.41897489383E+02 -0.20519167688E+03  0.21930101419E+03  0.41800000000E+01 0. -1.
        -11    1    1    2    0    0  0.13533673684E+02  0.23229295674E+02 -0.78160160328E+02  0.82654528995E+02  0.00000000000E+00 0. -1.
         11    1    1    2    0    0  0.50652563494E+02 -0.53244861385E+01 -0.69853062703E+02  0.86449307170E+02  0.00000000000E+00 0.  1.
</event>
<event>
 7    1  0.2440960E-009  0.7520743E+02  0.7561462E-02  0.1343230E+00
          1   -1    0    0  501    0  0.00000000000E+00  0.00000000000E+00  0.44735298761E+03  0.44735298761E+03  0.00000000000E+00 0. -1.
         -1   -1    0    0    0  501 -0.00000000000E+00 -0.00000000000E+00 -0.36184336476E+02  0.36184336476E+02  0.00000000000E+00 0.  1.
         25    2    1    2    0    0  0.36199946352E+02  0.39658126974E+02  0.30335378457E+03  0.33249703874E+03  0.12509020349E+03 0.  0.
          5    1    3    3  502    0 -0.72915324512E+01 -0.11429696850E+00 -0.10318519725E+02  0.13308785016E+02  0.41800000000E+01 0. -1.
         -5    1    3    3    0  502  0.43491478804E+02  0.39772423942E+02  0.31367230430E+03  0.31918825373E+03  0.41800000000E+01 0. -1.
        -11    1    1    2    0    0 -0.49143729164E+02 -0.47037435804E+02  0.34591543390E+02  0.76316455351E+02  0.00000000000E+00 0.  1.
         11    1    1    2    0    0  0.12943782812E+02  0.73793088301E+01  0.73223323166E+02  0.74723829986E+02  0.00000000000E+00 0. -1.
</event>
<event>
 7    1  0.2440960E-009  0.1458954E+03  0.7561462E-02  0.1205609E+00
         -1   -1    0    0    0  501 -0.00000000000E+00  0.00000000000E+00  0.20825539930E+02  0.20825539930E+02  0.00000000000E+00 0.  1.
          1   -1    0    0  501    0  0.00000000000E+00 -0.00000000000E+00 -0.10398081924E+04  0.10398081924E+04  0.00000000000E+00 0. -1.
         25    2    1    2    0    0 -0.69841476172E+01  0.97571199975E+02 -0.51814062015E+03  0.54192593467E+03  0.12508037028E+03 0.  0.
          5    1    3    3  502    0  0.17840633929E+02 -0.25929207151E+02 -0.13061623693E+03  0.13441981161E+03  0.41800000000E+01 0.  1.
         -5    1    3    3    0  502 -0.24824781547E+02  0.12350040713E+03 -0.38752438322E+03  0.40750612306E+03  0.41800000000E+01 0.  1.
        -11    1    1    2    0    0  0.47771964721E+02 -0.34647708754E+02 -0.19029178549E+03  0.19923249725E+03  0.00000000000E+00 0.  1.
         11    1    1    2    0    0 -0.40787817104E+02 -0.62923491221E+02 -0.31055024686E+03  0.31947530045E+03  0.00000000000E+00 0. -1.
</event>
<event>
 7    1  0.2440960E-009  0.1479289E+03  0.7561462E-02  0.1203041E+00
          1   -1    0    0  501    0  0.00000000000E+00  0.00000000000E+00  0.62528182179E+03  0.62528182179E+03  0.00000000000E+00 0. -1.
         -1   -1    0    0    0  501 -0.00000000000E+00 -0.00000000000E+00 -0.54713313895E+02  0.54713313895E+02  0.00000000000E+00 0.  1.
         25    2    1    2    0    0  0.10359177136E+03  0.73249700937E+02  0.15731876485E+03  0.23768271807E+03  0.12508839640E+03 0.  0.
          5    1    3    3  502    0 -0.10385691509E+02 -0.63382326855E+01 -0.12665253066E+02  0.18053166396E+02  0.41800000000E+01 0.  1.
         -5    1    3    3    0  502  0.11397746287E+03  0.79587933622E+02  0.16998401791E+03  0.21962955167E+03  0.41800000000E+01 0.  1.
        -11    1    1    2    0    0 -0.69297939978E+02 -0.74272319565E+01  0.29156209367E+03  0.29977628780E+03  0.00000000000E+00 0.  1.
         11    1    1    2    0    0 -0.34293831386E+02 -0.65822468980E+02  0.12168764938E+03  0.14253612982E+03  0.00000000000E+00 0. -1.
</event>
<event>
 7    1  0.2440960E-009  0.1091708E+03  0.7561462E-02  0.1262113E+00
         -2   -1    0    0    0  501 -0.00000000000E+00  0.00000000000E+00  0.20436073615E+02  0.20436073615E+02  0.00000000000E+00 0.  1.
          2   -1    0    0  501    0  0.00000000000E+00 -0.00000000000E+00 -0.65188628613E+03  0.65188628613E+03  0.00000000000E+00 0. -1.
         25    2    1    2    0    0 -0.14761161858E+02  0.57232858444E+01 -0.46202390920E+03  0.47891962771E+03  0.12508904524E+03 0.  0.
          5    1    3    3  502    0  0.25464331168E+02 -0.50176071463E+02 -0.23261432071E+03  0.23935948887E+03  0.41800000000E+01 0.  1.
         -5    1    3    3    0  502 -0.40225493025E+02  0.55899357307E+02 -0.22940958848E+03  0.23956013885E+03  0.41800000000E+01 0.  1.
        -11    1    1    2    0    0  0.53384155877E+02 -0.90970027084E+01 -0.90419734270E+02  0.10539616645E+03  0.00000000000E+00 0.  1.
         11    1    1    2    0    0 -0.38622994020E+02  0.33737168641E+01 -0.79006569047E+02  0.88006565580E+02  0.00000000000E+00 0. -1.
</event>
<event>
 7    1  0.2440960E-009  0.1771083E+03  0.7561462E-02  0.1170631E+00
          1   -1    0    0  501    0  0.00000000000E+00  0.00000000000E+00  0.20925168007E+02  0.20925168007E+02  0.00000000000E+00 0. -1.
         -1   -1    0    0    0  501 -0.00000000000E+00 -0.00000000000E+00 -0.15394415292E+04  0.15394415292E+04  0.00000000000E+00 0.  1.
         25    2    1    2    0    0  0.14253445782E+03  0.16520096726E+02 -0.80123017592E+03  0.82353263703E+03  0.12508886515E+03 0.  0.
          5    1    3    3  502    0  0.13204172049E+02  0.52717597290E+02 -0.18724655456E+03  0.19501856275E+03  0.41800000000E+01 0.  1.
         -5    1    3    3    0  502  0.12933028577E+03 -0.36197500564E+02 -0.61398362136E+03  0.62851407428E+03  0.41800000000E+01 0.  1.
        -11    1    1    2    0    0 -0.61042047049E+02  0.33594717277E+02 -0.37557151814E+03  0.38197997562E+03  0.00000000000E+00 0.  1.
         11    1    1    2    0    0 -0.81492410766E+02 -0.50114814003E+02 -0.34171466716E+03  0.35485408458E+03  0.00000000000E+00 0. -1.
</event>
<event>
 7    1  0.2440960E-009  0.1298493E+03  0.7561462E-02  0.1227680E+00
          1   -1    0    0  501    0  0.00000000000E+00  0.00000000000E+00  0.11950297443E+03  0.11950297443E+03  0.00000000000E+00 0. -1.
         -1   -1    0    0    0  501 -0.00000000000E+00 -0.00000000000E+00 -0.18513443763E+03  0.18513443763E+03  0.00000000000E+00 0.  1.
         25    2    1    2    0    0 -0.73527262169E+02 -0.68988483068E+02 -0.55986255860E+02  0.17013999267E+03  0.12508991639E+03 0.  0.
          5    1    3    3  502    0 -0.82977519834E+02 -0.82743171318E+02 -0.79014754117E+02  0.14139485481E+03  0.41800000000E+01 0. -1.
         -5    1    3    3    0  502  0.94502576653E+01  0.13754688250E+02  0.23028498256E+02  0.28745137863E+02  0.41800000000E+01 0. -1.
        -11    1    1    2    0    0  0.24019473932E+02  0.71739450125E+02 -0.29341703807E+02  0.81144435512E+02  0.00000000000E+00 0.  1.
         11    1    1    2    0    0  0.49507788237E+02 -0.27509670576E+01  0.19696496460E+02  0.53352983878E+02  0.00000000000E+00 0. -1.
</event>
<event>
 7    1  0.2440960E-009  0.1463105E+03  0.7561462E-02  0.1205081E+00
         -1   -1    0    0    0  501 -0.00000000000E+00  0.00000000000E+00  0.37380229650E+03  0.37380229650E+03  0.00000000000E+00 0.  1.
          1   -1    0    0  501    0  0.00000000000E+00 -0.00000000000E+00 -0.65906599549E+02  0.65906599549E+02  0.00000000000E+00 0. -1.
         25    2    1    2    0    0 -0.11271309833E+03  0.40653370364E+01  0.14281470363E+03  0.22082405094E+03  0.12508578018E+03 0.  0.
          5    1    3    3  502    0 -0.11369915073E+03  0.43735574976E+02  0.78003841715E+02  0.14471478541E+03  0.41800000000E+01 0.  1.
         -5    1    3    3    0  502  0.98605240044E+00 -0.39670237940E+02  0.64810861911E+02  0.76109265528E+02  0.41800000000E+01 0.  1.
        -11    1    1    2    0    0  0.10881920766E+03  0.16352295510E+02  0.93668423899E+02  0.14450879268E+03  0.00000000000E+00 0.  1.
         11    1    1    2    0    0  0.38938906623E+01 -0.20417632547E+02  0.71412569431E+02  0.74376052436E+02  0.00000000000E+00 0. -1.
</event>
<event>
 7    1  0.2440960E-009  0.1127600E+03  0.7561462E-02  0.1255543E+00
         -2   -1    0    0    0  501 -0.00000000000E+00  0.00000000000E+00  0.65310062281E+02  0.65310062281E+02  0.00000000000E+00 0. -1.
          2   -1    0    0  501    0  0.00000000000E+00 -0.00000000000E+00 -0.26330157015E+03  0.26330157015E+03  0.00000000000E+00 0.  1.
         25    2    1    2    0    0  0.67247713239E+02  0.20743196906E+02 -0.84201437571E+02  0.16640210483E+03  0.12508894135E+03 0.  0.
          5    1    3    3  502    0 -0.19547826237E+02  0.10540296201E+02 -0.75112336191E+02  0.78438197345E+02  0.41800000000E+01 0. -1.
         -5    1    3    3    0  502  0.86795539475E+02  0.10202900705E+02 -0.90891013800E+01  0.87963907482E+02  0.41800000000E+01 0. -1.
        -11    1    1    2    0    0  0.18601780547E+02  0.13518048920E+02 -0.26319511861E+02  0.34949686561E+02  0.00000000000E+00 0.  1.
         11    1    1    2    0    0 -0.85849493786E+02 -0.34261245826E+02 -0.87470558436E+02  0.12725984104E+03  0.00000000000E+00 0. -1.
</event>
<event>
 7    1  0.2440960E-009  0.6886913E+02  0.7561462E-02  0.1363981E+00
         -1   -1    0    0    0  501 -0.00000000000E+00  0.00000000000E+00  0.11438905621E+02  0.11438905621E+02  0.00000000000E+00 0.  1.
          1   -1    0    0  501    0  0.00000000000E+00 -0.00000000000E+00 -0.10888389113E+04  0.10888389113E+04  0.00000000000E+00 0. -1.
         25    2    1    2    0    0  0.39430403400E+01 -0.27798878282E+02 -0.61108354508E+03  0.62438762193E+03  0.12509387739E+03 0.  0.
          5    1    3    3  502    0  0.65649377558E+01 -0.34892226075E+02 -0.41650411042E+02  0.54888933204E+02  0.41800000000E+01 0. -1.
         -5    1    3    3    0  502 -0.26218974159E+01  0.70933477931E+01 -0.56943313403E+03  0.56949868873E+03  0.41800000000E+01 0. -1.
        -11    1    1    2    0    0  0.35958354232E+02  0.37842246612E+02 -0.30340507103E+03  0.30786307994E+03  0.00000000000E+00 0.  1.
         11    1    1    2    0    0 -0.39901394572E+02 -0.10043368330E+02 -0.16291138954E+03  0.16802711501E+03  0.00000000000E+00 0. -1.
</event>
<event>
 7    1  0.2440960E-009  0.4096937E+02  0.7561462E-02  0.1501197E+00
         -2   -1    0    0    0  501 -0.00000000000E+00  0.00000000000E+00  0.23435729509E+02  0.23435729509E+02  0.00000000000E+00 0.  1.
          2   -1    0    0  501    0  0.00000000000E+00 -0.00000000000E+00 -0.71972568897E+03  0.71972568897E+03  0.00000000000E+00 0. -1.
         25    2    1    2    0    0  0.16507338549E+02 -0.12453625967E+02 -0.57518026645E+03  0.58898723680E+03  0.12508413638E+03 0.  0.
          5    1    3    3  502    0  0.13597144405E+02 -0.11607334309E+02 -0.58095263999E+03  0.58124268156E+03  0.41800000000E+01 0. -1.
         -5    1    3    3    0  502  0.29101941431E+01 -0.84629165791E+00  0.57723735468E+01  0.77445552413E+01  0.41800000000E+01 0. -1.
        -11    1    1    2    0    0 -0.35666080151E+02  0.15726629077E+02 -0.84948006782E+01  0.39894332605E+02  0.00000000000E+00 0.  1.
         11    1    1    2    0    0  0.19158741602E+02 -0.32730031102E+01 -0.11261489234E+03  0.11427984908E+03  0.00000000000E+00 0. -1.
</event>
<event>
 7    1  0.2440960E-009  0.1974291E+03  0.7561462E-02  0.1151926E+00
          1   -1    0    0  501    0  0.00000000000E+00  0.00000000000E+00  0.60090933047E+03  0.60090933047E+03  0.00000000000E+00 0. -1.
         -1   -1    0    0    0  501 -0.00000000000E+00 -0.00000000000E+00 -0.10503363272E+03  0.10503363272E+03  0.00000000000E+00 0.  1.
         25    2    1    2    0    0  0.12132160759E+03  0.11236492943E+03  0.47206506960E+03  0.51559554855E+03  0.12509408424E+03 0.  0.
          5    1    3    3  502    0 -0.12434460656E+02 -0.16356904546E+02  0.36311588394E+02  0.41930513828E+02  0.41800000000E+01 0. -1.
         -5    1    3    3    0  502  0.13375606824E+03  0.12872183398E+03  0.43575348120E+03  0.47366503472E+03  0.41800000000E+01 0. -1.
        -11    1    1    2    0    0 -0.90963796465E+01 -0.66262410248E+02  0.97300491684E+00  0.66890940142E+02  0.00000000000E+00 0. -1.
         11    1    1    2    0    0 -0.11222522794E+03 -0.46102519184E+02  0.22837623233E+02  0.12345647450E+03  0.00000000000E+00 0.  1.
</event>
<event>
 7    1  0.2440960E-009  0.8320743E+02  0.7561462E-02  0.1320188E+00
          2   -1    0    0  501    0  0.00000000000E+00  0.00000000000E+00  0.51185013662E+03  0.51185013662E+03  0.00000000000E+00 0. -1.
         -2   -1    0    0    0  501 -0.00000000000E+00 -0.00000000000E+00 -0.26219624163E+02  0.26219624163E+02  0.00000000000E+00 0.  1.
         25    2    1    2    0    0 -0.35388876218E+02  0.40241545685E+01  0.32785362483E+03  0.35270899022E+03  0.12508823319E+03 0.  0.
          5    1    3    3  502    0 -0.60087155721E+02  0.26781792778E+01  0.64985605204E+02  0.88646715735E+02  0.41800000000E+01 0.  1.
         -5    1    3    3    0  502  0.24698279503E+02  0.13459752907E+01  0.26286801963E+03  0.26406227448E+03  0.41800000000E+01 0.  1.
        -11    1    1    2    0    0 -0.78530929350E+01  0.26804419989E+02  0.12348011326E+02  0.30538850392E+02  0.00000000000E+00 0.  1.
         11    1    1    2    0    0  0.43241969153E+02 -0.30828574557E+02  0.14542887629E+03  0.15482192017E+03  0.00000000000E+00 0. -1.
</event>
<event>
 7    1  0.2440960E-009  0.1170301E+03  0.7561462E-02  0.1248078E+00
          3   -1    0    0  501    0  0.00000000000E+00  0.00000000000E+00  0.19838497631E+03  0.19838497631E+03  0.00000000000E+00 0. -1.
         -3   -1    0    0    0  501 -0.00000000000E+00 -0.00000000000E+00 -0.97390147938E+02  0.97390147938E+02  0.00000000000E+00 0.  1.
         25    2    1    2    0    0  0.53981566834E+02 -0.52714479235E+02  0.97387414691E+02  0.17557112311E+03  0.12509230532E+03 0.  0.
          5    1    3    3  502    0  0.67607028108E+02  0.20108365234E+02  0.36189104083E+02  0.79386272467E+02  0.41800000000E+01 0. -1.
         -5    1    3    3    0  502 -0.13625461274E+02 -0.72822844468E+02  0.61198310608E+02  0.96184850640E+02  0.41800000000E+01 0. -1.
        -11    1    1    2    0    0 -0.52989601671E+01  0.37960862262E+02 -0.38382567365E+02  0.54243225569E+02  0.00000000000E+00 0.  1.
         11    1    1    2    0    0 -0.48682606667E+02  0.14753616972E+02  0.41989981042E+02  0.65960775568E+02  0.00000000000E+00 0. -1.
</event>
<event>
 7    1  0.2440960E-009  0.1777725E+03  0.7561462E-02  0.1169976E+00
          3   -1    0    0  501    0  0.00000000000E+00  0.00000000000E+00  0.66312407232E+03  0.66312407232E+03  0.00000000000E+00 0. -1.
         -3   -1    0    0    0  501 -0.00000000000E+00 -0.00000000000E+00 -0.51347256004E+02  0.51347256004E+02  0.00000000000E+00 0.  1.
         25    2    1    2    0    0 -0.98173286848E+02 -0.10715612405E+03  0.38150119652E+03  0.42697974505E+03  0.12509240810E+03 0.  0.
          5    1    3    3  502    0 -0.54716854543E+02 -0.12643063276E+03  0.22994239850E+03  0.26808509488E+03  0.41800000000E+01 0.  1.
         -5    1    3    3    0  502 -0.43456432304E+02  0.19274508702E+02  0.15155879802E+03  0.15889465017E+03  0.41800000000E+01 0.  1.
        -11    1    1    2    0    0  0.12178231124E+02  0.78370660606E+02  0.13007478755E+03  0.15234736661E+03  0.00000000000E+00 0.  1.
         11    1    1    2    0    0  0.85995055724E+02  0.28785463447E+02  0.10020083224E+03  0.13514421666E+03  0.00000000000E+00 0. -1.
</event>
<event>
 7    1  0.2440960E-009  0.1153468E+03  0.7561462E-02  0.1250977E+00
         -1   -1    0    0    0  501 -0.00000000000E+00  0.00000000000E+00  0.79969448489E+02  0.79969448489E+02  0.00000000000E+00 0.  1.
          1   -1    0    0  501    0  0.00000000000E+00 -0.00000000000E+00 -0.25710582047E+03  0.25710582047E+03  0.00000000000E+00 0. -1.
         25    2    1    2    0    0  0.70261444342E+02  0.31562869441E+02 -0.32707869409E+02  0.15050113684E+03  0.12509157518E+03 0.  0.
          5    1    3    3  502    0 -0.29128630902E+02  0.70875300071E+01  0.19009060335E+02  0.35742509630E+02  0.41800000000E+01 0. -1.
         -5    1    3    3    0  502  0.99390075244E+02  0.24475339434E+02 -0.51716929744E+02  0.11475862721E+03  0.41800000000E+01 0. -1.
        -11    1    1    2    0    0 -0.39114793468E+02  0.15057428842E+02 -0.11675287990E+03  0.12404808825E+03  0.00000000000E+00 0.  1.
         11    1    1    2    0    0 -0.31146650874E+02 -0.46620298282E+02 -0.27675622671E+02  0.62526043876E+02  0.00000000000E+00 0. -1.
</event>
<event>
 7    1  0.2671089E-009  0.1466074E+03  0.7561462E-02  0.1204705E+00
         -2   -1    0    0    0  501 -0.00000000000E+00  0.00000000000E+00  0.20654072290E+02  0.20654072290E+02  0.00000000000E+00 0.  1.
          2   -1    0    0  501    0  0.00000000000E+00 -0.00000000000E+00 -0.13533172690E+04  0.13533172690E+04  0.00000000000E+00 0. -1.
         25    2    1    2    0    0 -0.12467635613E+03 -0.11348639290E+02 -0.65065572247E+03  0.67429602943E+03  0.12509708521E+03 0.  0.
          5    1    3    3  502    0 -0.60002667040E+02 -0.44260659244E+02 -0.51507203998E+03  0.52045749565E+03  0.41800000000E+01 0. -1.
         -5    1    3    3    0  502 -0.64673689086E+02  0.32912019954E+02 -0.13558368248E+03  0.15383853377E+03  0.41800000000E+01 0. -1.
        -11    1    1    2    0    0  0.89768910019E+02 -0.27244434487E+02 -0.54699716631E+03  0.55498343792E+03  0.00000000000E+00 0. -1.
         11    1    1    2    0    0  0.34907446107E+02  0.38593073777E+02 -0.13501030794E+03  0.14469187395E+03  0.00000000000E+00 0.  1.
</event>
<event>
 7    1  0.2440960E-009  0.1132786E+03  0.7561462E-02  0.1254616E+00
         -1   -1    0    0    0  501 -0.00000000000E+00  0.00000000000E+00  0.12472874337E+03  0.12472874337E+03  0.00000000000E+00 0.  1.
          1   -1    0    0  501    0  0.00000000000E+00 -0.00000000000E+00 -0.13339173732E+03  0.13339173732E+03  0.00000000000E+00 0. -1.
         25    2    1    2    0    0  0.37144452448E+02  0.57085990728E+02  0.20897826890E+01  0.14244118366E+03  0.12508638186E+03 0.  0.
          5    1    3    3  502    0  0.64563381152E+02  0.52442197530E+02  0.42271052152E+02  0.93396619412E+02  0.41800000000E+01 0.  1.
         -5    1    3    3    0  502 -0.27418928704E+02  0.46437931975E+01 -0.40181269463E+02  0.49044564247E+02  0.41800000000E+01 0.  1.
        -11    1    1    2    0    0  0.63362213039E+01  0.23090736400E+02 -0.12344417735E+01  0.23976105906E+02  0.00000000000E+00 0.  1.
         11    1    1    2    0    0 -0.43480673752E+02 -0.80176727128E+02 -0.95183348615E+01  0.91703191119E+02  0.00000000000E+00 0. -1.
</event>
<event>
 7    1  0.2440960E-009  0.1006999E+03  0.7561462E-02  0.1278831E+00
          2   -1    0    0  501    0  0.00000000000E+00  0.00000000000E+00  0.98777110092E+02  0.98777110092E+02  0.00000000000E+00 0. -1.
         -2   -1    0    0    0  501 -0.00000000000E+00 -0.00000000000E+00 -0.15922073770E+03  0.15922073770E+03  0.00000000000E+00 0.  1.
         25    2    1    2    0    0  0.63250052329E+02 -0.17208918233E+02 -0.19164278131E+02  0.14251826845E+03  0.12508985291E+03 0.  0.
          5    1    3    3  502    0  0.30580407972E+02 -0.67973756605E+02  0.10042469617E+02  0.75325404312E+02  0.41800000000E+01 0.  1.
         -5    1    3    3    0  502  0.32669644358E+02  0.50764838372E+02 -0.29206747748E+02  0.67192864141E+02  0.41800000000E+01 0.  1.
        -11    1    1    2    0    0 -0.52490820555E+02  0.10430001053E+02 -0.67616755730E+02  0.86232805938E+02  0.00000000000E+00 0.  1.
         11    1    1    2    0    0 -0.10759231775E+02  0.67789171794E+01  0.26337406251E+02  0.29246773404E+02  0.00000000000E+00 0. -1.
</event>
<event>
 7    1  0.2440960E-009  0.1160552E+03  0.7561462E-02  0.1249750E+00
         -2   -1    0    0    0  501 -0.00000000000E+00  0.00000000000E+00  0.12151897937E+03  0.12151897937E+03  0.00000000000E+00 0.  1.
          2   -1    0    0  501    0  0.00000000000E+00 -0.00000000000E+00 -0.17557287463E+03  0.17557287463E+03  0.00000000000E+00 0. -1.
         25    2    1    2    0    0  0.98041524250E+02  0.15082389649E+02 -0.43768501225E+01  0.15970481034E+03  0.12508737217E+03 0.  0.
          5    1    3    3  502    0  0.54790388506E+02 -0.24227248728E+02 -0.55627576175E+02  0.81858694619E+02  0.41800000000E+01 0.  1.
         -5    1    3    3    0  502  0.43251135744E+02  0.39309638378E+02  0.51250726053E+02  0.77846115725E+02  0.41800000000E+01 0.  1.
        -11    1    1    2    0    0 -0.53498138858E+02 -0.35763822791E+02  0.41970556408E+01  0.64488116409E+02  0.00000000000E+00 0.  1.
         11    1    1    2    0    0 -0.44543385392E+02  0.20681433142E+02 -0.53874100781E+02  0.72898927248E+02  0.00000000000E+00 0. -1.
</event>
<event>
 7    1  0.2440960E-009  0.1168385E+03  0.7561462E-02  0.1248406E+00
         -1   -1    0    0    0  501 -0.00000000000E+00  0.00000000000E+00  0.17536368164E+03  0.17536368164E+03  0.00000000000E+00 0.  1.
          1   -1    0    0  501    0  0.00000000000E+00 -0.00000000000E+00 -0.20782918583E+03  0.20782918583E+03  0.00000000000E+00 0. -1.
         25    2    1    2    0    0  0.86830056275E+02 -0.31992843157E+02  0.10961747813E+03  0.19033243137E+03  0.12508973673E+03 0.  0.
          5    1    3    3  502    0  0.81564379895E+02 -0.62348928082E+02  0.33440922312E+02  0.10805509977E+03  0.41800000000E+01 0. -1.
         -5    1    3    3    0  502  0.52656763800E+01  0.30356084926E+02  0.76176555816E+02  0.82277331603E+02  0.41800000000E+01 0. -1.
        -11    1    1    2    0    0 -0.28301578683E+02  0.30042950074E+02 -0.23368871562E+01  0.41340286001E+02  0.00000000000E+00 0.  1.
         11    1    1    2    0    0 -0.58528477592E+02  0.19498930825E+01 -0.13974609516E+03  0.15152015010E+03  0.00000000000E+00 0. -1.
</event>
<event>
 7    1  0.2440960E-009  0.1248349E+03  0.7561462E-02  0.1235328E+00
         -1   -1    0    0    0  501 -0.00000000000E+00  0.00000000000E+00  0.69444038616E+02  0.69444038616E+02  0.00000000000E+00 0.  1.
          1   -1    0    0  501    0  0.00000000000E+00 -0.00000000000E+00 -0.35850502436E+03  0.35850502436E+03  0.00000000000E+00 0. -1.
         25    2    1    2    0    0 -0.13945353408E+02  0.11381470603E+03 -0.13304014103E+03  0.21562644635E+03  0.12508726973E+03 0.  0.
          5    1    3    3  502    0  0.26280489050E+02  0.33002717626E+02  0.12600935596E+02  0.44227813120E+02  0.41800000000E+01 0. -1.
         -5    1    3    3    0  502 -0.40225842458E+02  0.80811988401E+02 -0.14564107663E+03  0.17139863323E+03  0.41800000000E+01 0. -1.
        -11    1    1    2    0    0  0.19876648316E+02 -0.72717873507E+02 -0.32651199283E+02  0.82152730266E+02  0.00000000000E+00 0.  1.
         11    1    1    2    0    0 -0.59312949077E+01 -0.41096832521E+02 -0.12336964542E+03  0.13016988636E+03  0.00000000000E+00 0. -1.
</event>
<event>
 7    1  0.2440960E-009  0.1384111E+03  0.7561462E-02  0.1215483E+00
          1   -1    0    0  501    0  0.00000000000E+00  0.00000000000E+00  0.17257331215E+03  0.17257331215E+03  0.00000000000E+00 0. -1.
         -1   -1    0    0    0  501 -0.00000000000E+00 -0.00000000000E+00 -0.27592114116E+03  0.27592114116E+03  0.00000000000E+00 0.  1.
         25    2    1    2    0    0 -0.55539768781E+02  0.10515786907E+03 -0.20450162698E+03  0.26760235335E+03  0.12508901125E+03 0.  0.
          5    1    3    3  502    0 -0.68507889188E+02  0.80992767076E+02 -0.21349953593E+03  0.23843800754E+03  0.41800000000E+01 0.  1.
         -5    1    3    3    0  502  0.12968120407E+02  0.24165101995E+02  0.89979089405E+01  0.29164345811E+02  0.41800000000E+01 0.  1.
        -11    1    1    2    0    0  0.45108487447E+02 -0.87530831352E+01  0.59948452242E+02  0.75532834121E+02  0.00000000000E+00 0.  1.
         11    1    1    2    0    0  0.10431281334E+02 -0.96404785935E+02  0.41205345736E+02  0.10535926584E+03  0.00000000000E+00 0. -1.
</event>
<event>
 7    1  0.2440960E-009  0.3204567E+03  0.7561462E-02  0.1075439E+00
         -2   -1    0    0    0  501 -0.00000000000E+00  0.00000000000E+00  0.19942745218E+03  0.19942745218E+03  0.00000000000E+00 0.  1.
          2   -1    0    0  501    0  0.00000000000E+00 -0.00000000000E+00 -0.56743093401E+03  0.56743093401E+03  0.00000000000E+00 0. -1.
         25    2    1    2    0    0  0.58294839999E+01 -0.31363135357E+03 -0.24566167382E+03  0.41761127341E+03  0.12510359255E+03 0.  0.
          5    1    3    3  502    0  0.35555092246E+02 -0.54581599687E+02 -0.98340819021E+01  0.66011341267E+02  0.41800000000E+01 0. -1.
         -5    1    3    3    0  502 -0.29725608246E+02 -0.25904975389E+03 -0.23582759191E+03  0.35159993214E+03  0.41800000000E+01 0. -1.
        -11    1    1    2    0    0 -0.16675931566E+02  0.20867546848E+03 -0.34944298127E+02  0.21223723002E+03  0.00000000000E+00 0.  1.
         11    1    1    2    0    0  0.10846447566E+02  0.10495588510E+03 -0.87397509887E+02  0.13700988277E+03  0.00000000000E+00 0. -1.
</event>
<event>
 7    1  0.2440960E-009  0.1193408E+03  0.7561462E-02  0.1244188E+00
         -3   -1    0    0    0  501 -0.00000000000E+00  0.00000000000E+00  0.10824530253E+03  0.10824530253E+03  0.00000000000E+00 0.  1.
          3   -1    0    0  501    0  0.00000000000E+00 -0.00000000000E+00 -0.43548630138E+03  0.43548630138E+03  0.00000000000E+00 0. -1.
         25    2    1    2    0    0 -0.52817519216E+01 -0.94158789107E+02 -0.37366031174E+03  0.40517080113E+03  0.12509026758E+03 0.  0.
          5    1    3    3  502    0 -0.53087376012E+02 -0.22882915215E+02 -0.23503033136E+03  0.24207153150E+03  0.41800000000E+01 0.  1.
         -5    1    3    3    0  502  0.47805624090E+02 -0.71275873893E+02 -0.13862998038E+03  0.16309926963E+03  0.41800000000E+01 0.  1.
        -11    1    1    2    0    0 -0.27821284406E+01  0.31125851317E+02 -0.27114499502E+02  0.41373360295E+02  0.00000000000E+00 0. -1.
         11    1    1    2    0    0  0.80638803622E+01  0.63032937790E+02  0.73533812389E+02  0.97187442489E+02  0.00000000000E+00 0.  1.
</event>
<event>
 7    1  0.2440960E-009  0.1868424E+03  0.7561462E-02  0.1161341E+00
         -2   -1    0    0    0  501 -0.00000000000E+00  0.00000000000E+00  0.20985643848E+02  0.20985643848E+02  0.00000000000E+00 0.  1.
          2   -1    0    0  501    0  0.00000000000E+00 -0.00000000000E+00 -0.20422047669E+04  0.20422047669E+04  0.00000000000E+00 0. -1.
         25    2    1    2    0    0 -0.77507349673E+02  0.15303174605E+03 -0.12246837762E+04  0.12429499137E+04  0.12509209219E+03 0.  0.
          5    1    3    3  502    0 -0.38867828277E+02  0.12221713102E+03 -0.11175437791E+04  0.11248863524E+04  0.41800000000E+01 0. -1.
         -5    1    3    3    0  502 -0.38639521395E+02  0.30814615033E+02 -0.10713999718E+03  0.11806356131E+03  0.41800000000E+01 0. -1.
        -11    1    1    2    0    0  0.92595680584E+02 -0.83712216829E+02 -0.50677615639E+03  0.52192314376E+03  0.00000000000E+00 0.  1.
         11    1    1    2    0    0 -0.15088330911E+02 -0.69319529225E+02 -0.28975919044E+03  0.29831735335E+03  0.00000000000E+00 0. -1.
</event>
<event>
 7    1  0.2440960E-009  0.8006899E+02  0.7561462E-02  0.1328856E+00
          2   -1    0    0  501    0  0.00000000000E+00  0.00000000000E+00  0.10005741089E+04  0.10005741089E+04  0.00000000000E+00 0.  1.
         -2   -1    0    0    0  501 -0.00000000000E+00 -0.00000000000E+00 -0.20110603098E+02  0.20110603098E+02  0.00000000000E+00 0. -1.
         25    2    1    2    0    0 -0.10758566308E+02 -0.28474413440E+02  0.84506436425E+03  0.85481462888E+03  0.12509089110E+03 0.  0.
          5    1    3    3  502    0 -0.47266833346E+02 -0.34270723230E+01  0.13107835376E+03  0.13944499124E+03  0.41800000000E+01 0.  1.
         -5    1    3    3    0  502  0.36508267038E+02 -0.25047341117E+02  0.71398601050E+03  0.71536963763E+03  0.41800000000E+01 0.  1.
        -11    1    1    2    0    0  0.35176504478E+01 -0.19377979889E+02  0.10895284605E+03  0.11071857402E+03  0.00000000000E+00 0.  1.
         11    1    1    2    0    0  0.72409158602E+01  0.47852393329E+02  0.26446295470E+02  0.55151509081E+02  0.00000000000E+00 0. -1.
</event>
<event>
 7    1  0.2440960E-009  0.9039556E+02  0.7561462E-02  0.1301897E+00
          1   -1    0    0  501    0  0.00000000000E+00  0.00000000000E+00  0.60481354618E+03  0.60481354618E+03  0.00000000000E+00 0. -1.
         -1   -1    0    0    0  501 -0.00000000000E+00 -0.00000000000E+00 -0.25978399290E+02  0.25978399290E+02  0.00000000000E+00 0.  1.
         25    2    1    2    0    0  0.44782414100E+02  0.44143851943E+02  0.37204292217E+03  0.39751469476E+03  0.12509137595E+03 0.  0.
          5    1    3    3  502    0  0.80012909767E+01  0.45046417633E+02  0.35281042532E+03  0.35578907939E+03  0.41800000000E+01 0. -1.
         -5    1    3    3    0  502  0.36781123123E+02 -0.90256568977E+00  0.19232496848E+02  0.41725615371E+02  0.41800000000E+01 0. -1.
        -11    1    1    2    0    0 -0.31226799313E+02 -0.65478423978E+02  0.10004438891E+03  0.12357757383E+03  0.00000000000E+00 0.  1.
         11    1    1    2    0    0 -0.13555614787E+02  0.21334572035E+02  0.10674783581E+03  0.10969967688E+03  0.00000000000E+00 0. -1.
</event>
<event>
 7    1  0.2440960E-009  0.8701211E+02  0.7561462E-02  0.1310253E+00
          1   -1    0    0  501    0  0.00000000000E+00  0.00000000000E+00  0.21585570688E+03  0.21585570688E+03  0.00000000000E+00 0. -1.
         -1   -1    0    0    0  501 -0.00000000000E+00 -0.00000000000E+00 -0.60507294624E+02  0.60507294624E+02  0.00000000000E+00 0.  1.
         25    2    1    2    0    0 -0.80858770357E+01  0.34696440633E+02  0.78570132798E+02  0.15195326650E+03  0.12508918830E+03 0.  0.
          5    1    3    3  502    0 -0.37396234891E+02 -0.26290548814E+02  0.69875098710E+02  0.83604265207E+02  0.41800000000E+01 0. -1.
         -5    1    3    3    0  502  0.29310357855E+02  0.60986989447E+02  0.86950340876E+01  0.68349001289E+02  0.41800000000E+01 0. -1.
        -11    1    1    2    0    0  0.19132938927E+02 -0.42629661933E+02  0.29573276647E+00  0.46727346238E+02  0.00000000000E+00 0.  1.
         11    1    1    2    0    0 -0.11047061892E+02  0.79332213005E+01  0.76482546694E+02  0.77682388772E+02  0.00000000000E+00 0. -1.
</event>
<event>
 7    1  0.3311776E-009  0.1046165E+03  0.7561462E-02  0.1270877E+00
          2   -1    0    0  501    0  0.00000000000E+00  0.00000000000E+00  0.40535906588E+03  0.40535906588E+03  0.00000000000E+00 0. -1.
         -2   -1    0    0    0  501 -0.00000000000E+00 -0.00000000000E+00 -0.54793241249E+02  0.54793241249E+02  0.00000000000E+00 0.  1.
         25    2    1    2    0    0 -0.67246560739E+02  0.27933348629E+02  0.29952865959E+03  0.33267103579E+03  0.12510087227E+03 0.  0.
          5    1    3    3  502    0 -0.55538578916E+02  0.61180604953E+02  0.98975037836E+02  0.12900050653E+03  0.41800000000E+01 0. -1.
         -5    1    3    3    0  502 -0.11707981823E+02 -0.33247256325E+02  0.20055362175E+03  0.20367052926E+03  0.41800000000E+01 0. -1.
        -11    1    1    2    0    0  0.41704440071E+02 -0.44161404147E+02 -0.78768535390E+01  0.61249773547E+02  0.00000000000E+00 0.  1.
         11    1    1    2    0    0  0.25542120668E+02  0.16228055518E+02  0.58914018583E+02  0.66231497792E+02  0.00000000000E+00 0. -1.
</event>
<event>
 7    1  0.2662451E-009  0.9079929E+02  0.7561462E-02  0.1300928E+00
          1   -1    0    0  501    0  0.00000000000E+00  0.00000000000E+00  0.22667103752E+03  0.22667103752E+03  0.00000000000E+00 0. -1.
         -1   -1    0    0    0  501 -0.00000000000E+00 -0.00000000000E+00 -0.74396496962E+02  0.74396496962E+02  0.00000000000E+00 0.  1.
         25    2    1    2    0    0 -0.15317767266E+02 -0.48828895131E+02  0.14142975373E+03  0.19562484371E+03  0.12509120369E+03 0.  0.
          5    1    3    3  502    0  0.47989422727E+02 -0.21175094953E+01  0.23098722580E+02  0.53464866267E+02  0.41800000000E+01 0. -1.
         -5    1    3    3    0  502 -0.63307189993E+02 -0.46711385636E+02  0.11833103115E+03  0.14215997744E+03  0.41800000000E+01 0. -1.
        -11    1    1    2    0    0  0.18680226579E+02  0.29087276780E+02 -0.38767165008E+02  0.51941444129E+02  0.00000000000E+00 0.  1.
         11    1    1    2    0    0 -0.33624593126E+01  0.19741618351E+02  0.49611951833E+02  0.53501246643E+02  0.00000000000E+00 0. -1.
</event>
<event>
 7    1  0.2440960E-009  0.1627905E+03  0.7561462E-02  0.1185582E+00
          2   -1    0    0  501    0  0.00000000000E+00  0.00000000000E+00  0.21318892637E+03  0.21318892637E+03  0.00000000000E+00 0. -1.
         -2   -1    0    0    0  501 -0.00000000000E+00 -0.00000000000E+00 -0.15857104791E+03  0.15857104791E+03  0.00000000000E+00 0.  1.
         25    2    1    2    0    0 -0.27459429181E+02  0.13887400263E+03  0.75627510575E+02  0.20348796794E+03  0.12509126222E+03 0.  0.
          5    1    3    3  502    0 -0.50791738233E+02  0.75939933092E+02 -0.12849584083E+02  0.92353983789E+02  0.41800000000E+01 0. -1.
         -5    1    3    3    0  502  0.23332309052E+02  0.62934069542E+02  0.88477094658E+02  0.11113398415E+03  0.41800000000E+01 0. -1.
        -11    1    1    2    0    0 -0.40603082145E+01 -0.13506525373E+03 -0.19050949632E+02  0.13646262327E+03  0.00000000000E+00 0. -1.
         11    1    1    2    0    0  0.31519737396E+02 -0.38087489013E+01 -0.19586824862E+01  0.31809383062E+02  0.00000000000E+00 0.  1.
</event>
<event>
 7    1  0.2440960E-009  0.9989181E+02  0.7561462E-02  0.1280524E+00
         -1   -1    0    0    0  501 -0.00000000000E+00  0.00000000000E+00  0.13876275415E+03  0.13876275415E+03  0.00000000000E+00 0.  1.
          1   -1    0    0  501    0  0.00000000000E+00 -0.00000000000E+00 -0.13282314220E+03  0.13282314220E+03  0.00000000000E+00 0. -1.
         25    2    1    2    0    0  0.24484487699E+02  0.30929256597E+02 -0.67432925808E+02  0.14748935967E+03  0.12509917138E+03 0.  0.
          5    1    3    3  502    0  0.57106751879E+02 -0.24686873112E+02 -0.14637535079E+02  0.64049610829E+02  0.41800000000E+01 0.  1.
         -5    1    3    3    0  502 -0.32622264179E+02  0.55616129710E+02 -0.52795390729E+02  0.83439748839E+02  0.41800000000E+01 0.  1.
        -11    1    1    2    0    0  0.16339846031E+02  0.63512034065E+01  0.66039901932E+02  0.68327132241E+02  0.00000000000E+00 0.  1.
         11    1    1    2    0    0 -0.40824333731E+02 -0.37280460004E+02  0.73326358262E+01  0.55769404433E+02  0.00000000000E+00 0. -1.
</event>
<event>
 7    1  0.2440960E-009  0.1370545E+03  0.7561462E-02  0.1217348E+00
         -2   -1    0    0    0  501 -0.00000000000E+00  0.00000000000E+00  0.34580210228E+03  0.34580210228E+03  0.00000000000E+00 0.  1.
          2   -1    0    0  501    0  0.00000000000E+00 -0.00000000000E+00 -0.17768593688E+03  0.17768593688E+03  0.00000000000E+00 0. -1.
         25    2    1    2    0    0  0.72478692394E+02  0.64617538420E+02 -0.12462921665E+03  0.20151430307E+03  0.12508791139E+03 0.  0.
          5    1    3    3  502    0  0.93150623203E+02  0.25739260512E+02 -0.37396070742E+02  0.10370866233E+03  0.41800000000E+01 0. -1.
         -5    1    3    3    0  502 -0.20671930809E+02  0.38878277908E+02 -0.87233145906E+02  0.97805640743E+02  0.41800000000E+01 0. -1.
        -11    1    1    2    0    0  0.17309572084E+02 -0.34227127226E+02  0.68311288349E+02  0.78342514893E+02  0.00000000000E+00 0.  1.
         11    1    1    2    0    0 -0.89788264478E+02 -0.30390411194E+02  0.22443409369E+03  0.24363122120E+03  0.00000000000E+00 0. -1.
</event>
<event>
 7    1  0.2440960E-009  0.3137904E+03  0.7561462E-02  0.1078543E+00
          2   -1    0    0  501    0  0.00000000000E+00  0.00000000000E+00  0.59649923108E+03  0.59649923108E+03  0.00000000000E+00 0. -1.
         -2   -1    0    0    0  501 -0.00000000000E+00 -0.00000000000E+00 -0.17191550693E+03  0.17191550693E+03  0.00000000000E+00 0.  1.
         25    2    1    2    0    0  0.90328448398E+02  0.28256998486E+03  0.27851813031E+03  0.42570624650E+03  0.12509370272E+03 0.  0.
          5    1    3    3  502    0 -0.33972137611E+01 -0.10761731037E+02  0.28204934489E+01  0.12360562267E+02  0.41800000000E+01 0.  1.
         -5    1    3    3    0  502  0.93725662159E+02  0.29333171590E+03  0.27569763686E+03  0.41334568423E+03  0.41800000000E+01 0.  1.
        -11    1    1    2    0    0  0.37588784915E+01 -0.11761396732E+03  0.35260300241E+02  0.12284324666E+03  0.00000000000E+00 0. -1.
         11    1    1    2    0    0 -0.94087326889E+02 -0.16495601754E+03  0.11080529359E+03  0.21986524485E+03  0.00000000000E+00 0.  1.
</event>
<event>
 7    1  0.2440960E-009  0.8549968E+02  0.7561462E-02  0.1314131E+00
          1   -1    0    0  501    0  0.00000000000E+00  0.00000000000E+00  0.20049834726E+03  0.20049834726E+03  0.00000000000E+00 0. -1.
         -1   -1    0    0    0  501 -0.00000000000E+00 -0.00000000000E+00 -0.91195535655E+02  0.91195535655E+02  0.00000000000E+00 0.  1.
         25    2    1    2    0    0  0.33623654268E+01 -0.19539304462E+02 -0.25874532190E+02  0.12926712767E+03  0.12508960372E+03 0.  0.
          5    1    3    3  502    0  0.53845388368E+01 -0.52609922835E+02 -0.60972525658E+02  0.80820285351E+02  0.41800000000E+01 0.  1.
         -5    1    3    3    0  502 -0.20221734100E+01  0.33070618373E+02  0.35097993468E+02  0.48446842316E+02  0.41800000000E+01 0.  1.
        -11    1    1    2    0    0 -0.37569469335E+02 -0.10522518328E+02  0.35121215872E+02  0.52494649464E+02  0.00000000000E+00 0.  1.
         11    1    1    2    0    0  0.34207103908E+02  0.30061822789E+02  0.10005612792E+03  0.10993210578E+03  0.00000000000E+00 0. -1.
</event>
<event>
 7    1  0.2440960E-009  0.9377695E+02  0.7561462E-02  0.1293955E+00
          2   -1    0    0  501    0  0.00000000000E+00  0.00000000000E+00  0.52586457015E+02  0.52586457015E+02  0.00000000000E+00 0. -1.
         -2   -1    0    0    0  501 -0.00000000000E+00 -0.00000000000E+00 -0.30884911233E+03  0.30884911233E+03  0.00000000000E+00 0.  1.
         25    2    1    2    0    0 -0.11610993904E+02 -0.27944692929E+02 -0.92431217405E+02  0.15845528718E+03  0.12509527187E+03 0.  0.
          5    1    3    3  502    0  0.17370919387E+02 -0.33465615139E+02  0.19479638832E+02  0.42645339323E+02  0.41800000000E+01 0. -1.
         -5    1    3    3    0  502 -0.28981913291E+02  0.55209222101E+01 -0.11191085624E+03  0.11580994786E+03  0.41800000000E+01 0. -1.
        -11    1    1    2    0    0  0.45668554039E+02  0.58396594311E+02 -0.10289201376E+03  0.12681697659E+03  0.00000000000E+00 0. -1.
         11    1    1    2    0    0 -0.34057560134E+02 -0.30451901382E+02 -0.60939424148E+02  0.76163305571E+02  0.00000000000E+00 0.  1.
</event>
<event>
 7    1  0.2440960E-009  0.1106493E+03  0.7561462E-02  0.1259372E+00
          2   -1    0    0  501    0  0.00000000000E+00  0.00000000000E+00  0.60419466293E+03  0.60419466293E+03  0.00000000000E+00 0. -1.
         -2   -1    0    0    0  501 -0.00000000000E+00 -0.00000000000E+00 -0.40049993292E+02  0.40049993292E+02  0.00000000000E+00 0.  1.
         25    2    1    2    0    0  0.81105732016E+02  0.40443660802E+02  0.17091752404E+03  0.23037854372E+03  0.12509054289E+03 0.  0.
          5    1    3    3  502    0  0.21294564002E+02  0.23901037339E+02 -0.14069221390E+02  0.35215528285E+02  0.41800000000E+01 0. -1.
         -5    1    3    3    0  502  0.59811168014E+02  0.16542623464E+02  0.18498674543E+03  0.19516301544E+03  0.41800000000E+01 0. -1.
        -11    1    1    2    0    0 -0.55428390276E+02  0.21741852088E+02  0.22339768963E+03  0.23119589597E+03  0.00000000000E+00 0.  1.
         11    1    1    2    0    0 -0.25677341740E+02 -0.62185512891E+02  0.16982945597E+03  0.18267021653E+03  0.00000000000E+00 0. -1.
</event>
<event>
 7    1  0.2440960E-009  0.8405471E+02  0.7561462E-02  0.1317923E+00
         -2   -1    0    0    0  501 -0.00000000000E+00  0.00000000000E+00  0.37727652225E+03  0.37727652225E+03  0.00000000000E+00 0. -1.
          2   -1    0    0  501    0  0.00000000000E+00 -0.00000000000E+00 -0.43707684288E+02  0.43707684288E+02  0.00000000000E+00 0.  1.
         25    2    1    2    0    0  0.21379012752E+02 -0.17554828508E+02  0.23208671936E+03  0.26509937350E+03  0.12509275892E+03 0.  0.
          5    1    3    3  502    0 -0.51181391566E+01 -0.24503227732E+02  0.23578203030E+03  0.23714392619E+03  0.41800000000E+01 0.  1.
         -5    1    3    3    0  502  0.26497151909E+02  0.69483992239E+01 -0.36953109367E+01  0.27955447304E+02  0.41800000000E+01 0.  1.
        -11    1    1    2    0    0  0.17974173234E+02  0.56719873151E+02  0.70687686153E+02  0.92395691931E+02  0.00000000000E+00 0.  1.
         11    1    1    2    0    0 -0.39353185986E+02 -0.39165044643E+02  0.30794432444E+02  0.63489141108E+02  0.00000000000E+00 0. -1.
</event>
<event>
 7    1  0.2440960E-009  0.1067555E+03  0.7561462E-02  0.1266699E+00
         -2   -1    0    0    0  501 -0.00000000000E+00  0.00000000000E+00  0.31927704728E+02  0.31927704728E+02  0.00000000000E+00 0.  1.
          2   -1    0    0  501    0  0.00000000000E+00 -0.00000000000E+00 -0.59885833840E+03  0.59885833840E+03  0.00000000000E+00 0. -1.
         25    2    1    2    0    0  0.71880525884E+02 -0.33453708325E+02 -0.23772513911E+03  0.28008145346E+03  0.12508564349E+03 0.  0.
          5    1    3    3  502    0  0.86017572444E+02 -0.18795661646E+02 -0.74139205144E+02  0.11517983246E+03  0.41800000000E+01 0.  1.
         -5    1    3    3    0  502 -0.14137046560E+02 -0.14658046679E+02 -0.16358593397E+03  0.16490162100E+03  0.41800000000E+01 0.  1.
        -11    1    1    2    0    0  0.66474397235E+01  0.24679363261E+02 -0.22720767154E+02  0.34197846218E+02  0.00000000000E+00 0.  1.
         11    1    1    2    0    0 -0.78527965608E+02  0.87743450640E+01 -0.30648472741E+03  0.31650674345E+03  0.00000000000E+00 0. -1.
</event>
<event>
 7    1  0.2440960E-009  0.1069215E+03  0.7561462E-02  0.1266379E+00
          2   -1    0    0  501    0  0.00000000000E+00  0.00000000000E+00  0.52746788633E+03  0.52746788633E+03  0.00000000000E+00 0.  1.
         -2   -1    0    0    0  501 -0.00000000000E+00 -0.00000000000E+00 -0.34847697757E+02  0.34847697757E+02  0.00000000000E+00 0. -1.
         25    2    1    2    0    0 -0.25116057226E+02  0.67786727727E+02  0.34029168001E+03  0.36969420363E+03  0.12509804126E+03 0.  0.
          5    1    3    3  502    0 -0.55713637940E+02 -0.10462926191E+02  0.98984893957E+02  0.11414448698E+03  0.41800000000E+01 0. -1.
         -5    1    3    3    0  502  0.30597580714E+02  0.78249653918E+02  0.24130678606E+03  0.25554971665E+03  0.41800000000E+01 0. -1.
        -11    1    1    2    0    0  0.21094552718E+02 -0.44494583623E+02  0.12492396655E+02  0.50801654504E+02  0.00000000000E+00 0. -1.
         11    1    1    2    0    0  0.40215045082E+01 -0.23292144104E+02  0.13983611191E+03  0.14181972595E+03  0.00000000000E+00 0.  1.
</event>
<event>
 7    1  0.2440960E-009  0.1098028E+03  0.7561462E-02  0.1260935E+00
          2   -1    0    0  501    0  0.00000000000E+00  0.00000000000E+00  0.29337151172E+03  0.29337151172E+03  0.00000000000E+00 0. -1.
         -2   -1    0    0    0  501 -0.00000000000E+00 -0.00000000000E+00 -0.52691588202E+02  0.52691588202E+02  0.00000000000E+00 0.  1.
         25    2    1    2    0    0 -0.44297403132E+01 -0.51375183941E+02  0.17637234845E+03  0.22228948061E+03  0.12508547386E+03 0.  0.
          5    1    3    3  502    0 -0.60240270195E+02 -0.23074958487E+02  0.12687713719E+03  0.14239601190E+03  0.41800000000E+01 0.  1.
         -5    1    3    3    0  502  0.55810529882E+02 -0.28300225455E+02  0.49495211258E+02  0.79893468719E+02  0.41800000000E+01 0.  1.
        -11    1    1    2    0    0 -0.35407500353E+02  0.15555309046E+02 -0.17613124384E+01  0.38713833991E+02  0.00000000000E+00 0.  1.
         11    1    1    2    0    0  0.39837240666E+02  0.35819874895E+02  0.66068887511E+02  0.85059785318E+02  0.00000000000E+00 0. -1.
</event>
<event>
 7    1  0.2440960E-009  0.1205038E+03  0.7561462E-02  0.1242268E+00
          2   -1    0    0  501    0  0.00000000000E+00  0.00000000000E+00  0.95575823830E+02  0.95575823830E+02  0.00000000000E+00 0. -1.
         -2   -1    0    0    0  501 -0.00000000000E+00 -0.00000000000E+00 -0.21282506429E+03  0.21282506429E+03  0.00000000000E+00 0.  1.
         25    2    1    2    0    0 -0.48588170786E+02 -0.42164169734E+02 -0.13484324806E+03  0.19485484990E+03  0.12508830254E+03 0.  0.
          5    1    3    3  502    0 -0.78386554397E+02  0.78132273424E+01 -0.55847379587E+02  0.96653508154E+02  0.41800000000E+01 0. -1.
         -5    1    3    3    0  502  0.29798383611E+02 -0.49977397076E+02 -0.78995868472E+02  0.98201341743E+02  0.41800000000E+01 0. -1.
        -11    1    1    2    0    0  0.42252139139E+02 -0.16071812312E+02  0.29215629866E+02  0.53824710322E+02  0.00000000000E+00 0.  1.
         11    1    1    2    0    0  0.63360316473E+01  0.58235982046E+02 -0.11621622263E+02  0.59721327898E+02  0.00000000000E+00 0. -1.
</event>
<event>
 7    1  0.2440960E-009  0.1129051E+03  0.7561462E-02  0.1255283E+00
         -2   -1    0    0    0  501 -0.00000000000E+00  0.00000000000E+00  0.16046041659E+02  0.16046041659E+02  0.00000000000E+00 0.  1.
          2   -1    0    0  501    0  0.00000000000E+00 -0.00000000000E+00 -0.19148850253E+04  0.19148850253E+04  0.00000000000E+00 0. -1.
         25    2    1    2    0    0  0.25404749181E+02  0.79372060113E+02 -0.16058666855E+04  0.16128859113E+04  0.12509127094E+03 0.  0.
          5    1    3    3  502    0 -0.12913367056E+01 -0.13548917815E+02 -0.93176418837E+03  0.93187296122E+03  0.41800000000E+01 0.  1.
         -5    1    3    3    0  502  0.26696085887E+02  0.92920977928E+02 -0.67410249716E+03  0.68101295011E+03  0.41800000000E+01 0.  1.
        -11    1    1    2    0    0  0.27067299030E+02 -0.43523521003E+02 -0.19213531196E+03  0.19885400086E+03  0.00000000000E+00 0. -1.
         11    1    1    2    0    0 -0.52472048211E+02 -0.35848539110E+02 -0.10083698619E+03  0.11919115481E+03  0.00000000000E+00 0.  1.
</event>
<event>
 7    1  0.2440960E-009  0.1034774E+03  0.7561462E-02  0.1273149E+00
          2   -1    0    0  501    0  0.00000000000E+00  0.00000000000E+00  0.42707593785E+02  0.42707593785E+02  0.00000000000E+00 0. -1.
         -2   -1    0    0    0  501 -0.00000000000E+00 -0.00000000000E+00 -0.32691707466E+03  0.32691707466E+03  0.00000000000E+00 0.  1.
         25    2    1    2    0    0  0.33739302987E+02 -0.92770067600E+01 -0.20879089546E+03  0.24589522388E+03  0.12508564938E+03 0.  0.
          5    1    3    3  502    0 -0.29393860173E+02 -0.30446527496E+02 -0.22699671160E+02  0.48205160753E+02  0.41800000000E+01 0.  1.
         -5    1    3    3    0  502  0.63133163160E+02  0.21169520736E+02 -0.18609122430E+03  0.19769006313E+03  0.41800000000E+01 0.  1.
        -11    1    1    2    0    0  0.62079957205E+01 -0.36459466614E+02 -0.33873566514E+02  0.50152272382E+02  0.00000000000E+00 0. -1.
         11    1    1    2    0    0 -0.39947298708E+02  0.45736473374E+02 -0.41545018904E+02  0.73577172183E+02  0.00000000000E+00 0.  1.
</event>
<event>
 7    1  0.2440960E-009  0.9495324E+02  0.7561462E-02  0.1291281E+00
          2   -1    0    0  501    0  0.00000000000E+00  0.00000000000E+00  0.86174697893E+03  0.86174697893E+03  0.00000000000E+00 0. -1.
         -2   -1    0    0    0  501 -0.00000000000E+00 -0.00000000000E+00 -0.16725410747E+02  0.16725410747E+02  0.00000000000E+00 0.  1.
         25    2    1    2    0    0 -0.31049359692E+02  0.21483269424E+02  0.62701839922E+03  0.64048803646E+03  0.12508900148E+03 0.  0.
          5    1    3    3  502    0 -0.68021924114E+02  0.22195098679E+02  0.21166324294E+03  0.22346902554E+03  0.41800000000E+01 0.  1.
         -5    1    3    3    0  502  0.36972564422E+02 -0.71182925537E+00  0.41535515629E+03  0.41701901093E+03  0.41800000000E+01 0.  1.
        -11    1    1    2    0    0  0.53395057159E+02 -0.57808615790E+01  0.19504926854E+03  0.20230834794E+03  0.00000000000E+00 0.  1.
         11    1    1    2    0    0 -0.22345697468E+02 -0.15702407845E+02  0.22953900429E+02  0.35676005274E+02  0.00000000000E+00 0. -1.
</event>
<event>
 7    1  0.2440960E-009  0.1011695E+03  0.7561462E-02  0.1277856E+00
         -1   -1    0    0    0  501 -0.00000000000E+00  0.00000000000E+00  0.23698983679E+03  0.23698983679E+03  0.00000000000E+00 0.  1.
          1   -1    0    0  501    0  0.00000000000E+00 -0.00000000000E+00 -0.50221232767E+02  0.50221232767E+02  0.00000000000E+00 0. -1.
         25    2    1    2    0    0 -0.85053720572E+01  0.20571618842E+01  0.11917215194E+03  0.17299700378E+03  0.12509751495E+03 0.  0.
          5    1    3    3  502    0 -0.78551749189E+01  0.57749260331E+02  0.25099997329E+02  0.63593734815E+02  0.41800000000E+01 0.  1.
         -5    1    3    3    0  502 -0.65019713830E+00 -0.55692098446E+02  0.94072154615E+02  0.10940326896E+03  0.41800000000E+01 0.  1.
        -11    1    1    2    0    0  0.19834954104E+02  0.39920219982E+02  0.17519763141E+02  0.47895630993E+02  0.00000000000E+00 0.  1.
         11    1    1    2    0    0 -0.11329582047E+02 -0.41977381866E+02  0.50076688941E+02  0.66318434790E+02  0.00000000000E+00 0. -1.
</event>
<event>
 7    1  0.2440960E-009  0.1527393E+03  0.7561462E-02  0.1197147E+00
         -2   -1    0    0    0  501 -0.00000000000E+00  0.00000000000E+00  0.46939435129E+02  0.46939435129E+02  0.00000000000E+00 0.  1.
          2   -1    0    0  501    0  0.00000000000E+00 -0.00000000000E+00 -0.55803582362E+03  0.55803582362E+03  0.00000000000E+00 0. -1.
         25    2    1    2    0    0  0.37444223778E+02 -0.11362901981E+03 -0.27971204977E+03  0.32893842429E+03  0.12509209468E+03 0.  0.
          5    1    3    3  502    0  0.83513470627E+02 -0.80246165192E+02 -0.18083381998E+03  0.21478428633E+03  0.41800000000E+01 0. -1.
         -5    1    3    3    0  502 -0.46069246850E+02 -0.33382854618E+02 -0.98878229791E+02  0.11415413796E+03  0.41800000000E+01 0. -1.
        -11    1    1    2    0    0 -0.18858269981E+02  0.15423680792E+01 -0.75059844201E+00  0.18936120088E+02  0.00000000000E+00 0.  1.
         11    1    1    2    0    0 -0.18585953796E+02  0.11208665173E+03 -0.23063374028E+03  0.25710071437E+03  0.00000000000E+00 0. -1.
</event>
<event>
 7    1  0.2440960E-009  0.1185860E+03  0.7561462E-02  0.1245448E+00
         -1   -1    0    0    0  501 -0.00000000000E+00  0.00000000000E+00  0.51616804191E+02  0.51616804191E+02  0.00000000000E+00 0.  1.
          1   -1    0    0  501    0  0.00000000000E+00 -0.00000000000E+00 -0.38453996838E+03  0.38453996838E+03  0.00000000000E+00 0. -1.
         25    2    1    2    0    0 -0.69923046675E+02  0.30650153136E+02 -0.25472819138E+03  0.29387487273E+03  0.12508926810E+03 0.  0.
          5    1    3    3  502    0 -0.95862806930E+02 -0.50582461005E+01 -0.13113039227E+03  0.16256665028E+03  0.41800000000E+01 0. -1.
         -5    1    3    3    0  502  0.25939760255E+02  0.35708399237E+02 -0.12359779911E+03  0.13130822245E+03  0.41800000000E+01 0. -1.
        -11    1    1    2    0    0  0.75547786940E+02 -0.11039317217E+02 -0.17610699133E+02  0.78354778795E+02  0.00000000000E+00 0.  1.
         11    1    1    2    0    0 -0.56247402645E+01 -0.19610835919E+02 -0.60584273676E+02  0.63927121047E+02  0.00000000000E+00 0. -1.
</event>
<event>
 7    1  0.2440960E-009  0.7780420E+02  0.7561462E-02  0.1335401E+00
         -2   -1    0    0    0  501 -0.00000000000E+00  0.00000000000E+00  0.90564039785E+01  0.90564039785E+01  0.00000000000E+00 0.  1.
          2   -1    0    0  501    0  0.00000000000E+00 -0.00000000000E+00 -0.13927294344E+04  0.13927294344E+04  0.00000000000E+00 0. -1.
         25    2    1    2    0    0  0.11379728473E+02  0.21010113970E+01 -0.95690848726E+03  0.96511963147E+03  0.12509251616E+03 0.  0.
          5    1    3    3  502    0  0.32175695812E+02 -0.15318680257E+02 -0.78823339400E+02  0.86605592198E+02  0.41800000000E+01 0. -1.
         -5    1    3    3    0  502 -0.20795967339E+02  0.17419691654E+02 -0.87808514786E+03  0.87851403927E+03  0.41800000000E+01 0. -1.
        -11    1    1    2    0    0 -0.26706868179E+02 -0.41868425238E+02 -0.21591095436E+03  0.22154855462E+03  0.00000000000E+00 0.  1.
         11    1    1    2    0    0  0.15327139706E+02  0.39767413841E+02 -0.21085358880E+03  0.21511765229E+03  0.00000000000E+00 0. -1.
</event>
<event>
 7    1  0.3482630E-009  0.1419534E+03  0.7561462E-02  0.1210724E+00
         -2   -1    0    0    0  501 -0.00000000000E+00  0.00000000000E+00  0.12805483450E+03  0.12805483450E+03  0.00000000000E+00 0.  1.
          2   -1    0    0  501    0  0.00000000000E+00 -0.00000000000E+00 -0.25836950376E+03  0.25836950376E+03  0.00000000000E+00 0. -1.
         25    2    1    2    0    0  0.64371856008E+02  0.12309386259E+03 -0.11507825414E+03  0.21951410786E+03  0.12509038381E+03 0.  0.
          5    1    3    3  502    0  0.69127823465E+02  0.11479691520E+03 -0.13917979451E+03  0.19324977443E+03  0.41800000000E+01 0. -1.
         -5    1    3    3    0  502 -0.47559674568E+01  0.82969473873E+01  0.24101540372E+02  0.26264333433E+02  0.41800000000E+01 0. -1.
        -11    1    1    2    0    0 -0.23420200488E+02 -0.57323815398E+02 -0.52271752075E+02  0.81036175056E+02  0.00000000000E+00 0.  1.
         11    1    1    2    0    0 -0.40951655520E+02 -0.65770047192E+02  0.37035336950E+02  0.85874055340E+02  0.00000000000E+00 0. -1.
</event>
<event>
 7    1  0.2440960E-009  0.1066973E+03  0.7561462E-02  0.1266811E+00
         -2   -1    0    0    0  501 -0.00000000000E+00  0.00000000000E+00  0.14433114700E+03  0.14433114700E+03  0.00000000000E+00 0.  1.
          2   -1    0    0  501    0  0.00000000000E+00 -0.00000000000E+00 -0.11168943590E+03  0.11168943590E+03  0.00000000000E+00 0. -1.
         25    2    1    2    0    0 -0.22529047715E+02  0.32884233098E+02 -0.35436809565E+02  0.13598885609E+03  0.12509304829E+03 0.  0.
          5    1    3    3  502    0 -0.35864745613E+02 -0.34167978996E+02 -0.44724133607E+02  0.66868911263E+02  0.41800000000E+01 0.  1.
         -5    1    3    3    0  502  0.13335697898E+02  0.67052212095E+02  0.92873240412E+01  0.69119944828E+02  0.41800000000E+01 0.  1.
        -11    1    1    2    0    0  0.11860117433E+01 -0.60375174559E+02  0.26876794505E+02  0.66097885062E+02  0.00000000000E+00 0. -1.
         11    1    1    2    0    0  0.21343035972E+02  0.27490941461E+02  0.41201726161E+02  0.53933841747E+02  0.00000000000E+00 0.  1.
</event>
<event>
 7    1  0.2889687E-009  0.1295270E+03  0.7561462E-02  0.1228159E+00
          2   -1    0    0  501    0  0.00000000000E+00  0.00000000000E+00  0.73382054360E+03  0.73382054360E+03  0.00000000000E+00 0. -1.
         -2   -1    0    0    0  501 -0.00000000000E+00 -0.00000000000E+00 -0.28881397661E+02  0.28881397661E+02  0.00000000000E+00 0.  1.
         25    2    1    2    0    0 -0.55914372109E+02  0.78781349566E+02  0.37241704811E+03  0.40456795286E+03  0.12509137743E+03 0.  0.
          5    1    3    3  502    0 -0.16200729557E+02  0.94314820694E+02  0.14938481932E+03  0.17745716578E+03  0.41800000000E+01 0. -1.
         -5    1    3    3    0  502 -0.39713642552E+02 -0.15533471128E+02  0.22303222879E+03  0.22711078708E+03  0.41800000000E+01 0. -1.
        -11    1    1    2    0    0 -0.23403892412E+01 -0.58779215198E+02  0.87122569001E+02  0.10512285950E+03  0.00000000000E+00 0.  1.
         11    1    1    2    0    0  0.58254761351E+02 -0.20002134368E+02  0.24539952883E+03  0.25301112890E+03  0.00000000000E+00 0. -1.
</event>
<event>
 7    1  0.2440960E-009  0.1011845E+03  0.7561462E-02  0.1277825E+00
         -1   -1    0    0    0  501 -0.00000000000E+00  0.00000000000E+00  0.15639287458E+02  0.15639287458E+02  0.00000000000E+00 0.  1.
          1   -1    0    0  501    0  0.00000000000E+00 -0.00000000000E+00 -0.79754980613E+03  0.79754980613E+03  0.00000000000E+00 0. -1.
         25    2    1    2    0    0 -0.22813529575E+02 -0.66582804612E+01 -0.42576772829E+03  0.44439906402E+03  0.12509028666E+03 0.  0.
          5    1    3    3  502    0 -0.67713041016E+02  0.82731608543E+01 -0.33555713019E+03  0.34244643543E+03  0.41800000000E+01 0. -1.
         -5    1    3    3    0  502  0.44899511441E+02 -0.14931441316E+02 -0.90210598095E+02  0.10195262859E+03  0.41800000000E+01 0. -1.
        -11    1    1    2    0    0  0.49717024833E+01  0.44452173240E+02 -0.10405815474E+03  0.11326435052E+03  0.00000000000E+00 0.  1.
         11    1    1    2    0    0  0.17841827091E+02 -0.37793892779E+02 -0.25208463565E+03  0.25552567905E+03  0.00000000000E+00 0. -1.
</event>
<event>
 7    1  0.2440960E-009  0.6353169E+02  0.7561462E-02  0.1383581E+00
          1   -1    0    0  501    0  0.00000000000E+00  0.00000000000E+00  0.18735564516E+03  0.18735564516E+03  0.00000000000E+00 0. -1.
         -1   -1    0    0    0  501 -0.00000000000E+00 -0.00000000000E+00 -0.70101605204E+02  0.70101605204E+02  0.00000000000E+00 0.  1.
         25    2    1    2    0    0  0.71099638832E+01 -0.30985152573E+02  0.49878654977E+02  0.13837106226E+03  0.12509212358E+03 0.  0.
          5    1    3    3  502    0  0.11583756128E+02 -0.25231139286E+02  0.91603044042E+02  0.95809101204E+02  0.41800000000E+01 0. -1.
         -5    1    3    3    0  502 -0.44737922445E+01 -0.57540132867E+01 -0.41724389064E+02  0.42561961054E+02  0.41800000000E+01 0. -1.
        -11    1    1    2    0    0  0.35636414942E+02  0.31900752235E+02  0.12342042040E+02  0.49395729216E+02  0.00000000000E+00 0.  1.
         11    1    1    2    0    0 -0.42746378825E+02 -0.91559966285E+00  0.55033342936E+02  0.69690458889E+02  0.00000000000E+00 0. -1.
</event>
<event>
 7    1  0.2440960E-009  0.1227487E+03  0.7561462E-02  0.1238630E+00
         -1   -1    0    0    0  501 -0.00000000000E+00  0.00000000000E+00  0.88780983858E+02  0.88780983858E+02  0.00000000000E+00 0.  1.
          1   -1    0    0  501    0  0.00000000000E+00 -0.00000000000E+00 -0.17761839596E+03  0.17761839596E+03  0.00000000000E+00 0. -1.
         25    2    1    2    0    0  0.59900154384E+02  0.11453295984E+02 -0.61508340307E+02  0.15213741278E+03  0.12507321838E+03 0.  0.
          5    1    3    3  502    0  0.67133508669E+02 -0.45408157677E+02 -0.29485745039E+02  0.86346339415E+02  0.41800000000E+01 0.  1.
         -5    1    3    3    0  502 -0.72333542847E+01  0.56861453661E+02 -0.32022595268E+02  0.65791073364E+02  0.41800000000E+01 0.  1.
        -11    1    1    2    0    0  0.21009088810E+02  0.98490166844E+01 -0.19355658690E+02  0.30216327798E+02  0.00000000000E+00 0.  1.
         11    1    1    2    0    0 -0.80909243194E+02 -0.21302312668E+02 -0.79734131073E+01  0.84045639243E+02  0.00000000000E+00 0. -1.
</event>
<event>
 7    1  0.2440960E-009  0.1265896E+03  0.7561462E-02  0.1232606E+00
         -2   -1    0    0    0  501 -0.00000000000E+00  0.00000000000E+00  0.47083760431E+02  0.47083760431E+02  0.00000000000E+00 0.  1.
          2   -1    0    0  501    0  0.00000000000E+00 -0.00000000000E+00 -0.47209793116E+03  0.47209793116E+03  0.00000000000E+00 0. -1.
         25    2    1    2    0    0 -0.95149508617E+02  0.26202285492E+02 -0.27251699830E+03  0.31567826555E+03  0.12508902520E+03 0.  0.
          5    1    3    3  502    0 -0.26786688584E+02  0.57708207528E+02 -0.20425957611E+03  0.21397946334E+03  0.41800000000E+01 0. -1.
         -5    1    3    3    0  502 -0.68362820033E+02 -0.31505922035E+02 -0.68257422191E+02  0.10169880221E+03  0.41800000000E+01 0. -1.
        -11    1    1    2    0    0  0.72177753260E+02  0.82227801263E+01 -0.14395382804E+03  0.16124498996E+03  0.00000000000E+00 0. -1.
         11    1    1    2    0    0  0.22971755357E+02 -0.34425065618E+02 -0.85433443943E+01  0.42258436086E+02  0.00000000000E+00 0.  1.
</event>
<event>
 7    1  0.2440960E-009  0.1073476E+03  0.7561462E-02  0.1265562E+00
         -2   -1    0    0    0  501 -0.00000000000E+00  0.00000000000E+00  0.25394306993E+02  0.25394306993E+02  0.00000000000E+00 0.  1.
          2   -1    0    0  501    0  0.00000000000E+00 -0.00000000000E+00 -0.67427092450E+03  0.67427092450E+03  0.00000000000E+00 0. -1.
         25    2    1    2    0    0 -0.21207542496E+02  0.66930565214E+02 -0.40311466578E+03  0.42787699775E+03  0.12509129071E+03 0.  0.
          5    1    3    3  502    0 -0.63274305649E+02  0.68939978417E+02 -0.33352508816E+03  0.34642865818E+03  0.41800000000E+01 0. -1.
         -5    1    3    3    0  502  0.42066763152E+02 -0.20094132032E+01 -0.69589577628E+02  0.81448339565E+02  0.41800000000E+01 0. -1.
        -11    1    1    2    0    0 -0.70865075059E+01 -0.36384522017E+02 -0.19805212921E+02  0.42027354067E+02  0.00000000000E+00 0.  1.
         11    1    1    2    0    0  0.28294050002E+02 -0.30546043196E+02 -0.22595673880E+03  0.22976087967E+03  0.00000000000E+00 0. -1.
</event>
<event>
 7    1  0.2440960E-009  0.1763421E+03  0.7561462E-02  0.1171391E+00
         -1   -1    0    0    0  501 -0.00000000000E+00  0.00000000000E+00  0.21567834794E+02  0.21567834794E+02  0.00000000000E+00 0.  1.
          1   -1    0    0  501    0  0.00000000000E+00 -0.00000000000E+00 -0.19346812306E+04  0.19346812306E+04  0.00000000000E+00 0. -1.
         25    2    1    2    0    0 -0.15528228262E+03 -0.43420048129E+02 -0.13032208475E+04  0.13191021692E+04  0.12509223595E+03 0.  0.
          5    1    3    3  502    0  0.37563305283E+01 -0.23152717370E+02 -0.47087154874E+02  0.52771496992E+02  0.41800000000E+01 0. -1.
         -5    1    3    3    0  502 -0.15903861315E+03 -0.20267330758E+02 -0.12561336926E+04  0.12663306722E+04  0.41800000000E+01 0. -1.
        -11    1    1    2    0    0  0.34946260592E+02 -0.10680349407E+02 -0.50066429765E+02  0.61983533154E+02  0.00000000000E+00 0.  1.
         11    1    1    2    0    0  0.12033602203E+03  0.54100397536E+02 -0.55982611859E+03  0.57516336311E+03  0.00000000000E+00 0. -1.
</event>
<event>
 7    1  0.2875522E-009  0.1329995E+03  0.7561462E-02  0.1223072E+00
          2   -1    0    0  501    0  0.00000000000E+00  0.00000000000E+00  0.69156346256E+03  0.69156346256E+03  0.00000000000E+00 0. -1.
         -2   -1    0    0    0  501 -0.00000000000E+00 -0.00000000000E+00 -0.39027052652E+02  0.39027052652E+02  0.00000000000E+00 0.  1.
         25    2    1    2    0    0  0.92643868382E+02 -0.33866456561E+01  0.52802282532E+03  0.55050231997E+03  0.12510133698E+03 0.  0.
          5    1    3    3  502    0 -0.75978812193E+01  0.35824730471E+02  0.24344613409E+03  0.24622069717E+03  0.41800000000E+01 0. -1.
         -5    1    3    3    0  502  0.10024174960E+03 -0.39211376127E+02  0.28457669124E+03  0.30428162280E+03  0.41800000000E+01 0. -1.
        -11    1    1    2    0    0 -0.32687602506E+02  0.39622020383E+02  0.21894816137E+02  0.55836966523E+02  0.00000000000E+00 0.  1.
         11    1    1    2    0    0 -0.59956265876E+02 -0.36235374727E+02  0.10261876844E+03  0.12425122871E+03  0.00000000000E+00 0. -1.
</event>
<event>
 7    1  0.2440960E-009  0.1314351E+03  0.7561462E-02  0.1225342E+00
          1   -1    0    0  501    0  0.00000000000E+00  0.00000000000E+00  0.42100281873E+03  0.42100281873E+03  0.00000000000E+00 0. -1.
         -1   -1    0    0    0  501 -0.00000000000E+00 -0.00000000000E+00 -0.58500952643E+02  0.58500952643E+02  0.00000000000E+00 0.  1.
         25    2    1    2    0    0 -0.80373688644E+02 -0.69964970701E+02  0.25215974208E+03  0.30097974582E+03  0.12509694206E+03 0.  0.
          5    1    3    3  502    0 -0.81080472113E+02 -0.85447298432E+02  0.25819821613E+03  0.28382930606E+03  0.41800000000E+01 0.  1.
         -5    1    3    3    0  502  0.70678346890E+00  0.15482327732E+02 -0.60384740475E+01  0.17150439752E+02  0.41800000000E+01 0.  1.
        -11    1    1    2    0    0  0.76150687796E+02  0.19900312277E+02  0.30960072520E+02  0.84578222793E+02  0.00000000000E+00 0.  1.
         11    1    1    2    0    0  0.42230008481E+01  0.50064658424E+02  0.79382051486E+02  0.93945802767E+02  0.00000000000E+00 0. -1.
</event>
<event>
 7    1  0.2440960E-009  0.1095755E+03  0.7561462E-02  0.1261358E+00
          2   -1    0    0  501    0  0.00000000000E+00  0.00000000000E+00  0.29695631670E+03  0.29695631670E+03  0.00000000000E+00 0. -1.
         -2   -1    0    0    0  501 -0.00000000000E+00 -0.00000000000E+00 -0.11542137081E+03  0.11542137081E+03  0.00000000000E+00 0.  1.
         25    2    1    2    0    0 -0.74294021018E+02  0.17740710375E+02  0.23881075735E+03  0.28020052121E+03  0.12508964744E+03 0.  0.
          5    1    3    3  502    0 -0.53527822768E+02 -0.26044004113E+02  0.31931283187E+02  0.67680109386E+02  0.41800000000E+01 0.  1.
         -5    1    3    3    0  502 -0.20766198250E+02  0.43784714488E+02  0.20687947416E+03  0.21252041182E+03  0.41800000000E+01 0.  1.
        -11    1    1    2    0    0 -0.34098266089E+00 -0.34370417978E+02  0.34324003132E+01  0.34543064038E+02  0.00000000000E+00 0. -1.
         11    1    1    2    0    0  0.74635003679E+02  0.16629707603E+02 -0.60708211766E+02  0.97634102264E+02  0.00000000000E+00 0.  1.
</event>
<event>
 7    1  0.2440960E-009  0.1175948E+03  0.7561462E-02  0.1247118E+00
          2   -1    0    0  501    0  0.00000000000E+00  0.00000000000E+00  0.22758330687E+03  0.22758330687E+03  0.00000000000E+00 0. -1.
         -2   -1    0    0    0  501 -0.00000000000E+00 -0.00000000000E+00 -0.72410322736E+02  0.72410322736E+02  0.00000000000E+00 0.  1.
         25    2    1    2    0    0  0.56971709176E+02 -0.30977944171E+01  0.41957405995E+02  0.14374928937E+03  0.12509221519E+03 0.  0.
          5    1    3    3  502    0 -0.36095699212E+02 -0.21913486787E+02  0.11995518795E+02  0.44096091391E+02  0.41800000000E+01 0. -1.
         -5    1    3    3    0  502  0.93067408388E+02  0.18815692370E+02  0.29961887200E+02  0.99653197982E+02  0.41800000000E+01 0. -1.
        -11    1    1    2    0    0 -0.54482289665E+02 -0.31562630428E+02  0.38393972944E+02  0.73746977464E+02  0.00000000000E+00 0.  1.
         11    1    1    2    0    0 -0.24894195114E+01  0.34660424845E+02  0.74821605196E+02  0.82497362770E+02  0.00000000000E+00 0. -1.
</event>
<event>
 7    1  0.2440960E-009  0.1004759E+03  0.7561462E-02  0.1279298E+00
         -2   -1    0    0    0  501 -0.00000000000E+00  0.00000000000E+00  0.15134405040E+02  0.15134405040E+02  0.00000000000E+00 0.  1.
          2   -1    0    0  501    0  0.00000000000E+00 -0.00000000000E+00 -0.88515517726E+03  0.88515517726E+03  0.00000000000E+00 0. -1.
         25    2    1    2    0    0 -0.10129324435E+02 -0.13184364561E+02 -0.64603736129E+03  0.65824627985E+03  0.12508981600E+03 0.  0.
          5    1    3    3  502    0 -0.32096911632E+02  0.47794893225E+02 -0.38206027543E+03  0.38639628623E+03  0.41800000000E+01 0.  1.
         -5    1    3    3    0  502  0.21967587197E+02 -0.60979257786E+02 -0.26397708586E+03  0.27184999361E+03  0.41800000000E+01 0.  1.
        -11    1    1    2    0    0 -0.21743397942E+02 -0.21911626243E+02 -0.15684289853E+03  0.15985177365E+03  0.00000000000E+00 0. -1.
         11    1    1    2    0    0  0.31872722377E+02  0.35095990804E+02 -0.67140512395E+02  0.82191528803E+02  0.00000000000E+00 0.  1.
</event>
<event>
 7    1  0.2440960E-009  0.1158227E+03  0.7561462E-02  0.1250152E+00
         -2   -1    0    0    0  501 -0.00000000000E+00  0.00000000000E+00  0.77197059237E+02  0.77197059237E+02  0.00000000000E+00 0.  1.
          2   -1    0    0  501    0  0.00000000000E+00 -0.00000000000E+00 -0.42307407869E+03  0.42307407869E+03  0.00000000000E+00 0. -1.
         25    2    1    2    0    0  0.92340816397E+02  0.39337386028E+01 -0.30111951990E+02  0.15841407522E+03  0.12508392744E+03 0.  0.
          5    1    3    3  502    0  0.11260177022E+03  0.17420725281E+02 -0.52091324677E+02  0.12535397414E+03  0.41800000000E+01 0.  1.
         -5    1    3    3    0  502 -0.20260953826E+02 -0.13486986678E+02  0.21979372687E+02  0.33060101078E+02  0.41800000000E+01 0.  1.
        -11    1    1    2    0    0 -0.60618677407E+02  0.20352186682E+01 -0.29974783997E+03  0.30582271618E+03  0.00000000000E+00 0. -1.
         11    1    1    2    0    0 -0.31722138991E+02 -0.59689572711E+01 -0.16017227495E+02  0.36034346528E+02  0.00000000000E+00 0.  1.
</event>
<event>
 7    1  0.2440960E-009  0.9081655E+02  0.7561462E-02  0.1300886E+00
         -2   -1    0    0    0  501 -0.00000000000E+00  0.00000000000E+00  0.10764109133E+03  0.10764109133E+03  0.00000000000E+00 0. -1.
          2   -1    0    0  501    0  0.00000000000E+00 -0.00000000000E+00 -0.12781739661E+03  0.12781739661E+03  0.00000000000E+00 0.  1.
         25    2    1    2    0    0 -0.96020223721E+01 -0.12716151963E+02 -0.49138567644E+02  0.13533701333E+03  0.12509040328E+03 0.  0.
          5    1    3    3  502    0  0.38122478804E+02 -0.14246965941E+02 -0.71553061353E+02  0.82423373006E+02  0.41800000000E+01 0. -1.
         -5    1    3    3    0  502 -0.47724501176E+02  0.15308139782E+01  0.22414493709E+02  0.52913640323E+02  0.41800000000E+01 0. -1.
        -11    1    1    2    0    0 -0.25510262281E+02 -0.28762144279E+02 -0.20233841685E+00  0.38445745747E+02  0.00000000000E+00 0.  1.
         11    1    1    2    0    0  0.35112284653E+02  0.41478296242E+02  0.29164600781E+02  0.61675728868E+02  0.00000000000E+00 0. -1.
</event>
<event>
 7    1  0.2440960E-009  0.9106638E+02  0.7561462E-02  0.1300290E+00
          2   -1    0    0  501    0  0.00000000000E+00  0.00000000000E+00  0.19472532718E+03  0.19472532718E+03  0.00000000000E+00 0. -1.
         -2   -1    0    0    0  501 -0.00000000000E+00 -0.00000000000E+00 -0.89096258813E+02  0.89096258813E+02  0.00000000000E+00 0.  1.
         25    2    1    2    0    0  0.20416880013E+02 -0.66618245786E+02  0.27585900305E+02  0.14582133348E+03  0.12509212502E+03 0.  0.
          5    1    3    3  502    0 -0.33384732955E+02 -0.36449640744E+02  0.58499356486E+02  0.76699177402E+02  0.41800000000E+01 0. -1.
         -5    1    3    3    0  502  0.53801612968E+02 -0.30168605042E+02 -0.30913456181E+02  0.69122156081E+02  0.41800000000E+01 0. -1.
        -11    1    1    2    0    0 -0.70566218223E+01  0.42947451267E+02 -0.11007522934E+02  0.44893708279E+02  0.00000000000E+00 0.  1.
         11    1    1    2    0    0 -0.13360258191E+02  0.23670794519E+02  0.89050690999E+02  0.93106544236E+02  0.00000000000E+00 0. -1.
</event>
<event>
 7    1  0.2440960E-009  0.1210502E+03  0.7561462E-02  0.1241375E+00
         -1   -1    0    0    0  501 -0.00000000000E+00  0.00000000000E+00  0.57247776058E+02  0.57247776058E+02  0.00000000000E+00 0.  1.
          1   -1    0    0  501    0  0.00000000000E+00 -0.00000000000E+00 -0.28404737233E+03  0.28404737233E+03  0.00000000000E+00 0. -1.
         25    2    1    2    0    0  0.32529769379E+02 -0.55085877946E+02 -0.96082461404E+02  0.17020206499E+03  0.12507703103E+03 0.  0.
          5    1    3    3  502    0 -0.83726080054E+01  0.33337125393E+02 -0.53654431278E+02  0.63857144394E+02  0.41800000000E+01 0. -1.
         -5    1    3    3    0  502  0.40902377384E+02 -0.88423003339E+02 -0.42428030126E+02  0.10634492059E+03  0.41800000000E+01 0. -1.
        -11    1    1    2    0    0  0.14640997131E+02  0.60714372300E+02 -0.66705424102E+02  0.91379469277E+02  0.00000000000E+00 0.  1.
         11    1    1    2    0    0 -0.47170766510E+02 -0.56284943543E+01 -0.64011710763E+02  0.79713614124E+02  0.00000000000E+00 0. -1.
</event>
<event>
 7    1  0.3659627E-009  0.1139233E+03  0.7561462E-02  0.1253472E+00
          1   -1    0    0  501    0  0.00000000000E+00  0.00000000000E+00  0.62950020755E+03  0.62950020755E+03  0.00000000000E+00 0. -1.
         -1   -1    0    0    0  501 -0.00000000000E+00 -0.00000000000E+00 -0.35131553267E+02  0.35131553267E+02  0.00000000000E+00 0.  1.
         25    2    1    2    0    0  0.90974406894E+02 -0.43454403806E+02  0.29152618421E+03  0.33286928885E+03  0.12509923845E+03 0.  0.
          5    1    3    3  502    0  0.68440890011E+02 -0.26136453274E+02  0.29494951469E+03  0.30394071500E+03  0.41800000000E+01 0.  1.
         -5    1    3    3    0  502  0.22533516883E+02 -0.17317950532E+02 -0.34233304801E+01  0.28928573856E+02  0.41800000000E+01 0.  1.
        -11    1    1    2    0    0 -0.38995584226E+02  0.59677634048E+02  0.23014667605E+03  0.24093477975E+03  0.00000000000E+00 0. -1.
         11    1    1    2    0    0 -0.51978822667E+02 -0.16223230242E+02  0.72695794019E+02  0.90827692217E+02  0.00000000000E+00 0.  1.
</event>
<event>
 7    1  0.2517152E-009  0.1060997E+03  0.7561462E-02  0.1267968E+00
          1   -1    0    0  501    0  0.00000000000E+00  0.00000000000E+00  0.33521518790E+03  0.33521518790E+03  0.00000000000E+00 0. -1.
         -1   -1    0    0    0  501 -0.00000000000E+00 -0.00000000000E+00 -0.41231711223E+02  0.41231711223E+02  0.00000000000E+00 0.  1.
         25    2    1    2    0    0  0.42804018404E+02 -0.15218045639E+00  0.13904490629E+03  0.19186830302E+03  0.12509097724E+03 0.  0.
          5    1    3    3  502    0  0.81859530022E+02 -0.13724449983E+02  0.59793548508E+02  0.10238204933E+03  0.41800000000E+01 0.  1.
         -5    1    3    3    0  502 -0.39055511618E+02  0.13572269527E+02  0.79251357785E+02  0.89486253685E+02  0.41800000000E+01 0.  1.
        -11    1    1    2    0    0 -0.19319097644E+02 -0.38060146780E+02  0.30938905107E+02  0.52716393617E+02  0.00000000000E+00 0.  1.
         11    1    1    2    0    0 -0.23484920760E+02  0.38212327237E+02  0.12399966528E+03  0.13186220249E+03  0.00000000000E+00 0. -1.
</event>
<event>
 7    1  0.2440960E-009  0.9997596E+02  0.7561462E-02  0.1280347E+00
          2   -1    0    0  501    0  0.00000000000E+00  0.00000000000E+00  0.66753154112E+02  0.66753154112E+02  0.00000000000E+00 0. -1.
         -2   -1    0    0    0  501 -0.00000000000E+00 -0.00000000000E+00 -0.19369273635E+03  0.19369273635E+03  0.00000000000E+00 0.  1.
         25    2    1    2    0    0 -0.19568007085E+02 -0.32809552135E+01 -0.11933160130E+03  0.17401279087E+03  0.12508696475E+03 0.  0.
          5    1    3    3  502    0 -0.15761122952E+02 -0.57302881307E+02 -0.99915731563E+02  0.11632995752E+03  0.41800000000E+01 0. -1.
         -5    1    3    3    0  502 -0.38068841335E+01  0.54021926093E+02 -0.19415869734E+02  0.57682833349E+02  0.41800000000E+01 0. -1.
        -11    1    1    2    0    0  0.39841457868E+02  0.31862689691E+02 -0.58100208656E+01  0.51345195509E+02  0.00000000000E+00 0.  1.
         11    1    1    2    0    0 -0.20273450783E+02 -0.28581734478E+02 -0.17979600733E+01  0.35087904081E+02  0.00000000000E+00 0. -1.
</event>
<event>
 7    1  0.2440960E-009  0.9967898E+02  0.7561462E-02  0.1280972E+00
         -1   -1    0    0    0  501 -0.00000000000E+00  0.00000000000E+00  0.36897338951E+02  0.36897338951E+02  0.00000000000E+00 0.  1.
          1   -1    0    0  501    0  0.00000000000E+00 -0.00000000000E+00 -0.63145209131E+03  0.63145209131E+03  0.00000000000E+00 0. -1.
         25    2    1    2    0    0 -0.22177032367E+01  0.58856583187E+02 -0.51529846097E+03  0.53352490270E+03  0.12508917752E+03 0.  0.
          5    1    3    3  502    0 -0.59433950664E+02  0.41729101831E+02 -0.20549722197E+03  0.21799149770E+03  0.41800000000E+01 0. -1.
         -5    1    3    3    0  502  0.57216247428E+02  0.17127481357E+02 -0.30980123900E+03  0.31553340500E+03  0.41800000000E+01 0. -1.
        -11    1    1    2    0    0  0.16074023302E+02 -0.21082447735E+02  0.16314932506E+02  0.31129099735E+02  0.00000000000E+00 0. -1.
         11    1    1    2    0    0 -0.13856320065E+02 -0.37774135452E+02 -0.95571223888E+02  0.10369542782E+03  0.00000000000E+00 0.  1.
</event>
<event>
 7    1  0.2440960E-009  0.2389252E+03  0.7561462E-02  0.1120511E+00
         -3   -1    0    0    0  501 -0.00000000000E+00  0.00000000000E+00  0.21809242242E+03  0.21809242242E+03  0.00000000000E+00 0.  1.
          3   -1    0    0  501    0  0.00000000000E+00 -0.00000000000E+00 -0.28654681735E+03  0.28654681735E+03  0.00000000000E+00 0. -1.
         25    2    1    2    0    0  0.10379040081E+03 -0.19386046093E+03 -0.70779473847E+02  0.26270101403E+03  0.12509101983E+03 0.  0.
          5    1    3    3  502    0 -0.10160425059E+02 -0.10673978070E+03 -0.13330800100E+02  0.10812861625E+03  0.41800000000E+01 0.  1.
         -5    1    3    3    0  502  0.11395082587E+03 -0.87120680230E+02 -0.57448673747E+02  0.15457239778E+03  0.41800000000E+01 0.  1.
        -11    1    1    2    0    0 -0.37665291801E+02  0.23729654596E+02 -0.33766932003E+02  0.55874649087E+02  0.00000000000E+00 0.  1.
         11    1    1    2    0    0 -0.66125109005E+02  0.17013080633E+03  0.36092010917E+02  0.18606357665E+03  0.00000000000E+00 0. -1.
</event>
<event>
 7    1  0.2440960E-009  0.1089966E+03  0.7561462E-02  0.1262439E+00
         -1   -1    0    0    0  501 -0.00000000000E+00  0.00000000000E+00  0.37351790867E+03  0.37351790867E+03  0.00000000000E+00 0.  1.
          1   -1    0    0  501    0  0.00000000000E+00 -0.00000000000E+00 -0.45242764326E+02  0.45242764326E+02  0.00000000000E+00 0. -1.
         25    2    1    2    0    0 -0.42605405251E+02  0.16461320376E+02  0.93749532368E+02  0.16285448344E+03  0.12508562001E+03 0.  0.
          5    1    3    3  502    0 -0.26223898168E+02 -0.47944383032E+02  0.76432471592E+02  0.94051857042E+02  0.41800000000E+01 0. -1.
         -5    1    3    3    0  502 -0.16381507082E+02  0.64405703407E+02  0.17317060776E+02  0.68802626400E+02  0.41800000000E+01 0. -1.
        -11    1    1    2    0    0  0.34012500817E+02 -0.50836551571E+02  0.10396668541E+03  0.12062452845E+03  0.00000000000E+00 0. -1.
         11    1    1    2    0    0  0.85929044333E+01  0.34375231196E+02  0.13055892656E+03  0.13528166110E+03  0.00000000000E+00 0.  1.
</event>
<event>
 7    1  0.2440960E-009  0.1507018E+03  0.7561462E-02  0.1199613E+00
          1   -1    0    0  501    0  0.00000000000E+00  0.00000000000E+00  0.60458781363E+03  0.60458781363E+03  0.00000000000E+00 0. -1.
         -1   -1    0    0    0  501 -0.00000000000E+00 -0.00000000000E+00 -0.50311347746E+02  0.50311347746E+02  0.00000000000E+00 0.  1.
         25    2    1    2    0    0 -0.12732576531E+03  0.40243412519E+02  0.25084889878E+03  0.31048767762E+03  0.12508415237E+03 0.  0.
          5    1    3    3  502    0 -0.27811584000E+01 -0.12591861831E+02 -0.98426306067E+01  0.16752301444E+02  0.41800000000E+01 0.  1.
         -5    1    3    3    0  502 -0.12454460691E+03  0.52835274350E+02  0.26069152939E+03  0.29373537618E+03  0.41800000000E+01 0.  1.
        -11    1    1    2    0    0  0.77382555324E+02  0.14133642754E+02  0.95273083507E+02  0.12355071901E+03  0.00000000000E+00 0.  1.
         11    1    1    2    0    0  0.49943209983E+02 -0.54377055273E+02  0.20815448359E+03  0.22086076474E+03  0.00000000000E+00 0. -1.
</event>
<event>
 7    1  0.2440960E-009  0.1315642E+03  0.7561462E-02  0.1225153E+00
          1   -1    0    0  501    0  0.00000000000E+00  0.00000000000E+00  0.93765305037E+02  0.93765305037E+02  0.00000000000E+00 0. -1.
         -1   -1    0    0    0  501 -0.00000000000E+00 -0.00000000000E+00 -0.37795496708E+03  0.37795496708E+03  0.00000000000E+00 0.  1.
         25    2    1    2    0    0 -0.57313906431E+02 -0.10836902629E+03 -0.26513788612E+03  0.31776680927E+03  0.12509563016E+03 0.  0.
          5    1    3    3  502    0 -0.19676489877E+02 -0.79329401993E+02 -0.46803704426E+02  0.94278191658E+02  0.41800000000E+01 0.  1.
         -5    1    3    3    0  502 -0.37637416553E+02 -0.29039624300E+02 -0.21833418170E+03  0.22348861761E+03  0.41800000000E+01 0.  1.
        -11    1    1    2    0    0  0.66212836979E+02  0.80065008701E+02  0.19084342277E+02  0.10563502033E+03  0.00000000000E+00 0. -1.
         11    1    1    2    0    0 -0.88989305477E+01  0.28304017592E+02 -0.38136118199E+02  0.48318442525E+02  0.00000000000E+00 0.  1.
</event>
<event>
 7    1  0.2440960E-009  0.1045255E+03  0.7561462E-02  0.1271057E+00
          2   -1    0    0  501    0  0.00000000000E+00  0.00000000000E+00  0.80188128185E+03  0.80188128185E+03  0.00000000000E+00 0. -1.
         -2   -1    0    0    0  501 -0.00000000000E+00 -0.00000000000E+00 -0.18455901227E+02  0.18455901227E+02  0.00000000000E+00 0.  1.
         25    2    1    2    0    0 -0.27064925701E+02 -0.26240648101E+02  0.61062806875E+03  0.62444748834E+03  0.12508775131E+03 0.  0.
          5    1    3    3  502    0  0.41949054026E+02 -0.38439738931E+02  0.34561909030E+03  0.35029610994E+03  0.41800000000E+01 0.  1.
         -5    1    3    3    0  502 -0.69013979727E+02  0.12199090830E+02  0.26500897846E+03  0.27415137840E+03  0.41800000000E+01 0.  1.
        -11    1    1    2    0    0 -0.99435729973E+01  0.40820901438E+02  0.42934439909E+02  0.60071513785E+02  0.00000000000E+00 0.  1.
         11    1    1    2    0    0  0.37008498698E+02 -0.14580253337E+02  0.12986287196E+03  0.13581818095E+03  0.00000000000E+00 0. -1.
</event>
<event>
 7    1  0.2440960E-009  0.1421939E+03  0.7561462E-02  0.1210407E+00
          2   -1    0    0  501    0  0.00000000000E+00  0.00000000000E+00  0.13229194237E+03  0.13229194237E+03  0.00000000000E+00 0. -1.
         -2   -1    0    0    0  501 -0.00000000000E+00 -0.00000000000E+00 -0.20712005285E+03  0.20712005285E+03  0.00000000000E+00 0.  1.
         25    2    1    2    0    0  0.93986358124E+02  0.65321468331E+02 -0.91327444424E+02  0.19258577438E+03  0.12509296003E+03 0.  0.
          5    1    3    3  502    0 -0.22416334633E+02  0.46195002539E+02 -0.27740790394E+02  0.58510632963E+02  0.41800000000E+01 0.  1.
         -5    1    3    3    0  502  0.11640269276E+03  0.19126465791E+02 -0.63586654030E+02  0.13407514142E+03  0.41800000000E+01 0.  1.
        -11    1    1    2    0    0 -0.45097400594E+02 -0.25708087809E+02  0.52914189845E+02  0.74125520612E+02  0.00000000000E+00 0. -1.
         11    1    1    2    0    0 -0.48888957531E+02 -0.39613380522E+02 -0.36414855898E+02  0.72700700236E+02  0.00000000000E+00 0.  1.
</event>
<event>
 7    1  0.2440960E-009  0.1666641E+03  0.7561462E-02  0.1181372E+00
          3   -1    0    0  501    0  0.00000000000E+00  0.00000000000E+00  0.71807731087E+02  0.71807731087E+02  0.00000000000E+00 0. -1.
         -3   -1    0    0    0  501 -0.00000000000E+00 -0.00000000000E+00 -0.49450792953E+03  0.49450792953E+03  0.00000000000E+00 0.  1.
         25    2    1    2    0    0  0.24407419045E+02 -0.14946987912E+03 -0.25843996794E+03  0.32461464644E+03  0.12508590960E+03 0.  0.
          5    1    3    3  502    0 -0.25711968859E+02 -0.93366758747E+01 -0.11352058306E+03  0.11684465772E+03  0.41800000000E+01 0.  1.
         -5    1    3    3    0  502  0.50119387904E+02 -0.14013320325E+03 -0.14491938488E+03  0.20776998871E+03  0.41800000000E+01 0.  1.
        -11    1    1    2    0    0  0.20819436224E+00  0.11162422948E+03 -0.57019037440E+02  0.12534425628E+03  0.00000000000E+00 0. -1.
         11    1    1    2    0    0 -0.24615613407E+02  0.37845649644E+02 -0.10724119306E+03  0.11635675790E+03  0.00000000000E+00 0.  1.
</event>
<event>
 7    1  0.2440960E-009  0.1310871E+03  0.7561462E-02  0.1225852E+00
         -2   -1    0    0    0  501 -0.00000000000E+00  0.00000000000E+00  0.40770102438E+03  0.40770102438E+03  0.00000000000E+00 0.  1.
          2   -1    0    0  501    0  0.00000000000E+00 -0.00000000000E+00 -0.76258389079E+02  0.76258389079E+02  0.00000000000E+00 0. -1.
         25    2    1    2    0    0  0.75979566259E+02 -0.50273377144E+02  0.31576260845E+02  0.15794302400E+03  0.12509449086E+03 0.  0.
          5    1    3    3  502    0  0.79393843028E+02  0.41098025995E+01  0.56756864151E+02  0.97770582572E+02  0.41800000000E+01 0. -1.
         -5    1    3    3    0  502 -0.34142767691E+01 -0.54383179743E+02 -0.25180603306E+02  0.60172441430E+02  0.41800000000E+01 0. -1.
        -11    1    1    2    0    0 -0.73170153645E+02 -0.42733476577E+01  0.16903054964E+03  0.18423750866E+03  0.00000000000E+00 0.  1.
         11    1    1    2    0    0 -0.28094126140E+01  0.54546724801E+02  0.13083582482E+03  0.14177888081E+03  0.00000000000E+00 0. -1.
</event>
<event>
 7    1  0.2440960E-009  0.9631153E+02  0.7561462E-02  0.1288249E+00
         -2   -1    0    0    0  501 -0.00000000000E+00  0.00000000000E+00  0.18015212383E+02  0.18015212383E+02  0.00000000000E+00 0. -1.
          2   -1    0    0  501    0  0.00000000000E+00 -0.00000000000E+00 -0.68934558002E+03  0.68934558002E+03  0.00000000000E+00 0.  1.
         25    2    1    2    0    0 -0.12266470901E+02 -0.11562311388E+02 -0.39082367164E+03  0.41070050241E+03  0.12509039538E+03 0.  0.
          5    1    3    3  502    0  0.45233628603E+00 -0.59726854660E+02 -0.10794543345E+03  0.12343901643E+03  0.41800000000E+01 0.  1.
         -5    1    3    3    0  502 -0.12718807187E+02  0.48164543272E+02 -0.28287823819E+03  0.28726148598E+03  0.41800000000E+01 0.  1.
        -11    1    1    2    0    0 -0.22211016290E+02 -0.24360945633E+02 -0.44060001556E+02  0.55027889782E+02  0.00000000000E+00 0. -1.
         11    1    1    2    0    0  0.34477487191E+02  0.35923257021E+02 -0.23644669444E+03  0.24163240021E+03  0.00000000000E+00 0.  1.
</event>
<event>
 7    1  0.2440960E-009  0.9465531E+02  0.7561462E-02  0.1291954E+00
         -2   -1    0    0    0  501 -0.00000000000E+00  0.00000000000E+00  0.93883027136E+02  0.93883027136E+02  0.00000000000E+00 0.  1.
          2   -1    0    0  501    0  0.00000000000E+00 -0.00000000000E+00 -0.19930808017E+03  0.19930808017E+03  0.00000000000E+00 0. -1.
         25    2    1    2    0    0  0.27338514289E+02 -0.11740441710E+02  0.25534196528E+02  0.13109093699E+03  0.12509039225E+03 0.  0.
          5    1    3    3  502    0  0.70762112508E+01  0.46530844355E+02 -0.22935372410E+02  0.52523289592E+02  0.41800000000E+01 0. -1.
         -5    1    3    3    0  502  0.20262303038E+02 -0.58271286064E+02  0.48469568937E+02  0.78567647394E+02  0.41800000000E+01 0. -1.
        -11    1    1    2    0    0 -0.20344087955E+02  0.43330831374E+02 -0.30988637514E+02  0.57024017022E+02  0.00000000000E+00 0.  1.
         11    1    1    2    0    0 -0.69944263332E+01 -0.31590389665E+02 -0.99970612044E+02  0.10507615330E+03  0.00000000000E+00 0. -1.
</event>
<event>
 7    1  0.2440960E-009  0.9084288E+02  0.7561462E-02  0.1300823E+00
         -2   -1    0    0    0  501 -0.00000000000E+00  0.00000000000E+00  0.60609407793E+02  0.60609407793E+02  0.00000000000E+00 0.  1.
          2   -1    0    0  501    0  0.00000000000E+00 -0.00000000000E+00 -0.40076317736E+03  0.40076317736E+03  0.00000000000E+00 0. -1.
         25    2    1    2    0    0  0.36184100730E+02  0.25283097093E+02 -0.31403508849E+02  0.13631468921E+03  0.12508792900E+03 0.  0.
          5    1    3    3  502    0 -0.20497056148E+02  0.10549966770E+02 -0.64703935356E+02  0.68814989356E+02  0.41800000000E+01 0.  1.
         -5    1    3    3    0  502  0.56681156878E+02  0.14733130323E+02  0.33300426507E+02  0.67499699849E+02  0.41800000000E+01 0.  1.
        -11    1    1    2    0    0 -0.56020584260E+01  0.33134637457E+02 -0.74982533699E+02  0.82168531799E+02  0.00000000000E+00 0. -1.
         11    1    1    2    0    0 -0.30582042304E+02 -0.58417734550E+02 -0.23376772702E+03  0.24288936415E+03  0.00000000000E+00 0.  1.
</event>
<event>
 7    1  0.2717942E-009  0.1095513E+03  0.7561462E-02  0.1261403E+00
         -2   -1    0    0    0  501 -0.00000000000E+00  0.00000000000E+00  0.36206020636E+02  0.36206020636E+02  0.00000000000E+00 0. -1.
          2   -1    0    0  501    0  0.00000000000E+00 -0.00000000000E+00 -0.46186695758E+03  0.46186695758E+03  0.00000000000E+00 0.  1.
         25    2    1    2    0    0  0.39060005444E+02 -0.19938444166E+02 -0.34019543341E+03  0.36510844336E+03  0.12509203378E+03 0.  0.
          5    1    3    3  502    0  0.37947564152E+02 -0.67815458198E+02 -0.15067035993E+03  0.16958179076E+03  0.41800000000E+01 0. -1.
         -5    1    3    3    0  502  0.11124412924E+01  0.47877014033E+02 -0.18952507348E+03  0.19552665260E+03  0.41800000000E+01 0. -1.
        -11    1    1    2    0    0  0.14671339069E+02 -0.21028170030E+02 -0.51072934968E+02  0.57147850451E+02  0.00000000000E+00 0.  1.
         11    1    1    2    0    0 -0.53731344513E+02  0.40966614195E+02 -0.34392568561E+02  0.75816684404E+02  0.00000000000E+00 0. -1.
</event>
<event>
 7    1  0.2440960E-009  0.1410521E+03  0.7561462E-02  0.1211920E+00
          1   -1    0    0  501    0  0.00000000000E+00  0.00000000000E+00  0.51435247604E+03  0.51435247604E+03  0.00000000000E+00 0. -1.
         -1   -1    0    0    0  501 -0.00000000000E+00 -0.00000000000E+00 -0.43494420319E+02  0.43494420319E+02  0.00000000000E+00 0.  1.
         25    2    1    2    0    0  0.96633272329E+02  0.28769809082E+02  0.23606889463E+03  0.28555550766E+03  0.12509090178E+03 0.  0.
          5    1    3    3  502    0 -0.53095629237E-01  0.45852926087E+02  0.24224352642E+02  0.52026774942E+02  0.41800000000E+01 0.  1.
         -5    1    3    3    0  502  0.96686367958E+02 -0.17083117005E+02  0.21184454199E+03  0.23352873272E+03  0.41800000000E+01 0.  1.
        -11    1    1    2    0    0 -0.79626764566E+02 -0.61694649089E+02  0.16667409254E+03  0.19474831061E+03  0.00000000000E+00 0.  1.
         11    1    1    2    0    0 -0.17006507763E+02  0.32924840007E+02  0.68115068547E+02  0.77543078085E+02  0.00000000000E+00 0. -1.
</event>
<event>
 7    1  0.2440960E-009  0.1646154E+03  0.7561462E-02  0.1183582E+00
         -3   -1    0    0    0  501 -0.00000000000E+00  0.00000000000E+00  0.17157627779E+03  0.17157627779E+03  0.00000000000E+00 0.  1.
          3   -1    0    0  501    0  0.00000000000E+00 -0.00000000000E+00 -0.38282801548E+03  0.38282801548E+03  0.00000000000E+00 0. -1.
         25    2    1    2    0    0  0.13747651683E+03  0.75537963615E+02 -0.29024742842E+03  0.35283931686E+03  0.12508491992E+03 0.  0.
          5    1    3    3  502    0  0.30826611229E+02 -0.12476415594E+02 -0.25563651260E+01  0.33614703756E+02  0.41800000000E+01 0.  1.
         -5    1    3    3    0  502  0.10664990560E+03  0.88014379209E+02 -0.28769106329E+03  0.31922461310E+03  0.41800000000E+01 0.  1.
        -11    1    1    2    0    0 -0.42528262244E+02 -0.30165162393E+02  0.80980043357E+02  0.96313849128E+02  0.00000000000E+00 0.  1.
         11    1    1    2    0    0 -0.94948254584E+02 -0.45372801222E+02 -0.19843526282E+01  0.10525112728E+03  0.00000000000E+00 0. -1.
</event>
<event>
 7    1  0.2440960E-009  0.1169642E+03  0.7561462E-02  0.1248191E+00
          1   -1    0    0  501    0  0.00000000000E+00  0.00000000000E+00  0.24707594478E+03  0.24707594478E+03  0.00000000000E+00 0. -1.
         -1   -1    0    0    0  501 -0.00000000000E+00 -0.00000000000E+00 -0.60126210226E+02  0.60126210226E+02  0.00000000000E+00 0.  1.
         25    2    1    2    0    0 -0.25833452623E+02  0.34808879152E+02  0.13619244168E+03  0.18993525624E+03  0.12509194638E+03 0.  0.
          5    1    3    3  502    0 -0.11304653524E+02 -0.46453480776E+02  0.65317057282E+02  0.81052522721E+02  0.41800000000E+01 0.  1.
         -5    1    3    3    0  502 -0.14528799100E+02  0.81262359927E+02  0.70875384398E+02  0.10888273352E+03  0.41800000000E+01 0.  1.
        -11    1    1    2    0    0 -0.35499157434E+02 -0.17342961923E+02  0.31860713439E+02  0.50755034899E+02  0.00000000000E+00 0.  1.
         11    1    1    2    0    0  0.61332610057E+02 -0.17465917229E+02  0.18896579433E+02  0.66511863869E+02  0.00000000000E+00 0. -1.
</event>
<event>
 7    1  0.2440960E-009  0.9555126E+02  0.7561462E-02  0.1289939E+00
          3   -1    0    0  501    0  0.00000000000E+00  0.00000000000E+00  0.10173026486E+03  0.10173026486E+03  0.00000000000E+00 0. -1.
         -3   -1    0    0    0  501 -0.00000000000E+00 -0.00000000000E+00 -0.13752051811E+03  0.13752051811E+03  0.00000000000E+00 0.  1.
         25    2    1    2    0    0 -0.44748853575E+02 -0.78338311885E+01 -0.11074603514E+02  0.13353209643E+03  0.12507735657E+03 0.  0.
          5    1    3    3  502    0 -0.47779759198E+02 -0.36020335257E+02 -0.54805109214E+02  0.81249260532E+02  0.41800000000E+01 0. -1.
         -5    1    3    3    0  502  0.30309056234E+01  0.28186504068E+02  0.43730505700E+02  0.52282835895E+02  0.41800000000E+01 0. -1.
        -11    1    1    2    0    0  0.18302315294E+02 -0.42129879530E+02 -0.69164477526E+01  0.46451466541E+02  0.00000000000E+00 0.  1.
         11    1    1    2    0    0  0.26446538281E+02  0.49963710718E+02 -0.17799201978E+02  0.59267220003E+02  0.00000000000E+00 0. -1.
</event>
<event>
 7    1  0.2440960E-009  0.1051857E+03  0.7561462E-02  0.1269754E+00
         -1   -1    0    0    0  501 -0.00000000000E+00  0.00000000000E+00  0.96275543865E+02  0.96275543865E+02  0.00000000000E+00 0.  1.
          1   -1    0    0  501    0  0.00000000000E+00 -0.00000000000E+00 -0.19127758331E+03  0.19127758331E+03  0.00000000000E+00 0. -1.
         25    2    1    2    0    0 -0.61593749055E+02 -0.15355983768E+02 -0.10682354745E+03  0.17631994971E+03  0.12509139946E+03 0.  0.
          5    1    3    3  502    0 -0.53760327922E+02 -0.45328179799E+02 -0.59275759021E+01  0.70692469883E+02  0.41800000000E+01 0.  1.
         -5    1    3    3    0  502 -0.78334211336E+01  0.29972196031E+02 -0.10089597154E+03  0.10562747983E+03  0.41800000000E+01 0.  1.
        -11    1    1    2    0    0  0.78074007764E+02 -0.97041723411E+01  0.17767215433E+02  0.80656032592E+02  0.00000000000E+00 0.  1.
         11    1    1    2    0    0 -0.16480258709E+02  0.25060156109E+02 -0.59457074299E+01  0.30577144866E+02  0.00000000000E+00 0. -1.
</event>
<event>
 7    1  0.2440960E-009  0.1512300E+03  0.7561462E-02  0.1198970E+00
         -2   -1    0    0    0  501 -0.00000000000E+00  0.00000000000E+00  0.11832098645E+03  0.11832098645E+03  0.00000000000E+00 0. -1.
          2   -1    0    0  501    0  0.00000000000E+00 -0.00000000000E+00 -0.23197096865E+03  0.23197096865E+03  0.00000000000E+00 0.  1.
         25    2    1    2    0    0 -0.32686690621E+02  0.11374235064E+03 -0.10093419887E+03  0.19960416940E+03  0.12509344454E+03 0.  0.
          5    1    3    3  502    0 -0.63568251592E+02  0.33843403141E+02 -0.86507503602E+02  0.11263800036E+03  0.41800000000E+01 0.  1.
         -5    1    3    3    0  502  0.30881560972E+02  0.79898947502E+02 -0.14426695264E+02  0.86966169033E+02  0.41800000000E+01 0.  1.
        -11    1    1    2    0    0 -0.27618675631E+02 -0.24904902688E+02  0.14506203742E+02  0.39918358790E+02  0.00000000000E+00 0. -1.
         11    1    1    2    0    0  0.60305366252E+02 -0.88837447955E+02 -0.27221987085E+02  0.11076942691E+03  0.00000000000E+00 0.  1.
</event>
<event>
 7    1  0.2440960E-009  0.1504635E+03  0.7561462E-02  0.1199905E+00
          1   -1    0    0  501    0  0.00000000000E+00  0.00000000000E+00  0.50193013559E+03  0.50193013559E+03  0.00000000000E+00 0. -1.
         -1   -1    0    0    0  501 -0.00000000000E+00 -0.00000000000E+00 -0.51734593563E+02  0.51734593563E+02  0.00000000000E+00 0.  1.
         25    2    1    2    0    0 -0.83076158830E+02  0.73103765653E+02  0.31458893160E+03  0.35617337814E+03  0.12508985048E+03 0.  0.
          5    1    3    3  502    0 -0.42375536792E+02  0.10504163529E+03  0.23855593326E+03  0.26411330326E+03  0.41800000000E+01 0.  1.
         -5    1    3    3    0  502 -0.40700622038E+02 -0.31937869641E+02  0.76032998338E+02  0.92060074885E+02  0.41800000000E+01 0.  1.
        -11    1    1    2    0    0 -0.33629226052E+01 -0.44504447831E+02  0.16527625574E+02  0.47593250911E+02  0.00000000000E+00 0.  1.
         11    1    1    2    0    0  0.86439081436E+02 -0.28599317822E+02  0.11907898485E+03  0.14989810010E+03  0.00000000000E+00 0. -1.
</event>
<event>
 7    1  0.2440960E-009  0.1359555E+03  0.7561462E-02  0.1218877E+00
          1   -1    0    0  501    0  0.00000000000E+00  0.00000000000E+00  0.49449671679E+03  0.49449671679E+03  0.00000000000E+00 0. -1.
         -1   -1    0    0    0  501 -0.00000000000E+00 -0.00000000000E+00 -0.55318952798E+02  0.55318952798E+02  0.00000000000E+00 0.  1.
         25    2    1    2    0    0  0.22880014946E+02 -0.93045007007E+02  0.99409182373E+02  0.18631182939E+03  0.12509613830E+03 0.  0.
          5    1    3    3  502    0 -0.35316069010E+02 -0.92962469855E+00 -0.42941853120E+01  0.35832964709E+02  0.41800000000E+01 0. -1.
         -5    1    3    3    0  502  0.58196083956E+02 -0.92115382308E+02  0.10370336769E+03  0.15047886468E+03  0.41800000000E+01 0. -1.
        -11    1    1    2    0    0  0.30815856825E+02  0.20379740797E+02  0.72403005462E+02  0.81284353148E+02  0.00000000000E+00 0.  1.
         11    1    1    2    0    0 -0.53695871772E+02  0.72665266210E+02  0.26736557615E+03  0.28221948705E+03  0.00000000000E+00 0. -1.
</event>
<event>
 7    1  0.2440960E-009  0.9963790E+02  0.7561462E-02  0.1281059E+00
         -1   -1    0    0    0  501 -0.00000000000E+00  0.00000000000E+00  0.31333975510E+02  0.31333975510E+02  0.00000000000E+00 0.  1.
          1   -1    0    0  501    0  0.00000000000E+00 -0.00000000000E+00 -0.73447751573E+03  0.73447751573E+03  0.00000000000E+00 0. -1.
         25    2    1    2    0    0 -0.34609728926E+02  0.30257764959E+02 -0.63018475247E+03  0.64412430574E+03  0.12509969354E+03 0.  0.
          5    1    3    3  502    0 -0.51787889301E+02  0.63491401579E+02 -0.54296265969E+03  0.54912572857E+03  0.41800000000E+01 0. -1.
         -5    1    3    3    0  502  0.17178160375E+02 -0.33233636621E+02 -0.87222092777E+02  0.94998577175E+02  0.41800000000E+01 0. -1.
        -11    1    1    2    0    0  0.27095514919E+02 -0.50879116666E+02 -0.14783813975E+02  0.59509768921E+02  0.00000000000E+00 0.  1.
         11    1    1    2    0    0  0.75142140068E+01  0.20621351707E+02 -0.58174973775E+02  0.62177416576E+02  0.00000000000E+00 0. -1.
</event>
<event>
 7    1  0.2440960E-009  0.1311694E+03  0.7561462E-02  0.1225731E+00
          4   -1    0    0  501    0  0.00000000000E+00  0.00000000000E+00  0.48267840581E+03  0.48267840581E+03  0.00000000000E+00 0. -1.
         -4   -1    0    0    0  501 -0.00000000000E+00 -0.00000000000E+00 -0.51833436887E+02  0.51833436887E+02  0.00000000000E+00 0.  1.
         25    2    1    2    0    0  0.19042132560E+02 -0.86137871170E+02  0.35458266474E+03  0.38621186841E+03  0.12509358698E+03 0.  0.
          5    1    3    3  502    0 -0.45324856564E+02 -0.79241124712E+01  0.67871039049E+02  0.82104107831E+02  0.41800000000E+01 0. -1.
         -5    1    3    3    0  502  0.64366989124E+02 -0.78213758699E+02  0.28671162569E+03  0.30410776058E+03  0.41800000000E+01 0. -1.
        -11    1    1    2    0    0  0.16603315345E+02  0.75864818609E+02  0.18799783556E+02  0.79903520854E+02  0.00000000000E+00 0.  1.
         11    1    1    2    0    0 -0.35645447905E+02  0.10273052561E+02  0.57462520624E+02  0.68396453429E+02  0.00000000000E+00 0. -1.
</event>
<event>
 7    1  0.2440960E-009  0.1069391E+03  0.7561462E-02  0.1266346E+00
          1   -1    0    0  501    0  0.00000000000E+00  0.00000000000E+00  0.10509773640E+03  0.10509773640E+03  0.00000000000E+00 0. -1.
         -1   -1    0    0    0  501 -0.00000000000E+00 -0.00000000000E+00 -0.16357310373E+03  0.16357310373E+03  0.00000000000E+00 0.  1.
         25    2    1    2    0    0  0.61163600224E+02 -0.17730737473E+02 -0.68659252877E+02  0.15625960856E+03  0.12509039618E+03 0.  0.
          5    1    3    3  502    0  0.55231963096E+02  0.28381202085E+02  0.11698577380E+02  0.63327651875E+02  0.41800000000E+01 0. -1.
         -5    1    3    3    0  502  0.59316371278E+01 -0.46111939558E+02 -0.80357830257E+02  0.92931956680E+02  0.41800000000E+01 0. -1.
        -11    1    1    2    0    0 -0.69360185652E+02  0.40805861304E+02 -0.94474476618E+01  0.81025970761E+02  0.00000000000E+00 0.  1.
         11    1    1    2    0    0  0.81965854279E+01 -0.23075123831E+02  0.19631333218E+02  0.31385260815E+02  0.00000000000E+00 0. -1.
</event>
<event>
 7    1  0.2440960E-009  0.9312236E+02  0.7561462E-02  0.1295462E+00
         -2   -1    0    0    0  501 -0.00000000000E+00  0.00000000000E+00  0.38369470944E+03  0.38369470944E+03  0.00000000000E+00 0.  1.
          2   -1    0    0  501    0  0.00000000000E+00 -0.00000000000E+00 -0.41926647471E+02  0.41926647471E+02  0.00000000000E+00 0. -1.
         25    2    1    2    0    0 -0.48481714590E+01  0.34026928767E+02  0.27570189869E+03  0.30469695923E+03  0.12508942150E+03 0.  0.
          5    1    3    3  502    0  0.16883438065E+02  0.55965684060E+02  0.26552478047E+03  0.27191559300E+03  0.41800000000E+01 0.  1.
         -5    1    3    3    0  502 -0.21731609524E+02 -0.21938755294E+02  0.10177118222E+02  0.32781366226E+02  0.41800000000E+01 0.  1.
        -11    1    1    2    0    0 -0.39236915782E+02  0.23701737936E+01  0.93712490591E+01  0.40410067964E+02  0.00000000000E+00 0. -1.
         11    1    1    2    0    0  0.44085087241E+02 -0.36397102560E+02  0.56694914215E+02  0.80514329716E+02  0.00000000000E+00 0.  1.
</event>
<event>
 7    1  0.2440960E-009  0.1065281E+03  0.7561462E-02  0.1267138E+00
          1   -1    0    0  501    0  0.00000000000E+00  0.00000000000E+00  0.27269986246E+03  0.27269986246E+03  0.00000000000E+00 0. -1.
         -1   -1    0    0    0  501 -0.00000000000E+00 -0.00000000000E+00 -0.62035315788E+02  0.62035315788E+02  0.00000000000E+00 0.  1.
         25    2    1    2    0    0 -0.42069490871E+02  0.55986490093E+02  0.13276565612E+03  0.19539374246E+03  0.12509063120E+03 0.  0.
          5    1    3    3  502    0 -0.53032263001E+02  0.64075913958E+02  0.15088448682E+03  0.17234194043E+03  0.41800000000E+01 0. -1.
         -5    1    3    3    0  502  0.10962772130E+02 -0.80894238649E+01 -0.18118830696E+02  0.23051802034E+02  0.41800000000E+01 0. -1.
        -11    1    1    2    0    0  0.70617791881E+02 -0.49528389756E+02  0.57447730036E+02  0.10363481851E+03  0.00000000000E+00 0. -1.
         11    1    1    2    0    0 -0.28548301010E+02 -0.64581003372E+01  0.20451160513E+02  0.35706617270E+02  0.00000000000E+00 0.  1.
</event>
<event>
 7    1  0.3957355E-009  0.1515283E+03  0.7561462E-02  0.1198608E+00
          2   -1    0    0  501    0  0.00000000000E+00  0.00000000000E+00  0.80873262563E+03  0.80873262563E+03  0.00000000000E+00 0. -1.
         -2   -1    0    0    0  501 -0.00000000000E+00 -0.00000000000E+00 -0.44149361300E+02  0.44149361300E+02  0.00000000000E+00 0.  1.
         25    2    1    2    0    0  0.52289843610E+02 -0.12669842016E+03  0.56117188903E+03  0.59105502577E+03  0.12508172144E+03 0.  0.
          5    1    3    3  502    0  0.35408670647E+02 -0.62876294884E+02  0.48419477316E+03  0.48956026511E+03  0.41800000000E+01 0. -1.
         -5    1    3    3    0  502  0.16881172963E+02 -0.63822125274E+02  0.76977115872E+02  0.10149476067E+03  0.41800000000E+01 0. -1.
        -11    1    1    2    0    0  0.90644326228E+01  0.95251266748E+02  0.12499122884E+03  0.15740957735E+03  0.00000000000E+00 0.  1.
         11    1    1    2    0    0 -0.61354276233E+02  0.31447153410E+02  0.78420146467E+02  0.10441738381E+03  0.00000000000E+00 0. -1.
</event>
<event>
 7    1  0.2440960E-009  0.1368390E+03  0.7561462E-02  0.1217647E+00
         -1   -1    0    0    0  501 -0.00000000000E+00  0.00000000000E+00  0.33462637879E+02  0.33462637879E+02  0.00000000000E+00 0.  1.
          1   -1    0    0  501    0  0.00000000000E+00 -0.00000000000E+00 -0.64584203211E+03  0.64584203211E+03  0.00000000000E+00 0. -1.
         25    2    1    2    0    0 -0.41261035504E+02 -0.90060886169E+02 -0.32179432968E+03  0.35918348135E+03  0.12509095248E+03 0.  0.
          5    1    3    3  502    0 -0.78327262437E+02 -0.40199995054E+02 -0.12631962979E+03  0.15403025973E+03  0.41800000000E+01 0. -1.
         -5    1    3    3    0  502  0.37066226933E+02 -0.49860891115E+02 -0.19547469990E+03  0.20515322162E+03  0.41800000000E+01 0. -1.
        -11    1    1    2    0    0 -0.19576185940E+02  0.39804459067E+02 -0.49581341178E+02  0.66527674021E+02  0.00000000000E+00 0.  1.
         11    1    1    2    0    0  0.60837221444E+02  0.50256427102E+02 -0.24100372337E+03  0.25359351462E+03  0.00000000000E+00 0. -1.
</event>
<event>
 7    1  0.2440960E-009  0.9375921E+02  0.7561462E-02  0.1293995E+00
         -1   -1    0    0    0  501 -0.00000000000E+00  0.00000000000E+00  0.54955779493E+02  0.54955779493E+02  0.00000000000E+00 0.  1.
          1   -1    0    0  501    0  0.00000000000E+00 -0.00000000000E+00 -0.25351561165E+03  0.25351561165E+03  0.00000000000E+00 0. -1.
         25    2    1    2    0    0  0.16980589126E+02 -0.42897688781E+02 -0.13352194749E+03  0.18868954927E+03  0.12508830255E+03 0.  0.
          5    1    3    3  502    0 -0.13204423838E+02  0.34233673721E+02 -0.72744723756E+01  0.37638963504E+02  0.41800000000E+01 0. -1.
         -5    1    3    3    0  502  0.30185012964E+02 -0.77131362502E+02 -0.12624747511E+03  0.15105058577E+03  0.41800000000E+01 0. -1.
        -11    1    1    2    0    0 -0.31976127671E+02  0.13608366736E+02  0.11390956271E+02  0.36570675012E+02  0.00000000000E+00 0.  1.
         11    1    1    2    0    0  0.14995538545E+02  0.29289322045E+02 -0.76428840941E+02  0.83211166857E+02  0.00000000000E+00 0. -1.
</event>
<event>
 7    1  0.2440960E-009  0.1420960E+03  0.7561462E-02  0.1210536E+00
         -2   -1    0    0    0  501 -0.00000000000E+00  0.00000000000E+00  0.38283233416E+02  0.38283233416E+02  0.00000000000E+00 0.  1.
          2   -1    0    0  501    0  0.00000000000E+00 -0.00000000000E+00 -0.60582287581E+03  0.60582287581E+03  0.00000000000E+00 0. -1.
         25    2    1    2    0    0 -0.95357265932E+02 -0.13946693044E+01 -0.40273166285E+03  0.43235574140E+03  0.12507494390E+03 0.  0.
          5    1    3    3  502    0 -0.11862160495E+03  0.25119600871E+02 -0.32446193188E+03  0.34640308479E+03  0.41800000000E+01 0.  1.
         -5    1    3    3    0  502  0.23264339020E+02 -0.26514270175E+02 -0.78269730968E+02  0.85952656612E+02  0.41800000000E+01 0.  1.
        -11    1    1    2    0    0  0.33718606500E+02 -0.40589903763E+02 -0.99463487802E+02  0.11259427213E+03  0.00000000000E+00 0. -1.
         11    1    1    2    0    0  0.61638659432E+02  0.41984573067E+02 -0.65344491746E+02  0.99156095697E+02  0.00000000000E+00 0.  1.
</event>
<event>
 7    1  0.2440960E-009  0.1013291E+03  0.7561462E-02  0.1277526E+00
         -1   -1    0    0    0  501 -0.00000000000E+00  0.00000000000E+00  0.54758624724E+03  0.54758624724E+03  0.00000000000E+00 0.  1.
          1   -1    0    0  501    0  0.00000000000E+00 -0.00000000000E+00 -0.22215799231E+02  0.22215799231E+02  0.00000000000E+00 0. -1.
         25    2    1    2    0    0 -0.13638828202E+02  0.11193847863E+02  0.32802755870E+03  0.35151219510E+03  0.12508966453E+03 0.  0.
          5    1    3    3  502    0  0.34724764644E+02  0.43178556809E+02  0.23759317269E+03  0.24400447774E+03  0.41800000000E+01 0. -1.
         -5    1    3    3    0  502 -0.48363592845E+02 -0.31984708946E+02  0.90434386014E+02  0.10750771736E+03  0.41800000000E+01 0. -1.
        -11    1    1    2    0    0 -0.24459809466E+02 -0.35979308845E+02  0.12963897198E+03  0.13674449166E+03  0.00000000000E+00 0.  1.
         11    1    1    2    0    0  0.38098637668E+02  0.24785460982E+02  0.67703917322E+02  0.81545359702E+02  0.00000000000E+00 0. -1.
</event>
<event>
 7    1  0.2440960E-009  0.9095557E+02  0.7561462E-02  0.1300554E+00
          2   -1    0    0  501    0  0.00000000000E+00  0.00000000000E+00  0.18690879518E+03  0.18690879518E+03  0.00000000000E+00 0. -1.
         -2   -1    0    0    0  501 -0.00000000000E+00 -0.00000000000E+00 -0.78226997137E+02  0.78226997137E+02  0.00000000000E+00 0.  1.
         25    2    1    2    0    0 -0.46945875369E+02 -0.24937289505E+02  0.59054853123E+02  0.14818595116E+03  0.12508323957E+03 0.  0.
          5    1    3    3  502    0 -0.20016073222E+02 -0.62851468605E+02 -0.78930662335E+01  0.66563677690E+02  0.41800000000E+01 0. -1.
         -5    1    3    3    0  502 -0.26929802146E+02  0.37914179100E+02  0.66947919357E+02  0.81622273472E+02  0.41800000000E+01 0. -1.
        -11    1    1    2    0    0  0.48972712560E+02  0.51598711449E+01 -0.13257787603E+02  0.50997252650E+02  0.00000000000E+00 0.  1.
         11    1    1    2    0    0 -0.20268371915E+01  0.19777418360E+02  0.62884732528E+02  0.65952588509E+02  0.00000000000E+00 0. -1.
</event>
<event>
 7    1  0.2440960E-009  0.1915069E+03  0.7561462E-02  0.1157109E+00
         -3   -1    0    0    0  501 -0.00000000000E+00  0.00000000000E+00  0.12279123083E+03  0.12279123083E+03  0.00000000000E+00 0.  1.
          3   -1    0    0  501    0  0.00000000000E+00 -0.00000000000E+00 -0.32654907421E+03  0.32654907421E+03  0.00000000000E+00 0. -1.
         25    2    1    2    0    0  0.16302109419E+03 -0.21784356982E+02 -0.13655872238E+03  0.24768100449E+03  0.12508860846E+03 0.  0.
          5    1    3    3  502    0  0.16311999499E+03  0.13901952685E+02 -0.84099526761E+02  0.18409671332E+03  0.41800000000E+01 0.  1.
         -5    1    3    3    0  502 -0.98900797157E-01 -0.35686309668E+02 -0.52459195614E+02  0.63584291169E+02  0.41800000000E+01 0.  1.
        -11    1    1    2    0    0 -0.12751055938E+03 -0.19357166133E+02 -0.21707811958E+02  0.13078559452E+03  0.00000000000E+00 0. -1.
         11    1    1    2    0    0 -0.35510534811E+02  0.41141523115E+02 -0.45491309046E+02  0.70873706024E+02  0.00000000000E+00 0.  1.
</event>
<event>
 7    1  0.2440960E-009  0.1129616E+03  0.7561462E-02  0.1255182E+00
          2   -1    0    0  501    0  0.00000000000E+00  0.00000000000E+00  0.13533878024E+03  0.13533878024E+03  0.00000000000E+00 0. -1.
         -2   -1    0    0    0  501 -0.00000000000E+00 -0.00000000000E+00 -0.27168842469E+03  0.27168842469E+03  0.00000000000E+00 0.  1.
         25    2    1    2    0    0 -0.62274410802E+02  0.39383393717E+02 -0.19759756045E+03  0.24519823442E+03  0.12509286282E+03 0.  0.
          5    1    3    3  502    0 -0.81049364146E+02  0.90002790206E+01 -0.55769145839E+02  0.98882124161E+02  0.41800000000E+01 0.  1.
         -5    1    3    3    0  502  0.18774953344E+02  0.30383114696E+02 -0.14182841461E+03  0.14631611026E+03  0.41800000000E+01 0.  1.
        -11    1    1    2    0    0 -0.78033268369E+01  0.16777712713E+02 -0.29071843038E+02  0.34460928763E+02  0.00000000000E+00 0.  1.
         11    1    1    2    0    0  0.70077737639E+02 -0.56161106430E+02  0.90319759034E+02  0.12736804175E+03  0.00000000000E+00 0. -1.
</event>
<event>
 7    1  0.2440960E-009  0.1337670E+03  0.7561462E-02  0.1221971E+00
         -2   -1    0    0    0  501 -0.00000000000E+00  0.00000000000E+00  0.68970107742E+03  0.68970107742E+03  0.00000000000E+00 0. -1.
          2   -1    0    0  501    0  0.00000000000E+00 -0.00000000000E+00 -0.74567214451E+02  0.74567214451E+02  0.00000000000E+00 0.  1.
         25    2    1    2    0    0  0.69845008188E+02  0.93918238988E+02  0.58867599487E+03  0.61309553044E+03  0.12509093386E+03 0.  0.
          5    1    3    3  502    0  0.65377857304E+02  0.52112190905E+02  0.14512804789E+03  0.16753974857E+03  0.41800000000E+01 0. -1.
         -5    1    3    3    0  502  0.44671508847E+01  0.41806048083E+02  0.44354794698E+03  0.44555578187E+03  0.41800000000E+01 0. -1.
        -11    1    1    2    0    0 -0.14510120523E+01 -0.68641637522E+02 -0.10451528950E+02  0.69447925059E+02  0.00000000000E+00 0.  1.
         11    1    1    2    0    0 -0.68393996136E+02 -0.25276601466E+02  0.36909397055E+02  0.81724836372E+02  0.00000000000E+00 0. -1.
</event>
<event>
 7    1  0.2440960E-009  0.1064029E+03  0.7561462E-02  0.1267380E+00
         -2   -1    0    0    0  501 -0.00000000000E+00  0.00000000000E+00  0.19628017171E+02  0.19628017171E+02  0.00000000000E+00 0.  1.
          2   -1    0    0  501    0  0.00000000000E+00 -0.00000000000E+00 -0.92888928105E+03  0.92888928105E+03  0.00000000000E+00 0. -1.
         25    2    1    2    0    0 -0.11640082469E+02  0.40924624080E+02 -0.73452149175E+03  0.74631046556E+03  0.12508865970E+03 0.  0.
          5    1    3    3  502    0 -0.40668321846E+02 -0.19613976559E+02 -0.12285021471E+03  0.13095139607E+03  0.41800000000E+01 0. -1.
         -5    1    3    3    0  502  0.29028239377E+02  0.60538600639E+02 -0.61167127704E+03  0.61535906949E+03  0.41800000000E+01 0. -1.
        -11    1    1    2    0    0  0.11609462743E+02  0.28497293551E+02 -0.71002498486E+02  0.77383655614E+02  0.00000000000E+00 0. -1.
         11    1    1    2    0    0  0.30619726070E-01 -0.69421917631E+02 -0.10373727364E+03  0.12482317704E+03  0.00000000000E+00 0.  1.
</event>
<event>
 7    1  0.2440960E-009  0.1205188E+03  0.7561462E-02  0.1242244E+00
          1   -1    0    0  501    0  0.00000000000E+00  0.00000000000E+00  0.14826484618E+03  0.14826484618E+03  0.00000000000E+00 0. -1.
         -1   -1    0    0    0  501 -0.00000000000E+00 -0.00000000000E+00 -0.10941020662E+03  0.10941020662E+03  0.00000000000E+00 0.  1.
         25    2    1    2    0    0 -0.32184074700E+02  0.55696608361E+02  0.30600481644E+02  0.14394695026E+03  0.12508560334E+03 0.  0.
          5    1    3    3  502    0 -0.75683869668E+02  0.18132978540E+02  0.36420949473E+02  0.86027966379E+02  0.41800000000E+01 0. -1.
         -5    1    3    3    0  502  0.43499794968E+02  0.37563629821E+02 -0.58204678295E+01  0.57918983877E+02  0.41800000000E+01 0. -1.
        -11    1    1    2    0    0  0.59836737927E+02 -0.27078880042E+02 -0.15364425412E+02  0.67451957112E+02  0.00000000000E+00 0.  1.
         11    1    1    2    0    0 -0.27652663226E+02 -0.28617728319E+02  0.23618583324E+02  0.46276145430E+02  0.00000000000E+00 0. -1.
</event>
<event>
 7    1  0.2440960E-009  0.7057567E+02  0.7561462E-02  0.1358146E+00
          2   -1    0    0  501    0  0.00000000000E+00  0.00000000000E+00  0.47439260003E+03  0.47439260003E+03  0.00000000000E+00 0. -1.
         -2   -1    0    0    0  501 -0.00000000000E+00 -0.00000000000E+00 -0.28108209503E+02  0.28108209503E+02  0.00000000000E+00 0.  1.
         25    2    1    2    0    0  0.19250760210E+02 -0.35016020307E+02  0.31883121809E+03  0.34481509910E+03  0.12508954191E+03 0.  0.
          5    1    3    3  502    0  0.30371555409E+02 -0.33475081304E+02  0.27159157329E+02  0.52897114034E+02  0.41800000000E+01 0. -1.
         -5    1    3    3    0  502 -0.11120795200E+02 -0.15409390024E+01  0.29167206076E+03  0.29191798507E+03  0.41800000000E+01 0. -1.
        -11    1    1    2    0    0  0.25142762744E+02 -0.30144998297E+01  0.11459969966E+02  0.27795262892E+02  0.00000000000E+00 0.  1.
         11    1    1    2    0    0 -0.44393522953E+02  0.38030520136E+02  0.11599320247E+03  0.12989044753E+03  0.00000000000E+00 0. -1.
</event>
<event>
 7    1  0.2440960E-009  0.2150816E+03  0.7561462E-02  0.1137604E+00
         -2   -1    0    0    0  501 -0.00000000000E+00  0.00000000000E+00  0.79321768171E+02  0.79321768171E+02  0.00000000000E+00 0.  1.
          2   -1    0    0  501    0  0.00000000000E+00 -0.00000000000E+00 -0.15907071607E+04  0.15907071607E+04  0.00000000000E+00 0. -1.
         25    2    1    2    0    0 -0.16829109476E+03  0.95992288316E+02 -0.14178038306E+04  0.14364371357E+04  0.12509009045E+03 0.  0.
          5    1    3    3  502    0 -0.58277694669E+02  0.94637071645E+02 -0.51035386372E+03  0.52233227322E+03  0.41800000000E+01 0. -1.
         -5    1    3    3    0  502 -0.11001340009E+03  0.13552166708E+01 -0.90744996690E+03  0.91410486249E+03  0.41800000000E+01 0. -1.
        -11    1    1    2    0    0  0.98020513683E+02 -0.11112177053E+02 -0.18811618272E+02  0.10042598550E+03  0.00000000000E+00 0.  1.
         11    1    1    2    0    0  0.70270581076E+02 -0.84880111263E+02 -0.74769943585E+02  0.13316580761E+03  0.00000000000E+00 0. -1.
</event>
<event>
 7    1  0.2440960E-009  0.1304282E+03  0.7561462E-02  0.1226822E+00
         -3   -1    0    0    0  501 -0.00000000000E+00  0.00000000000E+00  0.40919896979E+02  0.40919896979E+02  0.00000000000E+00 0.  1.
          3   -1    0    0  501    0  0.00000000000E+00 -0.00000000000E+00 -0.45858383634E+03  0.45858383634E+03  0.00000000000E+00 0. -1.
         25    2    1    2    0    0  0.70810211806E+02  0.38171584634E+02 -0.19591045389E+03  0.24596458884E+03  0.12508603859E+03 0.  0.
          5    1    3    3  502    0  0.18142216761E+02 -0.44275585380E+02 -0.43462435294E+02  0.64775945932E+02  0.41800000000E+01 0.  1.
         -5    1    3    3    0  502  0.52667995045E+02  0.82447170014E+02 -0.15244801859E+03  0.18118864291E+03  0.41800000000E+01 0.  1.
        -11    1    1    2    0    0 -0.62650155547E+02 -0.62951366821E+02 -0.12506098739E+03  0.15338894074E+03  0.00000000000E+00 0.  1.
         11    1    1    2    0    0 -0.81600562586E+01  0.24779782187E+02 -0.96692498091E+02  0.10015020375E+03  0.00000000000E+00 0. -1.
</event>
<event>
 7    1  0.2440960E-009  0.1397765E+03  0.7561462E-02  0.1213630E+00
         -2   -1    0    0    0  501 -0.00000000000E+00  0.00000000000E+00  0.15211649580E+04  0.15211649580E+04  0.00000000000E+00 0.  1.
          2   -1    0    0  501    0  0.00000000000E+00 -0.00000000000E+00 -0.17673069787E+02  0.17673069787E+02  0.00000000000E+00 0. -1.
         25    2    1    2    0    0  0.53709589828E+01  0.11536660919E+03  0.98922030478E+03  0.10037645415E+04  0.12509253280E+03 0.  0.
          5    1    3    3  502    0  0.18673820948E+02  0.29703536882E+01  0.54465555221E+03  0.54499970417E+03  0.41800000000E+01 0. -1.
         -5    1    3    3    0  502 -0.13302861965E+02  0.11239625551E+03  0.44456475257E+03  0.45876483738E+03  0.41800000000E+01 0. -1.
        -11    1    1    2    0    0 -0.31162466418E+02 -0.26215991518E+01  0.88055818244E+02  0.93444096774E+02  0.00000000000E+00 0.  1.
         11    1    1    2    0    0  0.25791507435E+02 -0.11274501004E+03  0.42621576524E+03  0.44162938951E+03  0.00000000000E+00 0. -1.
</event>
<event>
 7    1  0.2440960E-009  0.1246819E+03  0.7561462E-02  0.1235567E+00
         -2   -1    0    0    0  501 -0.00000000000E+00  0.00000000000E+00  0.25541703034E+02  0.25541703034E+02  0.00000000000E+00 0.  1.
          2   -1    0    0  501    0  0.00000000000E+00 -0.00000000000E+00 -0.79808670407E+03  0.79808670407E+03  0.00000000000E+00 0. -1.
         25    2    1    2    0    0  0.48329418489E+02  0.28518473294E+02 -0.61461917466E+03  0.62972505914E+03  0.12509150349E+03 0.  0.
          5    1    3    3  502    0 -0.12076461651E+02 -0.42110494357E+02 -0.18850361727E+03  0.19357226244E+03  0.41800000000E+01 0.  1.
         -5    1    3    3    0  502  0.60405880140E+02  0.70628967651E+02 -0.42611555739E+03  0.43615279671E+03  0.41800000000E+01 0.  1.
        -11    1    1    2    0    0  0.20350296778E+02  0.19767596750E+02 -0.44805065596E+02  0.53031937201E+02  0.00000000000E+00 0.  1.
         11    1    1    2    0    0 -0.68679715268E+02 -0.48286070044E+02 -0.11312076078E+03  0.14087141076E+03  0.00000000000E+00 0. -1.
</event>
<event>
 7    1  0.2440960E-009  0.1204909E+03  0.7561462E-02  0.1242289E+00
          1   -1    0    0  501    0  0.00000000000E+00  0.00000000000E+00  0.40666560902E+02  0.40666560902E+02  0.00000000000E+00 0. -1.
         -1   -1    0    0    0  501 -0.00000000000E+00 -0.00000000000E+00 -0.50968764881E+03  0.50968764881E+03  0.00000000000E+00 0.  1.
         25    2    1    2    0    0 -0.25619080413E+02 -0.58815708249E+02 -0.13086181978E+03  0.19206476173E+03  0.12509369291E+03 0.  0.
          5    1    3    3  502    0 -0.66489411435E+02 -0.39196809893E+02 -0.32834622109E+02  0.83981048742E+02  0.41800000000E+01 0.  1.
         -5    1    3    3    0  502  0.40870331022E+02 -0.19618898356E+02 -0.98027197669E+02  0.10808371299E+03  0.41800000000E+01 0.  1.
        -11    1    1    2    0    0  0.58282112793E+02  0.95666906796E+01 -0.18058434010E+03  0.18999744769E+03  0.00000000000E+00 0.  1.
         11    1    1    2    0    0 -0.32663032379E+02  0.49249017570E+02 -0.15757492803E+03  0.16829200028E+03  0.00000000000E+00 0. -1.
</event>
<event>
 7    1  0.2440960E-009  0.1599208E+03  0.7561462E-02  0.1188786E+00
         -1   -1    0    0    0  501 -0.00000000000E+00  0.00000000000E+00  0.42136154923E+02  0.42136154923E+02  0.00000000000E+00 0.  1.
          1   -1    0    0  501    0  0.00000000000E+00 -0.00000000000E+00 -0.10472708956E+04  0.10472708956E+04  0.00000000000E+00 0. -1.
         25    2    1    2    0    0 -0.14567575838E+03 -0.30954020543E+02 -0.25517027414E+03  0.32084096235E+03  0.12508987309E+03 0.  0.
          5    1    3    3  502    0 -0.12607010018E+03 -0.39356264779E+02 -0.26565908907E+03  0.29670660549E+03  0.41800000000E+01 0.  1.
         -5    1    3    3    0  502 -0.19605658208E+02  0.84022442367E+01  0.10488814940E+02  0.24134356856E+02  0.41800000000E+01 0.  1.
        -11    1    1    2    0    0  0.97776804304E+02  0.55200882682E+02 -0.44733148522E+03  0.46120808598E+03  0.00000000000E+00 0.  1.
         11    1    1    2    0    0  0.47898954080E+02 -0.24246862139E+02 -0.30263298135E+03  0.30735800221E+03  0.00000000000E+00 0. -1.
</event>
<event>
 7    1  0.2440960E-009  0.1318499E+03  0.7561462E-02  0.1224736E+00
          1   -1    0    0  501    0  0.00000000000E+00  0.00000000000E+00  0.31434278537E+03  0.31434278537E+03  0.00000000000E+00 0. -1.
         -1   -1    0    0    0  501 -0.00000000000E+00 -0.00000000000E+00 -0.56879289847E+02  0.56879289847E+02  0.00000000000E+00 0.  1.
         25    2    1    2    0    0 -0.64571533145E+02 -0.41228813215E+02  0.16744156381E+03  0.22260556577E+03  0.12508901906E+03 0.  0.
          5    1    3    3  502    0 -0.60054376496E+02 -0.83610731360E+02  0.12867384503E+03  0.16483844615E+03  0.41800000000E+01 0.  1.
         -5    1    3    3    0  502 -0.45171566493E+01  0.42381918146E+02  0.38767718783E+02  0.57767119623E+02  0.41800000000E+01 0.  1.
        -11    1    1    2    0    0  0.65246014594E+02 -0.10523100371E+02  0.56539393477E+02  0.86974025298E+02  0.00000000000E+00 0. -1.
         11    1    1    2    0    0 -0.67448144893E+00  0.51751913586E+02  0.33482538236E+02  0.61642484146E+02  0.00000000000E+00 0.  1.
</event>
<event>
 7    1  0.2440960E-009  0.1061187E+03  0.7561462E-02  0.1267931E+00
          1   -1    0    0  501    0  0.00000000000E+00  0.00000000000E+00  0.17286895881E+03  0.17286895881E+03  0.00000000000E+00 0. -1.
         -1   -1    0    0    0  501 -0.00000000000E+00 -0.00000000000E+00 -0.83410543419E+02  0.83410543419E+02  0.00000000000E+00 0.  1.
         25    2    1    2    0    0  0.39683796130E+02 -0.26266127167E+02  0.27545908222E+02  0.13663907858E+03  0.12508696024E+03 0.  0.
          5    1    3    3  502    0 -0.40499190451E+02  0.10471623376E+02 -0.54221063861E+01  0.42387627452E+02  0.41800000000E+01 0.  1.
         -5    1    3    3    0  502  0.80182986581E+02 -0.36737750543E+02  0.32968014608E+02  0.94251451125E+02  0.41800000000E+01 0.  1.
        -11    1    1    2    0    0  0.18758488547E+02  0.29982017116E+01 -0.12088384866E+02  0.22516641729E+02  0.00000000000E+00 0.  1.
         11    1    1    2    0    0 -0.58442284677E+02  0.23267925455E+02  0.74000892038E+02  0.97123781926E+02  0.00000000000E+00 0. -1.
</event>
<event>
 7    1  0.2440960E-009  0.1596577E+03  0.7561462E-02  0.1189084E+00
          2   -1    0    0  501    0  0.00000000000E+00  0.00000000000E+00  0.33531836871E+03  0.33531836871E+03  0.00000000000E+00 0. -1.
         -2   -1    0    0    0  501 -0.00000000000E+00 -0.00000000000E+00 -0.89615630453E+02  0.89615630453E+02  0.00000000000E+00 0.  1.
         25    2    1    2    0    0 -0.57052899748E+02  0.12076351763E+03  0.15508490732E+03  0.23987090079E+03  0.12509140661E+03 0.  0.
          5    1    3    3  502    0  0.36644857942E+02  0.18624724773E+02  0.55301961548E+02  0.69032639654E+02  0.41800000000E+01 0.  1.
         -5    1    3    3    0  502 -0.93697757689E+02  0.10213879286E+03  0.99782945769E+02  0.17083826114E+03  0.41800000000E+01 0.  1.
        -11    1    1    2    0    0  0.21190996380E+02 -0.88786203014E+02  0.10075790463E+03  0.13595662367E+03  0.00000000000E+00 0. -1.
         11    1    1    2    0    0  0.35861903367E+02 -0.31977314617E+02 -0.10140073694E+02  0.49106474703E+02  0.00000000000E+00 0.  1.
</event>
<event>
 7    1  0.2440960E-009  0.1574084E+03  0.7561462E-02  0.1191654E+00
         -2   -1    0    0    0  501 -0.00000000000E+00  0.00000000000E+00  0.89487887798E+02  0.89487887798E+02  0.00000000000E+00 0.  1.
          2   -1    0    0  501    0  0.00000000000E+00 -0.00000000000E+00 -0.38236966735E+03  0.38236966735E+03  0.00000000000E+00 0. -1.
         25    2    1    2    0    0 -0.13771297213E+03 -0.34783771612E+02 -0.21179986707E+03  0.28404398927E+03  0.12508809173E+03 0.  0.
          5    1    3    3  502    0 -0.11949227464E+03  0.10910560796E+01 -0.21222224945E+03  0.24358848426E+03  0.41800000000E+01 0.  1.
         -5    1    3    3    0  502 -0.18220697488E+02 -0.35874827692E+02  0.42238238505E+00  0.40455505012E+02  0.41800000000E+01 0.  1.
        -11    1    1    2    0    0  0.93424216989E+02 -0.72864123234E+01 -0.10229940677E+02  0.94264668943E+02  0.00000000000E+00 0.  1.
         11    1    1    2    0    0  0.44288755140E+02  0.42070183936E+02 -0.70851971813E+02  0.93548896936E+02  0.00000000000E+00 0. -1.
</event>
<event>
 7    1  0.2440960E-009  0.1177581E+03  0.7561462E-02  0.1246842E+00
         -1   -1    0    0    0  501 -0.00000000000E+00  0.00000000000E+00  0.77795916941E+03  0.77795916941E+03  0.00000000000E+00 0.  1.
          1   -1    0    0  501    0  0.00000000000E+00 -0.00000000000E+00 -0.21635087289E+02  0.21635087289E+02  0.00000000000E+00 0. -1.
         25    2    1    2    0    0 -0.63673912752E+02  0.32054312181E+02  0.36315703437E+03  0.39065617277E+03  0.12508943845E+03 0.  0.
          5    1    3    3  502    0  0.22823212964E+02 -0.11776906642E+02  0.16837665871E+02  0.30993127820E+02  0.41800000000E+01 0. -1.
         -5    1    3    3    0  502 -0.86497125716E+02  0.43831218823E+02  0.34631936850E+03  0.35966304495E+03  0.41800000000E+01 0. -1.
        -11    1    1    2    0    0  0.30886724143E+02  0.29489838572E+02  0.14438324758E+03  0.15056613991E+03  0.00000000000E+00 0. -1.
         11    1    1    2    0    0  0.32787188609E+02 -0.61544150753E+02  0.24878380017E+03  0.25837194402E+03  0.00000000000E+00 0.  1.
</event>
<event>
 7    1  0.2440960E-009  0.1091888E+03  0.7561462E-02  0.1262080E+00
          2   -1    0    0  501    0  0.00000000000E+00  0.00000000000E+00  0.12170319614E+03  0.12170319614E+03  0.00000000000E+00 0. -1.
         -2   -1    0    0    0  501 -0.00000000000E+00 -0.00000000000E+00 -0.12242673884E+03  0.12242673884E+03  0.00000000000E+00 0.  1.
         25    2    1    2    0    0 -0.12052032937E+02  0.37919827363E+02 -0.35295523637E+02  0.13592866732E+03  0.12509062237E+03 0.  0.
          5    1    3    3  502    0 -0.59685870625E+02  0.85565190688E+01 -0.49411076959E+02  0.78067561107E+02  0.41800000000E+01 0. -1.
         -5    1    3    3    0  502  0.47633837688E+02  0.29363308294E+02  0.14115553322E+02  0.57861106216E+02  0.41800000000E+01 0. -1.
        -11    1    1    2    0    0 -0.82386848150E+01  0.29910109025E+02  0.47861251218E+01  0.31391042401E+02  0.00000000000E+00 0. -1.
         11    1    1    2    0    0  0.20290717752E+02 -0.67829936388E+02  0.29785855817E+02  0.76810225257E+02  0.00000000000E+00 0.  1.
</event>
<event>
 7    1  0.2440960E-009  0.1180084E+03  0.7561462E-02  0.1246419E+00
          2   -1    0    0  501    0  0.00000000000E+00  0.00000000000E+00  0.31402324131E+03  0.31402324131E+03  0.00000000000E+00 0. -1.
         -2   -1    0    0    0  501 -0.00000000000E+00 -0.00000000000E+00 -0.49716179338E+02  0.49716179338E+02  0.00000000000E+00 0.  1.
         25    2    1    2    0    0 -0.28711295750E+02 -0.44377463967E+02  0.10603895597E+03  0.17229416848E+03  0.12508925812E+03 0.  0.
          5    1    3    3  502    0  0.46264333142E+02 -0.30453763076E+02  0.24916014371E+02  0.60877749455E+02  0.41800000000E+01 0.  1.
         -5    1    3    3    0  502 -0.74975628893E+02 -0.13923700891E+02  0.81122941601E+02  0.11141641902E+03  0.41800000000E+01 0.  1.
        -11    1    1    2    0    0  0.34130232198E+02  0.70017428316E+02  0.94255334919E+02  0.12227584053E+03  0.00000000000E+00 0.  1.
         11    1    1    2    0    0 -0.54189364476E+01 -0.25639964349E+02  0.64012771077E+02  0.69169411628E+02  0.00000000000E+00 0. -1.
</event>
<event>
 7    1  0.2440960E-009  0.1302508E+03  0.7561462E-02  0.1227084E+00
         -1   -1    0    0    0  501 -0.00000000000E+00  0.00000000000E+00  0.54501228686E+02  0.54501228686E+02  0.00000000000E+00 0.  1.
          1   -1    0    0  501    0  0.00000000000E+00 -0.00000000000E+00 -0.54096194035E+03  0.54096194035E+03  0.00000000000E+00 0. -1.
         25    2    1    2    0    0  0.94620761035E+02  0.93795775721E+01 -0.98012595307E+02  0.18519044940E+03  0.12509184152E+03 0.  0.
          5    1    3    3  502    0  0.52690578845E+02  0.48521304286E+02 -0.23261388461E+00  0.71750544094E+02  0.41800000000E+01 0.  1.
         -5    1    3    3    0  502  0.41930182190E+02 -0.39141726714E+02 -0.97779981422E+02  0.11343990530E+03  0.41800000000E+01 0.  1.
        -11    1    1    2    0    0  0.15292136754E+02  0.11785549251E+02 -0.42808419842E+02  0.46960722173E+02  0.00000000000E+00 0.  1.
         11    1    1    2    0    0 -0.10991289779E+03 -0.21165126824E+02 -0.34563969651E+03  0.36331199746E+03  0.00000000000E+00 0. -1.
</event>
<event>
 7    1  0.2440960E-009  0.1070268E+03  0.7561462E-02  0.1266177E+00
         -2   -1    0    0    0  501 -0.00000000000E+00  0.00000000000E+00  0.71686270881E+02  0.71686270881E+02  0.00000000000E+00 0.  1.
          2   -1    0    0  501    0  0.00000000000E+00 -0.00000000000E+00 -0.21327666007E+03  0.21327666007E+03  0.00000000000E+00 0. -1.
         25    2    1    2    0    0 -0.38719483816E+02  0.13939558207E+02 -0.30120138981E+02  0.13510377191E+03  0.12510913916E+03 0.  0.
          5    1    3    3  502    0 -0.80019664417E+02 -0.13408861517E+02 -0.25635844880E+02  0.85191626369E+02  0.41800000000E+01 0.  1.
         -5    1    3    3    0  502  0.41300180601E+02  0.27348419724E+02 -0.44842941012E+01  0.49912145543E+02  0.41800000000E+01 0.  1.
        -11    1    1    2    0    0 -0.10188104909E+02  0.20765748726E+02  0.17032325286E+00  0.23130992451E+02  0.00000000000E+00 0.  1.
         11    1    1    2    0    0  0.48907588725E+02 -0.34705306933E+02 -0.11164057346E+03  0.12672816658E+03  0.00000000000E+00 0. -1.
</event>
<event>
 7    1  0.2440960E-009  0.1580623E+03  0.7561462E-02  0.1190902E+00
          2   -1    0    0  501    0  0.00000000000E+00  0.00000000000E+00  0.30882321647E+03  0.30882321647E+03  0.00000000000E+00 0. -1.
         -2   -1    0    0    0  501 -0.00000000000E+00 -0.00000000000E+00 -0.23058939532E+03  0.23058939532E+03  0.00000000000E+00 0.  1.
         25    2    1    2    0    0 -0.11073462834E+03  0.10287607084E+03 -0.15261935185E+03  0.24856984554E+03  0.12509459495E+03 0.  0.
          5    1    3    3  502    0  0.99107761622E-01 -0.63765155230E+01  0.16819476822E+02  0.18467186389E+02  0.41800000000E+01 0.  1.
         -5    1    3    3    0  502 -0.11083373611E+03  0.10925258636E+03 -0.16943882867E+03  0.23010265915E+03  0.41800000000E+01 0.  1.
        -11    1    1    2    0    0  0.76720257215E+02 -0.56396388842E+02  0.20822044630E+03  0.22895917715E+03  0.00000000000E+00 0. -1.
         11    1    1    2    0    0  0.34014371130E+02 -0.46479681999E+02  0.22632726692E+02  0.61883589098E+02  0.00000000000E+00 0.  1.
</event>
<event>
 7    1  0.2440960E-009  0.9369934E+02  0.7561462E-02  0.1294133E+00
          1   -1    0    0  501    0  0.00000000000E+00  0.00000000000E+00  0.15417938115E+03  0.15417938115E+03  0.00000000000E+00 0. -1.
         -1   -1    0    0    0  501 -0.00000000000E+00 -0.00000000000E+00 -0.12616414598E+03  0.12616414598E+03  0.00000000000E+00 0.  1.
         25    2    1    2    0    0  0.52537457532E+02 -0.54325910127E+02 -0.14999865315E+02  0.14693207595E+03  0.12511015158E+03 0.  0.
          5    1    3    3  502    0  0.54617298672E+01 -0.28276825610E+02  0.52793421284E+02  0.60282892188E+02  0.41800000000E+01 0. -1.
         -5    1    3    3    0  502  0.47075727665E+02 -0.26049084517E+02 -0.67793286599E+02  0.86649183765E+02  0.41800000000E+01 0. -1.
        -11    1    1    2    0    0 -0.65336937438E+02  0.20992153355E+02 -0.10145471484E+02  0.69372303464E+02  0.00000000000E+00 0.  1.
         11    1    1    2    0    0  0.12799479906E+02  0.33333756772E+02  0.53160571976E+02  0.64039147708E+02  0.00000000000E+00 0. -1.
</event>
<event>
 7    1  0.2440960E-009  0.8083523E+02  0.7561462E-02  0.1326698E+00
         -2   -1    0    0    0  501 -0.00000000000E+00  0.00000000000E+00  0.35486631317E+02  0.35486631317E+02  0.00000000000E+00 0. -1.
          2   -1    0    0  501    0  0.00000000000E+00 -0.00000000000E+00 -0.45432597309E+03  0.45432597309E+03  0.00000000000E+00 0.  1.
         25    2    1    2    0    0  0.59384396653E+02  0.27217520119E+02 -0.27268434805E+03  0.30703670152E+03  0.12508989744E+03 0.  0.
          5    1    3    3  502    0  0.58774762312E+02  0.26553005084E+02 -0.43711050605E+02  0.78023477934E+02  0.41800000000E+01 0. -1.
         -5    1    3    3    0  502  0.60963434073E+00  0.66451503452E+00 -0.22897329745E+03  0.22901322359E+03  0.41800000000E+01 0. -1.
        -11    1    1    2    0    0 -0.53902697551E+02 -0.47444049101E+02 -0.58413711492E+02  0.92566734245E+02  0.00000000000E+00 0. -1.
         11    1    1    2    0    0 -0.54816991016E+01  0.20226528982E+02 -0.87741282231E+02  0.90209168643E+02  0.00000000000E+00 0.  1.
</event>
<event>
 7    1  0.2440960E-009  0.1141994E+03  0.7561462E-02  0.1252985E+00
         -1   -1    0    0    0  501 -0.00000000000E+00  0.00000000000E+00  0.82623282165E+02  0.82623282165E+02  0.00000000000E+00 0.  1.
          1   -1    0    0  501    0  0.00000000000E+00 -0.00000000000E+00 -0.16454434930E+03  0.16454434930E+03  0.00000000000E+00 0. -1.
         25    2    1    2    0    0 -0.30055430440E+02  0.36815396477E+02 -0.70987962491E+02  0.15147756161E+03  0.12508980188E+03 0.  0.
          5    1    3    3  502    0 -0.78452732823E+02  0.14438299683E+02 -0.48559500952E+02  0.93481513242E+02  0.41800000000E+01 0.  1.
         -5    1    3    3    0  502  0.48397302383E+02  0.22377096794E+02 -0.22428461538E+02  0.57996048364E+02  0.41800000000E+01 0.  1.
        -11    1    1    2    0    0 -0.12807613530E+01 -0.57483064401E+02 -0.77491970406E+01  0.58017179329E+02  0.00000000000E+00 0.  1.
         11    1    1    2    0    0  0.31336191793E+02  0.20667667924E+02 -0.31839076078E+01  0.37672890533E+02  0.00000000000E+00 0. -1.
</event>
<event>
 7    1  0.2440960E-009  0.9946985E+02  0.7561462E-02  0.1281415E+00
          4   -1    0    0  501    0  0.00000000000E+00  0.00000000000E+00  0.12544954833E+02  0.12544954833E+02  0.00000000000E+00 0. -1.
         -4   -1    0    0    0  501 -0.00000000000E+00 -0.00000000000E+00 -0.11756237135E+04  0.11756237135E+04  0.00000000000E+00 0.  1.
         25    2    1    2    0    0 -0.14758255862E+02 -0.20807652955E+02 -0.91486522077E+03  0.92373023259E+03  0.12509358850E+03 0.  0.
          5    1    3    3  502    0 -0.43572273962E+02  0.36204473709E+02 -0.58196444698E+03  0.58473019156E+03  0.41800000000E+01 0.  1.
         -5    1    3    3    0  502  0.28814018099E+02 -0.57012126664E+02 -0.33290077380E+03  0.33900004103E+03  0.41800000000E+01 0.  1.
        -11    1    1    2    0    0 -0.11088668663E+02  0.42780395783E+02 -0.20387706362E+03  0.20861202724E+03  0.00000000000E+00 0.  1.
         11    1    1    2    0    0  0.25846924525E+02 -0.21972742827E+02 -0.44336474220E+02  0.55826408455E+02  0.00000000000E+00 0. -1.
</event>
<event>
 7    1  0.2440960E-009  0.9305613E+02  0.7561462E-02  0.1295615E+00
         -1   -1    0    0    0  501 -0.00000000000E+00  0.00000000000E+00  0.35460477726E+02  0.35460477726E+02  0.00000000000E+00 0.  1.
          1   -1    0    0  501    0  0.00000000000E+00 -0.00000000000E+00 -0.52602466353E+03  0.52602466353E+03  0.00000000000E+00 0. -1.
         25    2    1    2    0    0  0.15613955207E+02  0.55271315454E+02 -0.14713409399E+03  0.20147993111E+03  0.12508799750E+03 0.  0.
          5    1    3    3  502    0  0.23214592644E+02  0.64876293849E+02 -0.16532307483E+03  0.17915647431E+03  0.41800000000E+01 0.  1.
         -5    1    3    3    0  502 -0.76006374371E+01 -0.96049783955E+01  0.18188980844E+02  0.22323456802E+02  0.41800000000E+01 0.  1.
        -11    1    1    2    0    0 -0.37006707300E+02 -0.69296200930E+02 -0.21150923148E+03  0.22562715894E+03  0.00000000000E+00 0.  1.
         11    1    1    2    0    0  0.21392752093E+02  0.14024885477E+02 -0.13192086033E+03  0.13437805121E+03  0.00000000000E+00 0. -1.
</event>
<event>
 7    1  0.2440960E-009  0.9373021E+02  0.7561462E-02  0.1294062E+00
          1   -1    0    0  501    0  0.00000000000E+00  0.00000000000E+00  0.16135442477E+03  0.16135442477E+03  0.00000000000E+00 0. -1.
         -1   -1    0    0    0  501 -0.00000000000E+00 -0.00000000000E+00 -0.81320375564E+02  0.81320375564E+02  0.00000000000E+00 0.  1.
         25    2    1    2    0    0 -0.20947567196E+02 -0.26787143611E+02  0.40202626940E+02  0.13572208253E+03  0.12509148987E+03 0.  0.
          5    1    3    3  502    0 -0.62023224626E+02 -0.47333686757E+02  0.43607715519E+02  0.89478844135E+02  0.41800000000E+01 0. -1.
         -5    1    3    3    0  502  0.41075657430E+02  0.20546543147E+02 -0.34050885787E+01  0.46243238390E+02  0.41800000000E+01 0. -1.
        -11    1    1    2    0    0 -0.18128303893E+02  0.97073331109E+01  0.57292310870E+02  0.60870983259E+02  0.00000000000E+00 0. -1.
         11    1    1    2    0    0  0.39075871089E+02  0.17079810500E+02 -0.17460888605E+02  0.46081734548E+02  0.00000000000E+00 0.  1.
</event>
<event>
 7    1  0.2440960E-009  0.1222443E+03  0.7561462E-02  0.1239440E+00
          1   -1    0    0  501    0  0.00000000000E+00  0.00000000000E+00  0.14251360928E+03  0.14251360928E+03  0.00000000000E+00 0. -1.
         -1   -1    0    0    0  501 -0.00000000000E+00 -0.00000000000E+00 -0.12661978179E+03  0.12661978179E+03  0.00000000000E+00 0.  1.
         25    2    1    2    0    0 -0.51134562730E+02  0.46337716967E+02 -0.29309115174E+02  0.14583537367E+03  0.12508798689E+03 0.  0.
          5    1    3    3  502    0 -0.62155328424E+02  0.83207819166E+02 -0.24834207108E+02  0.10686924845E+03  0.41800000000E+01 0.  1.
         -5    1    3    3    0  502  0.11020765694E+02 -0.36870102199E+02 -0.44749080660E+01  0.38966125223E+02  0.41800000000E+01 0.  1.
        -11    1    1    2    0    0 -0.90084526073E+01  0.13997259274E+02 -0.12142986735E+02  0.20604067861E+02  0.00000000000E+00 0.  1.
         11    1    1    2    0    0  0.60143015337E+02 -0.60334976241E+02  0.57345929398E+02  0.10269394953E+03  0.00000000000E+00 0. -1.
</event>
<event>
 7    1  0.2440960E-009  0.1363575E+03  0.7561462E-02  0.1218316E+00
          1   -1    0    0  501    0  0.00000000000E+00  0.00000000000E+00  0.71102721155E+03  0.71102721155E+03  0.00000000000E+00 0. -1.
         -1   -1    0    0    0  501 -0.00000000000E+00 -0.00000000000E+00 -0.36437699914E+02  0.36437699914E+02  0.00000000000E+00 0.  1.
         25    2    1    2    0    0  0.99358285813E+02  0.38132361449E+02  0.48511034710E+03  0.51215841988E+03  0.12509217500E+03 0.  0.
          5    1    3    3  502    0 -0.20587509915E+02  0.37093231551E+02  0.98044458510E+02  0.10691090513E+03  0.41800000000E+01 0.  1.
         -5    1    3    3    0  502  0.11994579573E+03  0.10391298986E+01  0.38706588859E+03  0.40524751475E+03  0.41800000000E+01 0.  1.
        -11    1    1    2    0    0 -0.13903835161E+02 -0.17135312958E+02  0.12315076854E+03  0.12511213920E+03  0.00000000000E+00 0. -1.
         11    1    1    2    0    0 -0.85454450652E+02 -0.20997048492E+02  0.66328395992E+02  0.11019435238E+03  0.00000000000E+00 0.  1.
</event>
<event>
 7    1  0.2440960E-009  0.2018299E+03  0.7561462E-02  0.1148204E+00
         -2   -1    0    0    0  501 -0.00000000000E+00  0.00000000000E+00  0.12965998455E+03  0.12965998455E+03  0.00000000000E+00 0.  1.
          2   -1    0    0  501    0  0.00000000000E+00 -0.00000000000E+00 -0.35672026264E+03  0.35672026264E+03  0.00000000000E+00 0. -1.
         25    2    1    2    0    0 -0.18030134570E+03  0.31312928592E+02 -0.15034969730E+03  0.26784560307E+03  0.12508861197E+03 0.  0.
          5    1    3    3  502    0 -0.68286584173E+01 -0.33916924925E+02 -0.13271780077E+02  0.37290761840E+02  0.41800000000E+01 0. -1.
         -5    1    3    3    0  502 -0.17347268728E+03  0.65229853517E+02 -0.13707791723E+03  0.23055484123E+03  0.41800000000E+01 0. -1.
        -11    1    1    2    0    0  0.68852983078E+02 -0.18180878477E+02  0.15981245528E+02  0.72984092990E+02  0.00000000000E+00 0.  1.
         11    1    1    2    0    0  0.11144836262E+03 -0.13132050115E+02 -0.92691826313E+02  0.14555055114E+03  0.00000000000E+00 0. -1.
</event>
<event>
 7    1  0.2440960E-009  0.1110135E+03  0.7561462E-02  0.1258705E+00
         -1   -1    0    0    0  501 -0.00000000000E+00  0.00000000000E+00  0.40143578887E+02  0.40143578887E+02  0.00000000000E+00 0.  1.
          1   -1    0    0  501    0  0.00000000000E+00 -0.00000000000E+00 -0.33639413491E+03  0.33639413491E+03  0.00000000000E+00 0. -1.
         25    2    1    2    0    0 -0.40617961712E+01  0.38259842716E+02 -0.20448271531E+03  0.24277695200E+03  0.12508858384E+03 0.  0.
          5    1    3    3  502    0 -0.59235901170E+02 -0.93776682657E+00 -0.12434284371E+03  0.13779835476E+03  0.41800000000E+01 0.  1.
         -5    1    3    3    0  502  0.55174104999E+02  0.39197609542E+02 -0.80139871604E+02  0.10497859723E+03  0.41800000000E+01 0.  1.
        -11    1    1    2    0    0 -0.62940314153E+01  0.27523268000E+02 -0.42075840368E+02  0.50670715956E+02  0.00000000000E+00 0. -1.
         11    1    1    2    0    0  0.10355827586E+02 -0.65783110715E+02 -0.49692000343E+02  0.83090045845E+02  0.00000000000E+00 0.  1.
</event>
<event>
 7    1  0.2440960E-009  0.5762923E+02  0.7561462E-02  0.1408059E+00
         -2   -1    0    0    0  501 -0.00000000000E+00  0.00000000000E+00  0.11452094772E+03  0.11452094772E+03  0.00000000000E+00 0.  1.
          2   -1    0    0  501    0  0.00000000000E+00 -0.00000000000E+00 -0.79932728899E+02  0.79932728899E+02  0.00000000000E+00 0. -1.
         25    2    1    2    0    0 -0.13734299112E+02  0.35434686987E+01  0.47664729730E+02  0.13461342422E+03  0.12509060867E+03 0.  0.
          5    1    3    3  502    0  0.10824347013E+02 -0.20878239734E+02  0.82154657453E+02  0.85556574989E+02  0.41800000000E+01 0. -1.
         -5    1    3    3    0  502 -0.24558646125E+02  0.24421708432E+02 -0.34489927723E+02  0.49056849232E+02  0.41800000000E+01 0. -1.
        -11    1    1    2    0    0 -0.13424943428E+02 -0.20473691682E+02 -0.13245011219E+02  0.27835794928E+02  0.00000000000E+00 0.  1.
         11    1    1    2    0    0  0.27159242540E+02  0.16930222983E+02  0.16850031140E+00  0.32004457470E+02  0.00000000000E+00 0. -1.
</event>
<event>
 7    1  0.2440960E-009  0.1244798E+03  0.7561462E-02  0.1235885E+00
         -2   -1    0    0    0  501 -0.00000000000E+00  0.00000000000E+00  0.25840211877E+02  0.25840211877E+02  0.00000000000E+00 0.  1.
          2   -1    0    0  501    0  0.00000000000E+00 -0.00000000000E+00 -0.14954717961E+04  0.14954717961E+04  0.00000000000E+00 0. -1.
         25    2    1    2    0    0 -0.10313467611E+03 -0.50127333922E+01 -0.12575824178E+04  0.12679998481E+04  0.12509271942E+03 0.  0.
          5    1    3    3  502    0 -0.44601170864E+02 -0.27345786996E+02 -0.10455404552E+04  0.10468569016E+04  0.41800000000E+01 0. -1.
         -5    1    3    3    0  502 -0.58533505245E+02  0.22333053604E+02 -0.21204196253E+03  0.22114294652E+03  0.41800000000E+01 0. -1.
        -11    1    1    2    0    0  0.20687128383E+02  0.39285976855E+02 -0.41355956882E+02  0.60676687680E+02  0.00000000000E+00 0.  1.
         11    1    1    2    0    0  0.82447547725E+02 -0.34273243463E+02 -0.17069320954E+03  0.19263547214E+03  0.00000000000E+00 0. -1.
</event>
<event>
 7    1  0.2440960E-009  0.1134912E+03  0.7561462E-02  0.1254238E+00
         -1   -1    0    0    0  501 -0.00000000000E+00  0.00000000000E+00  0.49271358174E+02  0.49271358174E+02  0.00000000000E+00 0.  1.
          1   -1    0    0  501    0  0.00000000000E+00 -0.00000000000E+00 -0.31809170862E+03  0.31809170862E+03  0.00000000000E+00 0. -1.
         25    2    1    2    0    0  0.61940837001E+02  0.17337319895E+02 -0.14084458158E+03  0.19905228411E+03  0.12508943081E+03 0.  0.
          5    1    3    3  502    0  0.12454385918E+01  0.60154332841E+02 -0.35172612426E+02  0.69818908196E+02  0.41800000000E+01 0. -1.
         -5    1    3    3    0  502  0.60695398410E+02 -0.42817012946E+02 -0.10567196915E+03  0.12923337591E+03  0.41800000000E+01 0. -1.
        -11    1    1    2    0    0  0.21919109911E+01  0.18620626956E+02 -0.75976549700E+02  0.78255787814E+02  0.00000000000E+00 0. -1.
         11    1    1    2    0    0 -0.64132747992E+02 -0.35957946851E+02 -0.51999219167E+02  0.90054994869E+02  0.00000000000E+00 0.  1.
</event>
<event>
 7    1  0.2440960E-009  0.8583905E+02  0.7561462E-02  0.1313253E+00
         -1   -1    0    0    0  501 -0.00000000000E+00  0.00000000000E+00  0.19447915224E+02  0.19447915224E+02  0.00000000000E+00 0.  1.
          1   -1    0    0  501    0  0.00000000000E+00 -0.00000000000E+00 -0.67984549905E+03  0.67984549905E+03  0.00000000000E+00 0. -1.
         25    2    1    2    0    0 -0.36427616836E+02  0.54335413029E+01 -0.34333990409E+03  0.36726855017E+03  0.12508958213E+03 0.  0.
          5    1    3    3  502    0  0.17014577322E+02  0.30285259913E+02 -0.27375642390E+03  0.27598323289E+03  0.41800000000E+01 0.  1.
         -5    1    3    3    0  502 -0.53442194158E+02 -0.24851718610E+02 -0.69583480193E+02  0.91285317276E+02  0.41800000000E+01 0.  1.
        -11    1    1    2    0    0  0.69829338718E+01  0.30418988498E+02 -0.38173757506E+02  0.49308335896E+02  0.00000000000E+00 0.  1.
         11    1    1    2    0    0  0.29444682964E+02 -0.35852529801E+02 -0.27888392222E+03  0.28271652821E+03  0.00000000000E+00 0. -1.
</event>
<event>
 7    1  0.2440960E-009  0.9265762E+02  0.7561462E-02  0.1296541E+00
          2   -1    0    0  501    0  0.00000000000E+00  0.00000000000E+00  0.18053558028E+02  0.18053558028E+02  0.00000000000E+00 0. -1.
         -2   -1    0    0    0  501 -0.00000000000E+00 -0.00000000000E+00 -0.71848641818E+03  0.71848641818E+03  0.00000000000E+00 0.  1.
         25    2    1    2    0    0 -0.27226160342E+02  0.23684824118E+01 -0.32078596061E+03  0.34539470311E+03  0.12508794865E+03 0.  0.
          5    1    3    3  502    0  0.28707571927E+02  0.19213690648E+02 -0.22552436731E+02  0.41465351762E+02  0.41800000000E+01 0.  1.
         -5    1    3    3    0  502 -0.55933732269E+02 -0.16845208236E+02 -0.29823352387E+03  0.30392935134E+03  0.41800000000E+01 0.  1.
        -11    1    1    2    0    0  0.37092961833E+02 -0.39115191358E+02 -0.17973334093E+03  0.18764317162E+03  0.00000000000E+00 0.  1.
         11    1    1    2    0    0 -0.98668014908E+01  0.36746708946E+02 -0.19991355861E+03  0.20350210148E+03  0.00000000000E+00 0. -1.
</event>
<event>
 7    1  0.2440960E-009  0.1102298E+03  0.7561462E-02  0.1260145E+00
         -2   -1    0    0    0  501 -0.00000000000E+00  0.00000000000E+00  0.12926023704E+03  0.12926023704E+03  0.00000000000E+00 0.  1.
          2   -1    0    0  501    0  0.00000000000E+00 -0.00000000000E+00 -0.10491851287E+03  0.10491851287E+03  0.00000000000E+00 0. -1.
         25    2    1    2    0    0  0.33896445700E+02  0.17331536032E+02  0.29675749418E+02  0.13408101354E+03  0.12509083466E+03 0.  0.
          5    1    3    3  502    0  0.81150739442E+02  0.17191724942E+02  0.22935285221E+02  0.86165524583E+02  0.41800000000E+01 0.  1.
         -5    1    3    3    0  502 -0.47254293742E+02  0.13981108936E+00  0.67404641970E+01  0.47915488955E+02  0.41800000000E+01 0.  1.
        -11    1    1    2    0    0 -0.74300930116E+01 -0.48504779223E+02 -0.24602334347E+02  0.54892574589E+02  0.00000000000E+00 0. -1.
         11    1    1    2    0    0 -0.26466352688E+02  0.31173243191E+02  0.19268309101E+02  0.45205161777E+02  0.00000000000E+00 0.  1.
</event>
<event>
 7    1  0.2440960E-009  0.1203662E+03  0.7561462E-02  0.1242494E+00
          1   -1    0    0  501    0  0.00000000000E+00  0.00000000000E+00  0.69471314934E+03  0.69471314934E+03  0.00000000000E+00 0. -1.
         -1   -1    0    0    0  501 -0.00000000000E+00 -0.00000000000E+00 -0.37732308805E+02  0.37732308805E+02  0.00000000000E+00 0.  1.
         25    2    1    2    0    0 -0.48494032044E+02  0.89668394272E+02  0.49497297763E+03  0.52061271506E+03  0.12508900201E+03 0.  0.
          5    1    3    3  502    0 -0.47535072628E+02  0.10252980378E+03  0.49426379749E+03  0.50703660390E+03  0.41800000000E+01 0. -1.
         -5    1    3    3    0  502 -0.95895941678E+00 -0.12861409509E+02  0.70918014654E+00  0.13576111159E+02  0.41800000000E+01 0. -1.
        -11    1    1    2    0    0  0.19658065592E+02 -0.81892104581E+02  0.54645408087E+02  0.10039361016E+03  0.00000000000E+00 0.  1.
         11    1    1    2    0    0  0.28835966452E+02 -0.77762896911E+01  0.10736245482E+03  0.11143913292E+03  0.00000000000E+00 0. -1.
</event>
<event>
 7    1  0.2440960E-009  0.1167902E+03  0.7561462E-02  0.1248488E+00
         -1   -1    0    0    0  501 -0.00000000000E+00  0.00000000000E+00  0.97219925105E+02  0.97219925105E+02  0.00000000000E+00 0.  1.
          1   -1    0    0  501    0  0.00000000000E+00 -0.00000000000E+00 -0.17615640446E+03  0.17615640446E+03  0.00000000000E+00 0. -1.
         25    2    1    2    0    0 -0.19789486194E+02  0.70108853215E+02 -0.52852721596E+02  0.15410498272E+03  0.12509220781E+03 0.  0.
          5    1    3    3  502    0  0.47724226749E+02  0.52768597275E+02 -0.43891252672E+02  0.83702097574E+02  0.41800000000E+01 0.  1.
         -5    1    3    3    0  502 -0.67513712943E+02  0.17340255940E+02 -0.89614689246E+01  0.70402885145E+02  0.41800000000E+01 0.  1.
        -11    1    1    2    0    0 -0.95027569654E+01 -0.61097186712E+02 -0.50701503111E+02  0.79961309593E+02  0.00000000000E+00 0. -1.
         11    1    1    2    0    0  0.29292243160E+02 -0.90116665025E+01  0.24617745353E+02  0.39310037252E+02  0.00000000000E+00 0.  1.
</event>
<event>
 7    1  0.2440960E-009  0.1163943E+03  0.7561462E-02  0.1249167E+00
          1   -1    0    0  501    0  0.00000000000E+00  0.00000000000E+00  0.13261703301E+03  0.13261703301E+03  0.00000000000E+00 0. -1.
         -1   -1    0    0    0  501 -0.00000000000E+00 -0.00000000000E+00 -0.15504415847E+03  0.15504415847E+03  0.00000000000E+00 0.  1.
         25    2    1    2    0    0  0.19431641726E+02  0.78611832744E+02 -0.61791129670E+02  0.16131742579E+03  0.12509100372E+03 0.  0.
          5    1    3    3  502    0 -0.26974911737E+02 -0.11568595455E+02  0.15760793201E+02  0.33576081759E+02  0.41800000000E+01 0.  1.
         -5    1    3    3    0  502  0.46406553463E+02  0.90180428198E+02 -0.77551922870E+02  0.12774134403E+03  0.41800000000E+01 0.  1.
        -11    1    1    2    0    0  0.21986547847E+02 -0.36201589232E+02 -0.15956109304E+02  0.45261029300E+02  0.00000000000E+00 0.  1.
         11    1    1    2    0    0 -0.41418189573E+02 -0.42410243511E+02  0.55320113509E+02  0.81082736392E+02  0.00000000000E+00 0. -1.
</event>
<event>
 7    1  0.2440960E-009  0.1129204E+03  0.7561462E-02  0.1255255E+00
         -3   -1    0    0    0  501 -0.00000000000E+00  0.00000000000E+00  0.61583919202E+02  0.61583919202E+02  0.00000000000E+00 0.  1.
          3   -1    0    0  501    0  0.00000000000E+00 -0.00000000000E+00 -0.32316780887E+03  0.32316780887E+03  0.00000000000E+00 0. -1.
         25    2    1    2    0    0  0.77517012118E+01 -0.39135845917E+02 -0.25519218561E+03  0.28698811683E+03  0.12508966503E+03 0.  0.
          5    1    3    3  502    0 -0.20770190535E+02 -0.78371444013E+02 -0.13839730008E+03  0.16045176571E+03  0.41800000000E+01 0. -1.
         -5    1    3    3    0  502  0.28521891746E+02  0.39235598096E+02 -0.11679488553E+03  0.12653635112E+03  0.41800000000E+01 0. -1.
        -11    1    1    2    0    0  0.29378670953E+01 -0.27916322898E+02 -0.99234519299E+01  0.29772924704E+02  0.00000000000E+00 0.  1.
         11    1    1    2    0    0 -0.10689568307E+02  0.67052168816E+02  0.35317478700E+01  0.67990686542E+02  0.00000000000E+00 0. -1.
</event>
<event>
 7    1  0.2440960E-009  0.2165439E+03  0.7561462E-02  0.1136486E+00
         -1   -1    0    0    0  501 -0.00000000000E+00  0.00000000000E+00  0.78779383507E+02  0.78779383507E+02  0.00000000000E+00 0.  1.
          1   -1    0    0  501    0  0.00000000000E+00 -0.00000000000E+00 -0.10824213549E+04  0.10824213549E+04  0.00000000000E+00 0. -1.
         25    2    1    2    0    0  0.11013611319E+03 -0.16030033703E+03 -0.13770116307E+03  0.26913777579E+03  0.12508945026E+03 0.  0.
          5    1    3    3  502    0 -0.18119445789E+02 -0.36586061818E+02  0.42679984222E+01  0.41261876419E+02  0.41800000000E+01 0. -1.
         -5    1    3    3    0  502  0.12825555898E+03 -0.12371427521E+03 -0.14196916149E+03  0.22787589937E+03  0.41800000000E+01 0. -1.
        -11    1    1    2    0    0  0.30051718243E+01  0.67229467992E+02 -0.30150695017E+03  0.30892599992E+03  0.00000000000E+00 0. -1.
         11    1    1    2    0    0 -0.11314128501E+03  0.93070869033E+02 -0.56443385815E+03  0.58313696270E+03  0.00000000000E+00 0.  1.
</event>
<event>
 7    1  0.2440960E-009  0.1283370E+03  0.7561462E-02  0.1229944E+00
          4   -1    0    0  501    0  0.00000000000E+00  0.00000000000E+00  0.33924960221E+02  0.33924960221E+02  0.00000000000E+00 0. -1.
         -4   -1    0    0    0  501 -0.00000000000E+00 -0.00000000000E+00 -0.74219664443E+03  0.74219664443E+03  0.00000000000E+00 0.  1.
         25    2    1    2    0    0  0.58905747624E+02  0.89077936142E+02 -0.27472622013E+03  0.32019706741E+03  0.12508756989E+03 0.  0.
          5    1    3    3  502    0  0.48270005433E+00  0.59070972595E+02 -0.29246838508E+02  0.66048942197E+02  0.41800000000E+01 0. -1.
         -5    1    3    3    0  502  0.58423047569E+02  0.30006963547E+02 -0.24547938162E+03  0.25414812522E+03  0.41800000000E+01 0. -1.
        -11    1    1    2    0    0 -0.71877004309E+02 -0.42965019013E+02 -0.18883278774E+03  0.20656746678E+03  0.00000000000E+00 0. -1.
         11    1    1    2    0    0  0.12971256686E+02 -0.46112917129E+02 -0.24471267633E+03  0.24935707045E+03  0.00000000000E+00 0.  1.
</event>
<event>
 7    1  0.2440960E-009  0.2197845E+03  0.7561462E-02  0.1134044E+00
          2   -1    0    0  501    0  0.00000000000E+00  0.00000000000E+00  0.13434806034E+03  0.13434806034E+03  0.00000000000E+00 0. -1.
         -2   -1    0    0    0  501 -0.00000000000E+00 -0.00000000000E+00 -0.45952294444E+03  0.45952294444E+03  0.00000000000E+00 0.  1.
         25    2    1    2    0    0 -0.98366929171E+02  0.17815344756E+03 -0.27693617217E+03  0.36572634953E+03  0.12508963049E+03 0.  0.
          5    1    3    3  502    0  0.63887920492E+01  0.59811392313E+02 -0.15421910681E+03  0.16558751347E+03  0.41800000000E+01 0. -1.
         -5    1    3    3    0  502 -0.10475572122E+03  0.11834205525E+03 -0.12271706536E+03  0.20013883606E+03  0.41800000000E+01 0. -1.
        -11    1    1    2    0    0  0.81700466962E+02 -0.18569813730E+03 -0.35771099291E+02  0.20600566993E+03  0.00000000000E+00 0. -1.
         11    1    1    2    0    0  0.16666462209E+02  0.75446897412E+01 -0.12467612642E+02  0.22138985316E+02  0.00000000000E+00 0.  1.
</event>
<event>
 7    1  0.2440960E-009  0.8137283E+02  0.7561462E-02  0.1325200E+00
         -3   -1    0    0    0  501 -0.00000000000E+00  0.00000000000E+00  0.12391703966E+03  0.12391703966E+03  0.00000000000E+00 0.  1.
          3   -1    0    0  501    0  0.00000000000E+00 -0.00000000000E+00 -0.11511055648E+03  0.11511055648E+03  0.00000000000E+00 0. -1.
         25    2    1    2    0    0  0.38572935064E+02 -0.33207586418E+02 -0.39686163595E+01  0.13510762837E+03  0.12509079188E+03 0.  0.
          5    1    3    3  502    0  0.51010708957E+02 -0.87699867380E+01  0.51472112647E+02  0.73115360056E+02  0.41800000000E+01 0.  1.
         -5    1    3    3    0  502 -0.12437773893E+02 -0.24437599680E+02 -0.55440729007E+02  0.61992268311E+02  0.41800000000E+01 0.  1.
        -11    1    1    2    0    0 -0.50657321137E+01  0.46688981583E+02  0.37543780924E+02  0.60125353464E+02  0.00000000000E+00 0.  1.
         11    1    1    2    0    0 -0.33507202950E+02 -0.13481395165E+02 -0.24768681380E+02  0.43794614309E+02  0.00000000000E+00 0. -1.
</event>
<event>
 7    1  0.2440960E-009  0.9769941E+02  0.7561462E-02  0.1285210E+00
         -1   -1    0    0    0  501 -0.00000000000E+00  0.00000000000E+00  0.40554116925E+02  0.40554116925E+02  0.00000000000E+00 0. -1.
          1   -1    0    0  501    0  0.00000000000E+00 -0.00000000000E+00 -0.43168776047E+03  0.43168776047E+03  0.00000000000E+00 0.  1.
         25    2    1    2    0    0 -0.63333128051E+02  0.33971524581E+02 -0.18288351429E+03  0.23293557923E+03  0.12508978648E+03 0.  0.
          5    1    3    3  502    0 -0.67918445945E+02  0.30730041396E+02 -0.30923675023E+02  0.80814582971E+02  0.41800000000E+01 0.  1.
         -5    1    3    3    0  502  0.45853178947E+01  0.32414831852E+01 -0.15195983927E+03  0.15212099626E+03  0.41800000000E+01 0.  1.
        -11    1    1    2    0    0 -0.18659198971E+02 -0.25082344438E+02 -0.32110750384E+02  0.44815064420E+02  0.00000000000E+00 0.  1.
         11    1    1    2    0    0  0.81992327022E+02 -0.88891801428E+01 -0.17613937888E+03  0.19449123375E+03  0.00000000000E+00 0. -1.
</event>
<event>
 7    1  0.2440960E-009  0.1112475E+03  0.7561462E-02  0.1258277E+00
          1   -1    0    0  501    0  0.00000000000E+00  0.00000000000E+00  0.18124655300E+04  0.18124655300E+04  0.00000000000E+00 0. -1.
         -1   -1    0    0    0  501 -0.00000000000E+00 -0.00000000000E+00 -0.79634331161E+01  0.79634331161E+01  0.00000000000E+00 0.  1.
         25    2    1    2    0    0  0.34171152266E+02 -0.19919250954E+02  0.13120140612E+04  0.13185576486E+04  0.12509569013E+03 0.  0.
          5    1    3    3  502    0  0.74576009691E+02 -0.36406746198E+02  0.10050344768E+04  0.10084635861E+04  0.41800000000E+01 0.  1.
         -5    1    3    3    0  502 -0.40404857426E+02  0.16487495244E+02  0.30697958437E+03  0.31009406254E+03  0.41800000000E+01 0.  1.
        -11    1    1    2    0    0 -0.53245152444E+02  0.40949588497E+02  0.37753930014E+03  0.38346817105E+03  0.00000000000E+00 0. -1.
         11    1    1    2    0    0  0.19074000178E+02 -0.21030337543E+02  0.11494873555E+03  0.11840314347E+03  0.00000000000E+00 0.  1.
</event>
<event>
 7    1  0.2440960E-009  0.1732598E+03  0.7561462E-02  0.1174490E+00
         -2   -1    0    0    0  501 -0.00000000000E+00  0.00000000000E+00  0.95248559076E+02  0.95248559076E+02  0.00000000000E+00 0.  1.
          2   -1    0    0  501    0  0.00000000000E+00 -0.00000000000E+00 -0.37708572089E+03  0.37708572089E+03  0.00000000000E+00 0. -1.
         25    2    1    2    0    0 -0.15138241835E+03  0.98632862093E+01 -0.11148627529E+03  0.22603210764E+03  0.12508958032E+03 0.  0.
          5    1    3    3  502    0  0.23577742418E+01  0.15983706070E+02 -0.62222684895E+02  0.64421835388E+02  0.41800000000E+01 0.  1.
         -5    1    3    3    0  502 -0.15374019259E+03 -0.61204198608E+01 -0.49263590391E+02  0.16161027225E+03  0.41800000000E+01 0.  1.
        -11    1    1    2    0    0  0.90262271972E+02  0.38343565461E+02 -0.11295243587E+03  0.14958529180E+03  0.00000000000E+00 0.  1.
         11    1    1    2    0    0  0.61120146379E+02 -0.48206851670E+02 -0.57398450654E+02  0.96716880527E+02  0.00000000000E+00 0. -1.
</event>
<event>
 7    1  0.2440960E-009  0.1098019E+03  0.7561462E-02  0.1260937E+00
         -2   -1    0    0    0  501 -0.00000000000E+00  0.00000000000E+00  0.13450788716E+04  0.13450788716E+04  0.00000000000E+00 0.  1.
          2   -1    0    0  501    0  0.00000000000E+00 -0.00000000000E+00 -0.10459184659E+02  0.10459184659E+02  0.00000000000E+00 0. -1.
         25    2    1    2    0    0 -0.31425014812E+02  0.23200869257E+02  0.86643522219E+03  0.87628998121E+03  0.12509326528E+03 0.  0.
          5    1    3    3  502    0 -0.72667080455E+02  0.86983081645E+01  0.32920975524E+03  0.33727244253E+03  0.41800000000E+01 0.  1.
         -5    1    3    3    0  502  0.41242065643E+02  0.14502561092E+02  0.53722546695E+03  0.53901753867E+03  0.41800000000E+01 0.  1.
        -11    1    1    2    0    0  0.35110410989E+02  0.31732207548E+02  0.21646234734E+03  0.22157531850E+03  0.00000000000E+00 0.  1.
         11    1    1    2    0    0 -0.36853961767E+01 -0.54933076805E+02  0.25172211739E+03  0.25767275652E+03  0.00000000000E+00 0. -1.
</event>
<event>
 7    1  0.2440960E-009  0.9942646E+02  0.7561462E-02  0.1281507E+00
         -2   -1    0    0    0  501 -0.00000000000E+00  0.00000000000E+00  0.21506415936E+03  0.21506415936E+03  0.00000000000E+00 0. -1.
          2   -1    0    0  501    0  0.00000000000E+00 -0.00000000000E+00 -0.87998422232E+02  0.87998422232E+02  0.00000000000E+00 0.  1.
         25    2    1    2    0    0  0.79224224383E+02  0.52269775197E+01  0.10006124638E+03  0.17879672303E+03  0.12510881710E+03 0.  0.
          5    1    3    3  502    0  0.19329655213E+01  0.14405196526E+02  0.99709058785E+02  0.10084946627E+03  0.41800000000E+01 0.  1.
         -5    1    3    3    0  502  0.77291258861E+02 -0.91782190062E+01  0.35218759679E+00  0.77947256761E+02  0.41800000000E+01 0.  1.
        -11    1    1    2    0    0 -0.29466208847E+02 -0.36579231162E+02  0.42610369784E+02  0.63418776631E+02  0.00000000000E+00 0. -1.
         11    1    1    2    0    0 -0.49758015535E+02  0.31352253643E+02 -0.15605879041E+02  0.60847081928E+02  0.00000000000E+00 0.  1.
</event>
<event>
 7    1  0.2440960E-009  0.1007953E+03  0.7561462E-02  0.1278632E+00
          2   -1    0    0  501    0  0.00000000000E+00  0.00000000000E+00  0.16925015870E+02  0.16925015870E+02  0.00000000000E+00 0. -1.
         -2   -1    0    0    0  501 -0.00000000000E+00 -0.00000000000E+00 -0.10447644608E+04  0.10447644608E+04  0.00000000000E+00 0.  1.
         25    2    1    2    0    0 -0.10434295920E+02  0.77180528862E+02 -0.56739347971E+03  0.58621536824E+03  0.12508952227E+03 0.  0.
          5    1    3    3  502    0  0.10283318049E+02  0.43688132180E+02 -0.52946137824E+03  0.53137672415E+03  0.41800000000E+01 0.  1.
         -5    1    3    3    0  502 -0.20717613970E+02  0.33492396682E+02 -0.37932101473E+02  0.54838644096E+02  0.41800000000E+01 0.  1.
        -11    1    1    2    0    0  0.48218738121E+02 -0.54807694324E+02 -0.32460757610E+03  0.33271460522E+03  0.00000000000E+00 0.  1.
         11    1    1    2    0    0 -0.37784442201E+02 -0.22372834538E+02 -0.13583838916E+03  0.14275950324E+03  0.00000000000E+00 0. -1.
</event>
<event>
 7    1  0.2440960E-009  0.2004556E+03  0.7561462E-02  0.1149355E+00
         -1   -1    0    0    0  501 -0.00000000000E+00  0.00000000000E+00  0.14876231563E+03  0.14876231563E+03  0.00000000000E+00 0.  1.
          1   -1    0    0  501    0  0.00000000000E+00 -0.00000000000E+00 -0.28917798737E+03  0.28917798737E+03  0.00000000000E+00 0. -1.
         25    2    1    2    0    0 -0.31685722917E+02 -0.17402832936E+03 -0.73820903407E+02  0.22888205988E+03  0.12509047565E+03 0.  0.
          5    1    3    3  502    0 -0.44057697964E+02 -0.23635082611E+01 -0.11475683694E+02  0.45780242872E+02  0.41800000000E+01 0.  1.
         -5    1    3    3    0  502  0.12371975048E+02 -0.17166482110E+03 -0.62345219714E+02  0.18310181701E+03  0.41800000000E+01 0.  1.
        -11    1    1    2    0    0 -0.11271903479E+02  0.83165615948E+02 -0.68809788864E+02  0.10852816467E+03  0.00000000000E+00 0. -1.
         11    1    1    2    0    0  0.42957626396E+02  0.90862713417E+02  0.22150205305E+01  0.10053007844E+03  0.00000000000E+00 0.  1.
</event>
<event>
 7    1  0.2440960E-009  0.1121085E+03  0.7561462E-02  0.1256714E+00
          2   -1    0    0  501    0  0.00000000000E+00  0.00000000000E+00  0.67956870291E+03  0.67956870291E+03  0.00000000000E+00 0.  1.
         -2   -1    0    0    0  501 -0.00000000000E+00 -0.00000000000E+00 -0.19839757158E+02  0.19839757158E+02  0.00000000000E+00 0. -1.
         25    2    1    2    0    0  0.26264887037E+02  0.20754496710E+02  0.43918748486E+03  0.45787990598E+03  0.12509103893E+03 0.  0.
          5    1    3    3  502    0 -0.45154916663E+02  0.34006970367E+02  0.19871879905E+03  0.20664480160E+03  0.41800000000E+01 0.  1.
         -5    1    3    3    0  502  0.71419803701E+02 -0.13252473656E+02  0.24046868581E+03  0.25123510438E+03  0.41800000000E+01 0.  1.
        -11    1    1    2    0    0  0.29363672969E+02 -0.25573138333E+02  0.12436746441E+03  0.13032066950E+03  0.00000000000E+00 0.  1.
         11    1    1    2    0    0 -0.55628560006E+02  0.48186416227E+01  0.96173996484E+02  0.11120788459E+03  0.00000000000E+00 0. -1.
</event>
<event>
 7    1  0.2731169E-009  0.1206753E+03  0.7561462E-02  0.1241987E+00
         -1   -1    0    0    0  501 -0.00000000000E+00  0.00000000000E+00  0.47716249274E+02  0.47716249274E+02  0.00000000000E+00 0.  1.
          1   -1    0    0  501    0  0.00000000000E+00 -0.00000000000E+00 -0.50801609437E+03  0.50801609437E+03  0.00000000000E+00 0. -1.
         25    2    1    2    0    0  0.99055879998E+02  0.12533770654E+02 -0.33579594131E+03  0.37198823522E+03  0.12508864925E+03 0.  0.
          5    1    3    3  502    0  0.90784745059E+02  0.42799116935E+02 -0.13266738434E+03  0.16640835801E+03  0.41800000000E+01 0.  1.
         -5    1    3    3    0  502  0.82711349388E+01 -0.30265346281E+02 -0.20312855697E+03  0.20557987721E+03  0.41800000000E+01 0.  1.
        -11    1    1    2    0    0 -0.86847184358E+02  0.59954734426E+01 -0.38969354546E+02  0.95378140716E+02  0.00000000000E+00 0.  1.
         11    1    1    2    0    0 -0.12208695640E+02 -0.18529244097E+02 -0.85534549238E+02  0.88365967710E+02  0.00000000000E+00 0. -1.
</event>
<event>
 7    1  0.2440960E-009  0.1083457E+03  0.7561462E-02  0.1263664E+00
          2   -1    0    0  501    0  0.00000000000E+00  0.00000000000E+00  0.23222410947E+04  0.23222410947E+04  0.00000000000E+00 0. -1.
         -2   -1    0    0    0  501 -0.00000000000E+00 -0.00000000000E+00 -0.10447971291E+02  0.10447971291E+02  0.00000000000E+00 0.  1.
         25    2    1    2    0    0 -0.67505558817E+02  0.15976324125E+02  0.18960404100E+04  0.19014282297E+04  0.12509129791E+03 0.  0.
          5    1    3    3  502    0 -0.27028525879E+02  0.44702755031E+02  0.16252552615E+04  0.16260999400E+04  0.41800000000E+01 0. -1.
         -5    1    3    3    0  502 -0.40477032937E+02 -0.28726430907E+02  0.27078514853E+03  0.27532828967E+03  0.41800000000E+01 0. -1.
        -11    1    1    2    0    0  0.73747850158E+02 -0.43925109706E+02  0.30242855019E+03  0.31437428113E+03  0.00000000000E+00 0.  1.
         11    1    1    2    0    0 -0.62422913415E+01  0.27948785581E+02  0.11332416324E+03  0.11688655521E+03  0.00000000000E+00 0. -1.
</event>
<event>
 7    1  0.2440960E-009  0.1398647E+03  0.7561462E-02  0.1213511E+00
          1   -1    0    0  501    0  0.00000000000E+00  0.00000000000E+00  0.82098649299E+02  0.82098649299E+02  0.00000000000E+00 0. -1.
         -1   -1    0    0    0  501 -0.00000000000E+00 -0.00000000000E+00 -0.26217283895E+03  0.26217283895E+03  0.00000000000E+00 0.  1.
         25    2    1    2    0    0  0.75975984265E+02 -0.60771990571E+02 -0.11165222701E+03  0.19385404516E+03  0.12509031139E+03 0.  0.
          5    1    3    3  502    0 -0.30178309778E+02 -0.17432695816E+02 -0.56582566339E+02  0.66585948052E+02  0.41800000000E+01 0. -1.
         -5    1    3    3    0  502  0.10615429404E+03 -0.43339294755E+02 -0.55069660676E+02  0.12726809710E+03  0.41800000000E+01 0. -1.
        -11    1    1    2    0    0  0.18930003982E+02  0.41547604541E+01 -0.25116378811E+02  0.31724431749E+02  0.00000000000E+00 0. -1.
         11    1    1    2    0    0 -0.94905988247E+02  0.56617230117E+02 -0.43305583823E+02  0.11869301134E+03  0.00000000000E+00 0.  1.
</event>
<event>
 7    1  0.2440960E-009  0.1220714E+03  0.7561462E-02  0.1239718E+00
          2   -1    0    0  501    0  0.00000000000E+00  0.00000000000E+00  0.14846054332E+04  0.14846054332E+04  0.00000000000E+00 0. -1.
         -2   -1    0    0    0  501 -0.00000000000E+00 -0.00000000000E+00 -0.13204361241E+02  0.13204361241E+02  0.00000000000E+00 0.  1.
         25    2    1    2    0    0  0.54467789228E+02  0.57733325672E+02  0.10426070235E+04  0.10530797861E+04  0.12509098105E+03 0.  0.
          5    1    3    3  502    0  0.25906538892E+01  0.86916073872E+02  0.68831086266E+03  0.69379422846E+03  0.41800000000E+01 0.  1.
         -5    1    3    3    0  502  0.51877135339E+02 -0.29182748200E+02  0.35429616084E+03  0.35928555767E+03  0.41800000000E+01 0.  1.
        -11    1    1    2    0    0  0.72626880262E+01 -0.27952385752E+02  0.36751223710E+02  0.46741148369E+02  0.00000000000E+00 0. -1.
         11    1    1    2    0    0 -0.61730477254E+02 -0.29780939920E+02  0.39204282473E+03  0.39798885993E+03  0.00000000000E+00 0.  1.
</event>
<event>
 7    1  0.2440960E-009  0.7269478E+02  0.7561462E-02  0.1351162E+00
          2   -1    0    0  501    0  0.00000000000E+00  0.00000000000E+00  0.19851195115E+03  0.19851195115E+03  0.00000000000E+00 0.  1.
         -2   -1    0    0    0  501 -0.00000000000E+00 -0.00000000000E+00 -0.63137468266E+02  0.63137468266E+02  0.00000000000E+00 0. -1.
         25    2    1    2    0    0  0.14349703271E+02  0.59710208969E+01  0.48463373375E+02  0.13504524173E+03  0.12508777591E+03 0.  0.
          5    1    3    3  502    0 -0.39251589275E+02 -0.61028365665E+01 -0.21995284070E+02  0.45598210448E+02  0.41800000000E+01 0. -1.
         -5    1    3    3    0  502  0.53601292546E+02  0.12073857463E+02  0.70458657444E+02  0.89447031284E+02  0.41800000000E+01 0. -1.
        -11    1    1    2    0    0 -0.12308032758E+02 -0.26760092776E+02  0.98434843630E+02  0.10274730496E+03  0.00000000000E+00 0.  1.
         11    1    1    2    0    0 -0.20416705127E+01  0.20789071879E+02 -0.11523734121E+02  0.23856872724E+02  0.00000000000E+00 0. -1.
</event>
<event>
 7    1  0.2440960E-009  0.1239416E+03  0.7561462E-02  0.1236733E+00
          2   -1    0    0  501    0  0.00000000000E+00  0.00000000000E+00  0.92089949062E+02  0.92089949062E+02  0.00000000000E+00 0. -1.
         -2   -1    0    0    0  501 -0.00000000000E+00 -0.00000000000E+00 -0.31927698903E+03  0.31927698903E+03  0.00000000000E+00 0.  1.
         25    2    1    2    0    0  0.13213255720E+02  0.99890364436E+02 -0.22408676872E+03  0.27570936300E+03  0.12509235747E+03 0.  0.
          5    1    3    3  502    0 -0.16845937467E+02  0.78460083540E+02 -0.22461192394E+03  0.23855347219E+03  0.41800000000E+01 0. -1.
         -5    1    3    3    0  502  0.30059193187E+02  0.21430280897E+02  0.52515521339E+00  0.37155890816E+02  0.41800000000E+01 0. -1.
        -11    1    1    2    0    0 -0.44398782247E+02 -0.84821034164E+02  0.14460767307E+02  0.96824446773E+02  0.00000000000E+00 0. -1.
         11    1    1    2    0    0  0.31185526527E+02 -0.15069330272E+02 -0.17561038549E+02  0.38833128312E+02  0.00000000000E+00 0.  1.
</event>
<event>
 7    1  0.2440960E-009  0.2479597E+03  0.7561462E-02  0.1114601E+00
         -1   -1    0    0    0  501 -0.00000000000E+00  0.00000000000E+00  0.67378361278E+02  0.67378361278E+02  0.00000000000E+00 0.  1.
          1   -1    0    0  501    0  0.00000000000E+00 -0.00000000000E+00 -0.10943452499E+04  0.10943452499E+04  0.00000000000E+00 0. -1.
         25    2    1    2    0    0 -0.11114181600E+03  0.21458314354E+03 -0.65283639703E+03  0.70727734895E+03  0.12508980092E+03 0.  0.
          5    1    3    3  502    0 -0.11759883566E+03  0.16015831765E+03 -0.59577244252E+03  0.62804653373E+03  0.41800000000E+01 0.  1.
         -5    1    3    3    0  502  0.64570196584E+01  0.54424825894E+02 -0.57063954505E+02  0.79230815219E+02  0.41800000000E+01 0.  1.
        -11    1    1    2    0    0  0.13840753421E+02 -0.40274264468E+02 -0.14217565471E+03  0.14841664201E+03  0.00000000000E+00 0. -1.
         11    1    1    2    0    0  0.97301062579E+02 -0.17430887907E+03 -0.23195483692E+03  0.30602962026E+03  0.00000000000E+00 0.  1.
</event>
<event>
 7    1  0.2440960E-009  0.1197344E+03  0.7561462E-02  0.1243536E+00
          2   -1    0    0  501    0  0.00000000000E+00  0.00000000000E+00  0.38665133223E+02  0.38665133223E+02  0.00000000000E+00 0. -1.
         -2   -1    0    0    0  501 -0.00000000000E+00 -0.00000000000E+00 -0.54462272866E+03  0.54462272866E+03  0.00000000000E+00 0.  1.
         25    2    1    2    0    0 -0.94618484821E+02  0.42267624357E+01 -0.29305931754E+03  0.33241899427E+03  0.12509236974E+03 0.  0.
          5    1    3    3  502    0 -0.73600037665E+00  0.13139205710E+02  0.86457887702E+01  0.16291178186E+02  0.41800000000E+01 0. -1.
         -5    1    3    3    0  502 -0.93882484444E+02 -0.89124432742E+01 -0.30170510631E+03  0.31612781608E+03  0.41800000000E+01 0. -1.
        -11    1    1    2    0    0  0.28834259827E+02  0.41940420739E+02 -0.10101358953E+03  0.11311126690E+03  0.00000000000E+00 0.  1.
         11    1    1    2    0    0  0.65784224993E+02 -0.46167183175E+02 -0.11188468837E+03  0.13775760071E+03  0.00000000000E+00 0. -1.
</event>
<event>
 7    1  0.2440960E-009  0.1332338E+03  0.7561462E-02  0.1222735E+00
         -1   -1    0    0    0  501 -0.00000000000E+00  0.00000000000E+00  0.33107344521E+02  0.33107344521E+02  0.00000000000E+00 0.  1.
          1   -1    0    0  501    0  0.00000000000E+00 -0.00000000000E+00 -0.63574035341E+03  0.63574035341E+03  0.00000000000E+00 0. -1.
         25    2    1    2    0    0 -0.66503015162E+02 -0.65783356230E+02 -0.37929119323E+03  0.41019430018E+03  0.12508978236E+03 0.  0.
          5    1    3    3  502    0  0.88860089155E+01  0.30529712366E+02 -0.10616884657E+03  0.11090681167E+03  0.41800000000E+01 0.  1.
         -5    1    3    3    0  502 -0.75389024077E+02 -0.96313068596E+02 -0.27312234666E+03  0.29928748851E+03  0.41800000000E+01 0.  1.
        -11    1    1    2    0    0  0.15372942398E+02  0.58359044376E+02 -0.18420057349E+03  0.19383486965E+03  0.00000000000E+00 0.  1.
         11    1    1    2    0    0  0.51130072764E+02  0.74243118538E+01 -0.39141242169E+02  0.64818528106E+02  0.00000000000E+00 0. -1.
</event>
<event>
 7    1  0.2440960E-009  0.7937748E+02  0.7561462E-02  0.1330827E+00
          2   -1    0    0  501    0  0.00000000000E+00  0.00000000000E+00  0.16678902370E+03  0.16678902370E+03  0.00000000000E+00 0. -1.
         -2   -1    0    0    0  501 -0.00000000000E+00 -0.00000000000E+00 -0.78174501259E+02  0.78174501259E+02  0.00000000000E+00 0.  1.
         25    2    1    2    0    0 -0.18098020852E+02  0.82880680018E+01  0.74174957502E+02  0.14678129509E+03  0.12508634553E+03 0.  0.
          5    1    3    3  502    0 -0.12674046781E+02  0.37534913228E+02 -0.22358570742E+02  0.45682373608E+02  0.41800000000E+01 0. -1.
         -5    1    3    3    0  502 -0.54239740704E+01 -0.29246845226E+02  0.96533528243E+02  0.10109892149E+03  0.41800000000E+01 0. -1.
        -11    1    1    2    0    0 -0.28480046378E+02 -0.26467891699E+02 -0.13189246432E+02  0.41056285196E+02  0.00000000000E+00 0.  1.
         11    1    1    2    0    0  0.46578067229E+02  0.18179823697E+02  0.27628811369E+02  0.57125944667E+02  0.00000000000E+00 0. -1.
</event>
<event>
 7    1  0.2440960E-009  0.9903529E+02  0.7561462E-02  0.1282338E+00
         -2   -1    0    0    0  501 -0.00000000000E+00  0.00000000000E+00  0.12673484628E+03  0.12673484628E+03  0.00000000000E+00 0.  1.
          2   -1    0    0  501    0  0.00000000000E+00 -0.00000000000E+00 -0.13535712666E+03  0.13535712666E+03  0.00000000000E+00 0. -1.
         25    2    1    2    0    0  0.29676750303E+02 -0.16592333495E+02  0.61831443423E+02  0.14361546181E+03  0.12508500484E+03 0.  0.
          5    1    3    3  502    0  0.15103771030E+02  0.54111035831E+02  0.18395495483E+02  0.59262085283E+02  0.41800000000E+01 0. -1.
         -5    1    3    3    0  502  0.14572979274E+02 -0.70703369325E+02  0.43435947940E+02  0.84353376532E+02  0.41800000000E+01 0. -1.
        -11    1    1    2    0    0  0.14452721396E+02 -0.10299993545E+02 -0.63978589125E+02  0.66394509481E+02  0.00000000000E+00 0. -1.
         11    1    1    2    0    0 -0.44129471700E+02  0.26892327040E+02 -0.64751346780E+01  0.52082001644E+02  0.00000000000E+00 0.  1.
</event>
<event>
 7    1  0.2440960E-009  0.2012811E+03  0.7561462E-02  0.1148663E+00
         -1   -1    0    0    0  501 -0.00000000000E+00  0.00000000000E+00  0.11102205689E+03  0.11102205689E+03  0.00000000000E+00 0.  1.
          1   -1    0    0  501    0  0.00000000000E+00 -0.00000000000E+00 -0.45689281754E+03  0.45689281754E+03  0.00000000000E+00 0. -1.
         25    2    1    2    0    0 -0.42708158483E+01  0.19599228644E+03 -0.16875711662E+03  0.28732924945E+03  0.12509163428E+03 0.  0.
          5    1    3    3  502    0 -0.31545804897E+02  0.99549362369E+02 -0.17702274183E+02  0.10600026541E+03  0.41800000000E+01 0. -1.
         -5    1    3    3    0  502  0.27274989049E+02  0.96442924072E+02 -0.15105484244E+03  0.18132898405E+03  0.41800000000E+01 0. -1.
        -11    1    1    2    0    0  0.13810455553E+02 -0.67864314776E+02 -0.10283214609E+02  0.70014558524E+02  0.00000000000E+00 0.  1.
         11    1    1    2    0    0 -0.95396397051E+01 -0.12812797166E+03 -0.16683042941E+03  0.21057106645E+03  0.00000000000E+00 0. -1.
</event>
<event>
 7    1  0.2440960E-009  0.9454726E+02  0.7561462E-02  0.1292199E+00
          2   -1    0    0  501    0  0.00000000000E+00  0.00000000000E+00  0.92625130368E+03  0.92625130368E+03  0.00000000000E+00 0. -1.
         -2   -1    0    0    0  501 -0.00000000000E+00 -0.00000000000E+00 -0.18470830242E+02  0.18470830242E+02  0.00000000000E+00 0.  1.
         25    2    1    2    0    0  0.58892676248E+02 -0.44498539298E+02  0.49022465777E+03  0.51128818130E+03  0.12508765702E+03 0.  0.
          5    1    3    3  502    0  0.30237440278E+02 -0.30080830896E+02  0.36160883906E+02  0.56073533033E+02  0.41800000000E+01 0.  1.
         -5    1    3    3    0  502  0.28655235970E+02 -0.14417708402E+02  0.45406377386E+03  0.45521464827E+03  0.41800000000E+01 0.  1.
        -11    1    1    2    0    0  0.13627684448E+02  0.38825323028E+02  0.11143654851E+03  0.11879067234E+03  0.00000000000E+00 0. -1.
         11    1    1    2    0    0 -0.72520360696E+02  0.56732162696E+01  0.30611926716E+03  0.31464328028E+03  0.00000000000E+00 0.  1.
</event>
<event>
 7    1  0.2440960E-009  0.1146446E+03  0.7561462E-02  0.1252203E+00
         -2   -1    0    0    0  501 -0.00000000000E+00  0.00000000000E+00  0.20866631218E+02  0.20866631218E+02  0.00000000000E+00 0.  1.
          2   -1    0    0  501    0  0.00000000000E+00 -0.00000000000E+00 -0.76424088434E+03  0.76424088434E+03  0.00000000000E+00 0. -1.
         25    2    1    2    0    0  0.41639259705E+02  0.33358994243E+02 -0.53604469185E+03  0.55302618981E+03  0.12508958594E+03 0.  0.
          5    1    3    3  502    0  0.86371842494E+02  0.23277981018E+02 -0.37352066451E+03  0.38410560891E+03  0.41800000000E+01 0.  1.
         -5    1    3    3    0  502 -0.44732582789E+02  0.10081013225E+02 -0.16252402734E+03  0.16892058090E+03  0.41800000000E+01 0.  1.
        -11    1    1    2    0    0  0.14038425834E+02 -0.35292567720E+02 -0.13805262939E+03  0.14318230065E+03  0.00000000000E+00 0. -1.
         11    1    1    2    0    0 -0.55677685539E+02  0.19335734772E+01 -0.69276931877E+02  0.88899025100E+02  0.00000000000E+00 0.  1.
</event>
<event>
 7    1  0.2440960E-009  0.1435582E+03  0.7561462E-02  0.1208620E+00
         -1   -1    0    0    0  501 -0.00000000000E+00  0.00000000000E+00  0.16181022356E+02  0.16181022356E+02  0.00000000000E+00 0.  1.
          1   -1    0    0  501    0  0.00000000000E+00 -0.00000000000E+00 -0.12902259533E+04  0.12902259533E+04  0.00000000000E+00 0. -1.
         25    2    1    2    0    0 -0.72162121384E+00 -0.95305355705E+02 -0.74514967506E+03  0.76156382488E+03  0.12509112503E+03 0.  0.
          5    1    3    3  502    0  0.16826583664E+02  0.27728548530E+02 -0.13975397478E+03  0.14352927293E+03  0.41800000000E+01 0.  1.
         -5    1    3    3    0  502 -0.17548204877E+02 -0.12303390424E+03 -0.60539570028E+03  0.61803455195E+03  0.41800000000E+01 0.  1.
        -11    1    1    2    0    0 -0.41786699163E+02  0.27459047134E+02 -0.17490320755E+03  0.18191003135E+03  0.00000000000E+00 0.  1.
         11    1    1    2    0    0  0.42508320377E+02  0.67846308571E+02 -0.35399204833E+03  0.36293311942E+03  0.00000000000E+00 0. -1.
</event>
<event>
 7    1  0.2440960E-009  0.1433735E+03  0.7561462E-02  0.1208860E+00
          1   -1    0    0  501    0  0.00000000000E+00  0.00000000000E+00  0.15824206351E+04  0.15824206351E+04  0.00000000000E+00 0. -1.
         -1   -1    0    0    0  501 -0.00000000000E+00 -0.00000000000E+00 -0.20195771038E+02  0.20195771038E+02  0.00000000000E+00 0.  1.
         25    2    1    2    0    0  0.18164693629E+02  0.11723523465E+03  0.11751123774E+04  0.11876914145E+04  0.12509092847E+03 0.  0.
          5    1    3    3  502    0 -0.22096585798E+02  0.92366765786E+02  0.10425184481E+04  0.10468438592E+04  0.41800000000E+01 0. -1.
         -5    1    3    3    0  502  0.40261279427E+02  0.24868468860E+02  0.13259392926E+03  0.14084755533E+03  0.41800000000E+01 0. -1.
        -11    1    1    2    0    0  0.19258944474E+02 -0.10194569325E+03  0.22372405575E+03  0.24660957896E+03  0.00000000000E+00 0. -1.
         11    1    1    2    0    0 -0.37423638102E+02 -0.15289541395E+02  0.16338843092E+03  0.16831541262E+03  0.00000000000E+00 0.  1.
</event>
<event>
 7    1  0.2440960E-009  0.2913923E+03  0.7561462E-02  0.1089624E+00
         -2   -1    0    0    0  501 -0.00000000000E+00  0.00000000000E+00  0.16239156788E+03  0.16239156788E+03  0.00000000000E+00 0.  1.
          2   -1    0    0  501    0  0.00000000000E+00 -0.00000000000E+00 -0.61696022438E+03  0.61696022438E+03  0.00000000000E+00 0. -1.
         25    2    1    2    0    0 -0.61147223303E+02  0.27686544928E+03 -0.12191187014E+03  0.33301423348E+03  0.12507004316E+03 0.  0.
          5    1    3    3  502    0 -0.22983345080E+02  0.23107944549E+03 -0.46613765427E+02  0.23688870764E+03  0.41800000000E+01 0.  1.
         -5    1    3    3    0  502 -0.38163878222E+02  0.45786003784E+02 -0.75298104717E+02  0.96125525837E+02  0.41800000000E+01 0.  1.
        -11    1    1    2    0    0  0.59217743664E+00 -0.15199866578E+03 -0.12612961890E+03  0.19751614070E+03  0.00000000000E+00 0. -1.
         11    1    1    2    0    0  0.60555045866E+02 -0.12486678349E+03 -0.20652716745E+03  0.24882141808E+03  0.00000000000E+00 0.  1.
</event>
<event>
 7    1  0.2440960E-009  0.1057887E+03  0.7561462E-02  0.1268573E+00
         -1   -1    0    0    0  501 -0.00000000000E+00  0.00000000000E+00  0.27860863645E+03  0.27860863645E+03  0.00000000000E+00 0.  1.
          1   -1    0    0  501    0  0.00000000000E+00 -0.00000000000E+00 -0.76665214101E+02  0.76665214101E+02  0.00000000000E+00 0. -1.
         25    2    1    2    0    0 -0.38192718060E+01 -0.72184008409E+02  0.12802006976E+02  0.14503751251E+03  0.12508745239E+03 0.  0.
          5    1    3    3  502    0 -0.39197766785E+02  0.21181927561E+01  0.41977346142E+02  0.57623967674E+02  0.41800000000E+01 0. -1.
         -5    1    3    3    0  502  0.35378494979E+02 -0.74302201165E+02 -0.29175339165E+02  0.87413544833E+02  0.41800000000E+01 0. -1.
        -11    1    1    2    0    0 -0.24457004555E+02  0.39740365315E+02  0.12049554907E+03  0.12921539790E+03  0.00000000000E+00 0.  1.
         11    1    1    2    0    0  0.28276276361E+02  0.32443643095E+02  0.68645866299E+02  0.81020940146E+02  0.00000000000E+00 0. -1.
</event>
<event>
 7    1  0.2440960E-009  0.1015408E+03  0.7561462E-02  0.1277089E+00
          2   -1    0    0  501    0  0.00000000000E+00  0.00000000000E+00  0.65104639246E+02  0.65104639246E+02  0.00000000000E+00 0.  1.
         -2   -1    0    0    0  501 -0.00000000000E+00 -0.00000000000E+00 -0.26750924106E+03  0.26750924106E+03  0.00000000000E+00 0. -1.
         25    2    1    2    0    0 -0.29106051218E+01 -0.24779956711E+02 -0.23031977466E+02  0.12961775588E+03  0.12509105794E+03 0.  0.
          5    1    3    3  502    0 -0.91208162337E+01 -0.73571758277E+02 -0.29369091552E+02  0.79849914486E+02  0.41800000000E+01 0. -1.
         -5    1    3    3    0  502  0.62102111119E+01  0.48791801566E+02  0.63371140861E+01  0.49767841394E+02  0.41800000000E+01 0. -1.
        -11    1    1    2    0    0  0.37961092989E+01  0.52046760251E+02 -0.16306657294E+03  0.17121326732E+03  0.00000000000E+00 0. -1.
         11    1    1    2    0    0 -0.88550417705E+00 -0.27266803540E+02 -0.16306051409E+02  0.31782857101E+02  0.00000000000E+00 0.  1.
</event>
<event>
 7    1  0.2636166E-009  0.9616251E+02  0.7561462E-02  0.1288579E+00
          2   -1    0    0  501    0  0.00000000000E+00  0.00000000000E+00  0.27072738154E+03  0.27072738154E+03  0.00000000000E+00 0. -1.
         -2   -1    0    0    0  501 -0.00000000000E+00 -0.00000000000E+00 -0.73823612595E+02  0.73823612595E+02  0.00000000000E+00 0.  1.
         25    2    1    2    0    0  0.43280455671E+02 -0.60022093693E+02  0.17039529329E+03  0.22396063681E+03  0.12509181144E+03 0.  0.
          5    1    3    3  502    0  0.52803698417E+02 -0.58802301632E+02  0.32316737019E+02  0.85485584371E+02  0.41800000000E+01 0.  1.
         -5    1    3    3    0  502 -0.95232427458E+01 -0.12197920605E+01  0.13807855627E+03  0.13847505243E+03  0.41800000000E+01 0.  1.
        -11    1    1    2    0    0 -0.26845300622E+02 -0.11588239258E+02 -0.18336455429E+02  0.34513519848E+02  0.00000000000E+00 0.  1.
         11    1    1    2    0    0 -0.16435155049E+02  0.71610332951E+02  0.44844931087E+02  0.86076837483E+02  0.00000000000E+00 0. -1.
</event>
<event>
 7    1  0.2440960E-009  0.1014957E+03  0.7561462E-02  0.1277182E+00
          2   -1    0    0  501    0  0.00000000000E+00  0.00000000000E+00  0.40160459485E+02  0.40160459485E+02  0.00000000000E+00 0. -1.
         -2   -1    0    0    0  501 -0.00000000000E+00 -0.00000000000E+00 -0.40418477029E+03  0.40418477029E+03  0.00000000000E+00 0.  1.
         25    2    1    2    0    0 -0.44397280541E+02  0.43745605211E+02 -0.27692596213E+03  0.31019201809E+03  0.12508518334E+03 0.  0.
          5    1    3    3  502    0 -0.64862708556E+02  0.74703962614E+02 -0.16763906284E+03  0.19470023313E+03  0.41800000000E+01 0.  1.
         -5    1    3    3    0  502  0.20465428015E+02 -0.30958357403E+02 -0.10928689929E+03  0.11549178496E+03  0.41800000000E+01 0.  1.
        -11    1    1    2    0    0  0.10607499804E+02 -0.26799488040E+02  0.95596982392E+01  0.30366419639E+02  0.00000000000E+00 0. -1.
         11    1    1    2    0    0  0.33789780738E+02 -0.16946117171E+02 -0.96658046908E+02  0.10378679204E+03  0.00000000000E+00 0.  1.
</event>
<event>
 7    1  0.2440960E-009  0.1561400E+03  0.7561462E-02  0.1193125E+00
         -1   -1    0    0    0  501 -0.00000000000E+00  0.00000000000E+00  0.54679385972E+03  0.54679385972E+03  0.00000000000E+00 0.  1.
          1   -1    0    0  501    0  0.00000000000E+00 -0.00000000000E+00 -0.82454811679E+02  0.82454811679E+02  0.00000000000E+00 0. -1.
         25    2    1    2    0    0  0.12270995008E+03 -0.74141295852E+02  0.74613577188E+02  0.20437827425E+03  0.12509448223E+03 0.  0.
          5    1    3    3  502    0 -0.13874134938E+02 -0.81105440988E+01 -0.19645639348E+02  0.25723454109E+02  0.41800000000E+01 0. -1.
         -5    1    3    3    0  502  0.13658408502E+03 -0.66030751753E+02  0.94259216537E+02  0.17865482014E+03  0.41800000000E+01 0. -1.
        -11    1    1    2    0    0 -0.43323344735E+02  0.19337724558E+02  0.25377985629E+03  0.25817644208E+03  0.00000000000E+00 0.  1.
         11    1    1    2    0    0 -0.79386605347E+02  0.54803571294E+02  0.13594561456E+03  0.16669395506E+03  0.00000000000E+00 0. -1.
</event>
<event>
 7    1  0.2440960E-009  0.1082674E+03  0.7561462E-02  0.1263812E+00
         -2   -1    0    0    0  501 -0.00000000000E+00  0.00000000000E+00  0.16969674049E+02  0.16969674049E+02  0.00000000000E+00 0.  1.
          2   -1    0    0  501    0  0.00000000000E+00 -0.00000000000E+00 -0.12179576510E+04  0.12179576510E+04  0.00000000000E+00 0. -1.
         25    2    1    2    0    0 -0.54859050673E+02 -0.45350203756E+02 -0.92439289596E+03  0.93553212310E+03  0.12510783677E+03 0.  0.
          5    1    3    3  502    0 -0.20045368666E+02  0.21992774735E+02 -0.53705475768E+02  0.61540632699E+02  0.41800000000E+01 0.  1.
         -5    1    3    3    0  502 -0.34813682007E+02 -0.67342978491E+02 -0.87068742019E+03  0.87399149040E+03  0.41800000000E+01 0.  1.
        -11    1    1    2    0    0  0.36003930300E+02 -0.20933654942E+02 -0.14480386221E+03  0.15067401706E+03  0.00000000000E+00 0. -1.
         11    1    1    2    0    0  0.18855120373E+02  0.66283858698E+02 -0.13179121879E+03  0.14872118490E+03  0.00000000000E+00 0.  1.
</event>
<event>
 7    1  0.2440960E-009  0.1672380E+03  0.7561462E-02  0.1180759E+00
         -1   -1    0    0    0  501 -0.00000000000E+00  0.00000000000E+00  0.45678274626E+02  0.45678274626E+02  0.00000000000E+00 0.  1.
          1   -1    0    0  501    0  0.00000000000E+00 -0.00000000000E+00 -0.75275340177E+03  0.75275340177E+03  0.00000000000E+00 0. -1.
         25    2    1    2    0    0 -0.10424782521E+03  0.96459002282E+02 -0.47286372470E+03  0.50933228644E+03  0.12508927888E+03 0.  0.
          5    1    3    3  502    0 -0.10679376680E+03  0.11969193721E+03 -0.44309030406E+03  0.47125105667E+03  0.41800000000E+01 0.  1.
         -5    1    3    3    0  502  0.25459415923E+01 -0.23232934931E+02 -0.29773420638E+02  0.38081229767E+02  0.41800000000E+01 0.  1.
        -11    1    1    2    0    0  0.84657886563E+01 -0.36045999490E+02 -0.10707120546E+02  0.38543820350E+02  0.00000000000E+00 0.  1.
         11    1    1    2    0    0  0.95782036556E+02 -0.60413002792E+02 -0.22350428190E+03  0.25055556961E+03  0.00000000000E+00 0. -1.
</event>
<event>
 7    1  0.2440960E-009  0.1165894E+03  0.7561462E-02  0.1248832E+00
          2   -1    0    0  501    0  0.00000000000E+00  0.00000000000E+00  0.10027203830E+03  0.10027203830E+03  0.00000000000E+00 0. -1.
         -2   -1    0    0    0  501 -0.00000000000E+00 -0.00000000000E+00 -0.20274424477E+03  0.20274424477E+03  0.00000000000E+00 0.  1.
         25    2    1    2    0    0 -0.49891655544E+02  0.59305318539E+02 -0.37130711209E+02  0.15176408681E+03  0.12508936898E+03 0.  0.
          5    1    3    3  502    0  0.88023884292E+01 -0.14886350610E+02 -0.52859166031E+02  0.55773195265E+02  0.41800000000E+01 0.  1.
         -5    1    3    3    0  502 -0.58694043973E+02  0.74191669149E+02  0.15728454822E+02  0.95990891548E+02  0.41800000000E+01 0.  1.
        -11    1    1    2    0    0 -0.41357959169E+01 -0.66109762331E+02 -0.70278370409E+02  0.96574607587E+02  0.00000000000E+00 0.  1.
         11    1    1    2    0    0  0.54027451461E+02  0.68044437920E+01  0.49368751562E+01  0.54677588672E+02  0.00000000000E+00 0. -1.
</event>
<event>
 7    1  0.2440960E-009  0.1078460E+03  0.7561462E-02  0.1264611E+00
         -2   -1    0    0    0  501 -0.00000000000E+00  0.00000000000E+00  0.21366309954E+02  0.21366309954E+02  0.00000000000E+00 0. -1.
          2   -1    0    0  501    0  0.00000000000E+00 -0.00000000000E+00 -0.85882859689E+03  0.85882859689E+03  0.00000000000E+00 0.  1.
         25    2    1    2    0    0 -0.34173263224E+02 -0.74287516540E+02 -0.37826724348E+03  0.40671685512E+03  0.12508415451E+03 0.  0.
          5    1    3    3  502    0  0.15207621779E+02 -0.30402552082E+02 -0.14868027775E+02  0.37337884021E+02  0.41800000000E+01 0.  1.
         -5    1    3    3    0  502 -0.49380885003E+02 -0.43884964459E+02 -0.36339921571E+03  0.36937897110E+03  0.41800000000E+01 0.  1.
        -11    1    1    2    0    0 -0.76164042514E+01  0.73042452353E+02 -0.30483505685E+03  0.31355640856E+03  0.00000000000E+00 0.  1.
         11    1    1    2    0    0  0.41789667475E+02  0.12450641877E+01 -0.15435998660E+03  0.15992164317E+03  0.00000000000E+00 0. -1.
</event>
<event>
 7    1  0.2440960E-009  0.1183009E+03  0.7561462E-02  0.1245927E+00
          2   -1    0    0  501    0  0.00000000000E+00  0.00000000000E+00  0.19195094517E+03  0.19195094517E+03  0.00000000000E+00 0. -1.
         -2   -1    0    0    0  501 -0.00000000000E+00 -0.00000000000E+00 -0.11936746725E+03  0.11936746725E+03  0.00000000000E+00 0.  1.
         25    2    1    2    0    0 -0.61228726286E+02 -0.44627369201E+02 -0.36685953519E+02  0.15077657723E+03  0.12508860080E+03 0.  0.
          5    1    3    3  502    0  0.33132169707E+02 -0.17747869702E+02 -0.36519817025E+02  0.52572777975E+02  0.41800000000E+01 0.  1.
         -5    1    3    3    0  502 -0.94360895993E+02 -0.26879499498E+02 -0.16613649419E+00  0.98203799251E+02  0.41800000000E+01 0.  1.
        -11    1    1    2    0    0  0.87116107129E+01  0.47202826242E+02  0.11235581021E+02  0.49297436519E+02  0.00000000000E+00 0.  1.
         11    1    1    2    0    0  0.52517115574E+02 -0.25754570407E+01  0.98033850420E+02  0.11124439867E+03  0.00000000000E+00 0. -1.
</event>
<event>
 7    1  0.2440960E-009  0.1033534E+03  0.7561462E-02  0.1273398E+00
          1   -1    0    0  501    0  0.00000000000E+00  0.00000000000E+00  0.96638290842E+02  0.96638290842E+02  0.00000000000E+00 0. -1.
         -1   -1    0    0    0  501 -0.00000000000E+00 -0.00000000000E+00 -0.29435069945E+03  0.29435069945E+03  0.00000000000E+00 0.  1.
         25    2    1    2    0    0 -0.60320700384E+02 -0.10203008317E+02  0.26478330378E+02  0.14174381599E+03  0.12509004404E+03 0.  0.
          5    1    3    3  502    0  0.34664761380E+02 -0.24062287787E+01 -0.14544836487E+02  0.37900663410E+02  0.41800000000E+01 0. -1.
         -5    1    3    3    0  502 -0.94985461764E+02 -0.77967795387E+01  0.41023166865E+02  0.10384315258E+03  0.41800000000E+01 0. -1.
        -11    1    1    2    0    0  0.29280558810E+02  0.28014912319E+02 -0.26679423807E+02  0.48517812102E+02  0.00000000000E+00 0. -1.
         11    1    1    2    0    0  0.31040141574E+02 -0.17811904001E+02 -0.19751131518E+03  0.20072736220E+03  0.00000000000E+00 0.  1.
</event>
<event>
 7    1  0.2440960E-009  0.1251708E+03  0.7561462E-02  0.1234803E+00
          1   -1    0    0  501    0  0.00000000000E+00  0.00000000000E+00  0.11048847608E+03  0.11048847608E+03  0.00000000000E+00 0. -1.
         -1   -1    0    0    0  501 -0.00000000000E+00 -0.00000000000E+00 -0.19964665975E+03  0.19964665975E+03  0.00000000000E+00 0.  1.
         25    2    1    2    0    0  0.76633347021E+02  0.27047868798E+02 -0.10465104119E+03  0.18221680363E+03  0.12508743351E+03 0.  0.
          5    1    3    3  502    0  0.19293955290E+01  0.53390837790E+02 -0.35424711238E+01  0.53705918004E+02  0.41800000000E+01 0.  1.
         -5    1    3    3    0  502  0.74703951492E+02 -0.26342968991E+02 -0.10110857006E+03  0.12851088563E+03  0.41800000000E+01 0.  1.
        -11    1    1    2    0    0 -0.33454410403E+02 -0.56148985828E+02 -0.15701289157E+02  0.67219317656E+02  0.00000000000E+00 0.  1.
         11    1    1    2    0    0 -0.43178936618E+02  0.29101117030E+02  0.31194146674E+02  0.60699014543E+02  0.00000000000E+00 0. -1.
</event>
<event>
 7    1  0.2440960E-009  0.5285424E+02  0.7561462E-02  0.1430528E+00
          3   -1    0    0  501    0  0.00000000000E+00  0.00000000000E+00  0.54569365393E+02  0.54569365393E+02  0.00000000000E+00 0. -1.
         -3   -1    0    0    0  501 -0.00000000000E+00 -0.00000000000E+00 -0.23068087105E+03  0.23068087105E+03  0.00000000000E+00 0.  1.
         25    2    1    2    0    0  0.82963974243E+01 -0.28128967018E+02 -0.95283454287E+02  0.15995850292E+03  0.12509083500E+03 0.  0.
          5    1    3    3  502    0  0.18363385530E+02 -0.99816090572E+01  0.27820797637E+02  0.35047334116E+02  0.41800000000E+01 0.  1.
         -5    1    3    3    0  502 -0.10066988106E+02 -0.18147357960E+02 -0.12310425192E+03  0.12491116880E+03  0.41800000000E+01 0.  1.
        -11    1    1    2    0    0 -0.23365325088E+01 -0.17274284049E+02 -0.77435743264E+02  0.79373513267E+02  0.00000000000E+00 0.  1.
         11    1    1    2    0    0 -0.59598649155E+01  0.45403251067E+02 -0.33923081075E+01  0.45918220256E+02  0.00000000000E+00 0. -1.
</event>
<event>
 7    1  0.2440960E-009  0.1041143E+03  0.7561462E-02  0.1271874E+00
         -2   -1    0    0    0  501 -0.00000000000E+00  0.00000000000E+00  0.67450698200E+02  0.67450698200E+02  0.00000000000E+00 0. -1.
          2   -1    0    0  501    0  0.00000000000E+00 -0.00000000000E+00 -0.46464768373E+03  0.46464768373E+03  0.00000000000E+00 0.  1.
         25    2    1    2    0    0 -0.33603274718E+02 -0.29074997202E+02 -0.40946232614E+03  0.43044400641E+03  0.12509240821E+03 0.  0.
          5    1    3    3  502    0 -0.65492406535E+02  0.28754253060E+00 -0.11199975295E+03  0.12981045819E+03  0.41800000000E+01 0. -1.
         -5    1    3    3    0  502  0.31889131817E+02 -0.29362539733E+02 -0.29746257319E+03  0.30063354822E+03  0.41800000000E+01 0. -1.
        -11    1    1    2    0    0 -0.22843415729E+02  0.35528530978E+02 -0.43454113276E+01  0.42461520878E+02  0.00000000000E+00 0.  1.
         11    1    1    2    0    0  0.56446690447E+02 -0.64535337760E+01  0.16610751938E+02  0.59192854641E+02  0.00000000000E+00 0. -1.
</event>
<event>
 7    1  0.2578505E-009  0.2355675E+03  0.7561462E-02  0.1122781E+00
         -3   -1    0    0    0  501 -0.00000000000E+00  0.00000000000E+00  0.64127623360E+02  0.64127623360E+02  0.00000000000E+00 0.  1.
          3   -1    0    0  501    0  0.00000000000E+00 -0.00000000000E+00 -0.10408416618E+04  0.10408416618E+04  0.00000000000E+00 0. -1.
         25    2    1    2    0    0 -0.12861369930E+03 -0.18051562027E+03 -0.34043369962E+03  0.42505335544E+03  0.12509147980E+03 0.  0.
          5    1    3    3  502    0  0.76326751472E+01 -0.15491711451E+02  0.51981125434E+01  0.18513336479E+02  0.41800000000E+01 0. -1.
         -5    1    3    3    0  502 -0.13624637445E+03 -0.16502390882E+03 -0.34563181216E+03  0.40654001896E+03  0.41800000000E+01 0. -1.
        -11    1    1    2    0    0  0.38938628064E+01  0.77403262637E+02 -0.18975707232E+03  0.20497359276E+03  0.00000000000E+00 0.  1.
         11    1    1    2    0    0  0.12471983649E+03  0.10311235764E+03 -0.44652326647E+03  0.47494233693E+03  0.00000000000E+00 0. -1.
</event>
<event>
 7    1  0.2440960E-009  0.1252454E+03  0.7561462E-02  0.1234686E+00
          1   -1    0    0  501    0  0.00000000000E+00  0.00000000000E+00  0.13695220830E+03  0.13695220830E+03  0.00000000000E+00 0. -1.
         -1   -1    0    0    0  501 -0.00000000000E+00 -0.00000000000E+00 -0.15716387210E+03  0.15716387210E+03  0.00000000000E+00 0.  1.
         25    2    1    2    0    0  0.26533381669E+02  0.91692277610E+02 -0.39165712981E+02  0.16214631305E+03  0.12508389043E+03 0.  0.
          5    1    3    3  502    0  0.74731258240E+02  0.56476561622E+02 -0.65428969110E+01  0.93992791590E+02  0.41800000000E+01 0. -1.
         -5    1    3    3    0  502 -0.48197876571E+02  0.35215715989E+02 -0.32622816070E+02  0.68153521456E+02  0.41800000000E+01 0. -1.
        -11    1    1    2    0    0 -0.16622643486E+02 -0.29079459951E+02 -0.35204245128E+02  0.48592861024E+02  0.00000000000E+00 0.  1.
         11    1    1    2    0    0 -0.99107381837E+01 -0.62612817660E+02  0.54158294303E+02  0.83376906326E+02  0.00000000000E+00 0. -1.
</event>
<event>
 7    1  0.2440960E-009  0.1083057E+03  0.7561462E-02  0.1263740E+00
         -1   -1    0    0    0  501 -0.00000000000E+00  0.00000000000E+00  0.11546094863E+02  0.11546094863E+02  0.00000000000E+00 0.  1.
          1   -1    0    0  501    0  0.00000000000E+00 -0.00000000000E+00 -0.10756333802E+04  0.10756333802E+04  0.00000000000E+00 0. -1.
         25    2    1    2    0    0  0.20835878165E+02 -0.10339986470E+02 -0.67213164531E+03  0.68406795255E+03  0.12508783292E+03 0.  0.
          5    1    3    3  502    0  0.55584832323E+02  0.34873822987E+02 -0.44594541735E+03  0.45076672988E+03  0.41800000000E+01 0.  1.
         -5    1    3    3    0  502 -0.34748954158E+02 -0.45213809457E+02 -0.22618622796E+03  0.23330122267E+03  0.41800000000E+01 0.  1.
        -11    1    1    2    0    0 -0.43266448143E+02 -0.26364471617E+02 -0.19120258177E+03  0.19780166373E+03  0.00000000000E+00 0. -1.
         11    1    1    2    0    0  0.22430569977E+02  0.36704458087E+02 -0.20075305829E+03  0.20530985882E+03  0.00000000000E+00 0.  1.
</event>
<event>
 7    1  0.2440960E-009  0.1025656E+03  0.7561462E-02  0.1274992E+00
          3   -1    0    0  501    0  0.00000000000E+00  0.00000000000E+00  0.85475805026E+02  0.85475805026E+02  0.00000000000E+00 0. -1.
         -3   -1    0    0    0  501 -0.00000000000E+00 -0.00000000000E+00 -0.21664289193E+03  0.21664289193E+03  0.00000000000E+00 0.  1.
         25    2    1    2    0    0 -0.57026024873E+02  0.14324979148E+02 -0.13399947688E+03  0.19250866036E+03  0.12508617817E+03 0.  0.
          5    1    3    3  502    0 -0.50366466233E+02  0.53903748056E+02 -0.13299594173E+03  0.15214397093E+03  0.41800000000E+01 0.  1.
         -5    1    3    3    0  502 -0.66595586401E+01 -0.39578768908E+02 -0.10035351525E+01  0.40364689425E+02  0.41800000000E+01 0.  1.
        -11    1    1    2    0    0  0.54389416196E+02 -0.38457336546E+02  0.30104136025E+02  0.73098798446E+02  0.00000000000E+00 0. -1.
         11    1    1    2    0    0  0.26366086765E+01  0.24132357398E+02 -0.27271746054E+02  0.36511238156E+02  0.00000000000E+00 0.  1.
</event>
<event>
 7    1  0.2440960E-009  0.1770305E+03  0.7561462E-02  0.1170708E+00
         -1   -1    0    0    0  501 -0.00000000000E+00  0.00000000000E+00  0.50177712430E+02  0.50177712430E+02  0.00000000000E+00 0.  1.
          1   -1    0    0  501    0  0.00000000000E+00 -0.00000000000E+00 -0.91230164534E+03  0.91230164534E+03  0.00000000000E+00 0. -1.
         25    2    1    2    0    0  0.11309848524E+03 -0.11947969982E+03 -0.63627044686E+03  0.66899502165E+03  0.12509033301E+03 0.  0.
          5    1    3    3  502    0  0.11316542974E+03 -0.62066796419E+02 -0.55224250322E+03  0.56714015593E+03  0.41800000000E+01 0. -1.
         -5    1    3    3    0  502 -0.66944499211E-01 -0.57412903399E+02 -0.84027943635E+02  0.10185486572E+03  0.41800000000E+01 0. -1.
        -11    1    1    2    0    0 -0.96669364878E+02  0.83236036630E+02 -0.21850645057E+03  0.25301832511E+03  0.00000000000E+00 0.  1.
         11    1    1    2    0    0 -0.16429120364E+02  0.36243663189E+02 -0.73470354871E+01  0.40466011018E+02  0.00000000000E+00 0. -1.
</event>
<event>
 7    1  0.2440960E-009  0.1093645E+03  0.7561462E-02  0.1261751E+00
         -1   -1    0    0    0  501 -0.00000000000E+00  0.00000000000E+00  0.31909495338E+02  0.31909495338E+02  0.00000000000E+00 0.  1.
          1   -1    0    0  501    0  0.00000000000E+00 -0.00000000000E+00 -0.93578402413E+03  0.93578402413E+03  0.00000000000E+00 0. -1.
         25    2    1    2    0    0 -0.21325596687E+02 -0.59806381233E+02 -0.80552858365E+03  0.81765098010E+03  0.12508094129E+03 0.  0.
          5    1    3    3  502    0  0.29142495141E+02 -0.48321402277E+02 -0.15416878180E+03  0.16422462855E+03  0.41800000000E+01 0. -1.
         -5    1    3    3    0  502 -0.50468091829E+02 -0.11484978956E+02 -0.65135980185E+03  0.65342635155E+03  0.41800000000E+01 0. -1.
        -11    1    1    2    0    0 -0.35620955828E+02  0.22088794235E+02 -0.21088395987E+02  0.46920014601E+02  0.00000000000E+00 0.  1.
         11    1    1    2    0    0  0.56946552516E+02  0.37717586998E+02 -0.77257549157E+02  0.10312252477E+03  0.00000000000E+00 0. -1.
</event>
<event>
 7    1  0.2440960E-009  0.1251589E+03  0.7561462E-02  0.1234821E+00
         -2   -1    0    0    0  501 -0.00000000000E+00  0.00000000000E+00  0.93726038203E+02  0.93726038203E+02  0.00000000000E+00 0.  1.
          2   -1    0    0  501    0  0.00000000000E+00 -0.00000000000E+00 -0.26829655626E+03  0.26829655626E+03  0.00000000000E+00 0. -1.
         25    2    1    2    0    0  0.42417813989E+02  0.55636751284E+02  0.10031244853E+02  0.14367454982E+03  0.12508809438E+03 0.  0.
          5    1    3    3  502    0  0.75007582204E+02  0.67289660286E+02 -0.13298053384E+02  0.10172682239E+03  0.41800000000E+01 0. -1.
         -5    1    3    3    0  502 -0.32589768216E+02 -0.11652909001E+02  0.23329298237E+02  0.41947727433E+02  0.41800000000E+01 0. -1.
        -11    1    1    2    0    0 -0.56846508786E+02 -0.72680225407E+02 -0.16285202884E+03  0.18717565019E+03  0.00000000000E+00 0. -1.
         11    1    1    2    0    0  0.14428694797E+02  0.17043474122E+02 -0.21749734068E+02  0.31172394450E+02  0.00000000000E+00 0.  1.
</event>
<event>
 7    1  0.2440960E-009  0.9846322E+02  0.7561462E-02  0.1283561E+00
         -2   -1    0    0    0  501 -0.00000000000E+00  0.00000000000E+00  0.11961110416E+03  0.11961110416E+03  0.00000000000E+00 0.  1.
          2   -1    0    0  501    0  0.00000000000E+00 -0.00000000000E+00 -0.14261274286E+03  0.14261274286E+03  0.00000000000E+00 0. -1.
         25    2    1    2    0    0  0.49105244023E+02 -0.51982494209E+02  0.11420755359E+02  0.14453814198E+03  0.12508931265E+03 0.  0.
          5    1    3    3  502    0  0.49524057655E+02 -0.22333743372E+02  0.63985721954E+02  0.84042092987E+02  0.41800000000E+01 0. -1.
         -5    1    3    3    0  502 -0.41881363257E+00 -0.29648750837E+02 -0.52564966596E+02  0.60496048997E+02  0.41800000000E+01 0. -1.
        -11    1    1    2    0    0 -0.51892327379E+02 -0.79490397600E+01 -0.17726057913E+02  0.55409511847E+02  0.00000000000E+00 0.  1.
         11    1    1    2    0    0  0.27870833567E+01  0.59931533969E+02 -0.16696336146E+02  0.62276193189E+02  0.00000000000E+00 0. -1.
</event>
<event>
 7    1  0.2440960E-009  0.1085681E+03  0.7561462E-02  0.1263245E+00
         -1   -1    0    0    0  501 -0.00000000000E+00  0.00000000000E+00  0.43508188811E+03  0.43508188811E+03  0.00000000000E+00 0.  1.
          1   -1    0    0  501    0  0.00000000000E+00 -0.00000000000E+00 -0.52548008361E+02  0.52548008361E+02  0.00000000000E+00 0. -1.
         25    2    1    2    0    0  0.43291016238E+02 -0.61101928930E+02  0.32020819262E+03  0.35183523307E+03  0.12508871571E+03 0.  0.
          5    1    3    3  502    0 -0.22835442309E+02  0.13086702479E+02  0.14472610756E+02  0.30325699816E+02  0.41800000000E+01 0.  1.
         -5    1    3    3    0  502  0.66126458547E+02 -0.74188631409E+02  0.30573558187E+03  0.32150953325E+03  0.41800000000E+01 0.  1.
        -11    1    1    2    0    0 -0.32884266529E+01  0.49160896889E+02 -0.11852147771E+02  0.50676236438E+02  0.00000000000E+00 0. -1.
         11    1    1    2    0    0 -0.40002589585E+02  0.11941032041E+02  0.74177834897E+02  0.85118426969E+02  0.00000000000E+00 0.  1.
</event>
<event>
 7    1  0.2440960E-009  0.9436435E+02  0.7561462E-02  0.1292614E+00
         -1   -1    0    0    0  501 -0.00000000000E+00  0.00000000000E+00  0.57160391847E+03  0.57160391847E+03  0.00000000000E+00 0.  1.
          1   -1    0    0  501    0  0.00000000000E+00 -0.00000000000E+00 -0.25295000719E+02  0.25295000719E+02  0.00000000000E+00 0. -1.
         25    2    1    2    0    0  0.19776952005E+02 -0.17384055940E+02  0.41778755444E+03  0.43690678941E+03  0.12509104185E+03 0.  0.
          5    1    3    3  502    0  0.35627978655E+02  0.33196534904E+02  0.33478726460E+03  0.33833614606E+03  0.41800000000E+01 0. -1.
         -5    1    3    3    0  502 -0.15851026650E+02 -0.50580590844E+02  0.83000289842E+02  0.98570643347E+02  0.41800000000E+01 0. -1.
        -11    1    1    2    0    0  0.12586956701E+02 -0.28139869579E+02  0.80960652537E+02  0.86630889399E+02  0.00000000000E+00 0.  1.
         11    1    1    2    0    0 -0.32363908706E+02  0.45523925519E+02  0.47560710775E+02  0.73361240385E+02  0.00000000000E+00 0. -1.
</event>
<event>
 7    1  0.2440960E-009  0.8874044E+02  0.7561462E-02  0.1305931E+00
          2   -1    0    0  501    0  0.00000000000E+00  0.00000000000E+00  0.70331688545E+02  0.70331688545E+02  0.00000000000E+00 0.  1.
         -2   -1    0    0    0  501 -0.00000000000E+00 -0.00000000000E+00 -0.19675579987E+03  0.19675579987E+03  0.00000000000E+00 0. -1.
         25    2    1    2    0    0 -0.25992218011E+02  0.94623648501E+01 -0.11064529071E+03  0.16927768014E+03  0.12508965143E+03 0.  0.
          5    1    3    3  502    0  0.36161716798E+02  0.71064505420E+01 -0.99186635330E+02  0.10589444003E+03  0.41800000000E+01 0.  1.
         -5    1    3    3    0  502 -0.62153934809E+02  0.23559143082E+01 -0.11458655376E+02  0.63383240115E+02  0.41800000000E+01 0.  1.
        -11    1    1    2    0    0  0.12265337397E+02  0.32056649814E+02  0.21369448834E+02  0.40431678697E+02  0.00000000000E+00 0.  1.
         11    1    1    2    0    0  0.13726880614E+02 -0.41519014664E+02 -0.37148269457E+02  0.57378129577E+02  0.00000000000E+00 0. -1.
</event>
<event>
 7    1  0.2440960E-009  0.4984952E+02  0.7561462E-02  0.1446155E+00
         -2   -1    0    0    0  501 -0.00000000000E+00  0.00000000000E+00  0.55402970685E+02  0.55402970685E+02  0.00000000000E+00 0. -1.
          2   -1    0    0  501    0  0.00000000000E+00 -0.00000000000E+00 -0.22890243973E+03  0.22890243973E+03  0.00000000000E+00 0.  1.
         25    2    1    2    0    0  0.26584683010E+02 -0.25240048489E+01 -0.97127491570E+02  0.16060734287E+03  0.12509137858E+03 0.  0.
          5    1    3    3  502    0  0.22091630327E+02 -0.11138262904E+02 -0.12672067445E+03  0.12918089164E+03  0.41800000000E+01 0.  1.
         -5    1    3    3    0  502  0.44930526824E+01  0.86142580549E+01  0.29593182881E+02  0.31426451236E+02  0.41800000000E+01 0.  1.
        -11    1    1    2    0    0 -0.18404133595E+02 -0.27401058788E+02  0.78632252741E+01  0.33931702990E+02  0.00000000000E+00 0. -1.
         11    1    1    2    0    0 -0.81805494143E+01  0.29925063637E+02 -0.84235202751E+02  0.89766364552E+02  0.00000000000E+00 0.  1.
</event>
<event>
 7    1  0.2440960E-009  0.1082445E+03  0.7561462E-02  0.1263856E+00
          1   -1    0    0  501    0  0.00000000000E+00  0.00000000000E+00  0.64979730386E+02  0.64979730386E+02  0.00000000000E+00 0. -1.
         -1   -1    0    0    0  501 -0.00000000000E+00 -0.00000000000E+00 -0.28644907270E+03  0.28644907270E+03  0.00000000000E+00 0.  1.
         25    2    1    2    0    0 -0.50225899140E+02 -0.48163503701E+02 -0.17864343466E+03  0.22891730999E+03  0.12508914434E+03 0.  0.
          5    1    3    3  502    0 -0.67146536883E+02 -0.59367534305E+02 -0.58753726161E+02  0.10725033465E+03  0.41800000000E+01 0. -1.
         -5    1    3    3    0  502  0.16920637743E+02  0.11204030604E+02 -0.11988970850E+03  0.12166697534E+03  0.41800000000E+01 0. -1.
        -11    1    1    2    0    0  0.64596283183E+02  0.10129579695E+02 -0.27819934068E+01  0.65444844512E+02  0.00000000000E+00 0. -1.
         11    1    1    2    0    0 -0.14370384044E+02  0.38033924006E+02 -0.40043914248E+02  0.57066648589E+02  0.00000000000E+00 0.  1.
</event>
<event>
 7    1  0.2440960E-009  0.1013816E+03  0.7561462E-02  0.1277417E+00
          2   -1    0    0  501    0  0.00000000000E+00  0.00000000000E+00  0.47615657886E+03  0.47615657886E+03  0.00000000000E+00 0.  1.
         -2   -1    0    0    0  501 -0.00000000000E+00 -0.00000000000E+00 -0.24903614348E+02  0.24903614348E+02  0.00000000000E+00 0. -1.
         25    2    1    2    0    0  0.53420131805E+01 -0.51285249060E+01  0.27001584113E+03  0.29767581264E+03  0.12508995202E+03 0.  0.
          5    1    3    3  502    0 -0.42205164658E+02 -0.45862320428E+02  0.14043930585E+03  0.15370523539E+03  0.41800000000E+01 0. -1.
         -5    1    3    3    0  502  0.47547177839E+02  0.40733795522E+02  0.12957653528E+03  0.14397057725E+03  0.41800000000E+01 0. -1.
        -11    1    1    2    0    0 -0.65804708651E+01  0.41065285446E+02  0.40223560838E+02  0.57858405716E+02  0.00000000000E+00 0. -1.
         11    1    1    2    0    0  0.12384576845E+01 -0.35936760540E+02  0.14101356255E+03  0.14552597486E+03  0.00000000000E+00 0.  1.
</event>
<event>
 7    1  0.2801873E-009  0.1176248E+03  0.7561462E-02  0.1247068E+00
          1   -1    0    0  501    0  0.00000000000E+00  0.00000000000E+00  0.18700238015E+03  0.18700238015E+03  0.00000000000E+00 0. -1.
         -1   -1    0    0    0  501 -0.00000000000E+00 -0.00000000000E+00 -0.90677113723E+02  0.90677113723E+02  0.00000000000E+00 0.  1.
         25    2    1    2    0    0  0.70421830056E+02  0.86911666219E+01  0.52070608077E+02  0.15295101846E+03  0.12509154767E+03 0.  0.
          5    1    3    3  502    0  0.88864821696E+02 -0.20715120695E+02  0.68642807611E+02  0.11426014264E+03  0.41800000000E+01 0.  1.
         -5    1    3    3    0  502 -0.18442991640E+02  0.29406287317E+02 -0.16572199534E+02  0.38690875820E+02  0.41800000000E+01 0.  1.
        -11    1    1    2    0    0 -0.37070883294E+02  0.37000146328E+02 -0.84404530390E+00  0.52382951702E+02  0.00000000000E+00 0.  1.
         11    1    1    2    0    0 -0.33350946762E+02 -0.45691312950E+02  0.45098703655E+02  0.72345523707E+02  0.00000000000E+00 0. -1.
</event>
<event>
 7    1  0.2440960E-009  0.1468340E+03  0.7561462E-02  0.1204418E+00
         -1   -1    0    0    0  501 -0.00000000000E+00  0.00000000000E+00  0.14968398746E+03  0.14968398746E+03  0.00000000000E+00 0.  1.
          1   -1    0    0  501    0  0.00000000000E+00 -0.00000000000E+00 -0.15185983473E+03  0.15185983473E+03  0.00000000000E+00 0. -1.
         25    2    1    2    0    0 -0.43260686780E+02  0.94869161312E+02  0.90336042405E+01  0.16309404845E+03  0.12508564204E+03 0.  0.
          5    1    3    3  502    0  0.13552282687E+02 -0.24118254360E+02  0.13567342312E+02  0.31095011445E+02  0.41800000000E+01 0. -1.
         -5    1    3    3    0  502 -0.56812969468E+02  0.11898741567E+03 -0.45337380710E+01  0.13199903700E+03  0.41800000000E+01 0. -1.
        -11    1    1    2    0    0  0.22077598133E+02 -0.10706989073E+03  0.44600948985E+01  0.10941331860E+03  0.00000000000E+00 0.  1.
         11    1    1    2    0    0  0.21183088647E+02  0.12200729419E+02 -0.15669546399E+02  0.29036455145E+02  0.00000000000E+00 0. -1.
</event>
<event>
 7    1  0.2440960E-009  0.9327814E+02  0.7561462E-02  0.1295102E+00
         -2   -1    0    0    0  501 -0.00000000000E+00  0.00000000000E+00  0.15142584857E+03  0.15142584857E+03  0.00000000000E+00 0.  1.
          2   -1    0    0  501    0  0.00000000000E+00 -0.00000000000E+00 -0.12828288244E+03  0.12828288244E+03  0.00000000000E+00 0. -1.
         25    2    1    2    0    0 -0.50515810139E+01 -0.13049494083E+02 -0.72945978836E+02  0.14547769693E+03  0.12508731634E+03 0.  0.
          5    1    3    3  502    0 -0.58342136771E+02  0.14641027589E+02 -0.15478420946E+02  0.62251253215E+02  0.41800000000E+01 0. -1.
         -5    1    3    3    0  502  0.53290555758E+02 -0.27690521671E+02 -0.57467557890E+02  0.83226443714E+02  0.41800000000E+01 0. -1.
        -11    1    1    2    0    0  0.17392945800E+02 -0.22494127174E+02  0.92106554276E+02  0.96395630926E+02  0.00000000000E+00 0.  1.
         11    1    1    2    0    0 -0.12341364786E+02  0.35543621256E+02  0.39823906908E+01  0.37835403162E+02  0.00000000000E+00 0. -1.
</event>
<event>
 7    1  0.2440960E-009  0.1387456E+03  0.7561462E-02  0.1215027E+00
         -2   -1    0    0    0  501 -0.00000000000E+00  0.00000000000E+00  0.15138562863E+03  0.15138562863E+03  0.00000000000E+00 0.  1.
          2   -1    0    0  501    0  0.00000000000E+00 -0.00000000000E+00 -0.12928397735E+03  0.12928397735E+03  0.00000000000E+00 0. -1.
         25    2    1    2    0    0  0.74440580937E+02  0.46983994696E+02  0.18663113285E+02  0.15409474225E+03  0.12509189400E+03 0.  0.
          5    1    3    3  502    0  0.10921879658E+03  0.27656396453E+02  0.17313130750E+02  0.11406506339E+03  0.41800000000E+01 0. -1.
         -5    1    3    3    0  502 -0.34778215639E+02  0.19327598243E+02  0.13499825353E+01  0.40029678861E+02  0.41800000000E+01 0. -1.
        -11    1    1    2    0    0 -0.10234329130E+02 -0.58604477677E+02 -0.89469893128E+01  0.60160409858E+02  0.00000000000E+00 0. -1.
         11    1    1    2    0    0 -0.64206251806E+02  0.11620482981E+02  0.12385527315E+02  0.66414453868E+02  0.00000000000E+00 0.  1.
</event>
<event>
 7    1  0.2440960E-009  0.2067615E+03  0.7561462E-02  0.1144156E+00
          2   -1    0    0  501    0  0.00000000000E+00  0.00000000000E+00  0.50307132660E+03  0.50307132660E+03  0.00000000000E+00 0. -1.
         -2   -1    0    0    0  501 -0.00000000000E+00 -0.00000000000E+00 -0.93482634130E+02  0.93482634130E+02  0.00000000000E+00 0.  1.
         25    2    1    2    0    0 -0.65283802374E+02 -0.17432947475E+03  0.23640723643E+03  0.32586719223E+03  0.12509318494E+03 0.  0.
          5    1    3    3  502    0 -0.94113125574E+02 -0.97460037550E+02  0.18340153390E+03  0.22805555104E+03  0.41800000000E+01 0. -1.
         -5    1    3    3    0  502  0.28829323200E+02 -0.76869437202E+02  0.53005702528E+02  0.97811641191E+02  0.41800000000E+01 0. -1.
        -11    1    1    2    0    0 -0.29663656048E+01  0.76105371762E+02  0.24796976881E+02  0.80098171005E+02  0.00000000000E+00 0.  1.
         11    1    1    2    0    0  0.68250167979E+02  0.98224102991E+02  0.14838447916E+03  0.19058859749E+03  0.00000000000E+00 0. -1.
</event>
<event>
 7    1  0.2440960E-009  0.5997346E+02  0.7561462E-02  0.1397943E+00
          3   -1    0    0  501    0  0.00000000000E+00  0.00000000000E+00  0.97817444068E+02  0.97817444068E+02  0.00000000000E+00 0. -1.
         -3   -1    0    0    0  501 -0.00000000000E+00 -0.00000000000E+00 -0.14358322645E+03  0.14358322645E+03  0.00000000000E+00 0.  1.
         25    2    1    2    0    0 -0.66631844846E+01 -0.32366331165E+02 -0.58732227893E+02  0.14208913796E+03  0.12509145099E+03 0.  0.
          5    1    3    3  502    0 -0.18787730925E+02  0.11697056085E+02  0.32746667159E+02  0.39744390351E+02  0.41800000000E+01 0. -1.
         -5    1    3    3    0  502  0.12124546440E+02 -0.44063387251E+02 -0.91478895052E+02  0.10234474761E+03  0.41800000000E+01 0. -1.
        -11    1    1    2    0    0  0.20085047442E+02  0.44719044169E+01 -0.35950481511E+02  0.41422749556E+02  0.00000000000E+00 0.  1.
         11    1    1    2    0    0 -0.13421862957E+02  0.27894426749E+02  0.48916927022E+02  0.57888783008E+02  0.00000000000E+00 0. -1.
</event>
<event>
 7    1  0.2440960E-009  0.5304777E+02  0.7561462E-02  0.1429563E+00
          1   -1    0    0  501    0  0.00000000000E+00  0.00000000000E+00  0.15427636328E+02  0.15427636328E+02  0.00000000000E+00 0. -1.
         -1   -1    0    0    0  501 -0.00000000000E+00 -0.00000000000E+00 -0.69548041004E+03  0.69548041004E+03  0.00000000000E+00 0.  1.
         25    2    1    2    0    0 -0.13721589285E+02 -0.74241268481E+01 -0.49472907818E+03  0.51053648305E+03  0.12508892860E+03 0.  0.
          5    1    3    3  502    0 -0.28369533396E+02 -0.14453506056E+02 -0.25494626920E+02  0.41002227551E+02  0.41800000000E+01 0.  1.
         -5    1    3    3    0  502  0.14647944111E+02  0.70293792080E+01 -0.46923445126E+03  0.46953425550E+03  0.41800000000E+01 0.  1.
        -11    1    1    2    0    0  0.83800422693E+01 -0.23953840119E+02 -0.15269451864E+03  0.15478897761E+03  0.00000000000E+00 0.  1.
         11    1    1    2    0    0  0.53415470157E+01  0.31377966968E+02 -0.32629176892E+02  0.45582585712E+02  0.00000000000E+00 0. -1.
</event>
<event>
 7    1  0.2440960E-009  0.7836445E+02  0.7561462E-02  0.1333758E+00
         -4   -1    0    0    0  501 -0.00000000000E+00  0.00000000000E+00  0.17298244428E+03  0.17298244428E+03  0.00000000000E+00 0.  1.
          4   -1    0    0  501    0  0.00000000000E+00 -0.00000000000E+00 -0.76215080311E+02  0.76215080311E+02  0.00000000000E+00 0. -1.
         25    2    1    2    0    0 -0.34723693618E+02  0.33741793364E+01  0.40628350466E+02  0.13607274547E+03  0.12509200300E+03 0.  0.
          5    1    3    3  502    0  0.11963539006E+02 -0.31148889136E+02 -0.29637290072E+02  0.44824334047E+02  0.41800000000E+01 0. -1.
         -5    1    3    3    0  502 -0.46687232624E+02  0.34523068472E+02  0.70265640538E+02  0.91248411422E+02  0.41800000000E+01 0. -1.
        -11    1    1    2    0    0 -0.13066600363E+01 -0.23553121865E+02  0.66490473758E+02  0.70550974554E+02  0.00000000000E+00 0.  1.
         11    1    1    2    0    0  0.36030353654E+02  0.20178942528E+02 -0.10351460254E+02  0.42573804568E+02  0.00000000000E+00 0. -1.
</event>
<event>
 7    1  0.2440960E-009  0.7228648E+02  0.7561462E-02  0.1352486E+00
          2   -1    0    0  501    0  0.00000000000E+00  0.00000000000E+00  0.52623231074E+02  0.52623231074E+02  0.00000000000E+00 0. -1.
         -2   -1    0    0    0  501 -0.00000000000E+00 -0.00000000000E+00 -0.37841567328E+03  0.37841567328E+03  0.00000000000E+00 0.  1.
         25    2    1    2    0    0  0.14607689337E+02  0.42674105438E+02 -0.58943397445E+02  0.14546166759E+03  0.12510119413E+03 0.  0.
          5    1    3    3  502    0  0.24246660739E+02  0.29159227912E+02 -0.96727862070E+02  0.10398034829E+03  0.41800000000E+01 0.  1.
         -5    1    3    3    0  502 -0.96389714017E+01  0.13514877526E+02  0.37784464625E+02  0.41481319304E+02  0.41800000000E+01 0.  1.
        -11    1    1    2    0    0 -0.45623774504E+02 -0.15859455188E+02 -0.21001411431E+03  0.21549705179E+03  0.00000000000E+00 0.  1.
         11    1    1    2    0    0  0.31016085166E+02 -0.26814650250E+02 -0.56834930455E+02  0.70080184981E+02  0.00000000000E+00 0. -1.
</event>
<event>
 7    1  0.2440960E-009  0.8516582E+02  0.7561462E-02  0.1314999E+00
          2   -1    0    0  501    0  0.00000000000E+00  0.00000000000E+00  0.17264891752E+03  0.17264891752E+03  0.00000000000E+00 0. -1.
         -2   -1    0    0    0  501 -0.00000000000E+00 -0.00000000000E+00 -0.85697858729E+02  0.85697858729E+02  0.00000000000E+00 0.  1.
         25    2    1    2    0    0  0.31731903556E+02  0.21210371799E+02  0.82547044293E+01  0.13104344672E+03  0.12508977260E+03 0.  0.
          5    1    3    3  502    0 -0.39720159381E+02 -0.86068614802E+01  0.29799331496E+02  0.50569177207E+02  0.41800000000E+01 0. -1.
         -5    1    3    3    0  502  0.71452062938E+02  0.29817233280E+02 -0.21544627067E+02  0.80474269515E+02  0.41800000000E+01 0. -1.
        -11    1    1    2    0    0 -0.38072844627E+01 -0.23606324650E+02  0.92868022793E+02  0.95896942787E+02  0.00000000000E+00 0. -1.
         11    1    1    2    0    0 -0.27924619094E+02  0.23959528505E+01 -0.14171668434E+02  0.31406386736E+02  0.00000000000E+00 0.  1.
</event>
<event>
 7    1  0.2440960E-009  0.1115208E+03  0.7561462E-02  0.1257779E+00
         -2   -1    0    0    0  501 -0.00000000000E+00  0.00000000000E+00  0.22664250361E+02  0.22664250361E+02  0.00000000000E+00 0.  1.
          2   -1    0    0  501    0  0.00000000000E+00 -0.00000000000E+00 -0.67796497030E+03  0.67796497030E+03  0.00000000000E+00 0. -1.
         25    2    1    2    0    0  0.26208890515E+02 -0.49522425391E+02 -0.41374078008E+03  0.43585353685E+03  0.12508995132E+03 0.  0.
          5    1    3    3  502    0 -0.35655024325E+02  0.73821879356E+01 -0.47110144239E+02  0.59687649883E+02  0.41800000000E+01 0.  1.
         -5    1    3    3    0  502  0.61863914840E+02 -0.56904613327E+02 -0.36663063584E+03  0.37616588697E+03  0.41800000000E+01 0.  1.
        -11    1    1    2    0    0  0.28136138576E+02  0.36965520251E+02 -0.67065592179E+02  0.81583611318E+02  0.00000000000E+00 0.  1.
         11    1    1    2    0    0 -0.54345029090E+02  0.12556905141E+02 -0.17449434767E+03  0.18319207249E+03  0.00000000000E+00 0. -1.
</event>
<event>
 7    1  0.2440960E-009  0.9540365E+02  0.7561462E-02  0.1290270E+00
         -1   -1    0    0    0  501 -0.00000000000E+00  0.00000000000E+00  0.84731318123E+02  0.84731318123E+02  0.00000000000E+00 0.  1.
          1   -1    0    0  501    0  0.00000000000E+00 -0.00000000000E+00 -0.37661720555E+03  0.37661720555E+03  0.00000000000E+00 0. -1.
         25    2    1    2    0    0  0.90440160554E+01  0.21147932289E+02 -0.33248977581E+03  0.35598540216E+03  0.12508847376E+03 0.  0.
          5    1    3    3  502    0 -0.55300434296E+02 -0.51867457229E+01 -0.17821607474E+03  0.18671765331E+03  0.41800000000E+01 0. -1.
         -5    1    3    3    0  502  0.64344450351E+02  0.26334678012E+02 -0.15427370107E+03  0.16926774885E+03  0.41800000000E+01 0. -1.
        -11    1    1    2    0    0 -0.11592868127E+02 -0.42448997480E+02  0.61363534478E+02  0.75510233360E+02  0.00000000000E+00 0.  1.
         11    1    1    2    0    0  0.25488520715E+01  0.21301065191E+02 -0.20759646100E+02  0.29852888158E+02  0.00000000000E+00 0. -1.
</event>
<event>
 7    1  0.2440960E-009  0.1231596E+03  0.7561462E-02  0.1237974E+00
          1   -1    0    0  501    0  0.00000000000E+00  0.00000000000E+00  0.11285062926E+04  0.11285062926E+04  0.00000000000E+00 0.  1.
         -1   -1    0    0    0  501 -0.00000000000E+00 -0.00000000000E+00 -0.17717819818E+02  0.17717819818E+02  0.00000000000E+00 0. -1.
         25    2    1    2    0    0 -0.34064021360E+02  0.80571258308E+02  0.51383639211E+03  0.53603010055E+03  0.12509334763E+03 0.  0.
          5    1    3    3  502    0 -0.61492775155E+02  0.51471383110E+02  0.15146097488E+03  0.17143093066E+03  0.41800000000E+01 0. -1.
         -5    1    3    3    0  502  0.27428753794E+02  0.29099875198E+02  0.36237541723E+03  0.36459916989E+03  0.41800000000E+01 0. -1.
        -11    1    1    2    0    0 -0.54813920956E+01  0.18417720686E+02  0.11500961788E+03  0.11660390345E+03  0.00000000000E+00 0.  1.
         11    1    1    2    0    0  0.39545413456E+02 -0.98988978994E+02  0.48194246276E+03  0.49359010839E+03  0.00000000000E+00 0. -1.
</event>
<event>
 7    1  0.2440960E-009  0.1092653E+03  0.7561462E-02  0.1261937E+00
          2   -1    0    0  501    0  0.00000000000E+00  0.00000000000E+00  0.73014347142E+03  0.73014347142E+03  0.00000000000E+00 0. -1.
         -2   -1    0    0    0  501 -0.00000000000E+00 -0.00000000000E+00 -0.49088751237E+02  0.49088751237E+02  0.00000000000E+00 0.  1.
         25    2    1    2    0    0  0.76412566614E+02  0.20197097958E+02  0.63077617343E+03  0.64789931971E+03  0.12509254337E+03 0.  0.
          5    1    3    3  502    0  0.79291014764E+02 -0.32862053445E+02  0.48779203115E+03  0.49530346015E+03  0.41800000000E+01 0. -1.
         -5    1    3    3    0  502 -0.28784481505E+01  0.53059151403E+02  0.14298414228E+03  0.15259585956E+03  0.41800000000E+01 0. -1.
        -11    1    1    2    0    0 -0.47659393279E+02 -0.93669751416E+01 -0.21604024543E+02  0.53159118385E+02  0.00000000000E+00 0.  1.
         11    1    1    2    0    0 -0.28753173335E+02 -0.10830122817E+02  0.71882571293E+02  0.78173784562E+02  0.00000000000E+00 0. -1.
</event>
<event>
 7    1  0.2440960E-009  0.2598889E+03  0.7561462E-02  0.1107210E+00
          2   -1    0    0  501    0  0.00000000000E+00  0.00000000000E+00  0.47419340132E+03  0.47419340132E+03  0.00000000000E+00 0.  1.
         -2   -1    0    0    0  501 -0.00000000000E+00 -0.00000000000E+00 -0.14926272694E+03  0.14926272694E+03  0.00000000000E+00 0. -1.
         25    2    1    2    0    0 -0.18136212034E+03  0.15776754553E+03  0.20401124968E+03  0.33919162017E+03  0.12509015981E+03 0.  0.
          5    1    3    3  502    0  0.16404315717E+02  0.30329392431E+02  0.36251272679E+02  0.50205585250E+02  0.41800000000E+01 0.  1.
         -5    1    3    3    0  502 -0.19776643606E+03  0.12743815310E+03  0.16775997700E+03  0.28898603492E+03  0.41800000000E+01 0.  1.
        -11    1    1    2    0    0 -0.36369161056E+01 -0.16694728916E+02  0.29910900158E+02  0.34447105548E+02  0.00000000000E+00 0.  1.
         11    1    1    2    0    0  0.18499903645E+03 -0.14107281662E+03  0.91008524540E+02  0.24981740254E+03  0.00000000000E+00 0. -1.
</event>
<event>
 7    1  0.2596762E-009  0.1513907E+03  0.7561462E-02  0.1198775E+00
         -2   -1    0    0    0  501 -0.00000000000E+00  0.00000000000E+00  0.10180303292E+03  0.10180303292E+03  0.00000000000E+00 0.  1.
          2   -1    0    0  501    0  0.00000000000E+00 -0.00000000000E+00 -0.32534001686E+03  0.32534001686E+03  0.00000000000E+00 0. -1.
         25    2    1    2    0    0 -0.14378878209E+02  0.13434515246E+03 -0.18120458227E+03  0.25833084340E+03  0.12507738360E+03 0.  0.
          5    1    3    3  502    0 -0.29287817155E+02  0.13408555001E+03 -0.19438785206E+03  0.23799332004E+03  0.41800000000E+01 0. -1.
         -5    1    3    3    0  502  0.14908938946E+02  0.25960245389E+00  0.13183269795E+02  0.20337523360E+02  0.41800000000E+01 0. -1.
        -11    1    1    2    0    0  0.40045814345E+02 -0.68990201065E+02 -0.55758266160E+02  0.97325738295E+02  0.00000000000E+00 0.  1.
         11    1    1    2    0    0 -0.25666936136E+02 -0.65354951398E+02  0.13425864486E+02  0.71486468090E+02  0.00000000000E+00 0. -1.
</event>
<event>
 7    1  0.2440960E-009  0.1769081E+03  0.7561462E-02  0.1170829E+00
         -1   -1    0    0    0  501 -0.00000000000E+00  0.00000000000E+00  0.22784814772E+03  0.22784814772E+03  0.00000000000E+00 0.  1.
          1   -1    0    0  501    0  0.00000000000E+00 -0.00000000000E+00 -0.15054357897E+03  0.15054357897E+03  0.00000000000E+00 0. -1.
         25    2    1    2    0    0  0.63886503593E+02  0.12598672773E+03 -0.99798401555E+01  0.18894672585E+03  0.12508847706E+03 0.  0.
          5    1    3    3  502    0  0.60343161262E+01  0.12768699468E+03 -0.21758494693E+02  0.12973544647E+03  0.41800000000E+01 0.  1.
         -5    1    3    3    0  502  0.57852187467E+02 -0.17002669468E+01  0.11778654538E+02  0.59211279374E+02  0.41800000000E+01 0.  1.
        -11    1    1    2    0    0 -0.27807415323E+02  0.81573212221E+01  0.11251949921E+02  0.31086984631E+02  0.00000000000E+00 0. -1.
         11    1    1    2    0    0 -0.36079088270E+02 -0.13414404895E+03  0.76032458983E+02  0.15835801621E+03  0.00000000000E+00 0.  1.
</event>
<event>
 7    1  0.2440960E-009  0.9826527E+02  0.7561462E-02  0.1283987E+00
         -3   -1    0    0    0  501 -0.00000000000E+00  0.00000000000E+00  0.47626146996E+02  0.47626146996E+02  0.00000000000E+00 0.  1.
          3   -1    0    0  501    0  0.00000000000E+00 -0.00000000000E+00 -0.34579614195E+03  0.34579614195E+03  0.00000000000E+00 0. -1.
         25    2    1    2    0    0  0.31640842078E+02 -0.64207937690E+01 -0.25592184388E+03  0.28667784435E+03  0.12508327939E+03 0.  0.
          5    1    3    3  502    0  0.68880344313E+02 -0.17180371732E+02 -0.22770375395E+03  0.23855007644E+03  0.41800000000E+01 0.  1.
         -5    1    3    3    0  502 -0.37239502235E+02  0.10759577963E+02 -0.28218089934E+02  0.48127767912E+02  0.41800000000E+01 0.  1.
        -11    1    1    2    0    0 -0.20913561015E+01  0.40938090637E+02 -0.45436617970E+02  0.61194667153E+02  0.00000000000E+00 0. -1.
         11    1    1    2    0    0 -0.29549485976E+02 -0.34517296868E+02  0.31884668938E+01  0.45549777449E+02  0.00000000000E+00 0.  1.
</event>
<event>
 7    1  0.2440960E-009  0.1070820E+03  0.7561462E-02  0.1266071E+00
         -2   -1    0    0    0  501 -0.00000000000E+00  0.00000000000E+00  0.69402221121E+02  0.69402221121E+02  0.00000000000E+00 0.  1.
          2   -1    0    0  501    0  0.00000000000E+00 -0.00000000000E+00 -0.19089378964E+03  0.19089378964E+03  0.00000000000E+00 0. -1.
         25    2    1    2    0    0 -0.36121855429E+02  0.14193174412E+02 -0.73189580876E+02  0.15002713561E+03  0.12508074205E+03 0.  0.
          5    1    3    3  502    0  0.17902232156E+02  0.48501762967E+02 -0.68222527568E+02  0.85701205329E+02  0.41800000000E+01 0. -1.
         -5    1    3    3    0  502 -0.54024087586E+02 -0.34308588555E+02 -0.49670533079E+01  0.64325930282E+02  0.41800000000E+01 0. -1.
        -11    1    1    2    0    0  0.59462201076E+01 -0.50558234643E+02 -0.32704170759E+02  0.60506655905E+02  0.00000000000E+00 0. -1.
         11    1    1    2    0    0  0.30175635322E+02  0.36365060231E+02 -0.15597816887E+02  0.49762219247E+02  0.00000000000E+00 0.  1.
</event>
<event>
 7    1  0.2440960E-009  0.1019081E+03  0.7561462E-02  0.1276334E+00
          2   -1    0    0  501    0  0.00000000000E+00  0.00000000000E+00  0.52319139220E+03  0.52319139220E+03  0.00000000000E+00 0. -1.
         -2   -1    0    0    0  501 -0.00000000000E+00 -0.00000000000E+00 -0.24521476530E+02  0.24521476530E+02  0.00000000000E+00 0.  1.
         25    2    1    2    0    0 -0.29053009969E+02  0.17219042624E+02  0.28137750739E+03  0.30976850964E+03  0.12507060039E+03 0.  0.
          5    1    3    3  502    0  0.33783772062E+02  0.29698685309E+02  0.20535000472E+03  0.21026043851E+03  0.41800000000E+01 0.  1.
         -5    1    3    3    0  502 -0.62836782031E+02 -0.12479642684E+02  0.76027502672E+02  0.99508071130E+02  0.41800000000E+01 0.  1.
        -11    1    1    2    0    0 -0.51833082284E+01  0.33141533279E+02  0.52936455071E+02  0.62669739011E+02  0.00000000000E+00 0.  1.
         11    1    1    2    0    0  0.34236318197E+02 -0.50360575903E+02  0.16435595321E+03  0.17527462008E+03  0.00000000000E+00 0. -1.
</event>
<event>
 7    1  0.2440960E-009  0.1148390E+03  0.7561462E-02  0.1251862E+00
          1   -1    0    0  501    0  0.00000000000E+00  0.00000000000E+00  0.39674244557E+03  0.39674244557E+03  0.00000000000E+00 0. -1.
         -1   -1    0    0    0  501 -0.00000000000E+00 -0.00000000000E+00 -0.61690998843E+02  0.61690998843E+02  0.00000000000E+00 0.  1.
         25    2    1    2    0    0  0.48523086328E+01  0.87089882180E+02  0.78791050672E+02  0.17164953252E+03  0.12508932756E+03 0.  0.
          5    1    3    3  502    0  0.11652878606E+02  0.91500994641E+02  0.23013890973E-02  0.92334684737E+02  0.41800000000E+01 0. -1.
         -5    1    3    3    0  502 -0.68005699729E+01 -0.44111124612E+01  0.78788749283E+02  0.79314847782E+02  0.41800000000E+01 0. -1.
        -11    1    1    2    0    0 -0.47667185800E+02 -0.28099903837E+02  0.12352291411E+03  0.13535019582E+03  0.00000000000E+00 0. -1.
         11    1    1    2    0    0  0.42814877167E+02 -0.58989978342E+02  0.13273748194E+03  0.15143371607E+03  0.00000000000E+00 0.  1.
</event>
<event>
 7    1  0.2440960E-009  0.1428572E+03  0.7561462E-02  0.1209535E+00
          1   -1    0    0  501    0  0.00000000000E+00  0.00000000000E+00  0.89114131176E+03  0.89114131176E+03  0.00000000000E+00 0. -1.
         -1   -1    0    0    0  501 -0.00000000000E+00 -0.00000000000E+00 -0.30098331909E+02  0.30098331909E+02  0.00000000000E+00 0.  1.
         25    2    1    2    0    0  0.37140243877E+02  0.11148640294E+03  0.54881202968E+03  0.57502640396E+03  0.12510837528E+03 0.  0.
          5    1    3    3  502    0  0.31611190703E+01  0.12581975862E+03  0.48617379470E+03  0.50221811535E+03  0.41800000000E+01 0.  1.
         -5    1    3    3    0  502  0.33979124807E+02 -0.14333355682E+02  0.62638234985E+02  0.72808288607E+02  0.41800000000E+01 0.  1.
        -11    1    1    2    0    0 -0.29954759427E+02 -0.35953133949E+02  0.34057471559E+02  0.57877688465E+02  0.00000000000E+00 0.  1.
         11    1    1    2    0    0 -0.71854844508E+01 -0.75533268994E+02  0.27817347860E+03  0.28833555124E+03  0.00000000000E+00 0. -1.
</event>
<event>
 7    1  0.2440960E-009  0.1086849E+03  0.7561462E-02  0.1263025E+00
          1   -1    0    0  501    0  0.00000000000E+00  0.00000000000E+00  0.36047535680E+03  0.36047535680E+03  0.00000000000E+00 0. -1.
         -1   -1    0    0    0  501 -0.00000000000E+00 -0.00000000000E+00 -0.36524878739E+02  0.36524878739E+02  0.00000000000E+00 0.  1.
         25    2    1    2    0    0 -0.22831028332E+02 -0.33485545776E+02  0.19097332358E+03  0.23185972349E+03  0.12508230662E+03 0.  0.
          5    1    3    3  502    0  0.41529699806E+02 -0.35704902954E+02  0.13744737743E+03  0.14801624918E+03  0.41800000000E+01 0.  1.
         -5    1    3    3    0  502 -0.64360728138E+02  0.22193571771E+01  0.53525946155E+02  0.83843474311E+02  0.41800000000E+01 0.  1.
        -11    1    1    2    0    0  0.38707360962E+02  0.57382864219E+02  0.95221329285E+02  0.11772066280E+03  0.00000000000E+00 0.  1.
         11    1    1    2    0    0 -0.15876332630E+02 -0.23897318443E+02  0.37755825199E+02  0.47419849251E+02  0.00000000000E+00 0. -1.
</event>
<event>
 7    1  0.2440960E-009  0.2262621E+03  0.7561462E-02  0.1129299E+00
          1   -1    0    0  501    0  0.00000000000E+00  0.00000000000E+00  0.51599643449E+03  0.51599643449E+03  0.00000000000E+00 0. -1.
         -1   -1    0    0    0  501 -0.00000000000E+00 -0.00000000000E+00 -0.11433398934E+03  0.11433398934E+03  0.00000000000E+00 0.  1.
         25    2    1    2    0    0 -0.56190267190E+02  0.19474378740E+03  0.10665167495E+03  0.26096104091E+03  0.12507436287E+03 0.  0.
          5    1    3    3  502    0  0.37186786469E+02  0.91011303589E+02  0.39759638604E+02  0.10613300962E+03  0.41800000000E+01 0.  1.
         -5    1    3    3    0  502 -0.93377053659E+02  0.10373248381E+03  0.66892036347E+02  0.15482803129E+03  0.41800000000E+01 0.  1.
        -11    1    1    2    0    0  0.72725701743E+02 -0.14794897800E+03  0.26271403268E+03  0.31015575241E+03  0.00000000000E+00 0. -1.
         11    1    1    2    0    0 -0.16535434553E+02 -0.46794809403E+02  0.32296737516E+02  0.59213630501E+02  0.00000000000E+00 0.  1.
</event>
<event>
 7    1  0.2440960E-009  0.1059855E+03  0.7561462E-02  0.1268190E+00
          1   -1    0    0  501    0  0.00000000000E+00  0.00000000000E+00  0.10995133067E+03  0.10995133067E+03  0.00000000000E+00 0. -1.
         -1   -1    0    0    0  501 -0.00000000000E+00 -0.00000000000E+00 -0.12926881165E+03  0.12926881165E+03  0.00000000000E+00 0.  1.
         25    2    1    2    0    0  0.25921962395E+02  0.47470887147E+01  0.29306015356E+02  0.13115382285E+03  0.12509196507E+03 0.  0.
          5    1    3    3  502    0  0.60340669375E+02  0.40256066432E+02  0.35981331942E+02  0.81078208623E+02  0.41800000000E+01 0. -1.
         -5    1    3    3    0  502 -0.34418706980E+02 -0.35508977717E+02 -0.66753165856E+01  0.50075614227E+02  0.41800000000E+01 0. -1.
        -11    1    1    2    0    0  0.14679095112E+02  0.31821374853E+02 -0.39265187364E+02  0.52629180780E+02  0.00000000000E+00 0.  1.
         11    1    1    2    0    0 -0.40601057507E+02 -0.36568463568E+02 -0.93583089714E+01  0.55437138682E+02  0.00000000000E+00 0. -1.
</event>
<event>
 7    1  0.2440960E-009  0.1103013E+03  0.7561462E-02  0.1260013E+00
          1   -1    0    0  501    0  0.00000000000E+00  0.00000000000E+00  0.46627543313E+03  0.46627543313E+03  0.00000000000E+00 0. -1.
         -1   -1    0    0    0  501 -0.00000000000E+00 -0.00000000000E+00 -0.27330722141E+02  0.27330722141E+02  0.00000000000E+00 0.  1.
         25    2    1    2    0    0  0.14606580758E+02 -0.70272641239E+01  0.27715969931E+03  0.30451379774E+03  0.12509364272E+03 0.  0.
          5    1    3    3  502    0  0.16564537705E+02  0.58243412136E+02  0.13514572739E+03  0.14815032567E+03  0.41800000000E+01 0.  1.
         -5    1    3    3    0  502 -0.19579569471E+01 -0.65270676260E+02  0.14201397192E+03  0.15636347206E+03  0.41800000000E+01 0.  1.
        -11    1    1    2    0    0  0.33950523918E+02 -0.19488711887E+02  0.43578711236E+02  0.58579450649E+02  0.00000000000E+00 0.  1.
         11    1    1    2    0    0 -0.48557104677E+02  0.26515976011E+02  0.11820630045E+03  0.13051290689E+03  0.00000000000E+00 0. -1.
</event>
<event>
 7    1  0.2440960E-009  0.1608042E+03  0.7561462E-02  0.1187792E+00
          1   -1    0    0  501    0  0.00000000000E+00  0.00000000000E+00  0.57267128103E+03  0.57267128103E+03  0.00000000000E+00 0. -1.
         -1   -1    0    0    0  501 -0.00000000000E+00 -0.00000000000E+00 -0.79808431712E+02  0.79808431712E+02  0.00000000000E+00 0.  1.
         25    2    1    2    0    0  0.57022365991E+02 -0.12093607386E+03  0.44854084855E+03  0.48447238279E+03  0.12509001831E+03 0.  0.
          5    1    3    3  502    0  0.84850972307E+02 -0.35002535527E+02  0.20355509989E+03  0.22333162805E+03  0.41800000000E+01 0. -1.
         -5    1    3    3    0  502 -0.27828606316E+02 -0.85933538330E+02  0.24498574866E+03  0.26114075474E+03  0.41800000000E+01 0. -1.
        -11    1    1    2    0    0 -0.42371929201E+02  0.44388863386E+02  0.62911880579E+02  0.87884334753E+02  0.00000000000E+00 0.  1.
         11    1    1    2    0    0 -0.14650436790E+02  0.76547210471E+02 -0.18589879811E+02  0.80122995203E+02  0.00000000000E+00 0. -1.
</event>
<event>
 7    1  0.2440960E-009  0.1049738E+03  0.7561462E-02  0.1270171E+00
         -2   -1    0    0    0  501 -0.00000000000E+00  0.00000000000E+00  0.50881271708E+03  0.50881271708E+03  0.00000000000E+00 0.  1.
          2   -1    0    0  501    0  0.00000000000E+00 -0.00000000000E+00 -0.39549466633E+02  0.39549466633E+02  0.00000000000E+00 0. -1.
         25    2    1    2    0    0 -0.89119810118E+02  0.23761278754E+02  0.20809735435E+03  0.25972764635E+03  0.12508797890E+03 0.  0.
          5    1    3    3  502    0 -0.72330484735E+02  0.48428039713E+02  0.53579376444E+02  0.10229954073E+03  0.41800000000E+01 0.  1.
         -5    1    3    3    0  502 -0.16789325383E+02 -0.24666760958E+02  0.15451797791E+03  0.15742810562E+03  0.41800000000E+01 0.  1.
        -11    1    1    2    0    0  0.49535593486E+02 -0.85642679255E+01  0.42300439407E+02  0.65699687070E+02  0.00000000000E+00 0. -1.
         11    1    1    2    0    0  0.39584216632E+02 -0.15197010829E+02  0.21886545669E+03  0.22293485029E+03  0.00000000000E+00 0.  1.
</event>
<event>
 7    1  0.2440960E-009  0.1165734E+03  0.7561462E-02  0.1248859E+00
          2   -1    0    0  501    0  0.00000000000E+00  0.00000000000E+00  0.12355843464E+03  0.12355843464E+03  0.00000000000E+00 0. -1.
         -2   -1    0    0    0  501 -0.00000000000E+00 -0.00000000000E+00 -0.17426881694E+03  0.17426881694E+03  0.00000000000E+00 0.  1.
         25    2    1    2    0    0  0.57218569955E+02 -0.60426959208E+02  0.27179910254E+02  0.15268057847E+03  0.12508888590E+03 0.  0.
          5    1    3    3  502    0  0.73837566753E+02 -0.57263144239E+02 -0.25702656524E+02  0.97000788165E+02  0.41800000000E+01 0. -1.
         -5    1    3    3    0  502 -0.16618996798E+02 -0.31638149688E+01  0.52882566778E+02  0.55679790308E+02  0.41800000000E+01 0. -1.
        -11    1    1    2    0    0  0.76599670996E+01 -0.18496466372E+02 -0.16588954815E+02  0.25999765116E+02  0.00000000000E+00 0.  1.
         11    1    1    2    0    0 -0.64878537054E+02  0.78923425580E+02 -0.61301337744E+02  0.11914690800E+03  0.00000000000E+00 0. -1.
</event>
<event>
 7    1  0.2440960E-009  0.1447276E+03  0.7561462E-02  0.1207106E+00
         -1   -1    0    0    0  501 -0.00000000000E+00  0.00000000000E+00  0.32691080660E+03  0.32691080660E+03  0.00000000000E+00 0.  1.
          1   -1    0    0  501    0  0.00000000000E+00 -0.00000000000E+00 -0.91294822992E+02  0.91294822992E+02  0.00000000000E+00 0. -1.
         25    2    1    2    0    0  0.12490828423E+03 -0.11841439807E+02  0.18937793467E+03  0.25933393728E+03  0.12509112567E+03 0.  0.
          5    1    3    3  502    0  0.30464460788E-01  0.10727552090E+02 -0.14889144847E+02  0.18821273501E+02  0.41800000000E+01 0.  1.
         -5    1    3    3    0  502  0.12487781977E+03 -0.22568991897E+02  0.20426707952E+03  0.24051266378E+03  0.41800000000E+01 0.  1.
        -11    1    1    2    0    0 -0.43777486196E+02 -0.36094052773E+02  0.26366190759E+02  0.62565365486E+02  0.00000000000E+00 0.  1.
         11    1    1    2    0    0 -0.81130798033E+02  0.47935492580E+02  0.19871858179E+02  0.96306326822E+02  0.00000000000E+00 0. -1.
</event>
<event>
 7    1  0.2440960E-009  0.1106353E+03  0.7561462E-02  0.1259398E+00
         -1   -1    0    0    0  501 -0.00000000000E+00  0.00000000000E+00  0.29245024158E+02  0.29245024158E+02  0.00000000000E+00 0.  1.
          1   -1    0    0  501    0  0.00000000000E+00 -0.00000000000E+00 -0.49331810153E+03  0.49331810153E+03  0.00000000000E+00 0. -1.
         25    2    1    2    0    0 -0.53886821655E+02 -0.64854455901E+01 -0.31658797918E+03  0.34470815477E+03  0.12509961171E+03 0.  0.
          5    1    3    3  502    0 -0.91909076773E+02 -0.21945210023E+02 -0.23384962527E+03  0.25225382113E+03  0.41800000000E+01 0.  1.
         -5    1    3    3    0  502  0.38022255119E+02  0.15459764433E+02 -0.82738353907E+02  0.92454333635E+02  0.41800000000E+01 0.  1.
        -11    1    1    2    0    0  0.66507028994E+02 -0.71004404171E+01 -0.64838909326E+02  0.93154094501E+02  0.00000000000E+00 0.  1.
         11    1    1    2    0    0 -0.12620207339E+02  0.13585886007E+02 -0.82646188865E+02  0.84700876416E+02  0.00000000000E+00 0. -1.
</event>
<event>
 7    1  0.2440960E-009  0.1197501E+03  0.7561462E-02  0.1243510E+00
         -1   -1    0    0    0  501 -0.00000000000E+00  0.00000000000E+00  0.13923939491E+03  0.13923939491E+03  0.00000000000E+00 0.  1.
          1   -1    0    0  501    0  0.00000000000E+00 -0.00000000000E+00 -0.12096985761E+03  0.12096985761E+03  0.00000000000E+00 0. -1.
         25    2    1    2    0    0  0.53411703749E+02  0.17284661240E+01 -0.35584570563E+02  0.14061966871E+03  0.12510728146E+03 0.  0.
          5    1    3    3  502    0 -0.38825533971E+02 -0.98140687561E+01 -0.23938926936E+02  0.46843170863E+02  0.41800000000E+01 0.  1.
         -5    1    3    3    0  502  0.92237237720E+02  0.11542534880E+02 -0.11645643627E+02  0.93776497851E+02  0.41800000000E+01 0.  1.
        -11    1    1    2    0    0 -0.32109088845E+02 -0.46555246761E+02  0.34938004986E+02  0.66475926318E+02  0.00000000000E+00 0.  1.
         11    1    1    2    0    0 -0.21302614905E+02  0.44826780637E+02  0.18916102869E+02  0.53113657489E+02  0.00000000000E+00 0. -1.
</event>
<event>
 7    1  0.2440960E-009  0.1779770E+03  0.7561462E-02  0.1169775E+00
          2   -1    0    0  501    0  0.00000000000E+00  0.00000000000E+00  0.41701403887E+03  0.41701403887E+03  0.00000000000E+00 0. -1.
         -2   -1    0    0    0  501 -0.00000000000E+00 -0.00000000000E+00 -0.13206204216E+03  0.13206204216E+03  0.00000000000E+00 0.  1.
         25    2    1    2    0    0 -0.19167407473E+02 -0.16502027003E+03  0.21151045526E+01  0.20796894258E+03  0.12509008107E+03 0.  0.
          5    1    3    3  502    0  0.15498486351E+02 -0.10101416476E+03 -0.54280746000E+02  0.11579264376E+03  0.41800000000E+01 0.  1.
         -5    1    3    3    0  502 -0.34665893824E+02 -0.64006105264E+02  0.56395850552E+02  0.92176298826E+02  0.41800000000E+01 0.  1.
        -11    1    1    2    0    0  0.43341471237E+02  0.66940781545E+02  0.72522977896E+02  0.10779208545E+03  0.00000000000E+00 0.  1.
         11    1    1    2    0    0 -0.24174063764E+02  0.98079488481E+02  0.21031391427E+03  0.23331505300E+03  0.00000000000E+00 0. -1.
</event>
<event>
 7    1  0.2440960E-009  0.1428071E+03  0.7561462E-02  0.1209601E+00
          2   -1    0    0  501    0  0.00000000000E+00  0.00000000000E+00  0.27694457600E+03  0.27694457600E+03  0.00000000000E+00 0. -1.
         -2   -1    0    0    0  501 -0.00000000000E+00 -0.00000000000E+00 -0.10290910608E+03  0.10290910608E+03  0.00000000000E+00 0.  1.
         25    2    1    2    0    0 -0.39120871815E+02  0.10957433210E+03  0.40280387194E+02  0.17552081814E+03  0.12509225053E+03 0.  0.
          5    1    3    3  502    0  0.44726251437E+02  0.34729217283E+02  0.24912334997E+02  0.62005265387E+02  0.41800000000E+01 0. -1.
         -5    1    3    3    0  502 -0.83847123253E+02  0.74845114815E+02  0.15368052197E+02  0.11351555276E+03  0.41800000000E+01 0. -1.
        -11    1    1    2    0    0  0.33593321355E+02 -0.95915965302E+02  0.15077049838E+03  0.18182443956E+03  0.00000000000E+00 0. -1.
         11    1    1    2    0    0  0.55275504603E+01 -0.13658366795E+02 -0.17015415662E+02  0.22508424373E+02  0.00000000000E+00 0.  1.
</event>
<event>
 7    1  0.2440960E-009  0.2178225E+03  0.7561462E-02  0.1135517E+00
          1   -1    0    0  501    0  0.00000000000E+00  0.00000000000E+00  0.47787930147E+03  0.47787930147E+03  0.00000000000E+00 0. -1.
         -1   -1    0    0    0  501 -0.00000000000E+00 -0.00000000000E+00 -0.10836391735E+03  0.10836391735E+03  0.00000000000E+00 0.  1.
         25    2    1    2    0    0 -0.15603325445E+03  0.12219335354E+03  0.22174305845E+03  0.32263769080E+03  0.12508998126E+03 0.  0.
          5    1    3    3  502    0 -0.76809479300E+02  0.11498080958E+03  0.79362785257E+02  0.15948732478E+03  0.41800000000E+01 0. -1.
         -5    1    3    3    0  502 -0.79223775148E+02  0.72125439675E+01  0.14238027319E+03  0.16315036602E+03  0.41800000000E+01 0. -1.
        -11    1    1    2    0    0  0.39483193871E+02 -0.87571388441E+02  0.55201285059E+02  0.11079193357E+03  0.00000000000E+00 0.  1.
         11    1    1    2    0    0  0.11655006058E+03 -0.34621965104E+02  0.92571040615E+02  0.15281359445E+03  0.00000000000E+00 0. -1.
</event>
<event>
 7    1  0.2440960E-009  0.1097568E+03  0.7561462E-02  0.1261021E+00
         -1   -1    0    0    0  501 -0.00000000000E+00  0.00000000000E+00  0.18645195842E+02  0.18645195842E+02  0.00000000000E+00 0.  1.
          1   -1    0    0  501    0  0.00000000000E+00 -0.00000000000E+00 -0.85170959193E+03  0.85170959193E+03  0.00000000000E+00 0. -1.
         25    2    1    2    0    0 -0.40385567417E+02 -0.16516919358E+02 -0.62772921941E+03  0.64155759072E+03  0.12509343158E+03 0.  0.
          5    1    3    3  502    0 -0.72121880874E+02  0.27449284176E+02 -0.33271995841E+03  0.34157732949E+03  0.41800000000E+01 0. -1.
         -5    1    3    3    0  502  0.31736313458E+02 -0.43966203535E+02 -0.29500926100E+03  0.29998026122E+03  0.41800000000E+01 0. -1.
        -11    1    1    2    0    0  0.50969624332E+02 -0.16182880380E+02 -0.17488547872E+03  0.18287897334E+03  0.00000000000E+00 0. -1.
         11    1    1    2    0    0 -0.10584056915E+02  0.32699799738E+02 -0.30449697960E+02  0.45918223720E+02  0.00000000000E+00 0.  1.
</event>
<event>
 7    1  0.2440960E-009  0.1492693E+03  0.7561462E-02  0.1201374E+00
         -1   -1    0    0    0  501 -0.00000000000E+00  0.00000000000E+00  0.56733688930E+02  0.56733688930E+02  0.00000000000E+00 0.  1.
          1   -1    0    0  501    0  0.00000000000E+00 -0.00000000000E+00 -0.49091607177E+03  0.49091607177E+03  0.00000000000E+00 0. -1.
         25    2    1    2    0    0  0.10900019685E+03  0.80526644271E+02 -0.24745127224E+03  0.30861835133E+03  0.12509025261E+03 0.  0.
          5    1    3    3  502    0  0.83299829787E+02  0.16867514962E+02 -0.48124217193E+02  0.97758822538E+02  0.41800000000E+01 0.  1.
         -5    1    3    3    0  502  0.25700367062E+02  0.63659129309E+02 -0.19932705504E+03  0.21085952879E+03  0.41800000000E+01 0.  1.
        -11    1    1    2    0    0 -0.20373910463E+02 -0.44604655965E+02 -0.92946002738E+02  0.10508868153E+03  0.00000000000E+00 0. -1.
         11    1    1    2    0    0 -0.88626286386E+02 -0.35921988306E+02 -0.93785107865E+02  0.13394272783E+03  0.00000000000E+00 0.  1.
</event>
<event>
 7    1  0.2440960E-009  0.1091860E+03  0.7561462E-02  0.1262085E+00
         -2   -1    0    0    0  501 -0.00000000000E+00  0.00000000000E+00  0.14203826634E+02  0.14203826634E+02  0.00000000000E+00 0.  1.
          2   -1    0    0  501    0  0.00000000000E+00 -0.00000000000E+00 -0.87032604646E+03  0.87032604646E+03  0.00000000000E+00 0. -1.
         25    2    1    2    0    0 -0.14348396623E+02  0.19875313103E+02 -0.45886841182E+03  0.47624456555E+03  0.12509101604E+03 0.  0.
          5    1    3    3  502    0  0.26321361606E+02 -0.42182257190E+02 -0.13409299854E+03  0.14307537020E+03  0.41800000000E+01 0. -1.
         -5    1    3    3    0  502 -0.40669758230E+02  0.62057570292E+02 -0.32477541328E+03  0.33316919536E+03  0.41800000000E+01 0. -1.
        -11    1    1    2    0    0  0.16888177850E+02 -0.55721868367E+02 -0.23613807047E+03  0.24321045514E+03  0.00000000000E+00 0. -1.
         11    1    1    2    0    0 -0.25397812264E+01  0.35846555265E+02 -0.16111573754E+03  0.16507485240E+03  0.00000000000E+00 0.  1.
</event>
<event>
 7    1  0.2440960E-009  0.1008528E+03  0.7561462E-02  0.1278513E+00
         -1   -1    0    0    0  501 -0.00000000000E+00  0.00000000000E+00  0.65071243461E+02  0.65071243461E+02  0.00000000000E+00 0.  1.
          1   -1    0    0  501    0  0.00000000000E+00 -0.00000000000E+00 -0.18088922277E+03  0.18088922277E+03  0.00000000000E+00 0. -1.
         25    2    1    2    0    0  0.12851982438E+02  0.95069641632E+00 -0.62554832585E+02  0.14045518014E+03  0.12509385785E+03 0.  0.
          5    1    3    3  502    0 -0.12146053272E+02  0.58312515116E+02 -0.14492398743E+02  0.61444105092E+02  0.41800000000E+01 0.  1.
         -5    1    3    3    0  502  0.24998035710E+02 -0.57361818699E+02 -0.48062433842E+02  0.79011075051E+02  0.41800000000E+01 0.  1.
        -11    1    1    2    0    0  0.32066648626E+02 -0.97394569868E+01  0.22117089861E+01  0.33585988643E+02  0.00000000000E+00 0.  1.
         11    1    1    2    0    0 -0.44918631064E+02  0.87887605705E+01 -0.55474855711E+02  0.71919297447E+02  0.00000000000E+00 0. -1.
</event>
<event>
 7    1  0.2440960E-009  0.7438776E+02  0.7561462E-02  0.1345777E+00
          1   -1    0    0  501    0  0.00000000000E+00  0.00000000000E+00  0.42134022521E+03  0.42134022521E+03  0.00000000000E+00 0. -1.
         -1   -1    0    0    0  501 -0.00000000000E+00 -0.00000000000E+00 -0.30765354619E+02  0.30765354619E+02  0.00000000000E+00 0.  1.
         25    2    1    2    0    0  0.15898546314E+02 -0.13545900508E+02  0.25096042568E+03  0.28118404501E+03  0.12508827570E+03 0.  0.
          5    1    3    3  502    0  0.24384922607E+02 -0.31554266067E+02  0.12704814400E+02  0.42061631762E+02  0.41800000000E+01 0. -1.
         -5    1    3    3    0  502 -0.84863762928E+01  0.18008365558E+02  0.23825561128E+03  0.23912241325E+03  0.41800000000E+01 0. -1.
        -11    1    1    2    0    0  0.33092618197E+02 -0.91636917017E+01  0.20134043428E+02  0.39805456027E+02  0.00000000000E+00 0.  1.
         11    1    1    2    0    0 -0.48991164511E+02  0.22709592210E+02  0.11948040148E+03  0.13111607878E+03  0.00000000000E+00 0. -1.
</event>
<event>
 7    1  0.2440960E-009  0.9425964E+02  0.7561462E-02  0.1292852E+00
         -2   -1    0    0    0  501 -0.00000000000E+00  0.00000000000E+00  0.78483745102E+02  0.78483745102E+02  0.00000000000E+00 0.  1.
          2   -1    0    0  501    0  0.00000000000E+00 -0.00000000000E+00 -0.20947781304E+03  0.20947781304E+03  0.00000000000E+00 0. -1.
         25    2    1    2    0    0  0.19463758151E+02 -0.18282960734E+02 -0.11312746030E+03  0.17075979970E+03  0.12509189577E+03 0.  0.
          5    1    3    3  502    0  0.60541343123E+02  0.24069948139E+02 -0.78951662663E+02  0.10244732338E+03  0.41800000000E+01 0.  1.
         -5    1    3    3    0  502 -0.41077584973E+02 -0.42352908873E+02 -0.34175797636E+02  0.68312476322E+02  0.41800000000E+01 0.  1.
        -11    1    1    2    0    0 -0.15463977059E+02  0.39539526400E+02 -0.57841346127E+02  0.71750470774E+02  0.00000000000E+00 0. -1.
         11    1    1    2    0    0 -0.39997810913E+01 -0.21256565666E+02  0.39974738491E+02  0.45451287662E+02  0.00000000000E+00 0.  1.
</event>
<event>
 7    1  0.2440960E-009  0.9444588E+02  0.7561462E-02  0.1292429E+00
         -2   -1    0    0    0  501 -0.00000000000E+00  0.00000000000E+00  0.70664444292E+03  0.70664444292E+03  0.00000000000E+00 0. -1.
          2   -1    0    0  501    0  0.00000000000E+00 -0.00000000000E+00 -0.28218000613E+02  0.28218000613E+02  0.00000000000E+00 0.  1.
         25    2    1    2    0    0  0.17382183251E+02 -0.61600051082E+02  0.53672452511E+03  0.55481268455E+03  0.12508873849E+03 0.  0.
          5    1    3    3  502    0  0.28801522969E+02 -0.74623483227E+02  0.52960033148E+03  0.53562316555E+03  0.41800000000E+01 0.  1.
         -5    1    3    3    0  502 -0.11419339718E+02  0.13023432145E+02  0.71241936270E+01  0.19189518995E+02  0.41800000000E+01 0.  1.
        -11    1    1    2    0    0  0.24370487864E+02  0.29776210204E+02  0.12286849378E+02  0.40391955145E+02  0.00000000000E+00 0. -1.
         11    1    1    2    0    0 -0.41752671115E+02  0.31823840878E+02  0.12941506782E+03  0.13965780383E+03  0.00000000000E+00 0.  1.
</event>
<event>
 7    1  0.2440960E-009  0.1828487E+03  0.7561462E-02  0.1165074E+00
         -1   -1    0    0    0  501 -0.00000000000E+00  0.00000000000E+00  0.33552838397E+02  0.33552838397E+02  0.00000000000E+00 0.  1.
          1   -1    0    0  501    0  0.00000000000E+00 -0.00000000000E+00 -0.10359355781E+04  0.10359355781E+04  0.00000000000E+00 0. -1.
         25    2    1    2    0    0  0.14993072125E+03 -0.28656112089E+02 -0.51085545953E+03  0.54765236486E+03  0.12509763498E+03 0.  0.
          5    1    3    3  502    0  0.52021866374E+02  0.44265709915E+02 -0.25671250158E+03  0.26567745204E+03  0.41800000000E+01 0. -1.
         -5    1    3    3    0  502  0.97908854873E+02 -0.72921822005E+02 -0.25414295795E+03  0.28197491282E+03  0.41800000000E+01 0. -1.
        -11    1    1    2    0    0  0.10583192654E+02  0.80146584599E+01 -0.32024321445E+02  0.34666927770E+02  0.00000000000E+00 0.  1.
         11    1    1    2    0    0 -0.16051391390E+03  0.20641453630E+02 -0.45950295872E+03  0.48716912385E+03  0.00000000000E+00 0. -1.
</event>
<event>
 7    1  0.3181626E-009  0.1321510E+03  0.7561462E-02  0.1224298E+00
         -2   -1    0    0    0  501 -0.00000000000E+00  0.00000000000E+00  0.93332884835E+02  0.93332884835E+02  0.00000000000E+00 0.  1.
          2   -1    0    0  501    0  0.00000000000E+00 -0.00000000000E+00 -0.47106290106E+03  0.47106290106E+03  0.00000000000E+00 0. -1.
         25    2    1    2    0    0  0.18270353546E+02  0.12982436899E+03 -0.32769506952E+02  0.18414906137E+03  0.12509541805E+03 0.  0.
          5    1    3    3  502    0  0.12780111573E+02  0.35606480613E+02  0.47018922691E+02  0.60493009551E+02  0.41800000000E+01 0.  1.
         -5    1    3    3    0  502  0.54902419736E+01  0.94217888378E+02 -0.79788429644E+02  0.12365605182E+03  0.41800000000E+01 0.  1.
        -11    1    1    2    0    0 -0.18799805237E+02 -0.89974026377E+02 -0.32064787019E+03  0.33356231016E+03  0.00000000000E+00 0. -1.
         11    1    1    2    0    0  0.52945169036E+00 -0.39850342614E+02 -0.24312639086E+02  0.46684414368E+02  0.00000000000E+00 0.  1.
</event>
<event>
 7    1  0.4438428E-009  0.1432724E+03  0.7561462E-02  0.1208992E+00
         -2   -1    0    0    0  501 -0.00000000000E+00  0.00000000000E+00  0.10001533721E+03  0.10001533721E+03  0.00000000000E+00 0.  1.
          2   -1    0    0  501    0  0.00000000000E+00 -0.00000000000E+00 -0.23732771400E+03  0.23732771400E+03  0.00000000000E+00 0. -1.
         25    2    1    2    0    0  0.91593568075E+02  0.47763637417E+02 -0.35629351753E+02  0.16609765094E+03  0.12509289416E+03 0.  0.
          5    1    3    3  502    0  0.58536263064E+02 -0.35380074096E+02  0.29088275727E+01  0.68587006163E+02  0.41800000000E+01 0.  1.
         -5    1    3    3    0  502  0.33057305011E+02  0.83143711512E+02 -0.38538179325E+02  0.97510644775E+02  0.41800000000E+01 0.  1.
        -11    1    1    2    0    0 -0.83966310905E+02 -0.40396962492E+01 -0.94165312798E+02  0.12622902458E+03  0.00000000000E+00 0. -1.
         11    1    1    2    0    0 -0.76272571705E+01 -0.43723941168E+02 -0.75177122448E+01  0.45016375693E+02  0.00000000000E+00 0.  1.
</event>
<event>
 7    1  0.2440960E-009  0.9889877E+02  0.7561462E-02  0.1282629E+00
         -1   -1    0    0    0  501 -0.00000000000E+00  0.00000000000E+00  0.34042523305E+02  0.34042523305E+02  0.00000000000E+00 0.  1.
          1   -1    0    0  501    0  0.00000000000E+00 -0.00000000000E+00 -0.38448888491E+03  0.38448888491E+03  0.00000000000E+00 0. -1.
         25    2    1    2    0    0 -0.35452478343E+02 -0.18951459784E+02 -0.20588719346E+03  0.24423728132E+03  0.12508507947E+03 0.  0.
          5    1    3    3  502    0  0.36349397567E+02 -0.10257488930E+02 -0.14408258823E+03  0.14900925949E+03  0.41800000000E+01 0. -1.
         -5    1    3    3    0  502 -0.71801875910E+02 -0.86939708533E+01 -0.61804605230E+02  0.95228021826E+02  0.41800000000E+01 0. -1.
        -11    1    1    2    0    0 -0.86209391349E+01  0.38270400660E+02 -0.10470193534E+03  0.11180983598E+03  0.00000000000E+00 0. -1.
         11    1    1    2    0    0  0.44073417478E+02 -0.19318940876E+02 -0.39857232807E+02  0.62484290920E+02  0.00000000000E+00 0.  1.
</event>
<event>
 7    1  0.2440960E-009  0.1850029E+03  0.7561462E-02  0.1163047E+00
         -1   -1    0    0    0  501 -0.00000000000E+00  0.00000000000E+00  0.86525040501E+02  0.86525040501E+02  0.00000000000E+00 0.  1.
          1   -1    0    0  501    0  0.00000000000E+00 -0.00000000000E+00 -0.48863291149E+03  0.48863291149E+03  0.00000000000E+00 0. -1.
         25    2    1    2    0    0  0.74207984371E+02  0.15726911278E+03 -0.20417495084E+03  0.29593027358E+03  0.12508763925E+03 0.  0.
          5    1    3    3  502    0  0.70562789506E+01  0.95992458082E+01 -0.10498455252E+03  0.10574102922E+03  0.41800000000E+01 0.  1.
         -5    1    3    3    0  502  0.67151705421E+02  0.14766986697E+03 -0.99190398313E+02  0.19018924436E+03  0.41800000000E+01 0.  1.
        -11    1    1    2    0    0 -0.28278489600E+02  0.29505206583E+01 -0.16561514650E+02  0.32903834332E+02  0.00000000000E+00 0.  1.
         11    1    1    2    0    0 -0.45929494771E+02 -0.16021963344E+03 -0.18137140550E+03  0.24632384408E+03  0.00000000000E+00 0. -1.
</event>
<event>
 7    1  0.2440960E-009  0.1906642E+03  0.7561462E-02  0.1157864E+00
          2   -1    0    0  501    0  0.00000000000E+00  0.00000000000E+00  0.24443717840E+03  0.24443717840E+03  0.00000000000E+00 0. -1.
         -2   -1    0    0    0  501 -0.00000000000E+00 -0.00000000000E+00 -0.16827211546E+03  0.16827211546E+03  0.00000000000E+00 0.  1.
         25    2    1    2    0    0  0.91812837412E+02  0.14413796411E+03  0.32550305003E+02  0.21427159833E+03  0.12508975052E+03 0.  0.
          5    1    3    3  502    0  0.10522431075E+03  0.11793447960E+03 -0.14332295826E+02  0.15875636729E+03  0.41800000000E+01 0.  1.
         -5    1    3    3    0  502 -0.13411473334E+02  0.26203484511E+02  0.46882600830E+02  0.55515231045E+02  0.41800000000E+01 0.  1.
        -11    1    1    2    0    0 -0.14587815504E+02 -0.10665445882E+03  0.21148415066E+02  0.10970521140E+03  0.00000000000E+00 0. -1.
         11    1    1    2    0    0 -0.77225021908E+02 -0.37483505287E+02  0.22466342870E+02  0.88732484127E+02  0.00000000000E+00 0.  1.
</event>
<event>
 7    1  0.2440960E-009  0.7617475E+02  0.7561462E-02  0.1340271E+00
          2   -1    0    0  501    0  0.00000000000E+00  0.00000000000E+00  0.13905148784E+04  0.13905148784E+04  0.00000000000E+00 0.  1.
         -2   -1    0    0    0  501 -0.00000000000E+00 -0.00000000000E+00 -0.91548049841E+01  0.91548049841E+01  0.00000000000E+00 0. -1.
         25    2    1    2    0    0 -0.20878057971E+02 -0.11792361573E+02  0.93509712050E+03  0.94373126931E+03  0.12508849196E+03 0.  0.
          5    1    3    3  502    0 -0.94672414705E+01  0.22565200875E+02  0.85899065015E+03  0.85934930406E+03  0.41800000000E+01 0. -1.
         -5    1    3    3    0  502 -0.11410816501E+02 -0.34357562448E+02  0.76106470349E+02  0.84381965251E+02  0.41800000000E+01 0. -1.
        -11    1    1    2    0    0  0.52510927314E+02  0.23262209551E+02  0.32763341212E+03  0.33262919387E+03  0.00000000000E+00 0.  1.
         11    1    1    2    0    0 -0.31632869343E+02 -0.11469847978E+02  0.11862954084E+03  0.12330922024E+03  0.00000000000E+00 0. -1.
</event>
<event>
 7    1  0.2440960E-009  0.1081577E+03  0.7561462E-02  0.1264020E+00
         -2   -1    0    0    0  501 -0.00000000000E+00  0.00000000000E+00  0.91542985292E+02  0.91542985292E+02  0.00000000000E+00 0. -1.
          2   -1    0    0  501    0  0.00000000000E+00 -0.00000000000E+00 -0.17437039976E+03  0.17437039976E+03  0.00000000000E+00 0.  1.
         25    2    1    2    0    0 -0.51198676821E+02  0.52525534659E+02 -0.63379640281E+02  0.15826356587E+03  0.12510052430E+03 0.  0.
          5    1    3    3  502    0 -0.41142267964E+02  0.91831164398E+02 -0.60245396648E+02  0.11735684550E+03  0.41800000000E+01 0. -1.
         -5    1    3    3    0  502 -0.10056408857E+02 -0.39305629739E+02 -0.31342436330E+01  0.40906720370E+02  0.41800000000E+01 0. -1.
        -11    1    1    2    0    0  0.27212771528E+02 -0.17463148136E+02  0.28845497998E+02  0.43330811576E+02  0.00000000000E+00 0. -1.
         11    1    1    2    0    0  0.23985905294E+02 -0.35062386523E+02 -0.48293272187E+02  0.64319007610E+02  0.00000000000E+00 0.  1.
</event>
<event>
 7    1  0.2440960E-009  0.1220091E+03  0.7561462E-02  0.1239819E+00
         -4   -1    0    0    0  501 -0.00000000000E+00  0.00000000000E+00  0.62361920674E+02  0.62361920674E+02  0.00000000000E+00 0.  1.
          4   -1    0    0  501    0  0.00000000000E+00 -0.00000000000E+00 -0.48587483777E+03  0.48587483777E+03  0.00000000000E+00 0. -1.
         25    2    1    2    0    0  0.12384501241E+02 -0.88880479198E+02 -0.38268330034E+03  0.41248914532E+03  0.12509065191E+03 0.  0.
          5    1    3    3  502    0  0.43769897653E+02  0.51979369286E+01 -0.57979412817E+02  0.72951402999E+02  0.41800000000E+01 0. -1.
         -5    1    3    3    0  502 -0.31385396412E+02 -0.94078416127E+02 -0.32470388753E+03  0.33953774233E+03  0.41800000000E+01 0. -1.
        -11    1    1    2    0    0  0.17170481585E+02  0.36472408789E+02  0.24308164269E+02  0.47073866326E+02  0.00000000000E+00 0.  1.
         11    1    1    2    0    0 -0.29554982826E+02  0.52408070409E+02 -0.65137781017E+02  0.88673746790E+02  0.00000000000E+00 0. -1.
</event>
<event>
 7    1  0.2440960E-009  0.1246196E+03  0.7561462E-02  0.1235665E+00
         -1   -1    0    0    0  501 -0.00000000000E+00  0.00000000000E+00  0.60458951490E+02  0.60458951490E+02  0.00000000000E+00 0.  1.
          1   -1    0    0  501    0  0.00000000000E+00 -0.00000000000E+00 -0.32948053006E+03  0.32948053006E+03  0.00000000000E+00 0. -1.
         25    2    1    2    0    0  0.78747843646E+02  0.43974678000E+02 -0.17240618265E+03  0.23131411705E+03  0.12508930308E+03 0.  0.
          5    1    3    3  502    0 -0.34900567136E+01 -0.22251584838E+02 -0.10151156689E+03  0.10406432692E+03  0.41800000000E+01 0.  1.
         -5    1    3    3    0  502  0.82237900360E+02  0.66226262838E+02 -0.70894615756E+02  0.12724979013E+03  0.41800000000E+01 0.  1.
        -11    1    1    2    0    0 -0.87193490672E+02 -0.12516334442E+02 -0.88903197566E+02  0.12515247493E+03  0.00000000000E+00 0. -1.
         11    1    1    2    0    0  0.84456470259E+01 -0.31458343558E+02 -0.77121983577E+01  0.33472889577E+02  0.00000000000E+00 0.  1.
</event>
<event>
 7    1  0.2440960E-009  0.1407719E+03  0.7561462E-02  0.1212294E+00
          2   -1    0    0  501    0  0.00000000000E+00  0.00000000000E+00  0.36385147142E+03  0.36385147142E+03  0.00000000000E+00 0.  1.
         -2   -1    0    0    0  501 -0.00000000000E+00 -0.00000000000E+00 -0.71346653917E+02  0.71346653917E+02  0.00000000000E+00 0. -1.
         25    2    1    2    0    0  0.77983217436E+02 -0.61252615048E+02  0.59751675953E+02  0.17044305434E+03  0.12508919595E+03 0.  0.
          5    1    3    3  502    0  0.94635307619E+02 -0.29368191714E+01  0.54740757855E+02  0.10944628512E+03  0.41800000000E+01 0.  1.
         -5    1    3    3    0  502 -0.16652090183E+02 -0.58315795877E+02  0.50109180983E+01  0.60996769229E+02  0.41800000000E+01 0.  1.
        -11    1    1    2    0    0  0.14573724248E+02  0.19748050795E+02  0.51463633665E+02  0.57016528645E+02  0.00000000000E+00 0. -1.
         11    1    1    2    0    0 -0.92556941684E+02  0.41504564253E+02  0.18128950789E+03  0.20773854235E+03  0.00000000000E+00 0.  1.
</event>
<event>
 7    1  0.2440960E-009  0.1132846E+03  0.7561462E-02  0.1254605E+00
         -2   -1    0    0    0  501 -0.00000000000E+00  0.00000000000E+00  0.11146553827E+03  0.11146553827E+03  0.00000000000E+00 0.  1.
          2   -1    0    0  501    0  0.00000000000E+00 -0.00000000000E+00 -0.14776302541E+03  0.14776302541E+03  0.00000000000E+00 0. -1.
         25    2    1    2    0    0  0.33196266467E+02  0.53700985816E+02  0.10576192163E+02  0.14051943358E+03  0.12509223552E+03 0.  0.
          5    1    3    3  502    0  0.35842896977E+02  0.91366591617E+02 -0.73579880090E+01  0.98509795020E+02  0.41800000000E+01 0.  1.
         -5    1    3    3    0  502 -0.26466305096E+01 -0.37665605801E+02  0.17934180172E+02  0.42009638559E+02  0.41800000000E+01 0.  1.
        -11    1    1    2    0    0  0.18453464447E+02 -0.25565058424E+02  0.13611629861E+02  0.34342088314E+02  0.00000000000E+00 0.  1.
         11    1    1    2    0    0 -0.51649730914E+02 -0.28135927392E+02 -0.60485309171E+02  0.84367041783E+02  0.00000000000E+00 0. -1.
</event>
<event>
 7    1  0.2440960E-009  0.1237930E+03  0.7561462E-02  0.1236968E+00
          2   -1    0    0  501    0  0.00000000000E+00  0.00000000000E+00  0.76439133688E+02  0.76439133688E+02  0.00000000000E+00 0. -1.
         -2   -1    0    0    0  501 -0.00000000000E+00 -0.00000000000E+00 -0.24067545949E+03  0.24067545949E+03  0.00000000000E+00 0.  1.
         25    2    1    2    0    0 -0.40569689199E+02  0.84972332218E+02 -0.70543073653E+02  0.17172513408E+03  0.12508796708E+03 0.  0.
          5    1    3    3  502    0 -0.27225421356E+02  0.10772122834E+03 -0.86273993114E+02  0.14073294174E+03  0.41800000000E+01 0.  1.
         -5    1    3    3    0  502 -0.13344267843E+02 -0.22748896117E+02  0.15730919462E+02  0.30992192339E+02  0.41800000000E+01 0.  1.
        -11    1    1    2    0    0 -0.59292075205E+01 -0.52847638620E+02 -0.57268189743E+02  0.78151608851E+02  0.00000000000E+00 0.  1.
         11    1    1    2    0    0  0.46498896719E+02 -0.32124693598E+02 -0.36425062404E+02  0.67237850248E+02  0.00000000000E+00 0. -1.
</event>
<event>
 7    1  0.2440960E-009  0.1277678E+03  0.7561462E-02  0.1230806E+00
         -3   -1    0    0    0  501 -0.00000000000E+00  0.00000000000E+00  0.46123078824E+03  0.46123078824E+03  0.00000000000E+00 0.  1.
          3   -1    0    0  501    0  0.00000000000E+00 -0.00000000000E+00 -0.45578080338E+02  0.45578080338E+02  0.00000000000E+00 0. -1.
         25    2    1    2    0    0  0.59043451196E+02  0.60445027955E+02  0.14374613765E+03  0.20844779130E+03  0.12509116306E+03 0.  0.
          5    1    3    3  502    0 -0.10815196888E+02  0.76788203540E+02  0.88906765134E+02  0.11804779529E+03  0.41800000000E+01 0. -1.
         -5    1    3    3    0  502  0.69858648084E+02 -0.16343175585E+02  0.54839372514E+02  0.90399996007E+02  0.41800000000E+01 0. -1.
        -11    1    1    2    0    0 -0.16889716596E+02 -0.61567110606E+02  0.82498799686E+02  0.10431597953E+03  0.00000000000E+00 0. -1.
         11    1    1    2    0    0 -0.42153734599E+02  0.11220826512E+01  0.18940777057E+03  0.19404509775E+03  0.00000000000E+00 0.  1.
</event>
<event>
 7    1  0.2440960E-009  0.1091032E+03  0.7561462E-02  0.1262240E+00
         -2   -1    0    0    0  501 -0.00000000000E+00  0.00000000000E+00  0.35805422620E+02  0.35805422620E+02  0.00000000000E+00 0.  1.
          2   -1    0    0  501    0  0.00000000000E+00 -0.00000000000E+00 -0.71870321142E+03  0.71870321142E+03  0.00000000000E+00 0. -1.
         25    2    1    2    0    0 -0.73240925933E+02 -0.46375997952E+02 -0.57549489526E+03  0.59527780403E+03  0.12508526325E+03 0.  0.
          5    1    3    3  502    0 -0.30946590669E+02 -0.70473392727E+02 -0.16770325121E+03  0.18456988764E+03  0.41800000000E+01 0.  1.
         -5    1    3    3    0  502 -0.42294335263E+02  0.24097394774E+02 -0.40779164405E+03  0.41070791639E+03  0.41800000000E+01 0.  1.
        -11    1    1    2    0    0  0.16641050139E+02 -0.32938796419E+01 -0.75611973187E+02  0.77491578136E+02  0.00000000000E+00 0. -1.
         11    1    1    2    0    0  0.56599875794E+02  0.49669877594E+02 -0.31790920353E+02  0.81739251875E+02  0.00000000000E+00 0.  1.
</event>
<event>
 7    1  0.2440960E-009  0.1571804E+03  0.7561462E-02  0.1191917E+00
          1   -1    0    0  501    0  0.00000000000E+00  0.00000000000E+00  0.27613359631E+03  0.27613359631E+03  0.00000000000E+00 0. -1.
         -1   -1    0    0    0  501 -0.00000000000E+00 -0.00000000000E+00 -0.13713326907E+03  0.13713326907E+03  0.00000000000E+00 0.  1.
         25    2    1    2    0    0  0.39143388924E+02 -0.13749950719E+03  0.15628263793E+03  0.24598909948E+03  0.12509218510E+03 0.  0.
          5    1    3    3  502    0 -0.92395484734E+01 -0.36845958368E+02  0.12386408475E+03  0.12962552910E+03  0.41800000000E+01 0.  1.
         -5    1    3    3    0  502  0.48382937397E+02 -0.10065354882E+03  0.32418553180E+02  0.11636357038E+03  0.41800000000E+01 0.  1.
        -11    1    1    2    0    0 -0.21758167221E+02  0.14414365842E+03 -0.23492573777E+02  0.14765741812E+03  0.00000000000E+00 0.  1.
         11    1    1    2    0    0 -0.17385221703E+02 -0.66441512309E+01  0.62102630867E+01  0.19620347776E+02  0.00000000000E+00 0. -1.
</event>
<event>
 7    1  0.2440960E-009  0.7553778E+02  0.7561462E-02  0.1342214E+00
         -3   -1    0    0    0  501 -0.00000000000E+00  0.00000000000E+00  0.32944202285E+02  0.32944202285E+02  0.00000000000E+00 0.  1.
          3   -1    0    0  501    0  0.00000000000E+00 -0.00000000000E+00 -0.37550778966E+03  0.37550778966E+03  0.00000000000E+00 0. -1.
         25    2    1    2    0    0 -0.34278962702E+00  0.30572694403E+02 -0.18890365991E+03  0.22861974761E+03  0.12509032385E+03 0.  0.
          5    1    3    3  502    0 -0.24197786474E+02 -0.19391244426E+02  0.45067095087E+00  0.31292630681E+02  0.41800000000E+01 0.  1.
         -5    1    3    3    0  502  0.23854996847E+02  0.49963938830E+02 -0.18935433086E+03  0.19732711692E+03  0.41800000000E+01 0.  1.
        -11    1    1    2    0    0  0.20061596149E+02  0.74743383416E+01 -0.11758919076E+01  0.21440991010E+02  0.00000000000E+00 0.  1.
         11    1    1    2    0    0 -0.19718806522E+02 -0.38047032745E+02 -0.15248403556E+03  0.15839125333E+03  0.00000000000E+00 0. -1.
</event>
<event>
 7    1  0.2869676E-009  0.1198428E+03  0.7561462E-02  0.1243357E+00
         -2   -1    0    0    0  501 -0.00000000000E+00  0.00000000000E+00  0.13524369068E+03  0.13524369068E+03  0.00000000000E+00 0.  1.
          2   -1    0    0  501    0  0.00000000000E+00 -0.00000000000E+00 -0.16669488988E+03  0.16669488988E+03  0.00000000000E+00 0. -1.
         25    2    1    2    0    0 -0.63133181555E+02  0.81733816743E+02 -0.26888623177E+02  0.16443392867E+03  0.12509717594E+03 0.  0.
          5    1    3    3  502    0 -0.23371659713E+02  0.39649831320E+02 -0.75632768584E+02  0.88634822080E+02  0.41800000000E+01 0. -1.
         -5    1    3    3    0  502 -0.39761521842E+02  0.42083985423E+02  0.48744145407E+02  0.75799106589E+02  0.41800000000E+01 0. -1.
        -11    1    1    2    0    0  0.56301522028E+02 -0.29870240342E+01  0.96322984247E+01  0.57197594951E+02  0.00000000000E+00 0. -1.
         11    1    1    2    0    0  0.68316595272E+01 -0.78746792709E+02 -0.14194874439E+02  0.80307056939E+02  0.00000000000E+00 0.  1.
</event>
<event>
 7    1  0.3422538E-009  0.1498083E+03  0.7561462E-02  0.1200709E+00
         -2   -1    0    0    0  501 -0.00000000000E+00  0.00000000000E+00  0.50979082195E+02  0.50979082195E+02  0.00000000000E+00 0.  1.
          2   -1    0    0  501    0  0.00000000000E+00 -0.00000000000E+00 -0.52428348984E+03  0.52428348984E+03  0.00000000000E+00 0. -1.
         25    2    1    2    0    0  0.73227960961E+02 -0.90191883047E+02 -0.31622319531E+03  0.35936307982E+03  0.12509118216E+03 0.  0.
          5    1    3    3  502    0 -0.13121514383E+02  0.12614003666E+02 -0.12075809048E+03  0.12219360067E+03  0.41800000000E+01 0.  1.
         -5    1    3    3    0  502  0.86349475344E+02 -0.10280588671E+03 -0.19546510483E+03  0.23716947915E+03  0.41800000000E+01 0.  1.
        -11    1    1    2    0    0  0.74454736846E+01  0.60031223432E+02 -0.50006773784E+02  0.78484777437E+02  0.00000000000E+00 0.  1.
         11    1    1    2    0    0 -0.80673434645E+02  0.30160659616E+02 -0.10707443855E+03  0.13741471478E+03  0.00000000000E+00 0. -1.
</event>
<event>
 7    1  0.2440960E-009  0.1169477E+03  0.7561462E-02  0.1248219E+00
         -2   -1    0    0    0  501 -0.00000000000E+00  0.00000000000E+00  0.12671571796E+03  0.12671571796E+03  0.00000000000E+00 0.  1.
          2   -1    0    0  501    0  0.00000000000E+00 -0.00000000000E+00 -0.13324693015E+03  0.13324693015E+03  0.00000000000E+00 0. -1.
         25    2    1    2    0    0 -0.42262970853E+02 -0.47231977455E+02  0.26720607801E+02  0.14276012675E+03  0.12509773983E+03 0.  0.
          5    1    3    3  502    0  0.75521640647E+01 -0.67170636750E+02 -0.20923484251E+02  0.70881550609E+02  0.41800000000E+01 0.  1.
         -5    1    3    3    0  502 -0.49815134918E+02  0.19938659295E+02  0.47644092052E+02  0.71878576146E+02  0.41800000000E+01 0.  1.
        -11    1    1    2    0    0  0.24108174213E+02 -0.26846267770E+02 -0.93378994786E+01  0.37270934034E+02  0.00000000000E+00 0. -1.
         11    1    1    2    0    0  0.18154796640E+02  0.74078245225E+02 -0.23913920511E+02  0.79931587316E+02  0.00000000000E+00 0.  1.
</event>
<event>
 7    1  0.2440960E-009  0.1141845E+03  0.7561462E-02  0.1253011E+00
         -2   -1    0    0    0  501 -0.00000000000E+00  0.00000000000E+00  0.93203608749E+02  0.93203608749E+02  0.00000000000E+00 0.  1.
          2   -1    0    0  501    0  0.00000000000E+00 -0.00000000000E+00 -0.19696785635E+03  0.19696785635E+03  0.00000000000E+00 0. -1.
         25    2    1    2    0    0  0.70026450011E+02  0.16759609113E+02 -0.10131027102E+03  0.17633915398E+03  0.12508852071E+03 0.  0.
          5    1    3    3  502    0 -0.33283228025E+02 -0.40691657750E+01 -0.46486924734E+02  0.57470322333E+02  0.41800000000E+01 0. -1.
         -5    1    3    3    0  502  0.10330967804E+03  0.20828774888E+02 -0.54823346282E+02  0.11886883165E+03  0.41800000000E+01 0. -1.
        -11    1    1    2    0    0 -0.72007802362E+02 -0.28321146326E+02  0.27139738343E+02  0.81998636133E+02  0.00000000000E+00 0.  1.
         11    1    1    2    0    0  0.19813523511E+01  0.11561537213E+02 -0.29593714932E+02  0.31833674990E+02  0.00000000000E+00 0. -1.
</event>
<event>
 7    1  0.2440960E-009  0.1209445E+03  0.7561462E-02  0.1241547E+00
         -4   -1    0    0    0  501 -0.00000000000E+00  0.00000000000E+00  0.35027333964E+02  0.35027333964E+02  0.00000000000E+00 0.  1.
          4   -1    0    0  501    0  0.00000000000E+00 -0.00000000000E+00 -0.60364081181E+03  0.60364081181E+03  0.00000000000E+00 0. -1.
         25    2    1    2    0    0 -0.86197902587E+02 -0.20162871396E+02 -0.39679533885E+03  0.42535863330E+03  0.12508719437E+03 0.  0.
          5    1    3    3  502    0  0.15656591330E+02  0.33558597202E+02 -0.11601481350E+03  0.12185326278E+03  0.41800000000E+01 0. -1.
         -5    1    3    3    0  502 -0.10185449392E+03 -0.53721468597E+02 -0.28078052535E+03  0.30350537052E+03  0.41800000000E+01 0. -1.
        -11    1    1    2    0    0  0.44407436493E+02  0.40038045798E+01 -0.10394769086E+02  0.45783207525E+02  0.00000000000E+00 0.  1.
         11    1    1    2    0    0  0.41790466094E+02  0.16159066816E+02 -0.16142336991E+03  0.16752630495E+03  0.00000000000E+00 0. -1.
</event>
<event>
 7    1  0.2440960E-009  0.1490781E+03  0.7561462E-02  0.1201610E+00
          1   -1    0    0  501    0  0.00000000000E+00  0.00000000000E+00  0.10192835915E+03  0.10192835915E+03  0.00000000000E+00 0. -1.
         -1   -1    0    0    0  501 -0.00000000000E+00 -0.00000000000E+00 -0.40047727462E+03  0.40047727462E+03  0.00000000000E+00 0.  1.
         25    2    1    2    0    0 -0.10280641550E+03  0.95273367599E+02 -0.27819103927E+03  0.33568528476E+03  0.12509269537E+03 0.  0.
          5    1    3    3  502    0 -0.68724020817E+02  0.48642172161E+02 -0.26247559237E+03  0.27568090420E+03  0.41800000000E+01 0.  1.
         -5    1    3    3    0  502 -0.34082394681E+02  0.46631195438E+02 -0.15715446896E+02  0.60004380560E+02  0.41800000000E+01 0.  1.
        -11    1    1    2    0    0  0.63882625885E+02 -0.13373567684E+02  0.18839853108E+02  0.67932188746E+02  0.00000000000E+00 0. -1.
         11    1    1    2    0    0  0.38923789612E+02 -0.81899799915E+02 -0.39197729312E+02  0.98788160258E+02  0.00000000000E+00 0.  1.
</event>
<event>
 7    1  0.2440960E-009  0.1100472E+03  0.7561462E-02  0.1260483E+00
         -2   -1    0    0    0  501 -0.00000000000E+00  0.00000000000E+00  0.13197742628E+03  0.13197742628E+03  0.00000000000E+00 0.  1.
          2   -1    0    0  501    0  0.00000000000E+00 -0.00000000000E+00 -0.14308148830E+03  0.14308148830E+03  0.00000000000E+00 0. -1.
         25    2    1    2    0    0 -0.17426043154E+02  0.24405526083E+02 -0.85087013640E+02  0.15422776582E+03  0.12508839745E+03 0.  0.
          5    1    3    3  502    0 -0.32679119467E+02  0.69430993257E+02 -0.70594305915E+02  0.10435332339E+03  0.41800000000E+01 0.  1.
         -5    1    3    3    0  502  0.15253076313E+02 -0.45025467174E+02 -0.14492707724E+02  0.49874442438E+02  0.41800000000E+01 0.  1.
        -11    1    1    2    0    0  0.10897723131E+02 -0.59161784045E+02  0.45644625582E+02  0.75513633903E+02  0.00000000000E+00 0.  1.
         11    1    1    2    0    0  0.65283200230E+01  0.34756257962E+02  0.28338326035E+02  0.45317514851E+02  0.00000000000E+00 0. -1.
</event>
<event>
 7    1  0.2440960E-009  0.8375026E+02  0.7561462E-02  0.1318733E+00
         -1   -1    0    0    0  501 -0.00000000000E+00  0.00000000000E+00  0.88157038496E+01  0.88157038496E+01  0.00000000000E+00 0.  1.
          1   -1    0    0  501    0  0.00000000000E+00 -0.00000000000E+00 -0.15787954384E+04  0.15787954384E+04  0.00000000000E+00 0. -1.
         25    2    1    2    0    0 -0.11735671898E+01 -0.15854346050E+02 -0.11549953460E+04  0.11618588808E+04  0.12509625081E+03 0.  0.
          5    1    3    3  502    0 -0.33332600281E+02  0.50813013797E+01 -0.10400613369E+04  0.10406161343E+04  0.41800000000E+01 0.  1.
         -5    1    3    3    0  502  0.32159033091E+02 -0.20935647430E+02 -0.11493400910E+03  0.12124274655E+03  0.41800000000E+01 0.  1.
        -11    1    1    2    0    0  0.47357507204E+02  0.95729551331E+01 -0.19665842066E+03  0.20250656625E+03  0.00000000000E+00 0.  1.
         11    1    1    2    0    0 -0.46183940014E+02  0.62813909173E+01 -0.21832596783E+03  0.22324569518E+03  0.00000000000E+00 0. -1.
</event>
<event>
 7    1  0.2677522E-009  0.1036764E+03  0.7561462E-02  0.1272750E+00
         -3   -1    0    0    0  501 -0.00000000000E+00  0.00000000000E+00  0.17851773080E+03  0.17851773080E+03  0.00000000000E+00 0.  1.
          3   -1    0    0  501    0  0.00000000000E+00 -0.00000000000E+00 -0.81757353424E+02  0.81757353424E+02  0.00000000000E+00 0. -1.
         25    2    1    2    0    0  0.19842333471E+02  0.47048950169E+02  0.72106064090E+02  0.15313984323E+03  0.12508079468E+03 0.  0.
          5    1    3    3  502    0  0.61490781781E+02  0.61400685719E+02  0.64361428155E+02  0.10821749528E+03  0.41800000000E+01 0. -1.
         -5    1    3    3    0  502 -0.41648448310E+02 -0.14351735550E+02  0.77446359352E+01  0.44922347954E+02  0.41800000000E+01 0. -1.
        -11    1    1    2    0    0  0.19951800365E+02 -0.17511793675E+02  0.46051396300E+02  0.53155134810E+02  0.00000000000E+00 0.  1.
         11    1    1    2    0    0 -0.39794133836E+02 -0.29537156495E+02 -0.21397083014E+02  0.53980106179E+02  0.00000000000E+00 0. -1.
</event>
<event>
 7    1  0.2440960E-009  0.7334451E+02  0.7561462E-02  0.1349076E+00
         -2   -1    0    0    0  501 -0.00000000000E+00  0.00000000000E+00  0.39059423566E+03  0.39059423566E+03  0.00000000000E+00 0. -1.
          2   -1    0    0  501    0  0.00000000000E+00 -0.00000000000E+00 -0.31721976927E+02  0.31721976927E+02  0.00000000000E+00 0.  1.
         25    2    1    2    0    0 -0.18146774897E+01 -0.17315917758E+01  0.24954887741E+03  0.27915617463E+03  0.12508891300E+03 0.  0.
          5    1    3    3  502    0  0.14033568674E+02 -0.23374619810E+02 -0.55023438209E+00  0.27587842591E+02  0.41800000000E+01 0. -1.
         -5    1    3    3    0  502 -0.15848246163E+02  0.21643028034E+02  0.25009911179E+03  0.25156833204E+03  0.41800000000E+01 0. -1.
        -11    1    1    2    0    0 -0.25398367909E+02 -0.36843719268E+02  0.45996235228E+02  0.64173128310E+02  0.00000000000E+00 0.  1.
         11    1    1    2    0    0  0.27213045399E+02  0.38575311044E+02  0.63327146095E+02  0.78986909640E+02  0.00000000000E+00 0. -1.
</event>
<event>
 7    1  0.2440960E-009  0.1292849E+03  0.7561462E-02  0.1228521E+00
         -2   -1    0    0    0  501 -0.00000000000E+00  0.00000000000E+00  0.14363822385E+03  0.14363822385E+03  0.00000000000E+00 0. -1.
          2   -1    0    0  501    0  0.00000000000E+00 -0.00000000000E+00 -0.23320903517E+03  0.23320903517E+03  0.00000000000E+00 0.  1.
         25    2    1    2    0    0 -0.55905753907E+02 -0.90534234347E+02  0.57697204335E+02  0.17406626779E+03  0.12509275473E+03 0.  0.
          5    1    3    3  502    0  0.21003447076E+02  0.11496505912E+02 -0.13433033087E+02  0.27771085956E+02  0.41800000000E+01 0.  1.
         -5    1    3    3    0  502 -0.76909200983E+02 -0.10203074026E+03  0.71130237422E+02  0.14629518184E+03  0.41800000000E+01 0.  1.
        -11    1    1    2    0    0  0.93744236591E+01  0.13743202235E+02  0.11609884520E+02  0.20286568097E+02  0.00000000000E+00 0. -1.
         11    1    1    2    0    0  0.46531330248E+02  0.76791032113E+02 -0.15887790018E+03  0.18249442313E+03  0.00000000000E+00 0.  1.
</event>
<event>
 7    1  0.2627835E-009  0.9547123E+02  0.7561462E-02  0.1290118E+00
          1   -1    0    0  501    0  0.00000000000E+00  0.00000000000E+00  0.35554173732E+03  0.35554173732E+03  0.00000000000E+00 0. -1.
         -1   -1    0    0    0  501 -0.00000000000E+00 -0.00000000000E+00 -0.50647128038E+02  0.50647128038E+02  0.00000000000E+00 0.  1.
         25    2    1    2    0    0 -0.68385487877E+02  0.29700497993E+02  0.20855380961E+03  0.25436365135E+03  0.12508989205E+03 0.  0.
          5    1    3    3  502    0 -0.39325768971E+02  0.27896052304E+02  0.21812657072E+03  0.22343092690E+03  0.41800000000E+01 0.  1.
         -5    1    3    3    0  502 -0.29059718905E+02  0.18044456891E+01 -0.95727611097E+01  0.30932724458E+02  0.41800000000E+01 0.  1.
        -11    1    1    2    0    0  0.26926908437E+02 -0.57310682289E+02  0.33498244748E+02  0.71635920484E+02  0.00000000000E+00 0.  1.
         11    1    1    2    0    0  0.41458579440E+02  0.27610184297E+02  0.62842554923E+02  0.80189293520E+02  0.00000000000E+00 0. -1.
</event>
<event>
 7    1  0.2440960E-009  0.9309485E+02  0.7561462E-02  0.1295526E+00
         -2   -1    0    0    0  501 -0.00000000000E+00  0.00000000000E+00  0.57870251117E+02  0.57870251117E+02  0.00000000000E+00 0.  1.
          2   -1    0    0  501    0  0.00000000000E+00 -0.00000000000E+00 -0.34225659097E+03  0.34225659097E+03  0.00000000000E+00 0. -1.
         25    2    1    2    0    0 -0.86447762681E+01 -0.35771357952E+02 -0.38200282410E+02  0.13587481740E+03  0.12509349392E+03 0.  0.
          5    1    3    3  502    0  0.48007275283E+02 -0.45522867163E+02 -0.41387103631E+02  0.78149821892E+02  0.41800000000E+01 0. -1.
         -5    1    3    3    0  502 -0.56652051552E+02  0.97515092107E+01  0.31868212206E+01  0.57724995508E+02  0.41800000000E+01 0. -1.
        -11    1    1    2    0    0 -0.12045610869E+02 -0.75757020329E+01 -0.84658189275E+00  0.14254988720E+02  0.00000000000E+00 0.  1.
         11    1    1    2    0    0  0.20690387137E+02  0.43347059985E+02 -0.24533947555E+03  0.24999703597E+03  0.00000000000E+00 0. -1.
</event>
<event>
 7    1  0.2440960E-009  0.9722565E+02  0.7561462E-02  0.1286241E+00
          2   -1    0    0  501    0  0.00000000000E+00  0.00000000000E+00  0.10117774167E+04  0.10117774167E+04  0.00000000000E+00 0. -1.
         -2   -1    0    0    0  501 -0.00000000000E+00 -0.00000000000E+00 -0.15221607175E+02  0.15221607175E+02  0.00000000000E+00 0.  1.
         25    2    1    2    0    0  0.47303139664E+02  0.15702719192E+02  0.62831993838E+03  0.64258698190E+03  0.12509165411E+03 0.  0.
          5    1    3    3  502    0  0.23319532108E+02 -0.28297578141E+02  0.53757542805E+03  0.53884076196E+03  0.41800000000E+01 0. -1.
         -5    1    3    3    0  502  0.23983607556E+02  0.44000297333E+02  0.90744510333E+02  0.10374621994E+03  0.41800000000E+01 0. -1.
        -11    1    1    2    0    0 -0.24611764984E+02 -0.55911992394E+02  0.25300529356E+03  0.26027594672E+03  0.00000000000E+00 0. -1.
         11    1    1    2    0    0 -0.22691374680E+02  0.40209273201E+02  0.11523057761E+03  0.12413609529E+03  0.00000000000E+00 0.  1.
</event>
<event>
 7    1  0.2440960E-009  0.1317362E+03  0.7561462E-02  0.1224902E+00
          2   -1    0    0  501    0  0.00000000000E+00  0.00000000000E+00  0.40320933486E+02  0.40320933486E+02  0.00000000000E+00 0. -1.
         -2   -1    0    0    0  501 -0.00000000000E+00 -0.00000000000E+00 -0.58118436775E+03  0.58118436775E+03  0.00000000000E+00 0.  1.
         25    2    1    2    0    0 -0.38322742770E+02 -0.82682072460E+02 -0.17345725999E+03  0.23246357398E+03  0.12508770709E+03 0.  0.
          5    1    3    3  502    0 -0.21884051479E+02  0.21602738574E+02 -0.20390635204E+01  0.31100164036E+02  0.41800000000E+01 0.  1.
         -5    1    3    3    0  502 -0.16438691291E+02 -0.10428481103E+03 -0.17141819647E+03  0.20136340994E+03  0.41800000000E+01 0.  1.
        -11    1    1    2    0    0 -0.30570060482E+01  0.85268581943E+02 -0.27053255942E+03  0.28366871885E+03  0.00000000000E+00 0. -1.
         11    1    1    2    0    0  0.41379748818E+02 -0.25865094836E+01 -0.96873614864E+02  0.10537300840E+03  0.00000000000E+00 0.  1.
</event>
<event>
 7    1  0.2440960E-009  0.6955205E+02  0.7561462E-02  0.1361623E+00
          1   -1    0    0  501    0  0.00000000000E+00  0.00000000000E+00  0.21541912190E+03  0.21541912190E+03  0.00000000000E+00 0. -1.
         -1   -1    0    0    0  501 -0.00000000000E+00 -0.00000000000E+00 -0.67584783221E+02  0.67584783221E+02  0.00000000000E+00 0.  1.
         25    2    1    2    0    0 -0.30083505961E+02  0.75431996782E+01  0.13462570399E+03  0.18636850220E+03  0.12508885340E+03 0.  0.
          5    1    3    3  502    0 -0.85350165006E+01  0.21538536446E+02 -0.19185699471E+02  0.30369697449E+02  0.41800000000E+01 0. -1.
         -5    1    3    3    0  502 -0.21548489460E+02 -0.13995336768E+02  0.15381140346E+03  0.15599880475E+03  0.41800000000E+01 0. -1.
        -11    1    1    2    0    0 -0.28724962443E+02  0.56116707196E+01  0.20787396823E+02  0.35898888315E+02  0.00000000000E+00 0. -1.
         11    1    1    2    0    0  0.58808468403E+02 -0.13154870398E+02 -0.75787621334E+01  0.60736514607E+02  0.00000000000E+00 0.  1.
</event>
<event>
 7    1  0.2440960E-009  0.1396556E+03  0.7561462E-02  0.1213793E+00
          1   -1    0    0  501    0  0.00000000000E+00  0.00000000000E+00  0.12319517278E+03  0.12319517278E+03  0.00000000000E+00 0. -1.
         -1   -1    0    0    0  501 -0.00000000000E+00 -0.00000000000E+00 -0.23026966292E+03  0.23026966292E+03  0.00000000000E+00 0.  1.
         25    2    1    2    0    0  0.10359154364E+03  0.23301650533E+02 -0.13288061934E+03  0.21113700559E+03  0.12508957311E+03 0.  0.
          5    1    3    3  502    0  0.90760806249E+02 -0.34439932668E+02 -0.50132615282E+02  0.10933610761E+03  0.41800000000E+01 0.  1.
         -5    1    3    3    0  502  0.12830737394E+02  0.57741583201E+02 -0.82748004061E+02  0.10180089798E+03  0.41800000000E+01 0.  1.
        -11    1    1    2    0    0 -0.13335317215E+02 -0.29505700894E+02  0.39231676325E+02  0.50867882773E+02  0.00000000000E+00 0.  1.
         11    1    1    2    0    0 -0.90256226428E+02  0.62040503609E+01 -0.13425547121E+02  0.91459947329E+02  0.00000000000E+00 0. -1.
</event>
<event>
 7    1  0.2440960E-009  0.9841585E+02  0.7561462E-02  0.1283663E+00
         -2   -1    0    0    0  501 -0.00000000000E+00  0.00000000000E+00  0.15366081555E+02  0.15366081555E+02  0.00000000000E+00 0.  1.
          2   -1    0    0  501    0  0.00000000000E+00 -0.00000000000E+00 -0.91388602491E+03  0.91388602491E+03  0.00000000000E+00 0. -1.
         25    2    1    2    0    0 -0.41288319244E+02  0.11637069450E+01 -0.60040484978E+03  0.61468332118E+03  0.12507406679E+03 0.  0.
          5    1    3    3  502    0  0.36679732292E+02 -0.20813338384E+02 -0.31960464488E+03  0.32240223207E+03  0.41800000000E+01 0.  1.
         -5    1    3    3    0  502 -0.77968051536E+02  0.21977045329E+02 -0.28080020490E+03  0.29228108911E+03  0.41800000000E+01 0.  1.
        -11    1    1    2    0    0 -0.43118066383E+01 -0.22559234520E+02 -0.15997418566E+02  0.27989786340E+02  0.00000000000E+00 0.  1.
         11    1    1    2    0    0  0.45600125882E+02  0.21395527575E+02 -0.28211767501E+03  0.28657899894E+03  0.00000000000E+00 0. -1.
</event>
<event>
 7    1  0.2440960E-009  0.1366296E+03  0.7561462E-02  0.1217937E+00
         -1   -1    0    0    0  501 -0.00000000000E+00  0.00000000000E+00  0.41927655529E+02  0.41927655529E+02  0.00000000000E+00 0.  1.
          1   -1    0    0  501    0  0.00000000000E+00 -0.00000000000E+00 -0.72406048653E+03  0.72406048653E+03  0.00000000000E+00 0. -1.
         25    2    1    2    0    0 -0.17703859042E+02  0.13224580885E+03 -0.41810645783E+03  0.45635705032E+03  0.12508543765E+03 0.  0.
          5    1    3    3  502    0 -0.13806313863E+02  0.11288697118E+03 -0.42086880646E+03  0.43598406762E+03  0.41800000000E+01 0.  1.
         -5    1    3    3    0  502 -0.38975451786E+01  0.19358837669E+02  0.27623486271E+01  0.20372982703E+02  0.41800000000E+01 0.  1.
        -11    1    1    2    0    0 -0.12654743051E+02 -0.28724652584E+02 -0.88886967067E+01  0.32622953834E+02  0.00000000000E+00 0.  1.
         11    1    1    2    0    0  0.30358602093E+02 -0.10352115626E+03 -0.25513767646E+03  0.27700813790E+03  0.00000000000E+00 0. -1.
</event>
<event>
 7    1  0.2563345E-009  0.1141636E+03  0.7561462E-02  0.1253048E+00
         -1   -1    0    0    0  501 -0.00000000000E+00  0.00000000000E+00  0.11222108892E+02  0.11222108892E+02  0.00000000000E+00 0.  1.
          1   -1    0    0  501    0  0.00000000000E+00 -0.00000000000E+00 -0.16076304886E+04  0.16076304886E+04  0.00000000000E+00 0. -1.
         25    2    1    2    0    0  0.56003303461E+01  0.43824382770E+02 -0.12763366935E+04  0.12832124973E+04  0.12508803957E+03 0.  0.
          5    1    3    3  502    0 -0.43618802705E+02 -0.22449987815E+02 -0.54505646315E+03  0.54727563651E+03  0.41800000000E+01 0.  1.
         -5    1    3    3    0  502  0.49219133051E+02  0.66274370585E+02 -0.73128023038E+03  0.73593686074E+03  0.41800000000E+01 0.  1.
        -11    1    1    2    0    0  0.20147074802E+02 -0.61821000953E+02 -0.16362317377E+03  0.17606897448E+03  0.00000000000E+00 0.  1.
         11    1    1    2    0    0 -0.25747405148E+02  0.17996618183E+02 -0.15644851243E+03  0.15957112577E+03  0.00000000000E+00 0. -1.
</event>
<event>
 7    1  0.2440960E-009  0.1147822E+03  0.7561462E-02  0.1251962E+00
         -1   -1    0    0    0  501 -0.00000000000E+00  0.00000000000E+00  0.65559918624E+02  0.65559918624E+02  0.00000000000E+00 0.  1.
          1   -1    0    0  501    0  0.00000000000E+00 -0.00000000000E+00 -0.29170146746E+03  0.29170146746E+03  0.00000000000E+00 0. -1.
         25    2    1    2    0    0 -0.42378496973E+02 -0.78488260465E+02 -0.14398835255E+03  0.21056105194E+03  0.12508783669E+03 0.  0.
          5    1    3    3  502    0 -0.14204827411E+02 -0.99892983149E+02 -0.14281739811E+03  0.17491331227E+03  0.41800000000E+01 0. -1.
         -5    1    3    3    0  502 -0.28173669561E+02  0.21404722683E+02 -0.11709544375E+01  0.35647739676E+02  0.41800000000E+01 0. -1.
        -11    1    1    2    0    0  0.18418893002E+02  0.59779462333E+02 -0.38127928212E+01  0.62668789084E+02  0.00000000000E+00 0.  1.
         11    1    1    2    0    0  0.23959603971E+02  0.18708798133E+02 -0.78340403467E+02  0.84031545061E+02  0.00000000000E+00 0. -1.
</event>
<event>
 7    1  0.2440960E-009  0.9777278E+02  0.7561462E-02  0.1285050E+00
          3   -1    0    0  501    0  0.00000000000E+00  0.00000000000E+00  0.40032231012E+02  0.40032231012E+02  0.00000000000E+00 0. -1.
         -3   -1    0    0    0  501 -0.00000000000E+00 -0.00000000000E+00 -0.29222197934E+03  0.29222197934E+03  0.00000000000E+00 0.  1.
         25    2    1    2    0    0 -0.56940566183E+01 -0.20521791567E+01 -0.14061298121E+03  0.18829171954E+03  0.12508048386E+03 0.  0.
          5    1    3    3  502    0 -0.55888086278E+02  0.52599291347E+01 -0.12153472345E+03  0.13393769613E+03  0.41800000000E+01 0.  1.
         -5    1    3    3    0  502  0.50194029660E+02 -0.73121082913E+01 -0.19078257760E+02  0.54354023405E+02  0.41800000000E+01 0.  1.
        -11    1    1    2    0    0 -0.39208687574E+02  0.14433345599E+02 -0.70032622839E+02  0.81548825302E+02  0.00000000000E+00 0.  1.
         11    1    1    2    0    0  0.44902744192E+02 -0.12381166442E+02 -0.41544144285E+02  0.62413665514E+02  0.00000000000E+00 0. -1.
</event>
<event>
 7    1  0.2440960E-009  0.1369820E+03  0.7561462E-02  0.1217449E+00
          2   -1    0    0  501    0  0.00000000000E+00  0.00000000000E+00  0.91974505326E+02  0.91974505326E+02  0.00000000000E+00 0. -1.
         -2   -1    0    0    0  501 -0.00000000000E+00 -0.00000000000E+00 -0.23530739198E+03  0.23530739198E+03  0.00000000000E+00 0.  1.
         25    2    1    2    0    0 -0.63127147495E+01 -0.84313854023E+02 -0.13272335058E+03  0.20102629610E+03  0.12508959823E+03 0.  0.
          5    1    3    3  502    0  0.27949515252E+02 -0.10626550155E+03 -0.93136696305E+02  0.14410221657E+03  0.41800000000E+01 0. -1.
         -5    1    3    3    0  502 -0.34262230002E+02  0.21951647522E+02 -0.39586654279E+02  0.56924079533E+02  0.41800000000E+01 0. -1.
        -11    1    1    2    0    0 -0.19418260440E+02  0.93714457989E+02 -0.19065768540E+02  0.97585716192E+02  0.00000000000E+00 0.  1.
         11    1    1    2    0    0  0.25730975190E+02 -0.94006039657E+01  0.84562324678E+01  0.28669885014E+02  0.00000000000E+00 0. -1.
</event>
<event>
 7    1  0.2440960E-009  0.7808400E+02  0.7561462E-02  0.1334578E+00
         -1   -1    0    0    0  501 -0.00000000000E+00  0.00000000000E+00  0.49491078719E+03  0.49491078719E+03  0.00000000000E+00 0.  1.
          1   -1    0    0  501    0  0.00000000000E+00 -0.00000000000E+00 -0.42981340660E+02  0.42981340660E+02  0.00000000000E+00 0. -1.
         25    2    1    2    0    0  0.95944548201E+01  0.39601675563E+02  0.82230059602E+02  0.15514485167E+03  0.12509115087E+03 0.  0.
          5    1    3    3  502    0  0.34960672097E+01  0.46591183168E+02 -0.21014063391E+02  0.51400623490E+02  0.41800000000E+01 0.  1.
         -5    1    3    3    0  502  0.60983876105E+01 -0.69895076053E+01  0.10324412299E+03  0.10374422818E+03  0.41800000000E+01 0.  1.
        -11    1    1    2    0    0 -0.22187958312E+02  0.24908083499E+02  0.12469059433E+03  0.12907541374E+03  0.00000000000E+00 0. -1.
         11    1    1    2    0    0  0.12593503492E+02 -0.64509759061E+02  0.24500879259E+03  0.25367186244E+03  0.00000000000E+00 0.  1.
</event>
<event>
 7    1  0.2440960E-009  0.2368289E+03  0.7561462E-02  0.1121924E+00
         -2   -1    0    0    0  501 -0.00000000000E+00  0.00000000000E+00  0.54056331799E+02  0.54056331799E+02  0.00000000000E+00 0.  1.
          2   -1    0    0  501    0  0.00000000000E+00 -0.00000000000E+00 -0.13049117532E+04  0.13049117532E+04  0.00000000000E+00 0. -1.
         25    2    1    2    0    0 -0.21445737192E+03  0.96911015362E+02 -0.49742775405E+03  0.56432847982E+03  0.12509417796E+03 0.  0.
          5    1    3    3  502    0 -0.60199463702E+02  0.15073051312E+02 -0.38173722027E+02  0.72978611656E+02  0.41800000000E+01 0. -1.
         -5    1    3    3    0  502 -0.15425790822E+03  0.81837964050E+02 -0.45925403203E+03  0.49134986816E+03  0.41800000000E+01 0. -1.
        -11    1    1    2    0    0  0.14544061270E+03 -0.52060542300E+02 -0.61015743303E+03  0.62940874236E+03  0.00000000000E+00 0. -1.
         11    1    1    2    0    0  0.69016759221E+02 -0.44850473062E+02 -0.14327023437E+03  0.16523086287E+03  0.00000000000E+00 0.  1.
</event>
<event>
 7    1  0.2440960E-009  0.9520056E+02  0.7561462E-02  0.1290725E+00
          1   -1    0    0  501    0  0.00000000000E+00  0.00000000000E+00  0.19339591133E+02  0.19339591133E+02  0.00000000000E+00 0. -1.
         -1   -1    0    0    0  501 -0.00000000000E+00 -0.00000000000E+00 -0.74046762177E+03  0.74046762177E+03  0.00000000000E+00 0.  1.
         25    2    1    2    0    0  0.43943659152E+02  0.36799164934E+02 -0.45467214798E+03  0.47503523665E+03  0.12508593122E+03 0.  0.
          5    1    3    3  502    0  0.61220540520E+02 -0.26300916342E+01 -0.40298873829E+03  0.40764232796E+03  0.41800000000E+01 0. -1.
         -5    1    3    3    0  502 -0.17276881368E+02  0.39429256568E+02 -0.51683409697E+02  0.67392908686E+02  0.41800000000E+01 0. -1.
        -11    1    1    2    0    0 -0.51490914991E+01 -0.45650046065E+02 -0.21430808797E+03  0.21917663292E+03  0.00000000000E+00 0.  1.
         11    1    1    2    0    0 -0.38794567653E+02  0.88508811312E+01 -0.52147794684E+02  0.65595343330E+02  0.00000000000E+00 0. -1.
</event>
<event>
 7    1  0.2440960E-009  0.1085961E+03  0.7561462E-02  0.1263192E+00
         -1   -1    0    0    0  501 -0.00000000000E+00  0.00000000000E+00  0.67898252620E+02  0.67898252620E+02  0.00000000000E+00 0.  1.
          1   -1    0    0  501    0  0.00000000000E+00 -0.00000000000E+00 -0.19709571851E+03  0.19709571851E+03  0.00000000000E+00 0. -1.
         25    2    1    2    0    0  0.27518431906E+02  0.19766898211E+02 -0.95543392710E+02  0.16101003045E+03  0.12509074968E+03 0.  0.
          5    1    3    3  502    0 -0.83422755973E+01  0.64155067541E+02 -0.77446390954E+02  0.10099941646E+03  0.41800000000E+01 0. -1.
         -5    1    3    3    0  502  0.35860707503E+02 -0.44388169330E+02 -0.18097001755E+02  0.60010613992E+02  0.41800000000E+01 0. -1.
        -11    1    1    2    0    0 -0.13158989628E+02 -0.55287550752E+02 -0.32890091633E+02  0.65663006357E+02  0.00000000000E+00 0.  1.
         11    1    1    2    0    0 -0.14359442278E+02  0.35520652542E+02 -0.76398154769E+00  0.38320934322E+02  0.00000000000E+00 0. -1.
</event>
<event>
 7    1  0.2440960E-009  0.1213823E+03  0.7561462E-02  0.1240834E+00
          1   -1    0    0  501    0  0.00000000000E+00  0.00000000000E+00  0.52459110959E+02  0.52459110959E+02  0.00000000000E+00 0. -1.
         -1   -1    0    0    0  501 -0.00000000000E+00 -0.00000000000E+00 -0.29445200350E+03  0.29445200350E+03  0.00000000000E+00 0.  1.
         25    2    1    2    0    0 -0.46534325001E+02 -0.27943450487E+02 -0.16260790665E+03  0.21221765207E+03  0.12509484688E+03 0.  0.
          5    1    3    3  502    0 -0.46127996284E+02  0.43458675525E+02 -0.91302544554E+02  0.11122084140E+03  0.41800000000E+01 0. -1.
         -5    1    3    3    0  502 -0.40632871655E+00 -0.71402126012E+02 -0.71305362095E+02  0.10099681067E+03  0.41800000000E+01 0. -1.
        -11    1    1    2    0    0  0.10142610590E+02 -0.34221141951E+02 -0.35521279462E+02  0.50355937094E+02  0.00000000000E+00 0.  1.
         11    1    1    2    0    0  0.36391714411E+02  0.62164592438E+02 -0.43863706426E+02  0.84337525291E+02  0.00000000000E+00 0. -1.
</event>
<event>
 7    1  0.2440960E-009  0.1230917E+03  0.7561462E-02  0.1238082E+00
          1   -1    0    0  501    0  0.00000000000E+00  0.00000000000E+00  0.32669989700E+03  0.32669989700E+03  0.00000000000E+00 0. -1.
         -1   -1    0    0    0  501 -0.00000000000E+00 -0.00000000000E+00 -0.13241605310E+03  0.13241605310E+03  0.00000000000E+00 0.  1.
         25    2    1    2    0    0  0.77141532833E+01  0.85615464031E+02  0.27211334708E+03  0.31158577820E+03  0.12510198909E+03 0.  0.
          5    1    3    3  502    0 -0.16811646643E+01  0.11101925560E+03  0.15137680310E+03  0.18777782176E+03  0.41800000000E+01 0. -1.
         -5    1    3    3    0  502  0.93953179476E+01 -0.25403791566E+02  0.12073654398E+03  0.12380795644E+03  0.41800000000E+01 0. -1.
        -11    1    1    2    0    0  0.28780892957E+02 -0.36872775442E+02  0.23684230721E+01  0.46835358396E+02  0.00000000000E+00 0.  1.
         11    1    1    2    0    0 -0.36495046241E+02 -0.48742688589E+02 -0.80197926253E+02  0.10069481350E+03  0.00000000000E+00 0. -1.
</event>
<event>
 7    1  0.2440960E-009  0.2490917E+03  0.7561462E-02  0.1113880E+00
         -1   -1    0    0    0  501 -0.00000000000E+00  0.00000000000E+00  0.19329724190E+04  0.19329724190E+04  0.00000000000E+00 0.  1.
          1   -1    0    0  501    0  0.00000000000E+00 -0.00000000000E+00 -0.65178140256E+02  0.65178140256E+02  0.00000000000E+00 0. -1.
         25    2    1    2    0    0 -0.21945825496E+03 -0.10866902456E+03  0.16015615484E+04  0.16249978124E+04  0.12509042569E+03 0.  0.
          5    1    3    3  502    0 -0.16583076271E+03 -0.10748290134E+03  0.90364033240E+03  0.92500580467E+03  0.41800000000E+01 0. -1.
         -5    1    3    3    0  502 -0.53627492253E+02 -0.11861232133E+01  0.69792121596E+03  0.69999200774E+03  0.41800000000E+01 0. -1.
        -11    1    1    2    0    0  0.16898790026E+03  0.69029258385E+02  0.24505756903E+03  0.30557349539E+03  0.00000000000E+00 0.  1.
         11    1    1    2    0    0  0.50470354702E+02  0.39639766170E+02  0.21175161325E+02  0.67579251423E+02  0.00000000000E+00 0. -1.
</event>
<event>
 7    1  0.2440960E-009  0.1826669E+03  0.7561462E-02  0.1165247E+00
          2   -1    0    0  501    0  0.00000000000E+00  0.00000000000E+00  0.97974289160E+02  0.97974289160E+02  0.00000000000E+00 0.  1.
         -2   -1    0    0    0  501 -0.00000000000E+00 -0.00000000000E+00 -0.35869484476E+03  0.35869484476E+03  0.00000000000E+00 0. -1.
         25    2    1    2    0    0  0.15007838876E+03 -0.25010868883E+02 -0.12370936188E+03  0.23259377727E+03  0.12508714033E+03 0.  0.
          5    1    3    3  502    0  0.79848835241E+02  0.49541381356E+02 -0.51829247337E+02  0.10739612766E+03  0.41800000000E+01 0.  1.
         -5    1    3    3    0  502  0.70229553519E+02 -0.74552250239E+02 -0.71880114541E+02  0.12519764962E+03  0.41800000000E+01 0.  1.
        -11    1    1    2    0    0 -0.23453969818E+02  0.34575215864E+02 -0.70418824615E+01  0.42368884347E+02  0.00000000000E+00 0. -1.
         11    1    1    2    0    0 -0.12662441894E+03 -0.95643469810E+01 -0.12996931126E+03  0.18170647230E+03  0.00000000000E+00 0.  1.
</event>
<event>
 7    1  0.2440960E-009  0.8835023E+02  0.7561462E-02  0.1306897E+00
          2   -1    0    0  501    0  0.00000000000E+00  0.00000000000E+00  0.17577520653E+03  0.17577520653E+03  0.00000000000E+00 0. -1.
         -2   -1    0    0    0  501 -0.00000000000E+00 -0.00000000000E+00 -0.92256763243E+02  0.92256763243E+02  0.00000000000E+00 0.  1.
         25    2    1    2    0    0 -0.37794627535E+02 -0.41292722815E+02  0.90261609997E+01  0.13734135772E+03  0.12509058370E+03 0.  0.
          5    1    3    3  502    0 -0.59258273432E+02  0.58698090265E+01 -0.35016841408E+02  0.69207291598E+02  0.41800000000E+01 0. -1.
         -5    1    3    3    0  502  0.21463645897E+02 -0.47162531842E+02  0.44043002407E+02  0.68134066119E+02  0.41800000000E+01 0. -1.
        -11    1    1    2    0    0  0.24733391694E+02  0.34323773706E+01  0.85568290753E+02  0.89137277620E+02  0.00000000000E+00 0. -1.
         11    1    1    2    0    0  0.13061235841E+02  0.37860345445E+02 -0.11076008469E+02  0.41553334433E+02  0.00000000000E+00 0.  1.
</event>
<event>
 7    1  0.2440960E-009  0.4409746E+03  0.7561462E-02  0.1030448E+00
         -2   -1    0    0    0  501 -0.00000000000E+00  0.00000000000E+00  0.28420781562E+03  0.28420781562E+03  0.00000000000E+00 0. -1.
          2   -1    0    0  501    0  0.00000000000E+00 -0.00000000000E+00 -0.74114125692E+03  0.74114125692E+03  0.00000000000E+00 0.  1.
         25    2    1    2    0    0 -0.88126913126E+02  0.42366199808E+03 -0.11071097963E+03  0.46385270807E+03  0.12508625961E+03 0.  0.
          5    1    3    3  502    0 -0.15490564821E+01 -0.70975342499E+01 -0.10031275771E+02  0.13071857634E+02  0.41800000000E+01 0.  1.
         -5    1    3    3    0  502 -0.86577856644E+02  0.43075953233E+03 -0.10067970386E+03  0.45078085044E+03  0.41800000000E+01 0.  1.
        -11    1    1    2    0    0  0.30218321865E+02 -0.77158148467E+02 -0.27940876682E+02  0.87448381580E+02  0.00000000000E+00 0. -1.
         11    1    1    2    0    0  0.57908591260E+02 -0.34650384961E+03 -0.31828158499E+03  0.47404798289E+03  0.00000000000E+00 0.  1.
</event>
<event>
 7    1  0.2440960E-009  0.1436291E+03  0.7561462E-02  0.1208528E+00
         -2   -1    0    0    0  501 -0.00000000000E+00  0.00000000000E+00  0.16626016897E+03  0.16626016897E+03  0.00000000000E+00 0.  1.
          2   -1    0    0  501    0  0.00000000000E+00 -0.00000000000E+00 -0.18719182124E+03  0.18719182124E+03  0.00000000000E+00 0. -1.
         25    2    1    2    0    0 -0.13917788646E+01  0.13268916119E+03 -0.46916621435E+02  0.18829997553E+03  0.12508941152E+03 0.  0.
          5    1    3    3  502    0  0.33651037568E+02  0.53151674478E+02  0.32111325834E+02  0.70753815982E+02  0.41800000000E+01 0. -1.
         -5    1    3    3    0  502 -0.35042816433E+02  0.79537486710E+02 -0.79027947269E+02  0.11754615955E+03  0.41800000000E+01 0. -1.
        -11    1    1    2    0    0  0.16101662656E+02 -0.10078942227E+03  0.58194936377E+02  0.11749222017E+03  0.00000000000E+00 0.  1.
         11    1    1    2    0    0 -0.14709883792E+02 -0.31899738923E+02 -0.32209967214E+02  0.47659794507E+02  0.00000000000E+00 0. -1.
</event>
<event>
 7    1  0.2440960E-009  0.1076951E+03  0.7561462E-02  0.1264899E+00
         -4   -1    0    0    0  501 -0.00000000000E+00  0.00000000000E+00  0.24798007446E+03  0.24798007446E+03  0.00000000000E+00 0.  1.
          4   -1    0    0  501    0  0.00000000000E+00 -0.00000000000E+00 -0.62021309844E+02  0.62021309844E+02  0.00000000000E+00 0. -1.
         25    2    1    2    0    0 -0.21053650248E+02 -0.47999144853E+02  0.12998785061E+03  0.18786089378E+03  0.12509076708E+03 0.  0.
          5    1    3    3  502    0 -0.21902361338E+02 -0.90227835452E+02  0.83944944525E+02  0.12523977736E+03  0.41800000000E+01 0.  1.
         -5    1    3    3    0  502  0.84871108971E+00  0.42228690599E+02  0.46042906086E+02  0.62621116415E+02  0.41800000000E+01 0.  1.
        -11    1    1    2    0    0  0.20451732635E+02 -0.94659550371E+01 -0.17735531726E+02  0.28677983858E+02  0.00000000000E+00 0. -1.
         11    1    1    2    0    0  0.60191761314E+00  0.57465099890E+02  0.73706445728E+02  0.93462506664E+02  0.00000000000E+00 0.  1.
</event>
<event>
 7    1  0.2440960E-009  0.1642311E+03  0.7561462E-02  0.1184001E+00
          2   -1    0    0  501    0  0.00000000000E+00  0.00000000000E+00  0.66451549236E+03  0.66451549236E+03  0.00000000000E+00 0. -1.
         -2   -1    0    0    0  501 -0.00000000000E+00 -0.00000000000E+00 -0.54266290966E+02  0.54266290966E+02  0.00000000000E+00 0.  1.
         25    2    1    2    0    0 -0.14901460653E+03 -0.35012007986E+02  0.36810372615E+03  0.41782663163E+03  0.12509015643E+03 0.  0.
          5    1    3    3  502    0 -0.15865949818E+03 -0.24636419652E+02  0.36959072641E+03  0.40298209264E+03  0.41800000000E+01 0.  1.
         -5    1    3    3    0  502  0.96448916480E+01 -0.10375588334E+02 -0.14870002673E+01  0.14844538995E+02  0.41800000000E+01 0.  1.
        -11    1    1    2    0    0  0.10973016275E+03  0.26313854978E+02  0.92241054600E+02  0.14574477601E+03  0.00000000000E+00 0.  1.
         11    1    1    2    0    0  0.39284443782E+02  0.86981530089E+01  0.14990442065E+03  0.15521037568E+03  0.00000000000E+00 0. -1.
</event>
<event>
 7    1  0.2440960E-009  0.8802580E+02  0.7561462E-02  0.1307704E+00
          2   -1    0    0  501    0  0.00000000000E+00  0.00000000000E+00  0.18812182772E+03  0.18812182772E+03  0.00000000000E+00 0. -1.
         -2   -1    0    0    0  501 -0.00000000000E+00 -0.00000000000E+00 -0.74132680050E+02  0.74132680050E+02  0.00000000000E+00 0.  1.
         25    2    1    2    0    0  0.93016633267E+01  0.44253820537E+02  0.66680464342E+02  0.14879153050E+03  0.12509082161E+03 0.  0.
          5    1    3    3  502    0  0.85834708954E+01 -0.21130344986E+02  0.78815676408E+02  0.82155649224E+02  0.41800000000E+01 0. -1.
         -5    1    3    3    0  502  0.71819243130E+00  0.65384165523E+02 -0.12135212066E+02  0.66635881276E+02  0.41800000000E+01 0. -1.
        -11    1    1    2    0    0 -0.30890908134E+02 -0.55110493800E+02  0.59156063231E+02  0.86549722987E+02  0.00000000000E+00 0. -1.
         11    1    1    2    0    0  0.21589244807E+02  0.10856673263E+02 -0.11847379901E+02  0.26913254285E+02  0.00000000000E+00 0.  1.
</event>
<event>
 7    1  0.2440960E-009  0.1625062E+03  0.7561462E-02  0.1185896E+00
         -1   -1    0    0    0  501 -0.00000000000E+00  0.00000000000E+00  0.36256782848E+03  0.36256782848E+03  0.00000000000E+00 0.  1.
          1   -1    0    0  501    0  0.00000000000E+00 -0.00000000000E+00 -0.95601040155E+02  0.95601040155E+02  0.00000000000E+00 0. -1.
         25    2    1    2    0    0  0.77545906499E+02  0.12684066271E+03  0.17826213259E+03  0.26368165433E+03  0.12509478640E+03 0.  0.
          5    1    3    3  502    0  0.95276959444E+01  0.73907615695E+02  0.10959017084E+02  0.75436629717E+02  0.41800000000E+01 0.  1.
         -5    1    3    3    0  502  0.68018210555E+02  0.52933047013E+02  0.16730311551E+03  0.18824502462E+03  0.41800000000E+01 0.  1.
        -11    1    1    2    0    0 -0.67620308650E+01 -0.77520530221E+02  0.11396232148E+02  0.78644972975E+02  0.00000000000E+00 0.  1.
         11    1    1    2    0    0 -0.70783875634E+02 -0.49320132487E+02  0.77308423579E+02  0.11584224132E+03  0.00000000000E+00 0. -1.
</event>
<event>
 7    1  0.2440960E-009  0.2749425E+03  0.7561462E-02  0.1098484E+00
          2   -1    0    0  501    0  0.00000000000E+00  0.00000000000E+00  0.23066440096E+04  0.23066440096E+04  0.00000000000E+00 0. -1.
         -2   -1    0    0    0  501 -0.00000000000E+00 -0.00000000000E+00 -0.33270484692E+02  0.33270484692E+02  0.00000000000E+00 0.  1.
         25    2    1    2    0    0 -0.23963987318E+03  0.86597448858E+02  0.11795994954E+04  0.12132717296E+04  0.12508770173E+03 0.  0.
          5    1    3    3  502    0 -0.12819272848E+03 -0.19173992000E+02  0.57445506948E+03  0.58891180736E+03  0.41800000000E+01 0.  1.
         -5    1    3    3    0  502 -0.11144714470E+03  0.10577144086E+03  0.60514442597E+03  0.62435992220E+03  0.41800000000E+01 0.  1.
        -11    1    1    2    0    0  0.61426068531E+02 -0.60788621148E+02  0.27319227417E+03  0.28653522824E+03  0.00000000000E+00 0. -1.
         11    1    1    2    0    0  0.17821380465E+03 -0.25808827710E+02  0.82058175527E+03  0.84010753647E+03  0.00000000000E+00 0.  1.
</event>
<event>
 7    1  0.2440960E-009  0.1016875E+03  0.7561462E-02  0.1276787E+00
         -3   -1    0    0    0  501 -0.00000000000E+00  0.00000000000E+00  0.33612515969E+03  0.33612515969E+03  0.00000000000E+00 0.  1.
          3   -1    0    0  501    0  0.00000000000E+00 -0.00000000000E+00 -0.71394736314E+02  0.71394736314E+02  0.00000000000E+00 0. -1.
         25    2    1    2    0    0  0.41405542825E+02  0.28545705422E+02  0.12507905353E+02  0.13540383117E+03  0.12509385886E+03 0.  0.
          5    1    3    3  502    0 -0.29781343479E+02 -0.22604990553E+02 -0.19017754254E+02  0.42155206015E+02  0.41800000000E+01 0. -1.
         -5    1    3    3    0  502  0.71186886304E+02  0.51150695974E+02  0.31525659607E+02  0.93248625158E+02  0.41800000000E+01 0. -1.
        -11    1    1    2    0    0 -0.44840151353E+02 -0.43606973646E+02  0.24846621848E+03  0.25621801078E+03  0.00000000000E+00 0.  1.
         11    1    1    2    0    0  0.34346085277E+01  0.15061268224E+02  0.37562995426E+01  0.15898054048E+02  0.00000000000E+00 0. -1.
</event>
<event>
 7    1  0.2440960E-009  0.1304285E+03  0.7561462E-02  0.1226821E+00
         -4   -1    0    0    0  501 -0.00000000000E+00  0.00000000000E+00  0.27429289077E+03  0.27429289077E+03  0.00000000000E+00 0. -1.
          4   -1    0    0  501    0  0.00000000000E+00 -0.00000000000E+00 -0.83790304092E+02  0.83790304092E+02  0.00000000000E+00 0.  1.
         25    2    1    2    0    0 -0.65612733955E+02 -0.78841254524E+02  0.13441323940E+03  0.21032900574E+03  0.12510154858E+03 0.  0.
          5    1    3    3  502    0  0.22211742963E+02  0.16888346394E+02  0.42972597132E+02  0.51407142244E+02  0.41800000000E+01 0. -1.
         -5    1    3    3    0  502 -0.87824476918E+02 -0.95729600918E+02  0.91440642266E+02  0.15892186349E+03  0.41800000000E+01 0. -1.
        -11    1    1    2    0    0  0.31942672822E+02  0.41759521682E+02 -0.20341649323E+02  0.56373528320E+02  0.00000000000E+00 0.  1.
         11    1    1    2    0    0  0.33670061133E+02  0.37081732843E+02  0.76430996599E+02  0.91380660802E+02  0.00000000000E+00 0. -1.
</event>
<event>
 7    1  0.2440960E-009  0.2602382E+03  0.7561462E-02  0.1107000E+00
          2   -1    0    0  501    0  0.00000000000E+00  0.00000000000E+00  0.37874414893E+03  0.37874414893E+03  0.00000000000E+00 0. -1.
         -2   -1    0    0    0  501 -0.00000000000E+00 -0.00000000000E+00 -0.22919852236E+03  0.22919852236E+03  0.00000000000E+00 0.  1.
         25    2    1    2    0    0  0.23830271603E+03 -0.54243085600E+02  0.20286928523E+03  0.34137645751E+03  0.12510572348E+03 0.  0.
          5    1    3    3  502    0  0.57844936843E+02 -0.68649533844E+02  0.42160133307E+02  0.99266028710E+02  0.41800000000E+01 0. -1.
         -5    1    3    3    0  502  0.18045777919E+03  0.14406448244E+02  0.16070915193E+03  0.24211042880E+03  0.41800000000E+01 0. -1.
        -11    1    1    2    0    0 -0.20154522151E+03  0.64062743873E+02 -0.73008175280E+02  0.22372908869E+03  0.00000000000E+00 0.  1.
         11    1    1    2    0    0 -0.36757494521E+02 -0.98196582732E+01  0.19684516611E+02  0.42837125093E+02  0.00000000000E+00 0. -1.
</event>
<event>
 7    1  0.2440960E-009  0.1320904E+03  0.7561462E-02  0.1224387E+00
         -1   -1    0    0    0  501 -0.00000000000E+00  0.00000000000E+00  0.42340596516E+02  0.42340596516E+02  0.00000000000E+00 0.  1.
          1   -1    0    0  501    0  0.00000000000E+00 -0.00000000000E+00 -0.58016942301E+03  0.58016942301E+03  0.00000000000E+00 0. -1.
         25    2    1    2    0    0  0.88626546432E+02  0.71937295010E+02 -0.34255807008E+03  0.38213153407E+03  0.12509531890E+03 0.  0.
          5    1    3    3  502    0  0.73357589905E+02  0.95981113356E+02 -0.17856406355E+03  0.21563002414E+03  0.41800000000E+01 0.  1.
         -5    1    3    3    0  502  0.15268956527E+02 -0.24043818345E+02 -0.16399400653E+03  0.16650150994E+03  0.41800000000E+01 0.  1.
        -11    1    1    2    0    0 -0.64452447043E+01 -0.86684967783E+01  0.71363047492E+01  0.12946461338E+02  0.00000000000E+00 0.  1.
         11    1    1    2    0    0 -0.82181301727E+02 -0.63268798232E+02 -0.20240706116E+03  0.22743202411E+03  0.00000000000E+00 0. -1.
</event>
<event>
 7    1  0.2440960E-009  0.1060969E+03  0.7561462E-02  0.1267973E+00
         -2   -1    0    0    0  501 -0.00000000000E+00  0.00000000000E+00  0.87252468156E+03  0.87252468156E+03  0.00000000000E+00 0.  1.
          2   -1    0    0  501    0  0.00000000000E+00 -0.00000000000E+00 -0.34565886847E+02  0.34565886847E+02  0.00000000000E+00 0. -1.
         25    2    1    2    0    0 -0.72122336418E+02  0.46016503210E+02  0.71732618863E+03  0.73315956524E+03  0.12508771811E+03 0.  0.
          5    1    3    3  502    0 -0.34843420492E+02  0.46289954057E+02  0.10758432595E+03  0.12226480846E+03  0.41800000000E+01 0. -1.
         -5    1    3    3    0  502 -0.37278915926E+02 -0.27345084660E+00  0.60974186268E+03  0.61089475677E+03  0.41800000000E+01 0. -1.
        -11    1    1    2    0    0  0.53017659992E+02  0.12976100074E+02  0.25192887746E+02  0.60115996516E+02  0.00000000000E+00 0.  1.
         11    1    1    2    0    0  0.19104676426E+02 -0.58992603284E+02  0.95439718333E+02  0.11381500665E+03  0.00000000000E+00 0. -1.
</event>
<event>
 7    1  0.2440960E-009  0.1015950E+03  0.7561462E-02  0.1276977E+00
         -2   -1    0    0    0  501 -0.00000000000E+00  0.00000000000E+00  0.65447447079E+02  0.65447447079E+02  0.00000000000E+00 0.  1.
          2   -1    0    0  501    0  0.00000000000E+00 -0.00000000000E+00 -0.29666991007E+03  0.29666991007E+03  0.00000000000E+00 0. -1.
         25    2    1    2    0    0  0.25669880444E+02  0.80563685049E+02 -0.18813360153E+03  0.24122790193E+03  0.12508876263E+03 0.  0.
          5    1    3    3  502    0  0.39133838718E+02  0.24073319219E+02 -0.19757040705E+01  0.46177460276E+02  0.41800000000E+01 0. -1.
         -5    1    3    3    0  502 -0.13463958273E+02  0.56490365830E+02 -0.18615789745E+03  0.19505044165E+03  0.41800000000E+01 0. -1.
        -11    1    1    2    0    0 -0.38104131747E+02 -0.35480043197E+02  0.68008428720E+01  0.52507235551E+02  0.00000000000E+00 0.  1.
         11    1    1    2    0    0  0.12434251302E+02 -0.45083641852E+02 -0.49889704342E+02  0.68382219673E+02  0.00000000000E+00 0. -1.
</event>
<event>
 7    1  0.2440960E-009  0.1171870E+03  0.7561462E-02  0.1247811E+00
         -3   -1    0    0    0  501 -0.00000000000E+00  0.00000000000E+00  0.16750353398E+02  0.16750353398E+02  0.00000000000E+00 0.  1.
          3   -1    0    0  501    0  0.00000000000E+00 -0.00000000000E+00 -0.93041152886E+03  0.93041152886E+03  0.00000000000E+00 0. -1.
         25    2    1    2    0    0  0.56961256359E+02  0.26946710789E+02 -0.56403842488E+03  0.58116891171E+03  0.12508896534E+03 0.  0.
          5    1    3    3  502    0  0.55118286270E+01  0.66885140611E+02 -0.37993102481E+03  0.38583553272E+03  0.41800000000E+01 0. -1.
         -5    1    3    3    0  502  0.51449427732E+02 -0.39938429822E+02 -0.18410740006E+03  0.19533337899E+03  0.41800000000E+01 0. -1.
        -11    1    1    2    0    0 -0.19468694342E+02  0.28752839723E+02 -0.66527313558E+02  0.75044248952E+02  0.00000000000E+00 0.  1.
         11    1    1    2    0    0 -0.37492562018E+02 -0.55699550512E+02 -0.28309543703E+03  0.29094872160E+03  0.00000000000E+00 0. -1.
</event>
<event>
 7    1  0.2440960E-009  0.2091397E+03  0.7561462E-02  0.1142249E+00
         -2   -1    0    0    0  501 -0.00000000000E+00  0.00000000000E+00  0.36354475228E+03  0.36354475228E+03  0.00000000000E+00 0.  1.
          2   -1    0    0  501    0  0.00000000000E+00 -0.00000000000E+00 -0.27505197065E+03  0.27505197065E+03  0.00000000000E+00 0. -1.
         25    2    1    2    0    0  0.88172332341E+02  0.18726473886E+03  0.26130583196E+03  0.35605212672E+03  0.12509970627E+03 0.  0.
          5    1    3    3  502    0  0.62517713150E+02  0.13347491077E+03  0.85663034245E+02  0.17052754645E+03  0.41800000000E+01 0. -1.
         -5    1    3    3    0  502  0.25654619191E+02  0.53789828095E+02  0.17564279772E+03  0.18552458027E+03  0.41800000000E+01 0. -1.
        -11    1    1    2    0    0 -0.60137771500E+02 -0.16393204565E+03 -0.17337347699E+03  0.24606631154E+03  0.00000000000E+00 0. -1.
         11    1    1    2    0    0 -0.28034560840E+02 -0.23332693213E+02  0.56042665329E+00  0.36478284665E+02  0.00000000000E+00 0.  1.
</event>
<event>
 7    1  0.2440960E-009  0.9477167E+02  0.7561462E-02  0.1291691E+00
         -1   -1    0    0    0  501 -0.00000000000E+00  0.00000000000E+00  0.10867081034E+03  0.10867081034E+03  0.00000000000E+00 0.  1.
          1   -1    0    0  501    0  0.00000000000E+00 -0.00000000000E+00 -0.11573939837E+03  0.11573939837E+03  0.00000000000E+00 0. -1.
         25    2    1    2    0    0 -0.12405291214E+02 -0.27423181573E+02 -0.24949417630E+01  0.12868358998E+03  0.12508924597E+03 0.  0.
          5    1    3    3  502    0 -0.44769724559E+02  0.13385516350E+02 -0.42165444676E+02  0.63078501962E+02  0.41800000000E+01 0.  1.
         -5    1    3    3    0  502  0.32364433346E+02 -0.40808697923E+02  0.39670502913E+02  0.65605088014E+02  0.41800000000E+01 0.  1.
        -11    1    1    2    0    0  0.39386641200E+02  0.43728371694E+02  0.12071704401E+02  0.60076651398E+02  0.00000000000E+00 0.  1.
         11    1    1    2    0    0 -0.26981349986E+02 -0.16305190121E+02 -0.16645350675E+02  0.35649967336E+02  0.00000000000E+00 0. -1.
</event>
<event>
 7    1  0.2440960E-009  0.2491989E+03  0.7561462E-02  0.1113812E+00
         -1   -1    0    0    0  501 -0.00000000000E+00  0.00000000000E+00  0.96050443026E+02  0.96050443026E+02  0.00000000000E+00 0.  1.
          1   -1    0    0  501    0  0.00000000000E+00 -0.00000000000E+00 -0.15587429704E+04  0.15587429704E+04  0.00000000000E+00 0. -1.
         25    2    1    2    0    0 -0.16676195903E+03  0.16684257816E+03 -0.13503030437E+04  0.13764486648E+04  0.12508645052E+03 0.  0.
          5    1    3    3  502    0 -0.12883204191E+03  0.54166417236E+02 -0.89525926498E+03  0.90611164859E+03  0.41800000000E+01 0.  1.
         -5    1    3    3    0  502 -0.37929917125E+02  0.11267616093E+03 -0.45504377875E+03  0.47033701623E+03  0.41800000000E+01 0.  1.
        -11    1    1    2    0    0  0.46281153187E+02 -0.22082962317E+02 -0.67433047200E+02  0.84716103662E+02  0.00000000000E+00 0. -1.
         11    1    1    2    0    0  0.12048080585E+03 -0.14475961585E+03 -0.44956436418E+02  0.19362864492E+03  0.00000000000E+00 0.  1.
</event>
<event>
 7    1  0.2440960E-009  0.2046193E+03  0.7561462E-02  0.1145899E+00
          2   -1    0    0  501    0  0.00000000000E+00  0.00000000000E+00  0.43787918689E+03  0.43787918689E+03  0.00000000000E+00 0.  1.
         -2   -1    0    0    0  501 -0.00000000000E+00 -0.00000000000E+00 -0.12510231665E+03  0.12510231665E+03  0.00000000000E+00 0. -1.
         25    2    1    2    0    0 -0.18892694913E+03  0.25245382458E+02  0.25570620437E+03  0.34258408215E+03  0.12508984349E+03 0.  0.
          5    1    3    3  502    0 -0.54117163327E+02 -0.28011775861E+02  0.15341509393E+03  0.16512719461E+03  0.41800000000E+01 0.  1.
         -5    1    3    3    0  502 -0.13480978580E+03  0.53257158319E+02  0.10229111044E+03  0.17745688754E+03  0.41800000000E+01 0.  1.
        -11    1    1    2    0    0  0.18817641588E+03 -0.36656970586E+02  0.34079573244E+02  0.19471906506E+03  0.00000000000E+00 0. -1.
         11    1    1    2    0    0  0.75053324644E+00  0.11411588128E+02  0.22991092620E+02  0.25678356326E+02  0.00000000000E+00 0.  1.
</event>
<event>
 7    1  0.2440960E-009  0.1526397E+03  0.7561462E-02  0.1197266E+00
         -2   -1    0    0    0  501 -0.00000000000E+00  0.00000000000E+00  0.14137726746E+02  0.14137726746E+02  0.00000000000E+00 0.  1.
          2   -1    0    0  501    0  0.00000000000E+00 -0.00000000000E+00 -0.22439268621E+04  0.22439268621E+04  0.00000000000E+00 0. -1.
         25    2    1    2    0    0 -0.10523988427E+03 -0.30052900594E+02 -0.17365942143E+04  0.17445300515E+04  0.12508807004E+03 0.  0.
          5    1    3    3  502    0 -0.12899353112E+03 -0.56695260785E+01 -0.14850752496E+04  0.14906835493E+04  0.41800000000E+01 0.  1.
         -5    1    3    3    0  502  0.23753646848E+02 -0.24383374515E+02 -0.25151896471E+03  0.25384650224E+03  0.41800000000E+01 0.  1.
        -11    1    1    2    0    0  0.40421534446E+02  0.58421949943E+02 -0.28160797091E+03  0.29043084196E+03  0.00000000000E+00 0.  1.
         11    1    1    2    0    0  0.64818349823E+02 -0.28369049350E+02 -0.21158695008E+03  0.22310369535E+03  0.00000000000E+00 0. -1.
</event>
<event>
 7    1  0.2662586E-009  0.1443042E+03  0.7561462E-02  0.1207652E+00
          1   -1    0    0  501    0  0.00000000000E+00  0.00000000000E+00  0.47638079069E+03  0.47638079069E+03  0.00000000000E+00 0. -1.
         -1   -1    0    0    0  501 -0.00000000000E+00 -0.00000000000E+00 -0.46519788324E+02  0.46519788324E+02  0.00000000000E+00 0.  1.
         25    2    1    2    0    0 -0.78016218008E+02  0.64956913099E+02  0.22183968023E+03  0.27416467263E+03  0.12508994029E+03 0.  0.
          5    1    3    3  502    0  0.29034110428E+02  0.50528036282E+01  0.86390702943E+02  0.91374702997E+02  0.41800000000E+01 0. -1.
         -5    1    3    3    0  502 -0.10705032844E+03  0.59904109471E+02  0.13544897729E+03  0.18278996963E+03  0.41800000000E+01 0. -1.
        -11    1    1    2    0    0  0.24054569641E+02 -0.77120331711E+02  0.11572164660E+03  0.14112996626E+03  0.00000000000E+00 0.  1.
         11    1    1    2    0    0  0.53961648367E+02  0.12163418612E+02  0.92299675536E+02  0.10760594013E+03  0.00000000000E+00 0. -1.
</event>
<event>
 7    1  0.2440960E-009  0.1288247E+03  0.7561462E-02  0.1229210E+00
         -2   -1    0    0    0  501 -0.00000000000E+00  0.00000000000E+00  0.27871488554E+02  0.27871488554E+02  0.00000000000E+00 0. -1.
          2   -1    0    0  501    0  0.00000000000E+00 -0.00000000000E+00 -0.85019718245E+03  0.85019718245E+03  0.00000000000E+00 0.  1.
         25    2    1    2    0    0  0.48585073864E+02  0.97564215178E+02 -0.48180940102E+03  0.50957902081E+03  0.12510473232E+03 0.  0.
          5    1    3    3  502    0 -0.14313605694E+02  0.23666368288E+02 -0.31733005038E+03  0.31856052732E+03  0.41800000000E+01 0. -1.
         -5    1    3    3    0  502  0.62898679559E+02  0.73897846890E+02 -0.16447935065E+03  0.19101849349E+03  0.41800000000E+01 0. -1.
        -11    1    1    2    0    0  0.21306653732E+01  0.11801577502E+02 -0.70721504384E+01  0.13922366117E+02  0.00000000000E+00 0. -1.
         11    1    1    2    0    0 -0.50715739238E+02 -0.10936579268E+03 -0.33344414243E+03  0.35456728408E+03  0.00000000000E+00 0.  1.
</event>
<event>
 7    1  0.2440960E-009  0.9313341E+02  0.7561462E-02  0.1295436E+00
          2   -1    0    0  501    0  0.00000000000E+00  0.00000000000E+00  0.41176113267E+03  0.41176113267E+03  0.00000000000E+00 0. -1.
         -2   -1    0    0    0  501 -0.00000000000E+00 -0.00000000000E+00 -0.30515274079E+02  0.30515274079E+02  0.00000000000E+00 0.  1.
         25    2    1    2    0    0 -0.15821903041E+02 -0.16428608312E+02  0.19505432883E+03  0.23283690154E+03  0.12508636912E+03 0.  0.
          5    1    3    3  502    0  0.23750872611E+02 -0.54361076597E+02  0.49939000962E+02  0.77656981758E+02  0.41800000000E+01 0. -1.
         -5    1    3    3    0  502 -0.39572775652E+02  0.37932468285E+02  0.14511532786E+03  0.15517991978E+03  0.41800000000E+01 0. -1.
        -11    1    1    2    0    0  0.68541676269E+01 -0.26804694171E+02  0.14947626309E+03  0.15201521131E+03  0.00000000000E+00 0. -1.
         11    1    1    2    0    0  0.89677354140E+01  0.43233302483E+02  0.36715266670E+02  0.57424293889E+02  0.00000000000E+00 0.  1.
</event>
<event>
 7    1  0.2440960E-009  0.8423095E+02  0.7561462E-02  0.1317456E+00
         -1   -1    0    0    0  501 -0.00000000000E+00  0.00000000000E+00  0.33833348616E+03  0.33833348616E+03  0.00000000000E+00 0.  1.
          1   -1    0    0  501    0  0.00000000000E+00 -0.00000000000E+00 -0.47695754774E+02  0.47695754774E+02  0.00000000000E+00 0. -1.
         25    2    1    2    0    0  0.48493369210E+02 -0.76992048732E+01  0.21760489626E+03  0.25575435602E+03  0.12509002811E+03 0.  0.
          5    1    3    3  502    0  0.63537786513E+02  0.84044182322E+01  0.22351357080E+03  0.23255853734E+03  0.41800000000E+01 0.  1.
         -5    1    3    3    0  502 -0.15044417303E+02 -0.16103623105E+02 -0.59086745375E+01  0.23195818673E+02  0.41800000000E+01 0.  1.
        -11    1    1    2    0    0 -0.57679821455E+02 -0.13027396681E+02  0.59106359395E+01  0.59427354682E+02  0.00000000000E+00 0. -1.
         11    1    1    2    0    0  0.91864522451E+01  0.20726601554E+02  0.67122199182E+02  0.70847530231E+02  0.00000000000E+00 0.  1.
</event>
<event>
 7    1  0.2440960E-009  0.8769115E+02  0.7561462E-02  0.1308541E+00
         -2   -1    0    0    0  501 -0.00000000000E+00  0.00000000000E+00  0.40087815406E+02  0.40087815406E+02  0.00000000000E+00 0.  1.
          2   -1    0    0  501    0  0.00000000000E+00 -0.00000000000E+00 -0.33165497740E+03  0.33165497740E+03  0.00000000000E+00 0. -1.
         25    2    1    2    0    0 -0.39939392166E+02 -0.43339105272E+01 -0.14755243182E+03  0.19756940482E+03  0.12509201317E+03 0.  0.
          5    1    3    3  502    0 -0.58095704677E+02 -0.38150554585E+02 -0.33711978720E+02  0.77359845051E+02  0.41800000000E+01 0. -1.
         -5    1    3    3    0  502  0.18156312512E+02  0.33816644058E+02 -0.11384045310E+03  0.12020955977E+03  0.41800000000E+01 0. -1.
        -11    1    1    2    0    0  0.21187742076E+01  0.24290021744E+02 -0.46185607048E+00  0.24386628949E+02  0.00000000000E+00 0.  1.
         11    1    1    2    0    0  0.37820617958E+02 -0.19956111217E+02 -0.14355287411E+03  0.14978675904E+03  0.00000000000E+00 0. -1.
</event>
<event>
 7    1  0.2440960E-009  0.1362835E+03  0.7561462E-02  0.1218419E+00
         -2   -1    0    0    0  501 -0.00000000000E+00  0.00000000000E+00  0.29001284008E+03  0.29001284008E+03  0.00000000000E+00 0.  1.
          2   -1    0    0  501    0  0.00000000000E+00 -0.00000000000E+00 -0.87086616078E+02  0.87086616078E+02  0.00000000000E+00 0. -1.
         25    2    1    2    0    0  0.88564682116E+02 -0.56733467346E+02  0.51961153622E+02  0.17148829585E+03  0.12508351168E+03 0.  0.
          5    1    3    3  502    0 -0.10781782229E+02 -0.54917617169E+02 -0.58981801399E+01  0.56430952788E+02  0.41800000000E+01 0. -1.
         -5    1    3    3    0  502  0.99346464344E+02 -0.18158501771E+01  0.57859333762E+02  0.11505734306E+03  0.41800000000E+01 0. -1.
        -11    1    1    2    0    0 -0.67951613038E+01  0.30308418103E+02  0.10217764408E+03  0.10679440704E+03  0.00000000000E+00 0.  1.
         11    1    1    2    0    0 -0.81769520812E+02  0.26425049243E+02  0.48787426300E+02  0.98816753267E+02  0.00000000000E+00 0. -1.
</event>
<event>
 7    1  0.2440960E-009  0.9197820E+02  0.7561462E-02  0.1298131E+00
         -2   -1    0    0    0  501 -0.00000000000E+00  0.00000000000E+00  0.16924131801E+02  0.16924131801E+02  0.00000000000E+00 0.  1.
          2   -1    0    0  501    0  0.00000000000E+00 -0.00000000000E+00 -0.77265246336E+03  0.77265246336E+03  0.00000000000E+00 0. -1.
         25    2    1    2    0    0  0.49867349863E+02  0.15266998707E+02 -0.40623644867E+03  0.42824715199E+03  0.12509091545E+03 0.  0.
          5    1    3    3  502    0  0.70197641516E+02  0.10544671209E+02 -0.10834124726E+03  0.12959242734E+03  0.41800000000E+01 0.  1.
         -5    1    3    3    0  502 -0.20330291653E+02  0.47223274986E+01 -0.29789520141E+03  0.29865472465E+03  0.41800000000E+01 0.  1.
        -11    1    1    2    0    0 -0.32599920971E+02 -0.45958577385E+02 -0.20429977776E+03  0.21192768784E+03  0.00000000000E+00 0.  1.
         11    1    1    2    0    0 -0.17267428892E+02  0.30691578678E+02 -0.14519210513E+03  0.14940175533E+03  0.00000000000E+00 0. -1.
</event>
<event>
 7    1  0.2440960E-009  0.8723306E+02  0.7561462E-02  0.1309694E+00
          1   -1    0    0  501    0  0.00000000000E+00  0.00000000000E+00  0.62202355189E+03  0.62202355189E+03  0.00000000000E+00 0. -1.
         -1   -1    0    0    0  501 -0.00000000000E+00 -0.00000000000E+00 -0.26392158022E+02  0.26392158022E+02  0.00000000000E+00 0.  1.
         25    2    1    2    0    0 -0.64349139189E+02 -0.21349691928E+00  0.45321562791E+03  0.47454567009E+03  0.12509328648E+03 0.  0.
          5    1    3    3  502    0  0.65106768632E+01  0.13088441113E+02  0.33947049927E+03  0.33981081277E+03  0.41800000000E+01 0.  1.
         -5    1    3    3    0  502 -0.70859816053E+02 -0.13301938032E+02  0.11374512865E+03  0.13473485732E+03  0.41800000000E+01 0.  1.
        -11    1    1    2    0    0  0.73712204955E+02  0.89297168561E+01  0.76064630824E+02  0.10629702284E+03  0.00000000000E+00 0.  1.
         11    1    1    2    0    0 -0.93630657658E+01 -0.87162199368E+01  0.66351135134E+02  0.67573016982E+02  0.00000000000E+00 0. -1.
</event>
<event>
 7    1  0.2440960E-009  0.2188121E+03  0.7561462E-02  0.1134772E+00
         -2   -1    0    0    0  501 -0.00000000000E+00  0.00000000000E+00  0.32239775039E+02  0.32239775039E+02  0.00000000000E+00 0.  1.
          2   -1    0    0  501    0  0.00000000000E+00 -0.00000000000E+00 -0.18571056899E+04  0.18571056899E+04  0.00000000000E+00 0. -1.
         25    2    1    2    0    0 -0.18121872408E+03 -0.76975449854E+02 -0.12524208189E+04  0.12739587009E+04  0.12508964045E+03 0.  0.
          5    1    3    3  502    0 -0.19402790054E+03 -0.90033954838E+02 -0.11247101746E+04  0.11448770189E+04  0.41800000000E+01 0.  1.
         -5    1    3    3    0  502  0.12809176464E+02  0.13058504984E+02 -0.12771064431E+03  0.12908168198E+03  0.41800000000E+01 0.  1.
        -11    1    1    2    0    0  0.59196591850E+02  0.55260318413E+02 -0.10983097230E+03  0.13645798531E+03  0.00000000000E+00 0.  1.
         11    1    1    2    0    0  0.12202213223E+03  0.21715131442E+02 -0.46261412366E+03  0.47892877873E+03  0.00000000000E+00 0. -1.
</event>
<event>
 7    1  0.2440960E-009  0.1248204E+03  0.7561462E-02  0.1235350E+00
         -1   -1    0    0    0  501 -0.00000000000E+00  0.00000000000E+00  0.70394880621E+02  0.70394880621E+02  0.00000000000E+00 0.  1.
          1   -1    0    0  501    0  0.00000000000E+00 -0.00000000000E+00 -0.23677550910E+03  0.23677550910E+03  0.00000000000E+00 0. -1.
         25    2    1    2    0    0 -0.41371892641E+02 -0.61863675902E+02 -0.99236339842E+02  0.17616192925E+03  0.12508567574E+03 0.  0.
          5    1    3    3  502    0  0.34743272533E+02 -0.57136357140E+02 -0.31334649993E+02  0.73966147553E+02  0.41800000000E+01 0. -1.
         -5    1    3    3    0  502 -0.76115165175E+02 -0.47273187621E+01 -0.67901689849E+02  0.10219578170E+03  0.41800000000E+01 0. -1.
        -11    1    1    2    0    0  0.62582296019E+02  0.56667117418E+02 -0.33353464750E+02  0.90775324744E+02  0.00000000000E+00 0.  1.
         11    1    1    2    0    0 -0.21210403378E+02  0.51965584838E+01 -0.33790823886E+02  0.40233135727E+02  0.00000000000E+00 0. -1.
</event>
<event>
 7    1  0.2440960E-009  0.9906362E+02  0.7561462E-02  0.1282277E+00
          2   -1    0    0  501    0  0.00000000000E+00  0.00000000000E+00  0.13155442410E+04  0.13155442410E+04  0.00000000000E+00 0. -1.
         -2   -1    0    0    0  501 -0.00000000000E+00 -0.00000000000E+00 -0.99969759443E+01  0.99969759443E+01  0.00000000000E+00 0.  1.
         25    2    1    2    0    0 -0.47737556422E+01  0.29723540018E+02  0.89450003607E+03  0.90370485051E+03  0.12508343108E+03 0.  0.
          5    1    3    3  502    0 -0.59494398156E+01  0.66381578442E+02  0.79109284789E+03  0.79390633968E+03  0.41800000000E+01 0. -1.
         -5    1    3    3    0  502  0.11756841734E+01 -0.36658038425E+02  0.10340718818E+03  0.10979851084E+03  0.41800000000E+01 0. -1.
        -11    1    1    2    0    0 -0.42349621227E+02 -0.16901192020E+02  0.21689911093E+03  0.22164017017E+03  0.00000000000E+00 0.  1.
         11    1    1    2    0    0  0.47123376869E+02 -0.12822347998E+02  0.19414811807E+03  0.20019619629E+03  0.00000000000E+00 0. -1.
</event>
<event>
 7    1  0.2440960E-009  0.1057192E+03  0.7561462E-02  0.1268709E+00
         -2   -1    0    0    0  501 -0.00000000000E+00  0.00000000000E+00  0.11181700180E+03  0.11181700180E+03  0.00000000000E+00 0.  1.
          2   -1    0    0  501    0  0.00000000000E+00 -0.00000000000E+00 -0.10907474591E+03  0.10907474591E+03  0.00000000000E+00 0. -1.
         25    2    1    2    0    0  0.12959075033E+02  0.93457018815E+00  0.26393534013E+02  0.12850006245E+03  0.12508731496E+03 0.  0.
          5    1    3    3  502    0 -0.55751065235E+02  0.63097486778E+01  0.17268858390E+02  0.58853037927E+02  0.41800000000E+01 0. -1.
         -5    1    3    3    0  502  0.68710140267E+02 -0.53751784897E+01  0.91246756234E+01  0.69647024521E+02  0.41800000000E+01 0. -1.
        -11    1    1    2    0    0  0.36561552541E+02  0.93312571422E+00 -0.22262661479E+02  0.42816398073E+02  0.00000000000E+00 0. -1.
         11    1    1    2    0    0 -0.49520627574E+02 -0.18676959024E+01 -0.13886166462E+01  0.49575287185E+02  0.00000000000E+00 0.  1.
</event>
<event>
 7    1  0.2440960E-009  0.1180587E+03  0.7561462E-02  0.1246334E+00
         -2   -1    0    0    0  501 -0.00000000000E+00  0.00000000000E+00  0.50629688470E+02  0.50629688470E+02  0.00000000000E+00 0. -1.
          2   -1    0    0  501    0  0.00000000000E+00 -0.00000000000E+00 -0.31088023621E+03  0.31088023621E+03  0.00000000000E+00 0.  1.
         25    2    1    2    0    0 -0.55001078966E+02 -0.17287631541E+02 -0.18915879614E+03  0.23399228656E+03  0.12508940450E+03 0.  0.
          5    1    3    3  502    0 -0.88040329465E+02  0.17177885753E+02 -0.12184004322E+03  0.15135603029E+03  0.41800000000E+01 0. -1.
         -5    1    3    3    0  502  0.33039250499E+02 -0.34465517294E+02 -0.67318752919E+02  0.82636256271E+02  0.41800000000E+01 0. -1.
        -11    1    1    2    0    0  0.58533791826E+02 -0.19301376839E+02 -0.66174154587E+02  0.90431005019E+02  0.00000000000E+00 0.  1.
         11    1    1    2    0    0 -0.35327128603E+01  0.36589008380E+02 -0.49175970061E+01  0.37086633100E+02  0.00000000000E+00 0. -1.
</event>
<event>
 7    1  0.2440960E-009  0.1176355E+03  0.7561462E-02  0.1247050E+00
         -2   -1    0    0    0  501 -0.00000000000E+00  0.00000000000E+00  0.36523926775E+03  0.36523926775E+03  0.00000000000E+00 0.  1.
          2   -1    0    0  501    0  0.00000000000E+00 -0.00000000000E+00 -0.38793669185E+02  0.38793669185E+02  0.00000000000E+00 0. -1.
         25    2    1    2    0    0  0.41206194096E+02  0.23425954579E+02  0.16204207272E+03  0.21012358107E+03  0.12509020829E+03 0.  0.
          5    1    3    3  502    0 -0.33826202252E+02 -0.26812769537E+02  0.53647369428E+02  0.68982963227E+02  0.41800000000E+01 0. -1.
         -5    1    3    3    0  502  0.75032396348E+02  0.50238724116E+02  0.10839470329E+03  0.14114061784E+03  0.41800000000E+01 0. -1.
        -11    1    1    2    0    0  0.41776535701E+01 -0.49160401311E+02  0.95396499760E+02  0.10739967417E+03  0.00000000000E+00 0.  1.
         11    1    1    2    0    0 -0.45383847666E+02  0.25734446731E+02  0.69007026080E+02  0.86509681689E+02  0.00000000000E+00 0. -1.
</event>
<event>
 7    1  0.2440960E-009  0.1258379E+03  0.7561462E-02  0.1233766E+00
         -2   -1    0    0    0  501 -0.00000000000E+00  0.00000000000E+00  0.11886112330E+02  0.11886112330E+02  0.00000000000E+00 0.  1.
          2   -1    0    0  501    0  0.00000000000E+00 -0.00000000000E+00 -0.13469500508E+04  0.13469500508E+04  0.00000000000E+00 0. -1.
         25    2    1    2    0    0  0.52395245171E+02  0.36316924661E+02 -0.74738740267E+03  0.76046228964E+03  0.12510309173E+03 0.  0.
          5    1    3    3  502    0  0.38154806667E+02 -0.43854464763E+02 -0.27751969933E+03  0.28357302281E+03  0.41800000000E+01 0.  1.
         -5    1    3    3    0  502  0.14240438505E+02  0.80171389424E+02 -0.46986770334E+03  0.47688926682E+03  0.41800000000E+01 0.  1.
        -11    1    1    2    0    0 -0.11085938265E+02 -0.62156727075E+02 -0.29639962292E+03  0.30304965470E+03  0.00000000000E+00 0.  1.
         11    1    1    2    0    0 -0.41309306906E+02  0.25839802414E+02 -0.29127691284E+03  0.29532421875E+03  0.00000000000E+00 0. -1.
</event>
<event>
 7    1  0.2440960E-009  0.1036267E+03  0.7561462E-02  0.1272849E+00
         -1   -1    0    0    0  501 -0.00000000000E+00  0.00000000000E+00  0.73315264425E+02  0.73315264425E+02  0.00000000000E+00 0.  1.
          1   -1    0    0  501    0  0.00000000000E+00 -0.00000000000E+00 -0.18537603383E+03  0.18537603383E+03  0.00000000000E+00 0. -1.
         25    2    1    2    0    0  0.39417349381E+02  0.12888859014E+02 -0.48304645098E+02  0.14035628971E+03  0.12508676670E+03 0.  0.
          5    1    3    3  502    0  0.70338527958E+02 -0.31762058193E+02 -0.29503829401E+02  0.82730195245E+02  0.41800000000E+01 0. -1.
         -5    1    3    3    0  502 -0.30921178577E+02  0.44650917207E+02 -0.18800815697E+02  0.57626094462E+02  0.41800000000E+01 0. -1.
        -11    1    1    2    0    0  0.16818595290E+02  0.29293962382E+01  0.13297692329E+02  0.21639665689E+02  0.00000000000E+00 0.  1.
         11    1    1    2    0    0 -0.56235944671E+02 -0.15818255252E+02 -0.77053816633E+02  0.96695342855E+02  0.00000000000E+00 0. -1.
</event>
<event>
 7    1  0.2440960E-009  0.1559335E+03  0.7561462E-02  0.1193366E+00
          1   -1    0    0  501    0  0.00000000000E+00  0.00000000000E+00  0.28841264067E+03  0.28841264067E+03  0.00000000000E+00 0. -1.
         -1   -1    0    0    0  501 -0.00000000000E+00 -0.00000000000E+00 -0.98946794853E+02  0.98946794853E+02  0.00000000000E+00 0.  1.
         25    2    1    2    0    0  0.11267991503E+03 -0.50041864337E+02  0.60191433542E+02  0.18566482535E+03  0.12508983678E+03 0.  0.
          5    1    3    3  502    0  0.23421420414E+02  0.33665136242E+02 -0.12743716269E+02  0.43148337590E+02  0.41800000000E+01 0. -1.
         -5    1    3    3    0  502  0.89258494616E+02 -0.83707000579E+02  0.72935149811E+02  0.14251648776E+03  0.41800000000E+01 0. -1.
        -11    1    1    2    0    0 -0.89911194484E+02  0.73041377664E+02  0.12256057787E+03  0.16864210919E+03  0.00000000000E+00 0.  1.
         11    1    1    2    0    0 -0.22768720546E+02 -0.22999513327E+02  0.67138344096E+01  0.33052500980E+02  0.00000000000E+00 0. -1.
</event>
<event>
 7    1  0.2440960E-009  0.1987862E+03  0.7561462E-02  0.1150767E+00
         -2   -1    0    0    0  501 -0.00000000000E+00  0.00000000000E+00  0.25902986438E+02  0.25902986438E+02  0.00000000000E+00 0.  1.
          2   -1    0    0  501    0  0.00000000000E+00 -0.00000000000E+00 -0.22859766662E+04  0.22859766662E+04  0.00000000000E+00 0. -1.
         25    2    1    2    0    0  0.77594144218E+02  0.15821808305E+03 -0.17690540445E+04  0.17822046270E+04  0.12508919642E+03 0.  0.
          5    1    3    3  502    0  0.98245273765E+02  0.16335761168E+03 -0.16671689088E+04  0.16780367952E+04  0.41800000000E+01 0. -1.
         -5    1    3    3    0  502 -0.20651129547E+02 -0.51395286255E+01 -0.10188513569E+03  0.10416783179E+03  0.41800000000E+01 0. -1.
        -11    1    1    2    0    0 -0.84311847032E+02 -0.12150652587E+03 -0.29344741105E+03  0.32860874369E+03  0.00000000000E+00 0.  1.
         11    1    1    2    0    0  0.67177028137E+01 -0.36711557186E+02 -0.19757222421E+03  0.20106628196E+03  0.00000000000E+00 0. -1.
</event>
<event>
 7    1  0.2440960E-009  0.9774834E+02  0.7561462E-02  0.1285103E+00
          3   -1    0    0  501    0  0.00000000000E+00  0.00000000000E+00  0.30552384206E+03  0.30552384206E+03  0.00000000000E+00 0. -1.
         -3   -1    0    0    0  501 -0.00000000000E+00 -0.00000000000E+00 -0.63531776349E+02  0.63531776349E+02  0.00000000000E+00 0.  1.
         25    2    1    2    0    0 -0.57637537039E+02 -0.68183690537E+02  0.12689938404E+03  0.19930097005E+03  0.12508525756E+03 0.  0.
          5    1    3    3  502    0  0.16507303581E+01 -0.19738867960E+02  0.12068580653E+03  0.12237190902E+03  0.41800000000E+01 0.  1.
         -5    1    3    3    0  502 -0.59288267397E+02 -0.48444822577E+02  0.62135775143E+01  0.76929061030E+02  0.41800000000E+01 0.  1.
        -11    1    1    2    0    0  0.57803402861E+02  0.39775770312E+02  0.23719670617E+02  0.74067321137E+02  0.00000000000E+00 0.  1.
         11    1    1    2    0    0 -0.16586582248E+00  0.28407920224E+02  0.91373011049E+02  0.95687327223E+02  0.00000000000E+00 0. -1.
</event>
<event>
 7    1  0.2440960E-009  0.9433244E+02  0.7561462E-02  0.1292687E+00
          3   -1    0    0  501    0  0.00000000000E+00  0.00000000000E+00  0.46375541890E+03  0.46375541890E+03  0.00000000000E+00 0. -1.
         -3   -1    0    0    0  501 -0.00000000000E+00 -0.00000000000E+00 -0.28004243447E+02  0.28004243447E+02  0.00000000000E+00 0.  1.
         25    2    1    2    0    0 -0.62743623632E+01 -0.28894369841E+02  0.28649433079E+03  0.31400750679E+03  0.12508980978E+03 0.  0.
          5    1    3    3  502    0 -0.58667744918E+02 -0.23868654392E+02  0.87316802905E+02  0.10795051378E+03  0.41800000000E+01 0. -1.
         -5    1    3    3    0  502  0.52393382555E+02 -0.50257154492E+01  0.19917752788E+03  0.20605699300E+03  0.41800000000E+01 0. -1.
        -11    1    1    2    0    0  0.30777622557E+02 -0.43582422363E+01  0.10238866268E+02  0.32727522181E+02  0.00000000000E+00 0.  1.
         11    1    1    2    0    0 -0.24503260194E+02  0.33252612077E+02  0.13901797840E+03  0.14502463338E+03  0.00000000000E+00 0. -1.
</event>
<event>
 7    1  0.2440960E-009  0.1257452E+03  0.7561462E-02  0.1233909E+00
          1   -1    0    0  501    0  0.00000000000E+00  0.00000000000E+00  0.15190270097E+03  0.15190270097E+03  0.00000000000E+00 0. -1.
         -1   -1    0    0    0  501 -0.00000000000E+00 -0.00000000000E+00 -0.15209655246E+03  0.15209655246E+03  0.00000000000E+00 0.  1.
         25    2    1    2    0    0  0.35737334242E+02  0.87667139978E+02  0.46487397530E+02  0.16361733043E+03  0.12508744220E+03 0.  0.
          5    1    3    3  502    0  0.82335778064E+02  0.48309346104E+02  0.32184718468E+02  0.10082808028E+03  0.41800000000E+01 0. -1.
         -5    1    3    3    0  502 -0.46598443822E+02  0.39357793873E+02  0.14302679062E+02  0.62789250144E+02  0.41800000000E+01 0. -1.
        -11    1    1    2    0    0 -0.21866439301E+02 -0.47173456125E+02  0.24378483633E+02  0.57426358014E+02  0.00000000000E+00 0. -1.
         11    1    1    2    0    0 -0.13870894941E+02 -0.40493683853E+02 -0.71059732654E+02  0.82955564993E+02  0.00000000000E+00 0.  1.
</event>
<event>
 7    1  0.2440960E-009  0.1690575E+03  0.7561462E-02  0.1178834E+00
          2   -1    0    0  501    0  0.00000000000E+00  0.00000000000E+00  0.94966823403E+03  0.94966823403E+03  0.00000000000E+00 0. -1.
         -2   -1    0    0    0  501 -0.00000000000E+00 -0.00000000000E+00 -0.39808775203E+02  0.39808775203E+02  0.00000000000E+00 0.  1.
         25    2    1    2    0    0 -0.24284729156E+02  0.16033712671E+03  0.51210898542E+03  0.55154330181E+03  0.12508660421E+03 0.  0.
          5    1    3    3  502    0 -0.33554260718E+02  0.61610664812E+02  0.37924830927E+03  0.38570521764E+03  0.41800000000E+01 0.  1.
         -5    1    3    3    0  502  0.92695315623E+01  0.98726461899E+02  0.13286067615E+03  0.16583808417E+03  0.41800000000E+01 0.  1.
        -11    1    1    2    0    0 -0.13840500743E+02 -0.48038661150E+02  0.20996768631E+03  0.21583721116E+03  0.00000000000E+00 0. -1.
         11    1    1    2    0    0  0.38125229899E+02 -0.11229846556E+03  0.18778278709E+03  0.22209649626E+03  0.00000000000E+00 0.  1.
</event>
<event>
 7    1  0.2440960E-009  0.9107372E+02  0.7561462E-02  0.1300272E+00
         -1   -1    0    0    0  501 -0.00000000000E+00  0.00000000000E+00  0.12188512847E+03  0.12188512847E+03  0.00000000000E+00 0.  1.
          1   -1    0    0  501    0  0.00000000000E+00 -0.00000000000E+00 -0.10610057224E+03  0.10610057224E+03  0.00000000000E+00 0. -1.
         25    2    1    2    0    0  0.26418944329E+02 -0.10917333969E+02  0.23315055129E+02  0.13040781946E+03  0.12508180835E+03 0.  0.
          5    1    3    3  502    0  0.43498148565E+02  0.21737474645E+02  0.60605279616E+02  0.77814388450E+02  0.41800000000E+01 0. -1.
         -5    1    3    3    0  502 -0.17079204236E+02 -0.32654808614E+02 -0.37290224487E+02  0.52593431009E+02  0.41800000000E+01 0. -1.
        -11    1    1    2    0    0 -0.30525440448E+02 -0.37109375838E+02 -0.10853179429E+02  0.49261544772E+02  0.00000000000E+00 0. -1.
         11    1    1    2    0    0  0.41064961189E+01  0.48026709807E+02  0.33226805246E+01  0.48316336483E+02  0.00000000000E+00 0.  1.
</event>
<event>
 7    1  0.2440960E-009  0.1033055E+03  0.7561462E-02  0.1273495E+00
         -1   -1    0    0    0  501 -0.00000000000E+00  0.00000000000E+00  0.42179034971E+03  0.42179034971E+03  0.00000000000E+00 0.  1.
          1   -1    0    0  501    0  0.00000000000E+00 -0.00000000000E+00 -0.39194364467E+02  0.39194364467E+02  0.00000000000E+00 0. -1.
         25    2    1    2    0    0 -0.76508037299E+01 -0.27726705323E+02  0.32261640155E+03  0.34721171990E+03  0.12508929169E+03 0.  0.
          5    1    3    3  502    0 -0.14683889141E+02 -0.76866316248E+02  0.20584307739E+03  0.22025642348E+03  0.41800000000E+01 0.  1.
         -5    1    3    3    0  502  0.70330854114E+01  0.49139610925E+02  0.11677332416E+03  0.12695529641E+03  0.41800000000E+01 0.  1.
        -11    1    1    2    0    0  0.41804882405E+01  0.52875256508E+02  0.68822931836E+02  0.86889960175E+02  0.00000000000E+00 0.  1.
         11    1    1    2    0    0  0.34703154894E+01 -0.25148551185E+02 -0.88433481466E+01  0.26883034106E+02  0.00000000000E+00 0. -1.
</event>
<event>
 7    1  0.2440960E-009  0.1820617E+03  0.7561462E-02  0.1165823E+00
          2   -1    0    0  501    0  0.00000000000E+00  0.00000000000E+00  0.12245823055E+04  0.12245823055E+04  0.00000000000E+00 0. -1.
         -2   -1    0    0    0  501 -0.00000000000E+00 -0.00000000000E+00 -0.52724313348E+02  0.52724313348E+02  0.00000000000E+00 0.  1.
         25    2    1    2    0    0  0.15765721328E+03 -0.35438846594E+02  0.10184641156E+04  0.10387630942E+04  0.12509157565E+03 0.  0.
          5    1    3    3  502    0  0.24646356733E+02  0.41593435240E+02  0.18657362501E+03  0.19278134428E+03  0.41800000000E+01 0. -1.
         -5    1    3    3    0  502  0.13301085654E+03 -0.77032281833E+02  0.83189049063E+03  0.84598174993E+03  0.41800000000E+01 0. -1.
        -11    1    1    2    0    0 -0.31612224816E+02  0.35155467473E+01  0.86827124304E+02  0.92469677958E+02  0.00000000000E+00 0. -1.
         11    1    1    2    0    0 -0.12604498846E+03  0.31923299846E+02  0.66566752235E+02  0.14607384671E+03  0.00000000000E+00 0.  1.
</event>
<event>
 7    1  0.2758017E-009  0.9610771E+02  0.7561462E-02  0.1288701E+00
          1   -1    0    0  501    0  0.00000000000E+00  0.00000000000E+00  0.96231596333E+03  0.96231596333E+03  0.00000000000E+00 0. -1.
         -1   -1    0    0    0  501 -0.00000000000E+00 -0.00000000000E+00 -0.22993858500E+02  0.22993858500E+02  0.00000000000E+00 0.  1.
         25    2    1    2    0    0  0.75635791183E+02  0.48477228392E+02  0.66971233514E+03  0.68719196383E+03  0.12508944294E+03 0.  0.
          5    1    3    3  502    0  0.68958191585E+02  0.35708872979E+02  0.66751376139E+03  0.67202860790E+03  0.41800000000E+01 0.  1.
         -5    1    3    3    0  502  0.66775995983E+01  0.12768355414E+02  0.21985737464E+01  0.15163355924E+02  0.41800000000E+01 0.  1.
        -11    1    1    2    0    0 -0.38133347208E+02  0.26627323666E-01  0.24197231515E+02  0.45162582868E+02  0.00000000000E+00 0.  1.
         11    1    1    2    0    0 -0.37502443975E+02 -0.48503855716E+02  0.24541253818E+03  0.25295527514E+03  0.00000000000E+00 0. -1.
</event>
<event>
 7    1  0.2440960E-009  0.1034345E+03  0.7561462E-02  0.1273235E+00
         -4   -1    0    0    0  501 -0.00000000000E+00  0.00000000000E+00  0.33875196510E+03  0.33875196510E+03  0.00000000000E+00 0.  1.
          4   -1    0    0  501    0  0.00000000000E+00 -0.00000000000E+00 -0.80906588937E+02  0.80906588937E+02  0.00000000000E+00 0. -1.
         25    2    1    2    0    0 -0.66725769332E+02 -0.53643697288E+01  0.66832097496E+01  0.14203579738E+03  0.12509355575E+03 0.  0.
          5    1    3    3  502    0  0.10677826994E+02 -0.41837830633E+02 -0.25733528858E+02  0.50439141239E+02  0.41800000000E+01 0. -1.
         -5    1    3    3    0  502 -0.77403596326E+02  0.36473460905E+02  0.32416738608E+02  0.91596656142E+02  0.41800000000E+01 0. -1.
        -11    1    1    2    0    0  0.24814804921E+02  0.21575451925E+02  0.13164695768E+02  0.35420105642E+02  0.00000000000E+00 0. -1.
         11    1    1    2    0    0  0.41910964411E+02 -0.16211082196E+02  0.23799747064E+03  0.24220265101E+03  0.00000000000E+00 0.  1.
</event>
<event>
 7    1  0.2440960E-009  0.1825730E+03  0.7561462E-02  0.1165336E+00
         -1   -1    0    0    0  501 -0.00000000000E+00  0.00000000000E+00  0.25259033811E+02  0.25259033811E+02  0.00000000000E+00 0.  1.
          1   -1    0    0  501    0  0.00000000000E+00 -0.00000000000E+00 -0.13685865286E+04  0.13685865286E+04  0.00000000000E+00 0. -1.
         25    2    1    2    0    0 -0.63285620552E+02  0.13696089309E+03 -0.75902948885E+03  0.78392528744E+03  0.12509890223E+03 0.  0.
          5    1    3    3  502    0 -0.80443364487E+02  0.15245709438E+03 -0.67456700435E+03  0.69625599910E+03  0.41800000000E+01 0.  1.
         -5    1    3    3    0  502  0.17157743935E+02 -0.15496201288E+02 -0.84462484502E+02  0.87669288348E+02  0.41800000000E+01 0.  1.
        -11    1    1    2    0    0  0.49341582268E+02 -0.23047962510E+02 -0.12222061358E+03  0.13380462885E+03  0.00000000000E+00 0.  1.
         11    1    1    2    0    0  0.13944038284E+02 -0.11391293058E+03 -0.46207739240E+03  0.47611564617E+03  0.00000000000E+00 0. -1.
</event>
<event>
 7    1  0.2440960E-009  0.1522047E+03  0.7561462E-02  0.1197790E+00
         -2   -1    0    0    0  501 -0.00000000000E+00  0.00000000000E+00  0.10315620122E+03  0.10315620122E+03  0.00000000000E+00 0.  1.
          2   -1    0    0  501    0  0.00000000000E+00 -0.00000000000E+00 -0.24127366350E+03  0.24127366350E+03  0.00000000000E+00 0. -1.
         25    2    1    2    0    0  0.18782621084E+02  0.10659453300E+03 -0.33417276093E+02  0.16876009132E+03  0.12509225700E+03 0.  0.
          5    1    3    3  502    0  0.68264119502E+02  0.31374755570E+02 -0.13345183072E+02  0.76419445233E+02  0.41800000000E+01 0.  1.
         -5    1    3    3    0  502 -0.49481498418E+02  0.75219777430E+02 -0.20072093021E+02  0.92340646091E+02  0.41800000000E+01 0.  1.
        -11    1    1    2    0    0 -0.17961609867E+02  0.11243637150E+02 -0.27805606268E+02  0.34959841895E+02  0.00000000000E+00 0.  1.
         11    1    1    2    0    0 -0.82101121773E+00 -0.11783817015E+03 -0.76894579920E+02  0.14070993151E+03  0.00000000000E+00 0. -1.
</event>
<event>
 7    1  0.2440960E-009  0.1559736E+03  0.7561462E-02  0.1193319E+00
          1   -1    0    0  501    0  0.00000000000E+00  0.00000000000E+00  0.30022984399E+03  0.30022984399E+03  0.00000000000E+00 0. -1.
         -1   -1    0    0    0  501 -0.00000000000E+00 -0.00000000000E+00 -0.10925585597E+03  0.10925585597E+03  0.00000000000E+00 0.  1.
         25    2    1    2    0    0  0.37059900945E+01 -0.15246670943E+03  0.14010698418E+03  0.24194485557E+03  0.12509002467E+03 0.  0.
          5    1    3    3  502    0 -0.19123206845E+02 -0.80486730073E+02  0.14409936954E+03  0.16621044329E+03  0.41800000000E+01 0. -1.
         -5    1    3    3    0  502  0.22829196940E+02 -0.71979979362E+02 -0.39923853592E+01  0.75734412275E+02  0.41800000000E+01 0. -1.
        -11    1    1    2    0    0 -0.92968608463E+01  0.49409899073E+02 -0.43953283743E+01  0.50468689893E+02  0.00000000000E+00 0.  1.
         11    1    1    2    0    0  0.55908707518E+01  0.10305681036E+03  0.55262332211E+02  0.11707215450E+03  0.00000000000E+00 0. -1.
</event>
<event>
 7    1  0.2440960E-009  0.2053687E+03  0.7561462E-02  0.1145287E+00
          2   -1    0    0  501    0  0.00000000000E+00  0.00000000000E+00  0.17255864549E+03  0.17255864549E+03  0.00000000000E+00 0. -1.
         -2   -1    0    0    0  501 -0.00000000000E+00 -0.00000000000E+00 -0.26667247459E+03  0.26667247459E+03  0.00000000000E+00 0.  1.
         25    2    1    2    0    0 -0.16806098830E+03  0.77807063102E+02 -0.52447622360E+02  0.22956634890E+03  0.12510603741E+03 0.  0.
          5    1    3    3  502    0  0.10851729714E+02  0.38477453905E+02 -0.11593435758E+02  0.41834849701E+02  0.41800000000E+01 0. -1.
         -5    1    3    3    0  502 -0.17891271801E+03  0.39329609197E+02 -0.40854186602E+02  0.18773149919E+03  0.41800000000E+01 0. -1.
        -11    1    1    2    0    0  0.14019397226E+03 -0.52613220064E+02 -0.67315601107E+02  0.16417640189E+03  0.00000000000E+00 0.  1.
         11    1    1    2    0    0  0.27867016037E+02 -0.25193843038E+02  0.25649394362E+02  0.45488369293E+02  0.00000000000E+00 0. -1.
</event>
<event>
 7    1  0.2440960E-009  0.9572657E+02  0.7561462E-02  0.1289548E+00
         -1   -1    0    0    0  501 -0.00000000000E+00  0.00000000000E+00  0.45863319691E+02  0.45863319691E+02  0.00000000000E+00 0. -1.
          1   -1    0    0  501    0  0.00000000000E+00 -0.00000000000E+00 -0.41175070118E+03  0.41175070118E+03  0.00000000000E+00 0.  1.
         25    2    1    2    0    0  0.62151367303E+02  0.24087701824E+02 -0.10923834881E+03  0.17895097364E+03  0.12508966496E+03 0.  0.
          5    1    3    3  502    0 -0.14860627571E+01 -0.10208898226E+02 -0.10587784438E+03  0.10646135597E+03  0.41800000000E+01 0.  1.
         -5    1    3    3    0  502  0.63637430060E+02  0.34296600050E+02 -0.33605044294E+01  0.72489617668E+02  0.41800000000E+01 0.  1.
        -11    1    1    2    0    0 -0.40703043531E+01  0.28963123917E+02 -0.83767403882E+02  0.88726590590E+02  0.00000000000E+00 0.  1.
         11    1    1    2    0    0 -0.58081062949E+02 -0.53050825741E+02 -0.17288162881E+03  0.18993645665E+03  0.00000000000E+00 0. -1.
</event>
<event>
 7    1  0.2440960E-009  0.1412310E+03  0.7561462E-02  0.1211682E+00
          3   -1    0    0  501    0  0.00000000000E+00  0.00000000000E+00  0.35528533408E+02  0.35528533408E+02  0.00000000000E+00 0. -1.
         -3   -1    0    0    0  501 -0.00000000000E+00 -0.00000000000E+00 -0.61365817134E+03  0.61365817134E+03  0.00000000000E+00 0.  1.
         25    2    1    2    0    0  0.70993663691E+02  0.67724518816E+02 -0.35389332394E+03  0.38796032783E+03  0.12508405379E+03 0.  0.
          5    1    3    3  502    0 -0.29216597657E+02  0.46928325273E+02 -0.14682068986E+03  0.15693841041E+03  0.41800000000E+01 0. -1.
         -5    1    3    3    0  502  0.10021026135E+03  0.20796193543E+02 -0.20707263408E+03  0.23102191743E+03  0.41800000000E+01 0. -1.
        -11    1    1    2    0    0 -0.65985282614E+02 -0.10102437040E+02 -0.71075089923E+02  0.97507872315E+02  0.00000000000E+00 0. -1.
         11    1    1    2    0    0 -0.50083810767E+01 -0.57622081776E+02 -0.15316122407E+03  0.16371850460E+03  0.00000000000E+00 0.  1.
</event>
<event>
 7    1  0.2440960E-009  0.2868531E+03  0.7561462E-02  0.1092004E+00
         -2   -1    0    0    0  501 -0.00000000000E+00  0.00000000000E+00  0.30713562405E+03  0.30713562405E+03  0.00000000000E+00 0.  1.
          2   -1    0    0  501    0  0.00000000000E+00 -0.00000000000E+00 -0.33306112602E+03  0.33306112602E+03  0.00000000000E+00 0. -1.
         25    2    1    2    0    0  0.20877529125E+03 -0.16868002082E+03 -0.15028830421E+03  0.33207498598E+03  0.12508856971E+03 0.  0.
          5    1    3    3  502    0  0.16750120036E+02  0.20207132857E+02 -0.10481368038E+02  0.28569673002E+02  0.41800000000E+01 0. -1.
         -5    1    3    3    0  502  0.19202517121E+03 -0.18888715368E+03 -0.13980693617E+03  0.30350531298E+03  0.41800000000E+01 0. -1.
        -11    1    1    2    0    0 -0.56408840393E+02  0.90110107539E+02  0.22349562879E+02  0.10863375035E+03  0.00000000000E+00 0. -1.
         11    1    1    2    0    0 -0.15236645085E+03  0.78569913283E+02  0.10201323936E+03  0.19948801373E+03  0.00000000000E+00 0.  1.
</event>
<event>
 7    1  0.2440960E-009  0.1156425E+03  0.7561462E-02  0.1250464E+00
         -1   -1    0    0    0  501 -0.00000000000E+00  0.00000000000E+00  0.48787048368E+03  0.48787048368E+03  0.00000000000E+00 0.  1.
          1   -1    0    0  501    0  0.00000000000E+00 -0.00000000000E+00 -0.39420264409E+02  0.39420264409E+02  0.00000000000E+00 0. -1.
         25    2    1    2    0    0 -0.58240288562E+02 -0.52990480368E+02  0.17759698761E+03  0.23105835942E+03  0.12508938096E+03 0.  0.
          5    1    3    3  502    0 -0.77115827135E+02 -0.69048494350E+02  0.81735623366E+02  0.13195730330E+03  0.41800000000E+01 0.  1.
         -5    1    3    3    0  502  0.18875538573E+02  0.16058013983E+02  0.95861364247E+02  0.99101056123E+02  0.41800000000E+01 0.  1.
        -11    1    1    2    0    0  0.60484026321E+00  0.44260509584E+02  0.45569197620E+02  0.63528814817E+02  0.00000000000E+00 0. -1.
         11    1    1    2    0    0  0.57635448299E+02  0.87299707838E+01  0.22528403404E+03  0.23270357385E+03  0.00000000000E+00 0.  1.
</event>
<event>
 7    1  0.2440960E-009  0.1385880E+03  0.7561462E-02  0.1215242E+00
          1   -1    0    0  501    0  0.00000000000E+00  0.00000000000E+00  0.46144266508E+03  0.46144266508E+03  0.00000000000E+00 0. -1.
         -1   -1    0    0    0  501 -0.00000000000E+00 -0.00000000000E+00 -0.48854951608E+02  0.48854951608E+02  0.00000000000E+00 0.  1.
         25    2    1    2    0    0  0.41541008732E+02  0.95545214806E+02  0.18686339646E+03  0.24782924347E+03  0.12508741545E+03 0.  0.
          5    1    3    3  502    0  0.67875913603E+02  0.94671733082E+02  0.18791226475E+03  0.22112975453E+03  0.41800000000E+01 0.  1.
         -5    1    3    3    0  502 -0.26334904871E+02  0.87348172437E+00 -0.10488682990E+01  0.26699488939E+02  0.41800000000E+01 0.  1.
        -11    1    1    2    0    0  0.25682707287E+02 -0.35363275578E+02  0.74176579472E+02  0.86094875895E+02  0.00000000000E+00 0. -1.
         11    1    1    2    0    0 -0.67223716019E+02 -0.60181939228E+02  0.15154773755E+03  0.17637349733E+03  0.00000000000E+00 0.  1.
</event>
<event>
 7    1  0.2440960E-009  0.1099965E+03  0.7561462E-02  0.1260576E+00
         -2   -1    0    0    0  501 -0.00000000000E+00  0.00000000000E+00  0.26333394699E+02  0.26333394699E+02  0.00000000000E+00 0. -1.
          2   -1    0    0  501    0  0.00000000000E+00 -0.00000000000E+00 -0.72399987474E+03  0.72399987474E+03  0.00000000000E+00 0.  1.
         25    2    1    2    0    0  0.73193187996E+02 -0.17936640587E+02 -0.49195844620E+03  0.51317908658E+03  0.12510274286E+03 0.  0.
          5    1    3    3  502    0  0.44105185724E+02  0.24753811818E+02 -0.42734679916E+03  0.43034959946E+03  0.41800000000E+01 0. -1.
         -5    1    3    3    0  502  0.29088002272E+02 -0.42690452405E+02 -0.64611647047E+02  0.82829487122E+02  0.41800000000E+01 0. -1.
        -11    1    1    2    0    0  0.16685160692E+02 -0.14256672908E+02 -0.48383986048E+02  0.53128687313E+02  0.00000000000E+00 0.  1.
         11    1    1    2    0    0 -0.89878348688E+02  0.32193313494E+02 -0.15732404779E+03  0.18402549554E+03  0.00000000000E+00 0. -1.
</event>
<event>
 7    1  0.2440960E-009  0.1100467E+03  0.7561462E-02  0.1260483E+00
         -2   -1    0    0    0  501 -0.00000000000E+00  0.00000000000E+00  0.13428199059E+02  0.13428199059E+02  0.00000000000E+00 0.  1.
          2   -1    0    0  501    0  0.00000000000E+00 -0.00000000000E+00 -0.14143358526E+04  0.14143358526E+04  0.00000000000E+00 0. -1.
         25    2    1    2    0    0  0.94038868580E+02  0.10392546885E+02 -0.85022011071E+03  0.86456571785E+03  0.12509328513E+03 0.  0.
          5    1    3    3  502    0  0.93857489754E+02  0.16657475208E+02 -0.85158137532E+03  0.85691015344E+03  0.41800000000E+01 0. -1.
         -5    1    3    3    0  502  0.18137882673E+00 -0.62649283226E+01  0.13612646101E+01  0.76555644145E+01  0.41800000000E+01 0. -1.
        -11    1    1    2    0    0 -0.34416790699E+01 -0.25122543502E+02 -0.15035798561E+03  0.15248118305E+03  0.00000000000E+00 0. -1.
         11    1    1    2    0    0 -0.90597189510E+02  0.14729996617E+02 -0.40032955725E+03  0.41071715079E+03  0.00000000000E+00 0.  1.
</event>
<event>
 7    1  0.2440960E-009  0.1301096E+03  0.7561462E-02  0.1227293E+00
          1   -1    0    0  501    0  0.00000000000E+00  0.00000000000E+00  0.24088662094E+03  0.24088662094E+03  0.00000000000E+00 0. -1.
         -1   -1    0    0    0  501 -0.00000000000E+00 -0.00000000000E+00 -0.84848654551E+02  0.84848654551E+02  0.00000000000E+00 0.  1.
         25    2    1    2    0    0 -0.64934390342E+02 -0.38642526508E+02  0.24522385902E+02  0.14818579387E+03  0.12509181504E+03 0.  0.
          5    1    3    3  502    0 -0.10138947242E+03 -0.36210224436E+02  0.85154146029E+01  0.10807862951E+03  0.41800000000E+01 0. -1.
         -5    1    3    3    0  502  0.36455082079E+02 -0.24323020721E+01  0.16006971299E+02  0.40107164359E+02  0.41800000000E+01 0. -1.
        -11    1    1    2    0    0 -0.98239306237E+01 -0.18941341833E+02  0.96451999047E+01  0.23416103957E+02  0.00000000000E+00 0. -1.
         11    1    1    2    0    0  0.74758320965E+02  0.57583868341E+02  0.12187038058E+03  0.15413337766E+03  0.00000000000E+00 0.  1.
</event>
<event>
 7    1  0.2440960E-009  0.1931035E+03  0.7561462E-02  0.1155692E+00
         -1   -1    0    0    0  501 -0.00000000000E+00  0.00000000000E+00  0.95423066368E+03  0.95423066368E+03  0.00000000000E+00 0.  1.
          1   -1    0    0  501    0  0.00000000000E+00 -0.00000000000E+00 -0.44477503863E+02  0.44477503863E+02  0.00000000000E+00 0. -1.
         25    2    1    2    0    0  0.17005426464E+03  0.24296980888E+02  0.55274897754E+03  0.59218930717E+03  0.12509175493E+03 0.  0.
          5    1    3    3  502    0 -0.19059623543E+02  0.17453125810E+01  0.83046181479E+02  0.85325588330E+02  0.41800000000E+01 0. -1.
         -5    1    3    3    0  502  0.18911388819E+03  0.22551668307E+02  0.46970279606E+03  0.50686371884E+03  0.41800000000E+01 0. -1.
        -11    1    1    2    0    0 -0.14572442391E+03 -0.34470223904E+02  0.34766487330E+03  0.37854282213E+03  0.00000000000E+00 0.  1.
         11    1    1    2    0    0 -0.24329840735E+02  0.10173243016E+02  0.93393089763E+01  0.27976038244E+02  0.00000000000E+00 0. -1.
</event>
<event>
 7    1  0.2440960E-009  0.9207703E+02  0.7561462E-02  0.1297898E+00
         -1   -1    0    0    0  501 -0.00000000000E+00  0.00000000000E+00  0.28511406045E+03  0.28511406045E+03  0.00000000000E+00 0.  1.
          1   -1    0    0  501    0  0.00000000000E+00 -0.00000000000E+00 -0.50796909552E+02  0.50796909552E+02  0.00000000000E+00 0. -1.
         25    2    1    2    0    0 -0.49241512974E+02  0.35860092376E+02  0.12211213119E+03  0.18510977813E+03  0.12507431611E+03 0.  0.
          5    1    3    3  502    0 -0.42538980708E+02  0.72520271684E+02  0.36708874692E+02  0.91835551754E+02  0.41800000000E+01 0. -1.
         -5    1    3    3    0  502 -0.67025322651E+01 -0.36660179308E+02  0.85403256502E+02  0.93274226380E+02  0.41800000000E+01 0. -1.
        -11    1    1    2    0    0  0.10514134406E+02 -0.15472372474E+02 -0.98465304243E+01  0.21139902877E+02  0.00000000000E+00 0. -1.
         11    1    1    2    0    0  0.38727378567E+02 -0.20387719903E+02  0.12205155013E+03  0.12966128899E+03  0.00000000000E+00 0.  1.
</event>
<event>
 7    1  0.2440960E-009  0.1006158E+03  0.7561462E-02  0.1279006E+00
         -1   -1    0    0    0  501 -0.00000000000E+00  0.00000000000E+00  0.68906851220E+03  0.68906851220E+03  0.00000000000E+00 0.  1.
          1   -1    0    0  501    0  0.00000000000E+00 -0.00000000000E+00 -0.38318075528E+02  0.38318075528E+02  0.00000000000E+00 0. -1.
         25    2    1    2    0    0 -0.78540679173E+02  0.34760341343E+02  0.15724657749E+03  0.21851954478E+03  0.12508951078E+03 0.  0.
          5    1    3    3  502    0 -0.11796163631E+02  0.69673598561E+01 -0.21400398362E+02  0.25751563639E+02  0.41800000000E+01 0. -1.
         -5    1    3    3    0  502 -0.66744515542E+02  0.27792981487E+02  0.17864697585E+03  0.19276798114E+03  0.41800000000E+01 0. -1.
        -11    1    1    2    0    0 -0.36933732712E+01  0.16949016145E+02  0.25193482666E+02  0.30587934275E+02  0.00000000000E+00 0. -1.
         11    1    1    2    0    0  0.82234052444E+02 -0.51709357488E+02  0.46831037652E+03  0.47827910867E+03  0.00000000000E+00 0.  1.
</event>
<event>
 7    1  0.2440960E-009  0.1366068E+03  0.7561462E-02  0.1217969E+00
          1   -1    0    0  501    0  0.00000000000E+00  0.00000000000E+00  0.21051629580E+03  0.21051629580E+03  0.00000000000E+00 0. -1.
         -1   -1    0    0    0  501 -0.00000000000E+00 -0.00000000000E+00 -0.11199411729E+03  0.11199411729E+03  0.00000000000E+00 0.  1.
         25    2    1    2    0    0  0.67095411411E+02  0.72697361670E+02  0.98566193793E+02  0.18748191742E+03  0.12508986439E+03 0.  0.
          5    1    3    3  502    0 -0.20634022742E+02  0.66003798271E+02  0.58667102793E+02  0.90783069076E+02  0.41800000000E+01 0.  1.
         -5    1    3    3    0  502  0.87729434153E+02  0.66935633984E+01  0.39899091000E+02  0.96698848341E+02  0.41800000000E+01 0.  1.
        -11    1    1    2    0    0 -0.56650809594E+02 -0.16949557513E+02 -0.34699303001E+02  0.68561238002E+02  0.00000000000E+00 0. -1.
         11    1    1    2    0    0 -0.10444601817E+02 -0.55747804156E+02  0.34655287714E+02  0.66467257668E+02  0.00000000000E+00 0.  1.
</event>
<event>
 7    1  0.2440960E-009  0.8525898E+02  0.7561462E-02  0.1314757E+00
         -1   -1    0    0    0  501 -0.00000000000E+00  0.00000000000E+00  0.46963527911E+02  0.46963527911E+02  0.00000000000E+00 0.  1.
          1   -1    0    0  501    0  0.00000000000E+00 -0.00000000000E+00 -0.33195652967E+03  0.33195652967E+03  0.00000000000E+00 0. -1.
         25    2    1    2    0    0 -0.31832567511E+01 -0.62407662323E+02 -0.15606423002E+03  0.20954340589E+03  0.12509014997E+03 0.  0.
          5    1    3    3  502    0  0.91963824626E+01 -0.32684391049E+02  0.13589878044E+02  0.36810325371E+02  0.41800000000E+01 0.  1.
         -5    1    3    3    0  502 -0.12379639214E+02 -0.29723271274E+02 -0.16965410806E+03  0.17273308052E+03  0.41800000000E+01 0.  1.
        -11    1    1    2    0    0 -0.33654139410E+02  0.57571118558E+02 -0.10744925823E+03  0.12646097377E+03  0.00000000000E+00 0. -1.
         11    1    1    2    0    0  0.36837396161E+02  0.48365437646E+01 -0.21479513510E+02  0.42915677930E+02  0.00000000000E+00 0.  1.
</event>
<event>
 7    1  0.2440960E-009  0.9039615E+02  0.7561462E-02  0.1301895E+00
          1   -1    0    0  501    0  0.00000000000E+00  0.00000000000E+00  0.87648926090E+02  0.87648926090E+02  0.00000000000E+00 0. -1.
         -1   -1    0    0    0  501 -0.00000000000E+00 -0.00000000000E+00 -0.14178829370E+03  0.14178829370E+03  0.00000000000E+00 0.  1.
         25    2    1    2    0    0 -0.24798596660E+02 -0.30662773264E+01 -0.31159282374E+02  0.13131269548E+03  0.12509096955E+03 0.  0.
          5    1    3    3  502    0  0.29581435983E+02 -0.48239895949E+02 -0.13530650117E+02  0.58332665022E+02  0.41800000000E+01 0. -1.
         -5    1    3    3    0  502 -0.54380032644E+02  0.45173618623E+02 -0.17628632257E+02  0.72980030454E+02  0.41800000000E+01 0. -1.
        -11    1    1    2    0    0  0.16708279485E+02  0.24877930398E+02 -0.52553532997E+02  0.60497535939E+02  0.00000000000E+00 0.  1.
         11    1    1    2    0    0  0.80903171747E+01 -0.21811653072E+02  0.29573447761E+02  0.37626988375E+02  0.00000000000E+00 0. -1.
</event>
<event>
 7    1  0.2440960E-009  0.6373069E+02  0.7561462E-02  0.1382811E+00
          1   -1    0    0  501    0  0.00000000000E+00  0.00000000000E+00  0.55297812503E+02  0.55297812503E+02  0.00000000000E+00 0. -1.
         -1   -1    0    0    0  501 -0.00000000000E+00 -0.00000000000E+00 -0.41847495569E+03  0.41847495569E+03  0.00000000000E+00 0.  1.
         25    2    1    2    0    0  0.51074912818E+01  0.40073699125E+02 -0.42612262632E+02  0.13818550976E+03  0.12508973720E+03 0.  0.
          5    1    3    3  502    0  0.17186507264E+02  0.35374102455E+02 -0.84953304301E+02  0.93708267875E+02  0.41800000000E+01 0.  1.
         -5    1    3    3    0  502 -0.12079015982E+02  0.46995966698E+01  0.42341041669E+02  0.44477241883E+02  0.41800000000E+01 0.  1.
        -11    1    1    2    0    0  0.13925058464E+02  0.12293203209E+02 -0.12186765617E+02  0.22215925697E+02  0.00000000000E+00 0. -1.
         11    1    1    2    0    0 -0.19032549746E+02 -0.52366902333E+02 -0.30837811494E+03  0.31337133274E+03  0.00000000000E+00 0.  1.
</event>
<event>
 7    1  0.2440960E-009  0.1711032E+03  0.7561462E-02  0.1176702E+00
         -2   -1    0    0    0  501 -0.00000000000E+00  0.00000000000E+00  0.10460620074E+03  0.10460620074E+03  0.00000000000E+00 0. -1.
          2   -1    0    0  501    0  0.00000000000E+00 -0.00000000000E+00 -0.37433997201E+03  0.37433997201E+03  0.00000000000E+00 0.  1.
         25    2    1    2    0    0 -0.12982082309E+03 -0.94093376146E+02 -0.18207280948E+03  0.27296030019E+03  0.12509919259E+03 0.  0.
          5    1    3    3  502    0 -0.86045087102E+02 -0.10503712768E+02 -0.14984544244E+03  0.17316239204E+03  0.41800000000E+01 0. -1.
         -5    1    3    3    0  502 -0.43775735987E+02 -0.83589663378E+02 -0.32227367039E+02  0.99797908150E+02  0.41800000000E+01 0. -1.
        -11    1    1    2    0    0  0.10321954637E+03  0.81617511186E+02 -0.10801427491E+03  0.17024328612E+03  0.00000000000E+00 0.  1.
         11    1    1    2    0    0  0.26601276715E+02  0.12475864960E+02  0.20353313126E+02  0.35742586429E+02  0.00000000000E+00 0. -1.
</event>
<event>
 7    1  0.2440960E-009  0.1551333E+03  0.7561462E-02  0.1194303E+00
          1   -1    0    0  501    0  0.00000000000E+00  0.00000000000E+00  0.79399851147E+02  0.79399851147E+02  0.00000000000E+00 0. -1.
         -1   -1    0    0    0  501 -0.00000000000E+00 -0.00000000000E+00 -0.34363076772E+03  0.34363076772E+03  0.00000000000E+00 0.  1.
         25    2    1    2    0    0  0.54438388239E+02 -0.98302997211E+02 -0.72586819333E+02  0.18314666794E+03  0.12508732255E+03 0.  0.
          5    1    3    3  502    0  0.40035985397E+02 -0.12748705092E+03 -0.68078637231E+02  0.15002666938E+03  0.41800000000E+01 0. -1.
         -5    1    3    3    0  502  0.14402402843E+02  0.29184053709E+02 -0.45081821021E+01  0.33119998557E+02  0.41800000000E+01 0. -1.
        -11    1    1    2    0    0 -0.75875928585E+02  0.49866911115E+02 -0.11106886279E+03  0.14345786017E+03  0.00000000000E+00 0. -1.
         11    1    1    2    0    0  0.21437540346E+02  0.48436086096E+02 -0.80575234449E+02  0.96426090759E+02  0.00000000000E+00 0.  1.
</event>
<event>
 7    1  0.2603446E-009  0.1207730E+03  0.7561462E-02  0.1241827E+00
         -2   -1    0    0    0  501 -0.00000000000E+00  0.00000000000E+00  0.10472661943E+03  0.10472661943E+03  0.00000000000E+00 0.  1.
          2   -1    0    0  501    0  0.00000000000E+00 -0.00000000000E+00 -0.26024124844E+03  0.26024124844E+03  0.00000000000E+00 0. -1.
         25    2    1    2    0    0 -0.85828205411E+02 -0.49239458162E+02 -0.16507342764E+03  0.22954123505E+03  0.12509571133E+03 0.  0.
          5    1    3    3  502    0 -0.25918582169E+02 -0.58287677797E+02 -0.15540953682E+03  0.16804410974E+03  0.41800000000E+01 0. -1.
         -5    1    3    3    0  502 -0.59909623242E+02  0.90482196355E+01 -0.96638908192E+01  0.61497125310E+02  0.41800000000E+01 0. -1.
        -11    1    1    2    0    0  0.43210043555E+02  0.59032258648E+02 -0.27451962683E+02  0.78137863295E+02  0.00000000000E+00 0. -1.
         11    1    1    2    0    0  0.42618161856E+02 -0.97928004866E+01  0.37010761308E+02  0.57288769527E+02  0.00000000000E+00 0.  1.
</event>
<event>
 7    1  0.2440960E-009  0.2202497E+03  0.7561462E-02  0.1133697E+00
          1   -1    0    0  501    0  0.00000000000E+00  0.00000000000E+00  0.70171220544E+03  0.70171220544E+03  0.00000000000E+00 0. -1.
         -1   -1    0    0    0  501 -0.00000000000E+00 -0.00000000000E+00 -0.98459834233E+02  0.98459834233E+02  0.00000000000E+00 0.  1.
         25    2    1    2    0    0  0.25398634448E+02 -0.21482517284E+03  0.15431702262E+03  0.29369290888E+03  0.12508731245E+03 0.  0.
          5    1    3    3  502    0  0.34009849937E+02 -0.14596829890E+03  0.32474386357E+02  0.15341275157E+03  0.41800000000E+01 0. -1.
         -5    1    3    3    0  502 -0.86112154890E+01 -0.68856873945E+02  0.12184263626E+03  0.14028015730E+03  0.41800000000E+01 0. -1.
        -11    1    1    2    0    0 -0.36563229964E+02  0.19399534462E+03  0.32458770471E+03  0.37990556928E+03  0.00000000000E+00 0.  1.
         11    1    1    2    0    0  0.11164595516E+02  0.20829828220E+02  0.12434764388E+03  0.12657356151E+03  0.00000000000E+00 0. -1.
</event>
<event>
 7    1  0.2440960E-009  0.1025403E+03  0.7561462E-02  0.1275043E+00
         -1   -1    0    0    0  501 -0.00000000000E+00  0.00000000000E+00  0.13613047482E+03  0.13613047482E+03  0.00000000000E+00 0.  1.
          1   -1    0    0  501    0  0.00000000000E+00 -0.00000000000E+00 -0.16445584216E+03  0.16445584216E+03  0.00000000000E+00 0. -1.
         25    2    1    2    0    0  0.68135350724E+02 -0.42532560802E+02 -0.80397808316E+02  0.16900395156E+03  0.12508830206E+03 0.  0.
          5    1    3    3  502    0  0.70201650850E+02 -0.30441390933E+02  0.10357112092E+02  0.77328469757E+02  0.41800000000E+01 0. -1.
         -5    1    3    3    0  502 -0.20663001264E+01 -0.12091169869E+02 -0.90754920408E+02  0.91675481800E+02  0.41800000000E+01 0. -1.
        -11    1    1    2    0    0 -0.57914770912E+02 -0.12723910081E+02  0.46029033012E+02  0.75064575251E+02  0.00000000000E+00 0.  1.
         11    1    1    2    0    0 -0.10220579811E+02  0.55256470883E+02  0.60434079633E+01  0.56517790172E+02  0.00000000000E+00 0. -1.
</event>
<event>
 7    1  0.3256458E-009  0.1311758E+03  0.7561462E-02  0.1225721E+00
          1   -1    0    0  501    0  0.00000000000E+00  0.00000000000E+00  0.72092943043E+03  0.72092943043E+03  0.00000000000E+00 0. -1.
         -1   -1    0    0    0  501 -0.00000000000E+00 -0.00000000000E+00 -0.39314555644E+02  0.39314555644E+02  0.00000000000E+00 0.  1.
         25    2    1    2    0    0 -0.45673191388E+02 -0.10776975213E+03  0.48122814979E+03  0.51081209984E+03  0.12509240308E+03 0.  0.
          5    1    3    3  502    0 -0.55436290985E+02 -0.23734583579E+02  0.34603868113E+03  0.35127874125E+03  0.41800000000E+01 0.  1.
         -5    1    3    3    0  502  0.97630995966E+01 -0.84035168547E+02  0.13518946866E+03  0.15953335859E+03  0.41800000000E+01 0.  1.
        -11    1    1    2    0    0  0.35917726430E+02  0.78002233036E+02  0.57967230634E+02  0.10360806560E+03  0.00000000000E+00 0.  1.
         11    1    1    2    0    0  0.97554649585E+01  0.29767519090E+02  0.14241949436E+03  0.14582382063E+03  0.00000000000E+00 0. -1.
</event>
<event>
 7    1  0.2655206E-009  0.1002994E+03  0.7561462E-02  0.1279668E+00
          2   -1    0    0  501    0  0.00000000000E+00  0.00000000000E+00  0.64497084944E+03  0.64497084944E+03  0.00000000000E+00 0. -1.
         -2   -1    0    0    0  501 -0.00000000000E+00 -0.00000000000E+00 -0.26774058628E+02  0.26774058628E+02  0.00000000000E+00 0.  1.
         25    2    1    2    0    0  0.38741020077E+02  0.63004310866E+02  0.35427931956E+03  0.38292950335E+03  0.12510299137E+03 0.  0.
          5    1    3    3  502    0 -0.23594718042E+02 -0.40890844403E+01  0.21382986784E+03  0.21520714698E+03  0.41800000000E+01 0. -1.
         -5    1    3    3    0  502  0.62335738118E+02  0.67093395306E+02  0.14044945172E+03  0.16772235638E+03  0.41800000000E+01 0. -1.
        -11    1    1    2    0    0  0.87788143459E+01 -0.12415536293E+02 -0.72468520693E+00  0.15222952783E+02  0.00000000000E+00 0.  1.
         11    1    1    2    0    0 -0.47519834423E+02 -0.50588774573E+02  0.26464215646E+03  0.27359245193E+03  0.00000000000E+00 0. -1.
</event>
<event>
 7    1  0.2440960E-009  0.1776578E+03  0.7561462E-02  0.1170089E+00
         -1   -1    0    0    0  501 -0.00000000000E+00  0.00000000000E+00  0.10047874795E+03  0.10047874795E+03  0.00000000000E+00 0.  1.
          1   -1    0    0  501    0  0.00000000000E+00 -0.00000000000E+00 -0.33300425406E+03  0.33300425406E+03  0.00000000000E+00 0. -1.
         25    2    1    2    0    0 -0.45761008829E+02 -0.13919688250E+03 -0.12516802521E+03  0.22974822969E+03  0.12508945792E+03 0.  0.
          5    1    3    3  502    0 -0.48943696061E+02 -0.16086971990E+03 -0.12063949334E+03  0.20699254073E+03  0.41800000000E+01 0. -1.
         -5    1    3    3    0  502  0.31826872328E+01  0.21672837402E+02 -0.45285318730E+01  0.22755688959E+02  0.41800000000E+01 0. -1.
        -11    1    1    2    0    0 -0.73438883012E+01  0.96210366568E+02 -0.31170819168E+02  0.10140013461E+03  0.00000000000E+00 0.  1.
         11    1    1    2    0    0  0.53104897130E+02  0.42986515930E+02 -0.76186661733E+02  0.10233463772E+03  0.00000000000E+00 0. -1.
</event>
<event>
 7    1  0.2440960E-009  0.1471603E+03  0.7561462E-02  0.1204006E+00
          3   -1    0    0  501    0  0.00000000000E+00  0.00000000000E+00  0.51019112121E+02  0.51019112121E+02  0.00000000000E+00 0. -1.
         -3   -1    0    0    0  501 -0.00000000000E+00 -0.00000000000E+00 -0.55671920424E+03  0.55671920424E+03  0.00000000000E+00 0.  1.
         25    2    1    2    0    0 -0.28343493162E+01 -0.12792876294E+03 -0.25870000786E+03  0.31455812270E+03  0.12508923441E+03 0.  0.
          5    1    3    3  502    0 -0.39953065845E+02 -0.87136426251E+01 -0.21307972149E+02  0.46299860856E+02  0.41800000000E+01 0.  1.
         -5    1    3    3    0  502  0.37118716529E+02 -0.11921512031E+03 -0.23739203572E+03  0.26825826185E+03  0.41800000000E+01 0.  1.
        -11    1    1    2    0    0 -0.33231756228E+01  0.52905677214E+02 -0.19401615020E+03  0.20112762296E+03  0.00000000000E+00 0.  1.
         11    1    1    2    0    0  0.61575249390E+01  0.75023085723E+02 -0.52983934051E+02  0.92052570699E+02  0.00000000000E+00 0. -1.
</event>
<event>
 7    1  0.2440960E-009  0.9993754E+02  0.7561462E-02  0.1280427E+00
          2   -1    0    0  501    0  0.00000000000E+00  0.00000000000E+00  0.21824520510E+04  0.21824520510E+04  0.00000000000E+00 0. -1.
         -2   -1    0    0    0  501 -0.00000000000E+00 -0.00000000000E+00 -0.15777133631E+02  0.15777133631E+02  0.00000000000E+00 0.  1.
         25    2    1    2    0    0 -0.64801901820E+02 -0.60860642542E+02  0.18605811221E+04  0.18668995980E+04  0.12509473539E+03 0.  0.
          5    1    3    3  502    0 -0.11787835852E+02 -0.55452213202E+02  0.15939472810E+04  0.15949605976E+04  0.41800000000E+01 0.  1.
         -5    1    3    3    0  502 -0.53014065968E+02 -0.54084293408E+01  0.26663384110E+03  0.27193900036E+03  0.41800000000E+01 0.  1.
        -11    1    1    2    0    0  0.17302410286E+02  0.23296875020E+02  0.12571282954E+02  0.31625226363E+02  0.00000000000E+00 0.  1.
         11    1    1    2    0    0  0.47499491533E+02  0.37563767522E+02  0.29352251239E+03  0.29970436033E+03  0.00000000000E+00 0. -1.
</event>
<event>
 7    1  0.2440960E-009  0.7772506E+02  0.7561462E-02  0.1335634E+00
         -1   -1    0    0    0  501 -0.00000000000E+00  0.00000000000E+00  0.10372386559E+03  0.10372386559E+03  0.00000000000E+00 0.  1.
          1   -1    0    0  501    0  0.00000000000E+00 -0.00000000000E+00 -0.14082586177E+03  0.14082586177E+03  0.00000000000E+00 0. -1.
         25    2    1    2    0    0 -0.41089198023E+02  0.27380680690E+02 -0.41518368527E+02  0.14074694029E+03  0.12509157608E+03 0.  0.
          5    1    3    3  502    0 -0.18067035827E+02  0.50776728795E+02 -0.75800224064E+02  0.93101237043E+02  0.41800000000E+01 0.  1.
         -5    1    3    3    0  502 -0.23022162196E+02 -0.23396048105E+02  0.34281855537E+02  0.47645703250E+02  0.41800000000E+01 0.  1.
        -11    1    1    2    0    0 -0.54528173171E+01 -0.20553092705E+02 -0.35982506797E+02  0.41795976264E+02  0.00000000000E+00 0.  1.
         11    1    1    2    0    0  0.46542015340E+02 -0.68275879843E+01  0.40398879140E+02  0.62006810798E+02  0.00000000000E+00 0. -1.
</event>
<event>
 7    1  0.2440960E-009  0.9086089E+02  0.7561462E-02  0.1300780E+00
         -1   -1    0    0    0  501 -0.00000000000E+00  0.00000000000E+00  0.15898285977E+02  0.15898285977E+02  0.00000000000E+00 0.  1.
          1   -1    0    0  501    0  0.00000000000E+00 -0.00000000000E+00 -0.81148188089E+03  0.81148188089E+03  0.00000000000E+00 0. -1.
         25    2    1    2    0    0  0.23157962794E+02  0.63217459086E+01 -0.55273224904E+03  0.56721756288E+03  0.12508624545E+03 0.  0.
          5    1    3    3  502    0  0.25939405354E+02 -0.48852326971E+02 -0.13689880389E+03  0.14770970688E+03  0.41800000000E+01 0.  1.
         -5    1    3    3    0  502 -0.27814425595E+01  0.55174072880E+02 -0.41583344515E+03  0.41950785600E+03  0.41800000000E+01 0.  1.
        -11    1    1    2    0    0 -0.26980450974E+02 -0.33720610580E+02 -0.22023763763E+03  0.22443181892E+03  0.00000000000E+00 0. -1.
         11    1    1    2    0    0  0.38224881793E+01  0.27398864671E+02 -0.22613708242E+02  0.35730785068E+02  0.00000000000E+00 0.  1.
</event>
<event>
 7    1  0.2440960E-009  0.1744817E+03  0.7561462E-02  0.1173253E+00
          1   -1    0    0  501    0  0.00000000000E+00  0.00000000000E+00  0.11998874557E+03  0.11998874557E+03  0.00000000000E+00 0. -1.
         -1   -1    0    0    0  501 -0.00000000000E+00 -0.00000000000E+00 -0.71902523867E+03  0.71902523867E+03  0.00000000000E+00 0.  1.
         25    2    1    2    0    0 -0.13526315803E+03  0.70227189004E+02  0.16976359257E+02  0.19789941446E+03  0.12509197207E+03 0.  0.
          5    1    3    3  502    0 -0.94173509373E+02 -0.20496855435E+02 -0.16908675752E+01  0.96483689728E+02  0.41800000000E+01 0. -1.
         -5    1    3    3    0  502 -0.41089648660E+02  0.90724044439E+02  0.18667226832E+02  0.10141572474E+03  0.41800000000E+01 0. -1.
        -11    1    1    2    0    0  0.97776690394E+02 -0.45057093823E+02 -0.55423730412E+03  0.56459668098E+03  0.00000000000E+00 0.  1.
         11    1    1    2    0    0  0.37486467640E+02 -0.25170095181E+02 -0.61775548229E+02  0.76517888801E+02  0.00000000000E+00 0. -1.
</event>
<event>
 7    1  0.2440960E-009  0.1853244E+03  0.7561462E-02  0.1162747E+00
         -1   -1    0    0    0  501 -0.00000000000E+00  0.00000000000E+00  0.12675848945E+03  0.12675848945E+03  0.00000000000E+00 0.  1.
          1   -1    0    0  501    0  0.00000000000E+00 -0.00000000000E+00 -0.41201972025E+03  0.41201972025E+03  0.00000000000E+00 0. -1.
         25    2    1    2    0    0 -0.65711369005E+02  0.14229737007E+03  0.59821034780E+00  0.20053003938E+03  0.12508162651E+03 0.  0.
          5    1    3    3  502    0 -0.37452354544E+02 -0.73866626779E+01 -0.25261574795E+02  0.45965870029E+02  0.41800000000E+01 0.  1.
         -5    1    3    3    0  502 -0.28259014461E+02  0.14968403275E+03  0.25859785142E+02  0.15456416935E+03  0.41800000000E+01 0.  1.
        -11    1    1    2    0    0 -0.26336253706E+01 -0.98829051557E+02 -0.17429377202E+03  0.20038072856E+03  0.00000000000E+00 0.  1.
         11    1    1    2    0    0  0.68344994376E+02 -0.43468318513E+02 -0.11156566912E+03  0.13786744176E+03  0.00000000000E+00 0. -1.
</event>
<event>
 7    1  0.2440960E-009  0.9682780E+02  0.7561462E-02  0.1287112E+00
         -2   -1    0    0    0  501 -0.00000000000E+00  0.00000000000E+00  0.25218833893E+02  0.25218833893E+02  0.00000000000E+00 0. -1.
          2   -1    0    0  501    0  0.00000000000E+00 -0.00000000000E+00 -0.64254758970E+03  0.64254758970E+03  0.00000000000E+00 0.  1.
         25    2    1    2    0    0  0.86772445384E+01  0.49256460264E+02 -0.23537931391E+03  0.27121033419E+03  0.12510048164E+03 0.  0.
          5    1    3    3  502    0 -0.41630912112E+02  0.86177651679E+01 -0.21689021540E+02  0.47909130395E+02  0.41800000000E+01 0.  1.
         -5    1    3    3    0  502  0.50308156651E+02  0.40638695097E+02 -0.21369029237E+03  0.22330120379E+03  0.41800000000E+01 0.  1.
        -11    1    1    2    0    0 -0.17236314424E+02  0.14056733797E+02 -0.23112684850E+02  0.32076136004E+02  0.00000000000E+00 0. -1.
         11    1    1    2    0    0  0.85590698860E+01 -0.63313194061E+02 -0.35883675705E+03  0.36447995340E+03  0.00000000000E+00 0.  1.
</event>
<event>
 7    1  0.2440960E-009  0.1283181E+03  0.7561462E-02  0.1229973E+00
         -1   -1    0    0    0  501 -0.00000000000E+00  0.00000000000E+00  0.63089328511E+02  0.63089328511E+02  0.00000000000E+00 0.  1.
          1   -1    0    0  501    0  0.00000000000E+00 -0.00000000000E+00 -0.35485895160E+03  0.35485895160E+03  0.00000000000E+00 0. -1.
         25    2    1    2    0    0  0.85754396291E+02 -0.72093800364E+01 -0.79345810563E+02  0.17131790091E+03  0.12509306086E+03 0.  0.
          5    1    3    3  502    0 -0.53185576502E+01  0.35388937822E+02  0.93013300328E+01  0.37210900501E+02  0.41800000000E+01 0.  1.
         -5    1    3    3    0  502  0.91072953941E+02 -0.42598317859E+02 -0.88647140596E+02  0.13410700041E+03  0.41800000000E+01 0.  1.
        -11    1    1    2    0    0 -0.10161364472E+03 -0.20078589663E+01 -0.20039677689E+03  0.22469586663E+03  0.00000000000E+00 0. -1.
         11    1    1    2    0    0  0.15859248429E+02  0.92172390028E+01 -0.12027035636E+02  0.21934512571E+02  0.00000000000E+00 0.  1.
</event>
<event>
 7    1  0.2440960E-009  0.9450019E+02  0.7561462E-02  0.1292306E+00
         -2   -1    0    0    0  501 -0.00000000000E+00  0.00000000000E+00  0.40896716909E+03  0.40896716909E+03  0.00000000000E+00 0.  1.
          2   -1    0    0  501    0  0.00000000000E+00 -0.00000000000E+00 -0.33389181531E+02  0.33389181531E+02  0.00000000000E+00 0. -1.
         25    2    1    2    0    0 -0.11083934171E+02 -0.26174253200E+02  0.25757154873E+03  0.28774792721E+03  0.12509125377E+03 0.  0.
          5    1    3    3  502    0  0.45289381870E+02  0.25109685898E+02  0.10344298901E+03  0.11575642017E+03  0.41800000000E+01 0.  1.
         -5    1    3    3    0  502 -0.56373316041E+02 -0.51283939098E+02  0.15412855973E+03  0.17199150704E+03  0.41800000000E+01 0.  1.
        -11    1    1    2    0    0  0.11004066574E+02 -0.15521782847E+02  0.11064309551E+03  0.11226713592E+03  0.00000000000E+00 0.  1.
         11    1    1    2    0    0  0.79867597221E-01  0.41696036047E+02  0.73633433096E+01  0.42341287481E+02  0.00000000000E+00 0. -1.
</event>
<event>
 7    1  0.2440960E-009  0.8987140E+02  0.7561462E-02  0.1303163E+00
          1   -1    0    0  501    0  0.00000000000E+00  0.00000000000E+00  0.54239362112E+03  0.54239362112E+03  0.00000000000E+00 0. -1.
         -1   -1    0    0    0  501 -0.00000000000E+00 -0.00000000000E+00 -0.26006594026E+02  0.26006594026E+02  0.00000000000E+00 0.  1.
         25    2    1    2    0    0  0.35944048511E+02  0.11120870290E+02  0.35636593291E+03  0.37955154198E+03  0.12508815491E+03 0.  0.
          5    1    3    3  502    0  0.47210183925E+01 -0.40296166097E+02  0.27642883051E+03  0.27942161648E+03  0.41800000000E+01 0.  1.
         -5    1    3    3    0  502  0.31223030119E+02  0.51417036387E+02  0.79937102400E+02  0.10012992550E+03  0.41800000000E+01 0.  1.
        -11    1    1    2    0    0 -0.56815438090E+02 -0.57535182233E+01  0.47489490675E+02  0.74272126009E+02  0.00000000000E+00 0.  1.
         11    1    1    2    0    0  0.20871389579E+02 -0.53673520670E+01  0.11253160351E+03  0.11457654716E+03  0.00000000000E+00 0. -1.
</event>
<event>
 7    1  0.2440960E-009  0.1863896E+03  0.7561462E-02  0.1161759E+00
         -2   -1    0    0    0  501 -0.00000000000E+00  0.00000000000E+00  0.66452117825E+03  0.66452117825E+03  0.00000000000E+00 0. -1.
          2   -1    0    0  501    0  0.00000000000E+00 -0.00000000000E+00 -0.55975299639E+02  0.55975299639E+02  0.00000000000E+00 0.  1.
         25    2    1    2    0    0  0.50646579957E+02  0.13955051606E+03  0.25191195002E+03  0.31803770329E+03  0.12509567361E+03 0.  0.
          5    1    3    3  502    0 -0.19628193228E+02  0.10718267369E+03  0.10214196764E+03  0.14941166441E+03  0.41800000000E+01 0.  1.
         -5    1    3    3    0  502  0.70274773185E+02  0.32367842372E+02  0.14976998237E+03  0.16862603887E+03  0.41800000000E+01 0.  1.
        -11    1    1    2    0    0  0.31581146997E+02 -0.76085127420E+02  0.14729163381E+03  0.16876356494E+03  0.00000000000E+00 0.  1.
         11    1    1    2    0    0 -0.82227726954E+02 -0.63465388641E+02  0.20934229478E+03  0.23369520966E+03  0.00000000000E+00 0. -1.
</event>
<event>
 7    1  0.2440960E-009  0.9399423E+02  0.7561462E-02  0.1293458E+00
         -1   -1    0    0    0  501 -0.00000000000E+00  0.00000000000E+00  0.43183050697E+03  0.43183050697E+03  0.00000000000E+00 0.  1.
          1   -1    0    0  501    0  0.00000000000E+00 -0.00000000000E+00 -0.32312319057E+02  0.32312319057E+02  0.00000000000E+00 0. -1.
         25    2    1    2    0    0 -0.36208052636E+02 -0.56980697585E+01  0.17201783524E+03  0.21582784854E+03  0.12509210003E+03 0.  0.
          5    1    3    3  502    0 -0.27121025581E+02 -0.53229779485E+02  0.15185378149E+03  0.16323603403E+03  0.41800000000E+01 0.  1.
         -5    1    3    3    0  502 -0.90870270541E+01  0.47531709726E+02  0.20164053752E+02  0.52591814514E+02  0.41800000000E+01 0.  1.
        -11    1    1    2    0    0  0.54452695962E+02  0.18197844912E+02  0.21577603854E+03  0.22328357859E+03  0.00000000000E+00 0.  1.
         11    1    1    2    0    0 -0.18244643327E+02 -0.12499775153E+02  0.11724314126E+02  0.25031398897E+02  0.00000000000E+00 0. -1.
</event>
<event>
 7    1  0.2440960E-009  0.1027837E+03  0.7561462E-02  0.1274549E+00
         -2   -1    0    0    0  501 -0.00000000000E+00  0.00000000000E+00  0.80219574475E+02  0.80219574475E+02  0.00000000000E+00 0.  1.
          2   -1    0    0  501    0  0.00000000000E+00 -0.00000000000E+00 -0.19389372455E+03  0.19389372455E+03  0.00000000000E+00 0. -1.
         25    2    1    2    0    0 -0.10223625662E+02  0.59029481939E+02 -0.64644402339E+02  0.15302522416E+03  0.12509523658E+03 0.  0.
          5    1    3    3  502    0 -0.16722518720E+02  0.97604993327E+02 -0.50315019082E+02  0.11115507591E+03  0.41800000000E+01 0. -1.
         -5    1    3    3    0  502  0.64988930577E+01 -0.38575511388E+02 -0.14329383256E+02  0.41870148248E+02  0.41800000000E+01 0. -1.
        -11    1    1    2    0    0  0.21043595335E+02 -0.40941796222E+02  0.19050761517E+02  0.49819625620E+02  0.00000000000E+00 0.  1.
         11    1    1    2    0    0 -0.10819969672E+02 -0.18087685717E+02 -0.68080509252E+02  0.71268449249E+02  0.00000000000E+00 0. -1.
</event>
<event>
 7    1  0.2440960E-009  0.1069699E+03  0.7561462E-02  0.1266286E+00
          1   -1    0    0  501    0  0.00000000000E+00  0.00000000000E+00  0.91355453271E+03  0.91355453271E+03  0.00000000000E+00 0. -1.
         -1   -1    0    0    0  501 -0.00000000000E+00 -0.00000000000E+00 -0.22262382856E+02  0.22262382856E+02  0.00000000000E+00 0.  1.
         25    2    1    2    0    0 -0.24185930753E+02  0.31968940393E+02  0.76292141668E+03  0.77414594781E+03  0.12508352439E+03 0.  0.
          5    1    3    3  502    0 -0.72942086769E+02  0.24419795343E+02  0.35706571172E+03  0.36528108261E+03  0.41800000000E+01 0.  1.
         -5    1    3    3    0  502  0.48756156016E+02  0.75491450498E+01  0.40585570496E+03  0.40886486519E+03  0.41800000000E+01 0.  1.
        -11    1    1    2    0    0 -0.23425425076E+02 -0.32150477884E+02  0.22775119624E+02  0.45837864719E+02  0.00000000000E+00 0.  1.
         11    1    1    2    0    0  0.47611355829E+02  0.18153749121E+00  0.10559561355E+03  0.11583310304E+03  0.00000000000E+00 0. -1.
</event>
<event>
 7    1  0.2440960E-009  0.1086810E+03  0.7561462E-02  0.1263032E+00
          2   -1    0    0  501    0  0.00000000000E+00  0.00000000000E+00  0.98893642160E+02  0.98893642160E+02  0.00000000000E+00 0.  1.
         -2   -1    0    0    0  501 -0.00000000000E+00 -0.00000000000E+00 -0.15538995543E+03  0.15538995543E+03  0.00000000000E+00 0. -1.
         25    2    1    2    0    0  0.44493175054E+02 -0.41258490810E+02 -0.70141920070E+02  0.15571810162E+03  0.12508530101E+03 0.  0.
          5    1    3    3  502    0 -0.22225126050E+02 -0.64369723484E+02 -0.36871500565E+02  0.77552546594E+02  0.41800000000E+01 0.  1.
         -5    1    3    3    0  502  0.66718301104E+02  0.23111232674E+02 -0.33270419506E+02  0.78165555023E+02  0.41800000000E+01 0.  1.
        -11    1    1    2    0    0  0.86310129355E+00  0.32125685706E+02 -0.23020475970E+02  0.39531594197E+02  0.00000000000E+00 0. -1.
         11    1    1    2    0    0 -0.45356276347E+02  0.91328051041E+01  0.36666082771E+02  0.59033901776E+02  0.00000000000E+00 0.  1.
</event>
<event>
 7    1  0.2440960E-009  0.1016930E+03  0.7561462E-02  0.1276776E+00
          2   -1    0    0  501    0  0.00000000000E+00  0.00000000000E+00  0.27546883957E+03  0.27546883957E+03  0.00000000000E+00 0. -1.
         -2   -1    0    0    0  501 -0.00000000000E+00 -0.00000000000E+00 -0.64596631873E+02  0.64596631873E+02  0.00000000000E+00 0.  1.
         25    2    1    2    0    0  0.36665779975E+02  0.33819564241E+02  0.19093039691E+03  0.23365007934E+03  0.12509916372E+03 0.  0.
          5    1    3    3  502    0 -0.57637014741E+01 -0.27595767693E+02 -0.11177544599E+00  0.28499676192E+02  0.41800000000E+01 0. -1.
         -5    1    3    3    0  502  0.42429481450E+02  0.61415331935E+02  0.19104217236E+03  0.20515040315E+03  0.41800000000E+01 0. -1.
        -11    1    1    2    0    0 -0.60712199892E+02 -0.42985441418E+02  0.27946253899E+02  0.79465165303E+02  0.00000000000E+00 0. -1.
         11    1    1    2    0    0  0.24046419916E+02  0.91658771771E+01 -0.80044431108E+01  0.26950226803E+02  0.00000000000E+00 0.  1.
</event>
<event>
 7    1  0.2440960E-009  0.1570911E+03  0.7561462E-02  0.1192021E+00
          1   -1    0    0  501    0  0.00000000000E+00  0.00000000000E+00  0.58663747763E+03  0.58663747763E+03  0.00000000000E+00 0. -1.
         -1   -1    0    0    0  501 -0.00000000000E+00 -0.00000000000E+00 -0.57651819577E+02  0.57651819577E+02  0.00000000000E+00 0.  1.
         25    2    1    2    0    0 -0.56551689729E+02  0.13706622630E+03  0.28267462661E+03  0.34283227370E+03  0.12507509489E+03 0.  0.
          5    1    3    3  502    0 -0.22051086481E+02 -0.18232631440E+01 -0.35510976744E+01  0.22795995223E+02  0.41800000000E+01 0. -1.
         -5    1    3    3    0  502 -0.34500603248E+02  0.13888948945E+03  0.28622572428E+03  0.32003627848E+03  0.41800000000E+01 0. -1.
        -11    1    1    2    0    0  0.31475606658E+02 -0.65724352334E+02  0.43175667067E+02  0.84702671332E+02  0.00000000000E+00 0.  1.
         11    1    1    2    0    0  0.25076083071E+02 -0.71341873969E+02  0.20313536438E+03  0.21675435217E+03  0.00000000000E+00 0. -1.
</event>
<event>
 7    1  0.2440960E-009  0.1348081E+03  0.7561462E-02  0.1220491E+00
          1   -1    0    0  501    0  0.00000000000E+00  0.00000000000E+00  0.84851176554E+03  0.84851176554E+03  0.00000000000E+00 0. -1.
         -1   -1    0    0    0  501 -0.00000000000E+00 -0.00000000000E+00 -0.32015324252E+02  0.32015324252E+02  0.00000000000E+00 0.  1.
         25    2    1    2    0    0 -0.46324599708E+02 -0.84805209035E+02  0.22892064969E+03  0.27819050406E+03  0.12508957061E+03 0.  0.
          5    1    3    3  502    0 -0.81917944663E+02 -0.45252858509E+02  0.92286061629E+02  0.13150118034E+03  0.41800000000E+01 0.  1.
         -5    1    3    3    0  502  0.35593344955E+02 -0.39552350526E+02  0.13663458806E+03  0.14668932371E+03  0.41800000000E+01 0.  1.
        -11    1    1    2    0    0  0.57156620651E+02  0.92876411892E+02  0.56906873598E+03  0.57942396692E+03  0.00000000000E+00 0.  1.
         11    1    1    2    0    0 -0.10832020942E+02 -0.80712028562E+01  0.18507055620E+02  0.22912618815E+02  0.00000000000E+00 0. -1.
</event>
<event>
 7    1  0.2440960E-009  0.1077463E+03  0.7561462E-02  0.1264801E+00
         -1   -1    0    0    0  501 -0.00000000000E+00  0.00000000000E+00  0.37000504834E+02  0.37000504834E+02  0.00000000000E+00 0.  1.
          1   -1    0    0  501    0  0.00000000000E+00 -0.00000000000E+00 -0.45302161546E+03  0.45302161546E+03  0.00000000000E+00 0. -1.
         25    2    1    2    0    0 -0.29690148043E+02  0.64609159560E+02 -0.24880102088E+03  0.28741436628E+03  0.12509684873E+03 0.  0.
          5    1    3    3  502    0  0.25772048564E+02  0.98487268641E+01 -0.13412209412E+01  0.27936842729E+02  0.41800000000E+01 0.  1.
         -5    1    3    3    0  502 -0.55462196607E+02  0.54760432696E+02 -0.24745979994E+03  0.25947752355E+03  0.41800000000E+01 0.  1.
        -11    1    1    2    0    0 -0.10631957197E+02  0.16111818035E+02 -0.11044322215E+02  0.22239744770E+02  0.00000000000E+00 0.  1.
         11    1    1    2    0    0  0.40322105240E+02 -0.80720977595E+02 -0.15617576753E+03  0.18036800924E+03  0.00000000000E+00 0. -1.
</event>
<event>
 7    1  0.2440960E-009  0.9307791E+02  0.7561462E-02  0.1295565E+00
         -2   -1    0    0    0  501 -0.00000000000E+00  0.00000000000E+00  0.19566488199E+02  0.19566488199E+02  0.00000000000E+00 0.  1.
          2   -1    0    0  501    0  0.00000000000E+00 -0.00000000000E+00 -0.83129749159E+03  0.83129749159E+03  0.00000000000E+00 0. -1.
         25    2    1    2    0    0  0.40880011668E+02  0.15223275456E+01 -0.63377633102E+03  0.64729739590E+03  0.12509191876E+03 0.  0.
          5    1    3    3  502    0 -0.32053119993E+02  0.14033564941E+02 -0.67061909598E+02  0.75756950606E+02  0.41800000000E+01 0.  1.
         -5    1    3    3    0  502  0.72933131661E+02 -0.12511237395E+02 -0.56671442142E+03  0.57154044529E+03  0.41800000000E+01 0.  1.
        -11    1    1    2    0    0 -0.32961341669E+02 -0.31621380951E+02 -0.35771553847E+02  0.58016944443E+02  0.00000000000E+00 0.  1.
         11    1    1    2    0    0 -0.79186699984E+01  0.30099053406E+02 -0.14218311852E+03  0.14554963945E+03  0.00000000000E+00 0. -1.
</event>
<event>
 7    1  0.2440960E-009  0.1316403E+03  0.7561462E-02  0.1225042E+00
         -2   -1    0    0    0  501 -0.00000000000E+00  0.00000000000E+00  0.11881526420E+03  0.11881526420E+03  0.00000000000E+00 0.  1.
          2   -1    0    0  501    0  0.00000000000E+00 -0.00000000000E+00 -0.17572974766E+03  0.17572974766E+03  0.00000000000E+00 0. -1.
         25    2    1    2    0    0 -0.94874452688E+02 -0.30017880931E+01 -0.37068037684E+02  0.16134294868E+03  0.12508930876E+03 0.  0.
          5    1    3    3  502    0 -0.36238404214E+02 -0.54320057193E+02  0.15514740788E+02  0.67246339195E+02  0.41800000000E+01 0.  1.
         -5    1    3    3    0  502 -0.58636048474E+02  0.51318269100E+02 -0.52582778471E+02  0.94096609481E+02  0.41800000000E+01 0.  1.
        -11    1    1    2    0    0  0.26050488588E+02 -0.33080314152E+02 -0.34117725136E+02  0.54193674063E+02  0.00000000000E+00 0. -1.
         11    1    1    2    0    0  0.68823964100E+02  0.36082102245E+02  0.14271279355E+02  0.79008389120E+02  0.00000000000E+00 0.  1.
</event>
<event>
 7    1  0.2440960E-009  0.1233007E+03  0.7561462E-02  0.1237749E+00
          2   -1    0    0  501    0  0.00000000000E+00  0.00000000000E+00  0.84959373942E+02  0.84959373942E+02  0.00000000000E+00 0. -1.
         -2   -1    0    0    0  501 -0.00000000000E+00 -0.00000000000E+00 -0.19145805054E+03  0.19145805054E+03  0.00000000000E+00 0.  1.
         25    2    1    2    0    0  0.56767156406E+02  0.30642952367E+02 -0.76188299224E+02  0.16004264994E+03  0.12508993678E+03 0.  0.
          5    1    3    3  502    0  0.33574601653E+02 -0.47835428531E+02 -0.27447888048E+02  0.64701940134E+02  0.41800000000E+01 0. -1.
         -5    1    3    3    0  502  0.23192554753E+02  0.78478380897E+02 -0.48740411176E+02  0.95340709804E+02  0.41800000000E+01 0. -1.
        -11    1    1    2    0    0 -0.47307418224E+02  0.22291614729E+02  0.42248725344E+01  0.52466727115E+02  0.00000000000E+00 0. -1.
         11    1    1    2    0    0 -0.94597381814E+01 -0.52934567095E+02 -0.34535249911E+02  0.63908047431E+02  0.00000000000E+00 0.  1.
</event>
<event>
 7    1  0.2440960E-009  0.2013260E+03  0.7561462E-02  0.1148625E+00
          1   -1    0    0  501    0  0.00000000000E+00  0.00000000000E+00  0.57643095863E+03  0.57643095863E+03  0.00000000000E+00 0. -1.
         -1   -1    0    0    0  501 -0.00000000000E+00 -0.00000000000E+00 -0.73192877592E+02  0.73192877592E+02  0.00000000000E+00 0.  1.
         25    2    1    2    0    0 -0.12293165530E+02 -0.17244351978E+03  0.21879960335E+03  0.30562977766E+03  0.12509358550E+03 0.  0.
          5    1    3    3  502    0  0.55104467686E+02 -0.81607604403E+02  0.83048902927E+02  0.12888326553E+03  0.41800000000E+01 0.  1.
         -5    1    3    3    0  502 -0.67397633216E+02 -0.90835915378E+02  0.13575070042E+03  0.17674651213E+03  0.41800000000E+01 0.  1.
        -11    1    1    2    0    0 -0.34725231136E+02  0.79279948865E+02  0.10157512417E+03  0.13344908325E+03  0.00000000000E+00 0.  1.
         11    1    1    2    0    0  0.47018396666E+02  0.93163570917E+02  0.18286335353E+03  0.21054497532E+03  0.00000000000E+00 0. -1.
</event>
<event>
 7    1  0.2440960E-009  0.1064349E+03  0.7561462E-02  0.1267318E+00
         -1   -1    0    0    0  501 -0.00000000000E+00  0.00000000000E+00  0.23364714056E+02  0.23364714056E+02  0.00000000000E+00 0.  1.
          1   -1    0    0  501    0  0.00000000000E+00 -0.00000000000E+00 -0.61377650388E+03  0.61377650388E+03  0.00000000000E+00 0. -1.
         25    2    1    2    0    0  0.19799060895E+02 -0.45150327194E+02 -0.35661162890E+03  0.38111723492E+03  0.12509171849E+03 0.  0.
          5    1    3    3  502    0 -0.40058813082E+02 -0.26370652092E+02 -0.26903468185E+03  0.27330798055E+03  0.41800000000E+01 0. -1.
         -5    1    3    3    0  502  0.59857873976E+02 -0.18779675102E+02 -0.87576947050E+02  0.10780925437E+03  0.41800000000E+01 0. -1.
        -11    1    1    2    0    0 -0.41966530646E+01  0.71289549178E+02 -0.18723166438E+03  0.20038839255E+03  0.00000000000E+00 0. -1.
         11    1    1    2    0    0 -0.15602407830E+02 -0.26139221984E+02 -0.46568496544E+02  0.55635590465E+02  0.00000000000E+00 0.  1.
</event>
<event>
 7    1  0.2440960E-009  0.9802622E+02  0.7561462E-02  0.1284502E+00
          1   -1    0    0  501    0  0.00000000000E+00  0.00000000000E+00  0.83769914520E+03  0.83769914520E+03  0.00000000000E+00 0. -1.
         -1   -1    0    0    0  501 -0.00000000000E+00 -0.00000000000E+00 -0.21060856763E+02  0.21060856763E+02  0.00000000000E+00 0.  1.
         25    2    1    2    0    0 -0.37534714389E+02 -0.38160421986E+01  0.67897819016E+03  0.69143462142E+03  0.12508811303E+03 0.  0.
          5    1    3    3  502    0  0.31999450119E+02  0.67442326601E+01  0.60013567253E+02  0.68472988371E+02  0.41800000000E+01 0. -1.
         -5    1    3    3    0  502 -0.69534164508E+02 -0.10560274859E+02  0.61896462291E+03  0.62296163305E+03  0.41800000000E+01 0. -1.
        -11    1    1    2    0    0  0.55879197694E+02  0.27816620880E+02  0.73635543783E+02  0.96532079850E+02  0.00000000000E+00 0. -1.
         11    1    1    2    0    0 -0.18344483304E+02 -0.24000578681E+02  0.64024554490E+02  0.70793300688E+02  0.00000000000E+00 0.  1.
</event>
<event>
 7    1  0.2440960E-009  0.1794982E+03  0.7561462E-02  0.1168290E+00
          1   -1    0    0  501    0  0.00000000000E+00  0.00000000000E+00  0.21507098365E+03  0.21507098365E+03  0.00000000000E+00 0. -1.
         -1   -1    0    0    0  501 -0.00000000000E+00 -0.00000000000E+00 -0.19434970961E+03  0.19434970961E+03  0.00000000000E+00 0.  1.
         25    2    1    2    0    0 -0.28754518636E+02  0.16502507927E+03  0.50498525007E+02  0.21507536225E+03  0.12508881361E+03 0.  0.
          5    1    3    3  502    0 -0.21529081490E+01 -0.34393337928E+01 -0.27052975194E+02  0.27673089768E+02  0.41800000000E+01 0.  1.
         -5    1    3    3    0  502 -0.26601610487E+02  0.16846441306E+03  0.77551500201E+02  0.18740227248E+03  0.41800000000E+01 0.  1.
        -11    1    1    2    0    0  0.51934321635E+02 -0.88540300362E+02 -0.46508755403E+02  0.11269260349E+03  0.00000000000E+00 0.  1.
         11    1    1    2    0    0 -0.23179802999E+02 -0.76484778907E+02  0.16731504435E+02  0.81652727524E+02  0.00000000000E+00 0. -1.
</event>
<event>
 7    1  0.2440960E-009  0.1671792E+03  0.7561462E-02  0.1180822E+00
          1   -1    0    0  501    0  0.00000000000E+00  0.00000000000E+00  0.57260774412E+02  0.57260774412E+02  0.00000000000E+00 0. -1.
         -1   -1    0    0    0  501 -0.00000000000E+00 -0.00000000000E+00 -0.63289868105E+03  0.63289868105E+03  0.00000000000E+00 0.  1.
         25    2    1    2    0    0  0.11738671743E+03  0.10514836479E+03 -0.29017540149E+03  0.35310806493E+03  0.12509085436E+03 0.  0.
          5    1    3    3  502    0  0.12201034125E+03  0.88539358671E+02 -0.15314442379E+03  0.21493354402E+03  0.41800000000E+01 0.  1.
         -5    1    3    3    0  502 -0.46236238195E+01  0.16609006115E+02 -0.13703097770E+03  0.13817452092E+03  0.41800000000E+01 0.  1.
        -11    1    1    2    0    0 -0.61101965185E+02 -0.21073399882E+02 -0.53212897319E+02  0.83720671122E+02  0.00000000000E+00 0. -1.
         11    1    1    2    0    0 -0.56284752244E+02 -0.84074964903E+02 -0.23224960783E+03  0.25333071940E+03  0.00000000000E+00 0.  1.
</event>
<event>
 7    1  0.2440960E-009  0.1109239E+03  0.7561462E-02  0.1258868E+00
          1   -1    0    0  501    0  0.00000000000E+00  0.00000000000E+00  0.35657654063E+02  0.35657654063E+02  0.00000000000E+00 0. -1.
         -1   -1    0    0    0  501 -0.00000000000E+00 -0.00000000000E+00 -0.42308199873E+03  0.42308199873E+03  0.00000000000E+00 0.  1.
         25    2    1    2    0    0  0.40989271273E+02  0.30596826100E+02 -0.25272187002E+03  0.28658678040E+03  0.12508937999E+03 0.  0.
          5    1    3    3  502    0  0.39695454745E+02  0.77814629167E+02 -0.15510057485E+03  0.17805759281E+03  0.41800000000E+01 0.  1.
         -5    1    3    3    0  502  0.12938165282E+01 -0.47217803067E+02 -0.97621295171E+02  0.10852918759E+03  0.41800000000E+01 0.  1.
        -11    1    1    2    0    0  0.19580280141E+02 -0.14309771572E+02 -0.94711682037E+02  0.97767375168E+02  0.00000000000E+00 0.  1.
         11    1    1    2    0    0 -0.60569551414E+02 -0.16287054529E+02 -0.39990792607E+02  0.74385497223E+02  0.00000000000E+00 0. -1.
</event>
<event>
 7    1  0.2440960E-009  0.9842199E+02  0.7561462E-02  0.1283650E+00
          2   -1    0    0  501    0  0.00000000000E+00  0.00000000000E+00  0.14479170225E+03  0.14479170225E+03  0.00000000000E+00 0. -1.
         -2   -1    0    0    0  501 -0.00000000000E+00 -0.00000000000E+00 -0.91866630910E+02  0.91866630910E+02  0.00000000000E+00 0.  1.
         25    2    1    2    0    0  0.15414923244E+01  0.69547402726E+01  0.70784193590E+02  0.14390593946E+03  0.12509105778E+03 0.  0.
          5    1    3    3  502    0  0.33848898527E+02 -0.38084431090E+02 -0.33658522369E+01  0.51234492134E+02  0.41800000000E+01 0. -1.
         -5    1    3    3    0  502 -0.32307406202E+02  0.45039171363E+02  0.74150045827E+02  0.92671447322E+02  0.41800000000E+01 0. -1.
        -11    1    1    2    0    0 -0.45303189229E+02  0.24660196742E+01 -0.25468211663E+01  0.45441682467E+02  0.00000000000E+00 0.  1.
         11    1    1    2    0    0  0.43761696904E+02 -0.94207599468E+01 -0.15312301079E+02  0.47310711242E+02  0.00000000000E+00 0. -1.
</event>
<event>
 7    1  0.2440960E-009  0.4937125E+02  0.7561462E-02  0.1448763E+00
          1   -1    0    0  501    0  0.00000000000E+00  0.00000000000E+00  0.12328424380E+03  0.12328424380E+03  0.00000000000E+00 0. -1.
         -1   -1    0    0    0  501 -0.00000000000E+00 -0.00000000000E+00 -0.10946933351E+03  0.10946933351E+03  0.00000000000E+00 0.  1.
         25    2    1    2    0    0  0.19755638446E+02  0.29782064662E+02 -0.96112692460E+01  0.13045115241E+03  0.12509144672E+03 0.  0.
          5    1    3    3  502    0 -0.52822328890E+01  0.32398916286E+02  0.53200916261E+02  0.62653025879E+02  0.41800000000E+01 0. -1.
         -5    1    3    3    0  502  0.25037871335E+02 -0.26168516239E+01 -0.62812185507E+02  0.67798126535E+02  0.41800000000E+01 0. -1.
        -11    1    1    2    0    0 -0.85653474850E+01 -0.27377499123E+02 -0.33576548691E+02  0.44161943546E+02  0.00000000000E+00 0.  1.
         11    1    1    2    0    0 -0.11190290961E+02 -0.24045655389E+01  0.57002728226E+02  0.58140481357E+02  0.00000000000E+00 0. -1.
</event>
<event>
 7    1  0.2440960E-009  0.9201678E+02  0.7561462E-02  0.1298040E+00
         -1   -1    0    0    0  501 -0.00000000000E+00  0.00000000000E+00  0.65011729838E+02  0.65011729838E+02  0.00000000000E+00 0.  1.
          1   -1    0    0  501    0  0.00000000000E+00 -0.00000000000E+00 -0.20746583853E+03  0.20746583853E+03  0.00000000000E+00 0. -1.
         25    2    1    2    0    0 -0.63868836439E+01 -0.67913549917E+01 -0.34413759040E+02  0.13007067990E+03  0.12508860928E+03 0.  0.
          5    1    3    3  502    0 -0.63721707876E+02  0.99989984468E+01 -0.10039522138E+02  0.65411775923E+02  0.41800000000E+01 0. -1.
         -5    1    3    3    0  502  0.57334824233E+02 -0.16790353438E+02 -0.24374236902E+02  0.64658903972E+02  0.41800000000E+01 0. -1.
        -11    1    1    2    0    0 -0.81024623697E+01  0.30590361787E+02 -0.11001343433E+03  0.11447434588E+03  0.00000000000E+00 0. -1.
         11    1    1    2    0    0  0.14489346014E+02 -0.23799006796E+02  0.19730846847E+01  0.27932542590E+02  0.00000000000E+00 0.  1.
</event>
<event>
 7    1  0.2440960E-009  0.1204149E+03  0.7561462E-02  0.1242414E+00
          1   -1    0    0  501    0  0.00000000000E+00  0.00000000000E+00  0.14799327525E+03  0.14799327525E+03  0.00000000000E+00 0. -1.
         -1   -1    0    0    0  501 -0.00000000000E+00 -0.00000000000E+00 -0.11139519391E+03  0.11139519391E+03  0.00000000000E+00 0.  1.
         25    2    1    2    0    0  0.21182455914E+02  0.46943879036E+02 -0.24379193310E+02  0.13745628487E+03  0.12508981160E+03 0.  0.
          5    1    3    3  502    0  0.56269321672E+01  0.89483569566E+02 -0.14758271348E+02  0.90962907611E+02  0.41800000000E+01 0.  1.
         -5    1    3    3    0  502  0.15555523747E+02 -0.42539690530E+02 -0.96209219618E+01  0.46493377258E+02  0.41800000000E+01 0.  1.
        -11    1    1    2    0    0 -0.36576591039E+02  0.16625853000E+02  0.23772810850E+02  0.46684178644E+02  0.00000000000E+00 0.  1.
         11    1    1    2    0    0  0.15394135125E+02 -0.63569732036E+02  0.37204463799E+02  0.75248005647E+02  0.00000000000E+00 0. -1.
</event>
<event>
 7    1  0.2440960E-009  0.1523233E+03  0.7561462E-02  0.1197647E+00
         -2   -1    0    0    0  501 -0.00000000000E+00  0.00000000000E+00  0.26573506186E+02  0.26573506186E+02  0.00000000000E+00 0.  1.
          2   -1    0    0  501    0  0.00000000000E+00 -0.00000000000E+00 -0.12391401066E+04  0.12391401066E+04  0.00000000000E+00 0. -1.
         25    2    1    2    0    0 -0.10017044533E+03 -0.44730531641E+02 -0.97242360883E+03  0.98655546557E+03  0.12509625521E+03 0.  0.
          5    1    3    3  502    0  0.20779522278E+02 -0.35107242298E+02 -0.35068494458E+03  0.35307465183E+03  0.41800000000E+01 0.  1.
         -5    1    3    3    0  502 -0.12094996761E+03 -0.96232893424E+01 -0.62173866424E+03  0.63348081374E+03  0.41800000000E+01 0.  1.
        -11    1    1    2    0    0  0.42628162940E+02  0.67923806469E+02 -0.14073488304E+03  0.16197873646E+03  0.00000000000E+00 0.  1.
         11    1    1    2    0    0  0.57542282391E+02 -0.23193274829E+02 -0.99408108553E+02  0.11717941076E+03  0.00000000000E+00 0. -1.
</event>
<event>
 7    1  0.2440960E-009  0.1059378E+03  0.7561462E-02  0.1268283E+00
          2   -1    0    0  501    0  0.00000000000E+00  0.00000000000E+00  0.59612803176E+03  0.59612803176E+03  0.00000000000E+00 0. -1.
         -2   -1    0    0    0  501 -0.00000000000E+00 -0.00000000000E+00 -0.27341000374E+02  0.27341000374E+02  0.00000000000E+00 0.  1.
         25    2    1    2    0    0  0.56289381421E+00  0.50768841404E+02  0.20904498331E+03  0.24884814380E+03  0.12509117281E+03 0.  0.
          5    1    3    3  502    0  0.49958065888E+02  0.55705801724E+02  0.16920853459E+03  0.18506200386E+03  0.41800000000E+01 0. -1.
         -5    1    3    3    0  502 -0.49395172074E+02 -0.49369603207E+01  0.39836448723E+02  0.63786139939E+02  0.41800000000E+01 0. -1.
        -11    1    1    2    0    0  0.56342529236E+01  0.17593321181E+02  0.17107288315E+02  0.25177948083E+02  0.00000000000E+00 0.  1.
         11    1    1    2    0    0 -0.61971467378E+01 -0.68362162584E+02  0.34263475975E+03  0.34944294025E+03  0.00000000000E+00 0. -1.
</event>
<event>
 7    1  0.2440960E-009  0.1449898E+03  0.7561462E-02  0.1206768E+00
          1   -1    0    0  501    0  0.00000000000E+00  0.00000000000E+00  0.78512185725E+03  0.78512185725E+03  0.00000000000E+00 0. -1.
         -1   -1    0    0    0  501 -0.00000000000E+00 -0.00000000000E+00 -0.38879205111E+02  0.38879205111E+02  0.00000000000E+00 0.  1.
         25    2    1    2    0    0 -0.91559298231E+02 -0.86535781495E+02  0.28966403844E+03  0.33974120646E+03  0.12508911076E+03 0.  0.
          5    1    3    3  502    0 -0.45579299422E+01 -0.37485315947E+02  0.53513512145E+01  0.38367082204E+02  0.41800000000E+01 0. -1.
         -5    1    3    3    0  502 -0.87001368289E+02 -0.49050465547E+02  0.28431268723E+03  0.30137412426E+03  0.41800000000E+01 0. -1.
        -11    1    1    2    0    0  0.37047647892E+02 -0.12397710744E+02  0.57595429038E+02  0.69595006229E+02  0.00000000000E+00 0.  1.
         11    1    1    2    0    0  0.54511650339E+02  0.98933492239E+02  0.39898318466E+03  0.41466484967E+03  0.00000000000E+00 0. -1.
</event>
<event>
 7    1  0.2440960E-009  0.1347602E+03  0.7561462E-02  0.1220559E+00
         -1   -1    0    0    0  501 -0.00000000000E+00  0.00000000000E+00  0.22112669888E+02  0.22112669888E+02  0.00000000000E+00 0.  1.
          1   -1    0    0  501    0  0.00000000000E+00 -0.00000000000E+00 -0.10561672332E+04  0.10561672332E+04  0.00000000000E+00 0. -1.
         25    2    1    2    0    0  0.66924797460E+02 -0.79631279809E+02 -0.64714473763E+03  0.66728086979E+03  0.12508948198E+03 0.  0.
          5    1    3    3  502    0 -0.15238201061E+02  0.18617131646E+01 -0.31732176266E+03  0.31772038368E+03  0.41800000000E+01 0.  1.
         -5    1    3    3    0  502  0.82162998521E+02 -0.81492992973E+02 -0.32982297498E+03  0.34956048611E+03  0.41800000000E+01 0.  1.
        -11    1    1    2    0    0 -0.48884330146E+02 -0.69451287776E+01 -0.11775183611E+03  0.12768479727E+03  0.00000000000E+00 0.  1.
         11    1    1    2    0    0 -0.18040467315E+02  0.86576408586E+02 -0.26915798954E+03  0.28331423600E+03  0.00000000000E+00 0. -1.
</event>
<event>
 7    1  0.2440960E-009  0.1371170E+03  0.7561462E-02  0.1217262E+00
         -4   -1    0    0    0  501 -0.00000000000E+00  0.00000000000E+00  0.10053773861E+03  0.10053773861E+03  0.00000000000E+00 0.  1.
          4   -1    0    0  501    0  0.00000000000E+00 -0.00000000000E+00 -0.25606515823E+03  0.25606515823E+03  0.00000000000E+00 0. -1.
         25    2    1    2    0    0 -0.98003992406E+02  0.25558516646E+02 -0.14840895769E+03  0.21893137382E+03  0.12509079671E+03 0.  0.
          5    1    3    3  502    0  0.32987457347E+00  0.51826365875E+02 -0.21676156750E+02  0.56333020410E+02  0.41800000000E+01 0. -1.
         -5    1    3    3    0  502 -0.98333866979E+02 -0.26267849230E+02 -0.12673280094E+03  0.16259835341E+03  0.41800000000E+01 0. -1.
        -11    1    1    2    0    0  0.39408247362E+02 -0.43878900812E+02 -0.36761608140E+02  0.69496645456E+02  0.00000000000E+00 0. -1.
         11    1    1    2    0    0  0.58595745044E+02  0.18320384166E+02  0.29643146209E+02  0.68174877560E+02  0.00000000000E+00 0.  1.
</event>
<event>
 7    1  0.2440960E-009  0.1051332E+03  0.7561462E-02  0.1269857E+00
          1   -1    0    0  501    0  0.00000000000E+00  0.00000000000E+00  0.47592318276E+03  0.47592318276E+03  0.00000000000E+00 0. -1.
         -1   -1    0    0    0  501 -0.00000000000E+00 -0.00000000000E+00 -0.33260453642E+02  0.33260453642E+02  0.00000000000E+00 0.  1.
         25    2    1    2    0    0 -0.56977086211E+02  0.35964950720E+02  0.25844447061E+03  0.29492589910E+03  0.12509146869E+03 0.  0.
          5    1    3    3  502    0 -0.80487477720E+02  0.65565233740E+02  0.19517219743E+03  0.22110335365E+03  0.41800000000E+01 0. -1.
         -5    1    3    3    0  502  0.23510391509E+02 -0.29600283021E+02  0.63272273172E+02  0.73822545447E+02  0.41800000000E+01 0. -1.
        -11    1    1    2    0    0  0.30101258316E+02 -0.12259913382E+02  0.67349185526E+01  0.33192625028E+02  0.00000000000E+00 0.  1.
         11    1    1    2    0    0  0.26875827894E+02 -0.23705037338E+02  0.17748333996E+03  0.18106511228E+03  0.00000000000E+00 0. -1.
</event>
<event>
 7    1  0.2440960E-009  0.1154746E+03  0.7561462E-02  0.1250755E+00
         -1   -1    0    0    0  501 -0.00000000000E+00  0.00000000000E+00  0.19865718577E+03  0.19865718577E+03  0.00000000000E+00 0.  1.
          1   -1    0    0  501    0  0.00000000000E+00 -0.00000000000E+00 -0.89301677124E+02  0.89301677124E+02  0.00000000000E+00 0. -1.
         25    2    1    2    0    0 -0.10626088168E+01  0.78098684768E+02  0.65059540366E+02  0.16118626952E+03  0.12509091090E+03 0.  0.
          5    1    3    3  502    0  0.13713164435E+02  0.94444005418E+02  0.87439986031E+02  0.12950268181E+03  0.41800000000E+01 0.  1.
         -5    1    3    3    0  502 -0.14775773252E+02 -0.16345320650E+02 -0.22380445665E+02  0.31683587715E+02  0.41800000000E+01 0.  1.
        -11    1    1    2    0    0 -0.37137106853E+02 -0.60382057270E+02  0.82940331776E+01  0.71371902958E+02  0.00000000000E+00 0.  1.
         11    1    1    2    0    0  0.38199715670E+02 -0.17716627498E+02  0.36001935105E+02  0.55400690415E+02  0.00000000000E+00 0. -1.
</event>
<event>
 7    1  0.2440960E-009  0.1078954E+03  0.7561462E-02  0.1264518E+00
          2   -1    0    0  501    0  0.00000000000E+00  0.00000000000E+00  0.36455128802E+03  0.36455128802E+03  0.00000000000E+00 0. -1.
         -2   -1    0    0    0  501 -0.00000000000E+00 -0.00000000000E+00 -0.47990020684E+02  0.47990020684E+02  0.00000000000E+00 0.  1.
         25    2    1    2    0    0  0.25460211706E+02 -0.42400557089E+02  0.26356917880E+03  0.29590862541E+03  0.12508866040E+03 0.  0.
          5    1    3    3  502    0 -0.16295771534E+01  0.32669371656E+02  0.16856887560E+03  0.17176402879E+03  0.41800000000E+01 0. -1.
         -5    1    3    3    0  502  0.27089788859E+02 -0.75069928745E+02  0.95000303200E+02  0.12414459662E+03  0.41800000000E+01 0. -1.
        -11    1    1    2    0    0  0.28363503762E+02  0.39979699926E+02  0.33339233307E+02  0.59282115594E+02  0.00000000000E+00 0. -1.
         11    1    1    2    0    0 -0.53823715468E+02  0.24208571639E+01  0.19652855226E+02  0.57350567693E+02  0.00000000000E+00 0.  1.
</event>
<event>
 7    1  0.2440960E-009  0.1805212E+03  0.7561462E-02  0.1167300E+00
         -2   -1    0    0    0  501 -0.00000000000E+00  0.00000000000E+00  0.68775222909E+03  0.68775222909E+03  0.00000000000E+00 0.  1.
          2   -1    0    0  501    0  0.00000000000E+00 -0.00000000000E+00 -0.66260725355E+02  0.66260725355E+02  0.00000000000E+00 0. -1.
         25    2    1    2    0    0  0.15641105420E+03 -0.36900079322E+02  0.16751290821E+03  0.26369297426E+03  0.12508947409E+03 0.  0.
          5    1    3    3  502    0  0.14129919378E+03 -0.66776966454E+02  0.16860484452E+03  0.22993410232E+03  0.41800000000E+01 0.  1.
         -5    1    3    3    0  502  0.15111860420E+02  0.29876887133E+02 -0.10919363093E+01  0.33758871945E+02  0.41800000000E+01 0.  1.
        -11    1    1    2    0    0 -0.12341216614E+03  0.52919729354E+02  0.41760017937E+03  0.43865814744E+03  0.00000000000E+00 0. -1.
         11    1    1    2    0    0 -0.32998888058E+02 -0.16019650033E+02  0.36378416150E+02  0.51661832738E+02  0.00000000000E+00 0.  1.
</event>
<event>
 7    1  0.2440960E-009  0.1315534E+03  0.7561462E-02  0.1225169E+00
          2   -1    0    0  501    0  0.00000000000E+00  0.00000000000E+00  0.60953888237E+02  0.60953888237E+02  0.00000000000E+00 0. -1.
         -2   -1    0    0    0  501 -0.00000000000E+00 -0.00000000000E+00 -0.36257913482E+03  0.36257913482E+03  0.00000000000E+00 0.  1.
         25    2    1    2    0    0 -0.67102021513E+02  0.58248541191E+02 -0.23554819153E+03  0.28111137224E+03  0.12508029112E+03 0.  0.
          5    1    3    3  502    0  0.16578723968E+02 -0.18027424299E+02 -0.66738913308E+01  0.25726549337E+02  0.41800000000E+01 0.  1.
         -5    1    3    3    0  502 -0.83680745481E+02  0.76275965490E+02 -0.22887430020E+03  0.25538482290E+03  0.41800000000E+01 0.  1.
        -11    1    1    2    0    0 -0.71189152343E+01 -0.49742647040E+02 -0.36344878995E+02  0.62015805387E+02  0.00000000000E+00 0.  1.
         11    1    1    2    0    0  0.74220936747E+02 -0.85058941514E+01 -0.29732176059E+02  0.80405845435E+02  0.00000000000E+00 0. -1.
</event>
<event>
 7    1  0.2440960E-009  0.1149308E+03  0.7561462E-02  0.1251702E+00
          1   -1    0    0  501    0  0.00000000000E+00  0.00000000000E+00  0.58038970995E+03  0.58038970995E+03  0.00000000000E+00 0.  1.
         -1   -1    0    0    0  501 -0.00000000000E+00 -0.00000000000E+00 -0.29789247855E+02  0.29789247855E+02  0.00000000000E+00 0. -1.
         25    2    1    2    0    0 -0.30295525843E+02  0.39433638284E+02  0.34068555799E+03  0.36631566922E+03  0.12509072459E+03 0.  0.
          5    1    3    3  502    0 -0.33629446274E+02  0.80192718170E+02  0.17307437590E+03  0.19373699620E+03  0.41800000000E+01 0.  1.
         -5    1    3    3    0  502  0.33339204314E+01 -0.40759079886E+02  0.16761118210E+03  0.17257867302E+03  0.41800000000E+01 0.  1.
        -11    1    1    2    0    0 -0.13136233400E+02 -0.54239985431E+02  0.42151533892E+02  0.69937747010E+02  0.00000000000E+00 0. -1.
         11    1    1    2    0    0  0.43431759243E+02  0.14806347147E+02  0.16776337021E+03  0.17392554157E+03  0.00000000000E+00 0.  1.
</event>
<event>
 7    1  0.2440960E-009  0.1008709E+03  0.7561462E-02  0.1278475E+00
          3   -1    0    0  501    0  0.00000000000E+00  0.00000000000E+00  0.38951980760E+03  0.38951980760E+03  0.00000000000E+00 0. -1.
         -3   -1    0    0    0  501 -0.00000000000E+00 -0.00000000000E+00 -0.31308322312E+02  0.31308322312E+02  0.00000000000E+00 0.  1.
         25    2    1    2    0    0  0.82362614905E+01 -0.41634714127E+02  0.16517932767E+03  0.21150227800E+03  0.12509083855E+03 0.  0.
          5    1    3    3  502    0  0.51239722516E+02  0.20563524866E+02  0.82737225373E+02  0.99555454802E+02  0.41800000000E+01 0. -1.
         -5    1    3    3    0  502 -0.43003461026E+02 -0.62198238993E+02  0.82442102292E+02  0.11194682320E+03  0.41800000000E+01 0. -1.
        -11    1    1    2    0    0  0.23902784431E+02  0.11276098892E+02  0.28120352178E+02  0.38590772425E+02  0.00000000000E+00 0.  1.
         11    1    1    2    0    0 -0.32139045921E+02  0.30358615235E+02  0.16491180545E+03  0.17073507949E+03  0.00000000000E+00 0. -1.
</event>
<event>
 7    1  0.2440960E-009  0.8061876E+02  0.7561462E-02  0.1327305E+00
         -2   -1    0    0    0  501 -0.00000000000E+00  0.00000000000E+00  0.28464767060E+02  0.28464767060E+02  0.00000000000E+00 0.  1.
          2   -1    0    0  501    0  0.00000000000E+00 -0.00000000000E+00 -0.44379818418E+03  0.44379818418E+03  0.00000000000E+00 0. -1.
         25    2    1    2    0    0 -0.42400751969E+01  0.81998061661E+01 -0.17549435037E+03  0.21571054240E+03  0.12509019159E+03 0.  0.
          5    1    3    3  502    0  0.35645105570E+02 -0.16166644166E+02 -0.16224298482E+03  0.16694967043E+03  0.41800000000E+01 0.  1.
         -5    1    3    3    0  502 -0.39885180767E+02  0.24366450332E+02 -0.13251365557E+02  0.48760871974E+02  0.41800000000E+01 0.  1.
        -11    1    1    2    0    0 -0.30695093677E+02  0.13810254940E+02 -0.39014966259E+02  0.51527463644E+02  0.00000000000E+00 0.  1.
         11    1    1    2    0    0  0.34935168874E+02 -0.22010061106E+02 -0.20082410049E+03  0.20502494519E+03  0.00000000000E+00 0. -1.
</event>
<event>
 7    1  0.2440960E-009  0.1057888E+03  0.7561462E-02  0.1268573E+00
          2   -1    0    0  501    0  0.00000000000E+00  0.00000000000E+00  0.45936374693E+03  0.45936374693E+03  0.00000000000E+00 0. -1.
         -2   -1    0    0    0  501 -0.00000000000E+00 -0.00000000000E+00 -0.32172355890E+02  0.32172355890E+02  0.00000000000E+00 0.  1.
         25    2    1    2    0    0  0.22321615299E+02 -0.48941388007E+02  0.23463719539E+03  0.27129014250E+03  0.12510081529E+03 0.  0.
          5    1    3    3  502    0  0.27247154330E+02 -0.76437320706E+02  0.79766686209E+02  0.11386513094E+03  0.41800000000E+01 0.  1.
         -5    1    3    3    0  502 -0.49255390303E+01  0.27495932699E+02  0.15487050918E+03  0.15742501156E+03  0.41800000000E+01 0.  1.
        -11    1    1    2    0    0 -0.48058010349E+01 -0.25322891673E+02  0.81706548014E+02  0.85675577352E+02  0.00000000000E+00 0.  1.
         11    1    1    2    0    0 -0.17515814265E+02  0.74264279680E+02  0.11084764763E+03  0.13457038296E+03  0.00000000000E+00 0. -1.
</event>
<event>
 7    1  0.2440960E-009  0.1264330E+03  0.7561462E-02  0.1232847E+00
         -1   -1    0    0    0  501 -0.00000000000E+00  0.00000000000E+00  0.20496667464E+02  0.20496667464E+02  0.00000000000E+00 0.  1.
          1   -1    0    0  501    0  0.00000000000E+00 -0.00000000000E+00 -0.92355596453E+03  0.92355596453E+03  0.00000000000E+00 0. -1.
         25    2    1    2    0    0 -0.39900492512E+02  0.71642236911E+02 -0.55569378674E+03  0.57547079361E+03  0.12508553177E+03 0.  0.
          5    1    3    3  502    0 -0.67037549932E+02  0.87739320246E+02 -0.49214662415E+03  0.50439864540E+03  0.41800000000E+01 0.  1.
         -5    1    3    3    0  502  0.27137057420E+02 -0.16097083336E+02 -0.63547162589E+02  0.71072148205E+02  0.41800000000E+01 0.  1.
        -11    1    1    2    0    0 -0.59737053765E+01 -0.63705632373E+02 -0.11503422499E+03  0.13163193256E+03  0.00000000000E+00 0.  1.
         11    1    1    2    0    0  0.45874197888E+02 -0.79366045374E+01 -0.23233128534E+03  0.23694990583E+03  0.00000000000E+00 0. -1.
</event>
<event>
 7    1  0.2440960E-009  0.2028407E+03  0.7561462E-02  0.1147364E+00
         -1   -1    0    0    0  501 -0.00000000000E+00  0.00000000000E+00  0.73781199174E+03  0.73781199174E+03  0.00000000000E+00 0.  1.
          1   -1    0    0  501    0  0.00000000000E+00 -0.00000000000E+00 -0.67741683375E+02  0.67741683375E+02  0.00000000000E+00 0. -1.
         25    2    1    2    0    0 -0.17199268206E+03  0.78412872116E+02  0.43574203973E+03  0.49117073156E+03  0.12508997226E+03 0.  0.
          5    1    3    3  502    0 -0.86944422211E+02 -0.16902214522E+02  0.11024511645E+03  0.14147959397E+03  0.41800000000E+01 0.  1.
         -5    1    3    3    0  502 -0.85048259851E+02  0.95315086638E+02  0.32549692328E+03  0.34969113759E+03  0.41800000000E+01 0.  1.
        -11    1    1    2    0    0  0.83409389857E+02 -0.33553188807E+02  0.17998488674E+03  0.20119021410E+03  0.00000000000E+00 0.  1.
         11    1    1    2    0    0  0.88583292205E+02 -0.44859683309E+02  0.54343381892E+02  0.11319272945E+03  0.00000000000E+00 0. -1.
</event>
<event>
 7    1  0.2440960E-009  0.1147076E+03  0.7561462E-02  0.1252092E+00
         -3   -1    0    0    0  501 -0.00000000000E+00  0.00000000000E+00  0.71398256868E+02  0.71398256868E+02  0.00000000000E+00 0.  1.
          3   -1    0    0  501    0  0.00000000000E+00 -0.00000000000E+00 -0.19723096313E+03  0.19723096313E+03  0.00000000000E+00 0. -1.
         25    2    1    2    0    0  0.45774010567E+02 -0.13552616465E+02 -0.87605036264E+02  0.16000737720E+03  0.12509510351E+03 0.  0.
          5    1    3    3  502    0 -0.43397787382E+01  0.50073941777E+02 -0.48502639258E+02  0.69972935765E+02  0.41800000000E+01 0. -1.
         -5    1    3    3    0  502  0.50113789305E+02 -0.63626558243E+02 -0.39102397007E+02  0.90034441432E+02  0.41800000000E+01 0. -1.
        -11    1    1    2    0    0 -0.57175473115E+01 -0.34699972538E+02  0.16993129488E-01  0.35167865021E+02  0.00000000000E+00 0.  1.
         11    1    1    2    0    0 -0.40056463255E+02  0.48252589003E+02 -0.38244663129E+02  0.73453977781E+02  0.00000000000E+00 0. -1.
</event>
<event>
 7    1  0.2440960E-009  0.1237448E+03  0.7561462E-02  0.1237044E+00
          1   -1    0    0  501    0  0.00000000000E+00  0.00000000000E+00  0.28805645372E+03  0.28805645372E+03  0.00000000000E+00 0. -1.
         -1   -1    0    0    0  501 -0.00000000000E+00 -0.00000000000E+00 -0.68398104561E+02  0.68398104561E+02  0.00000000000E+00 0.  1.
         25    2    1    2    0    0 -0.40774223209E+01 -0.84196084776E+02  0.14858155148E+03  0.21173076109E+03  0.12509129340E+03 0.  0.
          5    1    3    3  502    0  0.41448479707E+02 -0.51835814731E+02  0.14009864255E+03  0.15508072157E+03  0.41800000000E+01 0. -1.
         -5    1    3    3    0  502 -0.45525902028E+02 -0.32360270045E+02  0.84829089298E+01  0.56650039512E+02  0.41800000000E+01 0. -1.
        -11    1    1    2    0    0  0.79205639371E+01  0.10425395508E+03  0.51976704286E+02  0.11676129612E+03  0.00000000000E+00 0.  1.
         11    1    1    2    0    0 -0.38431416162E+01 -0.20057870308E+02  0.19100093392E+02  0.27962501075E+02  0.00000000000E+00 0. -1.
</event>
<event>
 7    1  0.2440960E-009  0.1061808E+03  0.7561462E-02  0.1267810E+00
          2   -1    0    0  501    0  0.00000000000E+00  0.00000000000E+00  0.18565921549E+03  0.18565921549E+03  0.00000000000E+00 0. -1.
         -2   -1    0    0    0  501 -0.00000000000E+00 -0.00000000000E+00 -0.98583877984E+02  0.98583877984E+02  0.00000000000E+00 0.  1.
         25    2    1    2    0    0 -0.56695395522E+02 -0.40640211885E+02  0.88710096944E+02  0.16847347384E+03  0.12509130822E+03 0.  0.
          5    1    3    3  502    0  0.21467151503E+02 -0.57603838366E+02  0.26559416262E+02  0.67096317189E+02  0.41800000000E+01 0.  1.
         -5    1    3    3    0  502 -0.78162547025E+02  0.16963626480E+02  0.62150680682E+02  0.10137715665E+03  0.41800000000E+01 0.  1.
        -11    1    1    2    0    0  0.30304136886E+02  0.28516493719E+02 -0.46452286450E+02  0.62364621725E+02  0.00000000000E+00 0.  1.
         11    1    1    2    0    0  0.26391258636E+02  0.12123718167E+02  0.44817527015E+02  0.53404997915E+02  0.00000000000E+00 0. -1.
</event>
<event>
 7    1  0.2514071E-009  0.1661902E+03  0.7561462E-02  0.1181880E+00
         -1   -1    0    0    0  501 -0.00000000000E+00  0.00000000000E+00  0.30288526422E+02  0.30288526422E+02  0.00000000000E+00 0.  1.
          1   -1    0    0  501    0  0.00000000000E+00 -0.00000000000E+00 -0.12610293142E+04  0.12610293142E+04  0.00000000000E+00 0. -1.
         25    2    1    2    0    0 -0.22660083431E+02  0.16028368091E+03 -0.60193130032E+03  0.63574618134E+03  0.12509028355E+03 0.  0.
          5    1    3    3  502    0 -0.21275172199E+01  0.14172169251E+03 -0.58726922172E+03  0.60414582316E+03  0.41800000000E+01 0. -1.
         -5    1    3    3    0  502 -0.20532566211E+02  0.18561988396E+02 -0.14662078596E+02  0.31600358181E+02  0.41800000000E+01 0. -1.
        -11    1    1    2    0    0  0.34522695502E+01 -0.78625636194E+02 -0.14923458565E+03  0.16871535314E+03  0.00000000000E+00 0.  1.
         11    1    1    2    0    0  0.19207813880E+02 -0.81658044714E+02 -0.47957490179E+03  0.48685630612E+03  0.00000000000E+00 0. -1.
</event>
<event>
 7    1  0.2440960E-009  0.2222005E+03  0.7561462E-02  0.1132253E+00
          1   -1    0    0  501    0  0.00000000000E+00  0.00000000000E+00  0.14634662936E+04  0.14634662936E+04  0.00000000000E+00 0. -1.
         -1   -1    0    0    0  501 -0.00000000000E+00 -0.00000000000E+00 -0.36826337841E+02  0.36826337841E+02  0.00000000000E+00 0.  1.
         25    2    1    2    0    0 -0.78785668716E+02  0.18768337057E+03  0.66227859556E+03  0.70405497677E+03  0.12509293743E+03 0.  0.
          5    1    3    3  502    0 -0.19966346983E+02  0.15001414418E+03  0.31120866212E+03  0.34607976284E+03  0.41800000000E+01 0. -1.
         -5    1    3    3    0  502 -0.58819321733E+02  0.37669226391E+02  0.35106993344E+03  0.35797521394E+03  0.41800000000E+01 0. -1.
        -11    1    1    2    0    0 -0.98339957084E+01 -0.92352464448E+02  0.31578236894E+03  0.32915678589E+03  0.00000000000E+00 0.  1.
         11    1    1    2    0    0  0.88619664424E+02 -0.95330906123E+02  0.44857899122E+03  0.46708086874E+03  0.00000000000E+00 0. -1.
</event>
<event>
 7    1  0.2440960E-009  0.8540698E+02  0.7561462E-02  0.1314372E+00
          1   -1    0    0  501    0  0.00000000000E+00  0.00000000000E+00  0.40731877219E+02  0.40731877219E+02  0.00000000000E+00 0. -1.
         -1   -1    0    0    0  501 -0.00000000000E+00 -0.00000000000E+00 -0.45619321930E+03  0.45619321930E+03  0.00000000000E+00 0.  1.
         25    2    1    2    0    0 -0.62500538687E+02 -0.16908579429E+02 -0.13434332094E+03  0.19464878609E+03  0.12509118535E+03 0.  0.
          5    1    3    3  502    0 -0.59158673819E+02 -0.34053625396E+02 -0.10118376878E+02  0.69132134650E+02  0.41800000000E+01 0.  1.
         -5    1    3    3    0  502 -0.33418648683E+01  0.17145045967E+02 -0.12422494406E+03  0.12551665144E+03  0.41800000000E+01 0.  1.
        -11    1    1    2    0    0  0.61686563587E+02 -0.56017611433E+01 -0.27026676308E+03  0.27727375476E+03  0.00000000000E+00 0.  1.
         11    1    1    2    0    0  0.81397509974E+00  0.22510340572E+02 -0.10851258057E+02  0.25002555660E+02  0.00000000000E+00 0. -1.
</event>
<event>
 7    1  0.2440960E-009  0.2857432E+03  0.7561462E-02  0.1092593E+00
         -2   -1    0    0    0  501 -0.00000000000E+00  0.00000000000E+00  0.14396271124E+03  0.14396271124E+03  0.00000000000E+00 0.  1.
          2   -1    0    0  501    0  0.00000000000E+00 -0.00000000000E+00 -0.11527123910E+04  0.11527123910E+04  0.00000000000E+00 0. -1.
         25    2    1    2    0    0 -0.12838941920E+03  0.23405901560E+03 -0.52720052498E+02  0.29949018269E+03  0.12508996700E+03 0.  0.
          5    1    3    3  502    0 -0.56876887814E+02  0.21188681671E+03 -0.32473413599E+02  0.22181748906E+03  0.41800000000E+01 0. -1.
         -5    1    3    3    0  502 -0.71512531386E+02  0.22172198894E+02 -0.20246638899E+02  0.77672693630E+02  0.41800000000E+01 0. -1.
        -11    1    1    2    0    0  0.11204161777E+03 -0.12949642656E+03 -0.68868237130E+03  0.70965206767E+03  0.00000000000E+00 0. -1.
         11    1    1    2    0    0  0.16347801434E+02 -0.10456258904E+03 -0.26734725594E+03  0.28753285186E+03  0.00000000000E+00 0.  1.
</event>
<event>
 7    1  0.2440960E-009  0.2705105E+03  0.7561462E-02  0.1100988E+00
          2   -1    0    0  501    0  0.00000000000E+00  0.00000000000E+00  0.17017638753E+04  0.17017638753E+04  0.00000000000E+00 0. -1.
         -2   -1    0    0    0  501 -0.00000000000E+00 -0.00000000000E+00 -0.49049321554E+02  0.49049321554E+02  0.00000000000E+00 0.  1.
         25    2    1    2    0    0 -0.25997814192E+03  0.61240471605E+02  0.86327420663E+03  0.91226659752E+03  0.12509580119E+03 0.  0.
          5    1    3    3  502    0 -0.15656653121E+03  0.52935940663E+02  0.69617935151E+03  0.71554067276E+03  0.41800000000E+01 0.  1.
         -5    1    3    3    0  502 -0.10341161070E+03  0.83045309417E+01  0.16709485512E+03  0.19672592475E+03  0.41800000000E+01 0.  1.
        -11    1    1    2    0    0  0.19152247011E+02 -0.19715269617E+02  0.29688640310E+02  0.40458815913E+02  0.00000000000E+00 0.  1.
         11    1    1    2    0    0  0.24082589490E+03 -0.41525201988E+02  0.75975170682E+03  0.79808778344E+03  0.00000000000E+00 0. -1.
</event>
<event>
 7    1  0.2440960E-009  0.2048997E+03  0.7561462E-02  0.1145670E+00
         -2   -1    0    0    0  501 -0.00000000000E+00  0.00000000000E+00  0.13943325315E+04  0.13943325315E+04  0.00000000000E+00 0.  1.
          2   -1    0    0  501    0  0.00000000000E+00 -0.00000000000E+00 -0.41189442129E+02  0.41189442129E+02  0.00000000000E+00 0. -1.
         25    2    1    2    0    0 -0.64633190245E+02 -0.18907678879E+03  0.98055609284E+03  0.10084971300E+04  0.12509487860E+03 0.  0.
          5    1    3    3  502    0  0.11540251742E+02 -0.14070117076E+02  0.32946823386E+03  0.32999687139E+03  0.41800000000E+01 0.  1.
         -5    1    3    3    0  502 -0.76173441987E+02 -0.17500667171E+03  0.65108785898E+03  0.67850025860E+03  0.41800000000E+01 0.  1.
        -11    1    1    2    0    0  0.22191469381E+02  0.84254750760E+02  0.10447147883E+03  0.13603534183E+03  0.00000000000E+00 0.  1.
         11    1    1    2    0    0  0.42441720864E+02  0.10482203803E+03  0.26811551766E+03  0.29098950176E+03  0.00000000000E+00 0. -1.
</event>
<event>
 7    1  0.2440960E-009  0.1950284E+03  0.7561462E-02  0.1154003E+00
          3   -1    0    0  501    0  0.00000000000E+00  0.00000000000E+00  0.54353935270E+03  0.54353935270E+03  0.00000000000E+00 0. -1.
         -3   -1    0    0    0  501 -0.00000000000E+00 -0.00000000000E+00 -0.83613363430E+02  0.83613363430E+02  0.00000000000E+00 0.  1.
         25    2    1    2    0    0  0.14362786472E+03 -0.96228471143E+02  0.31812601699E+03  0.38306729234E+03  0.12508998998E+03 0.  0.
          5    1    3    3  502    0  0.12337831499E+03 -0.12885517369E+02  0.15360097288E+03  0.19748158506E+03  0.41800000000E+01 0. -1.
         -5    1    3    3    0  502  0.20249549728E+02 -0.83342953774E+02  0.16452504410E+03  0.18558570727E+03  0.41800000000E+01 0. -1.
        -11    1    1    2    0    0 -0.20857135852E+02  0.39833643217E+02  0.87695726581E+02  0.98550899074E+02  0.00000000000E+00 0. -1.
         11    1    1    2    0    0 -0.12277072886E+03  0.56394827926E+02  0.54104245705E+02  0.14553452472E+03  0.00000000000E+00 0.  1.
</event>
<event>
 7    1  0.2440960E-009  0.1041193E+03  0.7561462E-02  0.1271865E+00
          2   -1    0    0  501    0  0.00000000000E+00  0.00000000000E+00  0.84533087048E+03  0.84533087048E+03  0.00000000000E+00 0. -1.
         -2   -1    0    0    0  501 -0.00000000000E+00 -0.00000000000E+00 -0.17709640492E+02  0.17709640492E+02  0.00000000000E+00 0.  1.
         25    2    1    2    0    0  0.72043050831E+01 -0.29763572058E+02  0.62812361240E+03  0.64118861906E+03  0.12508317445E+03 0.  0.
          5    1    3    3  502    0 -0.17772190773E+02 -0.71300852776E+02  0.27296516036E+03  0.28271383685E+03  0.41800000000E+01 0.  1.
         -5    1    3    3    0  502  0.24976495856E+02  0.41537280718E+02  0.35515845203E+03  0.35847478221E+03  0.41800000000E+01 0.  1.
        -11    1    1    2    0    0  0.21493308445E+02  0.47581069622E+02  0.66038478247E+02  0.84184328134E+02  0.00000000000E+00 0.  1.
         11    1    1    2    0    0 -0.28697613528E+02 -0.17817497564E+02  0.13345913935E+03  0.13766756378E+03  0.00000000000E+00 0. -1.
</event>
<event>
 7    1  0.2440960E-009  0.9573558E+02  0.7561462E-02  0.1289528E+00
         -1   -1    0    0    0  501 -0.00000000000E+00  0.00000000000E+00  0.50779629310E+02  0.50779629310E+02  0.00000000000E+00 0.  1.
          1   -1    0    0  501    0  0.00000000000E+00 -0.00000000000E+00 -0.32389173544E+03  0.32389173544E+03  0.00000000000E+00 0. -1.
         25    2    1    2    0    0  0.19813044239E+02 -0.36969117150E+02 -0.22112430719E+03  0.25749488755E+03  0.12509350717E+03 0.  0.
          5    1    3    3  502    0  0.62258274185E+02 -0.47034802976E+02 -0.18456595802E+03  0.20042562375E+03  0.41800000000E+01 0. -1.
         -5    1    3    3    0  502 -0.42445229946E+02  0.10065685826E+02 -0.36558349174E+02  0.57069263800E+02  0.41800000000E+01 0. -1.
        -11    1    1    2    0    0  0.66598666567E+01  0.42032022277E+02  0.14878606435E+02  0.45082342996E+02  0.00000000000E+00 0.  1.
         11    1    1    2    0    0 -0.26472910896E+02 -0.50629051265E+01 -0.66866405373E+02  0.72094134207E+02  0.00000000000E+00 0. -1.
</event>
<event>
 7    1  0.2440960E-009  0.7680556E+02  0.7561462E-02  0.1338369E+00
          2   -1    0    0  501    0  0.00000000000E+00  0.00000000000E+00  0.36677552636E+03  0.36677552636E+03  0.00000000000E+00 0. -1.
         -2   -1    0    0    0  501 -0.00000000000E+00 -0.00000000000E+00 -0.38424297546E+02  0.38424297546E+02  0.00000000000E+00 0.  1.
         25    2    1    2    0    0 -0.36461224427E+01  0.43400751615E+02  0.22226699496E+03  0.25873914821E+03  0.12508561197E+03 0.  0.
          5    1    3    3  502    0  0.19948395372E+02  0.65612419643E+02  0.54157331593E+02  0.87483810243E+02  0.41800000000E+01 0. -1.
         -5    1    3    3    0  502 -0.23594517815E+02 -0.22211668029E+02  0.16810966336E+03  0.17125533797E+03  0.41800000000E+01 0. -1.
        -11    1    1    2    0    0  0.15581142658E+02 -0.15938319181E+02 -0.11529905387E+02  0.25094635743E+02  0.00000000000E+00 0.  1.
         11    1    1    2    0    0 -0.11935020216E+02 -0.27462432434E+02  0.11761413924E+03  0.12136603995E+03  0.00000000000E+00 0. -1.
</event>
<event>
 7    1  0.2440960E-009  0.1985657E+03  0.7561462E-02  0.1150955E+00
         -3   -1    0    0    0  501 -0.00000000000E+00  0.00000000000E+00  0.18409419561E+03  0.18409419561E+03  0.00000000000E+00 0.  1.
          3   -1    0    0  501    0  0.00000000000E+00 -0.00000000000E+00 -0.22460680049E+03  0.22460680049E+03  0.00000000000E+00 0. -1.
         25    2    1    2    0    0  0.51862187767E+02 -0.16017469809E+03  0.79384302191E+01  0.20989253166E+03  0.12508491413E+03 0.  0.
          5    1    3    3  502    0  0.85137664431E+02 -0.60429128578E+02  0.24171945660E+01  0.10451515065E+03  0.41800000000E+01 0.  1.
         -5    1    3    3    0  502 -0.33275476665E+02 -0.99745569513E+02  0.55212356531E+01  0.10537738101E+03  0.41800000000E+01 0.  1.
        -11    1    1    2    0    0 -0.17212118965E+01  0.12761475636E+03 -0.10638216392E+02  0.12806896681E+03  0.00000000000E+00 0.  1.
         11    1    1    2    0    0 -0.50140975870E+02  0.32559941728E+02 -0.37812818706E+02  0.70739497631E+02  0.00000000000E+00 0. -1.
</event>
<event>
 7    1  0.2440960E-009  0.1117879E+03  0.7561462E-02  0.1257294E+00
          1   -1    0    0  501    0  0.00000000000E+00  0.00000000000E+00  0.74776671216E+02  0.74776671216E+02  0.00000000000E+00 0. -1.
         -1   -1    0    0    0  501 -0.00000000000E+00 -0.00000000000E+00 -0.19229126814E+03  0.19229126814E+03  0.00000000000E+00 0.  1.
         25    2    1    2    0    0 -0.25565775684E+02 -0.29194205218E+02 -0.35157475716E+02  0.13559810798E+03  0.12507952784E+03 0.  0.
          5    1    3    3  502    0  0.27291784273E+02  0.36925936243E+02 -0.14927213144E+02  0.48462979154E+02  0.41800000000E+01 0. -1.
         -5    1    3    3    0  502 -0.52857559957E+02 -0.66120141461E+02 -0.20230262572E+02  0.87135128824E+02  0.41800000000E+01 0. -1.
        -11    1    1    2    0    0  0.33108035349E+02 -0.22785271598E+02 -0.64493060610E+02  0.75991219712E+02  0.00000000000E+00 0.  1.
         11    1    1    2    0    0 -0.75422596645E+01  0.51979476816E+02 -0.17864060593E+02  0.55478611661E+02  0.00000000000E+00 0. -1.
</event>
<event>
 7    1  0.2440960E-009  0.1856146E+03  0.7561462E-02  0.1162477E+00
          2   -1    0    0  501    0  0.00000000000E+00  0.00000000000E+00  0.52433817154E+03  0.52433817154E+03  0.00000000000E+00 0. -1.
         -2   -1    0    0    0  501 -0.00000000000E+00 -0.00000000000E+00 -0.68924425211E+02  0.68924425211E+02  0.00000000000E+00 0.  1.
         25    2    1    2    0    0  0.58810690274E+02  0.14113103037E+03  0.20549945709E+03  0.28504768504E+03  0.12508193659E+03 0.  0.
          5    1    3    3  502    0  0.77334340095E+02  0.38104554085E+02  0.12947339213E+03  0.15560651936E+03  0.41800000000E+01 0. -1.
         -5    1    3    3    0  502 -0.18523649821E+02  0.10302647628E+03  0.76026064963E+02  0.12944116568E+03  0.41800000000E+01 0. -1.
        -11    1    1    2    0    0 -0.61074337736E+02 -0.28321347139E+02  0.10104292117E+03  0.12141600122E+03  0.00000000000E+00 0. -1.
         11    1    1    2    0    0  0.22636474619E+01 -0.11280968323E+03  0.14887136807E+03  0.18679891049E+03  0.00000000000E+00 0.  1.
</event>
<event>
 7    1  0.2440960E-009  0.9995678E+02  0.7561462E-02  0.1280387E+00
         -2   -1    0    0    0  501 -0.00000000000E+00  0.00000000000E+00  0.62566614224E+02  0.62566614224E+02  0.00000000000E+00 0.  1.
          2   -1    0    0  501    0  0.00000000000E+00 -0.00000000000E+00 -0.22277429260E+03  0.22277429260E+03  0.00000000000E+00 0. -1.
         25    2    1    2    0    0  0.40706733298E+02  0.24330584756E+02 -0.92362869409E+02  0.16256250999E+03  0.12508658808E+03 0.  0.
          5    1    3    3  502    0  0.47951803367E+02  0.68677695736E+02 -0.38465453184E+02  0.92266271337E+02  0.41800000000E+01 0.  1.
         -5    1    3    3    0  502 -0.72450700695E+01 -0.44347110980E+02 -0.53897416226E+02  0.70296238650E+02  0.41800000000E+01 0.  1.
        -11    1    1    2    0    0  0.12074189015E+02  0.14806142083E+01  0.16184029954E+02  0.20246014037E+02  0.00000000000E+00 0.  1.
         11    1    1    2    0    0 -0.52780922313E+02 -0.25811198964E+02 -0.84028838923E+02  0.10253238280E+03  0.00000000000E+00 0. -1.
</event>
<event>
 7    1  0.2440960E-009  0.1226892E+03  0.7561462E-02  0.1238725E+00
         -2   -1    0    0    0  501 -0.00000000000E+00  0.00000000000E+00  0.16585655841E+02  0.16585655841E+02  0.00000000000E+00 0.  1.
          2   -1    0    0  501    0  0.00000000000E+00 -0.00000000000E+00 -0.96571904850E+03  0.96571904850E+03  0.00000000000E+00 0. -1.
         25    2    1    2    0    0 -0.77649885125E+01 -0.62978774245E+02 -0.47784972276E+03  0.49801019912E+03  0.12508868787E+03 0.  0.
          5    1    3    3  502    0  0.46040863512E+02  0.10032733819E+02 -0.20742596373E+03  0.21275201454E+03  0.41800000000E+01 0.  1.
         -5    1    3    3    0  502 -0.53805852024E+02 -0.73011508064E+02 -0.27042375903E+03  0.28525818458E+03  0.41800000000E+01 0.  1.
        -11    1    1    2    0    0  0.47216407889E+02  0.30854436911E+02 -0.31280855350E+03  0.31785307391E+03  0.00000000000E+00 0.  1.
         11    1    1    2    0    0 -0.39451419377E+02  0.32124337334E+02 -0.15847511639E+03  0.16644143130E+03  0.00000000000E+00 0. -1.
</event>
<event>
 7    1  0.2440960E-009  0.1488340E+03  0.7561462E-02  0.1201913E+00
         -2   -1    0    0    0  501 -0.00000000000E+00  0.00000000000E+00  0.10928111135E+03  0.10928111135E+03  0.00000000000E+00 0.  1.
          2   -1    0    0  501    0  0.00000000000E+00 -0.00000000000E+00 -0.22178919424E+03  0.22178919424E+03  0.00000000000E+00 0. -1.
         25    2    1    2    0    0  0.69196366287E+02 -0.85948442032E+02 -0.77316881469E+02  0.18384976786E+03  0.12509022819E+03 0.  0.
          5    1    3    3  502    0  0.98538312830E+02 -0.93817752079E+02 -0.62133457881E+02  0.14963157651E+03  0.41800000000E+01 0. -1.
         -5    1    3    3    0  502 -0.29341946543E+02  0.78693100466E+01 -0.15183423588E+02  0.34218191352E+02  0.41800000000E+01 0. -1.
        -11    1    1    2    0    0 -0.73244043803E+02  0.95589996535E+02 -0.11072704915E+02  0.12093280028E+03  0.00000000000E+00 0.  1.
         11    1    1    2    0    0  0.40476775160E+01 -0.96415545024E+01 -0.24118496501E+02  0.26287737444E+02  0.00000000000E+00 0. -1.
</event>
<event>
 7    1  0.2440960E-009  0.1292245E+03  0.7561462E-02  0.1228611E+00
          1   -1    0    0  501    0  0.00000000000E+00  0.00000000000E+00  0.34053122244E+03  0.34053122244E+03  0.00000000000E+00 0. -1.
         -1   -1    0    0    0  501 -0.00000000000E+00 -0.00000000000E+00 -0.59920686859E+02  0.59920686859E+02  0.00000000000E+00 0.  1.
         25    2    1    2    0    0 -0.31257365456E+02 -0.76526356417E+02  0.15301184635E+03  0.21422796173E+03  0.12509072045E+03 0.  0.
          5    1    3    3  502    0  0.26561129488E+02 -0.84174591961E+02  0.70209514380E+02  0.11286143647E+03  0.41800000000E+01 0. -1.
         -5    1    3    3    0  502 -0.57818494945E+02  0.76482355437E+01  0.82802331970E+02  0.10136652526E+03  0.41800000000E+01 0. -1.
        -11    1    1    2    0    0  0.52856588654E+02  0.72369878243E+02  0.44106265513E+02  0.99882835856E+02  0.00000000000E+00 0.  1.
         11    1    1    2    0    0 -0.21599223198E+02  0.41564781740E+01  0.83492423715E+02  0.86341111711E+02  0.00000000000E+00 0. -1.
</event>
<event>
 7    1  0.2440960E-009  0.1254779E+03  0.7561462E-02  0.1234324E+00
         -4   -1    0    0    0  501 -0.00000000000E+00  0.00000000000E+00  0.21460004934E+03  0.21460004934E+03  0.00000000000E+00 0.  1.
          4   -1    0    0  501    0  0.00000000000E+00 -0.00000000000E+00 -0.12600850787E+03  0.12600850787E+03  0.00000000000E+00 0. -1.
         25    2    1    2    0    0  0.31557543283E+02  0.11246751892E+03  0.91362087798E+02  0.19400369813E+03  0.12508230270E+03 0.  0.
          5    1    3    3  502    0  0.21475038767E+02  0.47186382830E+02 -0.26842852617E+02  0.58529848379E+02  0.41800000000E+01 0.  1.
         -5    1    3    3    0  502  0.10082504516E+02  0.65281136092E+02  0.11820494041E+03  0.13547384975E+03  0.41800000000E+01 0.  1.
        -11    1    1    2    0    0  0.19359862114E+02 -0.36257987945E+02  0.28214619366E+02  0.49854896418E+02  0.00000000000E+00 0.  1.
         11    1    1    2    0    0 -0.50917405397E+02 -0.76209530978E+02 -0.30985165688E+02  0.96749962671E+02  0.00000000000E+00 0. -1.
</event>
<event>
 7    1  0.2440960E-009  0.1003516E+03  0.7561462E-02  0.1279558E+00
         -1   -1    0    0    0  501 -0.00000000000E+00  0.00000000000E+00  0.16350448973E+03  0.16350448973E+03  0.00000000000E+00 0.  1.
          1   -1    0    0  501    0  0.00000000000E+00 -0.00000000000E+00 -0.16081529991E+03  0.16081529991E+03  0.00000000000E+00 0. -1.
         25    2    1    2    0    0  0.50987397274E+02 -0.74272873908E+02 -0.78211924607E+02  0.17286373570E+03  0.12509433037E+03 0.  0.
          5    1    3    3  502    0  0.37028596499E+02 -0.75418772371E+02  0.88470389938E+01  0.84586350457E+02  0.41800000000E+01 0. -1.
         -5    1    3    3    0  502  0.13958800775E+02  0.11458984629E+01 -0.87058963601E+02  0.88277385244E+02  0.41800000000E+01 0. -1.
        -11    1    1    2    0    0 -0.32047756263E+02  0.76454601325E+02  0.16806603864E+02  0.84586208561E+02  0.00000000000E+00 0. -1.
         11    1    1    2    0    0 -0.18939641012E+02 -0.21817274169E+01  0.64094510565E+02  0.66869845377E+02  0.00000000000E+00 0.  1.
</event>
<event>
 7    1  0.2440960E-009  0.1080358E+03  0.7561462E-02  0.1264251E+00
          2   -1    0    0  501    0  0.00000000000E+00  0.00000000000E+00  0.39247075356E+03  0.39247075356E+03  0.00000000000E+00 0. -1.
         -2   -1    0    0    0  501 -0.00000000000E+00 -0.00000000000E+00 -0.51977838799E+02  0.51977838799E+02  0.00000000000E+00 0.  1.
         25    2    1    2    0    0  0.42633483997E+02  0.12098691455E+02  0.59991447289E+02  0.14564371938E+03  0.12509647059E+03 0.  0.
          5    1    3    3  502    0 -0.15449990125E+00 -0.44021472751E+02 -0.10882761122E+02  0.45539222907E+02  0.41800000000E+01 0. -1.
         -5    1    3    3    0  502  0.42787983898E+02  0.56120164206E+02  0.70874208410E+02  0.10010449647E+03  0.41800000000E+01 0. -1.
        -11    1    1    2    0    0 -0.41151151434E+02  0.35007733212E+02  0.17734517347E+03  0.18539220373E+03  0.00000000000E+00 0. -1.
         11    1    1    2    0    0 -0.14823325632E+01 -0.47106424667E+02  0.10315629400E+03  0.11341266925E+03  0.00000000000E+00 0.  1.
</event>
<event>
 7    1  0.2440960E-009  0.1283594E+03  0.7561462E-02  0.1229911E+00
          1   -1    0    0  501    0  0.00000000000E+00  0.00000000000E+00  0.17983893207E+03  0.17983893207E+03  0.00000000000E+00 0. -1.
         -1   -1    0    0    0  501 -0.00000000000E+00 -0.00000000000E+00 -0.11620820886E+03  0.11620820886E+03  0.00000000000E+00 0.  1.
         25    2    1    2    0    0 -0.60676042521E+02 -0.45129784510E+02 -0.23913134278E+02  0.14811368482E+03  0.12509015170E+03 0.  0.
          5    1    3    3  502    0  0.14737600716E+02  0.29820773761E+02  0.12305437419E+02  0.35712345381E+02  0.41800000000E+01 0. -1.
         -5    1    3    3    0  502 -0.75413643237E+02 -0.74950558271E+02 -0.36218571698E+02  0.11240133944E+03  0.41800000000E+01 0. -1.
        -11    1    1    2    0    0  0.18878546702E+02  0.67003457109E+02  0.37152495895E+02  0.78906088114E+02  0.00000000000E+00 0.  1.
         11    1    1    2    0    0  0.41797495819E+02 -0.21873672599E+02  0.50391361593E+02  0.69027367999E+02  0.00000000000E+00 0. -1.
</event>
<event>
 7    1  0.2440960E-009  0.1135907E+03  0.7561462E-02  0.1254061E+00
          2   -1    0    0  501    0  0.00000000000E+00  0.00000000000E+00  0.22272235253E+03  0.22272235253E+03  0.00000000000E+00 0. -1.
         -2   -1    0    0    0  501 -0.00000000000E+00 -0.00000000000E+00 -0.10625390540E+03  0.10625390540E+03  0.00000000000E+00 0.  1.
         25    2    1    2    0    0  0.30093560997E+02  0.98869370111E+01  0.17129169048E+03  0.21445688965E+03  0.12509012893E+03 0.  0.
          5    1    3    3  502    0  0.59121069621E+02 -0.38457699869E+02  0.11281884672E+03  0.13311596496E+03  0.41800000000E+01 0. -1.
         -5    1    3    3    0  502 -0.29027508624E+02  0.48344636880E+02  0.58472843753E+02  0.81340924685E+02  0.41800000000E+01 0. -1.
        -11    1    1    2    0    0  0.86571128378E+01  0.37662617464E+02 -0.15382525200E+02  0.41593754801E+02  0.00000000000E+00 0.  1.
         11    1    1    2    0    0 -0.38750673835E+02 -0.47549554475E+02 -0.39440718146E+02  0.72925613479E+02  0.00000000000E+00 0. -1.
</event>
<event>
 7    1  0.2440960E-009  0.5626849E+02  0.7561462E-02  0.1414194E+00
          2   -1    0    0  501    0  0.00000000000E+00  0.00000000000E+00  0.19217144533E+03  0.19217144533E+03  0.00000000000E+00 0. -1.
         -2   -1    0    0    0  501 -0.00000000000E+00 -0.00000000000E+00 -0.59630539778E+02  0.59630539778E+02  0.00000000000E+00 0.  1.
         25    2    1    2    0    0  0.19336965836E+02  0.10813751809E+02  0.85941941289E+02  0.15337412234E+03  0.12508696437E+03 0.  0.
          5    1    3    3  502    0  0.11824033189E+02 -0.86402474643E+01 -0.30986634826E+02  0.34526881917E+02  0.41800000000E+01 0.  1.
         -5    1    3    3    0  502  0.75129326470E+01  0.19453999274E+02  0.11692857611E+03  0.11884724043E+03  0.41800000000E+01 0.  1.
        -11    1    1    2    0    0  0.35529830170E+01  0.29481960492E+02 -0.38269688354E+01  0.29940864604E+02  0.00000000000E+00 0.  1.
         11    1    1    2    0    0 -0.22889948853E+02 -0.40295712301E+02  0.50425933103E+02  0.68486998165E+02  0.00000000000E+00 0. -1.
</event>
<event>
 7    1  0.2440960E-009  0.2233966E+03  0.7561462E-02  0.1131376E+00
          2   -1    0    0  501    0  0.00000000000E+00  0.00000000000E+00  0.10806508095E+03  0.10806508095E+03  0.00000000000E+00 0. -1.
         -2   -1    0    0    0  501 -0.00000000000E+00 -0.00000000000E+00 -0.81974564079E+03  0.81974564079E+03  0.00000000000E+00 0.  1.
         25    2    1    2    0    0  0.13617899465E+03  0.15911229511E+03 -0.80839617528E+02  0.25699087397E+03  0.12509126470E+03 0.  0.
          5    1    3    3  502    0 -0.65276340895E+01  0.40111890187E+01 -0.41673666237E+02  0.42577770042E+02  0.41800000000E+01 0.  1.
         -5    1    3    3    0  502  0.14270662873E+03  0.15510110609E+03 -0.39165951291E+02  0.21441310393E+03  0.41800000000E+01 0.  1.
        -11    1    1    2    0    0 -0.11584692732E+03 -0.68906353229E+02 -0.40232062664E+03  0.42429999140E+03  0.00000000000E+00 0.  1.
         11    1    1    2    0    0 -0.20332067330E+02 -0.90205941883E+02 -0.22852031566E+03  0.24651985637E+03  0.00000000000E+00 0. -1.
</event>
<event>
 7    1  0.2440960E-009  0.9151792E+02  0.7561462E-02  0.1299217E+00
         -1   -1    0    0    0  501 -0.00000000000E+00  0.00000000000E+00  0.37689576769E+03  0.37689576769E+03  0.00000000000E+00 0.  1.
          1   -1    0    0  501    0  0.00000000000E+00 -0.00000000000E+00 -0.31562599984E+02  0.31562599984E+02  0.00000000000E+00 0. -1.
         25    2    1    2    0    0 -0.28012823732E+00 -0.16538860973E+02  0.21305102713E+03  0.24761214996E+03  0.12508966485E+03 0.  0.
          5    1    3    3  502    0  0.25891783897E+02  0.40627610733E+02  0.37802761074E+02  0.61380032356E+02  0.41800000000E+01 0. -1.
         -5    1    3    3    0  502 -0.26171912134E+02 -0.57166471706E+02  0.17524826606E+03  0.18623211761E+03  0.41800000000E+01 0. -1.
        -11    1    1    2    0    0 -0.16028324471E+02  0.40001332700E+02  0.12373093877E+03  0.13102045265E+03  0.00000000000E+00 0.  1.
         11    1    1    2    0    0  0.16308452708E+02 -0.23462471727E+02  0.85512018032E+01  0.29825765063E+02  0.00000000000E+00 0. -1.
</event>
<event>
 7    1  0.2440960E-009  0.1236631E+03  0.7561462E-02  0.1237173E+00
          1   -1    0    0  501    0  0.00000000000E+00  0.00000000000E+00  0.21952276514E+02  0.21952276514E+02  0.00000000000E+00 0. -1.
         -1   -1    0    0    0  501 -0.00000000000E+00 -0.00000000000E+00 -0.92779793928E+03  0.92779793928E+03  0.00000000000E+00 0.  1.
         25    2    1    2    0    0 -0.79687497594E+01  0.89572897960E+02 -0.43069426697E+03  0.45741844158E+03  0.12508906457E+03 0.  0.
          5    1    3    3  502    0 -0.57197786420E+02  0.10618593357E+02 -0.12678211107E+03  0.13955471108E+03  0.41800000000E+01 0. -1.
         -5    1    3    3    0  502  0.49229036661E+02  0.78954304603E+02 -0.30391215590E+03  0.31786373050E+03  0.41800000000E+01 0. -1.
        -11    1    1    2    0    0  0.17886036493E+02 -0.80360653825E+02 -0.47104721456E+03  0.47818743535E+03  0.00000000000E+00 0.  1.
         11    1    1    2    0    0 -0.99172867338E+01 -0.92122441350E+01 -0.41041812325E+01  0.14144338859E+02  0.00000000000E+00 0. -1.
</event>
<event>
 7    1  0.2440960E-009  0.1000927E+03  0.7561462E-02  0.1280101E+00
          4   -1    0    0  501    0  0.00000000000E+00  0.00000000000E+00  0.33347628832E+03  0.33347628832E+03  0.00000000000E+00 0.  1.
         -4   -1    0    0    0  501 -0.00000000000E+00 -0.00000000000E+00 -0.44488286539E+02  0.44488286539E+02  0.00000000000E+00 0. -1.
         25    2    1    2    0    0  0.38333179536E+01 -0.55341927711E+02  0.13651592676E+03  0.19329057426E+03  0.12508886661E+03 0.  0.
          5    1    3    3  502    0  0.10019340153E+01  0.39846506194E+02  0.53775659714E+02  0.67067442961E+02  0.41800000000E+01 0. -1.
         -5    1    3    3    0  502  0.28313839383E+01 -0.95188433905E+02  0.82740267046E+02  0.12622313130E+03  0.41800000000E+01 0. -1.
        -11    1    1    2    0    0 -0.15333098332E+02  0.49631208373E+02  0.16105822519E+03  0.16922799015E+03  0.00000000000E+00 0.  1.
         11    1    1    2    0    0  0.11499780379E+02  0.57107193380E+01 -0.85861501669E+01  0.15446010450E+02  0.00000000000E+00 0. -1.
</event>
<event>
 7    1  0.2440960E-009  0.1183635E+03  0.7561462E-02  0.1245821E+00
          1   -1    0    0  501    0  0.00000000000E+00  0.00000000000E+00  0.63520593643E+03  0.63520593643E+03  0.00000000000E+00 0. -1.
         -1   -1    0    0    0  501 -0.00000000000E+00 -0.00000000000E+00 -0.34825625444E+02  0.34825625444E+02  0.00000000000E+00 0.  1.
         25    2    1    2    0    0 -0.37214148003E+02 -0.71449616553E+02  0.45964943607E+03  0.48313060221E+03  0.12509050402E+03 0.  0.
          5    1    3    3  502    0  0.88531435042E+00  0.30983902706E+02  0.48718441436E+02  0.57894256575E+02  0.41800000000E+01 0. -1.
         -5    1    3    3    0  502 -0.38099462353E+02 -0.10243351926E+03  0.41093099463E+03  0.42523634564E+03  0.41800000000E+01 0. -1.
        -11    1    1    2    0    0 -0.75923035180E+01  0.41493976476E+02  0.70554769505E+01  0.42768831075E+02  0.00000000000E+00 0.  1.
         11    1    1    2    0    0  0.44806451521E+02  0.29955640076E+02  0.13367539797E+03  0.14413212859E+03  0.00000000000E+00 0. -1.
</event>
<event>
 7    1  0.2633403E-009  0.8349194E+02  0.7561462E-02  0.1319424E+00
         -2   -1    0    0    0  501 -0.00000000000E+00  0.00000000000E+00  0.72126562961E+02  0.72126562961E+02  0.00000000000E+00 0.  1.
          2   -1    0    0  501    0  0.00000000000E+00 -0.00000000000E+00 -0.24002082415E+03  0.24002082415E+03  0.00000000000E+00 0. -1.
         25    2    1    2    0    0 -0.43350545994E+02  0.44708684909E+02 -0.45001792907E+02  0.14680868101E+03  0.12509792609E+03 0.  0.
          5    1    3    3  502    0  0.10709681476E+01 -0.12280388113E+02  0.35941248417E+02  0.38225654249E+02  0.41800000000E+01 0. -1.
         -5    1    3    3    0  502 -0.44421514141E+02  0.56989073022E+02 -0.80943041324E+02  0.10858302676E+03  0.41800000000E+01 0. -1.
        -11    1    1    2    0    0  0.45636318754E+02 -0.54759190945E+02 -0.13300286622E+03  0.15090064614E+03  0.00000000000E+00 0. -1.
         11    1    1    2    0    0 -0.22857727606E+01  0.10050506036E+02  0.10110397942E+02  0.14438059954E+02  0.00000000000E+00 0.  1.
</event>
<event>
 7    1  0.4199139E-009  0.9945899E+02  0.7561462E-02  0.1281438E+00
          2   -1    0    0  501    0  0.00000000000E+00  0.00000000000E+00  0.74687033041E+03  0.74687033041E+03  0.00000000000E+00 0. -1.
         -2   -1    0    0    0  501 -0.00000000000E+00 -0.00000000000E+00 -0.23640268119E+02  0.23640268119E+02  0.00000000000E+00 0.  1.
         25    2    1    2    0    0 -0.24911211146E+02  0.66973127423E+02  0.47905893102E+03  0.50025248048E+03  0.12509642918E+03 0.  0.
          5    1    3    3  502    0  0.38538738332E+02  0.39266324053E+02  0.34427213072E+03  0.34866581557E+03  0.41800000000E+01 0. -1.
         -5    1    3    3    0  502 -0.63449949478E+02  0.27706803370E+02  0.13478680031E+03  0.15158666491E+03  0.41800000000E+01 0. -1.
        -11    1    1    2    0    0  0.25715145820E+02 -0.41024037623E+02  0.23891269286E+03  0.24376938937E+03  0.00000000000E+00 0. -1.
         11    1    1    2    0    0 -0.80393467454E+00 -0.25949089800E+02  0.52584384093E+01  0.26488728677E+02  0.00000000000E+00 0.  1.
</event>
<event>
 7    1  0.2440960E-009  0.1140351E+03  0.7561462E-02  0.1253275E+00
         -2   -1    0    0    0  501 -0.00000000000E+00  0.00000000000E+00  0.17734905861E+02  0.17734905861E+02  0.00000000000E+00 0.  1.
          2   -1    0    0  501    0  0.00000000000E+00 -0.00000000000E+00 -0.10039967042E+04  0.10039967042E+04  0.00000000000E+00 0. -1.
         25    2    1    2    0    0 -0.60936219929E+02 -0.20381796835E+02 -0.37766342153E+03  0.40299568754E+03  0.12508886310E+03 0.  0.
          5    1    3    3  502    0  0.10329332059E+02 -0.40796452812E+02 -0.26308751689E+03  0.26646493129E+03  0.41800000000E+01 0.  1.
         -5    1    3    3    0  502 -0.71265551988E+02  0.20414655977E+02 -0.11457590464E+03  0.13653075626E+03  0.41800000000E+01 0.  1.
        -11    1    1    2    0    0 -0.22736592837E+02  0.15885376866E+02 -0.14705567846E+03  0.14964848953E+03  0.00000000000E+00 0. -1.
         11    1    1    2    0    0  0.83672812766E+02  0.44964199691E+01 -0.46154269836E+03  0.46908743300E+03  0.00000000000E+00 0.  1.
</event>
<event>
 7    1  0.2440960E-009  0.9091391E+02  0.7561462E-02  0.1300654E+00
          1   -1    0    0  501    0  0.00000000000E+00  0.00000000000E+00  0.81182951214E+02  0.81182951214E+02  0.00000000000E+00 0. -1.
         -1   -1    0    0    0  501 -0.00000000000E+00 -0.00000000000E+00 -0.18232417077E+03  0.18232417077E+03  0.00000000000E+00 0.  1.
         25    2    1    2    0    0 -0.52897822945E+01  0.40935929728E+02 -0.60351556645E+01  0.13186516558E+03  0.12509303198E+03 0.  0.
          5    1    3    3  502    0 -0.24113102035E+02  0.74609755143E+02  0.24754080730E+02  0.82330396361E+02  0.41800000000E+01 0.  1.
         -5    1    3    3    0  502  0.18823319741E+02 -0.33673825414E+02 -0.30789236395E+02  0.49534769222E+02  0.41800000000E+01 0.  1.
        -11    1    1    2    0    0 -0.96955587851E+01  0.84703995601E+01 -0.75222896681E+02  0.76316680443E+02  0.00000000000E+00 0.  1.
         11    1    1    2    0    0  0.14985341080E+02 -0.49406329289E+02 -0.19883167206E+02  0.55325275952E+02  0.00000000000E+00 0. -1.
</event>
<event>
 7    1  0.2440960E-009  0.7707115E+02  0.7561462E-02  0.1337575E+00
          2   -1    0    0  501    0  0.00000000000E+00  0.00000000000E+00  0.33392176844E+03  0.33392176844E+03  0.00000000000E+00 0. -1.
         -2   -1    0    0    0  501 -0.00000000000E+00 -0.00000000000E+00 -0.42799045057E+02  0.42799045057E+02  0.00000000000E+00 0.  1.
         25    2    1    2    0    0  0.25339207094E+02  0.85292940377E+01  0.23149019954E+03  0.26448088618E+03  0.12509037692E+03 0.  0.
          5    1    3    3  502    0 -0.21406481349E+02  0.23763084918E+02  0.49541942485E+01  0.32633389178E+02  0.41800000000E+01 0. -1.
         -5    1    3    3    0  502  0.46745688444E+02 -0.15233790880E+02  0.22653600529E+03  0.23184749700E+03  0.41800000000E+01 0. -1.
        -11    1    1    2    0    0 -0.31611742754E+02 -0.33933966711E+02 -0.80160967593E+00  0.46383822123E+02  0.00000000000E+00 0.  1.
         11    1    1    2    0    0  0.62725356598E+01  0.25404672673E+02  0.60434133527E+02  0.65856105202E+02  0.00000000000E+00 0. -1.
</event>
<event>
 7    1  0.2440960E-009  0.2007459E+03  0.7561462E-02  0.1149111E+00
          1   -1    0    0  501    0  0.00000000000E+00  0.00000000000E+00  0.20992944701E+03  0.20992944701E+03  0.00000000000E+00 0. -1.
         -1   -1    0    0    0  501 -0.00000000000E+00 -0.00000000000E+00 -0.21660958046E+03  0.21660958046E+03  0.00000000000E+00 0.  1.
         25    2    1    2    0    0  0.17615435828E+03 -0.42379936334E+02  0.28345981881E+02  0.22198405071E+03  0.12508799757E+03 0.  0.
          5    1    3    3  502    0  0.78109192639E+00  0.19135252679E+02  0.30288036050E+02  0.36077770544E+02  0.41800000000E+01 0.  1.
         -5    1    3    3    0  502  0.17537326635E+03 -0.61515189013E+02 -0.19420541696E+01  0.18590628017E+03  0.41800000000E+01 0.  1.
        -11    1    1    2    0    0 -0.57577399182E+02 -0.21310077410E+02  0.10863580870E+02  0.62348165050E+02  0.00000000000E+00 0.  1.
         11    1    1    2    0    0 -0.11857695910E+03  0.63690013745E+02 -0.45889696195E+02  0.14220681171E+03  0.00000000000E+00 0. -1.
</event>
<event>
 7    1  0.2440960E-009  0.1502000E+03  0.7561462E-02  0.1200227E+00
         -2   -1    0    0    0  501 -0.00000000000E+00  0.00000000000E+00  0.34261212276E+02  0.34261212276E+02  0.00000000000E+00 0. -1.
          2   -1    0    0  501    0  0.00000000000E+00 -0.00000000000E+00 -0.78238508971E+03  0.78238508971E+03  0.00000000000E+00 0.  1.
         25    2    1    2    0    0  0.79371072443E+02 -0.88864475496E+02 -0.44826028363E+03  0.48039724364E+03  0.12509023811E+03 0.  0.
          5    1    3    3  502    0 -0.48238688079E+01 -0.61741145850E+02 -0.31040208116E+03  0.31654725270E+03  0.41800000000E+01 0.  1.
         -5    1    3    3    0  502  0.84194941251E+02 -0.27123329647E+02 -0.13785820246E+03  0.16384999094E+03  0.41800000000E+01 0.  1.
        -11    1    1    2    0    0 -0.39323610325E+02  0.10062557347E+03 -0.18770216394E+03  0.21657320867E+03  0.00000000000E+00 0. -1.
         11    1    1    2    0    0 -0.40047462118E+02 -0.11761097970E+02 -0.11216142987E+03  0.11967584969E+03  0.00000000000E+00 0.  1.
</event>
<event>
 7    1  0.2440960E-009  0.1226467E+03  0.7561462E-02  0.1238794E+00
          3   -1    0    0  501    0  0.00000000000E+00  0.00000000000E+00  0.66329539572E+03  0.66329539572E+03  0.00000000000E+00 0. -1.
         -3   -1    0    0    0  501 -0.00000000000E+00 -0.00000000000E+00 -0.30032738123E+02  0.30032738123E+02  0.00000000000E+00 0.  1.
         25    2    1    2    0    0  0.63768193234E+02 -0.61952697441E+02  0.29509109957E+03  0.33261188542E+03  0.12508952830E+03 0.  0.
          5    1    3    3  502    0  0.29459036522E+01  0.36913818197E+02  0.75272616554E+02  0.83992544461E+02  0.41800000000E+01 0. -1.
         -5    1    3    3    0  502  0.60822289581E+02 -0.98866515638E+02  0.21981848301E+03  0.24861934096E+03  0.41800000000E+01 0. -1.
        -11    1    1    2    0    0 -0.37317796521E+02  0.20160342263E+02  0.39442093207E+02  0.57920083338E+02  0.00000000000E+00 0.  1.
         11    1    1    2    0    0 -0.26450396712E+02  0.41792355178E+02  0.29872946482E+03  0.30279616508E+03  0.00000000000E+00 0. -1.
</event>
<event>
 7    1  0.2440960E-009  0.8536839E+02  0.7561462E-02  0.1314472E+00
         -1   -1    0    0    0  501 -0.00000000000E+00  0.00000000000E+00  0.48003423472E+03  0.48003423472E+03  0.00000000000E+00 0.  1.
          1   -1    0    0  501    0  0.00000000000E+00 -0.00000000000E+00 -0.29959813036E+02  0.29959813036E+02  0.00000000000E+00 0. -1.
         25    2    1    2    0    0  0.27619311085E+02  0.43492959005E+02  0.24180849466E+03  0.27707734133E+03  0.12508413634E+03 0.  0.
          5    1    3    3  502    0  0.38550344259E+02  0.59345776357E+01  0.23362534527E+03  0.23689580538E+03  0.41800000000E+01 0.  1.
         -5    1    3    3    0  502 -0.10931033173E+02  0.37558381370E+02  0.81831493831E+01  0.40181535948E+02  0.41800000000E+01 0.  1.
        -11    1    1    2    0    0 -0.42032254265E+02 -0.58059816717E+02  0.10183642274E+03  0.12453236412E+03  0.00000000000E+00 0. -1.
         11    1    1    2    0    0  0.14412943180E+02  0.14566857712E+02  0.10642950429E+03  0.10838434231E+03  0.00000000000E+00 0.  1.
</event>
<event>
 7    1  0.2440960E-009  0.1331979E+03  0.7561462E-02  0.1222786E+00
         -1   -1    0    0    0  501 -0.00000000000E+00  0.00000000000E+00  0.51221952653E+03  0.51221952653E+03  0.00000000000E+00 0.  1.
          1   -1    0    0  501    0  0.00000000000E+00 -0.00000000000E+00 -0.56997120950E+02  0.56997120950E+02  0.00000000000E+00 0. -1.
         25    2    1    2    0    0 -0.85674862492E+02 -0.31757938369E+02  0.83048953928E+02  0.17576442875E+03  0.12508899613E+03 0.  0.
          5    1    3    3  502    0 -0.10729915455E+03 -0.34420576952E+01  0.88862130141E+02  0.13942348046E+03  0.41800000000E+01 0. -1.
         -5    1    3    3    0  502  0.21624292061E+02 -0.28315880674E+02 -0.58131762136E+01  0.36340948297E+02  0.41800000000E+01 0. -1.
        -11    1    1    2    0    0  0.67414181634E+02 -0.18257196352E+02  0.26104629785E+03  0.27022799027E+03  0.00000000000E+00 0.  1.
         11    1    1    2    0    0  0.18260680858E+02  0.50015134721E+02  0.11112715380E+03  0.12322422845E+03  0.00000000000E+00 0. -1.
</event>
<event>
 7    1  0.2658440E-009  0.9785965E+02  0.7561462E-02  0.1284862E+00
         -1   -1    0    0    0  501 -0.00000000000E+00  0.00000000000E+00  0.12458353651E+03  0.12458353651E+03  0.00000000000E+00 0.  1.
          1   -1    0    0  501    0  0.00000000000E+00 -0.00000000000E+00 -0.12965957751E+03  0.12965957751E+03  0.00000000000E+00 0. -1.
         25    2    1    2    0    0  0.50146386068E+02 -0.40924318631E+02 -0.14820283638E+02  0.14162134658E+03  0.12508998804E+03 0.  0.
          5    1    3    3  502    0  0.49214973744E+02 -0.77962668081E+02  0.15474683123E+02  0.93580069848E+02  0.41800000000E+01 0. -1.
         -5    1    3    3    0  502  0.93141232446E+00  0.37038349450E+02 -0.30294966762E+02  0.48041276732E+02  0.41800000000E+01 0. -1.
        -11    1    1    2    0    0 -0.33262718981E+02  0.18463263480E+02  0.50433496590E+02  0.63173080902E+02  0.00000000000E+00 0.  1.
         11    1    1    2    0    0 -0.16883667087E+02  0.22461055152E+02 -0.40689253949E+02  0.49448686532E+02  0.00000000000E+00 0. -1.
</event>
<event>
 7    1  0.2440960E-009  0.8244151E+02  0.7561462E-02  0.1322262E+00
          1   -1    0    0  501    0  0.00000000000E+00  0.00000000000E+00  0.85834455294E+03  0.85834455294E+03  0.00000000000E+00 0. -1.
         -1   -1    0    0    0  501 -0.00000000000E+00 -0.00000000000E+00 -0.18684375231E+02  0.18684375231E+02  0.00000000000E+00 0.  1.
         25    2    1    2    0    0  0.66357119303E+01  0.56257386959E+02  0.57866933192E+03  0.59473907325E+03  0.12508974093E+03 0.  0.
          5    1    3    3  502    0 -0.45568701789E+01  0.11067051823E+02 -0.14315728644E+01  0.12757997600E+02  0.41800000000E+01 0.  1.
         -5    1    3    3    0  502  0.11192582109E+02  0.45190335136E+02  0.58010090479E+03  0.58198107565E+03  0.41800000000E+01 0.  1.
        -11    1    1    2    0    0 -0.31939613806E+02 -0.69801466888E+02  0.16278332792E+03  0.17997443029E+03  0.00000000000E+00 0.  1.
         11    1    1    2    0    0  0.25303901875E+02  0.13544079929E+02  0.98207517866E+02  0.10231542463E+03  0.00000000000E+00 0. -1.
</event>
<event>
 7    1  0.2440960E-009  0.1824463E+03  0.7561462E-02  0.1165456E+00
          4   -1    0    0  501    0  0.00000000000E+00  0.00000000000E+00  0.11128291267E+04  0.11128291267E+04  0.00000000000E+00 0. -1.
         -4   -1    0    0    0  501 -0.00000000000E+00 -0.00000000000E+00 -0.34291569462E+02  0.34291569462E+02  0.00000000000E+00 0.  1.
         25    2    1    2    0    0 -0.12692081616E+03  0.10315157524E+03  0.64263352031E+03  0.67481448602E+03  0.12509039954E+03 0.  0.
          5    1    3    3  502    0 -0.60803911505E+02 -0.15538739059E+02  0.29328573054E+03  0.29995426352E+03  0.41800000000E+01 0.  1.
         -5    1    3    3    0  502 -0.66116904659E+02  0.11869031430E+03  0.34934778977E+03  0.37486022250E+03  0.41800000000E+01 0.  1.
        -11    1    1    2    0    0  0.81635685475E+02 -0.47981295441E+02  0.14810734351E+03  0.17579071379E+03  0.00000000000E+00 0.  1.
         11    1    1    2    0    0  0.45285130688E+02 -0.55170279802E+02  0.28779669341E+03  0.29651549635E+03  0.00000000000E+00 0. -1.
</event>
<event>
 7    1  0.2440960E-009  0.2118758E+03  0.7561462E-02  0.1140089E+00
          2   -1    0    0  501    0  0.00000000000E+00  0.00000000000E+00  0.25430055903E+04  0.25430055903E+04  0.00000000000E+00 0. -1.
         -2   -1    0    0    0  501 -0.00000000000E+00 -0.00000000000E+00 -0.30710250495E+02  0.30710250495E+02  0.00000000000E+00 0.  1.
         25    2    1    2    0    0 -0.17776551962E+03 -0.88833078184E+02  0.20434923734E+04  0.20569396163E+04  0.12509040402E+03 0.  0.
          5    1    3    3  502    0 -0.10305947940E+02  0.19929105281E+02  0.76450127414E+02  0.79783934359E+02  0.41800000000E+01 0. -1.
         -5    1    3    3    0  502 -0.16745957168E+03 -0.10876218347E+03  0.19670422460E+04  0.19771556819E+04  0.41800000000E+01 0. -1.
        -11    1    1    2    0    0  0.63721982880E+02  0.49081510808E+02  0.97891091691E+02  0.12669708615E+03  0.00000000000E+00 0.  1.
         11    1    1    2    0    0  0.11404353674E+03  0.39751567376E+02  0.37091187476E+03  0.39007913841E+03  0.00000000000E+00 0. -1.
</event>
<event>
 7    1  0.2440960E-009  0.1217386E+03  0.7561462E-02  0.1240256E+00
         -1   -1    0    0    0  501 -0.00000000000E+00  0.00000000000E+00  0.72805611059E+02  0.72805611059E+02  0.00000000000E+00 0.  1.
          1   -1    0    0  501    0  0.00000000000E+00 -0.00000000000E+00 -0.25185886815E+03  0.25185886815E+03  0.00000000000E+00 0. -1.
         25    2    1    2    0    0  0.12011435164E+02 -0.70975704933E+02 -0.14301846640E+03  0.20318285638E+03  0.12508863310E+03 0.  0.
          5    1    3    3  502    0  0.44055970942E+01 -0.10423045586E+03 -0.12926749337E+03  0.16616544303E+03  0.41800000000E+01 0.  1.
         -5    1    3    3    0  502  0.76058380695E+01  0.33254750928E+02 -0.13750973023E+02  0.37017413350E+02  0.41800000000E+01 0.  1.
        -11    1    1    2    0    0  0.32423009247E+02  0.32788906900E+02  0.97415489151E+01  0.47130263309E+02  0.00000000000E+00 0.  1.
         11    1    1    2    0    0 -0.44434444411E+02  0.38186798033E+02 -0.45776339606E+02  0.74351359516E+02  0.00000000000E+00 0. -1.
</event>
<event>
 7    1  0.3076497E-009  0.8820222E+02  0.7561462E-02  0.1307265E+00
         -1   -1    0    0    0  501 -0.00000000000E+00  0.00000000000E+00  0.91976822883E+02  0.91976822883E+02  0.00000000000E+00 0.  1.
          1   -1    0    0  501    0  0.00000000000E+00 -0.00000000000E+00 -0.17121667567E+03  0.17121667567E+03  0.00000000000E+00 0. -1.
         25    2    1    2    0    0 -0.50615947015E+02 -0.37094407441E+02 -0.35560997487E+02  0.14439671997E+03  0.12509140274E+03 0.  0.
          5    1    3    3  502    0  0.67507890044E+01 -0.43788577248E+02  0.32446978608E+02  0.55075325422E+02  0.41800000000E+01 0. -1.
         -5    1    3    3    0  502 -0.57366736019E+02  0.66941698065E+01 -0.68007976095E+02  0.89321394545E+02  0.41800000000E+01 0. -1.
        -11    1    1    2    0    0  0.49542532942E+02  0.14844113184E+02  0.16773620012E+02  0.54370622535E+02  0.00000000000E+00 0.  1.
         11    1    1    2    0    0  0.10734140726E+01  0.22250294257E+02 -0.60452475316E+02  0.64426156056E+02  0.00000000000E+00 0. -1.
</event>
<event>
 7    1  0.2440960E-009  0.1558108E+03  0.7561462E-02  0.1193509E+00
         -2   -1    0    0    0  501 -0.00000000000E+00  0.00000000000E+00  0.54986941737E+02  0.54986941737E+02  0.00000000000E+00 0. -1.
          2   -1    0    0  501    0  0.00000000000E+00 -0.00000000000E+00 -0.66017189287E+03  0.66017189287E+03  0.00000000000E+00 0.  1.
         25    2    1    2    0    0 -0.10781360500E+02 -0.11547592678E+03 -0.51080976839E+03  0.53853988808E+03  0.12509062386E+03 0.  0.
          5    1    3    3  502    0 -0.56866583527E+02 -0.11009731635E+03 -0.36862813310E+03  0.38892081495E+03  0.41800000000E+01 0. -1.
         -5    1    3    3    0  502  0.46085223027E+02 -0.53786104267E+01 -0.14218163529E+03  0.14961907314E+03  0.41800000000E+01 0. -1.
        -11    1    1    2    0    0  0.43592886908E+02  0.88184232397E+02 -0.36972698938E+02  0.10508938623E+03  0.00000000000E+00 0. -1.
         11    1    1    2    0    0 -0.32811526408E+02  0.27291694385E+02 -0.57402483804E+02  0.71529560284E+02  0.00000000000E+00 0.  1.
</event>
<event>
 7    1  0.2440960E-009  0.1232105E+03  0.7561462E-02  0.1237893E+00
         -1   -1    0    0    0  501 -0.00000000000E+00  0.00000000000E+00  0.26074878036E+02  0.26074878036E+02  0.00000000000E+00 0.  1.
          1   -1    0    0  501    0  0.00000000000E+00 -0.00000000000E+00 -0.73590569590E+03  0.73590569590E+03  0.00000000000E+00 0. -1.
         25    2    1    2    0    0 -0.46273174751E+02 -0.55748544656E+02 -0.42691186834E+03  0.45072122974E+03  0.12508707637E+03 0.  0.
          5    1    3    3  502    0  0.27014196487E+02  0.14154342866E+02 -0.19788790445E+03  0.20026783906E+03  0.41800000000E+01 0. -1.
         -5    1    3    3    0  502 -0.73287371238E+02 -0.69902887522E+02 -0.22902396389E+03  0.25045339068E+03  0.41800000000E+01 0. -1.
        -11    1    1    2    0    0  0.29874084261E+02  0.79773965083E+02 -0.26180748421E+03  0.27531709936E+03  0.00000000000E+00 0. -1.
         11    1    1    2    0    0  0.16399090489E+02 -0.24025420427E+02 -0.21111465307E+02  0.35942244824E+02  0.00000000000E+00 0.  1.
</event>
<event>
 7    1  0.2440960E-009  0.1444582E+03  0.7561462E-02  0.1207453E+00
         -1   -1    0    0    0  501 -0.00000000000E+00  0.00000000000E+00  0.45423596918E+03  0.45423596918E+03  0.00000000000E+00 0.  1.
          1   -1    0    0  501    0  0.00000000000E+00 -0.00000000000E+00 -0.68788282381E+02  0.68788282381E+02  0.00000000000E+00 0. -1.
         25    2    1    2    0    0  0.11369716445E+03  0.42716592022E+02  0.30446065727E+03  0.35085041093E+03  0.12509183262E+03 0.  0.
          5    1    3    3  502    0  0.46973285633E+02 -0.18279766220E+02  0.22437264192E+03  0.23000259620E+03  0.41800000000E+01 0.  1.
         -5    1    3    3    0  502  0.66723878814E+02  0.60996358242E+02  0.80088015348E+02  0.12084781473E+03  0.41800000000E+01 0.  1.
        -11    1    1    2    0    0 -0.25489763523E+02  0.25709098126E+02  0.38169960850E+02  0.52608285300E+02  0.00000000000E+00 0.  1.
         11    1    1    2    0    0 -0.88207400924E+02 -0.68425690148E+02  0.42817068672E+02  0.11956555532E+03  0.00000000000E+00 0. -1.
</event>
<event>
 7    1  0.2440960E-009  0.1265087E+03  0.7561462E-02  0.1232730E+00
          2   -1    0    0  501    0  0.00000000000E+00  0.00000000000E+00  0.14911523791E+04  0.14911523791E+04  0.00000000000E+00 0. -1.
         -2   -1    0    0    0  501 -0.00000000000E+00 -0.00000000000E+00 -0.11203658823E+02  0.11203658823E+02  0.00000000000E+00 0.  1.
         25    2    1    2    0    0  0.37523012818E+02  0.58940940784E+02  0.88602295159E+03  0.89753239730E+03  0.12508286238E+03 0.  0.
          5    1    3    3  502    0 -0.41771510478E+02  0.13766651147E+01  0.18674722847E+03  0.19141252320E+03  0.41800000000E+01 0. -1.
         -5    1    3    3    0  502  0.79294523296E+02  0.57564275670E+02  0.69927572312E+03  0.70611987410E+03  0.41800000000E+01 0. -1.
        -11    1    1    2    0    0 -0.66930419131E+02 -0.41265478194E+02  0.45357561750E+03  0.46034048430E+03  0.00000000000E+00 0. -1.
         11    1    1    2    0    0  0.29407406314E+02 -0.17675462590E+02  0.14035015122E+03  0.14448315636E+03  0.00000000000E+00 0.  1.
</event>
<event>
 7    1  0.2440960E-009  0.9785695E+02  0.7561462E-02  0.1284868E+00
         -2   -1    0    0    0  501 -0.00000000000E+00  0.00000000000E+00  0.88484722120E+02  0.88484722120E+02  0.00000000000E+00 0.  1.
          2   -1    0    0  501    0  0.00000000000E+00 -0.00000000000E+00 -0.14478973675E+03  0.14478973675E+03  0.00000000000E+00 0. -1.
         25    2    1    2    0    0  0.37584977095E+02  0.16257686186E+02 -0.36696736513E+01  0.13167724945E+03  0.12509391933E+03 0.  0.
          5    1    3    3  502    0  0.72016434131E+02  0.28043874502E+01  0.33057013606E+02  0.79400692204E+02  0.41800000000E+01 0.  1.
         -5    1    3    3    0  502 -0.34431457036E+02  0.13453298736E+02 -0.36726687257E+02  0.52276557245E+02  0.41800000000E+01 0.  1.
        -11    1    1    2    0    0 -0.13536114945E+02  0.30705764629E+02 -0.26252742088E+02  0.42606065957E+02  0.00000000000E+00 0.  1.
         11    1    1    2    0    0 -0.24048862150E+02 -0.46963450815E+02 -0.26382598893E+02  0.58991143466E+02  0.00000000000E+00 0. -1.
</event>
<event>
 7    1  0.2440960E-009  0.4461114E+02  0.7561462E-02  0.1476784E+00
          1   -1    0    0  501    0  0.00000000000E+00  0.00000000000E+00  0.30163612590E+03  0.30163612590E+03  0.00000000000E+00 0. -1.
         -1   -1    0    0    0  501 -0.00000000000E+00 -0.00000000000E+00 -0.41073936307E+02  0.41073936307E+02  0.00000000000E+00 0.  1.
         25    2    1    2    0    0  0.20720423436E+02  0.10441381058E+02  0.16652882013E+03  0.20956576709E+03  0.12509038499E+03 0.  0.
          5    1    3    3  502    0  0.19092865568E+02 -0.11317746659E+02  0.18141980272E+03  0.18282025633E+03  0.41800000000E+01 0.  1.
         -5    1    3    3    0  502  0.16275578674E+01  0.21759127717E+02 -0.14890982589E+02  0.26745510765E+02  0.41800000000E+01 0.  1.
        -11    1    1    2    0    0 -0.22932962549E+02  0.91597448402E+01 -0.10450426451E+02  0.26814792743E+02  0.00000000000E+00 0.  1.
         11    1    1    2    0    0  0.22125391137E+01 -0.19601125898E+02  0.10448379592E+03  0.10632950238E+03  0.00000000000E+00 0. -1.
</event>
<event>
 7    1  0.2440960E-009  0.1083268E+03  0.7561462E-02  0.1263700E+00
          1   -1    0    0  501    0  0.00000000000E+00  0.00000000000E+00  0.42906165066E+03  0.42906165066E+03  0.00000000000E+00 0. -1.
         -1   -1    0    0    0  501 -0.00000000000E+00 -0.00000000000E+00 -0.35531194775E+02  0.35531194775E+02  0.00000000000E+00 0.  1.
         25    2    1    2    0    0  0.19508299641E+02 -0.51291099390E+02  0.17665002799E+03  0.22330272082E+03  0.12509005598E+03 0.  0.
          5    1    3    3  502    0 -0.35454621916E+02 -0.41948988985E+02  0.22811723406E+02  0.59620424494E+02  0.41800000000E+01 0. -1.
         -5    1    3    3    0  502  0.54962921557E+02 -0.93421104052E+01  0.15383830458E+03  0.16368229632E+03  0.41800000000E+01 0. -1.
        -11    1    1    2    0    0  0.29309665028E+02 -0.64896500184E+01  0.66221155841E+02  0.72707726566E+02  0.00000000000E+00 0. -1.
         11    1    1    2    0    0 -0.48817964669E+02  0.57780749408E+02  0.15065927205E+03  0.16858239805E+03  0.00000000000E+00 0.  1.
</event>
<event>
 7    1  0.2440960E-009  0.7808296E+02  0.7561462E-02  0.1334581E+00
          2   -1    0    0  501    0  0.00000000000E+00  0.00000000000E+00  0.43321213186E+03  0.43321213186E+03  0.00000000000E+00 0. -1.
         -2   -1    0    0    0  501 -0.00000000000E+00 -0.00000000000E+00 -0.19448294207E+02  0.19448294207E+02  0.00000000000E+00 0.  1.
         25    2    1    2    0    0 -0.32808551259E+02 -0.26247829860E+01  0.25621557124E+03  0.28701408046E+03  0.12508945964E+03 0.  0.
          5    1    3    3  502    0 -0.38795529131E+02  0.45224661441E+02  0.21593029919E+03  0.22403957148E+03  0.41800000000E+01 0.  1.
         -5    1    3    3    0  502  0.59869778725E+01 -0.47849444427E+02  0.40285272052E+02  0.62974508973E+02  0.41800000000E+01 0.  1.
        -11    1    1    2    0    0  0.24543395893E+02  0.18094163072E+02  0.69912950648E+02  0.76273178035E+02  0.00000000000E+00 0. -1.
         11    1    1    2    0    0  0.82651553651E+01 -0.15469380086E+02  0.87635315767E+02  0.89373167578E+02  0.00000000000E+00 0.  1.
</event>
<event>
 7    1  0.2440960E-009  0.1450659E+03  0.7561462E-02  0.1206671E+00
          2   -1    0    0  501    0  0.00000000000E+00  0.00000000000E+00  0.33837754157E+03  0.33837754157E+03  0.00000000000E+00 0.  1.
         -2   -1    0    0    0  501 -0.00000000000E+00 -0.00000000000E+00 -0.78090861723E+02  0.78090861723E+02  0.00000000000E+00 0. -1.
         25    2    1    2    0    0  0.72809293501E+02  0.69912951406E+02  0.58766774725E+02  0.17113453790E+03  0.12507790475E+03 0.  0.
          5    1    3    3  502    0  0.10250283987E+03  0.49192177614E+02  0.69271746388E+02  0.13320191353E+03  0.41800000000E+01 0. -1.
         -5    1    3    3    0  502 -0.29693546365E+02  0.20720773792E+02 -0.10504971663E+02  0.37932624374E+02  0.41800000000E+01 0. -1.
        -11    1    1    2    0    0 -0.61655294450E+02 -0.94544014892E+02  0.16125766135E+03  0.19683490399E+03  0.00000000000E+00 0. -1.
         11    1    1    2    0    0 -0.11153999052E+02  0.24631063486E+02  0.40262243766E+02  0.48498961395E+02  0.00000000000E+00 0.  1.
</event>
<event>
 7    1  0.2440960E-009  0.9755859E+02  0.7561462E-02  0.1285515E+00
          2   -1    0    0  501    0  0.00000000000E+00  0.00000000000E+00  0.18367756629E+03  0.18367756629E+03  0.00000000000E+00 0.  1.
         -2   -1    0    0    0  501 -0.00000000000E+00 -0.00000000000E+00 -0.72044862228E+02  0.72044862228E+02  0.00000000000E+00 0. -1.
         25    2    1    2    0    0 -0.32465730119E+02  0.20275085331E+01  0.80894467363E+02  0.15247897557E+03  0.12509112166E+03 0.  0.
          5    1    3    3  502    0  0.17517164595E+02  0.52955404759E+02  0.48367744795E+02  0.73946176947E+02  0.41800000000E+01 0. -1.
         -5    1    3    3    0  502 -0.49982894714E+02 -0.50927896225E+02  0.32526722568E+02  0.78532798619E+02  0.41800000000E+01 0. -1.
        -11    1    1    2    0    0  0.14716237711E+02 -0.30663729557E+02  0.52918910784E+02  0.62906621919E+02  0.00000000000E+00 0.  1.
         11    1    1    2    0    0  0.17749492408E+02  0.28636221024E+02 -0.22180674081E+02  0.40336831035E+02  0.00000000000E+00 0. -1.
</event>
<event>
 7    1  0.2440960E-009  0.1634053E+03  0.7561462E-02  0.1184905E+00
         -1   -1    0    0    0  501 -0.00000000000E+00  0.00000000000E+00  0.27576893071E+03  0.27576893071E+03  0.00000000000E+00 0.  1.
          1   -1    0    0  501    0  0.00000000000E+00 -0.00000000000E+00 -0.13765292378E+03  0.13765292378E+03  0.00000000000E+00 0. -1.
         25    2    1    2    0    0  0.13055314685E+03 -0.89034155956E+02  0.37109934748E+02  0.20493353205E+03  0.12509756282E+03 0.  0.
          5    1    3    3  502    0  0.11594603633E+03 -0.48965128331E+02 -0.26061122976E+02  0.12859907334E+03  0.41800000000E+01 0.  1.
         -5    1    3    3    0  502  0.14607110517E+02 -0.40069027624E+02  0.63171057724E+02  0.76334458709E+02  0.41800000000E+01 0.  1.
        -11    1    1    2    0    0 -0.26234843786E+02  0.18459563466E+02  0.72606983721E+02  0.79377557262E+02  0.00000000000E+00 0.  1.
         11    1    1    2    0    0 -0.10431830306E+03  0.70574592490E+02  0.28399088456E+02  0.12911076517E+03  0.00000000000E+00 0. -1.
</event>
<event>
 7    1  0.2440960E-009  0.7791971E+02  0.7561462E-02  0.1335061E+00
          1   -1    0    0  501    0  0.00000000000E+00  0.00000000000E+00  0.32830707541E+03  0.32830707541E+03  0.00000000000E+00 0. -1.
         -1   -1    0    0    0  501 -0.00000000000E+00 -0.00000000000E+00 -0.41752155179E+02  0.41752155179E+02  0.00000000000E+00 0.  1.
         25    2    1    2    0    0  0.16951645263E+01  0.43974937085E+02  0.14636743610E+03  0.19750340611E+03  0.12508996922E+03 0.  0.
          5    1    3    3  502    0 -0.31743518399E+02 -0.40520862663E+01 -0.72379426213E+01  0.33074621341E+02  0.41800000000E+01 0.  1.
         -5    1    3    3    0  502  0.33438682925E+02  0.48027023351E+02  0.15360537872E+03  0.16442878477E+03  0.41800000000E+01 0.  1.
        -11    1    1    2    0    0  0.22865980370E+02 -0.24830924993E+02  0.53593790669E+01  0.34178221695E+02  0.00000000000E+00 0.  1.
         11    1    1    2    0    0 -0.24561144896E+02 -0.19144012092E+02  0.13482810507E+03  0.13837760279E+03  0.00000000000E+00 0. -1.
</event>
<event>
 7    1  0.2440960E-009  0.8956790E+02  0.7561462E-02  0.1303901E+00
         -2   -1    0    0    0  501 -0.00000000000E+00  0.00000000000E+00  0.31594937358E+02  0.31594937358E+02  0.00000000000E+00 0.  1.
          2   -1    0    0  501    0  0.00000000000E+00 -0.00000000000E+00 -0.60634662938E+03  0.60634662938E+03  0.00000000000E+00 0. -1.
         25    2    1    2    0    0 -0.26466851712E+02  0.48467670849E+02 -0.46285885070E+03  0.48263410769E+03  0.12509099437E+03 0.  0.
          5    1    3    3  502    0 -0.48545605504E+02  0.56318301965E+02 -0.44891015218E+03  0.45504529894E+03  0.41800000000E+01 0.  1.
         -5    1    3    3    0  502  0.22078753792E+02 -0.78506311162E+01 -0.13948698517E+02  0.27588808750E+02  0.41800000000E+01 0.  1.
        -11    1    1    2    0    0  0.37346191673E+02 -0.70069955029E+01 -0.28060233499E+01  0.38101309499E+02  0.00000000000E+00 0.  1.
         11    1    1    2    0    0 -0.10879339961E+02 -0.41460675346E+02 -0.10908681797E+03  0.11720614956E+03  0.00000000000E+00 0. -1.
</event>
<event>
 7    1  0.2440960E-009  0.7572826E+02  0.7561462E-02  0.1341631E+00
          1   -1    0    0  501    0  0.00000000000E+00  0.00000000000E+00  0.29057412231E+02  0.29057412231E+02  0.00000000000E+00 0. -1.
         -1   -1    0    0    0  501 -0.00000000000E+00 -0.00000000000E+00 -0.45611447304E+03  0.45611447304E+03  0.00000000000E+00 0.  1.
         25    2    1    2    0    0  0.32857782058E+02 -0.36023438486E+01 -0.19827680214E+03  0.23676224186E+03  0.12510019257E+03 0.  0.
          5    1    3    3  502    0  0.69589728788E+01  0.24729440149E+02 -0.19638641457E+03  0.19810368179E+03  0.41800000000E+01 0.  1.
         -5    1    3    3    0  502  0.25898809180E+02 -0.28331783998E+02 -0.18903875761E+01  0.38658560069E+02  0.41800000000E+01 0.  1.
        -11    1    1    2    0    0 -0.58500254229E+02 -0.72972204648E+01 -0.19934008064E+03  0.20787495501E+03  0.00000000000E+00 0.  1.
         11    1    1    2    0    0  0.25642472171E+02  0.10899564313E+02 -0.29440178028E+02  0.40534688399E+02  0.00000000000E+00 0. -1.
</event>
<event>
 7    1  0.2440960E-009  0.1187472E+03  0.7561462E-02  0.1245178E+00
         -2   -1    0    0    0  501 -0.00000000000E+00  0.00000000000E+00  0.12731309212E+03  0.12731309212E+03  0.00000000000E+00 0.  1.
          2   -1    0    0  501    0  0.00000000000E+00 -0.00000000000E+00 -0.16350298402E+03  0.16350298402E+03  0.00000000000E+00 0. -1.
         25    2    1    2    0    0  0.73132833738E+02 -0.37404092378E+02 -0.67854633648E+02  0.16431551520E+03  0.12509140551E+03 0.  0.
          5    1    3    3  502    0  0.10355088297E+03 -0.18200119605E+02 -0.24891793353E+02  0.10812540633E+03  0.41800000000E+01 0.  1.
         -5    1    3    3    0  502 -0.30418049231E+02 -0.19203972773E+02 -0.42962840295E+02  0.56190108876E+02  0.41800000000E+01 0.  1.
        -11    1    1    2    0    0 -0.69264105321E+01  0.28411785994E+02  0.49369082601E+02  0.57380406613E+02  0.00000000000E+00 0.  1.
         11    1    1    2    0    0 -0.66206423206E+02  0.89923063843E+01 -0.17704340861E+02  0.69120154320E+02  0.00000000000E+00 0. -1.
</event>
<event>
 7    1  0.2440960E-009  0.1213016E+03  0.7561462E-02  0.1240965E+00
         -1   -1    0    0    0  501 -0.00000000000E+00  0.00000000000E+00  0.44940206752E+02  0.44940206752E+02  0.00000000000E+00 0.  1.
          1   -1    0    0  501    0  0.00000000000E+00 -0.00000000000E+00 -0.45736519941E+03  0.45736519941E+03  0.00000000000E+00 0. -1.
         25    2    1    2    0    0  0.51475653292E+02  0.28198390651E+02 -0.34768344100E+03  0.37413383159E+03  0.12508979443E+03 0.  0.
          5    1    3    3  502    0  0.10674372604E+01 -0.45364345114E+02 -0.81446198867E+02  0.93327482232E+02  0.41800000000E+01 0. -1.
         -5    1    3    3    0  502  0.50408216032E+02  0.73562735765E+02 -0.26623724214E+03  0.28080634935E+03  0.41800000000E+01 0. -1.
        -11    1    1    2    0    0  0.25996715366E+02 -0.24109758249E+01 -0.29055630887E+02  0.39062407766E+02  0.00000000000E+00 0. -1.
         11    1    1    2    0    0 -0.77472368658E+02 -0.25787414826E+02 -0.35685920772E+02  0.89109166814E+02  0.00000000000E+00 0.  1.
</event>
<event>
 7    1  0.2440960E-009  0.1152009E+03  0.7561462E-02  0.1251231E+00
         -2   -1    0    0    0  501 -0.00000000000E+00  0.00000000000E+00  0.10381121353E+03  0.10381121353E+03  0.00000000000E+00 0.  1.
          2   -1    0    0  501    0  0.00000000000E+00 -0.00000000000E+00 -0.19944168361E+03  0.19944168361E+03  0.00000000000E+00 0. -1.
         25    2    1    2    0    0  0.76550969866E+02 -0.18809848217E+02 -0.10796756965E+03  0.18307985838E+03  0.12508947626E+03 0.  0.
          5    1    3    3  502    0  0.59499453526E+02  0.27085706918E+02 -0.11683517855E+01  0.65518378605E+02  0.41800000000E+01 0. -1.
         -5    1    3    3    0  502  0.17051516340E+02 -0.45895555136E+02 -0.10679921787E+03  0.11756147978E+03  0.41800000000E+01 0. -1.
        -11    1    1    2    0    0 -0.44252536580E+02  0.52782840204E+02  0.22008757911E+02  0.72309754794E+02  0.00000000000E+00 0.  1.
         11    1    1    2    0    0 -0.32298433286E+02 -0.33972991986E+02 -0.96716583356E+01  0.47863283968E+02  0.00000000000E+00 0. -1.
</event>
<event>
 7    1  0.2440960E-009  0.8977419E+02  0.7561462E-02  0.1303399E+00
         -1   -1    0    0    0  501 -0.00000000000E+00  0.00000000000E+00  0.62921288692E+02  0.62921288692E+02  0.00000000000E+00 0.  1.
          1   -1    0    0  501    0  0.00000000000E+00 -0.00000000000E+00 -0.28677236479E+03  0.28677236479E+03  0.00000000000E+00 0. -1.
         25    2    1    2    0    0 -0.72663470471E+02 -0.59891880959E+01 -0.14385509736E+03  0.20410048083E+03  0.12508743711E+03 0.  0.
          5    1    3    3  502    0 -0.44989849173E+02  0.32979554526E+02 -0.14571824328E+03  0.15608656691E+03  0.41800000000E+01 0.  1.
         -5    1    3    3    0  502 -0.27673621298E+02 -0.38968742622E+02  0.18631459180E+01  0.48013913920E+02  0.41800000000E+01 0.  1.
        -11    1    1    2    0    0  0.13100814230E+02  0.91580266335E+01  0.22145235414E+02  0.27311393902E+02  0.00000000000E+00 0.  1.
         11    1    1    2    0    0  0.59562656241E+02 -0.31688385376E+01 -0.10214121416E+03  0.11828177876E+03  0.00000000000E+00 0. -1.
</event>
<event>
 7    1  0.2440960E-009  0.1347144E+03  0.7561462E-02  0.1220623E+00
          3   -1    0    0  501    0  0.00000000000E+00  0.00000000000E+00  0.33945869545E+03  0.33945869545E+03  0.00000000000E+00 0. -1.
         -3   -1    0    0    0  501 -0.00000000000E+00 -0.00000000000E+00 -0.67353892795E+02  0.67353892795E+02  0.00000000000E+00 0.  1.
         25    2    1    2    0    0 -0.76982852661E+02 -0.70146103420E+02  0.16207426606E+03  0.22970185174E+03  0.12509211624E+03 0.  0.
          5    1    3    3  502    0 -0.54352804851E+02  0.27747155532E+02  0.48961762479E+02  0.78350868664E+02  0.41800000000E+01 0. -1.
         -5    1    3    3    0  502 -0.22630047810E+02 -0.97893258952E+02  0.11311250358E+03  0.15135098307E+03  0.41800000000E+01 0. -1.
        -11    1    1    2    0    0  0.58326115440E+02  0.35311903550E+02  0.11848334226E+03  0.13670101926E+03  0.00000000000E+00 0. -1.
         11    1    1    2    0    0  0.18656737221E+02  0.34834199870E+02 -0.84528056592E+01  0.40409717245E+02  0.00000000000E+00 0.  1.
</event>
<event>
 7    1  0.2440960E-009  0.1098680E+03  0.7561462E-02  0.1260815E+00
          1   -1    0    0  501    0  0.00000000000E+00  0.00000000000E+00  0.40400923001E+03  0.40400923001E+03  0.00000000000E+00 0. -1.
         -1   -1    0    0    0  501 -0.00000000000E+00 -0.00000000000E+00 -0.30729220469E+02  0.30729220469E+02  0.00000000000E+00 0.  1.
         25    2    1    2    0    0 -0.14833289484E+02  0.17942855314E+02  0.19063568238E+03  0.22919537642E+03  0.12508630877E+03 0.  0.
          5    1    3    3  502    0 -0.48678680026E+02  0.56141209180E+02  0.13032618256E+03  0.15007943070E+03  0.41800000000E+01 0.  1.
         -5    1    3    3    0  502  0.33845390543E+02 -0.38198353866E+02  0.60309499816E+02  0.79115945719E+02  0.41800000000E+01 0.  1.
        -11    1    1    2    0    0 -0.21353323527E+02 -0.44407283876E+02  0.10188521687E+03  0.11317494733E+03  0.00000000000E+00 0.  1.
         11    1    1    2    0    0  0.36186613010E+02  0.26464428563E+02  0.80759110292E+02  0.92368126730E+02  0.00000000000E+00 0. -1.
</event>
<event>
 7    1  0.2440960E-009  0.1039586E+03  0.7561462E-02  0.1272185E+00
         -1   -1    0    0    0  501 -0.00000000000E+00  0.00000000000E+00  0.34228226037E+02  0.34228226037E+02  0.00000000000E+00 0.  1.
          1   -1    0    0  501    0  0.00000000000E+00 -0.00000000000E+00 -0.41032462224E+03  0.41032462224E+03  0.00000000000E+00 0. -1.
         25    2    1    2    0    0  0.41860976667E+02  0.26284302897E+02 -0.22281228866E+03  0.26026061842E+03  0.12508823915E+03 0.  0.
          5    1    3    3  502    0  0.79614764613E+01  0.74439714339E+02 -0.11365326047E+03  0.13615870224E+03  0.41800000000E+01 0.  1.
         -5    1    3    3    0  502  0.33899500206E+02 -0.48155411442E+02 -0.10915902819E+03  0.12410191618E+03  0.41800000000E+01 0.  1.
        -11    1    1    2    0    0 -0.47431455378E+02 -0.41295721009E+00 -0.25612230787E+02  0.53906399052E+02  0.00000000000E+00 0.  1.
         11    1    1    2    0    0  0.55704787107E+01 -0.25871345687E+02 -0.12767187676E+03  0.13038583081E+03  0.00000000000E+00 0. -1.
</event>
<event>
 7    1  0.2440960E-009  0.1549546E+03  0.7561462E-02  0.1194514E+00
         -1   -1    0    0    0  501 -0.00000000000E+00  0.00000000000E+00  0.48919801736E+02  0.48919801736E+02  0.00000000000E+00 0.  1.
          1   -1    0    0  501    0  0.00000000000E+00 -0.00000000000E+00 -0.99114637343E+03  0.99114637343E+03  0.00000000000E+00 0. -1.
         25    2    1    2    0    0  0.59733903033E+02 -0.11040348210E+03 -0.83005855223E+03  0.84876560923E+03  0.12509512884E+03 0.  0.
          5    1    3    3  502    0 -0.31431529881E+02 -0.33396788895E+02 -0.39298554272E+03  0.39567460844E+03  0.41800000000E+01 0. -1.
         -5    1    3    3    0  502  0.91165432914E+02 -0.77006693210E+02 -0.43707300951E+03  0.45309100080E+03  0.41800000000E+01 0. -1.
        -11    1    1    2    0    0 -0.31697468003E+02  0.11196766332E+03 -0.57402070816E+02  0.12975548097E+03  0.00000000000E+00 0.  1.
         11    1    1    2    0    0 -0.28036435030E+02 -0.15641812134E+01 -0.54765948649E+02  0.61545084966E+02  0.00000000000E+00 0. -1.
</event>
<event>
 7    1  0.2440960E-009  0.7974012E+02  0.7561462E-02  0.1329791E+00
          1   -1    0    0  501    0  0.00000000000E+00  0.00000000000E+00  0.16704153865E+03  0.16704153865E+03  0.00000000000E+00 0. -1.
         -1   -1    0    0    0  501 -0.00000000000E+00 -0.00000000000E+00 -0.81479643189E+02  0.81479643189E+02  0.00000000000E+00 0.  1.
         25    2    1    2    0    0 -0.25005311936E+01 -0.42136189238E+02  0.55341763271E+02  0.14315222036E+03  0.12509251110E+03 0.  0.
          5    1    3    3  502    0  0.25951805826E+02 -0.15140533326E+02  0.87278937362E+02  0.92400309967E+02  0.41800000000E+01 0. -1.
         -5    1    3    3    0  502 -0.28452337019E+02 -0.26995655912E+02 -0.31937174091E+02  0.50751910396E+02  0.41800000000E+01 0. -1.
        -11    1    1    2    0    0 -0.27870250258E+02  0.50953191597E+02 -0.46875323718E+01  0.58266212706E+02  0.00000000000E+00 0.  1.
         11    1    1    2    0    0  0.30370781451E+02 -0.88170023590E+01  0.34907664565E+02  0.47102748772E+02  0.00000000000E+00 0. -1.
</event>
<event>
 7    1  0.2469347E-009  0.1403441E+03  0.7561462E-02  0.1212867E+00
         -2   -1    0    0    0  501 -0.00000000000E+00  0.00000000000E+00  0.62396331889E+02  0.62396331889E+02  0.00000000000E+00 0. -1.
          2   -1    0    0  501    0  0.00000000000E+00 -0.00000000000E+00 -0.46541215501E+03  0.46541215501E+03  0.00000000000E+00 0.  1.
         25    2    1    2    0    0 -0.10377334496E+03 -0.12242148952E+02 -0.33608911442E+03  0.37352683825E+03  0.12509048215E+03 0.  0.
          5    1    3    3  502    0  0.89425822229E+01 -0.44329073386E+02 -0.83793030573E+02  0.95308871029E+02  0.41800000000E+01 0.  1.
         -5    1    3    3    0  502 -0.11271592718E+03  0.32086924434E+02 -0.25229608385E+03  0.27821796722E+03  0.41800000000E+01 0.  1.
        -11    1    1    2    0    0  0.52028065880E+02  0.33697909218E+02 -0.75419174105E+02  0.97624385005E+02  0.00000000000E+00 0.  1.
         11    1    1    2    0    0  0.51745279076E+02 -0.21455760266E+02  0.84924654034E+01  0.56657263646E+02  0.00000000000E+00 0. -1.
</event>
<event>
 7    1  0.2440960E-009  0.1022829E+03  0.7561462E-02  0.1275567E+00
          2   -1    0    0  501    0  0.00000000000E+00  0.00000000000E+00  0.52027735816E+02  0.52027735816E+02  0.00000000000E+00 0. -1.
         -2   -1    0    0    0  501 -0.00000000000E+00 -0.00000000000E+00 -0.28042268828E+03  0.28042268828E+03  0.00000000000E+00 0.  1.
         25    2    1    2    0    0 -0.34960934721E+02  0.28762582258E+02 -0.16993876556E+03  0.21581134728E+03  0.12508317425E+03 0.  0.
          5    1    3    3  502    0 -0.77254883781E+02  0.17320155013E+02 -0.14490579695E+03  0.16517707839E+03  0.41800000000E+01 0. -1.
         -5    1    3    3    0  502  0.42293949060E+02  0.11442427245E+02 -0.25032968611E+02  0.50634268888E+02  0.41800000000E+01 0. -1.
        -11    1    1    2    0    0  0.36563173913E+02 -0.48905797808E+02 -0.70379441927E+02  0.93176759934E+02  0.00000000000E+00 0.  1.
         11    1    1    2    0    0 -0.16022391915E+01  0.20143215550E+02  0.11923255022E+02  0.23462316881E+02  0.00000000000E+00 0. -1.
</event>
<event>
 7    1  0.2440960E-009  0.1219963E+03  0.7561462E-02  0.1239840E+00
          2   -1    0    0  501    0  0.00000000000E+00  0.00000000000E+00  0.69788405751E+02  0.69788405751E+02  0.00000000000E+00 0. -1.
         -2   -1    0    0    0  501 -0.00000000000E+00 -0.00000000000E+00 -0.23632683734E+03  0.23632683734E+03  0.00000000000E+00 0.  1.
         25    2    1    2    0    0 -0.38313738491E+02  0.62421922240E+02 -0.10151291775E+03  0.17696115560E+03  0.12508372871E+03 0.  0.
          5    1    3    3  502    0  0.14959517422E+02  0.84923808385E+02 -0.68757376262E+02  0.11036706747E+03  0.41800000000E+01 0.  1.
         -5    1    3    3    0  502 -0.53273255913E+02 -0.22501886145E+02 -0.32755541488E+02  0.66594088130E+02  0.41800000000E+01 0.  1.
        -11    1    1    2    0    0  0.40993079410E+02 -0.39917656101E+01  0.67068480712E+00  0.41192433411E+02  0.00000000000E+00 0. -1.
         11    1    1    2    0    0 -0.26793409184E+01 -0.58430156630E+02 -0.65696198647E+02  0.87961654079E+02  0.00000000000E+00 0.  1.
</event>
<event>
 7    1  0.2440960E-009  0.9476282E+02  0.7561462E-02  0.1291711E+00
          3   -1    0    0  501    0  0.00000000000E+00  0.00000000000E+00  0.46622340260E+03  0.46622340260E+03  0.00000000000E+00 0. -1.
         -3   -1    0    0    0  501 -0.00000000000E+00 -0.00000000000E+00 -0.52044590852E+02  0.52044590852E+02  0.00000000000E+00 0.  1.
         25    2    1    2    0    0 -0.24127433744E+02  0.65452057446E+01  0.40414218020E+03  0.42379723687E+03  0.12509285903E+03 0.  0.
          5    1    3    3  502    0 -0.24261451165E+01 -0.50593905956E+02  0.86711687056E+02  0.10050879848E+03  0.41800000000E+01 0.  1.
         -5    1    3    3    0  502 -0.21701288627E+02  0.57139111701E+02  0.31743049315E+03  0.32328843839E+03  0.41800000000E+01 0.  1.
        -11    1    1    2    0    0  0.44187253928E+02 -0.24492015471E+02  0.31938175878E+02  0.59769719005E+02  0.00000000000E+00 0. -1.
         11    1    1    2    0    0 -0.20059820184E+02  0.17946809727E+02 -0.21901544332E+02  0.34701037582E+02  0.00000000000E+00 0.  1.
</event>
<event>
 7    1  0.2440960E-009  0.3694231E+03  0.7561462E-02  0.1054914E+00
          1   -1    0    0  501    0  0.00000000000E+00  0.00000000000E+00  0.15715584079E+04  0.15715584079E+04  0.00000000000E+00 0. -1.
         -1   -1    0    0    0  501 -0.00000000000E+00 -0.00000000000E+00 -0.93116610033E+02  0.93116610033E+02  0.00000000000E+00 0.  1.
         25    2    1    2    0    0 -0.17426649025E+03  0.30920328660E+03  0.55073451781E+03  0.66703239687E+03  0.12509287467E+03 0.  0.
          5    1    3    3  502    0 -0.17929656884E+03  0.20977344840E+03  0.38625060936E+03  0.47472009109E+03  0.41800000000E+01 0.  1.
         -5    1    3    3    0  502  0.50300785894E+01  0.99429838198E+02  0.16448390844E+03  0.19231230577E+03  0.41800000000E+01 0.  1.
        -11    1    1    2    0    0  0.57659585407E+02 -0.40978701323E+02  0.24296436675E+03  0.25305249507E+03  0.00000000000E+00 0. -1.
         11    1    1    2    0    0  0.11660690484E+03 -0.26822458528E+03  0.68474291333E+03  0.74459012602E+03  0.00000000000E+00 0.  1.
</event>
<event>
 7    1  0.2440960E-009  0.1621655E+03  0.7561462E-02  0.1186273E+00
         -2   -1    0    0    0  501 -0.00000000000E+00  0.00000000000E+00  0.51864441941E+02  0.51864441941E+02  0.00000000000E+00 0.  1.
          2   -1    0    0  501    0  0.00000000000E+00 -0.00000000000E+00 -0.81060747318E+03  0.81060747318E+03  0.00000000000E+00 0. -1.
         25    2    1    2    0    0  0.58947905488E+02  0.12200730830E+03 -0.17181213702E+03  0.25204706846E+03  0.12509066892E+03 0.  0.
          5    1    3    3  502    0  0.76452896364E+02  0.62037899351E+02 -0.40445761373E+02  0.10652266581E+03  0.41800000000E+01 0. -1.
         -5    1    3    3    0  502 -0.17504990876E+02  0.59969408946E+02 -0.13136637565E+03  0.14552440265E+03  0.41800000000E+01 0. -1.
        -11    1    1    2    0    0  0.17566746587E+02 -0.66141863186E+02 -0.31841079215E+03  0.32568200627E+03  0.00000000000E+00 0. -1.
         11    1    1    2    0    0 -0.76514652075E+02 -0.55865445110E+02 -0.26852010207E+03  0.28474284039E+03  0.00000000000E+00 0.  1.
</event>
<event>
 7    1  0.2440960E-009  0.9404032E+02  0.7561462E-02  0.1293352E+00
          1   -1    0    0  501    0  0.00000000000E+00  0.00000000000E+00  0.37893039807E+03  0.37893039807E+03  0.00000000000E+00 0. -1.
         -1   -1    0    0    0  501 -0.00000000000E+00 -0.00000000000E+00 -0.46606360144E+02  0.46606360144E+02  0.00000000000E+00 0.  1.
         25    2    1    2    0    0 -0.23974797017E+02  0.38013021305E+02  0.27974582869E+03  0.30971731459E+03  0.12508919060E+03 0.  0.
          5    1    3    3  502    0  0.94857307087E+01  0.78912962288E+02  0.15728390745E+03  0.17627516742E+03  0.41800000000E+01 0. -1.
         -5    1    3    3    0  502 -0.33460527726E+02 -0.40899940983E+02  0.12246192124E+03  0.13344214717E+03  0.41800000000E+01 0. -1.
        -11    1    1    2    0    0  0.26094687894E+01 -0.33554548820E+02 -0.20597289458E+02  0.39458400967E+02  0.00000000000E+00 0.  1.
         11    1    1    2    0    0  0.21365328227E+02 -0.44584724850E+01  0.73175498690E+02  0.76361042657E+02  0.00000000000E+00 0. -1.
</event>
<event>
 7    1  0.2440960E-009  0.1478606E+03  0.7561462E-02  0.1203127E+00
          1   -1    0    0  501    0  0.00000000000E+00  0.00000000000E+00  0.65747872955E+03  0.65747872955E+03  0.00000000000E+00 0. -1.
         -1   -1    0    0    0  501 -0.00000000000E+00 -0.00000000000E+00 -0.37659142040E+02  0.37659142040E+02  0.00000000000E+00 0.  1.
         25    2    1    2    0    0 -0.10579535778E+03  0.33299497567E+02  0.27268682462E+03  0.31985474709E+03  0.12508973040E+03 0.  0.
          5    1    3    3  502    0 -0.41579603857E+02 -0.42048631655E+02  0.15534451761E+03  0.16627189309E+03  0.41800000000E+01 0.  1.
         -5    1    3    3    0  502 -0.64215753923E+02  0.75348129222E+02  0.11734230700E+03  0.15358285400E+03  0.41800000000E+01 0.  1.
        -11    1    1    2    0    0  0.54094005466E+02 -0.58634220495E+02  0.14973855359E+03  0.16966368991E+03  0.00000000000E+00 0.  1.
         11    1    1    2    0    0  0.51701352314E+02  0.25334722928E+02  0.19739420930E+03  0.20561943459E+03  0.00000000000E+00 0. -1.
</event>
<event>
 7    1  0.2440960E-009  0.1165332E+03  0.7561462E-02  0.1248928E+00
         -1   -1    0    0    0  501 -0.00000000000E+00  0.00000000000E+00  0.18223890040E+03  0.18223890040E+03  0.00000000000E+00 0.  1.
          1   -1    0    0  501    0  0.00000000000E+00 -0.00000000000E+00 -0.96504493398E+02  0.96504493398E+02  0.00000000000E+00 0. -1.
         25    2    1    2    0    0  0.50973885114E+01 -0.64038189158E+02  0.84874777396E+00  0.14062942752E+03  0.12509613292E+03 0.  0.
          5    1    3    3  502    0 -0.11876992915E+02 -0.93381391006E+02  0.26536745371E+02  0.97891870969E+02  0.41800000000E+01 0. -1.
         -5    1    3    3    0  502  0.16974381427E+02  0.29343201848E+02 -0.25687997597E+02  0.42737556552E+02  0.41800000000E+01 0. -1.
        -11    1    1    2    0    0  0.28889339750E+00 -0.20235970621E+02  0.33865596950E+02  0.39451953350E+02  0.00000000000E+00 0.  1.
         11    1    1    2    0    0 -0.53862819089E+01  0.84274159780E+02  0.51020062274E+02  0.98662012922E+02  0.00000000000E+00 0. -1.
</event>
<event>
 7    1  0.2440960E-009  0.8687206E+02  0.7561462E-02  0.1310608E+00
          2   -1    0    0  501    0  0.00000000000E+00  0.00000000000E+00  0.33965705172E+03  0.33965705172E+03  0.00000000000E+00 0. -1.
         -2   -1    0    0    0  501 -0.00000000000E+00 -0.00000000000E+00 -0.37962698476E+02  0.37962698476E+02  0.00000000000E+00 0.  1.
         25    2    1    2    0    0 -0.18332332172E+02 -0.27695199150E+02  0.14914016062E+03  0.19746808838E+03  0.12509100672E+03 0.  0.
          5    1    3    3  502    0  0.24001802728E+02  0.85011777185E+01 -0.10862111700E+02  0.27996686007E+02  0.41800000000E+01 0.  1.
         -5    1    3    3    0  502 -0.42334134900E+02 -0.36196376868E+02  0.16000227232E+03  0.16947140238E+03  0.41800000000E+01 0.  1.
        -11    1    1    2    0    0  0.36365316283E+02 -0.19711783346E+02  0.44328557993E+02  0.60630121926E+02  0.00000000000E+00 0.  1.
         11    1    1    2    0    0 -0.18032984111E+02  0.47406982495E+02  0.10822563463E+03  0.11952153988E+03  0.00000000000E+00 0. -1.
</event>
<event>
 7    1  0.2440960E-009  0.9139044E+02  0.7561462E-02  0.1299519E+00
          2   -1    0    0  501    0  0.00000000000E+00  0.00000000000E+00  0.60030162423E+03  0.60030162423E+03  0.00000000000E+00 0. -1.
         -2   -1    0    0    0  501 -0.00000000000E+00 -0.00000000000E+00 -0.22952659537E+02  0.22952659537E+02  0.00000000000E+00 0.  1.
         25    2    1    2    0    0 -0.11816435910E+02 -0.40234306054E+02  0.27344169134E+03  0.30360534434E+03  0.12508964388E+03 0.  0.
          5    1    3    3  502    0 -0.40633448775E+02 -0.49432641186E+01  0.19424428554E+02  0.45500481801E+02  0.41800000000E+01 0. -1.
         -5    1    3    3    0  502  0.28817012864E+02 -0.35291041935E+02  0.25401726278E+03  0.25810486253E+03  0.41800000000E+01 0. -1.
        -11    1    1    2    0    0  0.45078168158E+02  0.18850169624E+01  0.18375495208E+03  0.18921278220E+03  0.00000000000E+00 0. -1.
         11    1    1    2    0    0 -0.33261732248E+02  0.38349289091E+02  0.12015232128E+03  0.13043615724E+03  0.00000000000E+00 0.  1.
</event>
<event>
 7    1  0.2440960E-009  0.1835442E+03  0.7561462E-02  0.1164416E+00
          1   -1    0    0  501    0  0.00000000000E+00  0.00000000000E+00  0.10729804168E+03  0.10729804168E+03  0.00000000000E+00 0. -1.
         -1   -1    0    0    0  501 -0.00000000000E+00 -0.00000000000E+00 -0.40295210230E+03  0.40295210230E+03  0.00000000000E+00 0.  1.
         25    2    1    2    0    0  0.83259176021E+02 -0.12603948972E+03 -0.26536787543E+03  0.32997869528E+03  0.12509111347E+03 0.  0.
          5    1    3    3  502    0 -0.24422430240E+02 -0.60958231517E+02 -0.12616353630E+03  0.14229220422E+03  0.41800000000E+01 0. -1.
         -5    1    3    3    0  502  0.10768160626E+03 -0.65081258201E+02 -0.13920433913E+03  0.18768649106E+03  0.41800000000E+01 0. -1.
        -11    1    1    2    0    0 -0.32733303278E+02 -0.66597018650E+01  0.54628133291E+01  0.33847645440E+02  0.00000000000E+00 0. -1.
         11    1    1    2    0    0 -0.50525872743E+02  0.13269919158E+03 -0.35748998516E+02  0.14642380325E+03  0.00000000000E+00 0.  1.
</event>
<event>
 7    1  0.2440960E-009  0.1300350E+03  0.7561462E-02  0.1227404E+00
          1   -1    0    0  501    0  0.00000000000E+00  0.00000000000E+00  0.33620068012E+03  0.33620068012E+03  0.00000000000E+00 0. -1.
         -1   -1    0    0    0  501 -0.00000000000E+00 -0.00000000000E+00 -0.63522149038E+02  0.63522149038E+02  0.00000000000E+00 0.  1.
         25    2    1    2    0    0 -0.93765976890E+02 -0.29345548990E+02  0.15194977912E+03  0.21997480136E+03  0.12508780192E+03 0.  0.
          5    1    3    3  502    0 -0.12192832736E+01  0.25548764130E+02  0.94368565750E+02  0.97862784561E+02  0.41800000000E+01 0. -1.
         -5    1    3    3    0  502 -0.92546693616E+02 -0.54894313120E+02  0.57581213374E+02  0.12211201680E+03  0.41800000000E+01 0. -1.
        -11    1    1    2    0    0 -0.32776689797E+01  0.29242435429E+02  0.55504452524E+02  0.62822029525E+02  0.00000000000E+00 0.  1.
         11    1    1    2    0    0  0.97043645870E+02  0.10311356185E+00  0.65224299432E+02  0.11692599827E+03  0.00000000000E+00 0. -1.
</event>
<event>
 7    1  0.2440960E-009  0.1467948E+03  0.7561462E-02  0.1204468E+00
          2   -1    0    0  501    0  0.00000000000E+00  0.00000000000E+00  0.57485653824E+03  0.57485653824E+03  0.00000000000E+00 0. -1.
         -2   -1    0    0    0  501 -0.00000000000E+00 -0.00000000000E+00 -0.78466724253E+02  0.78466724253E+02  0.00000000000E+00 0.  1.
         25    2    1    2    0    0 -0.81059122218E+00  0.11914807210E+03  0.47048963179E+03  0.50120336702E+03  0.12508957331E+03 0.  0.
          5    1    3    3  502    0  0.52471593612E+02  0.10197088272E+03  0.34871608494E+03  0.36711266575E+03  0.41800000000E+01 0. -1.
         -5    1    3    3    0  502 -0.53282184834E+02  0.17177189387E+02  0.12177354684E+03  0.13409070127E+03  0.41800000000E+01 0. -1.
        -11    1    1    2    0    0 -0.12402669779E+02 -0.87873963440E+02 -0.23845672434E+02  0.91892740530E+02  0.00000000000E+00 0.  1.
         11    1    1    2    0    0  0.13213261001E+02 -0.31274108664E+02  0.49745854639E+02  0.60227154945E+02  0.00000000000E+00 0. -1.
</event>
<event>
 7    1  0.2440960E-009  0.1168369E+03  0.7561462E-02  0.1248408E+00
          4   -1    0    0  501    0  0.00000000000E+00  0.00000000000E+00  0.29601689070E+03  0.29601689070E+03  0.00000000000E+00 0. -1.
         -4   -1    0    0    0  501 -0.00000000000E+00 -0.00000000000E+00 -0.85649480015E+02  0.85649480015E+02  0.00000000000E+00 0.  1.
         25    2    1    2    0    0 -0.37674689357E+02  0.41963311180E+02  0.23568301798E+03  0.27271582463E+03  0.12508850603E+03 0.  0.
          5    1    3    3  502    0 -0.80665424462E+02  0.61923631006E+01  0.14483902667E+03  0.16595503039E+03  0.41800000000E+01 0.  1.
         -5    1    3    3    0  502  0.42990735105E+02  0.35770948080E+02  0.90843991305E+02  0.10676079424E+03  0.41800000000E+01 0.  1.
        -11    1    1    2    0    0  0.29927232427E+02  0.18788965370E+02 -0.31573684411E+02  0.47387361265E+02  0.00000000000E+00 0.  1.
         11    1    1    2    0    0  0.77474569304E+01 -0.60752276551E+02  0.62580771149E+01  0.61563184812E+02  0.00000000000E+00 0. -1.
</event>
<event>
 7    1  0.2440960E-009  0.1143277E+03  0.7561462E-02  0.1252759E+00
          2   -1    0    0  501    0  0.00000000000E+00  0.00000000000E+00  0.61912837943E+03  0.61912837943E+03  0.00000000000E+00 0. -1.
         -2   -1    0    0    0  501 -0.00000000000E+00 -0.00000000000E+00 -0.22312231860E+02  0.22312231860E+02  0.00000000000E+00 0.  1.
         25    2    1    2    0    0  0.32021246443E+02  0.40885692030E+01  0.40137259710E+03  0.42165269041E+03  0.12509577533E+03 0.  0.
          5    1    3    3  502    0  0.39651001807E+01 -0.59239651593E+02  0.19931136444E+03  0.20800853525E+03  0.41800000000E+01 0. -1.
         -5    1    3    3    0  502  0.28056146262E+02  0.63328220796E+02  0.20206123265E+03  0.21364415516E+03  0.41800000000E+01 0. -1.
        -11    1    1    2    0    0  0.18988169628E+02  0.32035518131E+02  0.60002172811E+02  0.70619301539E+02  0.00000000000E+00 0.  1.
         11    1    1    2    0    0 -0.51009416071E+02 -0.36124087334E+02  0.13544137766E+03  0.14916861934E+03  0.00000000000E+00 0. -1.
</event>
<event>
 7    1  0.2440960E-009  0.1149267E+03  0.7561462E-02  0.1251709E+00
          3   -1    0    0  501    0  0.00000000000E+00  0.00000000000E+00  0.86176329763E+02  0.86176329763E+02  0.00000000000E+00 0. -1.
         -3   -1    0    0    0  501 -0.00000000000E+00 -0.00000000000E+00 -0.16809368243E+03  0.16809368243E+03  0.00000000000E+00 0.  1.
         25    2    1    2    0    0  0.42317096339E+02  0.22522899615E+02 -0.23654491842E+02  0.13603264419E+03  0.12508927872E+03 0.  0.
          5    1    3    3  502    0  0.83761880613E+02 -0.30484533375E+01 -0.62703150941E+01  0.84155421471E+02  0.41800000000E+01 0. -1.
         -5    1    3    3    0  502 -0.41444784274E+02  0.25571352953E+02 -0.17384176748E+02  0.51877222715E+02  0.41800000000E+01 0. -1.
        -11    1    1    2    0    0  0.11147546956E+02 -0.39433517961E+02 -0.44507779856E+02  0.60499690988E+02  0.00000000000E+00 0.  1.
         11    1    1    2    0    0 -0.53464643295E+02  0.16910618346E+02 -0.13755080972E+02  0.57737677023E+02  0.00000000000E+00 0. -1.
</event>
<event>
 7    1  0.2440960E-009  0.1674924E+03  0.7561462E-02  0.1180488E+00
         -1   -1    0    0    0  501 -0.00000000000E+00  0.00000000000E+00  0.51823430189E+03  0.51823430189E+03  0.00000000000E+00 0.  1.
          1   -1    0    0  501    0  0.00000000000E+00 -0.00000000000E+00 -0.74425585914E+02  0.74425585914E+02  0.00000000000E+00 0. -1.
         25    2    1    2    0    0 -0.13204607864E+03  0.87587645243E+02  0.17497008931E+03  0.26715188242E+03  0.12509130124E+03 0.  0.
          5    1    3    3  502    0 -0.15165859079E+02 -0.12169577529E+01 -0.18466264946E+02  0.24289084150E+02  0.41800000000E+01 0. -1.
         -5    1    3    3    0  502 -0.11688021956E+03  0.88804602996E+02  0.19343635426E+03  0.24286279827E+03  0.41800000000E+01 0. -1.
        -11    1    1    2    0    0  0.89581054445E+02 -0.93494198097E+02  0.14470507650E+03  0.19417901421E+03  0.00000000000E+00 0. -1.
         11    1    1    2    0    0  0.42465024192E+02  0.59065528537E+01  0.12413355017E+03  0.13132899118E+03  0.00000000000E+00 0.  1.
</event>
<event>
 7    1  0.2440960E-009  0.1074696E+03  0.7561462E-02  0.1265329E+00
          2   -1    0    0  501    0  0.00000000000E+00  0.00000000000E+00  0.36486502651E+03  0.36486502651E+03  0.00000000000E+00 0. -1.
         -2   -1    0    0    0  501 -0.00000000000E+00 -0.00000000000E+00 -0.42093388170E+02  0.42093388170E+02  0.00000000000E+00 0.  1.
         25    2    1    2    0    0  0.13212980230E+02 -0.56725855978E+02  0.15627339685E+03  0.20847173971E+03  0.12508671438E+03 0.  0.
          5    1    3    3  502    0  0.66714762549E+02 -0.48988302249E+02  0.10580775203E+03  0.13440039468E+03  0.41800000000E+01 0.  1.
         -5    1    3    3    0  502 -0.53501782319E+02 -0.77375537289E+01  0.50465644816E+02  0.74071345037E+02  0.41800000000E+01 0.  1.
        -11    1    1    2    0    0  0.11796999452E+02 -0.37685911541E+01 -0.61629399354E+01  0.13833051146E+02  0.00000000000E+00 0.  1.
         11    1    1    2    0    0 -0.25009979682E+02  0.60494447133E+02  0.17266118143E+03  0.18465362382E+03  0.00000000000E+00 0. -1.
</event>
<event>
 7    1  0.2440960E-009  0.1257450E+03  0.7561462E-02  0.1233910E+00
         -1   -1    0    0    0  501 -0.00000000000E+00  0.00000000000E+00  0.57816095249E+02  0.57816095249E+02  0.00000000000E+00 0.  1.
          1   -1    0    0  501    0  0.00000000000E+00 -0.00000000000E+00 -0.29654135695E+03  0.29654135695E+03  0.00000000000E+00 0. -1.
         25    2    1    2    0    0 -0.26434576180E+02 -0.69070804054E+02 -0.13667293369E+03  0.19949103635E+03  0.12509044724E+03 0.  0.
          5    1    3    3  502    0 -0.71196353567E+02 -0.66364370608E+02 -0.11085187640E+03  0.14757628993E+03  0.41800000000E+01 0. -1.
         -5    1    3    3    0  502  0.44761777387E+02 -0.27064334469E+01 -0.25821057289E+02  0.51914746425E+02  0.41800000000E+01 0. -1.
        -11    1    1    2    0    0  0.37670993232E+02 -0.13748504019E+01 -0.11140660037E+02  0.39307864999E+02  0.00000000000E+00 0.  1.
         11    1    1    2    0    0 -0.11236417052E+02  0.70445654456E+02 -0.90911667980E+02  0.11555855085E+03  0.00000000000E+00 0. -1.
</event>
<event>
 7    1  0.2440960E-009  0.1150645E+03  0.7561462E-02  0.1251469E+00
          2   -1    0    0  501    0  0.00000000000E+00  0.00000000000E+00  0.86453123126E+03  0.86453123126E+03  0.00000000000E+00 0. -1.
         -2   -1    0    0    0  501 -0.00000000000E+00 -0.00000000000E+00 -0.16128279067E+02  0.16128279067E+02  0.00000000000E+00 0.  1.
         25    2    1    2    0    0 -0.44840907211E+02  0.23871838678E+02  0.50171575113E+03  0.51956390650E+03  0.12508951342E+03 0.  0.
          5    1    3    3  502    0  0.18675897357E+02 -0.36631317679E+02  0.23930384431E+03  0.24284654595E+03  0.41800000000E+01 0.  1.
         -5    1    3    3    0  502 -0.63516804568E+02  0.60503156356E+02  0.26241190682E+03  0.27671736055E+03  0.41800000000E+01 0.  1.
        -11    1    1    2    0    0 -0.26467251593E+02 -0.27582470252E+01  0.93163119570E+02  0.96889061207E+02  0.00000000000E+00 0. -1.
         11    1    1    2    0    0  0.71308158805E+02 -0.21113591652E+02  0.25352408149E+03  0.26420654262E+03  0.00000000000E+00 0.  1.
</event>
<event>
 7    1  0.2440960E-009  0.3440126E+03  0.7561462E-02  0.1065100E+00
          2   -1    0    0  501    0  0.00000000000E+00  0.00000000000E+00  0.84651328598E+03  0.84651328598E+03  0.00000000000E+00 0. -1.
         -2   -1    0    0    0  501 -0.00000000000E+00 -0.00000000000E+00 -0.14652153038E+03  0.14652153038E+03  0.00000000000E+00 0.  1.
         25    2    1    2    0    0 -0.68011333191E+02  0.32765188276E+03  0.36077652149E+03  0.50772856779E+03  0.12508917770E+03 0.  0.
          5    1    3    3  502    0 -0.68984224623E+02  0.32925713864E+03  0.31231321903E+03  0.45904913220E+03  0.41800000000E+01 0. -1.
         -5    1    3    3    0  502  0.97289143202E+00 -0.16052558860E+01  0.48463302459E+02  0.48679435591E+02  0.41800000000E+01 0. -1.
        -11    1    1    2    0    0  0.80743458471E+02 -0.16334614606E+03  0.17378168113E+03  0.25179662868E+03  0.00000000000E+00 0.  1.
         11    1    1    2    0    0 -0.12732125281E+02 -0.16430573670E+03  0.16543355298E+03  0.23350961988E+03  0.00000000000E+00 0. -1.
</event>
<event>
 7    1  0.2440960E-009  0.1206871E+03  0.7561462E-02  0.1241968E+00
          1   -1    0    0  501    0  0.00000000000E+00  0.00000000000E+00  0.90216491311E+02  0.90216491311E+02  0.00000000000E+00 0. -1.
         -1   -1    0    0    0  501 -0.00000000000E+00 -0.00000000000E+00 -0.28186252475E+03  0.28186252475E+03  0.00000000000E+00 0.  1.
         25    2    1    2    0    0  0.68738976621E+02 -0.61304618435E+01 -0.21450903752E+03  0.25772609036E+03  0.12508389588E+03 0.  0.
          5    1    3    3  502    0 -0.40642826880E+01 -0.45899295901E+02 -0.13513640443E+03  0.14283761396E+03  0.41800000000E+01 0.  1.
         -5    1    3    3    0  502  0.72803259309E+02  0.39768834057E+02 -0.79372633084E+02  0.11488847641E+03  0.41800000000E+01 0.  1.
        -11    1    1    2    0    0  0.89899786291E+01 -0.26320080254E+02  0.57712735054E+01  0.28405526544E+02  0.00000000000E+00 0. -1.
         11    1    1    2    0    0 -0.77728955250E+02  0.32450542098E+02  0.17091730575E+02  0.85947399151E+02  0.00000000000E+00 0.  1.
</event>
<event>
 7    1  0.2440960E-009  0.8854848E+02  0.7561462E-02  0.1306405E+00
          1   -1    0    0  501    0  0.00000000000E+00  0.00000000000E+00  0.29964443791E+03  0.29964443791E+03  0.00000000000E+00 0. -1.
         -1   -1    0    0    0  501 -0.00000000000E+00 -0.00000000000E+00 -0.50578678260E+02  0.50578678260E+02  0.00000000000E+00 0.  1.
         25    2    1    2    0    0  0.40062903335E+02  0.20253332891E+02  0.19202872910E+03  0.23353315857E+03  0.12508984625E+03 0.  0.
          5    1    3    3  502    0 -0.13816155766E+02  0.27432649147E+02  0.17305583233E+03  0.17581020990E+03  0.41800000000E+01 0. -1.
         -5    1    3    3    0  502  0.53879059102E+02 -0.71793162563E+01  0.18972896761E+02  0.57722948669E+02  0.41800000000E+01 0. -1.
        -11    1    1    2    0    0  0.13422006181E+02 -0.33835269078E+02 -0.12542197800E+01  0.36421816961E+02  0.00000000000E+00 0. -1.
         11    1    1    2    0    0 -0.53484909516E+02  0.13581936188E+02  0.58291250339E+02  0.80268140645E+02  0.00000000000E+00 0.  1.
</event>
<event>
 7    1  0.2440960E-009  0.1213214E+03  0.7561462E-02  0.1240933E+00
          1   -1    0    0  501    0  0.00000000000E+00  0.00000000000E+00  0.58542637830E+02  0.58542637830E+02  0.00000000000E+00 0. -1.
         -1   -1    0    0    0  501 -0.00000000000E+00 -0.00000000000E+00 -0.46000044740E+03  0.46000044740E+03  0.00000000000E+00 0.  1.
         25    2    1    2    0    0  0.85499226653E+02 -0.16408217076E+02 -0.35230135270E+03  0.38385402179E+03  0.12509324356E+03 0.  0.
          5    1    3    3  502    0 -0.20036550777E+02 -0.34885973527E+02 -0.14404706251E+03  0.14961792384E+03  0.41800000000E+01 0. -1.
         -5    1    3    3    0  502  0.10553577743E+03  0.18477756451E+02 -0.20825429019E+03  0.23423609795E+03  0.41800000000E+01 0. -1.
        -11    1    1    2    0    0 -0.58360102093E+02  0.28868799509E+02 -0.72012686799E+02  0.97083140459E+02  0.00000000000E+00 0.  1.
         11    1    1    2    0    0 -0.27139124561E+02 -0.12460582434E+02  0.22856229930E+02  0.37605922979E+02  0.00000000000E+00 0. -1.
</event>
<event>
 7    1  0.2440960E-009  0.1045811E+03  0.7561462E-02  0.1270947E+00
         -2   -1    0    0    0  501 -0.00000000000E+00  0.00000000000E+00  0.43322998671E+03  0.43322998671E+03  0.00000000000E+00 0.  1.
          2   -1    0    0  501    0  0.00000000000E+00 -0.00000000000E+00 -0.54786809140E+02  0.54786809140E+02  0.00000000000E+00 0. -1.
         25    2    1    2    0    0 -0.22777584855E+01 -0.13802551019E+01  0.37866142966E+03  0.39879745121E+03  0.12509130861E+03 0.  0.
          5    1    3    3  502    0 -0.59251175558E+02  0.14838637206E+02  0.24507037516E+03  0.25260215387E+03  0.41800000000E+01 0. -1.
         -5    1    3    3    0  502  0.56973417073E+02 -0.16218892308E+02  0.13359105450E+03  0.14619529734E+03  0.41800000000E+01 0. -1.
        -11    1    1    2    0    0  0.45405272208E+02  0.24827184152E-01 -0.55465366058E+01  0.45742796471E+02  0.00000000000E+00 0.  1.
         11    1    1    2    0    0 -0.43127513722E+02  0.13554279178E+01  0.53282845103E+01  0.43476548167E+02  0.00000000000E+00 0. -1.
</event>
<event>
 7    1  0.2440960E-009  0.9051394E+02  0.7561462E-02  0.1301612E+00
          1   -1    0    0  501    0  0.00000000000E+00  0.00000000000E+00  0.11531397448E+04  0.11531397448E+04  0.00000000000E+00 0. -1.
         -1   -1    0    0    0  501 -0.00000000000E+00 -0.00000000000E+00 -0.15405051187E+02  0.15405051187E+02  0.00000000000E+00 0.  1.
         25    2    1    2    0    0 -0.42028460765E+02  0.41364096168E+02  0.73024244396E+03  0.74322226481E+03  0.12509167834E+03 0.  0.
          5    1    3    3  502    0 -0.39214319785E+02  0.22391713180E+02  0.74716029941E+02  0.87401997835E+02  0.41800000000E+01 0.  1.
         -5    1    3    3    0  502 -0.28141409798E+01  0.18972382989E+02  0.65552641402E+03  0.65582026698E+03  0.41800000000E+01 0.  1.
        -11    1    1    2    0    0  0.69921514332E+02 -0.50991548773E+02  0.23721930616E+03  0.25251169365E+03  0.00000000000E+00 0.  1.
         11    1    1    2    0    0 -0.27893053567E+02  0.96274526042E+01  0.17027294346E+03  0.17281083749E+03  0.00000000000E+00 0. -1.
</event>
<event>
 7    1  0.2440960E-009  0.2013605E+03  0.7561462E-02  0.1148596E+00
         -1   -1    0    0    0  501 -0.00000000000E+00  0.00000000000E+00  0.59814667021E+02  0.59814667021E+02  0.00000000000E+00 0.  1.
          1   -1    0    0  501    0  0.00000000000E+00 -0.00000000000E+00 -0.91237912275E+03  0.91237912275E+03  0.00000000000E+00 0. -1.
         25    2    1    2    0    0 -0.13132324415E+03 -0.13672719646E+03 -0.60685566089E+03  0.64796958392E+03  0.12510262917E+03 0.  0.
          5    1    3    3  502    0 -0.44421227591E+02 -0.73368106747E+02 -0.44755649328E+03  0.45571966342E+03  0.41800000000E+01 0. -1.
         -5    1    3    3    0  502 -0.86902016558E+02 -0.63359089715E+02 -0.15929916760E+03  0.19224992050E+03  0.41800000000E+01 0. -1.
        -11    1    1    2    0    0  0.12948159825E+03  0.14866360723E+03 -0.24074484011E+03  0.31116624245E+03  0.00000000000E+00 0. -1.
         11    1    1    2    0    0  0.18416458974E+01 -0.11936410770E+02 -0.49639547346E+01  0.13057963405E+02  0.00000000000E+00 0.  1.
</event>
<event>
 7    1  0.2440960E-009  0.9744761E+02  0.7561462E-02  0.1285757E+00
         -2   -1    0    0    0  501 -0.00000000000E+00  0.00000000000E+00  0.15180641615E+02  0.15180641615E+02  0.00000000000E+00 0. -1.
          2   -1    0    0  501    0  0.00000000000E+00 -0.00000000000E+00 -0.83057826502E+03  0.83057826502E+03  0.00000000000E+00 0.  1.
         25    2    1    2    0    0 -0.84457344059E+01 -0.18726814219E+02 -0.54787156827E+03  0.56234612611E+03  0.12509151145E+03 0.  0.
          5    1    3    3  502    0  0.45316333072E+02 -0.41005399636E+02 -0.37303462176E+03  0.37803083773E+03  0.41800000000E+01 0. -1.
         -5    1    3    3    0  502 -0.53762067478E+02  0.22278585417E+02 -0.17483694651E+03  0.18431528838E+03  0.41800000000E+01 0. -1.
        -11    1    1    2    0    0 -0.27765720171E+02  0.26359594962E+02 -0.21933713292E+03  0.22265341080E+03  0.00000000000E+00 0. -1.
         11    1    1    2    0    0  0.36211454577E+02 -0.76327807425E+01 -0.48188922211E+02  0.60759369716E+02  0.00000000000E+00 0.  1.
</event>
<event>
 7    1  0.2440960E-009  0.2911162E+03  0.7561462E-02  0.1089768E+00
          1   -1    0    0  501    0  0.00000000000E+00  0.00000000000E+00  0.48047959602E+03  0.48047959602E+03  0.00000000000E+00 0.  1.
         -1   -1    0    0    0  501 -0.00000000000E+00 -0.00000000000E+00 -0.29533525691E+03  0.29533525691E+03  0.00000000000E+00 0. -1.
         25    2    1    2    0    0  0.90153412299E+02  0.26035245507E+03  0.33412285516E+03  0.45077075042E+03  0.12508056798E+03 0.  0.
          5    1    3    3  502    0  0.12114272901E+03  0.22208892745E+03  0.28469995764E+03  0.38088133423E+03  0.41800000000E+01 0.  1.
         -5    1    3    3    0  502 -0.30989316710E+02  0.38263527619E+02  0.49422897520E+02  0.69889416190E+02  0.41800000000E+01 0.  1.
        -11    1    1    2    0    0 -0.76278053906E+02 -0.14708245647E+03 -0.47567050469E+02  0.17237811578E+03  0.00000000000E+00 0.  1.
         11    1    1    2    0    0 -0.13875358393E+02 -0.11326999860E+03 -0.10141146557E+03  0.15266598673E+03  0.00000000000E+00 0. -1.
</event>
<event>
 7    1  0.2755565E-009  0.1236178E+03  0.7561462E-02  0.1237245E+00
          1   -1    0    0  501    0  0.00000000000E+00  0.00000000000E+00  0.79860861403E+03  0.79860861403E+03  0.00000000000E+00 0. -1.
         -1   -1    0    0    0  501 -0.00000000000E+00 -0.00000000000E+00 -0.23377933504E+02  0.23377933504E+02  0.00000000000E+00 0.  1.
         25    2    1    2    0    0  0.16616233831E+02 -0.81189729009E+02  0.44299947263E+03  0.46772103924E+03  0.12508623612E+03 0.  0.
          5    1    3    3  502    0  0.67018899125E+02 -0.64072074638E+02  0.22746978562E+03  0.24567608626E+03  0.41800000000E+01 0. -1.
         -5    1    3    3    0  502 -0.50402665294E+02 -0.17117654372E+02  0.21552968701E+03  0.22204495298E+03  0.41800000000E+01 0. -1.
        -11    1    1    2    0    0  0.18613697934E+02  0.52151820498E+02  0.27760098348E+03  0.28306993510E+03  0.00000000000E+00 0. -1.
         11    1    1    2    0    0 -0.35229931765E+02  0.29037908511E+02  0.54630224416E+02  0.71195573195E+02  0.00000000000E+00 0.  1.
</event>
<event>
 7    1  0.2440960E-009  0.1079394E+03  0.7561462E-02  0.1264434E+00
          3   -1    0    0  501    0  0.00000000000E+00  0.00000000000E+00  0.13327810237E+03  0.13327810237E+03  0.00000000000E+00 0. -1.
         -3   -1    0    0    0  501 -0.00000000000E+00 -0.00000000000E+00 -0.21483104484E+03  0.21483104484E+03  0.00000000000E+00 0.  1.
         25    2    1    2    0    0  0.52843979905E+01  0.48027805765E+02  0.80087558635E+02  0.15619854267E+03  0.12509745280E+03 0.  0.
          5    1    3    3  502    0  0.59140986218E+02  0.17256386994E+01  0.54617568014E+02  0.80629927542E+02  0.41800000000E+01 0. -1.
         -5    1    3    3    0  502 -0.53856588227E+02  0.46302167065E+02  0.25469990622E+02  0.75568615130E+02  0.41800000000E+01 0. -1.
        -11    1    1    2    0    0  0.93731005695E+01 -0.63451794354E+02 -0.15773533340E+03  0.17027748126E+03  0.00000000000E+00 0.  1.
         11    1    1    2    0    0 -0.14657498560E+02  0.15423988589E+02 -0.39051677147E+01  0.21633123282E+02  0.00000000000E+00 0. -1.
</event>
<event>
 7    1  0.2440960E-009  0.1405659E+03  0.7561462E-02  0.1212569E+00
         -4   -1    0    0    0  501 -0.00000000000E+00  0.00000000000E+00  0.26466435505E+03  0.26466435505E+03  0.00000000000E+00 0.  1.
          4   -1    0    0  501    0  0.00000000000E+00 -0.00000000000E+00 -0.86716877035E+02  0.86716877035E+02  0.00000000000E+00 0. -1.
         25    2    1    2    0    0  0.96616987323E+02  0.33261112253E+02  0.70303617825E+02  0.17615813458E+03  0.12509174982E+03 0.  0.
          5    1    3    3  502    0  0.12089391794E+03  0.49378915615E+02  0.47883660644E+02  0.13915435336E+03  0.41800000000E+01 0. -1.
         -5    1    3    3    0  502 -0.24276930612E+02 -0.16117803361E+02  0.22419957181E+02  0.37003781228E+02  0.41800000000E+01 0. -1.
        -11    1    1    2    0    0 -0.85448589126E+02 -0.51413755473E+02  0.45664816918E+02  0.10968186331E+03  0.00000000000E+00 0. -1.
         11    1    1    2    0    0 -0.11168398197E+02  0.18152643220E+02  0.61979043270E+02  0.65541234188E+02  0.00000000000E+00 0.  1.
</event>
<event>
 7    1  0.2440960E-009  0.1008226E+03  0.7561462E-02  0.1278576E+00
         -1   -1    0    0    0  501 -0.00000000000E+00  0.00000000000E+00  0.99520528006E+02  0.99520528006E+02  0.00000000000E+00 0.  1.
          1   -1    0    0  501    0  0.00000000000E+00 -0.00000000000E+00 -0.11177237800E+03  0.11177237800E+03  0.00000000000E+00 0. -1.
         25    2    1    2    0    0 -0.85413897805E+01 -0.48669184321E+02  0.63830718909E+01  0.13464808025E+03  0.12509083526E+03 0.  0.
          5    1    3    3  502    0 -0.66777411466E+02 -0.25208085718E+02  0.56270339558E+01  0.71720333092E+02  0.41800000000E+01 0.  1.
         -5    1    3    3    0  502  0.58236021686E+02 -0.23461098603E+02  0.75603793510E+00  0.62927747161E+02  0.41800000000E+01 0.  1.
        -11    1    1    2    0    0  0.17757585414E+02  0.70321308371E-01 -0.20528912855E+02  0.27143563654E+02  0.00000000000E+00 0. -1.
         11    1    1    2    0    0 -0.92161956333E+01  0.48598863013E+02  0.18939909655E+01  0.49501262104E+02  0.00000000000E+00 0.  1.
</event>
<event>
 7    1  0.2440960E-009  0.7756452E+02  0.7561462E-02  0.1336109E+00
          2   -1    0    0  501    0  0.00000000000E+00  0.00000000000E+00  0.98914825118E+03  0.98914825118E+03  0.00000000000E+00 0.  1.
         -2   -1    0    0    0  501 -0.00000000000E+00 -0.00000000000E+00 -0.13297735804E+02  0.13297735804E+02  0.00000000000E+00 0. -1.
         25    2    1    2    0    0 -0.25687804575E+02 -0.29017095456E+01  0.69175460954E+03  0.70344791099E+03  0.12508493288E+03 0.  0.
          5    1    3    3  502    0  0.22596641128E+02 -0.66968765606E+01  0.23895791047E+02  0.33822146231E+02  0.41800000000E+01 0. -1.
         -5    1    3    3    0  502 -0.48284445703E+02  0.37951670150E+01  0.66785881849E+03  0.66962576476E+03  0.41800000000E+01 0. -1.
        -11    1    1    2    0    0 -0.41995342027E+01 -0.34471101694E+02  0.19298704428E+03  0.19608644064E+03  0.00000000000E+00 0.  1.
         11    1    1    2    0    0  0.29887338778E+02  0.37372811239E+02  0.91108861558E+02  0.10291163537E+03  0.00000000000E+00 0. -1.
</event>
<event>
 7    1  0.2440960E-009  0.9366176E+02  0.7561462E-02  0.1294219E+00
          2   -1    0    0  501    0  0.00000000000E+00  0.00000000000E+00  0.57887146005E+03  0.57887146005E+03  0.00000000000E+00 0. -1.
         -2   -1    0    0    0  501 -0.00000000000E+00 -0.00000000000E+00 -0.42646300804E+02  0.42646300804E+02  0.00000000000E+00 0.  1.
         25    2    1    2    0    0 -0.21816893364E+02 -0.76802808731E+02  0.13034892379E+03  0.19751130026E+03  0.12508086797E+03 0.  0.
          5    1    3    3  502    0 -0.13440247282E+02 -0.41927104368E+02  0.15001120432E+03  0.15639487252E+03  0.41800000000E+01 0. -1.
         -5    1    3    3    0  502 -0.83766460813E+01 -0.34875704362E+02 -0.19662280535E+02  0.41116427741E+02  0.41800000000E+01 0. -1.
        -11    1    1    2    0    0  0.27013356750E+02 -0.28510465493E+01  0.33292470729E+02  0.42967877729E+02  0.00000000000E+00 0.  1.
         11    1    1    2    0    0 -0.51964633862E+01  0.79653855280E+02  0.37258376473E+03  0.38103858287E+03  0.00000000000E+00 0. -1.
</event>
<event>
 7    1  0.2440960E-009  0.1451611E+03  0.7561462E-02  0.1206548E+00
          3   -1    0    0  501    0  0.00000000000E+00  0.00000000000E+00  0.40909541963E+03  0.40909541963E+03  0.00000000000E+00 0. -1.
         -3   -1    0    0    0  501 -0.00000000000E+00 -0.00000000000E+00 -0.62482314114E+02  0.62482314114E+02  0.00000000000E+00 0.  1.
         25    2    1    2    0    0  0.90253268909E+02  0.39859578489E+02  0.89106513155E+02  0.18254377743E+03  0.12509125248E+03 0.  0.
          5    1    3    3  502    0 -0.14043764634E+02 -0.30111259647E+02  0.22218122587E+02  0.40187468867E+02  0.41800000000E+01 0.  1.
         -5    1    3    3    0  502  0.10429703354E+03  0.69970838136E+02  0.66888390568E+02  0.14235630856E+03  0.41800000000E+01 0.  1.
        -11    1    1    2    0    0  0.14579439302E+02  0.72006795935E+01  0.35689147750E+02  0.39218938079E+02  0.00000000000E+00 0. -1.
         11    1    1    2    0    0 -0.10483270821E+03 -0.47060258083E+02  0.22181744461E+03  0.24981501824E+03  0.00000000000E+00 0.  1.
</event>
<event>
 7    1  0.2440960E-009  0.2291609E+03  0.7561462E-02  0.1127232E+00
         -1   -1    0    0    0  501 -0.00000000000E+00  0.00000000000E+00  0.40496515650E+03  0.40496515650E+03  0.00000000000E+00 0.  1.
          1   -1    0    0  501    0  0.00000000000E+00 -0.00000000000E+00 -0.14179606449E+03  0.14179606449E+03  0.00000000000E+00 0. -1.
         25    2    1    2    0    0  0.10153619206E+03 -0.18553302268E+03  0.16167697003E+03  0.29414123172E+03  0.12509005059E+03 0.  0.
          5    1    3    3  502    0  0.12665698432E+03 -0.12811812187E+03  0.13816504856E+03  0.22707553341E+03  0.41800000000E+01 0.  1.
         -5    1    3    3    0  502 -0.25120792265E+02 -0.57414900807E+02  0.23511921473E+02  0.67065698312E+02  0.41800000000E+01 0.  1.
        -11    1    1    2    0    0 -0.10115763275E+03  0.15696552241E+03  0.11675017717E+03  0.22023089192E+03  0.00000000000E+00 0.  1.
         11    1    1    2    0    0 -0.37855930984E+00  0.28567500268E+02 -0.15258055193E+02  0.32389097347E+02  0.00000000000E+00 0. -1.
</event>
<event>
 7    1  0.2440960E-009  0.8638141E+02  0.7561462E-02  0.1311859E+00
          1   -1    0    0  501    0  0.00000000000E+00  0.00000000000E+00  0.35345283788E+03  0.35345283788E+03  0.00000000000E+00 0. -1.
         -1   -1    0    0    0  501 -0.00000000000E+00 -0.00000000000E+00 -0.33135208332E+02  0.33135208332E+02  0.00000000000E+00 0.  1.
         25    2    1    2    0    0  0.20911751017E+01 -0.21278278660E+01  0.17034419053E+03  0.21136043415E+03  0.12508872535E+03 0.  0.
          5    1    3    3  502    0  0.39879097567E+02  0.12140682589E+02  0.63016537846E+01  0.42366517876E+02  0.41800000000E+01 0.  1.
         -5    1    3    3    0  502 -0.37787922465E+02 -0.14268510455E+02  0.16404253674E+03  0.16899391627E+03  0.41800000000E+01 0.  1.
        -11    1    1    2    0    0  0.42724131616E+02  0.11984884274E+02  0.65895493556E+02  0.79443092490E+02  0.00000000000E+00 0.  1.
         11    1    1    2    0    0 -0.44815306717E+02 -0.98570564081E+01  0.84077945462E+02  0.95784519576E+02  0.00000000000E+00 0. -1.
</event>
<event>
 7    1  0.2440960E-009  0.1057914E+03  0.7561462E-02  0.1268568E+00
          2   -1    0    0  501    0  0.00000000000E+00  0.00000000000E+00  0.36854461382E+03  0.36854461382E+03  0.00000000000E+00 0. -1.
         -2   -1    0    0    0  501 -0.00000000000E+00 -0.00000000000E+00 -0.48380497794E+02  0.48380497794E+02  0.00000000000E+00 0.  1.
         25    2    1    2    0    0 -0.64347358852E+02  0.16194082563E+02  0.22984061108E+03  0.26995850000E+03  0.12509218328E+03 0.  0.
          5    1    3    3  502    0 -0.58042988713E+02  0.54970515195E+02  0.21199893590E+03  0.22660928335E+03  0.41800000000E+01 0. -1.
         -5    1    3    3    0  502 -0.63043701395E+01 -0.38776432632E+02  0.17841675180E+02  0.43349216645E+02  0.41800000000E+01 0. -1.
        -11    1    1    2    0    0  0.74100375440E+02 -0.11671644712E+01  0.23443966192E+02  0.77729321778E+02  0.00000000000E+00 0.  1.
         11    1    1    2    0    0 -0.97530165881E+01 -0.15026918091E+02  0.66879538759E+02  0.69237289841E+02  0.00000000000E+00 0. -1.
</event>
<event>
 7    1  0.2440960E-009  0.9625341E+02  0.7561462E-02  0.1288378E+00
          3   -1    0    0  501    0  0.00000000000E+00  0.00000000000E+00  0.25155976558E+03  0.25155976558E+03  0.00000000000E+00 0. -1.
         -3   -1    0    0    0  501 -0.00000000000E+00 -0.00000000000E+00 -0.92208967498E+02  0.92208967498E+02  0.00000000000E+00 0.  1.
         25    2    1    2    0    0  0.53007519329E+02 -0.89648619690E+01 -0.17652107051E+02  0.13729619855E+03  0.12509389832E+03 0.  0.
          5    1    3    3  502    0  0.14480475437E+01  0.29354330777E+02 -0.55268315217E+02  0.62736214772E+02  0.41800000000E+01 0.  1.
         -5    1    3    3    0  502  0.51559471785E+02 -0.38319192746E+02  0.37616208166E+02  0.74559983773E+02  0.41800000000E+01 0.  1.
        -11    1    1    2    0    0 -0.30103914615E+02  0.45955788311E+02  0.58581153292E+02  0.80311466650E+02  0.00000000000E+00 0. -1.
         11    1    1    2    0    0 -0.22903604713E+02 -0.36990926342E+02  0.11842175184E+03  0.12616106788E+03  0.00000000000E+00 0.  1.
</event>
<event>
 7    1  0.2440960E-009  0.1059691E+03  0.7561462E-02  0.1268222E+00
         -1   -1    0    0    0  501 -0.00000000000E+00  0.00000000000E+00  0.26915616537E+03  0.26915616537E+03  0.00000000000E+00 0.  1.
          1   -1    0    0  501    0  0.00000000000E+00 -0.00000000000E+00 -0.72690473158E+02  0.72690473158E+02  0.00000000000E+00 0. -1.
         25    2    1    2    0    0  0.28394568276E+02  0.82355269801E+02  0.12213174085E+03  0.19532844776E+03  0.12509355862E+03 0.  0.
          5    1    3    3  502    0  0.26967387395E+02  0.79632480147E+02  0.14728613277E+03  0.16964447879E+03  0.41800000000E+01 0.  1.
         -5    1    3    3    0  502  0.14271808811E+01  0.27227896533E+01 -0.25154391922E+02  0.25683968964E+02  0.41800000000E+01 0.  1.
        -11    1    1    2    0    0  0.73192816067E+01  0.16182483113E+02  0.25028452666E+02  0.30689869433E+02  0.00000000000E+00 0.  1.
         11    1    1    2    0    0 -0.35713849882E+02 -0.98537752914E+02  0.49305498695E+02  0.11582832134E+03  0.00000000000E+00 0. -1.
</event>
<event>
 7    1  0.2440960E-009  0.9675200E+02  0.7561462E-02  0.1287278E+00
         -1   -1    0    0    0  501 -0.00000000000E+00  0.00000000000E+00  0.44578351583E+03  0.44578351583E+03  0.00000000000E+00 0.  1.
          1   -1    0    0  501    0  0.00000000000E+00 -0.00000000000E+00 -0.29076917727E+02  0.29076917727E+02  0.00000000000E+00 0. -1.
         25    2    1    2    0    0  0.31681679961E+02  0.87962385186E+01  0.23558827312E+03  0.26875845448E+03  0.12509264474E+03 0.  0.
          5    1    3    3  502    0  0.57122122687E+02  0.43655123285E+02  0.20031043597E+03  0.21286251396E+03  0.41800000000E+01 0.  1.
         -5    1    3    3    0  502 -0.25440442727E+02 -0.34858884767E+02  0.35277837151E+02  0.55895940527E+02  0.41800000000E+01 0.  1.
        -11    1    1    2    0    0 -0.48621212415E+02  0.13188348849E+02  0.16802491910E+03  0.17541473223E+03  0.00000000000E+00 0.  1.
         11    1    1    2    0    0  0.16939532454E+02 -0.21984587368E+02  0.13093405876E+02  0.30687246846E+02  0.00000000000E+00 0. -1.
</event>
<event>
 7    1  0.2440960E-009  0.8300773E+02  0.7561462E-02  0.1320726E+00
          1   -1    0    0  501    0  0.00000000000E+00  0.00000000000E+00  0.84508972659E+02  0.84508972659E+02  0.00000000000E+00 0. -1.
         -1   -1    0    0    0  501 -0.00000000000E+00 -0.00000000000E+00 -0.16653835249E+03  0.16653835249E+03  0.00000000000E+00 0.  1.
         25    2    1    2    0    0  0.52749793015E+01  0.46836163908E+02 -0.23203028971E+02  0.13567348811E+03  0.12508982039E+03 0.  0.
          5    1    3    3  502    0 -0.15073716311E+02 -0.15408921227E+01 -0.65986771696E+02  0.67833013428E+02  0.41800000000E+01 0.  1.
         -5    1    3    3    0  502  0.20348695613E+02  0.48377056030E+02  0.42783742725E+02  0.67840474680E+02  0.41800000000E+01 0.  1.
        -11    1    1    2    0    0 -0.44966780093E+02 -0.32356349846E+02 -0.23016201883E+02  0.59989084311E+02  0.00000000000E+00 0.  1.
         11    1    1    2    0    0  0.39691800792E+02 -0.14479814061E+02 -0.35810148980E+02  0.55384752733E+02  0.00000000000E+00 0. -1.
</event>
<event>
 7    1  0.2440960E-009  0.1154790E+03  0.7561462E-02  0.1250747E+00
          2   -1    0    0  501    0  0.00000000000E+00  0.00000000000E+00  0.16689823662E+04  0.16689823662E+04  0.00000000000E+00 0. -1.
         -2   -1    0    0    0  501 -0.00000000000E+00 -0.00000000000E+00 -0.97710218902E+01  0.97710218902E+01  0.00000000000E+00 0.  1.
         25    2    1    2    0    0 -0.13050677537E+02 -0.59116363959E+02  0.10646315007E+04  0.10736632827E+04  0.12509015824E+03 0.  0.
          5    1    3    3  502    0  0.21597332992E+02 -0.77500835967E+02  0.92690348800E+03  0.93039796476E+03  0.41800000000E+01 0. -1.
         -5    1    3    3    0  502 -0.34648010529E+02  0.18384472007E+02  0.13772801268E+03  0.14326531793E+03  0.41800000000E+01 0. -1.
        -11    1    1    2    0    0 -0.26882129332E+02 -0.11961298811E+02  0.11972458320E+03  0.12328705273E+03  0.00000000000E+00 0. -1.
         11    1    1    2    0    0  0.39932806869E+02  0.71077662770E+02  0.47485526042E+03  0.48180305266E+03  0.00000000000E+00 0.  1.
</event>
<event>
 7    1  0.2440960E-009  0.1059532E+03  0.7561462E-02  0.1268253E+00
         -1   -1    0    0    0  501 -0.00000000000E+00  0.00000000000E+00  0.28441760611E+02  0.28441760611E+02  0.00000000000E+00 0.  1.
          1   -1    0    0  501    0  0.00000000000E+00 -0.00000000000E+00 -0.54806458532E+03  0.54806458532E+03  0.00000000000E+00 0. -1.
         25    2    1    2    0    0 -0.15826705665E+02 -0.30721124143E+02 -0.16777358420E+03  0.21210569625E+03  0.12508628521E+03 0.  0.
          5    1    3    3  502    0  0.17408537012E+02  0.44050399524E+02 -0.54869349088E+02  0.72605872548E+02  0.41800000000E+01 0.  1.
         -5    1    3    3    0  502 -0.33235242678E+02 -0.74771523667E+02 -0.11290423511E+03  0.13949982371E+03  0.41800000000E+01 0.  1.
        -11    1    1    2    0    0  0.46144691120E+02  0.19529967500E+02 -0.29307221036E+03  0.29732486044E+03  0.00000000000E+00 0. -1.
         11    1    1    2    0    0 -0.30317985454E+02  0.11191156643E+02 -0.58777030146E+02  0.67075789237E+02  0.00000000000E+00 0.  1.
</event>
<event>
 7    1  0.2440960E-009  0.1560274E+03  0.7561462E-02  0.1193256E+00
          4   -1    0    0  501    0  0.00000000000E+00  0.00000000000E+00  0.31467152561E+03  0.31467152561E+03  0.00000000000E+00 0.  1.
         -4   -1    0    0    0  501 -0.00000000000E+00 -0.00000000000E+00 -0.93020967504E+02  0.93020967504E+02  0.00000000000E+00 0. -1.
         25    2    1    2    0    0  0.87045748833E+01  0.12708005044E+03  0.90710407524E+02  0.20025192968E+03  0.12508936191E+03 0.  0.
          5    1    3    3  502    0 -0.48502581489E+02  0.10516664245E+03  0.47892891959E+02  0.12539427657E+03  0.41800000000E+01 0.  1.
         -5    1    3    3    0  502  0.57207156372E+02  0.21913407987E+02  0.42817515565E+02  0.74857653109E+02  0.41800000000E+01 0.  1.
        -11    1    1    2    0    0  0.16308186557E+02 -0.77898126193E+02  0.12979405782E+03  0.15225167473E+03  0.00000000000E+00 0.  1.
         11    1    1    2    0    0 -0.25012761440E+02 -0.49181924248E+02  0.11460927599E+01  0.55188888702E+02  0.00000000000E+00 0. -1.
</event>
<event>
 7    1  0.2440960E-009  0.1063864E+03  0.7561462E-02  0.1267412E+00
          1   -1    0    0  501    0  0.00000000000E+00  0.00000000000E+00  0.71934391753E+02  0.71934391753E+02  0.00000000000E+00 0. -1.
         -1   -1    0    0    0  501 -0.00000000000E+00 -0.00000000000E+00 -0.23235745026E+03  0.23235745026E+03  0.00000000000E+00 0.  1.
         25    2    1    2    0    0  0.51424059478E+02 -0.41917626867E+02 -0.11354871966E+03  0.18150037029E+03  0.12509017286E+03 0.  0.
          5    1    3    3  502    0  0.78817951054E+02 -0.42634831872E+02 -0.12297787187E+03  0.15222032606E+03  0.41800000000E+01 0. -1.
         -5    1    3    3    0  502 -0.27393891576E+02  0.71720500468E+00  0.94291522128E+01  0.29280044231E+02  0.41800000000E+01 0. -1.
        -11    1    1    2    0    0  0.14746977381E+02  0.21545049749E+02 -0.46759994809E+02  0.53555201662E+02  0.00000000000E+00 0.  1.
         11    1    1    2    0    0 -0.66171036859E+02  0.20372577118E+02 -0.11434404572E+00  0.69236270061E+02  0.00000000000E+00 0. -1.
</event>
<event>
 7    1  0.2440960E-009  0.1260235E+03  0.7561462E-02  0.1233478E+00
         -1   -1    0    0    0  501 -0.00000000000E+00  0.00000000000E+00  0.11857332517E+03  0.11857332517E+03  0.00000000000E+00 0.  1.
          1   -1    0    0  501    0  0.00000000000E+00 -0.00000000000E+00 -0.17721209632E+03  0.17721209632E+03  0.00000000000E+00 0. -1.
         25    2    1    2    0    0 -0.60827644959E+02  0.33376824590E+02 -0.10052094986E+03  0.17483164043E+03  0.12509047255E+03 0.  0.
          5    1    3    3  502    0  0.77687939443E+01  0.66046986866E+02 -0.41142613880E+02  0.78311849106E+02  0.41800000000E+01 0. -1.
         -5    1    3    3    0  502 -0.68596438904E+02 -0.32670162276E+02 -0.59378335976E+02  0.96519791321E+02  0.41800000000E+01 0. -1.
        -11    1    1    2    0    0  0.18601933737E+02  0.28724856281E+02  0.28794510505E+02  0.44724413270E+02  0.00000000000E+00 0.  1.
         11    1    1    2    0    0  0.42225711223E+02 -0.62101680871E+02  0.13087668195E+02  0.76229367792E+02  0.00000000000E+00 0. -1.
</event>
<event>
 7    1  0.2440960E-009  0.1359439E+03  0.7561462E-02  0.1218893E+00
          2   -1    0    0  501    0  0.00000000000E+00  0.00000000000E+00  0.30079610508E+03  0.30079610508E+03  0.00000000000E+00 0. -1.
         -2   -1    0    0    0  501 -0.00000000000E+00 -0.00000000000E+00 -0.94528887025E+02  0.94528887025E+02  0.00000000000E+00 0.  1.
         25    2    1    2    0    0  0.35112683900E+02  0.83134583742E+02  0.21690179907E+03  0.26615390473E+03  0.12508897225E+03 0.  0.
          5    1    3    3  502    0 -0.40635134884E+02  0.26805718257E+02  0.12556655681E+03  0.13473749777E+03  0.41800000000E+01 0. -1.
         -5    1    3    3    0  502  0.75747818784E+02  0.56328865485E+02  0.91335242267E+02  0.13141640696E+03  0.41800000000E+01 0. -1.
        -11    1    1    2    0    0 -0.38874063687E+02 -0.10207627949E+03 -0.11555742649E+02  0.10983758396E+03  0.00000000000E+00 0.  1.
         11    1    1    2    0    0  0.37613797875E+01  0.18941695744E+02  0.92116162777E+00  0.19333503415E+02  0.00000000000E+00 0. -1.
</event>
<event>
 7    1  0.2440960E-009  0.1265062E+03  0.7561462E-02  0.1232734E+00
          1   -1    0    0  501    0  0.00000000000E+00  0.00000000000E+00  0.74544536079E+02  0.74544536079E+02  0.00000000000E+00 0. -1.
         -1   -1    0    0    0  501 -0.00000000000E+00 -0.00000000000E+00 -0.24062500353E+03  0.24062500353E+03  0.00000000000E+00 0.  1.
         25    2    1    2    0    0  0.10897165930E+02  0.67814785793E+02 -0.46131866482E+02  0.14997652317E+03  0.12508882843E+03 0.  0.
          5    1    3    3  502    0 -0.25047218285E+02 -0.29242934678E+02 -0.17556838983E+02  0.42523256783E+02  0.41800000000E+01 0.  1.
         -5    1    3    3    0  502  0.35944384215E+02  0.97057720471E+02 -0.28575027499E+02  0.10745326638E+03  0.41800000000E+01 0.  1.
        -11    1    1    2    0    0  0.13937203278E+02 -0.81267938001E+02 -0.71618590014E+02  0.10921513548E+03  0.00000000000E+00 0. -1.
         11    1    1    2    0    0 -0.24834369208E+02  0.13453152208E+02 -0.48330010953E+02  0.55977880962E+02  0.00000000000E+00 0.  1.
</event>
<event>
 7    1  0.2440960E-009  0.1513713E+03  0.7561462E-02  0.1198798E+00
          2   -1    0    0  501    0  0.00000000000E+00  0.00000000000E+00  0.59546319624E+03  0.59546319624E+03  0.00000000000E+00 0. -1.
         -2   -1    0    0    0  501 -0.00000000000E+00 -0.00000000000E+00 -0.48517198615E+02  0.48517198615E+02  0.00000000000E+00 0.  1.
         25    2    1    2    0    0  0.71777260866E+02  0.10809821750E+03  0.32295878528E+03  0.36984696892E+03  0.12508878296E+03 0.  0.
          5    1    3    3  502    0  0.92651234995E+02  0.54357596961E+02  0.13148054161E+03  0.16983405111E+03  0.41800000000E+01 0. -1.
         -5    1    3    3    0  502 -0.20873974129E+02  0.53740620539E+02  0.19147824367E+03  0.20001291781E+03  0.41800000000E+01 0. -1.
        -11    1    1    2    0    0 -0.14463156111E+02 -0.62631281357E+02  0.17409279556E+03  0.18558060717E+03  0.00000000000E+00 0.  1.
         11    1    1    2    0    0 -0.57314104755E+02 -0.45466936143E+02  0.49894416779E+02  0.88552818768E+02  0.00000000000E+00 0. -1.
</event>
<event>
 7    1  0.2440960E-009  0.1332405E+03  0.7561462E-02  0.1222725E+00
         -2   -1    0    0    0  501 -0.00000000000E+00  0.00000000000E+00  0.14458083993E+02  0.14458083993E+02  0.00000000000E+00 0.  1.
          2   -1    0    0  501    0  0.00000000000E+00 -0.00000000000E+00 -0.12578711954E+04  0.12578711954E+04  0.00000000000E+00 0. -1.
         25    2    1    2    0    0 -0.30013422837E+02  0.88031585533E+02 -0.64287599809E+03  0.66150381010E+03  0.12508947300E+03 0.  0.
          5    1    3    3  502    0  0.30083104696E+02  0.89588784132E+02 -0.35496043333E+03  0.36734932293E+03  0.41800000000E+01 0.  1.
         -5    1    3    3    0  502 -0.60096527533E+02 -0.15571985990E+01 -0.28791556476E+03  0.29415448716E+03  0.41800000000E+01 0.  1.
        -11    1    1    2    0    0  0.48713158645E+02 -0.53518398288E+02 -0.38446185614E+03  0.39121363678E+03  0.00000000000E+00 0.  1.
         11    1    1    2    0    0 -0.18699735807E+02 -0.34513187246E+02 -0.21607525716E+03  0.21961183249E+03  0.00000000000E+00 0. -1.
</event>
<event>
 7    1  0.2440960E-009  0.1031713E+03  0.7561462E-02  0.1273765E+00
         -2   -1    0    0    0  501 -0.00000000000E+00  0.00000000000E+00  0.11875152905E+02  0.11875152905E+02  0.00000000000E+00 0.  1.
          2   -1    0    0  501    0  0.00000000000E+00 -0.00000000000E+00 -0.12419138669E+04  0.12419138669E+04  0.00000000000E+00 0. -1.
         25    2    1    2    0    0  0.23683167753E+02 -0.25286484508E+02 -0.89327121045E+03  0.90265267273E+03  0.12509233960E+03 0.  0.
          5    1    3    3  502    0 -0.33473003772E+02 -0.52499841681E+02 -0.33259256865E+03  0.33839616499E+03  0.41800000000E+01 0. -1.
         -5    1    3    3    0  502  0.57156171525E+02  0.27213357173E+02 -0.56067864180E+03  0.56425650774E+03  0.41800000000E+01 0. -1.
        -11    1    1    2    0    0 -0.20843072448E+02 -0.23624185619E+02 -0.42969981573E+02  0.53281846173E+02  0.00000000000E+00 0.  1.
         11    1    1    2    0    0 -0.28400953048E+01  0.48910670127E+02 -0.29379752194E+03  0.29785450088E+03  0.00000000000E+00 0. -1.
</event>
<event>
 7    1  0.2440960E-009  0.1430054E+03  0.7561462E-02  0.1209341E+00
          2   -1    0    0  501    0  0.00000000000E+00  0.00000000000E+00  0.12391443583E+04  0.12391443583E+04  0.00000000000E+00 0. -1.
         -2   -1    0    0    0  501 -0.00000000000E+00 -0.00000000000E+00 -0.16723330086E+02  0.16723330086E+02  0.00000000000E+00 0.  1.
         25    2    1    2    0    0 -0.29274118522E+02 -0.75361343993E+02  0.69565115282E+03  0.71141922006E+03  0.12510185479E+03 0.  0.
          5    1    3    3  502    0 -0.78502146314E+02 -0.44621629200E+02  0.44731738955E+03  0.45635950320E+03  0.41800000000E+01 0.  1.
         -5    1    3    3    0  502  0.49228027791E+02 -0.30739714793E+02  0.24833376327E+03  0.25505971686E+03  0.41800000000E+01 0.  1.
        -11    1    1    2    0    0 -0.17018940089E+02 -0.23062140803E+02  0.12175769356E+03  0.12508574100E+03  0.00000000000E+00 0. -1.
         11    1    1    2    0    0  0.46293058611E+02  0.98423484796E+02  0.40501218183E+03  0.41936272732E+03  0.00000000000E+00 0.  1.
</event>
<event>
 7    1  0.2440960E-009  0.2060131E+03  0.7561462E-02  0.1144763E+00
          2   -1    0    0  501    0  0.00000000000E+00  0.00000000000E+00  0.13360356340E+04  0.13360356340E+04  0.00000000000E+00 0.  1.
         -2   -1    0    0    0  501 -0.00000000000E+00 -0.00000000000E+00 -0.37277967937E+02  0.37277967937E+02  0.00000000000E+00 0. -1.
         25    2    1    2    0    0 -0.12588053735E+03 -0.14597878805E+03  0.75347949015E+03  0.78774009783E+03  0.12508958149E+03 0.  0.
          5    1    3    3  502    0 -0.12983715868E+03 -0.13217368851E+03  0.74976438623E+03  0.77232873763E+03  0.41800000000E+01 0. -1.
         -5    1    3    3    0  502  0.39566213312E+01 -0.13805099549E+02  0.37151039192E+01  0.15411360195E+02  0.41800000000E+01 0. -1.
        -11    1    1    2    0    0  0.27102144663E+02  0.98477551307E+02  0.30026515817E+03  0.31716166157E+03  0.00000000000E+00 0.  1.
         11    1    1    2    0    0  0.98778392690E+02  0.47501236747E+02  0.24501301773E+03  0.26841184253E+03  0.00000000000E+00 0. -1.
</event>
<event>
 7    1  0.2440960E-009  0.9564690E+02  0.7561462E-02  0.1289726E+00
          1   -1    0    0  501    0  0.00000000000E+00  0.00000000000E+00  0.69480957006E+03  0.69480957006E+03  0.00000000000E+00 0. -1.
         -1   -1    0    0    0  501 -0.00000000000E+00 -0.00000000000E+00 -0.24391173418E+02  0.24391173418E+02  0.00000000000E+00 0.  1.
         25    2    1    2    0    0  0.22274701071E+02 -0.64930212313E+02  0.28941117690E+03  0.32267614063E+03  0.12509583382E+03 0.  0.
          5    1    3    3  502    0 -0.55752901546E+01 -0.49628388565E+02  0.24410127410E+02  0.55743946147E+02  0.41800000000E+01 0. -1.
         -5    1    3    3    0  502  0.27849991225E+02 -0.15301823748E+02  0.26500104949E+03  0.26693219448E+03  0.41800000000E+01 0. -1.
        -11    1    1    2    0    0  0.24999411995E+02 -0.42298947429E+01  0.10895631644E+03  0.11186751764E+03  0.00000000000E+00 0.  1.
         11    1    1    2    0    0 -0.47274113065E+02  0.69160107056E+02  0.27205090331E+03  0.28465708522E+03  0.00000000000E+00 0. -1.
</event>
<event>
 7    1  0.2440960E-009  0.8596859E+02  0.7561462E-02  0.1312919E+00
          1   -1    0    0  501    0  0.00000000000E+00  0.00000000000E+00  0.10236482651E+04  0.10236482651E+04  0.00000000000E+00 0. -1.
         -1   -1    0    0    0  501 -0.00000000000E+00 -0.00000000000E+00 -0.33381108851E+02  0.33381108851E+02  0.00000000000E+00 0.  1.
         25    2    1    2    0    0  0.12844885244E+02 -0.48516912667E+02  0.92384409851E+03  0.93362328128E+03  0.12508249718E+03 0.  0.
          5    1    3    3  502    0 -0.67291605154E+01 -0.47313291735E+02  0.90446913998E+03  0.90574043012E+03  0.41800000000E+01 0. -1.
         -5    1    3    3    0  502  0.19574045759E+02 -0.12036209320E+01  0.19374958531E+02  0.27882851160E+02  0.41800000000E+01 0. -1.
        -11    1    1    2    0    0  0.31537516860E+02  0.50442051569E+02  0.35461306035E+02  0.69256911293E+02  0.00000000000E+00 0. -1.
         11    1    1    2    0    0 -0.44382402104E+02 -0.19251389013E+01  0.30961751721E+02  0.54149181397E+02  0.00000000000E+00 0.  1.
</event>
<event>
 7    1  0.2440960E-009  0.1321601E+03  0.7561462E-02  0.1224285E+00
          1   -1    0    0  501    0  0.00000000000E+00  0.00000000000E+00  0.91124091680E+02  0.91124091680E+02  0.00000000000E+00 0. -1.
         -1   -1    0    0    0  501 -0.00000000000E+00 -0.00000000000E+00 -0.29647714214E+03  0.29647714214E+03  0.00000000000E+00 0.  1.
         25    2    1    2    0    0 -0.87718950145E+02 -0.82045896269E+02 -0.13982174753E+03  0.22276298948E+03  0.12508830917E+03 0.  0.
          5    1    3    3  502    0 -0.57147508495E+02 -0.34499693036E+02 -0.15085565710E+03  0.16501808454E+03  0.41800000000E+01 0.  1.
         -5    1    3    3    0  502 -0.30571441650E+02 -0.47546203233E+02  0.11033909567E+02  0.57744904942E+02  0.41800000000E+01 0.  1.
        -11    1    1    2    0    0  0.39826169228E+02 -0.62429986834E+01  0.70391577241E+01  0.40922469737E+02  0.00000000000E+00 0.  1.
         11    1    1    2    0    0  0.47892780917E+02  0.88288894952E+02 -0.72570460656E+02  0.12391577460E+03  0.00000000000E+00 0. -1.
</event>
<event>
 7    1  0.2440960E-009  0.1547217E+03  0.7561462E-02  0.1194788E+00
         -1   -1    0    0    0  501 -0.00000000000E+00  0.00000000000E+00  0.99072929437E+03  0.99072929437E+03  0.00000000000E+00 0.  1.
          1   -1    0    0  501    0  0.00000000000E+00 -0.00000000000E+00 -0.28489002372E+02  0.28489002372E+02  0.00000000000E+00 0. -1.
         25    2    1    2    0    0 -0.11075273308E+03 -0.62588258207E+02  0.47524895748E+03  0.50763451745E+03  0.12509106195E+03 0.  0.
          5    1    3    3  502    0 -0.12892757303E+03 -0.30199723987E+02  0.29252057322E+03  0.32112318598E+03  0.41800000000E+01 0. -1.
         -5    1    3    3    0  502  0.18174839951E+02 -0.32388534220E+02  0.18272838425E+03  0.18651133147E+03  0.41800000000E+01 0. -1.
        -11    1    1    2    0    0  0.15356774677E+02  0.38127569842E+02  0.55894410605E+02  0.69381029449E+02  0.00000000000E+00 0.  1.
         11    1    1    2    0    0  0.95395958401E+02  0.24460688365E+02  0.43109692392E+03  0.44220274984E+03  0.00000000000E+00 0. -1.
</event>
<event>
 7    1  0.2440960E-009  0.1203318E+03  0.7561462E-02  0.1242551E+00
         -2   -1    0    0    0  501 -0.00000000000E+00  0.00000000000E+00  0.33679316945E+02  0.33679316945E+02  0.00000000000E+00 0.  1.
          2   -1    0    0  501    0  0.00000000000E+00 -0.00000000000E+00 -0.69761212234E+03  0.69761212234E+03  0.00000000000E+00 0. -1.
         25    2    1    2    0    0  0.50863472012E+02  0.12118955913E+02 -0.58202329157E+03  0.59760643869E+03  0.12509349207E+03 0.  0.
          5    1    3    3  502    0  0.71504873097E+02  0.53286528377E+02 -0.39213823258E+03  0.40217193691E+03  0.41800000000E+01 0.  1.
         -5    1    3    3    0  502 -0.20641401084E+02 -0.41167572464E+02 -0.18988505898E+03  0.19543450178E+03  0.41800000000E+01 0.  1.
        -11    1    1    2    0    0  0.26789487307E+02 -0.26841565802E+01 -0.26871249987E+02  0.38038735554E+02  0.00000000000E+00 0.  1.
         11    1    1    2    0    0 -0.77652959319E+02 -0.94347993328E+01 -0.55038263839E+02  0.95646265039E+02  0.00000000000E+00 0. -1.
</event>
<event>
 7    1  0.2440960E-009  0.1398481E+03  0.7561462E-02  0.1213533E+00
         -1   -1    0    0    0  501 -0.00000000000E+00  0.00000000000E+00  0.75139051847E+03  0.75139051847E+03  0.00000000000E+00 0.  1.
          1   -1    0    0  501    0  0.00000000000E+00 -0.00000000000E+00 -0.27260960339E+02  0.27260960339E+02  0.00000000000E+00 0. -1.
         25    2    1    2    0    0  0.66505521199E+02 -0.63640554950E+02  0.35218308463E+03  0.38490703794E+03  0.12508956061E+03 0.  0.
          5    1    3    3  502    0  0.84396681333E+02 -0.87623279228E+02  0.24540815600E+03  0.27394027509E+03  0.41800000000E+01 0.  1.
         -5    1    3    3    0  502 -0.17891160134E+02  0.23982724278E+02  0.10677492863E+03  0.11096676285E+03  0.41800000000E+01 0.  1.
        -11    1    1    2    0    0 -0.54165187835E+02  0.86336675811E+02  0.31794579107E+03  0.33388233739E+03  0.00000000000E+00 0.  1.
         11    1    1    2    0    0 -0.12340333364E+02 -0.22696120860E+02  0.54000682434E+02  0.59862103479E+02  0.00000000000E+00 0. -1.
</event>
<event>
 7    1  0.2440960E-009  0.1042943E+03  0.7561462E-02  0.1271516E+00
          2   -1    0    0  501    0  0.00000000000E+00  0.00000000000E+00  0.17063611642E+03  0.17063611642E+03  0.00000000000E+00 0. -1.
         -2   -1    0    0    0  501 -0.00000000000E+00 -0.00000000000E+00 -0.15879340188E+03  0.15879340188E+03  0.00000000000E+00 0.  1.
         25    2    1    2    0    0 -0.66295795593E+02  0.28694919210E+02  0.10681377281E+03  0.17965626633E+03  0.12509460847E+03 0.  0.
          5    1    3    3  502    0  0.31031563849E+02  0.12206700170E+02 -0.73201407356E+00  0.33615022364E+02  0.41800000000E+01 0.  1.
         -5    1    3    3    0  502 -0.97327359442E+02  0.16488219040E+02  0.10754578688E+03  0.14604124397E+03  0.41800000000E+01 0.  1.
        -11    1    1    2    0    0  0.58828611304E+02 -0.15207562631E+02 -0.11161743199E+03  0.12708472211E+03  0.00000000000E+00 0.  1.
         11    1    1    2    0    0  0.74671842899E+01 -0.13487356580E+02  0.16646373726E+02  0.22688529854E+02  0.00000000000E+00 0. -1.
</event>
<event>
 7    1  0.2440960E-009  0.2087142E+03  0.7561462E-02  0.1142588E+00
         -2   -1    0    0    0  501 -0.00000000000E+00  0.00000000000E+00  0.70794119232E+02  0.70794119232E+02  0.00000000000E+00 0.  1.
          2   -1    0    0  501    0  0.00000000000E+00 -0.00000000000E+00 -0.71622822879E+03  0.71622822879E+03  0.00000000000E+00 0. -1.
         25    2    1    2    0    0  0.16870279141E+03  0.97863464041E+02 -0.28940830613E+03  0.37073046706E+03  0.12508406026E+03 0.  0.
          5    1    3    3  502    0  0.17459147779E+03  0.61759789555E+02 -0.19291427517E+03  0.26745064159E+03  0.41800000000E+01 0.  1.
         -5    1    3    3    0  502 -0.58886863889E+01  0.36103674486E+02 -0.96494030960E+02  0.10327982547E+03  0.41800000000E+01 0.  1.
        -11    1    1    2    0    0 -0.14259668480E+03 -0.87363428168E+02 -0.34943759777E+03  0.38739233063E+03  0.00000000000E+00 0. -1.
         11    1    1    2    0    0 -0.26106106602E+02 -0.10500035873E+02 -0.65882056625E+01  0.28899550327E+02  0.00000000000E+00 0.  1.
</event>
<event>
 7    1  0.2440960E-009  0.1792391E+03  0.7561462E-02  0.1168542E+00
         -4   -1    0    0    0  501 -0.00000000000E+00  0.00000000000E+00  0.89969631787E+03  0.89969631787E+03  0.00000000000E+00 0.  1.
          4   -1    0    0  501    0  0.00000000000E+00 -0.00000000000E+00 -0.44353192817E+02  0.44353192817E+02  0.00000000000E+00 0. -1.
         25    2    1    2    0    0 -0.14723711381E+03 -0.49093602597E+02  0.39246205423E+03  0.44018535447E+03  0.12509089806E+03 0.  0.
          5    1    3    3  502    0 -0.72587641907E+02 -0.85565123734E+02  0.26700491429E+03  0.28965402261E+03  0.41800000000E+01 0.  1.
         -5    1    3    3    0  502 -0.74649471906E+02  0.36471521136E+02  0.12545713994E+03  0.15053133186E+03  0.41800000000E+01 0.  1.
        -11    1    1    2    0    0  0.10554653158E+03  0.57915480831E+02  0.43858924605E+03  0.45481292858E+03  0.00000000000E+00 0.  1.
         11    1    1    2    0    0  0.41690582228E+02 -0.88218782336E+01  0.24291824765E+02  0.49051227635E+02  0.00000000000E+00 0. -1.
</event>
<event>
 7    1  0.2440960E-009  0.9444158E+02  0.7561462E-02  0.1292439E+00
         -4   -1    0    0    0  501 -0.00000000000E+00  0.00000000000E+00  0.96138260234E+02  0.96138260234E+02  0.00000000000E+00 0.  1.
          4   -1    0    0  501    0  0.00000000000E+00 -0.00000000000E+00 -0.14444415915E+03  0.14444415915E+03  0.00000000000E+00 0. -1.
         25    2    1    2    0    0  0.44532955947E+02  0.11147237940E+02 -0.32985741376E+02  0.13726931573E+03  0.12508941133E+03 0.  0.
          5    1    3    3  502    0  0.79717198807E+02  0.31277388582E+01  0.10534532383E+02  0.80579546465E+02  0.41800000000E+01 0.  1.
         -5    1    3    3    0  502 -0.35184242860E+02  0.80194990818E+01 -0.43520273758E+02  0.56689769264E+02  0.41800000000E+01 0.  1.
        -11    1    1    2    0    0 -0.96733833636E+01 -0.31052920086E+02  0.28957359467E+02  0.43547524142E+02  0.00000000000E+00 0.  1.
         11    1    1    2    0    0 -0.34859572583E+02  0.19905682146E+02 -0.44277517011E+02  0.59765579517E+02  0.00000000000E+00 0. -1.
</event>
<event>
 7    1  0.2440960E-009  0.1274652E+03  0.7561462E-02  0.1231266E+00
         -1   -1    0    0    0  501 -0.00000000000E+00  0.00000000000E+00  0.64634617968E+03  0.64634617968E+03  0.00000000000E+00 0.  1.
          1   -1    0    0  501    0  0.00000000000E+00 -0.00000000000E+00 -0.28728380751E+02  0.28728380751E+02  0.00000000000E+00 0. -1.
         25    2    1    2    0    0 -0.35705983981E+02  0.68690554285E+02  0.41217316677E+03  0.43763904116E+03  0.12509157205E+03 0.  0.
          5    1    3    3  502    0 -0.22770187461E+02  0.99549821289E+02  0.36879614348E+03  0.38269663730E+03  0.41800000000E+01 0.  1.
         -5    1    3    3    0  502 -0.12935796520E+02 -0.30859267004E+02  0.43377023289E+02  0.54942403852E+02  0.41800000000E+01 0.  1.
        -11    1    1    2    0    0  0.45511949326E+02 -0.87027158689E+02  0.16760568987E+03  0.19425944290E+03  0.00000000000E+00 0.  1.
         11    1    1    2    0    0 -0.98059653453E+01  0.18336604404E+02  0.37838942294E+02  0.43176076377E+02  0.00000000000E+00 0. -1.
</event>
<event>
 7    1  0.2957966E-009  0.1243954E+03  0.7561462E-02  0.1236017E+00
         -2   -1    0    0    0  501 -0.00000000000E+00  0.00000000000E+00  0.12014670514E+03  0.12014670514E+03  0.00000000000E+00 0. -1.
          2   -1    0    0  501    0  0.00000000000E+00 -0.00000000000E+00 -0.20840301795E+03  0.20840301795E+03  0.00000000000E+00 0.  1.
         25    2    1    2    0    0 -0.10719807534E+03 -0.19751163384E+02 -0.10225229300E+02  0.16623305450E+03  0.12508931722E+03 0.  0.
          5    1    3    3  502    0  0.19965855575E+01  0.38036543934E+01 -0.47897667806E+02  0.48271245290E+02  0.41800000000E+01 0. -1.
         -5    1    3    3    0  502 -0.10919466090E+03 -0.23554817777E+02  0.37672438506E+02  0.11796180921E+03  0.41800000000E+01 0. -1.
        -11    1    1    2    0    0  0.11027119935E+03  0.34816380078E+02 -0.41803231000E+02  0.12296108266E+03  0.00000000000E+00 0. -1.
         11    1    1    2    0    0 -0.30731240073E+01 -0.15065216694E+02 -0.36227852512E+02  0.39355585917E+02  0.00000000000E+00 0.  1.
</event>
<event>
 7    1  0.2440960E-009  0.1040983E+03  0.7561462E-02  0.1271906E+00
          1   -1    0    0  501    0  0.00000000000E+00  0.00000000000E+00  0.71248049078E+02  0.71248049078E+02  0.00000000000E+00 0. -1.
         -1   -1    0    0    0  501 -0.00000000000E+00 -0.00000000000E+00 -0.25705815944E+03  0.25705815944E+03  0.00000000000E+00 0.  1.
         25    2    1    2    0    0 -0.69286677467E+02 -0.37663357495E+02 -0.85428665915E+02  0.17077538245E+03  0.12508797752E+03 0.  0.
          5    1    3    3  502    0 -0.94625741583E+02 -0.16790454755E+02 -0.96129989965E+02  0.13599410911E+03  0.41800000000E+01 0.  1.
         -5    1    3    3    0  502  0.25339064115E+02 -0.20872902740E+02  0.10701324050E+02  0.34781273345E+02  0.41800000000E+01 0.  1.
        -11    1    1    2    0    0  0.19683067393E+02  0.12094717213E+02  0.16244014008E+02  0.28241340577E+02  0.00000000000E+00 0. -1.
         11    1    1    2    0    0  0.49603610075E+02  0.25568640282E+02 -0.11662545845E+03  0.12928948549E+03  0.00000000000E+00 0.  1.
</event>
<event>
 7    1  0.2440960E-009  0.6966240E+02  0.7561462E-02  0.1361245E+00
          2   -1    0    0  501    0  0.00000000000E+00  0.00000000000E+00  0.87255887044E+02  0.87255887044E+02  0.00000000000E+00 0. -1.
         -2   -1    0    0    0  501 -0.00000000000E+00 -0.00000000000E+00 -0.18206937686E+03  0.18206937686E+03  0.00000000000E+00 0.  1.
         25    2    1    2    0    0 -0.71300850142E+01 -0.42461337516E+02 -0.38885673295E+01  0.13234203765E+03  0.12508193586E+03 0.  0.
          5    1    3    3  502    0 -0.11636424134E+02 -0.37598584795E+02  0.57857753411E+02  0.70100299393E+02  0.41800000000E+01 0.  1.
         -5    1    3    3    0  502  0.45063391196E+01 -0.48627527217E+01 -0.61746320741E+02  0.62241738258E+02  0.41800000000E+01 0.  1.
        -11    1    1    2    0    0 -0.34768672087E+02  0.35029527489E+02 -0.78371149273E+02  0.92617306122E+02  0.00000000000E+00 0.  1.
         11    1    1    2    0    0  0.41898757101E+02  0.74318100275E+01 -0.12553773209E+02  0.44365920127E+02  0.00000000000E+00 0. -1.
</event>
<event>
 7    1  0.2440960E-009  0.9787571E+02  0.7561462E-02  0.1284828E+00
          3   -1    0    0  501    0  0.00000000000E+00  0.00000000000E+00  0.22275033344E+03  0.22275033344E+03  0.00000000000E+00 0. -1.
         -3   -1    0    0    0  501 -0.00000000000E+00 -0.00000000000E+00 -0.85521796004E+02  0.85521796004E+02  0.00000000000E+00 0.  1.
         25    2    1    2    0    0  0.77720104792E+02 -0.25397279175E+02  0.42099291165E+02  0.15525691967E+03  0.12508766650E+03 0.  0.
          5    1    3    3  502    0 -0.75951258327E+00 -0.90668982177E+01 -0.39526842433E+02  0.40775350095E+02  0.41800000000E+01 0.  1.
         -5    1    3    3    0  502  0.78479617376E+02 -0.16330380958E+02  0.81626133599E+02  0.11448156957E+03  0.41800000000E+01 0.  1.
        -11    1    1    2    0    0  0.23255478152E+01 -0.15435746273E+02 -0.68914708576E+01  0.17063493377E+02  0.00000000000E+00 0.  1.
         11    1    1    2    0    0 -0.80045652607E+02  0.40833025449E+02  0.10202071713E+03  0.13595171640E+03  0.00000000000E+00 0. -1.
</event>
<event>
 7    1  0.2440960E-009  0.1183585E+03  0.7561462E-02  0.1245830E+00
         -1   -1    0    0    0  501 -0.00000000000E+00  0.00000000000E+00  0.24786049995E+03  0.24786049995E+03  0.00000000000E+00 0.  1.
          1   -1    0    0  501    0  0.00000000000E+00 -0.00000000000E+00 -0.10383468405E+03  0.10383468405E+03  0.00000000000E+00 0. -1.
         25    2    1    2    0    0 -0.72293664601E+02 -0.56352589840E+02 -0.19888848529E+01  0.15509067515E+03  0.12508866268E+03 0.  0.
          5    1    3    3  502    0  0.88947104826E+01  0.17880605704E+01 -0.45136037011E+02  0.46228208620E+02  0.41800000000E+01 0. -1.
         -5    1    3    3    0  502 -0.81188375084E+02 -0.58140650410E+02  0.43147152158E+02  0.10886246653E+03  0.41800000000E+01 0. -1.
        -11    1    1    2    0    0  0.28982316525E+02 -0.22584193837E+02  0.68779038739E+02  0.77978052375E+02  0.00000000000E+00 0.  1.
         11    1    1    2    0    0  0.43311348076E+02  0.78936783677E+02  0.77235662012E+02  0.11862645648E+03  0.00000000000E+00 0. -1.
</event>
<event>
 7    1  0.2440960E-009  0.2363129E+03  0.7561462E-02  0.1122274E+00
          1   -1    0    0  501    0  0.00000000000E+00  0.00000000000E+00  0.13621801066E+04  0.13621801066E+04  0.00000000000E+00 0. -1.
         -1   -1    0    0    0  501 -0.00000000000E+00 -0.00000000000E+00 -0.60604276056E+02  0.60604276056E+02  0.00000000000E+00 0.  1.
         25    2    1    2    0    0  0.87276190622E+01 -0.23306146845E+03  0.98053516193E+03  0.10156218440E+04  0.12507880239E+03 0.  0.
          5    1    3    3  502    0 -0.11353643847E+02 -0.48943230297E+02  0.46661063363E+03  0.46932643313E+03  0.41800000000E+01 0.  1.
         -5    1    3    3    0  502  0.20081262909E+02 -0.18411823815E+03  0.51392452830E+03  0.54629541086E+03  0.41800000000E+01 0.  1.
        -11    1    1    2    0    0 -0.21567443246E+02  0.20453696405E+03  0.31356913531E+03  0.37500150252E+03  0.00000000000E+00 0. -1.
         11    1    1    2    0    0  0.12839824184E+02  0.28524504397E+02  0.74715333112E+01  0.32161036149E+02  0.00000000000E+00 0.  1.
</event>
<event>
 7    1  0.2440960E-009  0.1007011E+03  0.7561462E-02  0.1278829E+00
         -2   -1    0    0    0  501 -0.00000000000E+00  0.00000000000E+00  0.20863943726E+03  0.20863943726E+03  0.00000000000E+00 0.  1.
          2   -1    0    0  501    0  0.00000000000E+00 -0.00000000000E+00 -0.59754216599E+02  0.59754216599E+02  0.00000000000E+00 0. -1.
         25    2    1    2    0    0 -0.13737843555E+02  0.16752534558E+02  0.67577624560E+02  0.14381721941E+03  0.12508909424E+03 0.  0.
          5    1    3    3  502    0 -0.28106448910E+02  0.67391689628E+02  0.48093549019E+02  0.87533274579E+02  0.41800000000E+01 0.  1.
         -5    1    3    3    0  502  0.14368605355E+02 -0.50639155069E+02  0.19484075540E+02  0.56283944830E+02  0.41800000000E+01 0.  1.
        -11    1    1    2    0    0 -0.28932404355E+02 -0.15384975677E+02  0.74442906628E+02  0.81335895185E+02  0.00000000000E+00 0.  1.
         11    1    1    2    0    0  0.42670247911E+02 -0.13675588815E+01  0.68646894696E+01  0.43240539261E+02  0.00000000000E+00 0. -1.
</event>
<event>
 7    1  0.2440960E-009  0.8832601E+02  0.7561462E-02  0.1306957E+00
         -1   -1    0    0    0  501 -0.00000000000E+00  0.00000000000E+00  0.46376277825E+03  0.46376277825E+03  0.00000000000E+00 0.  1.
          1   -1    0    0  501    0  0.00000000000E+00 -0.00000000000E+00 -0.35331670796E+02  0.35331670796E+02  0.00000000000E+00 0. -1.
         25    2    1    2    0    0  0.50308406282E+02 -0.29314634035E+02  0.30869643748E+03  0.33812989170E+03  0.12509216459E+03 0.  0.
          5    1    3    3  502    0  0.84555122762E+01  0.14702564952E+02 -0.53244545588E+01  0.18261525686E+02  0.41800000000E+01 0. -1.
         -5    1    3    3    0  502  0.41852894006E+02 -0.44017198987E+02  0.31402089204E+03  0.31986836602E+03  0.41800000000E+01 0. -1.
        -11    1    1    2    0    0 -0.52658758734E+02  0.52875338825E+02  0.56977267746E+02  0.93889058825E+02  0.00000000000E+00 0. -1.
         11    1    1    2    0    0  0.23503524516E+01 -0.23560704789E+02  0.62757402232E+02  0.67075498521E+02  0.00000000000E+00 0.  1.
</event>
<event>
 7    1  0.2440960E-009  0.1275255E+03  0.7561462E-02  0.1231174E+00
          1   -1    0    0  501    0  0.00000000000E+00  0.00000000000E+00  0.25700944984E+03  0.25700944984E+03  0.00000000000E+00 0. -1.
         -1   -1    0    0    0  501 -0.00000000000E+00 -0.00000000000E+00 -0.63634684193E+02  0.63634684193E+02  0.00000000000E+00 0.  1.
         25    2    1    2    0    0 -0.61386600878E+02 -0.26905067658E+02  0.10093353896E+03  0.17414741433E+03  0.12509014828E+03 0.  0.
          5    1    3    3  502    0  0.34660482129E+02  0.13345289383E+02  0.21629639822E+02  0.43182861055E+02  0.41800000000E+01 0.  1.
         -5    1    3    3    0  502 -0.96047083006E+02 -0.40250357041E+02  0.79303899142E+02  0.13096455328E+03  0.41800000000E+01 0.  1.
        -11    1    1    2    0    0 -0.32494018470E+01  0.45952913825E+02  0.41793125324E+02  0.62200435897E+02  0.00000000000E+00 0. -1.
         11    1    1    2    0    0  0.64636002725E+02 -0.19047846166E+02  0.50648101354E+02  0.84296283801E+02  0.00000000000E+00 0.  1.
</event>
<event>
 7    1  0.2440960E-009  0.2374275E+03  0.7561462E-02  0.1121519E+00
          1   -1    0    0  501    0  0.00000000000E+00  0.00000000000E+00  0.73717941394E+03  0.73717941394E+03  0.00000000000E+00 0. -1.
         -1   -1    0    0    0  501 -0.00000000000E+00 -0.00000000000E+00 -0.13876626365E+03  0.13876626365E+03  0.00000000000E+00 0.  1.
         25    2    1    2    0    0 -0.12156748856E+03  0.18768556093E+03  0.28766951597E+02  0.25784104021E+03  0.12509972204E+03 0.  0.
          5    1    3    3  502    0  0.14545278299E+02  0.28446724925E+02  0.35840810266E+02  0.48195615571E+02  0.41800000000E+01 0.  1.
         -5    1    3    3    0  502 -0.13611276686E+03  0.15923883601E+03 -0.70738586694E+01  0.20964542464E+03  0.41800000000E+01 0.  1.
        -11    1    1    2    0    0  0.97049898034E+02 -0.18438748534E+03  0.44962370928E+03  0.49555918658E+03  0.00000000000E+00 0.  1.
         11    1    1    2    0    0  0.24517590524E+02 -0.32980755986E+01  0.12002248942E+03  0.12254545081E+03  0.00000000000E+00 0. -1.
</event>
<event>
 7    1  0.2440960E-009  0.7029556E+02  0.7561462E-02  0.1359091E+00
         -3   -1    0    0    0  501 -0.00000000000E+00  0.00000000000E+00  0.41591938174E+02  0.41591938174E+02  0.00000000000E+00 0.  1.
          3   -1    0    0  501    0  0.00000000000E+00 -0.00000000000E+00 -0.35573917976E+03  0.35573917976E+03  0.00000000000E+00 0. -1.
         25    2    1    2    0    0 -0.27096274132E+01  0.54446417175E+02 -0.14619309879E+03  0.19997995231E+03  0.12509118581E+03 0.  0.
          5    1    3    3  502    0  0.71061474877E+01  0.94543862994E+01 -0.15276188977E+03  0.15327605853E+03  0.41800000000E+01 0.  1.
         -5    1    3    3    0  502 -0.98157749009E+01  0.44992030875E+02  0.65687909798E+01  0.46703893779E+02  0.41800000000E+01 0.  1.
        -11    1    1    2    0    0  0.30618374417E+02 -0.40023387997E+02 -0.36569899789E+02  0.62263263722E+02  0.00000000000E+00 0.  1.
         11    1    1    2    0    0 -0.27908747004E+02 -0.14423029178E+02 -0.13138424300E+03  0.13508790190E+03  0.00000000000E+00 0. -1.
</event>
<event>
 7    1  0.2440960E-009  0.1037822E+03  0.7561462E-02  0.1272538E+00
         -2   -1    0    0    0  501 -0.00000000000E+00  0.00000000000E+00  0.40988496924E+02  0.40988496924E+02  0.00000000000E+00 0.  1.
          2   -1    0    0  501    0  0.00000000000E+00 -0.00000000000E+00 -0.50930262881E+03  0.50930262881E+03  0.00000000000E+00 0. -1.
         25    2    1    2    0    0 -0.24523820289E+02  0.27844586396E+02 -0.12024762243E+03  0.17743760109E+03  0.12509145784E+03 0.  0.
          5    1    3    3  502    0  0.27978214425E+02  0.73447961812E+01 -0.11725366076E+03  0.12084130037E+03  0.41800000000E+01 0. -1.
         -5    1    3    3    0  502 -0.52502034715E+02  0.20499790215E+02 -0.29939616705E+01  0.56596300714E+02  0.41800000000E+01 0. -1.
        -11    1    1    2    0    0  0.53494794587E+02 -0.58752404738E+02 -0.29178589428E+03  0.30241122038E+03  0.00000000000E+00 0.  1.
         11    1    1    2    0    0 -0.28970974298E+02  0.30907818342E+02 -0.56280615174E+02  0.70442304270E+02  0.00000000000E+00 0. -1.
</event>
<event>
 7    1  0.2440960E-009  0.7596366E+02  0.7561462E-02  0.1340913E+00
         -2   -1    0    0    0  501 -0.00000000000E+00  0.00000000000E+00  0.81121713541E+02  0.81121713541E+02  0.00000000000E+00 0.  1.
          2   -1    0    0  501    0  0.00000000000E+00 -0.00000000000E+00 -0.16917943693E+03  0.16917943693E+03  0.00000000000E+00 0. -1.
         25    2    1    2    0    0  0.73632760771E+01 -0.41074307250E+02 -0.67438972592E+02  0.14811557764E+03  0.12509553456E+03 0.  0.
          5    1    3    3  502    0  0.14963706565E+02  0.50440325519E+01  0.33240245640E+02  0.37037023487E+02  0.41800000000E+01 0.  1.
         -5    1    3    3    0  502 -0.76004304881E+01 -0.46118339802E+02 -0.10067921823E+03  0.11107855416E+03  0.41800000000E+01 0.  1.
        -11    1    1    2    0    0 -0.29056657433E+02 -0.11917191397E+02  0.14945024420E+02  0.34780203376E+02  0.00000000000E+00 0.  1.
         11    1    1    2    0    0  0.21693381356E+02  0.52991498647E+02 -0.35563775220E+02  0.67405369455E+02  0.00000000000E+00 0. -1.
</event>
<event>
 7    1  0.2440960E-009  0.8482778E+02  0.7561462E-02  0.1315884E+00
          2   -1    0    0  501    0  0.00000000000E+00  0.00000000000E+00  0.39952059777E+03  0.39952059777E+03  0.00000000000E+00 0. -1.
         -2   -1    0    0    0  501 -0.00000000000E+00 -0.00000000000E+00 -0.42589044327E+02  0.42589044327E+02  0.00000000000E+00 0.  1.
         25    2    1    2    0    0  0.44729532865E+02  0.30956610552E+02  0.11581082524E+03  0.17893019545E+03  0.12507927388E+03 0.  0.
          5    1    3    3  502    0  0.52710067627E+01 -0.18874103963E+02 -0.20379198736E+02  0.28579703529E+02  0.41800000000E+01 0.  1.
         -5    1    3    3    0  502  0.39458526102E+02  0.49830714515E+02  0.13619002397E+03  0.15035049192E+03  0.41800000000E+01 0.  1.
        -11    1    1    2    0    0  0.12281875338E+02 -0.25924263940E+02  0.20506661754E+02  0.35262375118E+02  0.00000000000E+00 0.  1.
         11    1    1    2    0    0 -0.57011408203E+02 -0.50323466116E+01  0.22061406645E+03  0.22791707153E+03  0.00000000000E+00 0. -1.
</event>
<event>
 7    1  0.2440960E-009  0.1082899E+03  0.7561462E-02  0.1263770E+00
          2   -1    0    0  501    0  0.00000000000E+00  0.00000000000E+00  0.38646430765E+03  0.38646430765E+03  0.00000000000E+00 0.  1.
         -2   -1    0    0    0  501 -0.00000000000E+00 -0.00000000000E+00 -0.30652978942E+02  0.30652978942E+02  0.00000000000E+00 0. -1.
         25    2    1    2    0    0 -0.92162592802E+01 -0.29440289058E+01  0.20007691716E+03  0.23615990514E+03  0.12508845380E+03 0.  0.
          5    1    3    3  502    0  0.57624522900E+02 -0.14407101749E+01  0.10499067800E+03  0.11984646909E+03  0.41800000000E+01 0.  1.
         -5    1    3    3    0  502 -0.66840782181E+02 -0.15033187309E+01  0.95086239155E+02  0.11631343605E+03  0.41800000000E+01 0.  1.
        -11    1    1    2    0    0 -0.75459376729E+01 -0.42601995680E+02  0.81369538261E+02  0.92156784709E+02  0.00000000000E+00 0.  1.
         11    1    1    2    0    0  0.16762196953E+02  0.45546024585E+02  0.74364873289E+02  0.88800596741E+02  0.00000000000E+00 0. -1.
</event>
<event>
 7    1  0.2440960E-009  0.1166290E+03  0.7561462E-02  0.1248764E+00
         -2   -1    0    0    0  501 -0.00000000000E+00  0.00000000000E+00  0.43679961049E+02  0.43679961049E+02  0.00000000000E+00 0.  1.
          2   -1    0    0  501    0  0.00000000000E+00 -0.00000000000E+00 -0.11767863378E+04  0.11767863378E+04  0.00000000000E+00 0. -1.
         25    2    1    2    0    0 -0.26226430470E+01  0.10306685467E+03 -0.10434187118E+04  0.10559343375E+04  0.12508022333E+03 0.  0.
          5    1    3    3  502    0 -0.52023983551E+01  0.91388686838E+02 -0.33228839350E+03  0.34469117466E+03  0.41800000000E+01 0. -1.
         -5    1    3    3    0  502  0.25797553081E+01  0.11678167836E+02 -0.71113031826E+03  0.71124316285E+03  0.41800000000E+01 0. -1.
        -11    1    1    2    0    0  0.38188962457E+02 -0.33390506418E+02 -0.78722114031E+01  0.51335119409E+02  0.00000000000E+00 0.  1.
         11    1    1    2    0    0 -0.35566319410E+02 -0.69676348255E+02 -0.81815453630E+02  0.11319684198E+03  0.00000000000E+00 0. -1.
</event>
<event>
 7    1  0.2440960E-009  0.2357866E+03  0.7561462E-02  0.1122632E+00
          2   -1    0    0  501    0  0.00000000000E+00  0.00000000000E+00  0.44761556804E+03  0.44761556804E+03  0.00000000000E+00 0. -1.
         -2   -1    0    0    0  501 -0.00000000000E+00 -0.00000000000E+00 -0.13541441444E+03  0.13541441444E+03  0.00000000000E+00 0.  1.
         25    2    1    2    0    0  0.19421967783E+03  0.94684042606E+02  0.21186044273E+03  0.32744275788E+03  0.12509021270E+03 0.  0.
          5    1    3    3  502    0  0.40396059475E+02  0.70019932093E+02  0.26278523458E+02  0.85103852477E+02  0.41800000000E+01 0. -1.
         -5    1    3    3    0  502  0.15382361836E+03  0.24664110513E+02  0.18558191927E+03  0.24233890540E+03  0.41800000000E+01 0. -1.
        -11    1    1    2    0    0 -0.17921137406E+03 -0.11241701071E+03  0.86560391486E+02  0.22857603169E+03  0.00000000000E+00 0.  1.
         11    1    1    2    0    0 -0.15008303773E+02  0.17732968109E+02  0.13780319388E+02  0.27011192912E+02  0.00000000000E+00 0. -1.
</event>
<event>
 7    1  0.2440960E-009  0.2462111E+03  0.7561462E-02  0.1115723E+00
         -2   -1    0    0    0  501 -0.00000000000E+00  0.00000000000E+00  0.59359870653E+02  0.59359870653E+02  0.00000000000E+00 0. -1.
          2   -1    0    0  501    0  0.00000000000E+00 -0.00000000000E+00 -0.11192765168E+04  0.11192765168E+04  0.00000000000E+00 0.  1.
         25    2    1    2    0    0  0.11176719821E+03  0.19857913502E+03 -0.65953040853E+03  0.70890860190E+03  0.12508183964E+03 0.  0.
          5    1    3    3  502    0 -0.13104382342E+02  0.61399164157E+02 -0.27289256053E+03  0.28005250255E+03  0.41800000000E+01 0. -1.
         -5    1    3    3    0  502  0.12487158055E+03  0.13717997086E+03 -0.38663784800E+03  0.42885609935E+03  0.41800000000E+01 0. -1.
        -11    1    1    2    0    0 -0.10439547293E+03 -0.98269641019E+02 -0.20782230426E+03  0.25247860754E+03  0.00000000000E+00 0.  1.
         11    1    1    2    0    0 -0.73717252787E+01 -0.10030949400E+03 -0.19256393337E+03  0.21724917803E+03  0.00000000000E+00 0. -1.
</event>
<event>
 7    1  0.2440960E-009  0.1714573E+03  0.7561462E-02  0.1176337E+00
         -2   -1    0    0    0  501 -0.00000000000E+00  0.00000000000E+00  0.37214285401E+03  0.37214285401E+03  0.00000000000E+00 0.  1.
          2   -1    0    0  501    0  0.00000000000E+00 -0.00000000000E+00 -0.17267784481E+03  0.17267784481E+03  0.00000000000E+00 0. -1.
         25    2    1    2    0    0 -0.66876193323E+02 -0.13875707919E+03  0.28446440851E+03  0.34683338470E+03  0.12508974688E+03 0.  0.
          5    1    3    3  502    0 -0.45118563746E+02 -0.25108417402E+02  0.15607800572E+02  0.54103542007E+02  0.41800000000E+01 0. -1.
         -5    1    3    3    0  502 -0.21757629577E+02 -0.11364866179E+03  0.26885660794E+03  0.29272984269E+03  0.41800000000E+01 0. -1.
        -11    1    1    2    0    0  0.11938601830E+02  0.11474963330E+03 -0.73917702884E+02  0.13701764615E+03  0.00000000000E+00 0. -1.
         11    1    1    2    0    0  0.54937591493E+02  0.24007445889E+02 -0.11081696425E+02  0.60969667974E+02  0.00000000000E+00 0.  1.
</event>
<event>
 7    1  0.2440960E-009  0.1356056E+03  0.7561462E-02  0.1219367E+00
          2   -1    0    0  501    0  0.00000000000E+00  0.00000000000E+00  0.71845474010E+03  0.71845474010E+03  0.00000000000E+00 0. -1.
         -2   -1    0    0    0  501 -0.00000000000E+00 -0.00000000000E+00 -0.29756150927E+02  0.29756150927E+02  0.00000000000E+00 0.  1.
         25    2    1    2    0    0  0.82013912255E+02  0.23181236980E+02  0.50259365177E+03  0.52489075451E+03  0.12508506635E+03 0.  0.
          5    1    3    3  502    0  0.67538792129E+02  0.71875846241E+02  0.36659254994E+03  0.37965141352E+03  0.41800000000E+01 0.  1.
         -5    1    3    3    0  502  0.14475120126E+02 -0.48694609261E+02  0.13600110183E+03  0.14523934099E+03  0.41800000000E+01 0.  1.
        -11    1    1    2    0    0 -0.55625595295E+02  0.29233257996E+02  0.11572263431E+03  0.13168340182E+03  0.00000000000E+00 0.  1.
         11    1    1    2    0    0 -0.26388316960E+02 -0.52414494976E+02  0.70382303104E+02  0.91636734697E+02  0.00000000000E+00 0. -1.
</event>
<event>
 7    1  0.2440960E-009  0.1027760E+03  0.7561462E-02  0.1274564E+00
         -1   -1    0    0    0  501 -0.00000000000E+00  0.00000000000E+00  0.30986697494E+03  0.30986697494E+03  0.00000000000E+00 0.  1.
          1   -1    0    0  501    0  0.00000000000E+00 -0.00000000000E+00 -0.91922627942E+02  0.91922627942E+02  0.00000000000E+00 0. -1.
         25    2    1    2    0    0  0.42552753470E+01 -0.94006752468E+02  0.21346511420E+03  0.26470182689E+03  0.12507727731E+03 0.  0.
          5    1    3    3  502    0  0.18518044781E+02 -0.32603988153E+01  0.15398743943E+03  0.15518747400E+03  0.41800000000E+01 0. -1.
         -5    1    3    3    0  502 -0.14262769434E+02 -0.90746353653E+02  0.59477674763E+02  0.10951435289E+03  0.41800000000E+01 0. -1.
        -11    1    1    2    0    0 -0.60574925466E+01  0.72480145129E+02  0.48934363824E+02  0.87662059163E+02  0.00000000000E+00 0.  1.
         11    1    1    2    0    0  0.18022171997E+01  0.21526607339E+02 -0.44455131022E+02  0.49425716833E+02  0.00000000000E+00 0. -1.
</event>
<event>
 7    1  0.2440960E-009  0.1364871E+03  0.7561462E-02  0.1218136E+00
          1   -1    0    0  501    0  0.00000000000E+00  0.00000000000E+00  0.21522552889E+03  0.21522552889E+03  0.00000000000E+00 0. -1.
         -1   -1    0    0    0  501 -0.00000000000E+00 -0.00000000000E+00 -0.88918424063E+02  0.88918424063E+02  0.00000000000E+00 0.  1.
         25    2    1    2    0    0 -0.23733685223E+02 -0.79251799888E+02  0.86656078586E+02  0.17320695370E+03  0.12508891740E+03 0.  0.
          5    1    3    3  502    0  0.26540088633E+02 -0.93538167106E+02  0.60750205816E+02  0.11472499691E+03  0.41800000000E+01 0.  1.
         -5    1    3    3    0  502 -0.50273773856E+02  0.14286367218E+02  0.25905872770E+02  0.58481956790E+02  0.41800000000E+01 0.  1.
        -11    1    1    2    0    0 -0.33090195911E+02  0.12047820649E+02  0.20912687953E+02  0.40956703545E+02  0.00000000000E+00 0.  1.
         11    1    1    2    0    0  0.56823881134E+02  0.67203979239E+02  0.18738338284E+02  0.89980295700E+02  0.00000000000E+00 0. -1.
</event>
<event>
 7    1  0.2440960E-009  0.1410398E+03  0.7561462E-02  0.1211937E+00
         -2   -1    0    0    0  501 -0.00000000000E+00  0.00000000000E+00  0.85330194233E+03  0.85330194233E+03  0.00000000000E+00 0.  1.
          2   -1    0    0  501    0  0.00000000000E+00 -0.00000000000E+00 -0.25392171226E+02  0.25392171226E+02  0.00000000000E+00 0. -1.
         25    2    1    2    0    0  0.15353710625E+01  0.95242687777E+02  0.53469736933E+03  0.55733465143E+03  0.12508840865E+03 0.  0.
          5    1    3    3  502    0 -0.45409625503E+02  0.98225605119E+02  0.40781132652E+03  0.42194532114E+03  0.41800000000E+01 0.  1.
         -5    1    3    3    0  502  0.46944996565E+02 -0.29829173420E+01  0.12688604280E+03  0.13538933029E+03  0.41800000000E+01 0.  1.
        -11    1    1    2    0    0  0.10063291952E+02 -0.10848801349E+03  0.21312776933E+03  0.23936241346E+03  0.00000000000E+00 0. -1.
         11    1    1    2    0    0 -0.11598663014E+02  0.13245325708E+02  0.80084632449E+02  0.81997048674E+02  0.00000000000E+00 0.  1.
</event>
<event>
 7    1  0.2440960E-009  0.3087099E+03  0.7561462E-02  0.1080966E+00
         -2   -1    0    0    0  501 -0.00000000000E+00  0.00000000000E+00  0.10517613321E+03  0.10517613321E+03  0.00000000000E+00 0. -1.
          2   -1    0    0  501    0  0.00000000000E+00 -0.00000000000E+00 -0.12315880979E+04  0.12315880979E+04  0.00000000000E+00 0.  1.
         25    2    1    2    0    0 -0.27941528981E+03 -0.88827930530E+02 -0.24128612557E+03  0.39978379634E+03  0.12507911097E+03 0.  0.
          5    1    3    3  502    0 -0.81995754798E+01  0.23450793542E+02 -0.18887776898E+02  0.31486398205E+02  0.41800000000E+01 0. -1.
         -5    1    3    3    0  502 -0.27121571433E+03 -0.11227872407E+03 -0.22239834868E+03  0.36829739813E+03  0.41800000000E+01 0. -1.
        -11    1    1    2    0    0  0.22943573326E+03  0.94950126275E+02 -0.63470287050E+03  0.68154531471E+03  0.00000000000E+00 0. -1.
         11    1    1    2    0    0  0.49979556549E+02 -0.61221957446E+01 -0.25042296859E+03  0.25543512004E+03  0.00000000000E+00 0.  1.
</event>
<event>
 7    1  0.2440960E-009  0.1367352E+03  0.7561462E-02  0.1217791E+00
         -2   -1    0    0    0  501 -0.00000000000E+00  0.00000000000E+00  0.77552011708E+02  0.77552011708E+02  0.00000000000E+00 0.  1.
          2   -1    0    0  501    0  0.00000000000E+00 -0.00000000000E+00 -0.27437796898E+03  0.27437796898E+03  0.00000000000E+00 0. -1.
         25    2    1    2    0    0  0.76963973289E+02 -0.64948886733E+02 -0.11134651824E+03  0.19541631342E+03  0.12509067652E+03 0.  0.
          5    1    3    3  502    0 -0.24217299618E+02 -0.22481316221E+02 -0.71005257788E+02  0.78428988349E+02  0.41800000000E+01 0.  1.
         -5    1    3    3    0  502  0.10118127291E+03 -0.42467570512E+02 -0.40341260454E+02  0.11698732507E+03  0.41800000000E+01 0.  1.
        -11    1    1    2    0    0 -0.71184912810E+02  0.84196067881E+02 -0.78062253729E+02  0.13509250577E+03  0.00000000000E+00 0. -1.
         11    1    1    2    0    0 -0.57790604791E+01 -0.19247181149E+02 -0.74171853028E+01  0.21421161500E+02  0.00000000000E+00 0.  1.
</event>
<event>
 7    1  0.2440960E-009  0.1805898E+03  0.7561462E-02  0.1167233E+00
          2   -1    0    0  501    0  0.00000000000E+00  0.00000000000E+00  0.20028854385E+04  0.20028854385E+04  0.00000000000E+00 0. -1.
         -2   -1    0    0    0  501 -0.00000000000E+00 -0.00000000000E+00 -0.16965204851E+02  0.16965204851E+02  0.00000000000E+00 0.  1.
         25    2    1    2    0    0  0.14847960281E+03  0.51774142714E+01  0.10359616655E+04  0.10540097503E+04  0.12508790248E+03 0.  0.
          5    1    3    3  502    0 -0.67281458424E+01  0.28711425013E+02  0.30032693290E+03  0.30180018704E+03  0.41800000000E+01 0.  1.
         -5    1    3    3    0  502  0.15520774865E+03 -0.23534010741E+02  0.73563473256E+03  0.75220956326E+03  0.41800000000E+01 0.  1.
        -11    1    1    2    0    0 -0.15517203993E+03  0.12284721777E+02  0.83890996345E+03  0.85322869334E+03  0.00000000000E+00 0.  1.
         11    1    1    2    0    0  0.66924371179E+01 -0.17462136049E+02  0.11104860476E+03  0.11261219973E+03  0.00000000000E+00 0. -1.
</event>
<event>
 7    1  0.2440960E-009  0.1616791E+03  0.7561462E-02  0.1186814E+00
         -1   -1    0    0    0  501 -0.00000000000E+00  0.00000000000E+00  0.28757245945E+02  0.28757245945E+02  0.00000000000E+00 0.  1.
          1   -1    0    0  501    0  0.00000000000E+00 -0.00000000000E+00 -0.12562790023E+04  0.12562790023E+04  0.00000000000E+00 0. -1.
         25    2    1    2    0    0  0.66067179042E+02  0.13487094905E+03 -0.51313342878E+03  0.54909819896E+03  0.12509145183E+03 0.  0.
          5    1    3    3  502    0  0.98228115895E+01  0.76124103362E+02 -0.41269336674E+03  0.41979120297E+03  0.41800000000E+01 0.  1.
         -5    1    3    3    0  502  0.56244367453E+02  0.58746845686E+02 -0.10044006204E+03  0.12930699599E+03  0.41800000000E+01 0.  1.
        -11    1    1    2    0    0  0.42037428746E+00 -0.76722002900E+02 -0.20374795206E+03  0.21771465364E+03  0.00000000000E+00 0.  1.
         11    1    1    2    0    0 -0.66487553330E+02 -0.58148946148E+02 -0.51064037551E+03  0.51822339563E+03  0.00000000000E+00 0. -1.
</event>
<event>
 7    1  0.2440960E-009  0.4114680E+02  0.7561462E-02  0.1499938E+00
         -3   -1    0    0    0  501 -0.00000000000E+00  0.00000000000E+00  0.55035753565E+02  0.55035753565E+02  0.00000000000E+00 0.  1.
          3   -1    0    0  501    0  0.00000000000E+00 -0.00000000000E+00 -0.24996615262E+03  0.24996615262E+03  0.00000000000E+00 0. -1.
         25    2    1    2    0    0 -0.59041181155E+01  0.12459192058E+02 -0.17025269417E+03  0.21171721744E+03  0.12509240668E+03 0.  0.
          5    1    3    3  502    0  0.21739020551E+01  0.29000760241E+02  0.95746930330E+01  0.30901732821E+02  0.41800000000E+01 0.  1.
         -5    1    3    3    0  502 -0.80780201706E+01 -0.16541568182E+02 -0.17982738721E+03  0.18081548462E+03  0.41800000000E+01 0.  1.
        -11    1    1    2    0    0 -0.49179746515E+01 -0.20161192274E+02  0.30299872541E+02  0.36725228721E+02  0.00000000000E+00 0.  1.
         11    1    1    2    0    0  0.10822092767E+02  0.77020002154E+01 -0.54977577417E+02  0.56559460021E+02  0.00000000000E+00 0. -1.
</event>
<event>
 7    1  0.2440960E-009  0.9868776E+02  0.7561462E-02  0.1283080E+00
         -2   -1    0    0    0  501 -0.00000000000E+00  0.00000000000E+00  0.47096016496E+02  0.47096016496E+02  0.00000000000E+00 0.  1.
          2   -1    0    0  501    0  0.00000000000E+00 -0.00000000000E+00 -0.39610079107E+03  0.39610079107E+03  0.00000000000E+00 0. -1.
         25    2    1    2    0    0 -0.58946078138E+02  0.12946161394E+02 -0.27943630612E+03  0.31205504259E+03  0.12510578405E+03 0.  0.
          5    1    3    3  502    0 -0.72250957595E+02  0.46686856533E+02 -0.25221673913E+03  0.26651570187E+03  0.41800000000E+01 0. -1.
         -5    1    3    3    0  502  0.13304879457E+02 -0.33740695138E+02 -0.27219566990E+02  0.45539340717E+02  0.41800000000E+01 0. -1.
        -11    1    1    2    0    0  0.39143134510E+02  0.13763405146E+02 -0.84923285271E+02  0.94517621012E+02  0.00000000000E+00 0. -1.
         11    1    1    2    0    0  0.19802943628E+02 -0.26709566541E+02  0.15354816825E+02  0.36624143960E+02  0.00000000000E+00 0.  1.
</event>
<event>
 7    1  0.2440960E-009  0.1657688E+03  0.7561462E-02  0.1182334E+00
         -2   -1    0    0    0  501 -0.00000000000E+00  0.00000000000E+00  0.19805532042E+03  0.19805532042E+03  0.00000000000E+00 0.  1.
          2   -1    0    0  501    0  0.00000000000E+00 -0.00000000000E+00 -0.15566202499E+03  0.15566202499E+03  0.00000000000E+00 0. -1.
         25    2    1    2    0    0 -0.22386347282E+02  0.13545144517E+03  0.33565581259E+02  0.18874236415E+03  0.12509512075E+03 0.  0.
          5    1    3    3  502    0 -0.59981767381E+02  0.13491280714E+03  0.30211894970E+02  0.15076308881E+03  0.41800000000E+01 0. -1.
         -5    1    3    3    0  502  0.37595420099E+02  0.53863802346E+00  0.33536862892E+01  0.37979275336E+02  0.41800000000E+01 0. -1.
        -11    1    1    2    0    0  0.36508448722E+02 -0.68968716949E+02  0.42788376467E+02  0.88996606151E+02  0.00000000000E+00 0.  1.
         11    1    1    2    0    0 -0.14122101440E+02 -0.66482728219E+02 -0.33960662298E+02  0.75978375109E+02  0.00000000000E+00 0. -1.
</event>
<event>
 7    1  0.2440960E-009  0.1203280E+03  0.7561462E-02  0.1242557E+00
          1   -1    0    0  501    0  0.00000000000E+00  0.00000000000E+00  0.81116020453E+02  0.81116020453E+02  0.00000000000E+00 0. -1.
         -1   -1    0    0    0  501 -0.00000000000E+00 -0.00000000000E+00 -0.19397059890E+03  0.19397059890E+03  0.00000000000E+00 0.  1.
         25    2    1    2    0    0  0.59415368343E+02 -0.15579335649E+02 -0.86849221513E+02  0.16420851696E+03  0.12509495621E+03 0.  0.
          5    1    3    3  502    0  0.65440343634E+02  0.40597807331E+02 -0.72306314835E+02  0.10571800272E+03  0.41800000000E+01 0. -1.
         -5    1    3    3    0  502 -0.60249752916E+01 -0.56177142980E+02 -0.14542906679E+02  0.58490514233E+02  0.41800000000E+01 0. -1.
        -11    1    1    2    0    0 -0.81554561071E+02  0.20729856970E+02 -0.26247185990E+02  0.88146401934E+02  0.00000000000E+00 0.  1.
         11    1    1    2    0    0  0.22139192728E+02 -0.51505213215E+01  0.24182905674E+00  0.22731700461E+02  0.00000000000E+00 0. -1.
</event>
<event>
 7    1  0.2440960E-009  0.2281383E+03  0.7561462E-02  0.1127957E+00
         -2   -1    0    0    0  501 -0.00000000000E+00  0.00000000000E+00  0.70822751587E+02  0.70822751587E+02  0.00000000000E+00 0. -1.
          2   -1    0    0  501    0  0.00000000000E+00 -0.00000000000E+00 -0.13339862825E+04  0.13339862825E+04  0.00000000000E+00 0.  1.
         25    2    1    2    0    0  0.15862331270E+03  0.16312554744E+03 -0.24269282538E+03  0.35541361636E+03  0.12509089352E+03 0.  0.
          5    1    3    3  502    0  0.11796796658E+03  0.13325593084E+03 -0.24715873470E+03  0.30459562830E+03  0.41800000000E+01 0.  1.
         -5    1    3    3    0  502  0.40655346120E+02  0.29869616600E+02  0.44659093162E+01  0.50817988055E+02  0.41800000000E+01 0.  1.
        -11    1    1    2    0    0 -0.48817109502E+02 -0.54777740131E+02 -0.17170544814E+03  0.18672565950E+03  0.00000000000E+00 0. -1.
         11    1    1    2    0    0 -0.10980620320E+03 -0.10834780731E+03 -0.84876525734E+03  0.86266975818E+03  0.00000000000E+00 0.  1.
</event>
<event>
 7    1  0.2440960E-009  0.1622404E+03  0.7561462E-02  0.1186190E+00
         -1   -1    0    0    0  501 -0.00000000000E+00  0.00000000000E+00  0.69898387339E+02  0.69898387339E+02  0.00000000000E+00 0.  1.
          1   -1    0    0  501    0  0.00000000000E+00 -0.00000000000E+00 -0.54146561588E+03  0.54146561588E+03  0.00000000000E+00 0. -1.
         25    2    1    2    0    0  0.14884496926E+03 -0.27631961517E+02 -0.16116910370E+03  0.25405045873E+03  0.12509118843E+03 0.  0.
          5    1    3    3  502    0  0.60411426120E+02 -0.34195476829E+01 -0.14974099525E+03  0.16155826123E+03  0.41800000000E+01 0.  1.
         -5    1    3    3    0  502  0.88433543143E+02 -0.24212413834E+02 -0.11428108451E+02  0.92492197505E+02  0.41800000000E+01 0.  1.
        -11    1    1    2    0    0 -0.15776697119E+03  0.17799450133E+02 -0.25532627199E+03  0.30066383685E+03  0.00000000000E+00 0.  1.
         11    1    1    2    0    0  0.89220019279E+01  0.98325113845E+01 -0.55071852851E+02  0.56649707634E+02  0.00000000000E+00 0. -1.
</event>
<event>
 7    1  0.2440960E-009  0.1742830E+03  0.7561462E-02  0.1173454E+00
          1   -1    0    0  501    0  0.00000000000E+00  0.00000000000E+00  0.97632830466E+03  0.97632830466E+03  0.00000000000E+00 0. -1.
         -1   -1    0    0    0  501 -0.00000000000E+00 -0.00000000000E+00 -0.55914088687E+02  0.55914088687E+02  0.00000000000E+00 0.  1.
         25    2    1    2    0    0  0.99855046364E+02 -0.97653061742E+02  0.80866394800E+03  0.83011520377E+03  0.12508684973E+03 0.  0.
          5    1    3    3  502    0  0.15722809784E+02  0.28518624916E+02  0.20876809180E+03  0.21133411289E+03  0.41800000000E+01 0.  1.
         -5    1    3    3    0  502  0.84132236580E+02 -0.12617168666E+03  0.59989585620E+03  0.61878109088E+03  0.41800000000E+01 0.  1.
        -11    1    1    2    0    0 -0.17494931337E+02  0.77209589514E+02  0.76971436012E+02  0.11041736864E+03  0.00000000000E+00 0. -1.
         11    1    1    2    0    0 -0.82360115027E+02  0.20443472228E+02  0.34778831954E+02  0.91709820936E+02  0.00000000000E+00 0.  1.
</event>
<event>
 7    1  0.2440960E-009  0.1091964E+03  0.7561462E-02  0.1262065E+00
          1   -1    0    0  501    0  0.00000000000E+00  0.00000000000E+00  0.14714122887E+04  0.14714122887E+04  0.00000000000E+00 0. -1.
         -1   -1    0    0    0  501 -0.00000000000E+00 -0.00000000000E+00 -0.10625023406E+02  0.10625023406E+02  0.00000000000E+00 0.  1.
         25    2    1    2    0    0 -0.57104007340E+02 -0.35519803243E+01  0.95487216365E+03  0.96472872197E+03  0.12508866399E+03 0.  0.
          5    1    3    3  502    0 -0.82637052085E+02  0.11677533955E+02  0.38028168721E+03  0.38935444161E+03  0.41800000000E+01 0. -1.
         -5    1    3    3    0  502  0.25533044745E+02 -0.15229514280E+02  0.57459047644E+03  0.57537428036E+03  0.41800000000E+01 0. -1.
        -11    1    1    2    0    0  0.28697912226E+01  0.39588642568E+02  0.13472532615E+03  0.14045073808E+03  0.00000000000E+00 0. -1.
         11    1    1    2    0    0  0.54234216118E+02 -0.36036662244E+02  0.37118977550E+03  0.37685785206E+03  0.00000000000E+00 0.  1.
</event>
<event>
 7    1  0.2440960E-009  0.1937573E+03  0.7561462E-02  0.1155115E+00
          1   -1    0    0  501    0  0.00000000000E+00  0.00000000000E+00  0.51392139435E+03  0.51392139435E+03  0.00000000000E+00 0. -1.
         -1   -1    0    0    0  501 -0.00000000000E+00 -0.00000000000E+00 -0.18433749847E+03  0.18433749847E+03  0.00000000000E+00 0.  1.
         25    2    1    2    0    0 -0.31505953012E+02  0.18006532855E+03 -0.84054688399E+02  0.23691543733E+03  0.12509031210E+03 0.  0.
          5    1    3    3  502    0 -0.27920505526E+02  0.12852919742E+03 -0.11651284078E+03  0.17576126902E+03  0.41800000000E+01 0. -1.
         -5    1    3    3    0  502 -0.35854474864E+01  0.51536131127E+02  0.32458152386E+02  0.61154168308E+02  0.41800000000E+01 0. -1.
        -11    1    1    2    0    0 -0.27947171505E+02 -0.23146415663E+02  0.65746181514E+02  0.75095681213E+02  0.00000000000E+00 0.  1.
         11    1    1    2    0    0  0.59453124517E+02 -0.15691891289E+03  0.34789240277E+03  0.38624777428E+03  0.00000000000E+00 0. -1.
</event>
<event>
 7    1  0.2440960E-009  0.1062572E+03  0.7561462E-02  0.1267662E+00
          1   -1    0    0  501    0  0.00000000000E+00  0.00000000000E+00  0.24308161521E+03  0.24308161521E+03  0.00000000000E+00 0. -1.
         -1   -1    0    0    0  501 -0.00000000000E+00 -0.00000000000E+00 -0.58965672781E+02  0.58965672781E+02  0.00000000000E+00 0.  1.
         25    2    1    2    0    0 -0.72176141021E+01 -0.48024870760E+02  0.77433318035E+02  0.15492601516E+03  0.12509064420E+03 0.  0.
          5    1    3    3  502    0 -0.14073220128E+00 -0.83806645552E+02  0.82725721441E+02  0.11783289453E+03  0.41800000000E+01 0.  1.
         -5    1    3    3    0  502 -0.70768819008E+01  0.35781774792E+02 -0.52924034059E+01  0.37093120636E+02  0.41800000000E+01 0.  1.
        -11    1    1    2    0    0  0.18286477486E+02 -0.17574818733E+02  0.61984943891E+02  0.66973149706E+02  0.00000000000E+00 0. -1.
         11    1    1    2    0    0 -0.11068863384E+02  0.65599689493E+02  0.44697680505E+02  0.80148123126E+02  0.00000000000E+00 0.  1.
</event>
<event>
 7    1  0.2440960E-009  0.1037326E+03  0.7561462E-02  0.1272637E+00
          4   -1    0    0  501    0  0.00000000000E+00  0.00000000000E+00  0.31551531213E+02  0.31551531213E+02  0.00000000000E+00 0. -1.
         -4   -1    0    0    0  501 -0.00000000000E+00 -0.00000000000E+00 -0.41329139442E+03  0.41329139442E+03  0.00000000000E+00 0.  1.
         25    2    1    2    0    0  0.29314162398E+02  0.14263095524E+02 -0.18573363342E+03  0.22629041403E+03  0.12509041884E+03 0.  0.
          5    1    3    3  502    0 -0.48220703159E+02  0.16777612221E+02 -0.65724043652E+02  0.83329747383E+02  0.41800000000E+01 0. -1.
         -5    1    3    3    0  502  0.77534865557E+02 -0.25145166973E+01 -0.12000958977E+03  0.14296066665E+03  0.41800000000E+01 0. -1.
        -11    1    1    2    0    0  0.38663047951E+01 -0.37718646637E+02 -0.15944560505E+03  0.16389187163E+03  0.00000000000E+00 0.  1.
         11    1    1    2    0    0 -0.33180467193E+02  0.23455551113E+02 -0.36560624732E+02  0.54660639970E+02  0.00000000000E+00 0. -1.
</event>
<event>
 7    1  0.2440960E-009  0.5892398E+02  0.7561462E-02  0.1402404E+00
          2   -1    0    0  501    0  0.00000000000E+00  0.00000000000E+00  0.81269328368E+02  0.81269328368E+02  0.00000000000E+00 0. -1.
         -2   -1    0    0    0  501 -0.00000000000E+00 -0.00000000000E+00 -0.19398971832E+03  0.19398971832E+03  0.00000000000E+00 0.  1.
         25    2    1    2    0    0 -0.26615378163E+02  0.15248328332E+02 -0.16466965661E+01  0.12880625852E+03  0.12508977078E+03 0.  0.
          5    1    3    3  502    0  0.92034845973E+01  0.30877726787E+01  0.57505663252E+02  0.58468899211E+02  0.41800000000E+01 0. -1.
         -5    1    3    3    0  502 -0.35818862760E+02  0.12160555654E+02 -0.59152359818E+02  0.70337359314E+02  0.41800000000E+01 0. -1.
        -11    1    1    2    0    0  0.31328546503E+02  0.17669570851E+02 -0.10708104155E+03  0.11296035154E+03  0.00000000000E+00 0.  1.
         11    1    1    2    0    0 -0.47131683401E+01 -0.32917899184E+02 -0.39926518371E+01  0.33492436626E+02  0.00000000000E+00 0. -1.
</event>
<event>
 7    1  0.2440960E-009  0.9742251E+02  0.7561462E-02  0.1285811E+00
          3   -1    0    0  501    0  0.00000000000E+00  0.00000000000E+00  0.64122533393E+03  0.64122533393E+03  0.00000000000E+00 0. -1.
         -3   -1    0    0    0  501 -0.00000000000E+00 -0.00000000000E+00 -0.27821052898E+02  0.27821052898E+02  0.00000000000E+00 0.  1.
         25    2    1    2    0    0 -0.68292086579E+02  0.32287335041E+02  0.38979360359E+03  0.41628468073E+03  0.12509037101E+03 0.  0.
          5    1    3    3  502    0 -0.32332939465E+02  0.36839755368E+02  0.36862989368E+02  0.61473074880E+02  0.41800000000E+01 0. -1.
         -5    1    3    3    0  502 -0.35959147114E+02 -0.45524203270E+01  0.35293061422E+03  0.35481160585E+03  0.41800000000E+01 0. -1.
        -11    1    1    2    0    0  0.35607517942E+02 -0.57673012471E+02  0.18139345200E+03  0.19364311537E+03  0.00000000000E+00 0. -1.
         11    1    1    2    0    0  0.32684568637E+02  0.25385677430E+02  0.42217225444E+02  0.59118590729E+02  0.00000000000E+00 0.  1.
</event>
<event>
 7    1  0.2440960E-009  0.1480444E+03  0.7561462E-02  0.1202897E+00
          2   -1    0    0  501    0  0.00000000000E+00  0.00000000000E+00  0.11222810436E+04  0.11222810436E+04  0.00000000000E+00 0. -1.
         -2   -1    0    0    0  501 -0.00000000000E+00 -0.00000000000E+00 -0.34585782889E+02  0.34585782889E+02  0.00000000000E+00 0.  1.
         25    2    1    2    0    0  0.69909850134E+02 -0.64271709120E+02  0.93738421288E+03  0.95044903202E+03  0.12508381258E+03 0.  0.
          5    1    3    3  502    0  0.83703010647E+02  0.72133130049E+01  0.50680968910E+03  0.51374289215E+03  0.41800000000E+01 0.  1.
         -5    1    3    3    0  502 -0.13793160512E+02 -0.71485022125E+02  0.43057452379E+03  0.43670613987E+03  0.41800000000E+01 0.  1.
        -11    1    1    2    0    0  0.22370345244E+02  0.36268476005E+02  0.29453629671E+02  0.51801071406E+02  0.00000000000E+00 0. -1.
         11    1    1    2    0    0 -0.92280195379E+02  0.28003233115E+02  0.12085741812E+03  0.15461672302E+03  0.00000000000E+00 0.  1.
</event>
<event>
 7    1  0.2440960E-009  0.1284242E+03  0.7561462E-02  0.1229813E+00
          2   -1    0    0  501    0  0.00000000000E+00  0.00000000000E+00  0.62906624452E+03  0.62906624452E+03  0.00000000000E+00 0. -1.
         -2   -1    0    0    0  501 -0.00000000000E+00 -0.00000000000E+00 -0.43561356670E+02  0.43561356670E+02  0.00000000000E+00 0.  1.
         25    2    1    2    0    0 -0.75212096055E+02  0.49524459163E+02  0.13978771391E+03  0.20807954865E+03  0.12508781778E+03 0.  0.
          5    1    3    3  502    0 -0.83323186349E+02  0.76883999282E+02  0.71892880959E+02  0.13431292366E+03  0.41800000000E+01 0.  1.
         -5    1    3    3    0  502  0.81110902939E+01 -0.27359540119E+02  0.67894832948E+02  0.73766624989E+02  0.41800000000E+01 0.  1.
        -11    1    1    2    0    0  0.24935472681E+02  0.17722286464E+02  0.40676844455E+02  0.50896590359E+02  0.00000000000E+00 0.  1.
         11    1    1    2    0    0  0.50276623374E+02 -0.67246745627E+02  0.40504032949E+03  0.41365146218E+03  0.00000000000E+00 0. -1.
</event>
<event>
 7    1  0.2440960E-009  0.1339946E+03  0.7561462E-02  0.1221646E+00
          2   -1    0    0  501    0  0.00000000000E+00  0.00000000000E+00  0.12016764453E+04  0.12016764453E+04  0.00000000000E+00 0. -1.
         -2   -1    0    0    0  501 -0.00000000000E+00 -0.00000000000E+00 -0.35158887799E+02  0.35158887799E+02  0.00000000000E+00 0.  1.
         25    2    1    2    0    0 -0.27559427250E+01 -0.94008780341E+02  0.10531195562E+04  0.10646849272E+04  0.12509176108E+03 0.  0.
          5    1    3    3  502    0 -0.53454298096E+02 -0.42675782356E+02  0.28286859322E+03  0.29105102270E+03  0.41800000000E+01 0. -1.
         -5    1    3    3    0  502  0.50698355371E+02 -0.51332997985E+02  0.77025096296E+03  0.77363390454E+03  0.41800000000E+01 0. -1.
        -11    1    1    2    0    0 -0.17715651602E+02  0.10323022334E+03  0.79511910077E+02  0.13150082573E+03  0.00000000000E+00 0.  1.
         11    1    1    2    0    0  0.20471594327E+02 -0.92214429995E+01  0.33886091284E+02  0.40649580167E+02  0.00000000000E+00 0. -1.
</event>
<event>
 7    1  0.2440960E-009  0.4144812E+02  0.7561462E-02  0.1497817E+00
         -1   -1    0    0    0  501 -0.00000000000E+00  0.00000000000E+00  0.20902876151E+03  0.20902876151E+03  0.00000000000E+00 0.  1.
          1   -1    0    0  501    0  0.00000000000E+00 -0.00000000000E+00 -0.56998514197E+02  0.56998514197E+02  0.00000000000E+00 0. -1.
         25    2    1    2    0    0  0.18172834191E+02  0.29763622692E+01  0.72252470598E+02  0.14562975036E+03  0.12509394089E+03 0.  0.
          5    1    3    3  502    0 -0.84642112814E+01  0.72168849682E+01 -0.33953410694E+02  0.35972667388E+02  0.41800000000E+01 0.  1.
         -5    1    3    3    0  502  0.26637045472E+02 -0.42405226989E+01  0.10620588129E+03  0.10965708297E+03  0.41800000000E+01 0.  1.
        -11    1    1    2    0    0 -0.10062435204E+02  0.18336060407E+02 -0.13154515475E+02  0.24708399197E+02  0.00000000000E+00 0. -1.
         11    1    1    2    0    0 -0.81103989868E+01 -0.21312422677E+02  0.92932292189E+02  0.95689126151E+02  0.00000000000E+00 0.  1.
</event>
<event>
 7    1  0.2440960E-009  0.3111456E+03  0.7561462E-02  0.1079798E+00
         -2   -1    0    0    0  501 -0.00000000000E+00  0.00000000000E+00  0.87185650044E+02  0.87185650044E+02  0.00000000000E+00 0.  1.
          2   -1    0    0  501    0  0.00000000000E+00 -0.00000000000E+00 -0.16392610184E+04  0.16392610184E+04  0.00000000000E+00 0. -1.
         25    2    1    2    0    0 -0.30511361108E+03  0.25206643083E+02 -0.34519163212E+03  0.47805266225E+03  0.12508954584E+03 0.  0.
          5    1    3    3  502    0 -0.19408843845E+03 -0.13067061616E+02 -0.13361516133E+03  0.23603295061E+03  0.41800000000E+01 0.  1.
         -5    1    3    3    0  502 -0.11102517263E+03  0.38273704699E+02 -0.21157647079E+03  0.24201971163E+03  0.41800000000E+01 0.  1.
        -11    1    1    2    0    0  0.24057332355E+03 -0.40300143069E+02 -0.10522666446E+04  0.10801688372E+04  0.00000000000E+00 0.  1.
         11    1    1    2    0    0  0.64540287530E+02  0.15093499986E+02 -0.15461709170E+03  0.16822516905E+03  0.00000000000E+00 0. -1.
</event>
<event>
 7    1  0.2440960E-009  0.1118904E+03  0.7561462E-02  0.1257109E+00
          1   -1    0    0  501    0  0.00000000000E+00  0.00000000000E+00  0.48839017480E+03  0.48839017480E+03  0.00000000000E+00 0. -1.
         -1   -1    0    0    0  501 -0.00000000000E+00 -0.00000000000E+00 -0.51227226618E+02  0.51227226618E+02  0.00000000000E+00 0.  1.
         25    2    1    2    0    0  0.80309967040E+02  0.68427380171E+00  0.41008850236E+03  0.43619965047E+03  0.12508955301E+03 0.  0.
          5    1    3    3  502    0  0.46969527925E+02  0.59365313818E+02  0.27313867796E+03  0.28346531858E+03  0.41800000000E+01 0. -1.
         -5    1    3    3    0  502  0.33340439115E+02 -0.58681040017E+02  0.13694982439E+03  0.15273433189E+03  0.41800000000E+01 0. -1.
        -11    1    1    2    0    0 -0.23013430193E+02 -0.12353427123E+01 -0.19018301793E+02  0.29880425766E+02  0.00000000000E+00 0.  1.
         11    1    1    2    0    0 -0.57296536847E+02  0.55106891059E+00  0.46092747624E+02  0.73537325183E+02  0.00000000000E+00 0. -1.
</event>
<event>
 7    1  0.2440960E-009  0.9663964E+02  0.7561462E-02  0.1287525E+00
          2   -1    0    0  501    0  0.00000000000E+00  0.00000000000E+00  0.31370892567E+03  0.31370892567E+03  0.00000000000E+00 0.  1.
         -2   -1    0    0    0  501 -0.00000000000E+00 -0.00000000000E+00 -0.41269349187E+02  0.41269349187E+02  0.00000000000E+00 0. -1.
         25    2    1    2    0    0 -0.27390567778E+02  0.19034033911E+02  0.16737987446E+03  0.21160395088E+03  0.12509065515E+03 0.  0.
          5    1    3    3  502    0  0.25419557869E+02 -0.18016600403E+02 -0.78034026437E+00  0.31445717408E+02  0.41800000000E+01 0.  1.
         -5    1    3    3    0  502 -0.52810125648E+02  0.37050634314E+02  0.16816021472E+03  0.18015823348E+03  0.41800000000E+01 0.  1.
        -11    1    1    2    0    0  0.23243158259E+02  0.35539963629E+02  0.52109721737E+02  0.67221696796E+02  0.00000000000E+00 0. -1.
         11    1    1    2    0    0  0.41474095198E+01 -0.54573997541E+02  0.52949980287E+02  0.76152627175E+02  0.00000000000E+00 0.  1.
</event>
<event>
 7    1  0.2440960E-009  0.1154058E+03  0.7561462E-02  0.1250874E+00
          1   -1    0    0  501    0  0.00000000000E+00  0.00000000000E+00  0.84882379727E+02  0.84882379727E+02  0.00000000000E+00 0. -1.
         -1   -1    0    0    0  501 -0.00000000000E+00 -0.00000000000E+00 -0.18633652228E+03  0.18633652228E+03  0.00000000000E+00 0.  1.
         25    2    1    2    0    0  0.62848605871E+02  0.30204116910E+02 -0.67356635546E+02  0.15826017256E+03  0.12508848839E+03 0.  0.
          5    1    3    3  502    0  0.65237408418E+02  0.73180209631E+02 -0.34740539505E+02  0.10409438037E+03  0.41800000000E+01 0. -1.
         -5    1    3    3    0  502 -0.23888025465E+01 -0.42976092721E+02 -0.32616096042E+02  0.54165792196E+02  0.41800000000E+01 0. -1.
        -11    1    1    2    0    0 -0.27596442124E+02  0.15553993659E+02  0.16900912016E+02  0.35904472752E+02  0.00000000000E+00 0.  1.
         11    1    1    2    0    0 -0.35252163747E+02 -0.45758110570E+02 -0.50998419021E+02  0.77054256692E+02  0.00000000000E+00 0. -1.
</event>
<event>
 7    1  0.2440960E-009  0.1189180E+03  0.7561462E-02  0.1244893E+00
         -2   -1    0    0    0  501 -0.00000000000E+00  0.00000000000E+00  0.22794154612E+02  0.22794154612E+02  0.00000000000E+00 0.  1.
          2   -1    0    0  501    0  0.00000000000E+00 -0.00000000000E+00 -0.76277184249E+03  0.76277184249E+03  0.00000000000E+00 0. -1.
         25    2    1    2    0    0  0.51165049897E+02 -0.50524100648E+02 -0.47780147782E+03  0.49911228498E+03  0.12509306033E+03 0.  0.
          5    1    3    3  502    0 -0.34650090770E+02 -0.19796149997E+00 -0.58238664960E+02  0.67896115319E+02  0.41800000000E+01 0.  1.
         -5    1    3    3    0  502  0.85815140666E+02 -0.50326139148E+02 -0.41956281286E+03  0.43121616966E+03  0.41800000000E+01 0.  1.
        -11    1    1    2    0    0 -0.60026322444E+02  0.87518102493E+01 -0.86422933753E+02  0.10558729586E+03  0.00000000000E+00 0.  1.
         11    1    1    2    0    0  0.88612725474E+01  0.41772290398E+02 -0.17575327631E+03  0.18086641626E+03  0.00000000000E+00 0. -1.
</event>
<event>
 7    1  0.2440960E-009  0.1279516E+03  0.7561462E-02  0.1230527E+00
          1   -1    0    0  501    0  0.00000000000E+00  0.00000000000E+00  0.10671913524E+03  0.10671913524E+03  0.00000000000E+00 0.  1.
         -1   -1    0    0    0  501 -0.00000000000E+00 -0.00000000000E+00 -0.18235890768E+03  0.18235890768E+03  0.00000000000E+00 0. -1.
         25    2    1    2    0    0  0.56466547038E+02 -0.60704403969E+02 -0.33205231783E+02  0.15371013906E+03  0.12510285303E+03 0.  0.
          5    1    3    3  502    0  0.86026758832E+01 -0.89042102144E+02 -0.38903631394E+02  0.97639474201E+02  0.41800000000E+01 0.  1.
         -5    1    3    3    0  502  0.47863871154E+02  0.28337698174E+02  0.56983996110E+01  0.56070664860E+02  0.41800000000E+01 0.  1.
        -11    1    1    2    0    0 -0.29838784570E+01 -0.16434155897E+02 -0.37871727179E+02  0.41391457213E+02  0.00000000000E+00 0. -1.
         11    1    1    2    0    0 -0.53482668581E+02  0.77138559866E+02 -0.45628134796E+01  0.93976446642E+02  0.00000000000E+00 0.  1.
</event>
<event>
 7    1  0.2440960E-009  0.1053215E+03  0.7561462E-02  0.1269487E+00
          1   -1    0    0  501    0  0.00000000000E+00  0.00000000000E+00  0.28211387531E+03  0.28211387531E+03  0.00000000000E+00 0. -1.
         -1   -1    0    0    0  501 -0.00000000000E+00 -0.00000000000E+00 -0.46473323322E+02  0.46473323322E+02  0.00000000000E+00 0.  1.
         25    2    1    2    0    0  0.23685216695E+02 -0.28240456412E+02  0.14649219876E+03  0.19612658741E+03  0.12508861309E+03 0.  0.
          5    1    3    3  502    0  0.68020616257E+02 -0.24349749129E+02  0.44980120623E+02  0.85207970107E+02  0.41800000000E+01 0.  1.
         -5    1    3    3    0  502 -0.44335399562E+02 -0.38907072835E+01  0.10151207814E+03  0.11091861731E+03  0.41800000000E+01 0.  1.
        -11    1    1    2    0    0  0.23746873622E+02  0.38320293385E+02  0.23482695927E+02  0.50831052516E+02  0.00000000000E+00 0.  1.
         11    1    1    2    0    0 -0.47432090317E+02 -0.10079836973E+02  0.65665657304E+02  0.81629558705E+02  0.00000000000E+00 0. -1.
</event>
<event>
 7    1  0.2440960E-009  0.1259571E+03  0.7561462E-02  0.1233581E+00
         -1   -1    0    0    0  501 -0.00000000000E+00  0.00000000000E+00  0.49802550812E+02  0.49802550812E+02  0.00000000000E+00 0.  1.
          1   -1    0    0  501    0  0.00000000000E+00 -0.00000000000E+00 -0.33250403499E+03  0.33250403499E+03  0.00000000000E+00 0. -1.
         25    2    1    2    0    0  0.72067555945E+01 -0.67366926265E+02 -0.18349818925E+03  0.23218367681E+03  0.12508970477E+03 0.  0.
          5    1    3    3  502    0  0.65365296917E+02 -0.38548222240E+02 -0.83647405076E+02  0.11301746880E+03  0.41800000000E+01 0.  1.
         -5    1    3    3    0  502 -0.58158541323E+02 -0.28818704025E+02 -0.99850784175E+02  0.11916620801E+03  0.41800000000E+01 0.  1.
        -11    1    1    2    0    0 -0.43098985019E+02  0.60575258223E+02 -0.53384613197E+02  0.91524867356E+02  0.00000000000E+00 0.  1.
         11    1    1    2    0    0  0.35892229424E+02  0.67916680417E+01 -0.45818681730E+02  0.58598041634E+02  0.00000000000E+00 0. -1.
</event>
<event>
 7    1  0.2440960E-009  0.1481441E+03  0.7561462E-02  0.1202772E+00
         -2   -1    0    0    0  501 -0.00000000000E+00  0.00000000000E+00  0.13843971839E+03  0.13843971839E+03  0.00000000000E+00 0.  1.
          2   -1    0    0  501    0  0.00000000000E+00 -0.00000000000E+00 -0.18902842040E+03  0.18902842040E+03  0.00000000000E+00 0. -1.
         25    2    1    2    0    0 -0.93135899809E+02 -0.38617176656E+02  0.33925352399E+02  0.16420829587E+03  0.12509137752E+03 0.  0.
          5    1    3    3  502    0 -0.56951284113E+02  0.40480503112E+02 -0.19545826498E+01  0.70024372098E+02  0.41800000000E+01 0.  1.
         -5    1    3    3    0  502 -0.36184615696E+02 -0.79097679768E+02  0.35879935048E+02  0.94183923770E+02  0.41800000000E+01 0.  1.
        -11    1    1    2    0    0 -0.23382935591E+01 -0.24594759427E+02 -0.20324824092E+02  0.31991690833E+02  0.00000000000E+00 0. -1.
         11    1    1    2    0    0  0.95474193368E+02  0.63211936082E+02 -0.64189230323E+02  0.13126815209E+03  0.00000000000E+00 0.  1.
</event>
<event>
 7    1  0.2440960E-009  0.9924283E+02  0.7561462E-02  0.1281896E+00
         -1   -1    0    0    0  501 -0.00000000000E+00  0.00000000000E+00  0.34420743238E+02  0.34420743238E+02  0.00000000000E+00 0.  1.
          1   -1    0    0  501    0  0.00000000000E+00 -0.00000000000E+00 -0.41186925005E+03  0.41186925005E+03  0.00000000000E+00 0. -1.
         25    2    1    2    0    0 -0.35969361784E+01 -0.12335782746E+02 -0.12852849575E+03  0.17981239937E+03  0.12509122775E+03 0.  0.
          5    1    3    3  502    0  0.48432226118E+02 -0.20728363609E+02 -0.15567711595E+02  0.55092391752E+02  0.41800000000E+01 0.  1.
         -5    1    3    3    0  502 -0.52029162296E+02  0.83925808628E+01 -0.11296078416E+03  0.12472000762E+03  0.41800000000E+01 0.  1.
        -11    1    1    2    0    0  0.35425745168E+02 -0.25261827103E+02 -0.87708835427E+02  0.97908034100E+02  0.00000000000E+00 0.  1.
         11    1    1    2    0    0 -0.31828808990E+02  0.37597609849E+02 -0.16121117564E+03  0.16856955982E+03  0.00000000000E+00 0. -1.
</event>
<event>
 7    1  0.2440960E-009  0.9596099E+02  0.7561462E-02  0.1289026E+00
         -2   -1    0    0    0  501 -0.00000000000E+00  0.00000000000E+00  0.20784551985E+03  0.20784551985E+03  0.00000000000E+00 0.  1.
          2   -1    0    0  501    0  0.00000000000E+00 -0.00000000000E+00 -0.76100870609E+02  0.76100870609E+02  0.00000000000E+00 0. -1.
         25    2    1    2    0    0 -0.31978249039E+02 -0.35629799751E+02  0.10816938270E+02  0.13437488233E+03  0.12509001481E+03 0.  0.
          5    1    3    3  502    0 -0.22458153207E+01  0.30751422704E+02 -0.36146595716E+02  0.47694260311E+02  0.41800000000E+01 0.  1.
         -5    1    3    3    0  502 -0.29732433718E+02 -0.66381222455E+02  0.46963533986E+02  0.86680622020E+02  0.41800000000E+01 0.  1.
        -11    1    1    2    0    0 -0.23061341082E+02  0.20534821625E+02  0.45384715522E+02  0.54893321586E+02  0.00000000000E+00 0.  1.
         11    1    1    2    0    0  0.55039590121E+02  0.15094978125E+02  0.75542995449E+02  0.94678186541E+02  0.00000000000E+00 0. -1.
</event>
<event>
 7    1  0.2440960E-009  0.1922042E+03  0.7561462E-02  0.1156488E+00
          2   -1    0    0  501    0  0.00000000000E+00  0.00000000000E+00  0.15738687968E+04  0.15738687968E+04  0.00000000000E+00 0. -1.
         -2   -1    0    0    0  501 -0.00000000000E+00 -0.00000000000E+00 -0.29956241273E+02  0.29956241273E+02  0.00000000000E+00 0.  1.
         25    2    1    2    0    0 -0.61176274946E+02  0.17724844603E+03  0.76465852733E+03  0.79718917878E+03  0.12509346553E+03 0.  0.
          5    1    3    3  502    0 -0.47095300613E+02  0.17178329920E+03  0.47838795952E+03  0.51048994254E+03  0.41800000000E+01 0. -1.
         -5    1    3    3    0  502 -0.14080974333E+02  0.54651468292E+01  0.28627056781E+03  0.28669923624E+03  0.41800000000E+01 0. -1.
        -11    1    1    2    0    0  0.47596003471E+02 -0.16672244258E+03  0.76472648187E+03  0.78413541208E+03  0.00000000000E+00 0. -1.
         11    1    1    2    0    0  0.13580271475E+02 -0.10526003442E+02  0.14527546303E+02  0.22500447182E+02  0.00000000000E+00 0.  1.
</event>
<event>
 7    1  0.2440960E-009  0.7626417E+02  0.7561462E-02  0.1340000E+00
         -2   -1    0    0    0  501 -0.00000000000E+00  0.00000000000E+00  0.61295051591E+02  0.61295051591E+02  0.00000000000E+00 0.  1.
          2   -1    0    0  501    0  0.00000000000E+00 -0.00000000000E+00 -0.20552552798E+03  0.20552552798E+03  0.00000000000E+00 0. -1.
         25    2    1    2    0    0 -0.17222894044E+02  0.23077850481E+02 -0.94468108712E+02  0.15937779124E+03  0.12509133269E+03 0.  0.
          5    1    3    3  502    0  0.38594237769E+02  0.49568061937E+01  0.91786301714E+01  0.40197074127E+02  0.41800000000E+01 0.  1.
         -5    1    3    3    0  502 -0.55817131813E+02  0.18121044288E+02 -0.10364673888E+03  0.11918071711E+03  0.41800000000E+01 0.  1.
        -11    1    1    2    0    0 -0.27536678913E+01  0.13017221187E+02  0.21393039935E+02  0.25193111994E+02  0.00000000000E+00 0.  1.
         11    1    1    2    0    0  0.19976561935E+02 -0.36095071669E+02 -0.71155407610E+02  0.82249676338E+02  0.00000000000E+00 0. -1.
</event>
<event>
 7    1  0.2440960E-009  0.1075260E+03  0.7561462E-02  0.1265221E+00
         -2   -1    0    0    0  501 -0.00000000000E+00  0.00000000000E+00  0.38601161694E+02  0.38601161694E+02  0.00000000000E+00 0.  1.
          2   -1    0    0  501    0  0.00000000000E+00 -0.00000000000E+00 -0.31863350614E+03  0.31863350614E+03  0.00000000000E+00 0. -1.
         25    2    1    2    0    0  0.12267368021E+02 -0.17968927386E+02 -0.13516896249E+03  0.18545058177E+03  0.12509156322E+03 0.  0.
          5    1    3    3  502    0 -0.14432297015E+01 -0.70409948575E+02 -0.92544164561E+02  0.11636811662E+03  0.41800000000E+01 0.  1.
         -5    1    3    3    0  502  0.13710597722E+02  0.52441021189E+02 -0.42624797932E+02  0.69082465155E+02  0.41800000000E+01 0.  1.
        -11    1    1    2    0    0  0.33741956632E+02  0.27044625827E+02 -0.51056166715E+02  0.66907873850E+02  0.00000000000E+00 0.  1.
         11    1    1    2    0    0 -0.46009324653E+02 -0.90756984409E+01 -0.93807215234E+02  0.10487621221E+03  0.00000000000E+00 0. -1.
</event>
<event>
 7    1  0.2440960E-009  0.1401646E+03  0.7561462E-02  0.1213108E+00
          2   -1    0    0  501    0  0.00000000000E+00  0.00000000000E+00  0.48023198584E+03  0.48023198584E+03  0.00000000000E+00 0. -1.
         -2   -1    0    0    0  501 -0.00000000000E+00 -0.00000000000E+00 -0.91096623470E+02  0.91096623470E+02  0.00000000000E+00 0.  1.
         25    2    1    2    0    0 -0.87629028364E+02  0.62494133538E+02  0.39550765585E+03  0.42855074734E+03  0.12508026973E+03 0.  0.
          5    1    3    3  502    0 -0.29932270150E+01 -0.32001435010E+02  0.42711580291E+02  0.53617186998E+02  0.41800000000E+01 0.  1.
         -5    1    3    3    0  502 -0.84635801349E+02  0.94495568548E+02  0.35279607556E+03  0.37493356035E+03  0.41800000000E+01 0.  1.
        -11    1    1    2    0    0  0.80771357534E+01  0.10349051401E+02 -0.29653947849E+02  0.32429918439E+02  0.00000000000E+00 0.  1.
         11    1    1    2    0    0  0.79551892610E+02 -0.72843184939E+02  0.23281654368E+02  0.11034794352E+03  0.00000000000E+00 0. -1.
</event>
<event>
 7    1  0.2440960E-009  0.1187136E+03  0.7561462E-02  0.1245234E+00
          1   -1    0    0  501    0  0.00000000000E+00  0.00000000000E+00  0.76214218424E+02  0.76214218424E+02  0.00000000000E+00 0. -1.
         -1   -1    0    0    0  501 -0.00000000000E+00 -0.00000000000E+00 -0.22116713804E+03  0.22116713804E+03  0.00000000000E+00 0.  1.
         25    2    1    2    0    0  0.11586081029E+02  0.62341767049E+02 -0.43532175445E+02  0.14684614586E+03  0.12509199440E+03 0.  0.
          5    1    3    3  502    0 -0.43366566774E+02 -0.63010562429E+01 -0.38817490809E+02  0.58690990930E+02  0.41800000000E+01 0.  1.
         -5    1    3    3    0  502  0.54952647803E+02  0.68642823292E+02 -0.47146846353E+01  0.88155154933E+02  0.41800000000E+01 0.  1.
        -11    1    1    2    0    0  0.34218602783E+02 -0.44697241937E+02 -0.77886898169E+02  0.96099558373E+02  0.00000000000E+00 0. -1.
         11    1    1    2    0    0 -0.45804683812E+02 -0.17644525112E+02 -0.23533845999E+02  0.54435652224E+02  0.00000000000E+00 0.  1.
</event>
<event>
 7    1  0.2440960E-009  0.1129521E+03  0.7561462E-02  0.1255199E+00
         -2   -1    0    0    0  501 -0.00000000000E+00  0.00000000000E+00  0.63475705848E+03  0.63475705848E+03  0.00000000000E+00 0. -1.
          2   -1    0    0  501    0  0.00000000000E+00 -0.00000000000E+00 -0.21117540816E+02  0.21117540816E+02  0.00000000000E+00 0.  1.
         25    2    1    2    0    0 -0.37094853629E+02 -0.13379845809E+02  0.34170964119E+03  0.36601913002E+03  0.12509786656E+03 0.  0.
          5    1    3    3  502    0  0.20740897626E+02  0.43489924047E+02  0.15601603211E+03  0.16334023694E+03  0.41800000000E+01 0. -1.
         -5    1    3    3    0  502 -0.57835751255E+02 -0.56869769856E+02  0.18569360908E+03  0.20267889308E+03  0.41800000000E+01 0. -1.
        -11    1    1    2    0    0  0.35708858997E+01  0.47998256662E+02  0.17654659988E+03  0.18298985163E+03  0.00000000000E+00 0.  1.
         11    1    1    2    0    0  0.33523967729E+02 -0.34618410853E+02  0.95383276591E+02  0.10686561765E+03  0.00000000000E+00 0. -1.
</event>
<event>
 7    1  0.2440960E-009  0.1261403E+03  0.7561462E-02  0.1233298E+00
          1   -1    0    0  501    0  0.00000000000E+00  0.00000000000E+00  0.76159111677E+03  0.76159111677E+03  0.00000000000E+00 0. -1.
         -1   -1    0    0    0  501 -0.00000000000E+00 -0.00000000000E+00 -0.30892210878E+02  0.30892210878E+02  0.00000000000E+00 0.  1.
         25    2    1    2    0    0  0.52077822510E+02 -0.90444509322E+02  0.44187520370E+03  0.47094955331E+03  0.12508987671E+03 0.  0.
          5    1    3    3  502    0  0.63380384944E+01 -0.10016687262E+03  0.38130263698E+03  0.39431300570E+03  0.41800000000E+01 0. -1.
         -5    1    3    3    0  502  0.45739784015E+02  0.97223632948E+01  0.60572566720E+02  0.76636547605E+02  0.41800000000E+01 0. -1.
        -11    1    1    2    0    0 -0.20137533824E+02  0.45329571238E+02  0.24775216997E+03  0.25266861305E+03  0.00000000000E+00 0. -1.
         11    1    1    2    0    0 -0.31940288686E+02  0.45114938084E+02  0.41071532227E+02  0.68865161288E+02  0.00000000000E+00 0.  1.
</event>
<event>
 7    1  0.2440960E-009  0.1288116E+03  0.7561462E-02  0.1229230E+00
         -1   -1    0    0    0  501 -0.00000000000E+00  0.00000000000E+00  0.11253935604E+03  0.11253935604E+03  0.00000000000E+00 0.  1.
          1   -1    0    0  501    0  0.00000000000E+00 -0.00000000000E+00 -0.60848262689E+03  0.60848262689E+03  0.00000000000E+00 0. -1.
         25    2    1    2    0    0  0.15166264508E+02  0.12353758409E+03  0.24173192446E+02  0.17811021801E+03  0.12508939310E+03 0.  0.
          5    1    3    3  502    0 -0.52638297081E+01  0.97907402444E+02 -0.39963297972E+02  0.10596275261E+03  0.41800000000E+01 0.  1.
         -5    1    3    3    0  502  0.20430094216E+02  0.25630181646E+02  0.64136490418E+02  0.72147465402E+02  0.41800000000E+01 0.  1.
        -11    1    1    2    0    0  0.52599310414E+01 -0.44470930609E+02 -0.56183781726E+02  0.71846697021E+02  0.00000000000E+00 0.  1.
         11    1    1    2    0    0 -0.20426195549E+02 -0.79066653480E+02 -0.46393268158E+03  0.47106506790E+03  0.00000000000E+00 0. -1.
</event>
<event>
 7    1  0.2545287E-009  0.1624428E+03  0.7561462E-02  0.1185966E+00
         -2   -1    0    0    0  501 -0.00000000000E+00  0.00000000000E+00  0.13260206035E+03  0.13260206035E+03  0.00000000000E+00 0.  1.
          2   -1    0    0  501    0  0.00000000000E+00 -0.00000000000E+00 -0.24262265339E+03  0.24262265339E+03  0.00000000000E+00 0. -1.
         25    2    1    2    0    0  0.12256284275E+03 -0.70522067820E+02 -0.41858165637E+02  0.19337592515E+03  0.12508848838E+03 0.  0.
          5    1    3    3  502    0  0.10051762989E+03 -0.83903941693E+02  0.13964045143E+02  0.13174267459E+03  0.41800000000E+01 0. -1.
         -5    1    3    3    0  502  0.22045212859E+02  0.13381873874E+02 -0.55822210780E+02  0.61633250562E+02  0.41800000000E+01 0. -1.
        -11    1    1    2    0    0 -0.45327623513E+02  0.77946948350E+02 -0.27618350440E+02  0.94303199794E+02  0.00000000000E+00 0.  1.
         11    1    1    2    0    0 -0.77235219239E+02 -0.74248805301E+01 -0.40544076955E+02  0.87545588797E+02  0.00000000000E+00 0. -1.
</event>
<event>
 7    1  0.2440960E-009  0.1045860E+03  0.7561462E-02  0.1270938E+00
          1   -1    0    0  501    0  0.00000000000E+00  0.00000000000E+00  0.43672483654E+03  0.43672483654E+03  0.00000000000E+00 0. -1.
         -1   -1    0    0    0  501 -0.00000000000E+00 -0.00000000000E+00 -0.35597461808E+02  0.35597461808E+02  0.00000000000E+00 0.  1.
         25    2    1    2    0    0 -0.41847552120E+02 -0.15698817017E+02  0.14217573006E+03  0.19457371939E+03  0.12508926246E+03 0.  0.
          5    1    3    3  502    0  0.22456708250E+02  0.27435405398E+02  0.37344616012E+01  0.35894621020E+02  0.41800000000E+01 0.  1.
         -5    1    3    3    0  502 -0.64304260370E+02 -0.43134222414E+02  0.13844126846E+03  0.15867909837E+03  0.41800000000E+01 0.  1.
        -11    1    1    2    0    0  0.50461079716E+02  0.43624637904E+02  0.21380536755E+03  0.22396911571E+03  0.00000000000E+00 0. -1.
         11    1    1    2    0    0 -0.86135275963E+01 -0.27925820887E+02  0.45146277116E+02  0.53779463249E+02  0.00000000000E+00 0.  1.
</event>
<event>
 7    1  0.2440960E-009  0.2055858E+03  0.7561462E-02  0.1145110E+00
         -2   -1    0    0    0  501 -0.00000000000E+00  0.00000000000E+00  0.47726979152E+02  0.47726979152E+02  0.00000000000E+00 0.  1.
          2   -1    0    0  501    0  0.00000000000E+00 -0.00000000000E+00 -0.10769207105E+04  0.10769207105E+04  0.00000000000E+00 0. -1.
         25    2    1    2    0    0  0.78639995400E+02 -0.15821495121E+03 -0.76146994346E+03  0.79164374757E+03  0.12508848309E+03 0.  0.
          5    1    3    3  502    0  0.85908165564E+02 -0.17614954661E+03 -0.70761433985E+03  0.73426453138E+03  0.41800000000E+01 0.  1.
         -5    1    3    3    0  502 -0.72681701634E+01  0.17934595400E+02 -0.53855603611E+02  0.57379216185E+02  0.41800000000E+01 0.  1.
        -11    1    1    2    0    0 -0.22175599976E+02  0.13064146900E+03 -0.20588398601E+03  0.24484110430E+03  0.00000000000E+00 0. -1.
         11    1    1    2    0    0 -0.56464395424E+02  0.27573482212E+02 -0.61839801886E+02  0.88162837801E+02  0.00000000000E+00 0.  1.
</event>
<event>
 7    1  0.2440960E-009  0.1185038E+03  0.7561462E-02  0.1245586E+00
         -1   -1    0    0    0  501 -0.00000000000E+00  0.00000000000E+00  0.25591300899E+02  0.25591300899E+02  0.00000000000E+00 0.  1.
          1   -1    0    0  501    0  0.00000000000E+00 -0.00000000000E+00 -0.58204656127E+03  0.58204656127E+03  0.00000000000E+00 0. -1.
         25    2    1    2    0    0 -0.54706929031E+02  0.46402903012E+01 -0.31932082624E+03  0.34731251862E+03  0.12508323286E+03 0.  0.
          5    1    3    3  502    0 -0.38723443882E+02  0.60940879027E+02 -0.22394146867E+03  0.23533072394E+03  0.41800000000E+01 0.  1.
         -5    1    3    3    0  502 -0.15983485149E+02 -0.56300588726E+02 -0.95379357576E+02  0.11198179468E+03  0.41800000000E+01 0.  1.
        -11    1    1    2    0    0 -0.15400089190E+02  0.25426583206E+02 -0.86716074188E+02  0.91669795479E+02  0.00000000000E+00 0.  1.
         11    1    1    2    0    0  0.70107018221E+02 -0.30066873507E+02 -0.15041835994E+03  0.16865554807E+03  0.00000000000E+00 0. -1.
</event>
<event>
 7    1  0.2440960E-009  0.1059371E+03  0.7561462E-02  0.1268284E+00
         -1   -1    0    0    0  501 -0.00000000000E+00  0.00000000000E+00  0.21275470671E+03  0.21275470671E+03  0.00000000000E+00 0.  1.
          1   -1    0    0  501    0  0.00000000000E+00 -0.00000000000E+00 -0.83187786071E+02  0.83187786071E+02  0.00000000000E+00 0. -1.
         25    2    1    2    0    0 -0.13152675817E+02  0.27172073362E+02  0.13612277945E+03  0.18731876383E+03  0.12509034234E+03 0.  0.
          5    1    3    3  502    0  0.50591078365E+02  0.36090435551E+02  0.50891003022E+02  0.80432228224E+02  0.41800000000E+01 0.  1.
         -5    1    3    3    0  502 -0.63743754182E+02 -0.89183621893E+01  0.85231776427E+02  0.10688653561E+03  0.41800000000E+01 0.  1.
        -11    1    1    2    0    0  0.41261657731E+02  0.59042587227E+01 -0.36894793955E+02  0.55665164069E+02  0.00000000000E+00 0. -1.
         11    1    1    2    0    0 -0.28108981915E+02 -0.33076332085E+02  0.30338935143E+02  0.52958564880E+02  0.00000000000E+00 0.  1.
</event>
<event>
 7    1  0.2440960E-009  0.1704560E+03  0.7561462E-02  0.1177373E+00
         -1   -1    0    0    0  501 -0.00000000000E+00  0.00000000000E+00  0.93417373574E+03  0.93417373574E+03  0.00000000000E+00 0.  1.
          1   -1    0    0  501    0  0.00000000000E+00 -0.00000000000E+00 -0.37211893207E+02  0.37211893207E+02  0.00000000000E+00 0. -1.
         25    2    1    2    0    0  0.13020906464E+03  0.16456244527E+02  0.65607575650E+03  0.68066564343E+03  0.12508041963E+03 0.  0.
          5    1    3    3  502    0 -0.24705892281E+02 -0.81351898086E+00  0.10522416791E+03  0.10816950050E+03  0.41800000000E+01 0.  1.
         -5    1    3    3    0  502  0.15491495692E+03  0.17269763508E+02  0.55085158859E+03  0.57249614293E+03  0.41800000000E+01 0.  1.
        -11    1    1    2    0    0 -0.61442868807E+02 -0.53792353711E+02  0.95837067766E+02  0.12591102812E+03  0.00000000000E+00 0. -1.
         11    1    1    2    0    0 -0.68766195835E+02  0.37336109184E+02  0.14504901827E+03  0.16480895740E+03  0.00000000000E+00 0.  1.
</event>
<event>
 7    1  0.2440960E-009  0.9758010E+02  0.7561462E-02  0.1285469E+00
         -1   -1    0    0    0  501 -0.00000000000E+00  0.00000000000E+00  0.69942701195E+02  0.69942701195E+02  0.00000000000E+00 0.  1.
          1   -1    0    0  501    0  0.00000000000E+00 -0.00000000000E+00 -0.29077792922E+03  0.29077792922E+03  0.00000000000E+00 0. -1.
         25    2    1    2    0    0  0.86999572841E+00  0.78712806590E+02 -0.18245130351E+03  0.23480219459E+03  0.12508848715E+03 0.  0.
          5    1    3    3  502    0 -0.23981189282E+01  0.73042220153E+02 -0.20141797911E+03  0.21430723649E+03  0.41800000000E+01 0. -1.
         -5    1    3    3    0  502  0.32681146566E+01  0.56705864369E+01  0.18966675609E+02  0.20494958102E+02  0.41800000000E+01 0. -1.
        -11    1    1    2    0    0 -0.29636258385E+02  0.78952737021E+00 -0.27924705078E+02  0.40727390271E+02  0.00000000000E+00 0. -1.
         11    1    1    2    0    0  0.28766262657E+02 -0.79502333960E+02 -0.10459219444E+02  0.85191045561E+02  0.00000000000E+00 0.  1.
</event>
<event>
 7    1  0.2440960E-009  0.7397922E+02  0.7561462E-02  0.1347061E+00
         -4   -1    0    0    0  501 -0.00000000000E+00  0.00000000000E+00  0.23205269301E+03  0.23205269301E+03  0.00000000000E+00 0.  1.
          4   -1    0    0  501    0  0.00000000000E+00 -0.00000000000E+00 -0.52200049972E+02  0.52200049972E+02  0.00000000000E+00 0. -1.
         25    2    1    2    0    0  0.26331814094E+01 -0.30567597447E+02  0.83939471928E+02  0.15372542251E+03  0.12507741171E+03 0.  0.
          5    1    3    3  502    0 -0.44635279495E+02 -0.17370191982E+02 -0.86503766099E+01  0.48850109115E+02  0.41800000000E+01 0.  1.
         -5    1    3    3    0  502  0.47268460904E+02 -0.13197405466E+02  0.92589848537E+02  0.10487531339E+03  0.41800000000E+01 0.  1.
        -11    1    1    2    0    0 -0.20968159112E+02  0.10521335747E+02  0.10030155598E+03  0.10300856437E+03  0.00000000000E+00 0.  1.
         11    1    1    2    0    0  0.18334977702E+02  0.20046261700E+02 -0.43883848691E+01  0.27518756099E+02  0.00000000000E+00 0. -1.
</event>
<event>
 7    1  0.2440960E-009  0.1094395E+03  0.7561462E-02  0.1261611E+00
         -4   -1    0    0    0  501 -0.00000000000E+00  0.00000000000E+00  0.91903891010E+03  0.91903891010E+03  0.00000000000E+00 0.  1.
          4   -1    0    0  501    0  0.00000000000E+00 -0.00000000000E+00 -0.13422471033E+02  0.13422471033E+02  0.00000000000E+00 0. -1.
         25    2    1    2    0    0  0.16117920821E+02  0.55374296684E+01  0.57482623478E+03  0.58852571031E+03  0.12508741342E+03 0.  0.
          5    1    3    3  502    0 -0.10834503380E+02  0.62217120394E+02  0.27995679300E+03  0.28702201114E+03  0.41800000000E+01 0. -1.
         -5    1    3    3    0  502  0.26952424201E+02 -0.56679690726E+02  0.29486944178E+03  0.30150369916E+03  0.41800000000E+01 0. -1.
        -11    1    1    2    0    0  0.30582005322E+02  0.22724611442E+02  0.16691872859E+03  0.17121194166E+03  0.00000000000E+00 0.  1.
         11    1    1    2    0    0 -0.46699926143E+02 -0.28262041111E+02  0.16387147569E+03  0.17272372916E+03  0.00000000000E+00 0. -1.
</event>
<event>
 7    1  0.2440960E-009  0.8278297E+02  0.7561462E-02  0.1321334E+00
         -2   -1    0    0    0  501 -0.00000000000E+00  0.00000000000E+00  0.17073461110E+03  0.17073461110E+03  0.00000000000E+00 0.  1.
          2   -1    0    0  501    0  0.00000000000E+00 -0.00000000000E+00 -0.80084156328E+02  0.80084156328E+02  0.00000000000E+00 0. -1.
         25    2    1    2    0    0 -0.24186831799E+02 -0.24147802356E+02  0.78720955812E+02  0.15168948271E+03  0.12507833981E+03 0.  0.
          5    1    3    3  502    0  0.20746195640E+02 -0.31049553842E+02  0.95832609633E+02  0.10293610104E+03  0.41800000000E+01 0. -1.
         -5    1    3    3    0  502 -0.44933027439E+02  0.69017514861E+01 -0.17111653821E+02  0.48753381677E+02  0.41800000000E+01 0. -1.
        -11    1    1    2    0    0  0.19506094438E+02  0.51249078119E+02  0.33427837756E+02  0.64221305385E+02  0.00000000000E+00 0.  1.
         11    1    1    2    0    0  0.46807373607E+01 -0.27101275763E+02 -0.21498338793E+02  0.34907979333E+02  0.00000000000E+00 0. -1.
</event>
<event>
 7    1  0.2440960E-009  0.9934216E+02  0.7561462E-02  0.1281685E+00
         -1   -1    0    0    0  501 -0.00000000000E+00  0.00000000000E+00  0.10874109852E+03  0.10874109852E+03  0.00000000000E+00 0.  1.
          1   -1    0    0  501    0  0.00000000000E+00 -0.00000000000E+00 -0.17671936945E+03  0.17671936945E+03  0.00000000000E+00 0. -1.
         25    2    1    2    0    0  0.11857062663E+02 -0.25005854968E+02 -0.12578476984E+03  0.17954361219E+03  0.12509283607E+03 0.  0.
          5    1    3    3  502    0  0.58610339553E+02 -0.33887364921E+02 -0.33556952752E+02  0.75677386859E+02  0.41800000000E+01 0. -1.
         -5    1    3    3    0  502 -0.46753276890E+02  0.88815099538E+01 -0.92227817089E+02  0.10386622533E+03  0.41800000000E+01 0. -1.
        -11    1    1    2    0    0  0.25080552284E+02  0.36597973108E+02  0.49214602182E+02  0.66261020264E+02  0.00000000000E+00 0.  1.
         11    1    1    2    0    0 -0.36937614947E+02 -0.11592118140E+02  0.85918967358E+01  0.39655835516E+02  0.00000000000E+00 0. -1.
</event>
<event>
 7    1  0.2440960E-009  0.1128327E+03  0.7561462E-02  0.1255412E+00
          2   -1    0    0  501    0  0.00000000000E+00  0.00000000000E+00  0.11137164387E+03  0.11137164387E+03  0.00000000000E+00 0. -1.
         -2   -1    0    0    0  501 -0.00000000000E+00 -0.00000000000E+00 -0.21324666738E+03  0.21324666738E+03  0.00000000000E+00 0.  1.
         25    2    1    2    0    0 -0.42519804609E+02 -0.16105683354E+02  0.49514879509E+02  0.14201054521E+03  0.12509174569E+03 0.  0.
          5    1    3    3  502    0 -0.58710923384E+02 -0.60560803612E+02  0.22620132036E+02  0.87428406322E+02  0.41800000000E+01 0.  1.
         -5    1    3    3    0  502  0.16191118775E+02  0.44455120258E+02  0.26894747473E+02  0.54582138891E+02  0.41800000000E+01 0.  1.
        -11    1    1    2    0    0  0.11076467156E+02 -0.33334102600E+02 -0.24448859629E+02  0.42797164135E+02  0.00000000000E+00 0. -1.
         11    1    1    2    0    0  0.31443337453E+02  0.49439785955E+02 -0.12694104339E+03  0.13981060190E+03  0.00000000000E+00 0.  1.
</event>
<event>
 7    1  0.2440960E-009  0.1448867E+03  0.7561462E-02  0.1206901E+00
          2   -1    0    0  501    0  0.00000000000E+00  0.00000000000E+00  0.10035037950E+03  0.10035037950E+03  0.00000000000E+00 0. -1.
         -2   -1    0    0    0  501 -0.00000000000E+00 -0.00000000000E+00 -0.22939198324E+03  0.22939198324E+03  0.00000000000E+00 0.  1.
         25    2    1    2    0    0 -0.10407402082E+03 -0.10360574631E+02 -0.56521093549E+02  0.17257080351E+03  0.12508918775E+03 0.  0.
          5    1    3    3  502    0 -0.11645336253E+03 -0.45830710078E+02 -0.44919395152E+02  0.13303031268E+03  0.41800000000E+01 0.  1.
         -5    1    3    3    0  502  0.12379341708E+02  0.35470135447E+02 -0.11601698397E+02  0.39540490835E+02  0.41800000000E+01 0.  1.
        -11    1    1    2    0    0  0.35046968446E+02  0.38635104370E+02 -0.63279832112E+02  0.82007916929E+02  0.00000000000E+00 0.  1.
         11    1    1    2    0    0  0.69027052372E+02 -0.28274529739E+02 -0.92406780785E+01  0.75163642291E+02  0.00000000000E+00 0. -1.
</event>
<event>
 7    1  0.2440960E-009  0.1377688E+03  0.7561462E-02  0.1216363E+00
         -1   -1    0    0    0  501 -0.00000000000E+00  0.00000000000E+00  0.72050356614E+02  0.72050356614E+02  0.00000000000E+00 0.  1.
          1   -1    0    0  501    0  0.00000000000E+00 -0.00000000000E+00 -0.69819029456E+03  0.69819029456E+03  0.00000000000E+00 0. -1.
         25    2    1    2    0    0 -0.62384931163E+02 -0.98947858698E+02 -0.59461649825E+03  0.61878830450E+03  0.12509047691E+03 0.  0.
          5    1    3    3  502    0  0.98571461269E+01 -0.65442480221E+02 -0.11635850393E+03  0.13392779914E+03  0.41800000000E+01 0. -1.
         -5    1    3    3    0  502 -0.72242077290E+02 -0.33505378477E+02 -0.47825799433E+03  0.48486050536E+03  0.41800000000E+01 0. -1.
        -11    1    1    2    0    0 -0.82987635258E+01  0.28511342481E+02  0.23165239190E+02  0.37661577674E+02  0.00000000000E+00 0.  1.
         11    1    1    2    0    0  0.70683694689E+02  0.70436516217E+02 -0.54688678884E+02  0.11379076900E+03  0.00000000000E+00 0. -1.
</event>
<event>
 7    1  0.2726611E-009  0.2294812E+03  0.7561462E-02  0.1127005E+00
          1   -1    0    0  501    0  0.00000000000E+00  0.00000000000E+00  0.10688770208E+04  0.10688770208E+04  0.00000000000E+00 0. -1.
         -1   -1    0    0    0  501 -0.00000000000E+00 -0.00000000000E+00 -0.64948251214E+02  0.64948251214E+02  0.00000000000E+00 0.  1.
         25    2    1    2    0    0 -0.66062231786E+02  0.20063631259E+03  0.27086615568E+03  0.36556244134E+03  0.12509306868E+03 0.  0.
          5    1    3    3  502    0  0.25047320379E+02  0.21638293634E+02  0.87198911339E+02  0.93363304078E+02  0.41800000000E+01 0.  1.
         -5    1    3    3    0  502 -0.91109552165E+02  0.17899801895E+03  0.18366724434E+03  0.27219913727E+03  0.41800000000E+01 0.  1.
        -11    1    1    2    0    0  0.77944783385E+02 -0.11930189704E+03  0.53876546559E+03  0.55729396085E+03  0.00000000000E+00 0. -1.
         11    1    1    2    0    0 -0.11882551600E+02 -0.81334415551E+02  0.19429714827E+03  0.21096886977E+03  0.00000000000E+00 0.  1.
</event>
<event>
 7    1  0.2440960E-009  0.1218104E+03  0.7561462E-02  0.1240140E+00
         -1   -1    0    0    0  501 -0.00000000000E+00  0.00000000000E+00  0.12656553598E+03  0.12656553598E+03  0.00000000000E+00 0.  1.
          1   -1    0    0  501    0  0.00000000000E+00 -0.00000000000E+00 -0.12241682084E+03  0.12241682084E+03  0.00000000000E+00 0. -1.
         25    2    1    2    0    0  0.27819058587E+02  0.53339681140E+02 -0.47619424427E+01  0.13888578563E+03  0.12509022243E+03 0.  0.
          5    1    3    3  502    0 -0.32915280852E+02  0.65922664215E+02  0.11344107048E+02  0.74668430648E+02  0.41800000000E+01 0.  1.
         -5    1    3    3    0  502  0.60734339439E+02 -0.12582983075E+02 -0.16106049491E+02  0.64217354978E+02  0.41800000000E+01 0.  1.
        -11    1    1    2    0    0  0.10377360992E+02  0.21364562615E+02  0.10983429951E+02  0.26168108269E+02  0.00000000000E+00 0.  1.
         11    1    1    2    0    0 -0.38196419579E+02 -0.74704243755E+02 -0.20727723722E+01  0.83928462925E+02  0.00000000000E+00 0. -1.
</event>
<event>
 7    1  0.2658453E-009  0.1411013E+03  0.7561462E-02  0.1211855E+00
         -3   -1    0    0    0  501 -0.00000000000E+00  0.00000000000E+00  0.47492834838E+03  0.47492834838E+03  0.00000000000E+00 0.  1.
          3   -1    0    0  501    0  0.00000000000E+00 -0.00000000000E+00 -0.55182271604E+02  0.55182271604E+02  0.00000000000E+00 0. -1.
         25    2    1    2    0    0 -0.11718380800E+03  0.35035100514E+01  0.26281675740E+03  0.31379318683E+03  0.12509674933E+03 0.  0.
          5    1    3    3  502    0 -0.46153173652E+02 -0.55631316140E+02  0.15914450252E+03  0.17484108171E+03  0.41800000000E+01 0. -1.
         -5    1    3    3    0  502 -0.71030634343E+02  0.59134826192E+02  0.10367225488E+03  0.13895210512E+03  0.41800000000E+01 0. -1.
        -11    1    1    2    0    0  0.57754381685E+02 -0.13973527264E+00  0.14435429295E+03  0.15547909835E+03  0.00000000000E+00 0.  1.
         11    1    1    2    0    0  0.59429426310E+02 -0.33637747788E+01  0.12575026426E+02  0.60838334805E+02  0.00000000000E+00 0. -1.
</event>
<event>
 7    1  0.2440960E-009  0.9535806E+02  0.7561462E-02  0.1290372E+00
          1   -1    0    0  501    0  0.00000000000E+00  0.00000000000E+00  0.98358093808E+02  0.98358093808E+02  0.00000000000E+00 0. -1.
         -1   -1    0    0    0  501 -0.00000000000E+00 -0.00000000000E+00 -0.18187726695E+03  0.18187726695E+03  0.00000000000E+00 0.  1.
         25    2    1    2    0    0 -0.80256484074E+01 -0.19088535874E+02 -0.84797141697E+02  0.15253377298E+03  0.12508882214E+03 0.  0.
          5    1    3    3  502    0 -0.15417032856E+02  0.18535785084E+02 -0.10581570255E+03  0.10860799021E+03  0.41800000000E+01 0.  1.
         -5    1    3    3    0  502  0.73913844490E+01 -0.37624320958E+02  0.21018560855E+02  0.43925782771E+02  0.41800000000E+01 0.  1.
        -11    1    1    2    0    0  0.31781573323E+02  0.67023991292E+02  0.18215668663E+01  0.74199743378E+02  0.00000000000E+00 0. -1.
         11    1    1    2    0    0 -0.23755924915E+02 -0.47935455418E+02 -0.54359830756E+00  0.53501844396E+02  0.00000000000E+00 0.  1.
</event>
<event>
 7    1  0.2440960E-009  0.1860561E+03  0.7561462E-02  0.1162067E+00
          2   -1    0    0  501    0  0.00000000000E+00  0.00000000000E+00  0.15180344728E+03  0.15180344728E+03  0.00000000000E+00 0. -1.
         -2   -1    0    0    0  501 -0.00000000000E+00 -0.00000000000E+00 -0.25878732814E+03  0.25878732814E+03  0.00000000000E+00 0.  1.
         25    2    1    2    0    0 -0.13568736200E+03 -0.88222794150E+02 -0.20291512084E+02  0.20555298143E+03  0.12508381629E+03 0.  0.
          5    1    3    3  502    0 -0.17395485526E+01  0.26983892853E+02 -0.74702318880E+01  0.28362532806E+02  0.41800000000E+01 0. -1.
         -5    1    3    3    0  502 -0.13394781345E+03 -0.11520668700E+03 -0.12821280196E+02  0.17719044862E+03  0.41800000000E+01 0. -1.
        -11    1    1    2    0    0  0.37972147188E+02  0.50722108278E+02  0.80392128815E+01  0.63868968788E+02  0.00000000000E+00 0.  1.
         11    1    1    2    0    0  0.97715214810E+02  0.37500685872E+02 -0.94731581653E+02  0.14116882520E+03  0.00000000000E+00 0. -1.
</event>
<event>
 7    1  0.2440960E-009  0.1406417E+03  0.7561462E-02  0.1212468E+00
         -1   -1    0    0    0  501 -0.00000000000E+00  0.00000000000E+00  0.41173596061E+02  0.41173596061E+02  0.00000000000E+00 0.  1.
          1   -1    0    0  501    0  0.00000000000E+00 -0.00000000000E+00 -0.67288832110E+03  0.67288832110E+03  0.00000000000E+00 0. -1.
         25    2    1    2    0    0 -0.11028426282E+03 -0.58286842835E+02 -0.30908997565E+03  0.35601071867E+03  0.12508814528E+03 0.  0.
          5    1    3    3  502    0 -0.82848734712E+02 -0.52341369635E+02 -0.31239986092E+03  0.32743652411E+03  0.41800000000E+01 0.  1.
         -5    1    3    3    0  502 -0.27435528106E+02 -0.59454732006E+01  0.33098852770E+01  0.28574194557E+02  0.41800000000E+01 0.  1.
        -11    1    1    2    0    0 -0.82637079727E+01 -0.13789012502E+02 -0.25724667184E+02  0.30334538680E+02  0.00000000000E+00 0.  1.
         11    1    1    2    0    0  0.11854797079E+03  0.72075855337E+02 -0.29690008221E+03  0.32771665981E+03  0.00000000000E+00 0. -1.
</event>
<event>
 7    1  0.2440960E-009  0.1049023E+03  0.7561462E-02  0.1270312E+00
         -2   -1    0    0    0  501 -0.00000000000E+00  0.00000000000E+00  0.65035976548E+02  0.65035976548E+02  0.00000000000E+00 0.  1.
          2   -1    0    0  501    0  0.00000000000E+00 -0.00000000000E+00 -0.19634016606E+03  0.19634016606E+03  0.00000000000E+00 0. -1.
         25    2    1    2    0    0 -0.11327558016E+01 -0.23129526338E+02 -0.45698531040E+02  0.13519021429E+03  0.12510707484E+03 0.  0.
          5    1    3    3  502    0  0.34747441302E+01  0.50521094657E+02 -0.31912090956E+02  0.60002573290E+02  0.41800000000E+01 0. -1.
         -5    1    3    3    0  502 -0.46074999318E+01 -0.73650620996E+02 -0.13786440084E+02  0.75187640998E+02  0.41800000000E+01 0. -1.
        -11    1    1    2    0    0  0.32075502641E+02  0.38843212640E+02 -0.24741250997E+02  0.56122745289E+02  0.00000000000E+00 0.  1.
         11    1    1    2    0    0 -0.30942746840E+02 -0.15713686302E+02 -0.60864407473E+02  0.70063183029E+02  0.00000000000E+00 0. -1.
</event>
<event>
 7    1  0.2440960E-009  0.1655925E+03  0.7561462E-02  0.1182524E+00
         -2   -1    0    0    0  501 -0.00000000000E+00  0.00000000000E+00  0.42590479112E+02  0.42590479112E+02  0.00000000000E+00 0.  1.
          2   -1    0    0  501    0  0.00000000000E+00 -0.00000000000E+00 -0.80376697462E+03  0.80376697462E+03  0.00000000000E+00 0. -1.
         25    2    1    2    0    0  0.10252576493E+03 -0.91440656926E+02 -0.53125557368E+03  0.56280720353E+03  0.12508612060E+03 0.  0.
          5    1    3    3  502    0  0.54897307522E+02  0.10190203558E+02 -0.30625765913E+03  0.31133387351E+03  0.41800000000E+01 0. -1.
         -5    1    3    3    0  502  0.47628457410E+02 -0.10163086048E+03 -0.22499791455E+03  0.25147333002E+03  0.41800000000E+01 0. -1.
        -11    1    1    2    0    0 -0.63570293755E+02  0.10405011371E+03 -0.14635692522E+03  0.19049398409E+03  0.00000000000E+00 0.  1.
         11    1    1    2    0    0 -0.38955471177E+02 -0.12609456786E+02 -0.83563996596E+02  0.93056266109E+02  0.00000000000E+00 0. -1.
</event>
<event>
 7    1  0.2440960E-009  0.7152516E+02  0.7561462E-02  0.1354982E+00
          2   -1    0    0  501    0  0.00000000000E+00  0.00000000000E+00  0.64027821773E+03  0.64027821773E+03  0.00000000000E+00 0. -1.
         -2   -1    0    0    0  501 -0.00000000000E+00 -0.00000000000E+00 -0.16902831572E+02  0.16902831572E+02  0.00000000000E+00 0.  1.
         25    2    1    2    0    0 -0.14576435554E+02 -0.14858077638E+02  0.43210245592E+03  0.45032587478E+03  0.12509047179E+03 0.  0.
          5    1    3    3  502    0  0.30366976698E+02  0.25155133946E+01  0.23078147036E+02  0.38451974618E+02  0.41800000000E+01 0.  1.
         -5    1    3    3    0  502 -0.44943412252E+02 -0.17373591032E+02  0.40902430889E+03  0.41187390016E+03  0.41800000000E+01 0.  1.
        -11    1    1    2    0    0 -0.23790336570E+02  0.48857080362E+01  0.21246321187E+02  0.32268505096E+02  0.00000000000E+00 0.  1.
         11    1    1    2    0    0  0.38366772124E+02  0.99723696016E+01  0.17002660905E+03  0.17458666943E+03  0.00000000000E+00 0. -1.
</event>
<event>
 7    1  0.2440960E-009  0.2088763E+03  0.7561462E-02  0.1142459E+00
          3   -1    0    0  501    0  0.00000000000E+00  0.00000000000E+00  0.61834521949E+02  0.61834521949E+02  0.00000000000E+00 0. -1.
         -3   -1    0    0    0  501 -0.00000000000E+00 -0.00000000000E+00 -0.89490728598E+03  0.89490728598E+03  0.00000000000E+00 0.  1.
         25    2    1    2    0    0  0.18055695821E+03 -0.36600277488E+02 -0.23189657957E+03  0.32150242406E+03  0.12508952631E+03 0.  0.
          5    1    3    3  502    0  0.47198464954E+00 -0.36759938374E+02 -0.15956394022E+02  0.40293854978E+02  0.41800000000E+01 0.  1.
         -5    1    3    3    0  502  0.18008497356E+03  0.15966088661E+00 -0.21594018555E+03  0.28120856909E+03  0.41800000000E+01 0.  1.
        -11    1    1    2    0    0 -0.36823418005E+02  0.43162607758E+02 -0.11524351073E+03  0.12845248767E+03  0.00000000000E+00 0.  1.
         11    1    1    2    0    0 -0.14373354021E+03 -0.65623302703E+01 -0.48593267374E+03  0.50678689620E+03  0.00000000000E+00 0. -1.
</event>
<event>
 7    1  0.2440960E-009  0.1558428E+03  0.7561462E-02  0.1193472E+00
         -2   -1    0    0    0  501 -0.00000000000E+00  0.00000000000E+00  0.12698545973E+03  0.12698545973E+03  0.00000000000E+00 0.  1.
          2   -1    0    0  501    0  0.00000000000E+00 -0.00000000000E+00 -0.33426491699E+03  0.33426491699E+03  0.00000000000E+00 0. -1.
         25    2    1    2    0    0 -0.12259064324E+03 -0.32333263709E+02 -0.23991290752E+03  0.29879755120E+03  0.12509143718E+03 0.  0.
          5    1    3    3  502    0 -0.13035255524E+03 -0.51045331953E+01 -0.23630009593E+03  0.26995009289E+03  0.41800000000E+01 0. -1.
         -5    1    3    3    0  502  0.77619119990E+01 -0.27228730514E+02 -0.36128115916E+01  0.28847458309E+02  0.41800000000E+01 0. -1.
        -11    1    1    2    0    0  0.84190638130E+02  0.61553649383E+02  0.16465395182E+00  0.10429258081E+03  0.00000000000E+00 0. -1.
         11    1    1    2    0    0  0.38400005109E+02 -0.29220385674E+02  0.32468796300E+02  0.58160244709E+02  0.00000000000E+00 0.  1.
</event>
<event>
 7    1  0.2440960E-009  0.1169629E+03  0.7561462E-02  0.1248193E+00
          1   -1    0    0  501    0  0.00000000000E+00  0.00000000000E+00  0.24776121601E+02  0.24776121601E+02  0.00000000000E+00 0. -1.
         -1   -1    0    0    0  501 -0.00000000000E+00 -0.00000000000E+00 -0.68310959079E+03  0.68310959079E+03  0.00000000000E+00 0.  1.
         25    2    1    2    0    0 -0.46613694321E+02  0.54826215134E+02 -0.45427720560E+03  0.47665104170E+03  0.12509870368E+03 0.  0.
          5    1    3    3  502    0 -0.76284996181E+02  0.40636510250E+01 -0.17144187421E+03  0.18773838855E+03  0.41800000000E+01 0. -1.
         -5    1    3    3    0  502  0.29671301861E+02  0.50762564109E+02 -0.28283533139E+03  0.28891265315E+03  0.41800000000E+01 0. -1.
        -11    1    1    2    0    0  0.11237438320E+02 -0.61460070787E+02 -0.17214500913E+03  0.18313253258E+03  0.00000000000E+00 0.  1.
         11    1    1    2    0    0  0.35376256000E+02  0.66338556527E+01 -0.31911254457E+02  0.48102138106E+02  0.00000000000E+00 0. -1.
</event>
<event>
 7    1  0.2440960E-009  0.8616497E+02  0.7561462E-02  0.1312414E+00
         -1   -1    0    0    0  501 -0.00000000000E+00  0.00000000000E+00  0.43514892457E+02  0.43514892457E+02  0.00000000000E+00 0.  1.
          1   -1    0    0  501    0  0.00000000000E+00 -0.00000000000E+00 -0.33133498326E+03  0.33133498326E+03  0.00000000000E+00 0. -1.
         25    2    1    2    0    0 -0.45136811789E+02  0.12356147901E+02 -0.12869368888E+03  0.18547118308E+03  0.12508991977E+03 0.  0.
          5    1    3    3  502    0 -0.31120352506E+02 -0.30029011043E+02  0.56770838584E+01  0.43816886305E+02  0.41800000000E+01 0. -1.
         -5    1    3    3    0  502 -0.14016459283E+02  0.42385158944E+02 -0.13437077274E+03  0.14165429678E+03  0.41800000000E+01 0. -1.
        -11    1    1    2    0    0  0.56969143889E+02  0.10852557231E+02 -0.15152124959E+03  0.16224040936E+03  0.00000000000E+00 0. -1.
         11    1    1    2    0    0 -0.11832332100E+02 -0.23208705132E+02 -0.76051523361E+01  0.27138283271E+02  0.00000000000E+00 0.  1.
</event>
<event>
 7    1  0.2440960E-009  0.1629322E+03  0.7561462E-02  0.1185426E+00
          2   -1    0    0  501    0  0.00000000000E+00  0.00000000000E+00  0.15547492911E+03  0.15547492911E+03  0.00000000000E+00 0. -1.
         -2   -1    0    0    0  501 -0.00000000000E+00 -0.00000000000E+00 -0.22581581777E+03  0.22581581777E+03  0.00000000000E+00 0.  1.
         25    2    1    2    0    0 -0.65876800046E+02  0.11250294665E+03  0.40945995114E+02  0.18525863546E+03  0.12509005439E+03 0.  0.
          5    1    3    3  502    0 -0.12199646112E+01  0.99503896869E+02 -0.12350317280E+02  0.10036192775E+03  0.41800000000E+01 0. -1.
         -5    1    3    3    0  502 -0.64656835435E+02  0.12999049778E+02  0.53296312394E+02  0.84896707701E+02  0.41800000000E+01 0. -1.
        -11    1    1    2    0    0  0.42504048750E+01  0.16594411232E+02 -0.50908699936E+01  0.17870573103E+02  0.00000000000E+00 0.  1.
         11    1    1    2    0    0  0.61626395171E+02 -0.12909735788E+03 -0.10619601378E+03  0.17816153832E+03  0.00000000000E+00 0. -1.
</event>
<event>
 7    1  0.2837321E-009  0.1222806E+03  0.7561462E-02  0.1239382E+00
         -4   -1    0    0    0  501 -0.00000000000E+00  0.00000000000E+00  0.68962550954E+02  0.68962550954E+02  0.00000000000E+00 0.  1.
          4   -1    0    0  501    0  0.00000000000E+00 -0.00000000000E+00 -0.29259655807E+03  0.29259655807E+03  0.00000000000E+00 0. -1.
         25    2    1    2    0    0 -0.75890787820E+02  0.50108165579E+02 -0.13130018435E+03  0.20286623848E+03  0.12507890459E+03 0.  0.
          5    1    3    3  502    0 -0.57258722988E+02  0.70149175589E+02 -0.26455763277E+02  0.94429063347E+02  0.41800000000E+01 0. -1.
         -5    1    3    3    0  502 -0.18632064832E+02 -0.20041010010E+02 -0.10484442107E+03  0.10843717514E+03  0.41800000000E+01 0. -1.
        -11    1    1    2    0    0  0.57839116914E+02  0.14101545627E+02 -0.27151519872E+02  0.65432576487E+02  0.00000000000E+00 0. -1.
         11    1    1    2    0    0  0.18051670907E+02 -0.64209711206E+02 -0.65182302891E+02  0.93260294048E+02  0.00000000000E+00 0.  1.
</event>
<event>
 7    1  0.2440960E-009  0.1160209E+03  0.7561462E-02  0.1249810E+00
          2   -1    0    0  501    0  0.00000000000E+00  0.00000000000E+00  0.69345301552E+02  0.69345301552E+02  0.00000000000E+00 0. -1.
         -2   -1    0    0    0  501 -0.00000000000E+00 -0.00000000000E+00 -0.28271005717E+03  0.28271005717E+03  0.00000000000E+00 0.  1.
         25    2    1    2    0    0 -0.11002764451E+02 -0.67761182008E+02 -0.18496596431E+03  0.23360784160E+03  0.12509027577E+03 0.  0.
          5    1    3    3  502    0 -0.17859193116E+02  0.33148475629E+02 -0.75740670762E+02  0.84687034561E+02  0.41800000000E+01 0. -1.
         -5    1    3    3    0  502  0.68564286650E+01 -0.10090965764E+03 -0.10922529355E+03  0.14892080704E+03  0.41800000000E+01 0. -1.
        -11    1    1    2    0    0  0.36905795688E+02  0.32503703152E+02  0.20103456687E+02  0.53128875809E+02  0.00000000000E+00 0. -1.
         11    1    1    2    0    0 -0.25903031237E+02  0.35257478856E+02 -0.48502247997E+02  0.65318641315E+02  0.00000000000E+00 0.  1.
</event>
<event>
 7    1  0.2440960E-009  0.1572459E+03  0.7561462E-02  0.1191842E+00
         -2   -1    0    0    0  501 -0.00000000000E+00  0.00000000000E+00  0.16027157950E+03  0.16027157950E+03  0.00000000000E+00 0.  1.
          2   -1    0    0  501    0  0.00000000000E+00 -0.00000000000E+00 -0.16661540545E+03  0.16661540545E+03  0.00000000000E+00 0. -1.
         25    2    1    2    0    0  0.12033181256E+03  0.34610468439E+01 -0.33018186392E+02  0.17672259059E+03  0.12509576105E+03 0.  0.
          5    1    3    3  502    0 -0.99921505178E+01 -0.35782863560E+02 -0.89618909010E+01  0.38445341526E+02  0.41800000000E+01 0.  1.
         -5    1    3    3    0  502  0.13032396308E+03  0.39243910404E+02 -0.24056295491E+02  0.13827724906E+03  0.41800000000E+01 0.  1.
        -11    1    1    2    0    0 -0.58567036633E+02  0.34949900130E+02  0.35513764447E+02  0.76894868257E+02  0.00000000000E+00 0.  1.
         11    1    1    2    0    0 -0.61764775924E+02 -0.38410946973E+02 -0.88394040129E+01  0.73269526105E+02  0.00000000000E+00 0. -1.
</event>
<event>
 7    1  0.2440960E-009  0.8172343E+02  0.7561462E-02  0.1324231E+00
         -2   -1    0    0    0  501 -0.00000000000E+00  0.00000000000E+00  0.28038391107E+02  0.28038391107E+02  0.00000000000E+00 0.  1.
          2   -1    0    0  501    0  0.00000000000E+00 -0.00000000000E+00 -0.52860306244E+03  0.52860306244E+03  0.00000000000E+00 0. -1.
         25    2    1    2    0    0  0.40525538277E+02  0.38957427982E+02 -0.28849570841E+03  0.31943162141E+03  0.12508711578E+03 0.  0.
          5    1    3    3  502    0  0.14136578131E+02  0.35541311248E+02 -0.28991652979E+03  0.29245870528E+03  0.41800000000E+01 0.  1.
         -5    1    3    3    0  502  0.26388960145E+02  0.34161167344E+01  0.14208213770E+01  0.26972916129E+02  0.41800000000E+01 0.  1.
        -11    1    1    2    0    0 -0.57521535442E+01 -0.58070158767E+02 -0.78129752038E+02  0.97516607627E+02  0.00000000000E+00 0.  1.
         11    1    1    2    0    0 -0.34773384732E+02  0.19112730784E+02 -0.13393921088E+03  0.13969322451E+03  0.00000000000E+00 0. -1.
</event>
<event>
 7    1  0.2440960E-009  0.1036579E+03  0.7561462E-02  0.1272787E+00
          1   -1    0    0  501    0  0.00000000000E+00  0.00000000000E+00  0.30315708994E+02  0.30315708994E+02  0.00000000000E+00 0. -1.
         -1   -1    0    0    0  501 -0.00000000000E+00 -0.00000000000E+00 -0.40681104610E+03  0.40681104610E+03  0.00000000000E+00 0.  1.
         25    2    1    2    0    0  0.27119066431E+02 -0.61267512322E+02 -0.21142723389E+03  0.25463495388E+03  0.12509329590E+03 0.  0.
          5    1    3    3  502    0  0.72331528244E+02 -0.39104349228E+02 -0.17149620167E+03  0.19023516945E+03  0.41800000000E+01 0. -1.
         -5    1    3    3    0  502 -0.45212461813E+02 -0.22163163094E+02 -0.39931032220E+02  0.64399784438E+02  0.41800000000E+01 0. -1.
        -11    1    1    2    0    0 -0.65405543000E+01  0.51079044935E+02 -0.13616587296E+03  0.14557813243E+03  0.00000000000E+00 0.  1.
         11    1    1    2    0    0 -0.20578512131E+02  0.10188467387E+02 -0.28902230255E+02  0.36913668782E+02  0.00000000000E+00 0. -1.
</event>
<event>
 7    1  0.2440960E-009  0.1055547E+03  0.7561462E-02  0.1269031E+00
         -2   -1    0    0    0  501 -0.00000000000E+00  0.00000000000E+00  0.51205799401E+02  0.51205799401E+02  0.00000000000E+00 0.  1.
          2   -1    0    0  501    0  0.00000000000E+00 -0.00000000000E+00 -0.27210301309E+03  0.27210301309E+03  0.00000000000E+00 0. -1.
         25    2    1    2    0    0  0.27289494968E+02  0.14960152463E+02 -0.17734469548E+03  0.21924227335E+03  0.12509001044E+03 0.  0.
          5    1    3    3  502    0  0.40299496473E+02 -0.48476674240E+02 -0.99941282897E+02  0.11823607651E+03  0.41800000000E+01 0. -1.
         -5    1    3    3    0  502 -0.13010001505E+02  0.63436826702E+02 -0.77403412584E+02  0.10100619684E+03  0.41800000000E+01 0. -1.
        -11    1    1    2    0    0 -0.19743656260E+02 -0.46548186176E+02 -0.49828469501E+02  0.70988886254E+02  0.00000000000E+00 0. -1.
         11    1    1    2    0    0 -0.75458387080E+01  0.31588033714E+02  0.62759512923E+01  0.33077652884E+02  0.00000000000E+00 0.  1.
</event>
<event>
 7    1  0.2440960E-009  0.2923181E+03  0.7561462E-02  0.1089145E+00
          2   -1    0    0  501    0  0.00000000000E+00  0.00000000000E+00  0.16960867897E+04  0.16960867897E+04  0.00000000000E+00 0.  1.
         -2   -1    0    0    0  501 -0.00000000000E+00 -0.00000000000E+00 -0.60073583251E+02  0.60073583251E+02  0.00000000000E+00 0. -1.
         25    2    1    2    0    0  0.19403839321E+03 -0.21795663561E+03  0.63962926059E+03  0.71409305848E+03  0.12508921665E+03 0.  0.
          5    1    3    3  502    0  0.17670545532E+03 -0.18910932620E+03  0.62624687578E+03  0.67763543076E+03  0.41800000000E+01 0. -1.
         -5    1    3    3    0  502  0.17332937894E+02 -0.28847309407E+02  0.13382384812E+02  0.36457627725E+02  0.41800000000E+01 0. -1.
        -11    1    1    2    0    0 -0.99274356553E+02  0.11580512531E+03  0.67074221759E+03  0.68786724546E+03  0.00000000000E+00 0.  1.
         11    1    1    2    0    0 -0.94764036658E+02  0.10215151030E+03  0.32564172831E+03  0.35420006906E+03  0.00000000000E+00 0. -1.
</event>
<event>
 7    1  0.2440960E-009  0.1027590E+03  0.7561462E-02  0.1274599E+00
         -3   -1    0    0    0  501 -0.00000000000E+00  0.00000000000E+00  0.43428280540E+03  0.43428280540E+03  0.00000000000E+00 0.  1.
          3   -1    0    0  501    0  0.00000000000E+00 -0.00000000000E+00 -0.57839704255E+02  0.57839704255E+02  0.00000000000E+00 0. -1.
         25    2    1    2    0    0 -0.37391398749E+02  0.69412657093E+02  0.33202667764E+03  0.36346333208E+03  0.12509054894E+03 0.  0.
          5    1    3    3  502    0 -0.11051007842E+02  0.57554487184E+02  0.42611229258E+02  0.72579838993E+02  0.41800000000E+01 0.  1.
         -5    1    3    3    0  502 -0.26340390907E+02  0.11858169909E+02  0.28941544838E+03  0.29088349309E+03  0.41800000000E+01 0.  1.
        -11    1    1    2    0    0  0.48921871282E+02 -0.85068321856E+02  0.47413018094E+02  0.10898606864E+03  0.00000000000E+00 0. -1.
         11    1    1    2    0    0 -0.11530472533E+02  0.15655664763E+02 -0.29965945907E+01  0.19673108934E+02  0.00000000000E+00 0.  1.
</event>
<event>
 7    1  0.2440960E-009  0.2312826E+03  0.7561462E-02  0.1125740E+00
          1   -1    0    0  501    0  0.00000000000E+00  0.00000000000E+00  0.44875035301E+03  0.44875035301E+03  0.00000000000E+00 0. -1.
         -1   -1    0    0    0  501 -0.00000000000E+00 -0.00000000000E+00 -0.16670718903E+03  0.16670718903E+03  0.00000000000E+00 0.  1.
         25    2    1    2    0    0  0.12446879760E+03 -0.19183047336E+03  0.25945162137E+03  0.36776709839E+03  0.12508430255E+03 0.  0.
          5    1    3    3  502    0  0.30043937728E+02 -0.81137790788E+02  0.22196215203E+02  0.89421047062E+02  0.41800000000E+01 0.  1.
         -5    1    3    3    0  502  0.94424859870E+02 -0.11069268257E+03  0.23725540617E+03  0.27834605133E+03  0.41800000000E+01 0.  1.
        -11    1    1    2    0    0 -0.70093718278E+02  0.82310185897E+02  0.54852187952E+02  0.12123060079E+03  0.00000000000E+00 0. -1.
         11    1    1    2    0    0 -0.54375079321E+02  0.10952028746E+03 -0.32260645347E+02  0.12645984286E+03  0.00000000000E+00 0.  1.
</event>
<event>
 7    1  0.2440960E-009  0.1195686E+03  0.7561462E-02  0.1243810E+00
         -2   -1    0    0    0  501 -0.00000000000E+00  0.00000000000E+00  0.17089569233E+03  0.17089569233E+03  0.00000000000E+00 0.  1.
          2   -1    0    0  501    0  0.00000000000E+00 -0.00000000000E+00 -0.92644112084E+02  0.92644112084E+02  0.00000000000E+00 0. -1.
         25    2    1    2    0    0 -0.62873457338E+02  0.11382487116E+02  0.26238218522E+02  0.14288987867E+03  0.12508573326E+03 0.  0.
          5    1    3    3  502    0 -0.79534605112E+02 -0.37013826132E+02  0.25790429868E+02  0.91533575304E+02  0.41800000000E+01 0.  1.
         -5    1    3    3    0  502  0.16661147774E+02  0.48396313248E+02  0.44778865421E+00  0.51356303370E+02  0.41800000000E+01 0.  1.
        -11    1    1    2    0    0 -0.17413056437E+02 -0.90797558869E+01 -0.71428456228E+01  0.20896811839E+02  0.00000000000E+00 0. -1.
         11    1    1    2    0    0  0.80286513775E+02 -0.23027312292E+01  0.59156207348E+02  0.99753113902E+02  0.00000000000E+00 0.  1.
</event>
<event>
 7    1  0.2440960E-009  0.6817101E+02  0.7561462E-02  0.1366425E+00
         -2   -1    0    0    0  501 -0.00000000000E+00  0.00000000000E+00  0.46876720014E+02  0.46876720014E+02  0.00000000000E+00 0.  1.
          2   -1    0    0  501    0  0.00000000000E+00 -0.00000000000E+00 -0.27551947853E+03  0.27551947853E+03  0.00000000000E+00 0. -1.
         25    2    1    2    0    0  0.23251483209E+02  0.83580852709E+01 -0.16255578015E+03  0.20659471812E+03  0.12508599776E+03 0.  0.
          5    1    3    3  502    0 -0.10334395479E+02  0.34172675093E+02 -0.15996064193E+03  0.16394953742E+03  0.41800000000E+01 0.  1.
         -5    1    3    3    0  502  0.33585878688E+02 -0.25814589822E+02 -0.25951382176E+01  0.42645180704E+02  0.41800000000E+01 0.  1.
        -11    1    1    2    0    0 -0.16311343187E+02 -0.30521271255E+02  0.10183304018E+02  0.36073641296E+02  0.00000000000E+00 0.  1.
         11    1    1    2    0    0 -0.69401400212E+01  0.22163185984E+02 -0.76270282391E+02  0.79727839131E+02  0.00000000000E+00 0. -1.
</event>
<event>
 7    1  0.2440960E-009  0.9643082E+02  0.7561462E-02  0.1287986E+00
          1   -1    0    0  501    0  0.00000000000E+00  0.00000000000E+00  0.73911307422E+03  0.73911307422E+03  0.00000000000E+00 0. -1.
         -1   -1    0    0    0  501 -0.00000000000E+00 -0.00000000000E+00 -0.19832196921E+02  0.19832196921E+02  0.00000000000E+00 0.  1.
         25    2    1    2    0    0 -0.25976483533E+02 -0.31970988619E+02  0.50017595988E+03  0.51722530759E+03  0.12509638749E+03 0.  0.
          5    1    3    3  502    0  0.38947845138E+02 -0.32861678443E+02  0.34781453456E+03  0.35155262394E+03  0.41800000000E+01 0.  1.
         -5    1    3    3    0  502 -0.64924328670E+02  0.89068982345E+00  0.15236142532E+03  0.16567268365E+03  0.41800000000E+01 0.  1.
        -11    1    1    2    0    0 -0.16200511599E+02  0.30415438350E+02  0.23736539967E+02  0.41844698537E+02  0.00000000000E+00 0. -1.
         11    1    1    2    0    0  0.42176995131E+02  0.15555502693E+01  0.19536837746E+03  0.19987526502E+03  0.00000000000E+00 0.  1.
</event>
<event>
 7    1  0.2440960E-009  0.1524022E+03  0.7561462E-02  0.1197552E+00
          2   -1    0    0  501    0  0.00000000000E+00  0.00000000000E+00  0.72461185058E+03  0.72461185058E+03  0.00000000000E+00 0. -1.
         -2   -1    0    0    0  501 -0.00000000000E+00 -0.00000000000E+00 -0.49501905689E+02  0.49501905689E+02  0.00000000000E+00 0.  1.
         25    2    1    2    0    0  0.95734776673E+02 -0.64520942823E+02  0.56868136036E+03  0.59361114768E+03  0.12509038931E+03 0.  0.
          5    1    3    3  502    0  0.90053425887E+02  0.11869493086E+02  0.25643514594E+03  0.27207896070E+03  0.41800000000E+01 0.  1.
         -5    1    3    3    0  502  0.56813507863E+01 -0.76390435908E+02  0.31224621442E+03  0.32153218698E+03  0.41800000000E+01 0.  1.
        -11    1    1    2    0    0 -0.20385055749E+02 -0.16713470867E+02 -0.71660423336E+00  0.26370516262E+02  0.00000000000E+00 0.  1.
         11    1    1    2    0    0 -0.75349720924E+02  0.81234413690E+02  0.10714518877E+03  0.15413209233E+03  0.00000000000E+00 0. -1.
</event>
<event>
 7    1  0.2440960E-009  0.1402240E+03  0.7561462E-02  0.1213028E+00
         -2   -1    0    0    0  501 -0.00000000000E+00  0.00000000000E+00  0.41078983462E+02  0.41078983462E+02  0.00000000000E+00 0.  1.
          2   -1    0    0  501    0  0.00000000000E+00 -0.00000000000E+00 -0.75715835754E+03  0.75715835754E+03  0.00000000000E+00 0. -1.
         25    2    1    2    0    0  0.59198000505E+02 -0.75284319534E+02 -0.60518345272E+03  0.62535406876E+03  0.12509423585E+03 0.  0.
          5    1    3    3  502    0  0.52167318939E+02  0.24237142999E+02 -0.22565525018E+03  0.23290906509E+03  0.41800000000E+01 0.  1.
         -5    1    3    3    0  502  0.70306815654E+01 -0.99521462533E+02 -0.37952820254E+03  0.39244500367E+03  0.41800000000E+01 0.  1.
        -11    1    1    2    0    0 -0.21796395023E+02 -0.14143058148E+02 -0.55392957607E+02  0.61184055784E+02  0.00000000000E+00 0. -1.
         11    1    1    2    0    0 -0.37401605482E+02  0.89427377682E+02 -0.55502963756E+02  0.11169921646E+03  0.00000000000E+00 0.  1.
</event>
<event>
 7    1  0.2440960E-009  0.1135725E+03  0.7561462E-02  0.1254094E+00
          2   -1    0    0  501    0  0.00000000000E+00  0.00000000000E+00  0.47410333972E+03  0.47410333972E+03  0.00000000000E+00 0.  1.
         -2   -1    0    0    0  501 -0.00000000000E+00 -0.00000000000E+00 -0.31579170108E+02  0.31579170108E+02  0.00000000000E+00 0. -1.
         25    2    1    2    0    0  0.25807493591E+02  0.49658976250E+02  0.26894651112E+03  0.30184772243E+03  0.12509109098E+03 0.  0.
          5    1    3    3  502    0 -0.36908547037E+02  0.62655111118E+02  0.14532137599E+03  0.16255361735E+03  0.41800000000E+01 0.  1.
         -5    1    3    3    0  502  0.62716040628E+02 -0.12996134868E+02  0.12362513513E+03  0.13929410508E+03  0.41800000000E+01 0.  1.
        -11    1    1    2    0    0  0.23776914337E+02 -0.25835845128E+02  0.19351077799E+02  0.40091105757E+02  0.00000000000E+00 0. -1.
         11    1    1    2    0    0 -0.49584407928E+02 -0.23823131122E+02  0.15422658069E+03  0.16374368164E+03  0.00000000000E+00 0.  1.
</event>
<event>
 7    1  0.2440960E-009  0.2091191E+03  0.7561462E-02  0.1142265E+00
          1   -1    0    0  501    0  0.00000000000E+00  0.00000000000E+00  0.13822206464E+04  0.13822206464E+04  0.00000000000E+00 0. -1.
         -1   -1    0    0    0  501 -0.00000000000E+00 -0.00000000000E+00 -0.44758540001E+02  0.44758540001E+02  0.00000000000E+00 0.  1.
         25    2    1    2    0    0  0.27874277218E+02  0.18541881737E+03  0.10357775634E+04  0.10600188637E+04  0.12509083614E+03 0.  0.
          5    1    3    3  502    0  0.14587478448E+02 -0.15363741588E+02  0.15762793843E+03  0.15910021513E+03  0.41800000000E+01 0.  1.
         -5    1    3    3    0  502  0.13286798770E+02  0.20078255896E+03  0.87814962501E+03  0.90091864855E+03  0.41800000000E+01 0.  1.
        -11    1    1    2    0    0  0.14554425055E+02 -0.20842728451E+02  0.63314676668E+01  0.26198055287E+02  0.00000000000E+00 0.  1.
         11    1    1    2    0    0 -0.42428702273E+02 -0.16457608892E+03  0.29535307535E+03  0.34076226748E+03  0.00000000000E+00 0. -1.
</event>
<event>
 7    1  0.2440960E-009  0.2289031E+03  0.7561462E-02  0.1127414E+00
          1   -1    0    0  501    0  0.00000000000E+00  0.00000000000E+00  0.22765453246E+03  0.22765453246E+03  0.00000000000E+00 0.  1.
         -1   -1    0    0    0  501 -0.00000000000E+00 -0.00000000000E+00 -0.26153519529E+03  0.26153519529E+03  0.00000000000E+00 0. -1.
         25    2    1    2    0    0 -0.20196647513E+03 -0.67548412489E+02 -0.51454824684E+02  0.25228561642E+03  0.12508872118E+03 0.  0.
          5    1    3    3  502    0 -0.31560849804E+02 -0.54672464818E+02 -0.51127418570E+02  0.81342799185E+02  0.41800000000E+01 0. -1.
         -5    1    3    3    0  502 -0.17040562532E+03 -0.12875947671E+02 -0.32740611348E+00  0.17094281724E+03  0.41800000000E+01 0. -1.
        -11    1    1    2    0    0  0.11410974280E+03  0.22502902892E+01 -0.29287716230E+02  0.11782982445E+03  0.00000000000E+00 0. -1.
         11    1    1    2    0    0  0.87856732327E+02  0.65298122200E+02  0.46861878080E+02  0.11907428688E+03  0.00000000000E+00 0.  1.
</event>
<event>
 7    1  0.2440960E-009  0.2140362E+03  0.7561462E-02  0.1138409E+00
          1   -1    0    0  501    0  0.00000000000E+00  0.00000000000E+00  0.11702514897E+04  0.11702514897E+04  0.00000000000E+00 0. -1.
         -1   -1    0    0    0  501 -0.00000000000E+00 -0.00000000000E+00 -0.42577475158E+02  0.42577475158E+02  0.00000000000E+00 0.  1.
         25    2    1    2    0    0 -0.63859358877E+02 -0.18382390457E+03  0.56460981957E+03  0.61016283584E+03  0.12508074304E+03 0.  0.
          5    1    3    3  502    0 -0.96816259210E+02 -0.10223416246E+03  0.38848778829E+03  0.41323775973E+03  0.41800000000E+01 0.  1.
         -5    1    3    3    0  502  0.32956900333E+02 -0.81589742108E+02  0.17612203128E+03  0.19692507611E+03  0.41800000000E+01 0.  1.
        -11    1    1    2    0    0 -0.29870463804E+01  0.44334910142E+02  0.24485626448E+03  0.24885557450E+03  0.00000000000E+00 0. -1.
         11    1    1    2    0    0  0.66846405258E+02  0.13948899443E+03  0.31820793049E+03  0.35381055452E+03  0.00000000000E+00 0.  1.
</event>
<event>
 7    1  0.2440960E-009  0.1232636E+03  0.7561462E-02  0.1237808E+00
         -1   -1    0    0    0  501 -0.00000000000E+00  0.00000000000E+00  0.45514385452E+02  0.45514385452E+02  0.00000000000E+00 0.  1.
          1   -1    0    0  501    0  0.00000000000E+00 -0.00000000000E+00 -0.44691480260E+03  0.44691480260E+03  0.00000000000E+00 0. -1.
         25    2    1    2    0    0 -0.14380282165E+02  0.68664177440E+02 -0.30685043446E+03  0.33871366667E+03  0.12509275389E+03 0.  0.
          5    1    3    3  502    0  0.66838744750E+00  0.10290639840E+03 -0.25158191129E+03  0.27184757506E+03  0.41800000000E+01 0. -1.
         -5    1    3    3    0  502 -0.15048669612E+02 -0.34242220964E+02 -0.55268523169E+02  0.66866091608E+02  0.41800000000E+01 0. -1.
        -11    1    1    2    0    0 -0.25521741423E+02  0.10814897402E+01  0.47443051081E+01  0.25981480640E+02  0.00000000000E+00 0.  1.
         11    1    1    2    0    0  0.39902023587E+02 -0.69745667181E+02 -0.99294287791E+02  0.12773404074E+03  0.00000000000E+00 0. -1.
</event>
<event>
 7    1  0.2440960E-009  0.9360763E+02  0.7561462E-02  0.1294343E+00
         -2   -1    0    0    0  501 -0.00000000000E+00  0.00000000000E+00  0.50960275151E+02  0.50960275151E+02  0.00000000000E+00 0. -1.
          2   -1    0    0  501    0  0.00000000000E+00 -0.00000000000E+00 -0.33899207115E+03  0.33899207115E+03  0.00000000000E+00 0.  1.
         25    2    1    2    0    0 -0.20975007501E+02 -0.46944791891E+02 -0.23888726763E+03  0.27451678017E+03  0.12509425061E+03 0.  0.
          5    1    3    3  502    0 -0.48646098527E+02 -0.18190366354E+02 -0.22665845347E+03  0.23257011687E+03  0.41800000000E+01 0.  1.
         -5    1    3    3    0  502  0.27671091025E+02 -0.28754425536E+02 -0.12228814154E+02  0.41946663301E+02  0.41800000000E+01 0.  1.
        -11    1    1    2    0    0 -0.24558701135E+02  0.42696252718E+02 -0.49320502320E+02  0.69703742702E+02  0.00000000000E+00 0.  1.
         11    1    1    2    0    0  0.45533708636E+02  0.42485391726E+01  0.17597394827E+00  0.45731823429E+02  0.00000000000E+00 0. -1.
</event>
<event>
 7    1  0.2440960E-009  0.7426895E+02  0.7561462E-02  0.1346150E+00
          2   -1    0    0  501    0  0.00000000000E+00  0.00000000000E+00  0.19204174561E+03  0.19204174561E+03  0.00000000000E+00 0. -1.
         -2   -1    0    0    0  501 -0.00000000000E+00 -0.00000000000E+00 -0.85208429932E+02  0.85208429932E+02  0.00000000000E+00 0.  1.
         25    2    1    2    0    0  0.57255269282E+02  0.24507904976E+02  0.19767089351E+02  0.14112797534E+03  0.12509022478E+03 0.  0.
          5    1    3    3  502    0  0.83097358894E+01 -0.18460683555E+02  0.60676997703E+02  0.64101630230E+02  0.41800000000E+01 0.  1.
         -5    1    3    3    0  502  0.48945533393E+02  0.42968588531E+02 -0.40909908352E+02  0.77026345108E+02  0.41800000000E+01 0.  1.
        -11    1    1    2    0    0 -0.39316507515E+02 -0.19972263140E+02 -0.29756581181E+01  0.44198796357E+02  0.00000000000E+00 0.  1.
         11    1    1    2    0    0 -0.17938761767E+02 -0.45356418353E+01  0.90041884448E+02  0.91923403850E+02  0.00000000000E+00 0. -1.
</event>
<event>
 7    1  0.2440960E-009  0.7658601E+02  0.7561462E-02  0.1339029E+00
          3   -1    0    0  501    0  0.00000000000E+00  0.00000000000E+00  0.15510240593E+03  0.15510240593E+03  0.00000000000E+00 0. -1.
         -3   -1    0    0    0  501 -0.00000000000E+00 -0.00000000000E+00 -0.90398414398E+02  0.90398414398E+02  0.00000000000E+00 0.  1.
         25    2    1    2    0    0 -0.29405465122E+02 -0.28464805534E+02  0.11376080680E+02  0.13211689465E+03  0.12510208674E+03 0.  0.
          5    1    3    3  502    0  0.24873350320E+02 -0.70252056780E+01  0.53808844848E+02  0.59840632139E+02  0.41800000000E+01 0. -1.
         -5    1    3    3    0  502 -0.54278815442E+02 -0.21439599856E+02 -0.42432764168E+02  0.72276262512E+02  0.41800000000E+01 0. -1.
        -11    1    1    2    0    0  0.12371613046E+02 -0.16369982005E+02  0.61408935832E+02  0.64746355266E+02  0.00000000000E+00 0. -1.
         11    1    1    2    0    0  0.17033852077E+02  0.44834787539E+02 -0.80810249855E+01  0.48637570406E+02  0.00000000000E+00 0.  1.
</event>
<event>
 7    1  0.2440960E-009  0.1646985E+03  0.7561462E-02  0.1183492E+00
          1   -1    0    0  501    0  0.00000000000E+00  0.00000000000E+00  0.14079340581E+03  0.14079340581E+03  0.00000000000E+00 0. -1.
         -1   -1    0    0    0  501 -0.00000000000E+00 -0.00000000000E+00 -0.23171587168E+03  0.23171587168E+03  0.00000000000E+00 0.  1.
         25    2    1    2    0    0  0.10083738928E+03  0.86342287379E+02  0.25615763220E+01  0.18241984351E+03  0.12508904016E+03 0.  0.
          5    1    3    3  502    0 -0.60399850201E+01  0.66131298066E+02  0.25358448697E+02  0.71206413498E+02  0.41800000000E+01 0.  1.
         -5    1    3    3    0  502  0.10687737430E+03  0.20210989314E+02 -0.22796872375E+02  0.11121343002E+03  0.41800000000E+01 0.  1.
        -11    1    1    2    0    0 -0.10839300862E+03 -0.54580881543E+02 -0.99448155085E+02  0.15690141012E+03  0.00000000000E+00 0.  1.
         11    1    1    2    0    0  0.75556193457E+01 -0.31761405837E+02  0.59641128921E+01  0.33188023849E+02  0.00000000000E+00 0. -1.
</event>
<event>
 7    1  0.2440960E-009  0.2041836E+03  0.7561462E-02  0.1146257E+00
         -1   -1    0    0    0  501 -0.00000000000E+00  0.00000000000E+00  0.58969029985E+02  0.58969029985E+02  0.00000000000E+00 0.  1.
          1   -1    0    0  501    0  0.00000000000E+00 -0.00000000000E+00 -0.10111949701E+04  0.10111949701E+04  0.00000000000E+00 0. -1.
         25    2    1    2    0    0  0.10580266623E+03  0.15043137806E+03 -0.22857695908E+03  0.31893354497E+03  0.12508947276E+03 0.  0.
          5    1    3    3  502    0 -0.21976773294E+02  0.48176486494E+02 -0.89724227796E+02  0.10426822080E+03  0.41800000000E+01 0. -1.
         -5    1    3    3    0  502  0.12777943952E+03  0.10225489156E+03 -0.13885273129E+03  0.21466532417E+03  0.41800000000E+01 0. -1.
        -11    1    1    2    0    0 -0.12433253926E+02 -0.60985191189E+02 -0.13660602685E+03  0.15011657443E+03  0.00000000000E+00 0.  1.
         11    1    1    2    0    0 -0.93369412303E+02 -0.89446186867E+02 -0.58704295414E+03  0.60111388064E+03  0.00000000000E+00 0. -1.
</event>
<event>
 7    1  0.2440960E-009  0.7282995E+02  0.7561462E-02  0.1350726E+00
          2   -1    0    0  501    0  0.00000000000E+00  0.00000000000E+00  0.27021731166E+03  0.27021731166E+03  0.00000000000E+00 0. -1.
         -2   -1    0    0    0  501 -0.00000000000E+00 -0.00000000000E+00 -0.43642659286E+02  0.43642659286E+02  0.00000000000E+00 0.  1.
         25    2    1    2    0    0 -0.21597462518E+01 -0.96475891726E+01  0.12437333703E+03  0.17667542725E+03  0.12509092352E+03 0.  0.
          5    1    3    3  502    0 -0.24558665469E+02 -0.20203719192E+02 -0.14750097244E+02  0.35303768744E+02  0.41800000000E+01 0. -1.
         -5    1    3    3    0  502  0.22398919218E+02  0.10556130019E+02  0.13912343428E+03  0.14137165850E+03  0.41800000000E+01 0. -1.
        -11    1    1    2    0    0 -0.42203254768E+02 -0.30941101704E+01  0.31512625125E+02  0.52761100946E+02  0.00000000000E+00 0.  1.
         11    1    1    2    0    0  0.44363001019E+02  0.12741699343E+02  0.70688690214E+02  0.84423442750E+02  0.00000000000E+00 0. -1.
</event>
<event>
 7    1  0.2440960E-009  0.1042972E+03  0.7561462E-02  0.1271510E+00
          2   -1    0    0  501    0  0.00000000000E+00  0.00000000000E+00  0.31839563601E+03  0.31839563601E+03  0.00000000000E+00 0. -1.
         -2   -1    0    0    0  501 -0.00000000000E+00 -0.00000000000E+00 -0.47631754209E+02  0.47631754209E+02  0.00000000000E+00 0.  1.
         25    2    1    2    0    0 -0.45488759680E+02 -0.23082870304E+02  0.10777679031E+03  0.17281602909E+03  0.12508995652E+03 0.  0.
          5    1    3    3  502    0 -0.85370799524E+02 -0.50388736285E-01  0.50783663665E+02  0.99421470748E+02  0.41800000000E+01 0.  1.
         -5    1    3    3    0  502  0.39882039845E+02 -0.23032481568E+02  0.56993126644E+02  0.73394558341E+02  0.41800000000E+01 0.  1.
        -11    1    1    2    0    0  0.17690106756E+02  0.40415492624E+02  0.23613462604E+02  0.50039459801E+02  0.00000000000E+00 0.  1.
         11    1    1    2    0    0  0.27798652924E+02 -0.17332622320E+02  0.13937362889E+03  0.14317190133E+03  0.00000000000E+00 0. -1.
</event>
<event>
 7    1  0.2440960E-009  0.5941859E+02  0.7561462E-02  0.1400288E+00
         -1   -1    0    0    0  501 -0.00000000000E+00  0.00000000000E+00  0.25822991751E+02  0.25822991751E+02  0.00000000000E+00 0.  1.
          1   -1    0    0  501    0  0.00000000000E+00 -0.00000000000E+00 -0.42563987366E+03  0.42563987366E+03  0.00000000000E+00 0. -1.
         25    2    1    2    0    0 -0.15133632977E+02 -0.24653639480E+02 -0.22323868020E+03  0.25753028452E+03  0.12509800287E+03 0.  0.
          5    1    3    3  502    0 -0.21660160659E+02 -0.17547928414E+02  0.53573067149E+01  0.28692603344E+02  0.41800000000E+01 0. -1.
         -5    1    3    3    0  502  0.65265276816E+01 -0.71057110665E+01 -0.22859598691E+03  0.22883768118E+03  0.41800000000E+01 0. -1.
        -11    1    1    2    0    0  0.35945952229E+02 -0.12074250587E+02 -0.87074007133E+02  0.94972531434E+02  0.00000000000E+00 0. -1.
         11    1    1    2    0    0 -0.20812319251E+02  0.36727890067E+02 -0.89504194573E+02  0.98960049452E+02  0.00000000000E+00 0.  1.
</event>
<event>
 7    1  0.2440960E-009  0.1467713E+03  0.7561462E-02  0.1204497E+00
          1   -1    0    0  501    0  0.00000000000E+00  0.00000000000E+00  0.22774929268E+03  0.22774929268E+03  0.00000000000E+00 0. -1.
         -1   -1    0    0    0  501 -0.00000000000E+00 -0.00000000000E+00 -0.17250970507E+03  0.17250970507E+03  0.00000000000E+00 0.  1.
         25    2    1    2    0    0  0.79574401992E+02 -0.93941132110E+02  0.13946761276E+03  0.22417688559E+03  0.12508812601E+03 0.  0.
          5    1    3    3  502    0  0.91251652978E+02 -0.74782941698E+02  0.43949006828E+02  0.12596960007E+03  0.41800000000E+01 0.  1.
         -5    1    3    3    0  502 -0.11677250986E+02 -0.19158190412E+02  0.95518605927E+02  0.98207285517E+02  0.41800000000E+01 0.  1.
        -11    1    1    2    0    0 -0.60314703273E+02  0.37389889722E+01 -0.47252129337E+02  0.76711193423E+02  0.00000000000E+00 0.  1.
         11    1    1    2    0    0 -0.19259698719E+02  0.90202143138E+02 -0.36975895802E+02  0.99370918743E+02  0.00000000000E+00 0. -1.
</event>
<event>
 7    1  0.2440960E-009  0.9740462E+02  0.7561462E-02  0.1285850E+00
          2   -1    0    0  501    0  0.00000000000E+00  0.00000000000E+00  0.14103823297E+04  0.14103823297E+04  0.00000000000E+00 0. -1.
         -2   -1    0    0    0  501 -0.00000000000E+00 -0.00000000000E+00 -0.16572721609E+02  0.16572721609E+02  0.00000000000E+00 0.  1.
         25    2    1    2    0    0  0.78999688276E+02 -0.85555223442E+01  0.10930420864E+04  0.11030422372E+04  0.12508807526E+03 0.  0.
          5    1    3    3  502    0  0.10062891699E+02 -0.10267117771E+02  0.10473003778E+02  0.18271061951E+02  0.41800000000E+01 0. -1.
         -5    1    3    3    0  502  0.68936796577E+02  0.17115954272E+01  0.10825690826E+04  0.10847711752E+04  0.41800000000E+01 0. -1.
        -11    1    1    2    0    0 -0.93501087422E+02  0.15326292806E+02  0.28875310966E+03  0.30390081760E+03  0.00000000000E+00 0. -1.
         11    1    1    2    0    0  0.14501399147E+02 -0.67707704614E+01  0.12014412020E+02  0.20011996553E+02  0.00000000000E+00 0.  1.
</event>
<event>
 7    1  0.2440960E-009  0.1212654E+03  0.7561462E-02  0.1241024E+00
         -4   -1    0    0    0  501 -0.00000000000E+00  0.00000000000E+00  0.75361035300E+02  0.75361035300E+02  0.00000000000E+00 0.  1.
          4   -1    0    0  501    0  0.00000000000E+00 -0.00000000000E+00 -0.22154065264E+03  0.22154065264E+03  0.00000000000E+00 0. -1.
         25    2    1    2    0    0 -0.40893210898E+02  0.51478256709E+02 -0.11112726003E+03  0.17977607530E+03  0.12509158132E+03 0.  0.
          5    1    3    3  502    0 -0.75139736323E+02  0.22710533894E+00 -0.82550792326E+02  0.11170558296E+03  0.41800000000E+01 0.  1.
         -5    1    3    3    0  502  0.34246525424E+02  0.51251151370E+02 -0.28576467707E+02  0.68070492337E+02  0.41800000000E+01 0.  1.
        -11    1    1    2    0    0  0.36590148593E+02  0.14511748088E+02  0.52053124238E+01  0.39705479270E+02  0.00000000000E+00 0. -1.
         11    1    1    2    0    0  0.43030623047E+01 -0.65990004798E+02 -0.40257669728E+02  0.77420133365E+02  0.00000000000E+00 0.  1.
</event>
<event>
 7    1  0.2440960E-009  0.1007941E+03  0.7561462E-02  0.1278635E+00
         -1   -1    0    0    0  501 -0.00000000000E+00  0.00000000000E+00  0.33766374103E+03  0.33766374103E+03  0.00000000000E+00 0.  1.
          1   -1    0    0  501    0  0.00000000000E+00 -0.00000000000E+00 -0.33604663848E+02  0.33604663848E+02  0.00000000000E+00 0. -1.
         25    2    1    2    0    0  0.10371884843E+02 -0.17802445623E+02  0.13002685683E+03  0.18160719850E+03  0.12509871297E+03 0.  0.
          5    1    3    3  502    0 -0.48550351784E+02 -0.40276287859E+02  0.71887671696E+02  0.95732051916E+02  0.41800000000E+01 0. -1.
         -5    1    3    3    0  502  0.58922236628E+02  0.22473842237E+02  0.58139185130E+02  0.85875146589E+02  0.41800000000E+01 0. -1.
        -11    1    1    2    0    0  0.29220809348E+02 -0.47460761828E+01  0.61475839977E+02  0.68232395817E+02  0.00000000000E+00 0. -1.
         11    1    1    2    0    0 -0.39592694191E+02  0.22548521805E+02  0.11255638037E+03  0.12142881055E+03  0.00000000000E+00 0.  1.
</event>
<event>
 7    1  0.2440960E-009  0.1003905E+03  0.7561462E-02  0.1279477E+00
          2   -1    0    0  501    0  0.00000000000E+00  0.00000000000E+00  0.26474315124E+03  0.26474315124E+03  0.00000000000E+00 0. -1.
         -2   -1    0    0    0  501 -0.00000000000E+00 -0.00000000000E+00 -0.58321599332E+02  0.58321599332E+02  0.00000000000E+00 0.  1.
         25    2    1    2    0    0 -0.33075358522E+02 -0.36133299635E+02  0.19894659445E+03  0.24005436992E+03  0.12508700328E+03 0.  0.
          5    1    3    3  502    0  0.34707375525E+02 -0.37287847067E+02  0.14364290499E+03  0.15246554368E+03  0.41800000000E+01 0.  1.
         -5    1    3    3    0  502 -0.67782734047E+02  0.11545474318E+01  0.55303689456E+02  0.87588826240E+02  0.41800000000E+01 0.  1.
        -11    1    1    2    0    0  0.10895169376E+02  0.52857565566E+02 -0.96611869454E+00  0.53977405816E+02  0.00000000000E+00 0.  1.
         11    1    1    2    0    0  0.22180189145E+02 -0.16724265931E+02  0.84410761615E+01  0.29032974843E+02  0.00000000000E+00 0. -1.
</event>
<event>
 7    1  0.2440960E-009  0.7703272E+02  0.7561462E-02  0.1337689E+00
         -1   -1    0    0    0  501 -0.00000000000E+00  0.00000000000E+00  0.26493906478E+02  0.26493906478E+02  0.00000000000E+00 0.  1.
          1   -1    0    0  501    0  0.00000000000E+00 -0.00000000000E+00 -0.47507616230E+03  0.47507616230E+03  0.00000000000E+00 0. -1.
         25    2    1    2    0    0 -0.74705774580E+01  0.22238673110E+02 -0.30636153478E+03  0.33174424238E+03  0.12508590746E+03 0.  0.
          5    1    3    3  502    0  0.20425630619E+02 -0.21967712910E+02 -0.11723633019E+02  0.32476187705E+02  0.41800000000E+01 0. -1.
         -5    1    3    3    0  502 -0.27896208077E+02  0.44206386020E+02 -0.29463790177E+03  0.29926805467E+03  0.41800000000E+01 0. -1.
        -11    1    1    2    0    0  0.31670256631E+02 -0.32205095403E+02 -0.13546425627E+03  0.14279614158E+03  0.00000000000E+00 0. -1.
         11    1    1    2    0    0 -0.24199679173E+02  0.99664222926E+01 -0.67564647748E+01  0.27029684823E+02  0.00000000000E+00 0.  1.
</event>
<event>
 7    1  0.2440960E-009  0.1474804E+03  0.7561462E-02  0.1203604E+00
         -2   -1    0    0    0  501 -0.00000000000E+00  0.00000000000E+00  0.45669327862E+02  0.45669327862E+02  0.00000000000E+00 0. -1.
          2   -1    0    0  501    0  0.00000000000E+00 -0.00000000000E+00 -0.48638972726E+03  0.48638972726E+03  0.00000000000E+00 0.  1.
         25    2    1    2    0    0  0.10039801798E+03 -0.13707052151E+02 -0.25881600592E+03  0.30479661605E+03  0.12509039507E+03 0.  0.
          5    1    3    3  502    0  0.22271253443E+02 -0.64047874187E+02 -0.11083752090E+03  0.13000218213E+03  0.41800000000E+01 0.  1.
         -5    1    3    3    0  502  0.78126764541E+02  0.50340822036E+02 -0.14797848502E+03  0.17479443392E+03  0.41800000000E+01 0.  1.
        -11    1    1    2    0    0 -0.11684053662E+03  0.11785006341E+02 -0.17099533732E+03  0.20743674399E+03  0.00000000000E+00 0. -1.
         11    1    1    2    0    0  0.16442518639E+02  0.19220458099E+01 -0.10909056153E+02  0.19825695081E+02  0.00000000000E+00 0.  1.
</event>
<event>
 7    1  0.2440960E-009  0.1196669E+03  0.7561462E-02  0.1243648E+00
         -1   -1    0    0    0  501 -0.00000000000E+00  0.00000000000E+00  0.51341376704E+02  0.51341376704E+02  0.00000000000E+00 0.  1.
          1   -1    0    0  501    0  0.00000000000E+00 -0.00000000000E+00 -0.37102713611E+03  0.37102713611E+03  0.00000000000E+00 0. -1.
         25    2    1    2    0    0 -0.41290512486E+02  0.43679487282E+02 -0.26230009935E+03  0.29675401990E+03  0.12509517249E+03 0.  0.
          5    1    3    3  502    0 -0.81613577563E+02  0.26151024025E+02 -0.21764143917E+03  0.23394426803E+03  0.41800000000E+01 0. -1.
         -5    1    3    3    0  502  0.40323065078E+02  0.17528463257E+02 -0.44658660178E+02  0.62809751873E+02  0.41800000000E+01 0. -1.
        -11    1    1    2    0    0 -0.74540819445E+01  0.24468110219E+02 -0.30674737274E+01  0.25761621657E+02  0.00000000000E+00 0.  1.
         11    1    1    2    0    0  0.48744594430E+02 -0.68147597501E+02 -0.54318186329E+02  0.99852871253E+02  0.00000000000E+00 0. -1.
</event>
<event>
 7    1  0.2440960E-009  0.1251275E+03  0.7561462E-02  0.1234870E+00
         -2   -1    0    0    0  501 -0.00000000000E+00  0.00000000000E+00  0.20714225334E+02  0.20714225334E+02  0.00000000000E+00 0.  1.
          2   -1    0    0  501    0  0.00000000000E+00 -0.00000000000E+00 -0.88208377563E+03  0.88208377563E+03  0.00000000000E+00 0. -1.
         25    2    1    2    0    0 -0.25843108529E+02  0.65965482116E+02 -0.36358466774E+03  0.39097387880E+03  0.12508977655E+03 0.  0.
          5    1    3    3  502    0  0.48159687086E+02  0.43845299082E+02 -0.19116933050E+03  0.20200235403E+03  0.41800000000E+01 0.  1.
         -5    1    3    3    0  502 -0.74002795614E+02  0.22120183034E+02 -0.17241533724E+03  0.18897152477E+03  0.41800000000E+01 0.  1.
        -11    1    1    2    0    0  0.33243255885E+02  0.72731221693E+01 -0.70955467499E+02  0.78693651179E+02  0.00000000000E+00 0.  1.
         11    1    1    2    0    0 -0.74001473561E+01 -0.73238604285E+02 -0.42682941506E+03  0.43313047099E+03  0.00000000000E+00 0. -1.
</event>
<event>
 7    1  0.2440960E-009  0.1843706E+03  0.7561462E-02  0.1163639E+00
          1   -1    0    0  501    0  0.00000000000E+00  0.00000000000E+00  0.58145167121E+03  0.58145167121E+03  0.00000000000E+00 0. -1.
         -1   -1    0    0    0  501 -0.00000000000E+00 -0.00000000000E+00 -0.69194003630E+02  0.69194003630E+02  0.00000000000E+00 0.  1.
         25    2    1    2    0    0 -0.16533123935E+02 -0.16804970617E+03  0.26284996997E+03  0.33652835129E+03  0.12508867484E+03 0.  0.
          5    1    3    3  502    0 -0.18019344427E+02 -0.17164329245E+03  0.27408662748E+03  0.32392447944E+03  0.41800000000E+01 0. -1.
         -5    1    3    3    0  502  0.14862204927E+01  0.35935862801E+01 -0.11236657504E+02  0.12603871848E+02  0.41800000000E+01 0. -1.
        -11    1    1    2    0    0 -0.35363164525E+02  0.48106292223E+02  0.67282259562E+02  0.89953717035E+02  0.00000000000E+00 0.  1.
         11    1    1    2    0    0  0.51896288459E+02  0.11994341395E+03  0.18212543805E+03  0.22416360652E+03  0.00000000000E+00 0. -1.
</event>
<event>
 7    1  0.2440960E-009  0.8708980E+02  0.7561462E-02  0.1310056E+00
          1   -1    0    0  501    0  0.00000000000E+00  0.00000000000E+00  0.63523666703E+02  0.63523666703E+02  0.00000000000E+00 0. -1.
         -1   -1    0    0    0  501 -0.00000000000E+00 -0.00000000000E+00 -0.23541188429E+03  0.23541188429E+03  0.00000000000E+00 0.  1.
         25    2    1    2    0    0  0.26718896696E+02  0.32275449722E+02 -0.50899400685E+02  0.14140442563E+03  0.12509539760E+03 0.  0.
          5    1    3    3  502    0  0.15002596643E+02 -0.48097787526E+02 -0.21194982088E+02  0.54819474064E+02  0.41800000000E+01 0.  1.
         -5    1    3    3    0  502  0.11716300053E+02  0.80373237248E+02 -0.29704418598E+02  0.86584951561E+02  0.41800000000E+01 0.  1.
        -11    1    1    2    0    0 -0.20415910630E+02 -0.20472212052E+02 -0.13505623227E+03  0.13811627981E+03  0.00000000000E+00 0.  1.
         11    1    1    2    0    0 -0.63029860656E+01 -0.11803237670E+02  0.14067415370E+02  0.19414845557E+02  0.00000000000E+00 0. -1.
</event>
<event>
 7    1  0.2440960E-009  0.1060340E+03  0.7561462E-02  0.1268096E+00
         -1   -1    0    0    0  501 -0.00000000000E+00  0.00000000000E+00  0.26208433457E+02  0.26208433457E+02  0.00000000000E+00 0.  1.
          1   -1    0    0  501    0  0.00000000000E+00 -0.00000000000E+00 -0.86335922300E+03  0.86335922300E+03  0.00000000000E+00 0. -1.
         25    2    1    2    0    0  0.43809950348E+02 -0.68766214920E+02 -0.63743065515E+03  0.65468542421E+03  0.12508821080E+03 0.  0.
          5    1    3    3  502    0 -0.11838388628E+02 -0.17974229226E+02 -0.47583370157E+03  0.47633853961E+03  0.41800000000E+01 0. -1.
         -5    1    3    3    0  502  0.55648338976E+02 -0.50791985694E+02 -0.16159695358E+03  0.17834688461E+03  0.41800000000E+01 0. -1.
        -11    1    1    2    0    0 -0.49139419533E+02  0.84678319769E+02 -0.12757914683E+03  0.16081523279E+03  0.00000000000E+00 0.  1.
         11    1    1    2    0    0  0.53294691856E+01 -0.15912104849E+02 -0.72140987564E+02  0.74066999461E+02  0.00000000000E+00 0. -1.
</event>
<event>
 7    1  0.2440960E-009  0.1650164E+03  0.7561462E-02  0.1183147E+00
          2   -1    0    0  501    0  0.00000000000E+00  0.00000000000E+00  0.98979058666E+03  0.98979058666E+03  0.00000000000E+00 0.  1.
         -2   -1    0    0    0  501 -0.00000000000E+00 -0.00000000000E+00 -0.35011797224E+02  0.35011797224E+02  0.00000000000E+00 0. -1.
         25    2    1    2    0    0 -0.26920607195E+02  0.14461636839E+03  0.65151061497E+03  0.67952260575E+03  0.12508507987E+03 0.  0.
          5    1    3    3  502    0 -0.64380378724E+02  0.10938372676E+03  0.56234047335E+03  0.57650144251E+03  0.41800000000E+01 0. -1.
         -5    1    3    3    0  502  0.37459771529E+02  0.35232641624E+02  0.89170141614E+02  0.10302116324E+03  0.41800000000E+01 0. -1.
        -11    1    1    2    0    0  0.29443939877E+01 -0.10566544234E+03  0.13819851287E+03  0.17399047135E+03  0.00000000000E+00 0. -1.
         11    1    1    2    0    0  0.23976213207E+02 -0.38950926043E+02  0.16506966160E+03  0.17128930679E+03  0.00000000000E+00 0.  1.
</event>
<event>
 7    1  0.2440960E-009  0.2423251E+03  0.7561462E-02  0.1118254E+00
         -1   -1    0    0    0  501 -0.00000000000E+00  0.00000000000E+00  0.38272837365E+02  0.38272837365E+02  0.00000000000E+00 0.  1.
          1   -1    0    0  501    0  0.00000000000E+00 -0.00000000000E+00 -0.18450330979E+04  0.18450330979E+04  0.00000000000E+00 0. -1.
         25    2    1    2    0    0  0.24354710147E+02  0.23322440400E+03 -0.11355126603E+04  0.11662009394E+04  0.12509538294E+03 0.  0.
          5    1    3    3  502    0 -0.64923319134E+01  0.21276382722E+03 -0.10687424504E+04  0.10897423982E+04  0.41800000000E+01 0. -1.
         -5    1    3    3    0  502  0.30847042061E+02  0.20460576777E+02 -0.66770209862E+02  0.76458541256E+02  0.41800000000E+01 0. -1.
        -11    1    1    2    0    0 -0.99678311699E+01 -0.90348363749E+02 -0.39993325985E+03  0.41013265759E+03  0.00000000000E+00 0.  1.
         11    1    1    2    0    0 -0.14386878978E+02 -0.14287604025E+03 -0.27131434038E+03  0.30697233827E+03  0.00000000000E+00 0. -1.
</event>
<event>
 7    1  0.2440960E-009  0.1242325E+03  0.7561462E-02  0.1236274E+00
          2   -1    0    0  501    0  0.00000000000E+00  0.00000000000E+00  0.30958961569E+02  0.30958961569E+02  0.00000000000E+00 0. -1.
         -2   -1    0    0    0  501 -0.00000000000E+00 -0.00000000000E+00 -0.57265090121E+03  0.57265090121E+03  0.00000000000E+00 0.  1.
         25    2    1    2    0    0 -0.52123456104E-01  0.74373857226E+02 -0.35202411856E+03  0.38092023062E+03  0.12509104163E+03 0.  0.
          5    1    3    3  502    0 -0.56166612082E+02  0.11549026398E+02 -0.18629180906E+03  0.19496199333E+03  0.41800000000E+01 0.  1.
         -5    1    3    3    0  502  0.56114488626E+02  0.62824830829E+02 -0.16573230950E+03  0.18595823729E+03  0.41800000000E+01 0.  1.
        -11    1    1    2    0    0  0.38067155329E+02 -0.32269503163E+02 -0.13491711353E+03  0.14385081394E+03  0.00000000000E+00 0.  1.
         11    1    1    2    0    0 -0.38015031873E+02 -0.42104354063E+02 -0.54750707551E+02  0.78838818210E+02  0.00000000000E+00 0. -1.
</event>
<event>
 7    1  0.2440960E-009  0.1378071E+03  0.7561462E-02  0.1216311E+00
          1   -1    0    0  501    0  0.00000000000E+00  0.00000000000E+00  0.34656728528E+03  0.34656728528E+03  0.00000000000E+00 0. -1.
         -1   -1    0    0    0  501 -0.00000000000E+00 -0.00000000000E+00 -0.88820265443E+02  0.88820265443E+02  0.00000000000E+00 0.  1.
         25    2    1    2    0    0 -0.10190403969E+03 -0.90606065548E+02  0.11123424866E+03  0.21590382683E+03  0.12509001537E+03 0.  0.
          5    1    3    3  502    0 -0.57535250226E+02 -0.42056309560E+02 -0.15505124370E+02  0.73054222836E+02  0.41800000000E+01 0. -1.
         -5    1    3    3    0  502 -0.44368789459E+02 -0.48549755988E+02  0.12673937303E+03  0.14284960400E+03  0.41800000000E+01 0. -1.
        -11    1    1    2    0    0  0.18890976491E+02  0.30335491639E+02 -0.54358130262E+01  0.36147740026E+02  0.00000000000E+00 0.  1.
         11    1    1    2    0    0  0.83013063194E+02  0.60270573909E+02  0.15194858420E+03  0.18333598387E+03  0.00000000000E+00 0. -1.
</event>
<event>
 7    1  0.2440960E-009  0.6832270E+02  0.7561462E-02  0.1365891E+00
          1   -1    0    0  501    0  0.00000000000E+00  0.00000000000E+00  0.14430829946E+03  0.14430829946E+03  0.00000000000E+00 0. -1.
         -1   -1    0    0    0  501 -0.00000000000E+00 -0.00000000000E+00 -0.92114127688E+02  0.92114127688E+02  0.00000000000E+00 0.  1.
         25    2    1    2    0    0 -0.17050320721E+02 -0.64353310993E+01  0.77964905492E+02  0.14851826258E+03  0.12508805263E+03 0.  0.
          5    1    3    3  502    0  0.20919244492E+02 -0.20345823820E+02  0.98610949708E+02  0.10292307389E+03  0.41800000000E+01 0.  1.
         -5    1    3    3    0  502 -0.37969565213E+02  0.13910492721E+02 -0.20646044215E+02  0.45595188693E+02  0.41800000000E+01 0.  1.
        -11    1    1    2    0    0  0.55069177065E+01 -0.28858576043E+02 -0.38696074154E+02  0.48585282842E+02  0.00000000000E+00 0.  1.
         11    1    1    2    0    0  0.11543403014E+02  0.35293907142E+02  0.12925340432E+02  0.39318881721E+02  0.00000000000E+00 0. -1.
</event>
<event>
 7    1  0.2440960E-009  0.1558633E+03  0.7561462E-02  0.1193448E+00
         -1   -1    0    0    0  501 -0.00000000000E+00  0.00000000000E+00  0.92224017336E+02  0.92224017336E+02  0.00000000000E+00 0.  1.
          1   -1    0    0  501    0  0.00000000000E+00 -0.00000000000E+00 -0.27760953733E+03  0.27760953733E+03  0.00000000000E+00 0. -1.
         25    2    1    2    0    0 -0.72111993023E+02 -0.87237058174E+02 -0.68222155572E+02  0.18196679858E+03  0.12508880612E+03 0.  0.
          5    1    3    3  502    0 -0.10622271148E+03 -0.68316550469E+02 -0.36540182773E+02  0.13154114512E+03  0.41800000000E+01 0. -1.
         -5    1    3    3    0  502  0.34110718462E+02 -0.18920507705E+02 -0.31681972799E+02  0.50425653454E+02  0.41800000000E+01 0. -1.
        -11    1    1    2    0    0 -0.10870112467E+02  0.56664257585E+02 -0.55487748266E+02  0.80049282572E+02  0.00000000000E+00 0. -1.
         11    1    1    2    0    0  0.82982105490E+02  0.30572800590E+02 -0.61675616159E+02  0.10781747352E+03  0.00000000000E+00 0.  1.
</event>
<event>
 7    1  0.2440960E-009  0.9399943E+02  0.7561462E-02  0.1293446E+00
         -1   -1    0    0    0  501 -0.00000000000E+00  0.00000000000E+00  0.41211643459E+02  0.41211643459E+02  0.00000000000E+00 0.  1.
          1   -1    0    0  501    0  0.00000000000E+00 -0.00000000000E+00 -0.45960757193E+03  0.45960757193E+03  0.00000000000E+00 0. -1.
         25    2    1    2    0    0  0.40429088919E+02 -0.44219199967E+02 -0.33940677792E+03  0.36665288405E+03  0.12509007796E+03 0.  0.
          5    1    3    3  502    0  0.44676421246E+02 -0.62443628516E+02 -0.33885604943E+03  0.34747098295E+03  0.41800000000E+01 0. -1.
         -5    1    3    3    0  502 -0.42473323272E+01  0.18224428549E+02 -0.55072849245E+00  0.19181901098E+02  0.41800000000E+01 0. -1.
        -11    1    1    2    0    0  0.11683349020E+02 -0.10969896638E+02  0.86616998182E+01  0.18217143582E+02  0.00000000000E+00 0.  1.
         11    1    1    2    0    0 -0.52112437938E+02  0.55189096604E+02 -0.87650850367E+02  0.11594918776E+03  0.00000000000E+00 0. -1.
</event>
<event>
 7    1  0.2440960E-009  0.2676973E+03  0.7561462E-02  0.1102605E+00
          2   -1    0    0  501    0  0.00000000000E+00  0.00000000000E+00  0.24364295618E+04  0.24364295618E+04  0.00000000000E+00 0. -1.
         -2   -1    0    0    0  501 -0.00000000000E+00 -0.00000000000E+00 -0.31539431912E+02  0.31539431912E+02  0.00000000000E+00 0.  1.
         25    2    1    2    0    0  0.35040585978E+02  0.25071206664E+03  0.11188257769E+04  0.11539073914E+04  0.12508703325E+03 0.  0.
          5    1    3    3  502    0  0.74817247463E+02  0.11700412602E+03  0.46309828100E+03  0.48349258142E+03  0.41800000000E+01 0. -1.
         -5    1    3    3    0  502 -0.39776661485E+02  0.13370794061E+03  0.65572749593E+03  0.67041481002E+03  0.41800000000E+01 0. -1.
        -11    1    1    2    0    0 -0.28876682369E+02 -0.65585361450E+02  0.20312015889E+03  0.21539057865E+03  0.00000000000E+00 0.  1.
         11    1    1    2    0    0 -0.61639036087E+01 -0.18512670519E+03  0.10829441941E+04  0.10986710237E+04  0.00000000000E+00 0. -1.
</event>
<event>
 7    1  0.2440960E-009  0.9900615E+02  0.7561462E-02  0.1282400E+00
          1   -1    0    0  501    0  0.00000000000E+00  0.00000000000E+00  0.53628585634E+02  0.53628585634E+02  0.00000000000E+00 0. -1.
         -1   -1    0    0    0  501 -0.00000000000E+00 -0.00000000000E+00 -0.35746208829E+03  0.35746208829E+03  0.00000000000E+00 0.  1.
         25    2    1    2    0    0 -0.20071920519E+02  0.60144898799E+02 -0.25388069054E+03  0.29003431847E+03  0.12507681647E+03 0.  0.
          5    1    3    3  502    0 -0.47843633243E+02 -0.10358728105E+02 -0.40867350430E+02  0.63905627460E+02  0.41800000000E+01 0. -1.
         -5    1    3    3    0  502  0.27771712724E+02  0.70503626905E+02 -0.21301334011E+03  0.22612869101E+03  0.41800000000E+01 0. -1.
        -11    1    1    2    0    0  0.27993106592E+02 -0.26928403155E+02 -0.71009029840E+02  0.80938465713E+02  0.00000000000E+00 0.  1.
         11    1    1    2    0    0 -0.79211860731E+01 -0.33216495645E+02  0.21056217728E+02  0.40117889734E+02  0.00000000000E+00 0. -1.
</event>
<event>
 7    1  0.2440960E-009  0.1014873E+03  0.7561462E-02  0.1277199E+00
          1   -1    0    0  501    0  0.00000000000E+00  0.00000000000E+00  0.15005829722E+03  0.15005829722E+03  0.00000000000E+00 0. -1.
         -1   -1    0    0    0  501 -0.00000000000E+00 -0.00000000000E+00 -0.10764709346E+03  0.10764709346E+03  0.00000000000E+00 0.  1.
         25    2    1    2    0    0 -0.35704337646E+02  0.22531011310E+02  0.76769259815E+02  0.15272148259E+03  0.12509150968E+03 0.  0.
          5    1    3    3  502    0 -0.18332279904E+02 -0.48129976248E+02  0.75793932283E+01  0.52225345397E+02  0.41800000000E+01 0. -1.
         -5    1    3    3    0  502 -0.17372057742E+02  0.70660987558E+02  0.69189866587E+02  0.10049613719E+03  0.41800000000E+01 0. -1.
        -11    1    1    2    0    0  0.10185621457E+02 -0.43941346235E+02  0.13129190631E+02  0.46978340116E+02  0.00000000000E+00 0. -1.
         11    1    1    2    0    0  0.25518716190E+02  0.21410334925E+02 -0.47487246689E+02  0.58005567971E+02  0.00000000000E+00 0.  1.
</event>
<event>
 7    1  0.2440960E-009  0.1978568E+03  0.7561462E-02  0.1151560E+00
         -2   -1    0    0    0  501 -0.00000000000E+00  0.00000000000E+00  0.30871713993E+03  0.30871713993E+03  0.00000000000E+00 0.  1.
          2   -1    0    0  501    0  0.00000000000E+00 -0.00000000000E+00 -0.17594319625E+03  0.17594319625E+03  0.00000000000E+00 0. -1.
         25    2    1    2    0    0 -0.15021343701E+03 -0.10501348482E+03 -0.28883503513E+02  0.22377149229E+03  0.12509002891E+03 0.  0.
          5    1    3    3  502    0 -0.14658726051E+02 -0.45867951423E+02 -0.55332899217E+02  0.73470738073E+02  0.41800000000E+01 0.  1.
         -5    1    3    3    0  502 -0.13555471096E+03 -0.59145533399E+02  0.26449395704E+02  0.15030075422E+03  0.41800000000E+01 0.  1.
        -11    1    1    2    0    0  0.10896075111E+03  0.11346859337E+03  0.14959317366E+03  0.21708451020E+03  0.00000000000E+00 0.  1.
         11    1    1    2    0    0  0.41252685905E+02 -0.84551085474E+01  0.12064273539E+02  0.43804333701E+02  0.00000000000E+00 0. -1.
</event>
<event>
 7    1  0.2440960E-009  0.7355339E+02  0.7561462E-02  0.1348410E+00
         -3   -1    0    0    0  501 -0.00000000000E+00  0.00000000000E+00  0.82508462053E+02  0.82508462053E+02  0.00000000000E+00 0.  1.
          3   -1    0    0  501    0  0.00000000000E+00 -0.00000000000E+00 -0.15618166155E+03  0.15618166155E+03  0.00000000000E+00 0. -1.
         25    2    1    2    0    0 -0.22061758045E+02  0.42257853335E+01 -0.74232075414E+02  0.14717051465E+03  0.12507670020E+03 0.  0.
          5    1    3    3  502    0 -0.42373541986E+02  0.32117411020E+02 -0.93343951915E+02  0.10750632963E+03  0.41800000000E+01 0.  1.
         -5    1    3    3    0  502  0.20311783941E+02 -0.27891625686E+02  0.19111876502E+02  0.39664185025E+02  0.41800000000E+01 0.  1.
        -11    1    1    2    0    0 -0.17858249434E+02  0.38974279508E+01 -0.33669299519E+02  0.38310948143E+02  0.00000000000E+00 0. -1.
         11    1    1    2    0    0  0.39920007479E+02 -0.81232132843E+01  0.34228175435E+02  0.53208660806E+02  0.00000000000E+00 0.  1.
</event>
<event>
 7    1  0.2440960E-009  0.9949936E+02  0.7561462E-02  0.1281352E+00
         -1   -1    0    0    0  501 -0.00000000000E+00  0.00000000000E+00  0.83966392386E+02  0.83966392386E+02  0.00000000000E+00 0.  1.
          1   -1    0    0  501    0  0.00000000000E+00 -0.00000000000E+00 -0.18562254963E+03  0.18562254963E+03  0.00000000000E+00 0. -1.
         25    2    1    2    0    0  0.17960533918E+02  0.59371564426E+02 -0.49044098438E+02  0.14798869317E+03  0.12509103195E+03 0.  0.
          5    1    3    3  502    0 -0.97815372339E+01  0.60506652767E+02 -0.83421491538E+02  0.10360188777E+03  0.41800000000E+01 0. -1.
         -5    1    3    3    0  502  0.27742071152E+02 -0.11350883406E+01  0.34377393100E+02  0.44386805401E+02  0.41800000000E+01 0. -1.
        -11    1    1    2    0    0  0.18484973621E+02 -0.69291345851E+02 -0.37395715695E+02  0.80879072769E+02  0.00000000000E+00 0.  1.
         11    1    1    2    0    0 -0.36445507540E+02  0.99197814250E+01 -0.15216343115E+02  0.40721176077E+02  0.00000000000E+00 0. -1.
</event>
<event>
 7    1  0.2440960E-009  0.1058775E+03  0.7561462E-02  0.1268400E+00
          2   -1    0    0  501    0  0.00000000000E+00  0.00000000000E+00  0.67651134066E+03  0.67651134066E+03  0.00000000000E+00 0. -1.
         -2   -1    0    0    0  501 -0.00000000000E+00 -0.00000000000E+00 -0.19415219454E+02  0.19415219454E+02  0.00000000000E+00 0.  1.
         25    2    1    2    0    0  0.33231167488E+02 -0.98995427472E+01  0.43427466123E+03  0.45326024670E+03  0.12509219963E+03 0.  0.
          5    1    3    3  502    0 -0.16634864999E+02 -0.57874146050E+02  0.21203597112E+03  0.22046056555E+03  0.41800000000E+01 0. -1.
         -5    1    3    3    0  502  0.49866032487E+02  0.47974603302E+02  0.22223869011E+03  0.23279968114E+03  0.41800000000E+01 0. -1.
        -11    1    1    2    0    0  0.18476196744E+02 -0.15815860465E+02  0.19118847367E+02  0.30936089167E+02  0.00000000000E+00 0.  1.
         11    1    1    2    0    0 -0.51707364231E+02  0.25715403212E+02  0.20370261261E+03  0.21173022425E+03  0.00000000000E+00 0. -1.
</event>
<event>
 7    1  0.2440960E-009  0.1169544E+03  0.7561462E-02  0.1248208E+00
          1   -1    0    0  501    0  0.00000000000E+00  0.00000000000E+00  0.12744252295E+04  0.12744252295E+04  0.00000000000E+00 0. -1.
         -1   -1    0    0    0  501 -0.00000000000E+00 -0.00000000000E+00 -0.18164677724E+02  0.18164677724E+02  0.00000000000E+00 0.  1.
         25    2    1    2    0    0 -0.10076223846E+03 -0.38560335599E+01  0.83524674186E+03  0.85056095063E+03  0.12509561645E+03 0.  0.
          5    1    3    3  502    0 -0.63833924188E+02 -0.77562960609E+01  0.13789282563E+03  0.15220654968E+03  0.41800000000E+01 0. -1.
         -5    1    3    3    0  502 -0.36928314273E+02  0.39002625011E+01  0.69735391624E+03  0.69835440095E+03  0.41800000000E+01 0. -1.
        -11    1    1    2    0    0  0.12325717946E+02  0.35963291237E+02  0.85455101218E+02  0.93529973611E+02  0.00000000000E+00 0. -1.
         11    1    1    2    0    0  0.88436520515E+02 -0.32107257677E+02  0.33555870865E+03  0.34849898293E+03  0.00000000000E+00 0.  1.
</event>
<event>
 7    1  0.2440960E-009  0.1216465E+03  0.7561462E-02  0.1240405E+00
         -2   -1    0    0    0  501 -0.00000000000E+00  0.00000000000E+00  0.19486273182E+02  0.19486273182E+02  0.00000000000E+00 0.  1.
          2   -1    0    0  501    0  0.00000000000E+00 -0.00000000000E+00 -0.78644378763E+03  0.78644378763E+03  0.00000000000E+00 0. -1.
         25    2    1    2    0    0 -0.48970684343E+02  0.29582376201E+02 -0.37430995092E+03  0.39878543653E+03  0.12509452474E+03 0.  0.
          5    1    3    3  502    0 -0.40214739417E+01  0.73234844374E+02 -0.17430981816E+03  0.18915839867E+03  0.41800000000E+01 0.  1.
         -5    1    3    3    0  502 -0.44949210401E+02 -0.43652468172E+02 -0.20000013276E+03  0.20962703785E+03  0.41800000000E+01 0.  1.
        -11    1    1    2    0    0  0.73046670228E+02 -0.59386234986E+01 -0.28870397727E+03  0.29786082283E+03  0.00000000000E+00 0. -1.
         11    1    1    2    0    0 -0.24075985885E+02 -0.23643752703E+02 -0.10394358626E+03  0.10928380146E+03  0.00000000000E+00 0.  1.
</event>
<event>
 7    1  0.2440960E-009  0.1101970E+03  0.7561462E-02  0.1260206E+00
         -1   -1    0    0    0  501 -0.00000000000E+00  0.00000000000E+00  0.13424320293E+02  0.13424320293E+02  0.00000000000E+00 0.  1.
          1   -1    0    0  501    0  0.00000000000E+00 -0.00000000000E+00 -0.10241077804E+04  0.10241077804E+04  0.00000000000E+00 0. -1.
         25    2    1    2    0    0 -0.27614654114E+02 -0.49603186751E+01 -0.73272348023E+03  0.74385351662E+03  0.12508869583E+03 0.  0.
          5    1    3    3  502    0  0.45242173508E+01  0.56161144330E+02 -0.40379017300E+03  0.40772358147E+03  0.41800000000E+01 0.  1.
         -5    1    3    3    0  502 -0.32138871464E+02 -0.61121463005E+02 -0.32893330722E+03  0.33612993514E+03  0.41800000000E+01 0.  1.
        -11    1    1    2    0    0  0.60917886585E+02  0.71631107311E+01 -0.17426848800E+03  0.18474794984E+03  0.00000000000E+00 0.  1.
         11    1    1    2    0    0 -0.33303232472E+02 -0.22027920561E+01 -0.10369149185E+03  0.10893063420E+03  0.00000000000E+00 0. -1.
</event>
<event>
 7    1  0.2440960E-009  0.1980185E+03  0.7561462E-02  0.1151422E+00
          2   -1    0    0  501    0  0.00000000000E+00  0.00000000000E+00  0.67280983796E+02  0.67280983796E+02  0.00000000000E+00 0.  1.
         -2   -1    0    0    0  501 -0.00000000000E+00 -0.00000000000E+00 -0.67644370510E+03  0.67644370510E+03  0.00000000000E+00 0. -1.
         25    2    1    2    0    0  0.15646930524E+03  0.90142002642E+02 -0.26347453120E+03  0.34303848608E+03  0.12509336600E+03 0.  0.
          5    1    3    3  502    0  0.10541595783E+03  0.11409498943E+03 -0.14865156162E+03  0.21504639023E+03  0.41800000000E+01 0. -1.
         -5    1    3    3    0  502  0.51053347414E+02 -0.23952986785E+02 -0.11482296957E+03  0.12799209585E+03  0.41800000000E+01 0. -1.
        -11    1    1    2    0    0 -0.65492128155E+02 -0.58370045845E+02 -0.82561860921E+02  0.12046884237E+03  0.00000000000E+00 0.  1.
         11    1    1    2    0    0 -0.90977177086E+02 -0.31771956797E+02 -0.26312632918E+03  0.28021736045E+03  0.00000000000E+00 0. -1.
</event>
<event>
 7    1  0.2440960E-009  0.1099008E+03  0.7561462E-02  0.1260754E+00
         -2   -1    0    0    0  501 -0.00000000000E+00  0.00000000000E+00  0.10280283252E+03  0.10280283252E+03  0.00000000000E+00 0. -1.
          2   -1    0    0  501    0  0.00000000000E+00 -0.00000000000E+00 -0.19016280199E+03  0.19016280199E+03  0.00000000000E+00 0.  1.
         25    2    1    2    0    0 -0.83053548221E+01 -0.86566317402E+02 -0.34612236101E+02  0.15622256393E+03  0.12507908045E+03 0.  0.
          5    1    3    3  502    0 -0.19301422389E+02 -0.30342545793E+02 -0.76832012880E+02  0.84934360506E+02  0.41800000000E+01 0.  1.
         -5    1    3    3    0  502  0.10996067567E+02 -0.56223771610E+02  0.42219776779E+02  0.71288203422E+02  0.41800000000E+01 0.  1.
        -11    1    1    2    0    0 -0.27601727503E+02  0.85919278717E+02 -0.37299569037E+02  0.97648531309E+02  0.00000000000E+00 0. -1.
         11    1    1    2    0    0  0.35907082325E+02  0.64703868564E+00 -0.15448164328E+02  0.39094539276E+02  0.00000000000E+00 0.  1.
</event>
<event>
 7    1  0.2440960E-009  0.1205131E+03  0.7561462E-02  0.1242253E+00
         -2   -1    0    0    0  501 -0.00000000000E+00  0.00000000000E+00  0.19448482534E+03  0.19448482534E+03  0.00000000000E+00 0.  1.
          2   -1    0    0  501    0  0.00000000000E+00 -0.00000000000E+00 -0.95339623820E+02  0.95339623820E+02  0.00000000000E+00 0. -1.
         25    2    1    2    0    0  0.66312681726E+02  0.47511999379E+02  0.42823211742E+02  0.15535322373E+03  0.12508411097E+03 0.  0.
          5    1    3    3  502    0  0.75837394182E+02 -0.99378579690E+01 -0.92047990044E+01  0.77150969547E+02  0.41800000000E+01 0. -1.
         -5    1    3    3    0  502 -0.95247124561E+01  0.57449857348E+02  0.52028010747E+02  0.78202254181E+02  0.41800000000E+01 0. -1.
        -11    1    1    2    0    0 -0.11780415604E+02 -0.50082688288E+02  0.60856449736E+02  0.79690409288E+02  0.00000000000E+00 0.  1.
         11    1    1    2    0    0 -0.54532266122E+02  0.25706889090E+01 -0.45344599622E+01  0.54780816140E+02  0.00000000000E+00 0. -1.
</event>
<event>
 7    1  0.2440960E-009  0.8268431E+02  0.7561462E-02  0.1321602E+00
         -2   -1    0    0    0  501 -0.00000000000E+00  0.00000000000E+00  0.40967617792E+03  0.40967617792E+03  0.00000000000E+00 0.  1.
          2   -1    0    0  501    0  0.00000000000E+00 -0.00000000000E+00 -0.42940744493E+02  0.42940744493E+02  0.00000000000E+00 0. -1.
         25    2    1    2    0    0  0.84389970042E+01 -0.44050432797E+02  0.22745774048E+03  0.26343357020E+03  0.12509422410E+03 0.  0.
          5    1    3    3  502    0  0.27954194324E+02 -0.29928268655E+02  0.23442445180E+03  0.23801141621E+03  0.41800000000E+01 0. -1.
         -5    1    3    3    0  502 -0.19515197320E+02 -0.14122164143E+02 -0.69667113223E+01  0.25422153983E+02  0.41800000000E+01 0. -1.
        -11    1    1    2    0    0  0.27942545527E+02 -0.13993483646E+02  0.11058129295E+03  0.11491225255E+03  0.00000000000E+00 0.  1.
         11    1    1    2    0    0 -0.36381542531E+02  0.58043916444E+02  0.28696399994E+02  0.74271099666E+02  0.00000000000E+00 0. -1.
</event>
<event>
 7    1  0.2440960E-009  0.7676871E+02  0.7561462E-02  0.1338480E+00
         -1   -1    0    0    0  501 -0.00000000000E+00  0.00000000000E+00  0.28052253247E+02  0.28052253247E+02  0.00000000000E+00 0.  1.
          1   -1    0    0  501    0  0.00000000000E+00 -0.00000000000E+00 -0.52901067062E+03  0.52901067062E+03  0.00000000000E+00 0. -1.
         25    2    1    2    0    0 -0.12425926835E+02 -0.49504497262E+02 -0.31372939482E+03  0.34158278914E+03  0.12509024645E+03 0.  0.
          5    1    3    3  502    0  0.23311616547E+02 -0.29519196134E+02 -0.29311861419E+03  0.29555170240E+03  0.41800000000E+01 0. -1.
         -5    1    3    3    0  502 -0.35737543383E+02 -0.19985301128E+02 -0.20610780625E+02  0.46031086737E+02  0.41800000000E+01 0. -1.
        -11    1    1    2    0    0  0.33979367518E+02  0.27296884267E+02 -0.24837147390E+02  0.50165737292E+02  0.00000000000E+00 0.  1.
         11    1    1    2    0    0 -0.21553440683E+02  0.22207612994E+02 -0.16239187517E+03  0.16531439744E+03  0.00000000000E+00 0. -1.
</event>
<event>
 7    1  0.2440960E-009  0.1290420E+03  0.7561462E-02  0.1228884E+00
         -1   -1    0    0    0  501 -0.00000000000E+00  0.00000000000E+00  0.17208809527E+02  0.17208809527E+02  0.00000000000E+00 0.  1.
          1   -1    0    0  501    0  0.00000000000E+00 -0.00000000000E+00 -0.19948642124E+04  0.19948642124E+04  0.00000000000E+00 0. -1.
         25    2    1    2    0    0 -0.81564100857E+02  0.88960370277E+02 -0.15443450855E+04  0.15540961529E+04  0.12508580785E+03 0.  0.
          5    1    3    3  502    0 -0.26915836372E+02  0.35985270961E+02 -0.12230679071E+04  0.12239003145E+04  0.41800000000E+01 0. -1.
         -5    1    3    3    0  502 -0.54648264485E+02  0.52975099317E+02 -0.32127717842E+03  0.33019583846E+03  0.41800000000E+01 0. -1.
        -11    1    1    2    0    0  0.61618758006E+02 -0.19759751396E+02 -0.11832420764E+03  0.13486266061E+03  0.00000000000E+00 0.  1.
         11    1    1    2    0    0  0.19945342850E+02 -0.69200618881E+02 -0.31498610971E+03  0.32311420839E+03  0.00000000000E+00 0. -1.
</event>
<event>
 7    1  0.2440960E-009  0.1446255E+03  0.7561462E-02  0.1207237E+00
          1   -1    0    0  501    0  0.00000000000E+00  0.00000000000E+00  0.11913524555E+03  0.11913524555E+03  0.00000000000E+00 0. -1.
         -1   -1    0    0    0  501 -0.00000000000E+00 -0.00000000000E+00 -0.32387285809E+03  0.32387285809E+03  0.00000000000E+00 0.  1.
         25    2    1    2    0    0  0.41160540157E+02 -0.11627313862E+03  0.14214186434E+02  0.17624581738E+03  0.12508761816E+03 0.  0.
          5    1    3    3  502    0  0.64389551693E+02 -0.60523806806E+02 -0.38015014058E+02  0.96289974823E+02  0.41800000000E+01 0.  1.
         -5    1    3    3    0  502 -0.23229011537E+02 -0.55749331817E+02  0.52229200493E+02  0.79955842558E+02  0.41800000000E+01 0.  1.
        -11    1    1    2    0    0  0.12531865231E+01  0.90715921837E+02 -0.18695531691E+03  0.20780577344E+03  0.00000000000E+00 0.  1.
         11    1    1    2    0    0 -0.42413726680E+02  0.25557216786E+02 -0.31996482057E+02  0.58956512827E+02  0.00000000000E+00 0. -1.
</event>
<event>
 7    1  0.2440960E-009  0.1190819E+03  0.7561462E-02  0.1244619E+00
         -2   -1    0    0    0  501 -0.00000000000E+00  0.00000000000E+00  0.56271898171E+02  0.56271898171E+02  0.00000000000E+00 0. -1.
          2   -1    0    0  501    0  0.00000000000E+00 -0.00000000000E+00 -0.28826726414E+03  0.28826726414E+03  0.00000000000E+00 0.  1.
         25    2    1    2    0    0 -0.56399194739E+02 -0.12470964672E+01 -0.79133117743E+02  0.15840224925E+03  0.12508716092E+03 0.  0.
          5    1    3    3  502    0 -0.80691510464E+02 -0.38990097831E+02 -0.38190920467E+02  0.97505724939E+02  0.41800000000E+01 0. -1.
         -5    1    3    3    0  502  0.24292315725E+02  0.37743001364E+02 -0.40942197276E+02  0.60896524310E+02  0.41800000000E+01 0. -1.
        -11    1    1    2    0    0 -0.22784820500E+02  0.73749656967E+01 -0.19352731896E+02  0.30790686840E+02  0.00000000000E+00 0.  1.
         11    1    1    2    0    0  0.79184015239E+02 -0.61278692294E+01 -0.13350951633E+03  0.15534622623E+03  0.00000000000E+00 0. -1.
</event>
<event>
 7    1  0.2440960E-009  0.1131943E+03  0.7561462E-02  0.1254766E+00
         -2   -1    0    0    0  501 -0.00000000000E+00  0.00000000000E+00  0.41971221207E+03  0.41971221207E+03  0.00000000000E+00 0.  1.
          2   -1    0    0  501    0  0.00000000000E+00 -0.00000000000E+00 -0.39906261141E+02  0.39906261141E+02  0.00000000000E+00 0. -1.
         25    2    1    2    0    0  0.12071333405E+02 -0.44513881116E+02  0.30333642221E+03  0.33134470960E+03  0.12509647810E+03 0.  0.
          5    1    3    3  502    0  0.43826824544E+02  0.25931581166E+02  0.16624819478E+03  0.17392289131E+03  0.41800000000E+01 0.  1.
         -5    1    3    3    0  502 -0.31755491139E+02 -0.70445462282E+02  0.13708822743E+03  0.15742181829E+03  0.41800000000E+01 0.  1.
        -11    1    1    2    0    0  0.30663298606E+02 -0.65158953879E+01  0.44502286287E+02  0.54434807420E+02  0.00000000000E+00 0.  1.
         11    1    1    2    0    0 -0.42734632011E+02  0.51029776504E+02  0.31967242424E+02  0.73838956191E+02  0.00000000000E+00 0. -1.
</event>
<event>
 7    1  0.2440960E-009  0.6728400E+02  0.7561462E-02  0.1369580E+00
          1   -1    0    0  501    0  0.00000000000E+00  0.00000000000E+00  0.88215752768E+02  0.88215752768E+02  0.00000000000E+00 0. -1.
         -1   -1    0    0    0  501 -0.00000000000E+00 -0.00000000000E+00 -0.16238344980E+03  0.16238344980E+03  0.00000000000E+00 0.  1.
         25    2    1    2    0    0 -0.50213256262E+02 -0.67801810510E+01 -0.36072641749E+02  0.13969969538E+03  0.12508967762E+03 0.  0.
          5    1    3    3  502    0 -0.28468568368E+02  0.19172278903E+01 -0.82574887542E+02  0.87465533785E+02  0.41800000000E+01 0. -1.
         -5    1    3    3    0  502 -0.21744687894E+02 -0.86974089413E+01  0.46502245793E+02  0.52234161596E+02  0.41800000000E+01 0. -1.
        -11    1    1    2    0    0  0.55898749623E+02  0.26179448112E+02  0.63715717447E+01  0.62053449859E+02  0.00000000000E+00 0. -1.
         11    1    1    2    0    0 -0.56854933615E+01 -0.19399267061E+02 -0.44466627023E+02  0.48846057324E+02  0.00000000000E+00 0.  1.
</event>
<event>
 7    1  0.2440960E-009  0.1271924E+03  0.7561462E-02  0.1231682E+00
         -2   -1    0    0    0  501 -0.00000000000E+00  0.00000000000E+00  0.14521557310E+03  0.14521557310E+03  0.00000000000E+00 0.  1.
          2   -1    0    0  501    0  0.00000000000E+00 -0.00000000000E+00 -0.17691473208E+03  0.17691473208E+03  0.00000000000E+00 0. -1.
         25    2    1    2    0    0 -0.50190349079E+02  0.40494264838E+02 -0.11233387567E+03  0.18006879399E+03  0.12508802629E+03 0.  0.
          5    1    3    3  502    0  0.41408859466E+02  0.32019663396E+01 -0.32770178213E+02  0.53068853491E+02  0.41800000000E+01 0.  1.
         -5    1    3    3    0  502 -0.91599208545E+02  0.37292298498E+02 -0.79563697456E+02  0.12699994050E+03  0.41800000000E+01 0.  1.
        -11    1    1    2    0    0 -0.20591773087E+02  0.13505843543E+02  0.32739597545E+02  0.40967184136E+02  0.00000000000E+00 0.  1.
         11    1    1    2    0    0  0.70782122166E+02 -0.54000108380E+02  0.47895119146E+02  0.10109432705E+03  0.00000000000E+00 0. -1.
</event>
<event>
 7    1  0.2440960E-009  0.1504736E+03  0.7561462E-02  0.1199892E+00
         -2   -1    0    0    0  501 -0.00000000000E+00  0.00000000000E+00  0.81958009590E+02  0.81958009590E+02  0.00000000000E+00 0.  1.
          2   -1    0    0  501    0  0.00000000000E+00 -0.00000000000E+00 -0.38453086826E+03  0.38453086826E+03  0.00000000000E+00 0. -1.
         25    2    1    2    0    0 -0.14573567364E+02 -0.12659282860E+03 -0.87638870179E+02  0.19891319022E+03  0.12509097712E+03 0.  0.
          5    1    3    3  502    0 -0.14403136374E+02  0.10371661940E+00  0.25118614938E+02  0.29255397980E+02  0.41800000000E+01 0.  1.
         -5    1    3    3    0  502 -0.17043099017E+00 -0.12669654522E+03 -0.11275748512E+03  0.16965779224E+03  0.41800000000E+01 0.  1.
        -11    1    1    2    0    0 -0.33779834886E+02  0.13848925118E+02 -0.43934502685E+02  0.57123642199E+02  0.00000000000E+00 0.  1.
         11    1    1    2    0    0  0.48353402250E+02  0.11274390348E+03 -0.17099948581E+03  0.21045204544E+03  0.00000000000E+00 0. -1.
</event>
<event>
 7    1  0.2440960E-009  0.1305140E+03  0.7561462E-02  0.1226695E+00
          2   -1    0    0  501    0  0.00000000000E+00  0.00000000000E+00  0.58940669286E+02  0.58940669286E+02  0.00000000000E+00 0. -1.
         -2   -1    0    0    0  501 -0.00000000000E+00 -0.00000000000E+00 -0.31746989977E+03  0.31746989977E+03  0.00000000000E+00 0.  1.
         25    2    1    2    0    0  0.75537796451E+02 -0.16994392130E+02 -0.15595233825E+03  0.21439102276E+03  0.12509041041E+03 0.  0.
          5    1    3    3  502    0  0.62493872731E+02 -0.65531630138E+02 -0.12763977833E+03  0.15655434868E+03  0.41800000000E+01 0. -1.
         -5    1    3    3    0  502  0.13043923720E+02  0.48537238008E+02 -0.28312559917E+02  0.57836674079E+02  0.41800000000E+01 0. -1.
        -11    1    1    2    0    0  0.15871108809E+02 -0.16216263252E+02 -0.41146182775E+02  0.46987952133E+02  0.00000000000E+00 0.  1.
         11    1    1    2    0    0 -0.91408905260E+02  0.33210655382E+02 -0.61430709458E+02  0.11503159417E+03  0.00000000000E+00 0. -1.
</event>
<event>
 7    1  0.2440960E-009  0.1212437E+03  0.7561462E-02  0.1241059E+00
         -1   -1    0    0    0  501 -0.00000000000E+00  0.00000000000E+00  0.53705266289E+03  0.53705266289E+03  0.00000000000E+00 0.  1.
          1   -1    0    0  501    0  0.00000000000E+00 -0.00000000000E+00 -0.51247809636E+02  0.51247809636E+02  0.00000000000E+00 0. -1.
         25    2    1    2    0    0  0.41283820980E+02  0.10544249465E+03  0.35475505540E+03  0.39283782502E+03  0.12509170187E+03 0.  0.
          5    1    3    3  502    0  0.34731889034E+02  0.55971116061E+02  0.33080821403E+03  0.33732864809E+03  0.41800000000E+01 0. -1.
         -5    1    3    3    0  502  0.65519319451E+01  0.49471378592E+02  0.23946841374E+02  0.55509176933E+02  0.41800000000E+01 0. -1.
        -11    1    1    2    0    0 -0.83598321631E+01 -0.89383290023E+02  0.41879703602E+02  0.99061440041E+02  0.00000000000E+00 0. -1.
         11    1    1    2    0    0 -0.32923988817E+02 -0.16059204631E+02  0.89170094243E+02  0.96401207463E+02  0.00000000000E+00 0.  1.
</event>
<event>
 7    1  0.2440960E-009  0.2939175E+03  0.7561462E-02  0.1088321E+00
         -1   -1    0    0    0  501 -0.00000000000E+00  0.00000000000E+00  0.26033795343E+03  0.26033795343E+03  0.00000000000E+00 0.  1.
          1   -1    0    0  501    0  0.00000000000E+00 -0.00000000000E+00 -0.36642239139E+03  0.36642239139E+03  0.00000000000E+00 0. -1.
         25    2    1    2    0    0  0.17503518416E+03 -0.22454809940E+03 -0.54401876019E+01  0.31102448945E+03  0.12508985874E+03 0.  0.
          5    1    3    3  502    0  0.17500334975E+03 -0.15615131070E+03  0.25265894158E+02  0.23593482589E+03  0.41800000000E+01 0.  1.
         -5    1    3    3    0  502  0.31834408130E-01 -0.68396788691E+02 -0.30706081760E+02  0.75089663561E+02  0.41800000000E+01 0.  1.
        -11    1    1    2    0    0 -0.35751526868E+02  0.48297270495E+02  0.16596260143E+02  0.62339665233E+02  0.00000000000E+00 0.  1.
         11    1    1    2    0    0 -0.13928365729E+03  0.17625082890E+03 -0.11724051050E+03  0.25339619014E+03  0.00000000000E+00 0. -1.
</event>
<event>
 7    1  0.2440960E-009  0.7862670E+02  0.7561462E-02  0.1332994E+00
         -1   -1    0    0    0  501 -0.00000000000E+00  0.00000000000E+00  0.15056732445E+03  0.15056732445E+03  0.00000000000E+00 0.  1.
          1   -1    0    0  501    0  0.00000000000E+00 -0.00000000000E+00 -0.12770037257E+03  0.12770037257E+03  0.00000000000E+00 0. -1.
         25    2    1    2    0    0  0.49972838469E+02 -0.43025379347E+02  0.27543739396E+02  0.14406186431E+03  0.12508675117E+03 0.  0.
          5    1    3    3  502    0  0.23085014409E+02  0.71693724094E+01 -0.45295521060E+02  0.51511886192E+02  0.41800000000E+01 0.  1.
         -5    1    3    3    0  502  0.26887824061E+02 -0.50194751756E+02  0.72839260456E+02  0.92549978122E+02  0.41800000000E+01 0.  1.
        -11    1    1    2    0    0 -0.11491029491E+02  0.34291504251E+02  0.53096008578E+02  0.64242798425E+02  0.00000000000E+00 0.  1.
         11    1    1    2    0    0 -0.38481808978E+02  0.87338750955E+01 -0.57772796092E+02  0.69963034273E+02  0.00000000000E+00 0. -1.
</event>
<event>
 7    1  0.2440960E-009  0.1619379E+03  0.7561462E-02  0.1186526E+00
         -1   -1    0    0    0  501 -0.00000000000E+00  0.00000000000E+00  0.94091740620E+02  0.94091740620E+02  0.00000000000E+00 0.  1.
          1   -1    0    0  501    0  0.00000000000E+00 -0.00000000000E+00 -0.38734898187E+03  0.38734898187E+03  0.00000000000E+00 0. -1.
         25    2    1    2    0    0 -0.23651284080E+02  0.15358017539E+03 -0.18561136649E+03  0.27247956957E+03  0.12508910004E+03 0.  0.
          5    1    3    3  502    0 -0.19809004622E+02  0.61763107007E+02 -0.16620576398E+03  0.17846261914E+03  0.41800000000E+01 0.  1.
         -5    1    3    3    0  502 -0.38422794582E+01  0.91817068382E+02 -0.19405602510E+02  0.94016950421E+02  0.41800000000E+01 0.  1.
        -11    1    1    2    0    0  0.12606200125E+02  0.30089971728E+00 -0.37355057291E+02  0.39425970216E+02  0.00000000000E+00 0. -1.
         11    1    1    2    0    0  0.11045083956E+02 -0.15388107511E+03 -0.70290817467E+02  0.16953518271E+03  0.00000000000E+00 0.  1.
</event>
<event>
 7    1  0.2440960E-009  0.9235283E+02  0.7561462E-02  0.1297252E+00
         -2   -1    0    0    0  501 -0.00000000000E+00  0.00000000000E+00  0.54944198541E+02  0.54944198541E+02  0.00000000000E+00 0.  1.
          2   -1    0    0  501    0  0.00000000000E+00 -0.00000000000E+00 -0.23260463159E+03  0.23260463159E+03  0.00000000000E+00 0. -1.
         25    2    1    2    0    0  0.38538113555E+02 -0.14243550945E+02 -0.84352707073E+02  0.15636730212E+03  0.12508912439E+03 0.  0.
          5    1    3    3  502    0  0.24083398135E+02 -0.66010503959E+02 -0.72737774613E+02  0.10122081285E+03  0.41800000000E+01 0. -1.
         -5    1    3    3    0  502  0.14454715420E+02  0.51766953015E+02 -0.11614932460E+02  0.55146489266E+02  0.41800000000E+01 0. -1.
        -11    1    1    2    0    0 -0.31829328105E+02  0.29713700638E+02 -0.80609623043E+01  0.44283058233E+02  0.00000000000E+00 0.  1.
         11    1    1    2    0    0 -0.67087854503E+01 -0.15470149693E+02 -0.85246763667E+02  0.86898469776E+02  0.00000000000E+00 0. -1.
</event>
<event>
 7    1  0.2440960E-009  0.1226597E+03  0.7561462E-02  0.1238773E+00
          2   -1    0    0  501    0  0.00000000000E+00  0.00000000000E+00  0.19507167675E+03  0.19507167675E+03  0.00000000000E+00 0. -1.
         -2   -1    0    0    0  501 -0.00000000000E+00 -0.00000000000E+00 -0.14795523093E+03  0.14795523093E+03  0.00000000000E+00 0.  1.
         25    2    1    2    0    0  0.25039493316E+02  0.10538506811E+03  0.97944416690E+02  0.19228607729E+03  0.12509131845E+03 0.  0.
          5    1    3    3  502    0  0.22083607412E+02  0.35252414528E+02 -0.26392813899E+02  0.49441596575E+02  0.41800000000E+01 0.  1.
         -5    1    3    3    0  502  0.29558859042E+01  0.70132653584E+02  0.12433723059E+03  0.14284448072E+03  0.41800000000E+01 0.  1.
        -11    1    1    2    0    0 -0.50353268355E+02 -0.91194276705E+02 -0.60112087001E+02  0.12027182023E+03  0.00000000000E+00 0.  1.
         11    1    1    2    0    0  0.25313775040E+02 -0.14190791407E+02  0.92841161279E+01  0.30469010155E+02  0.00000000000E+00 0. -1.
</event>
<event>
 7    1  0.2440960E-009  0.2276952E+03  0.7561462E-02  0.1128273E+00
         -1   -1    0    0    0  501 -0.00000000000E+00  0.00000000000E+00  0.51649878521E+02  0.51649878521E+02  0.00000000000E+00 0.  1.
          1   -1    0    0  501    0  0.00000000000E+00 -0.00000000000E+00 -0.12372059579E+04  0.12372059579E+04  0.00000000000E+00 0. -1.
         25    2    1    2    0    0  0.14311374463E+03  0.15426569090E+03 -0.38253519370E+03  0.45415674729E+03  0.12508289011E+03 0.  0.
          5    1    3    3  502    0  0.64001998822E+02  0.15132660204E+03 -0.23670877097E+03  0.28817444542E+03  0.41800000000E+01 0. -1.
         -5    1    3    3    0  502  0.79111745805E+02  0.29390888627E+01 -0.14582642273E+03  0.16598230187E+03  0.41800000000E+01 0. -1.
        -11    1    1    2    0    0 -0.72322892647E+02 -0.95226549129E+02 -0.59902782329E+03  0.61084615865E+03  0.00000000000E+00 0.  1.
         11    1    1    2    0    0 -0.70790851980E+02 -0.59039141773E+02 -0.20399306242E+03  0.22385293052E+03  0.00000000000E+00 0. -1.
</event>
<event>
 7    1  0.2440960E-009  0.7125130E+02  0.7561462E-02  0.1355889E+00
          1   -1    0    0  501    0  0.00000000000E+00  0.00000000000E+00  0.22868638355E+03  0.22868638355E+03  0.00000000000E+00 0. -1.
         -1   -1    0    0    0  501 -0.00000000000E+00 -0.00000000000E+00 -0.10289621830E+03  0.10289621830E+03  0.00000000000E+00 0.  1.
         25    2    1    2    0    0 -0.89259492120E+01 -0.25807694011E+02  0.17903956664E+03  0.22010998503E+03  0.12509008533E+03 0.  0.
          5    1    3    3  502    0 -0.64633890677E+01 -0.34645016818E+02  0.19664528373E+03  0.19982215243E+03  0.41800000000E+01 0.  1.
         -5    1    3    3    0  502 -0.24625601442E+01  0.88373228066E+01 -0.17605717096E+02  0.20287832593E+02  0.41800000000E+01 0.  1.
        -11    1    1    2    0    0 -0.42077313800E+02  0.15859924283E+02 -0.32667985997E+02  0.55580885599E+02  0.00000000000E+00 0.  1.
         11    1    1    2    0    0  0.51003263012E+02  0.99477697286E+01 -0.20581415392E+02  0.55891731231E+02  0.00000000000E+00 0. -1.
</event>
<event>
 7    1  0.2440960E-009  0.1074127E+03  0.7561462E-02  0.1265438E+00
         -1   -1    0    0    0  501 -0.00000000000E+00  0.00000000000E+00  0.25569004929E+03  0.25569004929E+03  0.00000000000E+00 0.  1.
          1   -1    0    0  501    0  0.00000000000E+00 -0.00000000000E+00 -0.79187387955E+02  0.79187387955E+02  0.00000000000E+00 0. -1.
         25    2    1    2    0    0 -0.95278215980E+01  0.40962611054E+02  0.25194694090E+01  0.13199423039E+03  0.12508962483E+03 0.  0.
          5    1    3    3  502    0  0.21704857975E+01  0.76924522478E+02  0.32413999044E+02  0.83607612698E+02  0.41800000000E+01 0. -1.
         -5    1    3    3    0  502 -0.11698307396E+02 -0.35961911424E+02 -0.29894529635E+02  0.48386617688E+02  0.41800000000E+01 0. -1.
        -11    1    1    2    0    0 -0.40597690764E+02 -0.21490066693E+02  0.50881720862E+02  0.68548851046E+02  0.00000000000E+00 0. -1.
         11    1    1    2    0    0  0.50125512362E+02 -0.19472544361E+02  0.12310147106E+03  0.13433435581E+03  0.00000000000E+00 0.  1.
</event>
<event>
 7    1  0.2440960E-009  0.7332932E+02  0.7561462E-02  0.1349124E+00
          2   -1    0    0  501    0  0.00000000000E+00  0.00000000000E+00  0.32823472951E+03  0.32823472951E+03  0.00000000000E+00 0. -1.
         -2   -1    0    0    0  501 -0.00000000000E+00 -0.00000000000E+00 -0.55720498733E+02  0.55720498733E+02  0.00000000000E+00 0.  1.
         25    2    1    2    0    0  0.22410170414E+02  0.54926768007E+02  0.70681610828E+02  0.15544121515E+03  0.12508763199E+03 0.  0.
          5    1    3    3  502    0  0.32007959857E+02  0.64575981753E+02  0.99714297562E+02  0.12310556629E+03  0.41800000000E+01 0. -1.
         -5    1    3    3    0  502 -0.95977894424E+01 -0.96492137453E+01 -0.29032686734E+02  0.32335648858E+02  0.41800000000E+01 0. -1.
        -11    1    1    2    0    0 -0.11342474173E+02 -0.15066513618E+02 -0.33921246623E+01  0.19161369019E+02  0.00000000000E+00 0.  1.
         11    1    1    2    0    0 -0.11067696241E+02 -0.39860254390E+02  0.20522474461E+03  0.20935264408E+03  0.00000000000E+00 0. -1.
</event>
<event>
 7    1  0.2440960E-009  0.8642516E+02  0.7561462E-02  0.1311747E+00
          3   -1    0    0  501    0  0.00000000000E+00  0.00000000000E+00  0.86754923765E+02  0.86754923765E+02  0.00000000000E+00 0. -1.
         -3   -1    0    0    0  501 -0.00000000000E+00 -0.00000000000E+00 -0.15807549441E+03  0.15807549441E+03  0.00000000000E+00 0.  1.
         25    2    1    2    0    0 -0.31931958288E+02  0.23589640119E+02 -0.68771534639E+02  0.14816314757E+03  0.12508666292E+03 0.  0.
          5    1    3    3  502    0 -0.64163980592E+02  0.23218105623E+02  0.39814328910E+01  0.68479347558E+02  0.41800000000E+01 0.  1.
         -5    1    3    3    0  502  0.32232022304E+02  0.37153449672E+00 -0.72752967530E+02  0.79683800011E+02  0.41800000000E+01 0.  1.
        -11    1    1    2    0    0 -0.74964198765E+01  0.15027340598E+02  0.28694787431E+02  0.33247678147E+02  0.00000000000E+00 0. -1.
         11    1    1    2    0    0  0.39428378165E+02 -0.38616980717E+02 -0.31243823434E+02  0.63419592455E+02  0.00000000000E+00 0.  1.
</event>
<event>
 7    1  0.2440960E-009  0.2193306E+03  0.7561462E-02  0.1134383E+00
         -2   -1    0    0    0  501 -0.00000000000E+00  0.00000000000E+00  0.34875079913E+02  0.34875079913E+02  0.00000000000E+00 0. -1.
          2   -1    0    0  501    0  0.00000000000E+00 -0.00000000000E+00 -0.19512805644E+04  0.19512805644E+04  0.00000000000E+00 0.  1.
         25    2    1    2    0    0  0.65482298685E+02  0.19798155161E+03 -0.14191030754E+04  0.14397882052E+04  0.12510759727E+03 0.  0.
          5    1    3    3  502    0 -0.19556521020E+02  0.48800787065E+02 -0.63016553080E+03  0.63236859737E+03  0.41800000000E+01 0. -1.
         -5    1    3    3    0  502  0.85038819706E+02  0.14918076454E+03 -0.78893754465E+03  0.80741960784E+03  0.41800000000E+01 0. -1.
        -11    1    1    2    0    0 -0.44273802632E+02 -0.60076259904E+02 -0.96608350481E+02  0.12207579607E+03  0.00000000000E+00 0. -1.
         11    1    1    2    0    0 -0.21208496054E+02 -0.13790529170E+03 -0.40069405856E+03  0.42429164304E+03  0.00000000000E+00 0.  1.
</event>
<event>
 7    1  0.2440960E-009  0.1113910E+03  0.7561462E-02  0.1258015E+00
          2   -1    0    0  501    0  0.00000000000E+00  0.00000000000E+00  0.54049561304E+03  0.54049561304E+03  0.00000000000E+00 0. -1.
         -2   -1    0    0    0  501 -0.00000000000E+00 -0.00000000000E+00 -0.56730428220E+02  0.56730428220E+02  0.00000000000E+00 0.  1.
         25    2    1    2    0    0  0.63756708545E+01 -0.90947989462E+02  0.42199694582E+03  0.44948973049E+03  0.12508960615E+03 0.  0.
          5    1    3    3  502    0 -0.35910806475E+02 -0.41220563833E+02  0.34099864338E+03  0.34537844185E+03  0.41800000000E+01 0.  1.
         -5    1    3    3    0  502  0.42286477329E+02 -0.49727425628E+02  0.80998302436E+02  0.10411128864E+03  0.41800000000E+01 0.  1.
        -11    1    1    2    0    0  0.19995963264E+02  0.49862742148E+02 -0.15875487347E+02  0.56019306492E+02  0.00000000000E+00 0.  1.
         11    1    1    2    0    0 -0.26371634119E+02  0.41085247314E+02  0.77643726348E+02  0.91717004280E+02  0.00000000000E+00 0. -1.
</event>
<event>
 7    1  0.2440960E-009  0.9605370E+02  0.7561462E-02  0.1288820E+00
          1   -1    0    0  501    0  0.00000000000E+00  0.00000000000E+00  0.28555436273E+02  0.28555436273E+02  0.00000000000E+00 0. -1.
         -1   -1    0    0    0  501 -0.00000000000E+00 -0.00000000000E+00 -0.50441193255E+03  0.50441193255E+03  0.00000000000E+00 0.  1.
         25    2    1    2    0    0 -0.66995082656E+01 -0.35915798395E+02 -0.19010223617E+03  0.23047942324E+03  0.12508827425E+03 0.  0.
          5    1    3    3  502    0 -0.54664025817E+02  0.15065554995E+02 -0.11139648144E+03  0.12506708257E+03  0.41800000000E+01 0.  1.
         -5    1    3    3    0  502  0.47964517552E+02 -0.50981353390E+02 -0.78705754729E+02  0.10541234067E+03  0.41800000000E+01 0.  1.
        -11    1    1    2    0    0  0.16184245803E+02 -0.94776684682E+01 -0.71837513683E+01  0.20083881486E+02  0.00000000000E+00 0. -1.
         11    1    1    2    0    0 -0.94847375379E+01  0.45393466863E+02 -0.27857050874E+03  0.28240406410E+03  0.00000000000E+00 0.  1.
</event>
<event>
 7    1  0.2440960E-009  0.1719496E+03  0.7561462E-02  0.1175830E+00
          1   -1    0    0  501    0  0.00000000000E+00  0.00000000000E+00  0.26736628089E+03  0.26736628089E+03  0.00000000000E+00 0. -1.
         -1   -1    0    0    0  501 -0.00000000000E+00 -0.00000000000E+00 -0.12614798637E+03  0.12614798637E+03  0.00000000000E+00 0.  1.
         25    2    1    2    0    0 -0.49012142926E+02  0.13879018789E+03  0.77725100367E+02  0.20821703882E+03  0.12509291595E+03 0.  0.
          5    1    3    3  502    0 -0.27229183089E+00  0.14244512009E+03  0.45789107472E+02  0.14968233411E+03  0.41800000000E+01 0.  1.
         -5    1    3    3    0  502 -0.48739851095E+02 -0.36549321990E+01  0.31935992895E+02  0.58534704717E+02  0.41800000000E+01 0.  1.
        -11    1    1    2    0    0  0.55806131654E+01 -0.74754722071E+02 -0.13470187978E+02  0.76163361792E+02  0.00000000000E+00 0.  1.
         11    1    1    2    0    0  0.43431529760E+02 -0.64035465820E+02  0.76963382128E+02  0.10913386664E+03  0.00000000000E+00 0. -1.
</event>
<event>
 7    1  0.2440960E-009  0.1420586E+03  0.7561462E-02  0.1210585E+00
          2   -1    0    0  501    0  0.00000000000E+00  0.00000000000E+00  0.12086010385E+04  0.12086010385E+04  0.00000000000E+00 0. -1.
         -2   -1    0    0    0  501 -0.00000000000E+00 -0.00000000000E+00 -0.31786804632E+02  0.31786804632E+02  0.00000000000E+00 0.  1.
         25    2    1    2    0    0  0.90742631141E+02  0.84879370650E+02  0.94684289774E+03  0.96311842383E+03  0.12508753992E+03 0.  0.
          5    1    3    3  502    0  0.17029861727E+02  0.38129222713E+02  0.70011643436E+03  0.70137318731E+03  0.41800000000E+01 0. -1.
         -5    1    3    3    0  502  0.73712769414E+02  0.46750147937E+02  0.24672646338E+03  0.26174523652E+03  0.41800000000E+01 0. -1.
        -11    1    1    2    0    0 -0.79638562599E+02 -0.11403136346E+02  0.11385285399E+03  0.13940876778E+03  0.00000000000E+00 0. -1.
         11    1    1    2    0    0 -0.11104068542E+02 -0.73476234304E+02  0.11611848211E+03  0.13786065150E+03  0.00000000000E+00 0.  1.
</event>
<event>
 7    1  0.2628946E-009  0.1238717E+03  0.7561462E-02  0.1236843E+00
         -1   -1    0    0    0  501 -0.00000000000E+00  0.00000000000E+00  0.89389471807E+01  0.89389471807E+01  0.00000000000E+00 0.  1.
          1   -1    0    0  501    0  0.00000000000E+00 -0.00000000000E+00 -0.23148562253E+04  0.23148562253E+04  0.00000000000E+00 0. -1.
         25    2    1    2    0    0  0.41259295362E+02 -0.50793698517E+02 -0.17987944840E+04  0.18043256364E+04  0.12508827707E+03 0.  0.
          5    1    3    3  502    0  0.49138314943E+02  0.28778916508E+02 -0.54675152749E+03  0.54972493599E+03  0.41800000000E+01 0. -1.
         -5    1    3    3    0  502 -0.78790195804E+01 -0.79572615025E+02 -0.12520429565E+04  0.12546007004E+04  0.41800000000E+01 0. -1.
        -11    1    1    2    0    0 -0.46665305864E+02 -0.11487368233E+02 -0.17312731831E+03  0.17967381208E+03  0.00000000000E+00 0.  1.
         11    1    1    2    0    0  0.54060105020E+01  0.62281066750E+02 -0.33399547578E+03  0.33979572403E+03  0.00000000000E+00 0. -1.
</event>
<event>
 7    1  0.2440960E-009  0.1267464E+03  0.7561462E-02  0.1232365E+00
         -2   -1    0    0    0  501 -0.00000000000E+00  0.00000000000E+00  0.26092135404E+03  0.26092135404E+03  0.00000000000E+00 0. -1.
          2   -1    0    0  501    0  0.00000000000E+00 -0.00000000000E+00 -0.10534553988E+03  0.10534553988E+03  0.00000000000E+00 0.  1.
         25    2    1    2    0    0  0.93456042328E+02 -0.39890986466E+02  0.16413603608E+03  0.23002876331E+03  0.12508905212E+03 0.  0.
          5    1    3    3  502    0  0.42806159883E+02 -0.53153421479E+02  0.16380607923E+03  0.17750368315E+03  0.41800000000E+01 0. -1.
         -5    1    3    3    0  502  0.50649882446E+02  0.13262435013E+02  0.32995684759E+00  0.52525080160E+02  0.41800000000E+01 0. -1.
        -11    1    1    2    0    0 -0.51430452143E+02 -0.23494032353E+02 -0.18608233129E+02  0.59525854081E+02  0.00000000000E+00 0.  1.
         11    1    1    2    0    0 -0.42025590185E+02  0.63385018818E+02  0.10048011211E+02  0.76712276529E+02  0.00000000000E+00 0. -1.
</event>
<event>
 7    1  0.2440960E-009  0.1072532E+03  0.7561462E-02  0.1265743E+00
          2   -1    0    0  501    0  0.00000000000E+00  0.00000000000E+00  0.32749205079E+03  0.32749205079E+03  0.00000000000E+00 0. -1.
         -2   -1    0    0    0  501 -0.00000000000E+00 -0.00000000000E+00 -0.43802310216E+02  0.43802310216E+02  0.00000000000E+00 0.  1.
         25    2    1    2    0    0 -0.24377835626E+02  0.30978526684E+02  0.21325643586E+03  0.25036061859E+03  0.12509270130E+03 0.  0.
          5    1    3    3  502    0 -0.23116573898E+02 -0.45434297251E+02  0.11460196025E+03  0.12549794042E+03  0.41800000000E+01 0.  1.
         -5    1    3    3    0  502 -0.12612617277E+01  0.76412823934E+02  0.98654475612E+02  0.12486267818E+03  0.41800000000E+01 0.  1.
        -11    1    1    2    0    0  0.15783440294E+02  0.25338239600E+02 -0.62474774014E+00  0.29858561306E+02  0.00000000000E+00 0.  1.
         11    1    1    2    0    0  0.85943953317E+01 -0.56316766283E+02  0.71058052451E+02  0.91075181108E+02  0.00000000000E+00 0. -1.
</event>
<event>
 7    1  0.2440960E-009  0.1007038E+03  0.7561462E-02  0.1278823E+00
         -1   -1    0    0    0  501 -0.00000000000E+00  0.00000000000E+00  0.92429515025E+02  0.92429515025E+02  0.00000000000E+00 0.  1.
          1   -1    0    0  501    0  0.00000000000E+00 -0.00000000000E+00 -0.17927155395E+03  0.17927155395E+03  0.00000000000E+00 0. -1.
         25    2    1    2    0    0 -0.40884358518E+02  0.44230741697E+02 -0.11762755625E+02  0.13933687822E+03  0.12509402036E+03 0.  0.
          5    1    3    3  502    0 -0.63502607128E+02  0.69159686812E+02 -0.32659349352E+02  0.99497481838E+02  0.41800000000E+01 0.  1.
         -5    1    3    3    0  502  0.22618248611E+02 -0.24928945115E+02  0.20896593726E+02  0.39839396383E+02  0.41800000000E+01 0.  1.
        -11    1    1    2    0    0 -0.54243795430E+01 -0.21010869144E+02 -0.77522746743E+02  0.80502526533E+02  0.00000000000E+00 0. -1.
         11    1    1    2    0    0  0.46308738061E+02 -0.23219872553E+02  0.24434634436E+01  0.51861664221E+02  0.00000000000E+00 0.  1.
</event>
<event>
 7    1  0.2440960E-009  0.1255450E+03  0.7561462E-02  0.1234220E+00
          3   -1    0    0  501    0  0.00000000000E+00  0.00000000000E+00  0.14652700998E+03  0.14652700998E+03  0.00000000000E+00 0. -1.
         -3   -1    0    0    0  501 -0.00000000000E+00 -0.00000000000E+00 -0.21122549612E+03  0.21122549612E+03  0.00000000000E+00 0.  1.
         25    2    1    2    0    0 -0.59413884580E+02  0.93276113937E+02 -0.11930951158E+03  0.20521297184E+03  0.12508861317E+03 0.  0.
          5    1    3    3  502    0 -0.36144978267E+00  0.53098823007E+02 -0.12251724274E+03  0.13359477093E+03  0.41800000000E+01 0. -1.
         -5    1    3    3    0  502 -0.59052434798E+02  0.40177290930E+02  0.32077311614E+01  0.71618200907E+02  0.41800000000E+01 0. -1.
        -11    1    1    2    0    0 -0.81295889342E+01 -0.38406633860E+02  0.52419548720E+02  0.65490219336E+02  0.00000000000E+00 0. -1.
         11    1    1    2    0    0  0.67543473515E+02 -0.54869480077E+02  0.21914767232E+01  0.87049314923E+02  0.00000000000E+00 0.  1.
</event>
<event>
 7    1  0.2440960E-009  0.9497227E+02  0.7561462E-02  0.1291239E+00
          1   -1    0    0  501    0  0.00000000000E+00  0.00000000000E+00  0.31175056462E+03  0.31175056462E+03  0.00000000000E+00 0. -1.
         -1   -1    0    0    0  501 -0.00000000000E+00 -0.00000000000E+00 -0.45003133034E+02  0.45003133034E+02  0.00000000000E+00 0.  1.
         25    2    1    2    0    0 -0.18094306671E+02  0.25500000268E+02  0.97533762721E+02  0.16167252553E+03  0.12509003435E+03 0.  0.
          5    1    3    3  502    0  0.44520399976E+02 -0.51416282929E+01  0.43447069562E+01  0.45220031336E+02  0.41800000000E+01 0.  1.
         -5    1    3    3    0  502 -0.62614706647E+02  0.30641628561E+02  0.93189055765E+02  0.11645249419E+03  0.41800000000E+01 0.  1.
        -11    1    1    2    0    0  0.39457605179E+02  0.28957120716E+01  0.14907711130E+03  0.15423771545E+03  0.00000000000E+00 0. -1.
         11    1    1    2    0    0 -0.21363298508E+02 -0.28395712339E+02  0.20136557566E+02  0.40843456673E+02  0.00000000000E+00 0.  1.
</event>
<event>
 7    1  0.2440960E-009  0.9834556E+02  0.7561462E-02  0.1283814E+00
          2   -1    0    0  501    0  0.00000000000E+00  0.00000000000E+00  0.75849260234E+02  0.75849260234E+02  0.00000000000E+00 0. -1.
         -2   -1    0    0    0  501 -0.00000000000E+00 -0.00000000000E+00 -0.18376852408E+03  0.18376852408E+03  0.00000000000E+00 0.  1.
         25    2    1    2    0    0 -0.25043118012E+02  0.39441408183E+02 -0.56997763678E+02  0.14519079306E+03  0.12509531920E+03 0.  0.
          5    1    3    3  502    0 -0.75054649735E+02  0.35202515715E+02 -0.38956010767E+02  0.91692206508E+02  0.41800000000E+01 0. -1.
         -5    1    3    3    0  502  0.50011531723E+02  0.42388924676E+01 -0.18041752910E+02  0.53498586549E+02  0.41800000000E+01 0. -1.
        -11    1    1    2    0    0 -0.22442512179E+01 -0.35709283124E+02  0.18111672686E+02  0.40102646449E+02  0.00000000000E+00 0. -1.
         11    1    1    2    0    0  0.27287369229E+02 -0.37321250595E+01 -0.69033172855E+02  0.74324344809E+02  0.00000000000E+00 0.  1.
</event>
<event>
 7    1  0.2440960E-009  0.2111660E+03  0.7561462E-02  0.1140646E+00
          2   -1    0    0  501    0  0.00000000000E+00  0.00000000000E+00  0.35064356782E+03  0.35064356782E+03  0.00000000000E+00 0. -1.
         -2   -1    0    0    0  501 -0.00000000000E+00 -0.00000000000E+00 -0.15195526446E+03  0.15195526446E+03  0.00000000000E+00 0.  1.
         25    2    1    2    0    0  0.15990970046E+03  0.10817810349E+03  0.17195966643E+03  0.28721300665E+03  0.12509024716E+03 0.  0.
          5    1    3    3  502    0  0.15301934181E+03  0.62651383963E+02  0.78803792042E+02  0.18321469625E+03  0.41800000000E+01 0.  1.
         -5    1    3    3    0  502  0.68903586452E+01  0.45526719523E+02  0.93155874392E+02  0.10399831040E+03  0.41800000000E+01 0.  1.
        -11    1    1    2    0    0 -0.72550610844E+02 -0.99168207536E+02 -0.22849916563E+01  0.12289485631E+03  0.00000000000E+00 0.  1.
         11    1    1    2    0    0 -0.87359089611E+02 -0.90098959511E+01  0.29013628590E+02  0.92490969325E+02  0.00000000000E+00 0. -1.
</event>
<event>
 7    1  0.2440960E-009  0.1733864E+03  0.7561462E-02  0.1174362E+00
          2   -1    0    0  501    0  0.00000000000E+00  0.00000000000E+00  0.49375834545E+03  0.49375834545E+03  0.00000000000E+00 0.  1.
         -2   -1    0    0    0  501 -0.00000000000E+00 -0.00000000000E+00 -0.69483303250E+02  0.69483303250E+02  0.00000000000E+00 0. -1.
         25    2    1    2    0    0 -0.66716066229E+02  0.11882860736E+03  0.31447244348E+03  0.36484600047E+03  0.12509362465E+03 0.  0.
          5    1    3    3  502    0 -0.83118005472E+02  0.13621156378E+03  0.28514573809E+03  0.32678396119E+03  0.41800000000E+01 0. -1.
         -5    1    3    3    0  502  0.16401939243E+02 -0.17382956418E+02  0.29326705396E+02  0.38062039280E+02  0.41800000000E+01 0. -1.
        -11    1    1    2    0    0 -0.17222372878E+02  0.21790743912E+00  0.23329533317E+02  0.28998702315E+02  0.00000000000E+00 0.  1.
         11    1    1    2    0    0  0.83938439107E+02 -0.11904651480E+03  0.86473065398E+02  0.16939694591E+03  0.00000000000E+00 0. -1.
</event>
<event>
 7    1  0.2482167E-009  0.1162166E+03  0.7561462E-02  0.1249472E+00
         -2   -1    0    0    0  501 -0.00000000000E+00  0.00000000000E+00  0.27449331286E+02  0.27449331286E+02  0.00000000000E+00 0.  1.
          2   -1    0    0  501    0  0.00000000000E+00 -0.00000000000E+00 -0.54581002169E+03  0.54581002169E+03  0.00000000000E+00 0. -1.
         25    2    1    2    0    0 -0.36730492698E+02  0.29805458606E+02 -0.21877105410E+03  0.25640786285E+03  0.12508686408E+03 0.  0.
          5    1    3    3  502    0 -0.66217707679E+02 -0.24937526963E+02 -0.12774928448E+03  0.14609591762E+03  0.41800000000E+01 0. -1.
         -5    1    3    3    0  502  0.29487214980E+02  0.54742985570E+02 -0.91021769615E+02  0.11031194523E+03  0.41800000000E+01 0. -1.
        -11    1    1    2    0    0  0.60764565233E+01 -0.57560266037E+02 -0.13016950266E+03  0.14245773750E+03  0.00000000000E+00 0.  1.
         11    1    1    2    0    0  0.30654036175E+02  0.27754807431E+02 -0.16942013364E+03  0.17439375262E+03  0.00000000000E+00 0. -1.
</event>
<event>
 7    1  0.2440960E-009  0.2490668E+03  0.7561462E-02  0.1113896E+00
         -2   -1    0    0    0  501 -0.00000000000E+00  0.00000000000E+00  0.86328242684E+02  0.86328242684E+02  0.00000000000E+00 0.  1.
          2   -1    0    0  501    0  0.00000000000E+00 -0.00000000000E+00 -0.85770085678E+03  0.85770085678E+03  0.00000000000E+00 0. -1.
         25    2    1    2    0    0 -0.70364889787E+02 -0.22225990168E+03 -0.55462601477E+03  0.61449880959E+03  0.12509232238E+03 0.  0.
          5    1    3    3  502    0  0.28053821902E+02 -0.10129017563E+03 -0.17667151188E+03  0.20561374495E+03  0.41800000000E+01 0. -1.
         -5    1    3    3    0  502 -0.98418711689E+02 -0.12096972605E+03 -0.37795450289E+03  0.40888506464E+03  0.41800000000E+01 0. -1.
        -11    1    1    2    0    0 -0.54934028848E+01  0.25068893881E+02 -0.63605565810E+02  0.68587862758E+02  0.00000000000E+00 0.  1.
         11    1    1    2    0    0  0.75858292672E+02  0.19719100780E+03 -0.15314103352E+03  0.26094242712E+03  0.00000000000E+00 0. -1.
</event>
<event>
 7    1  0.2440960E-009  0.1218549E+03  0.7561462E-02  0.1240068E+00
         -2   -1    0    0    0  501 -0.00000000000E+00  0.00000000000E+00  0.40340124607E+03  0.40340124607E+03  0.00000000000E+00 0.  1.
          2   -1    0    0  501    0  0.00000000000E+00 -0.00000000000E+00 -0.61552806993E+02  0.61552806993E+02  0.00000000000E+00 0. -1.
         25    2    1    2    0    0  0.77342052460E+02 -0.46771409296E+02  0.80340931454E+02  0.17398406467E+03  0.12508569737E+03 0.  0.
          5    1    3    3  502    0  0.63719624608E+02 -0.87310801236E+02  0.72721967778E+02  0.13034309943E+03  0.41800000000E+01 0.  1.
         -5    1    3    3    0  502  0.13622427851E+02  0.40539391940E+02  0.76189636760E+01  0.43640965239E+02  0.41800000000E+01 0.  1.
        -11    1    1    2    0    0 -0.62059856514E+02  0.27255557593E+02  0.25698483126E+03  0.26577338977E+03  0.00000000000E+00 0.  1.
         11    1    1    2    0    0 -0.15282195946E+02  0.19515851704E+02  0.45226763608E+01  0.25196598622E+02  0.00000000000E+00 0. -1.
</event>
<event>
 7    1  0.2440960E-009  0.1181301E+03  0.7561462E-02  0.1246214E+00
         -1   -1    0    0    0  501 -0.00000000000E+00  0.00000000000E+00  0.43456562741E+03  0.43456562741E+03  0.00000000000E+00 0.  1.
          1   -1    0    0  501    0  0.00000000000E+00 -0.00000000000E+00 -0.45582788582E+02  0.45582788582E+02  0.00000000000E+00 0. -1.
         25    2    1    2    0    0  0.37560337056E+02  0.64033287856E+02  0.12763448400E+03  0.19350565701E+03  0.12507132731E+03 0.  0.
          5    1    3    3  502    0 -0.33457215413E+02  0.32704619718E+02  0.10090946288E+03  0.11130664631E+03  0.41800000000E+01 0.  1.
         -5    1    3    3    0  502  0.71017552470E+02  0.31328668139E+02  0.26725021119E+02  0.82199010699E+02  0.41800000000E+01 0.  1.
        -11    1    1    2    0    0 -0.29028302790E+02  0.14576530625E+02  0.12375923680E+03  0.12795103087E+03  0.00000000000E+00 0.  1.
         11    1    1    2    0    0 -0.85320342661E+01 -0.78609818482E+02  0.13758911803E+03  0.15869172811E+03  0.00000000000E+00 0. -1.
</event>
<event>
 7    1  0.3245770E-009  0.1428559E+03  0.7561462E-02  0.1209537E+00
         -2   -1    0    0    0  501 -0.00000000000E+00  0.00000000000E+00  0.28861696900E+02  0.28861696900E+02  0.00000000000E+00 0.  1.
          2   -1    0    0  501    0  0.00000000000E+00 -0.00000000000E+00 -0.11410103574E+04  0.11410103574E+04  0.00000000000E+00 0. -1.
         25    2    1    2    0    0  0.11986224228E+03  0.58866438765E+02 -0.76689733993E+03  0.78842289426E+03  0.12508763112E+03 0.  0.
          5    1    3    3  502    0  0.57568364519E+02  0.18092031846E+02 -0.62683760158E+03  0.62974938615E+03  0.41800000000E+01 0. -1.
         -5    1    3    3    0  502  0.62293877765E+02  0.40774406919E+02 -0.14005973835E+03  0.15867350810E+03  0.41800000000E+01 0. -1.
        -11    1    1    2    0    0 -0.10522670223E+03 -0.17368414135E+02 -0.29971961317E+03  0.31812916747E+03  0.00000000000E+00 0.  1.
         11    1    1    2    0    0 -0.14635540057E+02 -0.41498024629E+02 -0.45531707376E+02  0.63319992557E+02  0.00000000000E+00 0. -1.
</event>
<event>
 7    1  0.2440960E-009  0.1052220E+03  0.7561462E-02  0.1269683E+00
         -1   -1    0    0    0  501 -0.00000000000E+00  0.00000000000E+00  0.62142109407E+02  0.62142109407E+02  0.00000000000E+00 0.  1.
          1   -1    0    0  501    0  0.00000000000E+00 -0.00000000000E+00 -0.33118103576E+03  0.33118103576E+03  0.00000000000E+00 0. -1.
         25    2    1    2    0    0 -0.69960385920E+02  0.50934947675E+02 -0.95399202182E+02  0.17954775570E+03  0.12509022467E+03 0.  0.
          5    1    3    3  502    0 -0.16677487177E+02  0.10131292827E+02  0.30714130671E+02  0.36628020636E+02  0.41800000000E+01 0.  1.
         -5    1    3    3    0  502 -0.53282898743E+02  0.40803654848E+02 -0.12611333285E+03  0.14291973506E+03  0.41800000000E+01 0.  1.
        -11    1    1    2    0    0 -0.83915544565E+00 -0.52423767933E+02 -0.58089671590E+02  0.78251936536E+02  0.00000000000E+00 0. -1.
         11    1    1    2    0    0  0.70799541365E+02  0.14888202578E+01 -0.11555005259E+03  0.13552345294E+03  0.00000000000E+00 0.  1.
</event>
<event>
 7    1  0.2440960E-009  0.9417398E+02  0.7561462E-02  0.1293047E+00
          1   -1    0    0  501    0  0.00000000000E+00  0.00000000000E+00  0.82486577953E+02  0.82486577953E+02  0.00000000000E+00 0. -1.
         -1   -1    0    0    0  501 -0.00000000000E+00 -0.00000000000E+00 -0.18254709423E+03  0.18254709423E+03  0.00000000000E+00 0.  1.
         25    2    1    2    0    0 -0.23756749647E+02 -0.51564669417E+02 -0.45103864758E+02  0.14458579446E+03  0.12508954815E+03 0.  0.
          5    1    3    3  502    0 -0.27032679012E+01 -0.59476046207E+02 -0.81850749453E+02  0.10130017431E+03  0.41800000000E+01 0. -1.
         -5    1    3    3    0  502 -0.21053481746E+02  0.79113767896E+01  0.36746884695E+02  0.43285620143E+02  0.41800000000E+01 0. -1.
        -11    1    1    2    0    0 -0.24984351881E+02  0.51283858791E+02 -0.19935541101E+02  0.60429113930E+02  0.00000000000E+00 0. -1.
         11    1    1    2    0    0  0.48741101529E+02  0.28081062683E+00 -0.35021110417E+02  0.60018763797E+02  0.00000000000E+00 0.  1.
</event>
<event>
 7    1  0.2440960E-009  0.1171841E+03  0.7561462E-02  0.1247816E+00
          2   -1    0    0  501    0  0.00000000000E+00  0.00000000000E+00  0.54326640314E+03  0.54326640314E+03  0.00000000000E+00 0. -1.
         -2   -1    0    0    0  501 -0.00000000000E+00 -0.00000000000E+00 -0.27488801887E+02  0.27488801887E+02  0.00000000000E+00 0.  1.
         25    2    1    2    0    0 -0.47688913159E+02  0.31294120083E+02  0.31449044083E+03  0.34322852617E+03  0.12509208373E+03 0.  0.
          5    1    3    3  502    0 -0.68231145137E+02  0.64268341499E+02  0.25808650804E+03  0.27461250321E+03  0.41800000000E+01 0.  1.
         -5    1    3    3    0  502  0.20542231978E+02 -0.32974221417E+02  0.56403932795E+02  0.68616022965E+02  0.41800000000E+01 0.  1.
        -11    1    1    2    0    0  0.26243368705E+01  0.27368682672E+02  0.88267711093E+02  0.92450639570E+02  0.00000000000E+00 0. -1.
         11    1    1    2    0    0  0.45064576288E+02 -0.58662802754E+02  0.11301944932E+03  0.13507603928E+03  0.00000000000E+00 0.  1.
</event>
<event>
 7    1  0.2440960E-009  0.1377110E+03  0.7561462E-02  0.1216443E+00
         -1   -1    0    0    0  501 -0.00000000000E+00  0.00000000000E+00  0.12604584519E+03  0.12604584519E+03  0.00000000000E+00 0.  1.
          1   -1    0    0  501    0  0.00000000000E+00 -0.00000000000E+00 -0.22647408830E+03  0.22647408830E+03  0.00000000000E+00 0. -1.
         25    2    1    2    0    0 -0.10776121294E+03  0.39963123707E+01 -0.12712264190E+03  0.20841417924E+03  0.12509138459E+03 0.  0.
          5    1    3    3  502    0 -0.48594182942E+01 -0.48660276918E+02 -0.31305115628E+02  0.58214423989E+02  0.41800000000E+01 0.  1.
         -5    1    3    3    0  502 -0.10290179464E+03  0.52656589289E+02 -0.95817526274E+02  0.15019975525E+03  0.41800000000E+01 0.  1.
        -11    1    1    2    0    0  0.90055339470E+02 -0.12696500542E+02 -0.20260054820E+02  0.93175292403E+02  0.00000000000E+00 0. -1.
         11    1    1    2    0    0  0.17705873468E+02  0.87001881712E+01  0.46954453615E+02  0.50930461845E+02  0.00000000000E+00 0.  1.
</event>
<event>
 7    1  0.2440960E-009  0.1048510E+03  0.7561462E-02  0.1270414E+00
         -2   -1    0    0    0  501 -0.00000000000E+00  0.00000000000E+00  0.34122349632E+02  0.34122349632E+02  0.00000000000E+00 0.  1.
          2   -1    0    0  501    0  0.00000000000E+00 -0.00000000000E+00 -0.36535783495E+03  0.36535783495E+03  0.00000000000E+00 0. -1.
         25    2    1    2    0    0  0.21342308801E+02 -0.12780774119E+01 -0.16064984204E+03  0.20472447510E+03  0.12508641546E+03 0.  0.
          5    1    3    3  502    0 -0.27166581976E+02 -0.50272363892E+02 -0.63577882703E+02  0.85585941115E+02  0.41800000000E+01 0. -1.
         -5    1    3    3    0  502  0.48508890777E+02  0.48994286480E+02 -0.97071959332E+02  0.11913853399E+03  0.41800000000E+01 0. -1.
        -11    1    1    2    0    0 -0.20970386588E+02  0.39706172137E+02 -0.13539808263E+03  0.14264984402E+03  0.00000000000E+00 0. -1.
         11    1    1    2    0    0 -0.37192221342E+00 -0.38428094725E+02 -0.35187560648E+02  0.52105865454E+02  0.00000000000E+00 0.  1.
</event>
<event>
 7    1  0.2440960E-009  0.1151305E+03  0.7561462E-02  0.1251353E+00
         -2   -1    0    0    0  501 -0.00000000000E+00  0.00000000000E+00  0.15926364173E+02  0.15926364173E+02  0.00000000000E+00 0.  1.
          2   -1    0    0  501    0  0.00000000000E+00 -0.00000000000E+00 -0.19738139515E+04  0.19738139515E+04  0.00000000000E+00 0. -1.
         25    2    1    2    0    0  0.21045758384E+01 -0.10352039479E+03 -0.15829678243E+04  0.15912740782E+04  0.12508060630E+03 0.  0.
          5    1    3    3  502    0  0.67134926426E+01 -0.97574289170E+02 -0.15785821309E+04  0.15816146273E+04  0.41800000000E+01 0. -1.
         -5    1    3    3    0  502 -0.46089168042E+01 -0.59461056205E+01 -0.43856933465E+01  0.96594509310E+01  0.41800000000E+01 0. -1.
        -11    1    1    2    0    0 -0.29439344206E+02  0.86942124033E+02 -0.19248070638E+03  0.21324734523E+03  0.00000000000E+00 0.  1.
         11    1    1    2    0    0  0.27334768367E+02  0.16578270758E+02 -0.18243905671E+03  0.18521889222E+03  0.00000000000E+00 0. -1.
</event>
<event>
 7    1  0.2440960E-009  0.1141633E+03  0.7561462E-02  0.1253049E+00
         -2   -1    0    0    0  501 -0.00000000000E+00  0.00000000000E+00  0.67814724733E+02  0.67814724733E+02  0.00000000000E+00 0.  1.
          2   -1    0    0  501    0  0.00000000000E+00 -0.00000000000E+00 -0.22556981282E+03  0.22556981282E+03  0.00000000000E+00 0. -1.
         25    2    1    2    0    0  0.14769231533E+02 -0.50787789119E+02 -0.92566014761E+02  0.16435668560E+03  0.12508846185E+03 0.  0.
          5    1    3    3  502    0  0.49584437968E+01  0.39395447461E+02 -0.50220987646E+02  0.64157676436E+02  0.41800000000E+01 0.  1.
         -5    1    3    3    0  502  0.98107877364E+01 -0.90183236581E+02 -0.42345027115E+02  0.10019900916E+03  0.41800000000E+01 0.  1.
        -11    1    1    2    0    0 -0.39958132597E+02 -0.10325588266E+01  0.26055250658E+01  0.40056301617E+02  0.00000000000E+00 0.  1.
         11    1    1    2    0    0  0.25188901063E+02  0.51820347946E+02 -0.67794598393E+02  0.88971550336E+02  0.00000000000E+00 0. -1.
</event>
<event>
 7    1  0.2440960E-009  0.2081257E+03  0.7561462E-02  0.1143059E+00
          2   -1    0    0  501    0  0.00000000000E+00  0.00000000000E+00  0.62456903364E+03  0.62456903364E+03  0.00000000000E+00 0. -1.
         -2   -1    0    0    0  501 -0.00000000000E+00 -0.00000000000E+00 -0.11183534249E+03  0.11183534249E+03  0.00000000000E+00 0.  1.
         25    2    1    2    0    0 -0.18439907295E+03  0.20061901537E+02  0.47575366181E+03  0.52573236188E+03  0.12508985409E+03 0.  0.
          5    1    3    3  502    0 -0.77089696912E+02  0.59438905795E+02  0.13643707838E+03  0.16765546114E+03  0.41800000000E+01 0.  1.
         -5    1    3    3    0  502 -0.10730937604E+03 -0.39377004258E+02  0.33931658344E+03  0.35807690074E+03  0.41800000000E+01 0.  1.
        -11    1    1    2    0    0  0.12922377678E+03 -0.53564373727E+02  0.85736657058E+01  0.14014790174E+03  0.00000000000E+00 0.  1.
         11    1    1    2    0    0  0.55175296170E+02  0.33502472190E+02  0.28406363630E+02  0.70524112507E+02  0.00000000000E+00 0. -1.
</event>
<event>
 7    1  0.2440960E-009  0.1280975E+03  0.7561462E-02  0.1230306E+00
          2   -1    0    0  501    0  0.00000000000E+00  0.00000000000E+00  0.98094997286E+02  0.98094997286E+02  0.00000000000E+00 0. -1.
         -2   -1    0    0    0  501 -0.00000000000E+00 -0.00000000000E+00 -0.20583355878E+03  0.20583355878E+03  0.00000000000E+00 0.  1.
         25    2    1    2    0    0 -0.61533618216E+02 -0.46819291532E+02 -0.11668478871E+03  0.18772669517E+03  0.12509012724E+03 0.  0.
          5    1    3    3  502    0  0.23867291035E+02  0.23051303084E+02 -0.11889751664E+02  0.35494348140E+02  0.41800000000E+01 0. -1.
         -5    1    3    3    0  502 -0.85400909251E+02 -0.69870594616E+02 -0.10479503705E+03  0.15223234703E+03  0.41800000000E+01 0. -1.
        -11    1    1    2    0    0 -0.18712312413E+02 -0.13100586219E+01  0.12534200583E+02  0.22560431593E+02  0.00000000000E+00 0. -1.
         11    1    1    2    0    0  0.80245930628E+02  0.48129350154E+02 -0.35879733660E+01  0.93641429301E+02  0.00000000000E+00 0.  1.
</event>
<event>
 7    1  0.2440960E-009  0.2454014E+03  0.7561462E-02  0.1116246E+00
         -2   -1    0    0    0  501 -0.00000000000E+00  0.00000000000E+00  0.71010152030E+02  0.71010152030E+02  0.00000000000E+00 0.  1.
          2   -1    0    0  501    0  0.00000000000E+00 -0.00000000000E+00 -0.99264259373E+03  0.99264259373E+03  0.00000000000E+00 0. -1.
         25    2    1    2    0    0 -0.14832601481E+03 -0.18539803657E+03 -0.38724237795E+03  0.47114446126E+03  0.12508958975E+03 0.  0.
          5    1    3    3  502    0 -0.12658297741E+03 -0.13972756527E+03 -0.37374081518E+03  0.41862478665E+03  0.41800000000E+01 0. -1.
         -5    1    3    3    0  502 -0.21743037399E+02 -0.45670471298E+02 -0.13501562767E+02  0.52519674609E+02  0.41800000000E+01 0. -1.
        -11    1    1    2    0    0  0.77439351804E+02  0.15707568676E+03 -0.31778113126E+03  0.36284221360E+03  0.00000000000E+00 0. -1.
         11    1    1    2    0    0  0.70886663008E+02  0.28322349804E+02 -0.21660893249E+03  0.22966607090E+03  0.00000000000E+00 0.  1.
</event>
<event>
 7    1  0.2440960E-009  0.1740187E+03  0.7561462E-02  0.1173721E+00
         -1   -1    0    0    0  501 -0.00000000000E+00  0.00000000000E+00  0.80688908947E+02  0.80688908947E+02  0.00000000000E+00 0.  1.
          1   -1    0    0  501    0  0.00000000000E+00 -0.00000000000E+00 -0.37983119910E+03  0.37983119910E+03  0.00000000000E+00 0. -1.
         25    2    1    2    0    0 -0.12760536838E+03 -0.49669139082E+02 -0.16831847374E+03  0.25045821629E+03  0.12509219037E+03 0.  0.
          5    1    3    3  502    0 -0.41872722510E+01  0.34007555072E+02 -0.46240957861E+02  0.57703948173E+02  0.41800000000E+01 0.  1.
         -5    1    3    3    0  502 -0.12341809613E+03 -0.83676694154E+02 -0.12207751588E+03  0.19275426812E+03  0.41800000000E+01 0.  1.
        -11    1    1    2    0    0  0.11210721918E+03 -0.22195702503E+00 -0.89439033380E+02  0.14341345317E+03  0.00000000000E+00 0. -1.
         11    1    1    2    0    0  0.15498149193E+02  0.49891096107E+02 -0.41384783035E+02  0.66648438586E+02  0.00000000000E+00 0.  1.
</event>
<event>
 7    1  0.2440960E-009  0.5758174E+03  0.7561462E-02  0.9956888E-01
         -2   -1    0    0    0  501 -0.00000000000E+00  0.00000000000E+00  0.35233100671E+03  0.35233100671E+03  0.00000000000E+00 0.  1.
          2   -1    0    0  501    0  0.00000000000E+00 -0.00000000000E+00 -0.10209484966E+04  0.10209484966E+04  0.00000000000E+00 0. -1.
         25    2    1    2    0    0 -0.52640389327E+03 -0.21484535907E+03 -0.15869343378E+03  0.60339743191E+03  0.12508104469E+03 0.  0.
          5    1    3    3  502    0 -0.27860019601E+03 -0.16077536608E+03 -0.13416335664E+03  0.34854564439E+03  0.41800000000E+01 0.  1.
         -5    1    3    3    0  502 -0.24780369726E+03 -0.54069992991E+02 -0.24530077138E+02  0.25485178752E+03  0.41800000000E+01 0.  1.
        -11    1    1    2    0    0  0.86622990798E+02  0.75612199043E+02 -0.11510532463E+03  0.16269598316E+03  0.00000000000E+00 0.  1.
         11    1    1    2    0    0  0.43978090247E+03  0.13923316002E+03 -0.39481873148E+03  0.60718608824E+03  0.00000000000E+00 0. -1.
</event>
<event>
 7    1  0.2440960E-009  0.9030615E+02  0.7561462E-02  0.1302112E+00
          2   -1    0    0  501    0  0.00000000000E+00  0.00000000000E+00  0.21519532932E+03  0.21519532932E+03  0.00000000000E+00 0.  1.
         -2   -1    0    0    0  501 -0.00000000000E+00 -0.00000000000E+00 -0.86927827606E+02  0.86927827606E+02  0.00000000000E+00 0. -1.
         25    2    1    2    0    0 -0.66025512786E+02 -0.18521875601E+02  0.21578206272E+02  0.14427488965E+03  0.12508875482E+03 0.  0.
          5    1    3    3  502    0 -0.49390432813E+02 -0.53279320225E+02 -0.30879630065E+02  0.79051405870E+02  0.41800000000E+01 0. -1.
         -5    1    3    3    0  502 -0.16635079974E+02  0.34757444624E+02  0.52457836338E+02  0.65223483775E+02  0.41800000000E+01 0. -1.
        -11    1    1    2    0    0  0.30615307573E+02  0.12928316849E+02 -0.10853252308E+02  0.34960427915E+02  0.00000000000E+00 0. -1.
         11    1    1    2    0    0  0.35410205213E+02  0.55935587518E+01  0.11754254775E+03  0.12288783936E+03  0.00000000000E+00 0.  1.
</event>
<event>
 7    1  0.2440960E-009  0.1175559E+03  0.7561462E-02  0.1247184E+00
          3   -1    0    0  501    0  0.00000000000E+00  0.00000000000E+00  0.17142914218E+03  0.17142914218E+03  0.00000000000E+00 0. -1.
         -3   -1    0    0    0  501 -0.00000000000E+00 -0.00000000000E+00 -0.12455563447E+03  0.12455563447E+03  0.00000000000E+00 0.  1.
         25    2    1    2    0    0 -0.93876031556E+02  0.58086281701E+01  0.16220859860E+01  0.15651342757E+03  0.12508945753E+03 0.  0.
          5    1    3    3  502    0 -0.32942754255E+02 -0.48657323972E+02 -0.33152670483E+02  0.67596835682E+02  0.41800000000E+01 0. -1.
         -5    1    3    3    0  502 -0.60933277301E+02  0.54465952142E+02  0.34774756469E+02  0.88916591887E+02  0.41800000000E+01 0. -1.
        -11    1    1    2    0    0  0.29611438088E+02  0.17383027209E+01  0.65307497836E+02  0.71728155110E+02  0.00000000000E+00 0. -1.
         11    1    1    2    0    0  0.64264593468E+02 -0.75469308910E+01 -0.20056076113E+02  0.67743193965E+02  0.00000000000E+00 0.  1.
</event>
<event>
 7    1  0.2440960E-009  0.6537389E+02  0.7561462E-02  0.1376571E+00
          1   -1    0    0  501    0  0.00000000000E+00  0.00000000000E+00  0.27625176647E+03  0.27625176647E+03  0.00000000000E+00 0. -1.
         -1   -1    0    0    0  501 -0.00000000000E+00 -0.00000000000E+00 -0.70859713465E+02  0.70859713465E+02  0.00000000000E+00 0.  1.
         25    2    1    2    0    0 -0.35948272823E+02  0.13358455418E+01  0.39776539796E+01  0.13021958008E+03  0.12508898634E+03 0.  0.
          5    1    3    3  502    0 -0.44007617033E+02 -0.37355398732E+01 -0.54812928312E+02  0.70516339420E+02  0.41800000000E+01 0. -1.
         -5    1    3    3    0  502  0.80593442106E+01  0.50713854149E+01  0.58790582291E+02  0.59703240660E+02  0.41800000000E+01 0. -1.
        -11    1    1    2    0    0  0.41968281186E+02  0.25080696261E+02  0.16080996873E+03  0.16807802948E+03  0.00000000000E+00 0. -1.
         11    1    1    2    0    0 -0.60200083627E+01 -0.26416541803E+02  0.40604430293E+02  0.48813870374E+02  0.00000000000E+00 0.  1.
</event>
<event>
 7    1  0.2440960E-009  0.1139732E+03  0.7561462E-02  0.1253384E+00
          2   -1    0    0  501    0  0.00000000000E+00  0.00000000000E+00  0.60148856994E+03  0.60148856994E+03  0.00000000000E+00 0. -1.
         -2   -1    0    0    0  501 -0.00000000000E+00 -0.00000000000E+00 -0.32996856834E+02  0.32996856834E+02  0.00000000000E+00 0.  1.
         25    2    1    2    0    0 -0.50055304068E+00  0.36811303379E+02  0.49572844014E+03  0.51259084186E+03  0.12508941678E+03 0.  0.
          5    1    3    3  502    0 -0.34972771559E+02  0.72497987695E+02  0.30590205270E+03  0.31634252198E+03  0.41800000000E+01 0. -1.
         -5    1    3    3    0  502  0.34472218518E+02 -0.35686684316E+02  0.18982638744E+03  0.19624831988E+03  0.41800000000E+01 0. -1.
        -11    1    1    2    0    0  0.44874724729E+02 -0.26065558604E+02  0.34417866464E+02  0.62271532796E+02  0.00000000000E+00 0. -1.
         11    1    1    2    0    0 -0.44374171688E+02 -0.10745744775E+02  0.38345406510E+02  0.59623052121E+02  0.00000000000E+00 0.  1.
</event>
<event>
 7    1  0.2440960E-009  0.1139757E+03  0.7561462E-02  0.1253380E+00
         -1   -1    0    0    0  501 -0.00000000000E+00  0.00000000000E+00  0.16771955172E+03  0.16771955172E+03  0.00000000000E+00 0. -1.
          1   -1    0    0  501    0  0.00000000000E+00 -0.00000000000E+00 -0.12728768372E+03  0.12728768372E+03  0.00000000000E+00 0.  1.
         25    2    1    2    0    0 -0.60378504353E+02  0.70228182420E+02 -0.83837599166E+01  0.15586992633E+03  0.12509030782E+03 0.  0.
          5    1    3    3  502    0 -0.24373665650E+02  0.66074902710E+01  0.53946563821E+02  0.59711294183E+02  0.41800000000E+01 0. -1.
         -5    1    3    3    0  502 -0.36004838702E+02  0.63620692149E+02 -0.62330323737E+02  0.96158632149E+02  0.41800000000E+01 0. -1.
        -11    1    1    2    0    0  0.33323867706E+02  0.17280118843E+02  0.59436039359E+01  0.38005382433E+02  0.00000000000E+00 0. -1.
         11    1    1    2    0    0  0.27054636646E+02 -0.87508301263E+02  0.42872023979E+02  0.10113192668E+03  0.00000000000E+00 0.  1.
</event>
<event>
 7    1  0.2440960E-009  0.1197506E+03  0.7561462E-02  0.1243509E+00
          1   -1    0    0  501    0  0.00000000000E+00  0.00000000000E+00  0.51768088117E+02  0.51768088117E+02  0.00000000000E+00 0. -1.
         -1   -1    0    0    0  501 -0.00000000000E+00 -0.00000000000E+00 -0.41843209513E+03  0.41843209513E+03  0.00000000000E+00 0.  1.
         25    2    1    2    0    0  0.55905047859E+02 -0.78824630738E+02 -0.18727045201E+03  0.24506435003E+03  0.12509043398E+03 0.  0.
          5    1    3    3  502    0  0.42769217162E+02 -0.22717624255E+02 -0.18045628901E+03  0.18688831165E+03  0.41800000000E+01 0.  1.
         -5    1    3    3    0  502  0.13135830697E+02 -0.56107006482E+02 -0.68141630050E+01  0.58176038383E+02  0.41800000000E+01 0.  1.
        -11    1    1    2    0    0 -0.63539452283E+02  0.10540504760E+02 -0.11007798347E+03  0.12753637395E+03  0.00000000000E+00 0.  1.
         11    1    1    2    0    0  0.76344044240E+01  0.68284125978E+02 -0.69315571536E+02  0.97599459265E+02  0.00000000000E+00 0. -1.
</event>
<event>
 7    1  0.2440960E-009  0.1509346E+03  0.7561462E-02  0.1199329E+00
          1   -1    0    0  501    0  0.00000000000E+00  0.00000000000E+00  0.64278371964E+03  0.64278371964E+03  0.00000000000E+00 0. -1.
         -1   -1    0    0    0  501 -0.00000000000E+00 -0.00000000000E+00 -0.37858972237E+02  0.37858972237E+02  0.00000000000E+00 0.  1.
         25    2    1    2    0    0 -0.91920549434E+02 -0.62536874093E+02  0.30299588895E+03  0.34614199223E+03  0.12509005571E+03 0.  0.
          5    1    3    3  502    0 -0.10067712458E+03 -0.86600160546E+02  0.20134266030E+03  0.24122978771E+03  0.41800000000E+01 0. -1.
         -5    1    3    3    0  502  0.87565751505E+01  0.24063286453E+02  0.10165322865E+03  0.10491220453E+03  0.41800000000E+01 0. -1.
        -11    1    1    2    0    0  0.10560796357E+03  0.33228760168E+02  0.21677954560E+03  0.24341438713E+03  0.00000000000E+00 0.  1.
         11    1    1    2    0    0 -0.13687414140E+02  0.29308113925E+02  0.85149312851E+02  0.91086312510E+02  0.00000000000E+00 0. -1.
</event>
<event>
 7    1  0.2440960E-009  0.8702209E+02  0.7561462E-02  0.1310228E+00
         -2   -1    0    0    0  501 -0.00000000000E+00  0.00000000000E+00  0.15615751168E+03  0.15615751168E+03  0.00000000000E+00 0. -1.
          2   -1    0    0  501    0  0.00000000000E+00 -0.00000000000E+00 -0.79470497911E+02  0.79470497911E+02  0.00000000000E+00 0.  1.
         25    2    1    2    0    0  0.12495947713E+02  0.19832285115E+02  0.58124666817E+02  0.13991610071E+03  0.12509424488E+03 0.  0.
          5    1    3    3  502    0 -0.41109363571E+02  0.61721515839E+01  0.71535080892E+02  0.82842111433E+02  0.41800000000E+01 0.  1.
         -5    1    3    3    0  502  0.53605311284E+02  0.13660133531E+02 -0.13410414074E+02  0.57073989273E+02  0.41800000000E+01 0.  1.
        -11    1    1    2    0    0 -0.29027483104E+02  0.18925504834E+02 -0.18776521124E+02  0.39412272887E+02  0.00000000000E+00 0.  1.
         11    1    1    2    0    0  0.16531535391E+02 -0.38757789949E+02  0.37338868073E+02  0.56299635995E+02  0.00000000000E+00 0. -1.
</event>
<event>
 7    1  0.2440960E-009  0.1235529E+03  0.7561462E-02  0.1237348E+00
          4   -1    0    0  501    0  0.00000000000E+00  0.00000000000E+00  0.10443382594E+04  0.10443382594E+04  0.00000000000E+00 0. -1.
         -4   -1    0    0    0  501 -0.00000000000E+00 -0.00000000000E+00 -0.16151643290E+02  0.16151643290E+02  0.00000000000E+00 0.  1.
         25    2    1    2    0    0  0.47767439834E+02 -0.54861837561E+02  0.57134347746E+03  0.58938318189E+03  0.12509043261E+03 0.  0.
          5    1    3    3  502    0  0.78356636616E+02 -0.11775061168E+02  0.21609395621E+03  0.23020096628E+03  0.41800000000E+01 0.  1.
         -5    1    3    3    0  502 -0.30589196782E+02 -0.43086776393E+02  0.35524952125E+03  0.35918221560E+03  0.41800000000E+01 0.  1.
        -11    1    1    2    0    0 -0.72651108446E+02  0.52746811344E+02  0.34285407761E+03  0.35441406320E+03  0.00000000000E+00 0.  1.
         11    1    1    2    0    0  0.24883668613E+02  0.21150262171E+01  0.11398906107E+03  0.11669265763E+03  0.00000000000E+00 0. -1.
</event>
<event>
 7    1  0.2440960E-009  0.1437922E+03  0.7561462E-02  0.1208316E+00
         -2   -1    0    0    0  501 -0.00000000000E+00  0.00000000000E+00  0.46492553921E+02  0.46492553921E+02  0.00000000000E+00 0.  1.
          2   -1    0    0  501    0  0.00000000000E+00 -0.00000000000E+00 -0.60057993896E+03  0.60057993896E+03  0.00000000000E+00 0. -1.
         25    2    1    2    0    0 -0.23685596682E+02 -0.12492123575E+03 -0.29923556452E+03  0.34836182876E+03  0.12509083911E+03 0.  0.
          5    1    3    3  502    0 -0.13034769202E+02 -0.85978414762E+01 -0.18233676712E+03  0.18305189737E+03  0.41800000000E+01 0.  1.
         -5    1    3    3    0  502 -0.10650827479E+02 -0.11632339428E+03 -0.11689879740E+03  0.16530993139E+03  0.41800000000E+01 0.  1.
        -11    1    1    2    0    0 -0.32520477414E+02  0.30130547846E+02 -0.56680310714E+02  0.71958939593E+02  0.00000000000E+00 0. -1.
         11    1    1    2    0    0  0.56206074095E+02  0.94790687908E+02 -0.19817150981E+03  0.22675172453E+03  0.00000000000E+00 0.  1.
</event>
<event>
 7    1  0.2440960E-009  0.9338324E+02  0.7561462E-02  0.1294860E+00
          2   -1    0    0  501    0  0.00000000000E+00  0.00000000000E+00  0.75305776425E+03  0.75305776425E+03  0.00000000000E+00 0. -1.
         -2   -1    0    0    0  501 -0.00000000000E+00 -0.00000000000E+00 -0.17686497591E+02  0.17686497591E+02  0.00000000000E+00 0.  1.
         25    2    1    2    0    0 -0.15988626633E+02 -0.25128700884E+02  0.38869589764E+03  0.40941167333E+03  0.12508528943E+03 0.  0.
          5    1    3    3  502    0 -0.21137126400E+01 -0.56849761231E+02  0.35930348170E+03  0.36380328131E+03  0.41800000000E+01 0. -1.
         -5    1    3    3    0  502 -0.13874913993E+02  0.31721060347E+02  0.29392415937E+02  0.45608392017E+02  0.41800000000E+01 0. -1.
        -11    1    1    2    0    0 -0.37269752547E+02  0.37394704922E+01  0.77122122161E+02  0.85737038794E+02  0.00000000000E+00 0. -1.
         11    1    1    2    0    0  0.53258379180E+02  0.21389230392E+02  0.26955324686E+03  0.27559554972E+03  0.00000000000E+00 0.  1.
</event>
<event>
 7    1  0.2440960E-009  0.1410257E+03  0.7561462E-02  0.1211955E+00
          2   -1    0    0  501    0  0.00000000000E+00  0.00000000000E+00  0.14278757696E+04  0.14278757696E+04  0.00000000000E+00 0. -1.
         -2   -1    0    0    0  501 -0.00000000000E+00 -0.00000000000E+00 -0.17521342442E+02  0.17521342442E+02  0.00000000000E+00 0.  1.
         25    2    1    2    0    0  0.25593358920E+02  0.10739022407E+03  0.70598145998E+03  0.72542756830E+03  0.12509058623E+03 0.  0.
          5    1    3    3  502    0  0.48792379820E+02  0.10418334044E+03  0.68200149869E+03  0.69164903048E+03  0.41800000000E+01 0.  1.
         -5    1    3    3    0  502 -0.23199020899E+02  0.32068836353E+01  0.23979961289E+02  0.33778537813E+02  0.41800000000E+01 0.  1.
        -11    1    1    2    0    0  0.54166735091E+01  0.15490249402E+02  0.34377209399E+02  0.38093053232E+02  0.00000000000E+00 0.  1.
         11    1    1    2    0    0 -0.31010032429E+02 -0.12288047348E+03  0.66999575777E+03  0.68187649051E+03  0.00000000000E+00 0. -1.
</event>
<event>
 7    1  0.2440960E-009  0.1528240E+03  0.7561462E-02  0.1197045E+00
         -3   -1    0    0    0  501 -0.00000000000E+00  0.00000000000E+00  0.42971328742E+02  0.42971328742E+02  0.00000000000E+00 0.  1.
          3   -1    0    0  501    0  0.00000000000E+00 -0.00000000000E+00 -0.74289900557E+03  0.74289900557E+03  0.00000000000E+00 0. -1.
         25    2    1    2    0    0 -0.13650893961E+03 -0.28853094323E+02 -0.37079543186E+03  0.41545590861E+03  0.12508864083E+03 0.  0.
          5    1    3    3  502    0 -0.13274256668E+03 -0.89454286412E+01 -0.37163240386E+03  0.39475147334E+03  0.41800000000E+01 0.  1.
         -5    1    3    3    0  502 -0.37663729278E+01 -0.19907665682E+02  0.83697199759E+00  0.20704435275E+02  0.41800000000E+01 0.  1.
        -11    1    1    2    0    0  0.60992323180E+02 -0.17236185652E+02 -0.60622983541E+02  0.87705733656E+02  0.00000000000E+00 0.  1.
         11    1    1    2    0    0  0.75516616433E+02  0.46089279975E+02 -0.26850926142E+03  0.28270869204E+03  0.00000000000E+00 0. -1.
</event>
<event>
 7    1  0.2440960E-009  0.7384071E+02  0.7561462E-02  0.1347499E+00
         -1   -1    0    0    0  501 -0.00000000000E+00  0.00000000000E+00  0.52831113957E+03  0.52831113957E+03  0.00000000000E+00 0.  1.
          1   -1    0    0  501    0  0.00000000000E+00 -0.00000000000E+00 -0.42150442475E+02  0.42150442475E+02  0.00000000000E+00 0. -1.
         25    2    1    2    0    0 -0.58874978390E+00  0.41818472001E+02  0.44140819808E+03  0.46069253131E+03  0.12508908763E+03 0.  0.
          5    1    3    3  502    0  0.25061062138E+02  0.35976873650E+02  0.43534910201E+02  0.61928612767E+02  0.41800000000E+01 0.  1.
         -5    1    3    3    0  502 -0.25649811922E+02  0.58415983510E+01  0.39787328788E+03  0.39876391854E+03  0.41800000000E+01 0.  1.
        -11    1    1    2    0    0  0.29917620042E+02 -0.36498796901E+02 -0.92452440868E+01  0.48090546913E+02  0.00000000000E+00 0. -1.
         11    1    1    2    0    0 -0.29328870258E+02 -0.53196751003E+01  0.53997743105E+02  0.61678503826E+02  0.00000000000E+00 0.  1.
</event>
<event>
 7    1  0.2440960E-009  0.7106480E+02  0.7561462E-02  0.1356509E+00
         -1   -1    0    0    0  501 -0.00000000000E+00  0.00000000000E+00  0.77107822077E+02  0.77107822077E+02  0.00000000000E+00 0.  1.
          1   -1    0    0  501    0  0.00000000000E+00 -0.00000000000E+00 -0.18871554443E+03  0.18871554443E+03  0.00000000000E+00 0. -1.
         25    2    1    2    0    0 -0.17220055589E+02 -0.38098760284E+02 -0.27397457359E+02  0.13470962772E+03  0.12509203524E+03 0.  0.
          5    1    3    3  502    0 -0.23644702207E+02 -0.45882933624E+01 -0.73353243513E+02  0.77319435541E+02  0.41800000000E+01 0.  1.
         -5    1    3    3    0  502  0.64246466176E+01 -0.33510466921E+02  0.45955786154E+02  0.57390192181E+02  0.41800000000E+01 0.  1.
        -11    1    1    2    0    0  0.31821281149E+02 -0.97495906383E+01 -0.13612639387E+00  0.33281631300E+02  0.00000000000E+00 0. -1.
         11    1    1    2    0    0 -0.14601225560E+02  0.47848350922E+02 -0.84074138605E+02  0.97832107490E+02  0.00000000000E+00 0.  1.
</event>
<event>
 7    1  0.2440960E-009  0.1555074E+03  0.7561462E-02  0.1193864E+00
         -2   -1    0    0    0  501 -0.00000000000E+00  0.00000000000E+00  0.14748975097E+03  0.14748975097E+03  0.00000000000E+00 0.  1.
          2   -1    0    0  501    0  0.00000000000E+00 -0.00000000000E+00 -0.39577193455E+03  0.39577193455E+03  0.00000000000E+00 0. -1.
         25    2    1    2    0    0 -0.81483404705E+02 -0.12767177529E+03  0.44387913974E+02  0.20138813960E+03  0.12508904196E+03 0.  0.
          5    1    3    3  502    0 -0.79621904757E+02 -0.13021330427E+03 -0.39812236900E+01  0.15273661928E+03  0.41800000000E+01 0. -1.
         -5    1    3    3    0  502 -0.18614999480E+01  0.25415289796E+01  0.48369137664E+02  0.48651520326E+02  0.41800000000E+01 0. -1.
        -11    1    1    2    0    0  0.49743954777E+02  0.57187229475E+02 -0.59909578927E+02  0.96612617701E+02  0.00000000000E+00 0.  1.
         11    1    1    2    0    0  0.31739449928E+02  0.70484545817E+02 -0.23276051862E+03  0.24526092822E+03  0.00000000000E+00 0. -1.
</event>
<event>
 7    1  0.2440960E-009  0.7222968E+02  0.7561462E-02  0.1352671E+00
          1   -1    0    0  501    0  0.00000000000E+00  0.00000000000E+00  0.14800806712E+03  0.14800806712E+03  0.00000000000E+00 0. -1.
         -1   -1    0    0    0  501 -0.00000000000E+00 -0.00000000000E+00 -0.84632930356E+02  0.84632930356E+02  0.00000000000E+00 0.  1.
         25    2    1    2    0    0 -0.10030355200E+02  0.25807032233E+02  0.34239609162E+02  0.13261455980E+03  0.12509060595E+03 0.  0.
          5    1    3    3  502    0 -0.31714033170E+02 -0.17143455152E+02 -0.33521039819E+02  0.49404559152E+02  0.41800000000E+01 0.  1.
         -5    1    3    3    0  502  0.21683677970E+02  0.42950487385E+02  0.67760648980E+02  0.83210000644E+02  0.41800000000E+01 0.  1.
        -11    1    1    2    0    0  0.29839036883E+02 -0.35069465903E+01 -0.24425310139E+02  0.38720312136E+02  0.00000000000E+00 0.  1.
         11    1    1    2    0    0 -0.19808681683E+02 -0.22300085643E+02  0.53560837742E+02  0.61306125545E+02  0.00000000000E+00 0. -1.
</event>
<event>
 7    1  0.2440960E-009  0.1354161E+03  0.7561462E-02  0.1219634E+00
         -2   -1    0    0    0  501 -0.00000000000E+00  0.00000000000E+00  0.42912570863E+03  0.42912570863E+03  0.00000000000E+00 0.  1.
          2   -1    0    0  501    0  0.00000000000E+00 -0.00000000000E+00 -0.77538073646E+02  0.77538073646E+02  0.00000000000E+00 0. -1.
         25    2    1    2    0    0  0.14291139090E+02  0.87748428204E+02  0.24430744880E+02  0.15539201697E+03  0.12508314968E+03 0.  0.
          5    1    3    3  502    0  0.55115715152E+02  0.86991002794E+02 -0.75737776741E+01  0.10334413932E+03  0.41800000000E+01 0. -1.
         -5    1    3    3    0  502 -0.40824576061E+02  0.75742540937E+00  0.32004522554E+02  0.52047877649E+02  0.41800000000E+01 0. -1.
        -11    1    1    2    0    0 -0.49865998501E+02 -0.28015517366E+02  0.12420698346E+03  0.13674378143E+03  0.00000000000E+00 0. -1.
         11    1    1    2    0    0  0.35574859411E+02 -0.59732910837E+02  0.20294990664E+03  0.21452798388E+03  0.00000000000E+00 0.  1.
</event>
<event>
 7    1  0.2440960E-009  0.1078125E+03  0.7561462E-02  0.1264675E+00
         -2   -1    0    0    0  501 -0.00000000000E+00  0.00000000000E+00  0.85626910736E+02  0.85626910736E+02  0.00000000000E+00 0.  1.
          2   -1    0    0  501    0  0.00000000000E+00 -0.00000000000E+00 -0.15310822690E+03  0.15310822690E+03  0.00000000000E+00 0. -1.
         25    2    1    2    0    0 -0.79690237363E+01 -0.11278456777E+02 -0.74672580380E+02  0.14634358076E+03  0.12509892263E+03 0.  0.
          5    1    3    3  502    0 -0.66373816270E+02 -0.83105785355E+01 -0.35636950442E+02  0.75907930011E+02  0.41800000000E+01 0. -1.
         -5    1    3    3    0  502  0.58404792533E+02 -0.29678782418E+01 -0.39035629938E+02  0.70435650752E+02  0.41800000000E+01 0. -1.
        -11    1    1    2    0    0  0.17719394368E+00  0.50239912373E+02  0.13827201138E+02  0.52108268867E+02  0.00000000000E+00 0. -1.
         11    1    1    2    0    0  0.77918297926E+01 -0.38961455596E+02 -0.66359369212E+01  0.40283288005E+02  0.00000000000E+00 0.  1.
</event>
<event>
 7    1  0.3157648E-009  0.1055579E+03  0.7561462E-02  0.1269024E+00
         -1   -1    0    0    0  501 -0.00000000000E+00  0.00000000000E+00  0.34282228966E+02  0.34282228966E+02  0.00000000000E+00 0.  1.
          1   -1    0    0  501    0  0.00000000000E+00 -0.00000000000E+00 -0.57172791623E+03  0.57172791623E+03  0.00000000000E+00 0. -1.
         25    2    1    2    0    0 -0.64016130252E+02 -0.60843747432E+02 -0.30364269934E+03  0.34006973569E+03  0.12509400360E+03 0.  0.
          5    1    3    3  502    0 -0.37432475079E+02  0.15860614561E+02 -0.21874908015E+03  0.22253400134E+03  0.41800000000E+01 0. -1.
         -5    1    3    3    0  502 -0.26583655173E+02 -0.76704361993E+02 -0.84893619190E+02  0.11753573435E+03  0.41800000000E+01 0. -1.
        -11    1    1    2    0    0  0.29025078932E+02  0.20383887432E+02 -0.11489862647E+02  0.37282368721E+02  0.00000000000E+00 0.  1.
         11    1    1    2    0    0  0.34991051320E+02  0.40459860000E+02 -0.22231312527E+03  0.22865804078E+03  0.00000000000E+00 0. -1.
</event>
<event>
 7    1  0.2440960E-009  0.1652747E+03  0.7561462E-02  0.1182867E+00
          1   -1    0    0  501    0  0.00000000000E+00  0.00000000000E+00  0.10406361906E+04  0.10406361906E+04  0.00000000000E+00 0. -1.
         -1   -1    0    0    0  501 -0.00000000000E+00 -0.00000000000E+00 -0.35977643657E+02  0.35977643657E+02  0.00000000000E+00 0.  1.
         25    2    1    2    0    0  0.99788006622E+02 -0.68649959527E+02  0.24489075689E+03  0.30048021457E+03  0.12508562401E+03 0.  0.
          5    1    3    3  502    0  0.28018618700E+02  0.35528521706E+02  0.86667078921E+02  0.97856904800E+02  0.41800000000E+01 0. -1.
         -5    1    3    3    0  502  0.71769387922E+02 -0.10417848123E+03  0.15822367797E+03  0.20262330977E+03  0.41800000000E+01 0. -1.
        -11    1    1    2    0    0 -0.24230463704E+02  0.78667610163E+02  0.38994379485E+03  0.39853716439E+03  0.00000000000E+00 0.  1.
         11    1    1    2    0    0 -0.75557542918E+02 -0.10017650636E+02  0.36982399516E+03  0.37759645525E+03  0.00000000000E+00 0. -1.
</event>
<event>
 7    1  0.2440960E-009  0.1252843E+03  0.7561462E-02  0.1234626E+00
          2   -1    0    0  501    0  0.00000000000E+00  0.00000000000E+00  0.16854814065E+03  0.16854814065E+03  0.00000000000E+00 0. -1.
         -2   -1    0    0    0  501 -0.00000000000E+00 -0.00000000000E+00 -0.10403455437E+03  0.10403455437E+03  0.00000000000E+00 0.  1.
         25    2    1    2    0    0 -0.19473753339E+02  0.72807017491E+02 -0.62050674398E+01  0.14617156657E+03  0.12509010810E+03 0.  0.
          5    1    3    3  502    0  0.21047193815E+02  0.96413021971E+02 -0.74815374443E+00  0.98774932584E+02  0.41800000000E+01 0.  1.
         -5    1    3    3    0  502 -0.40520947154E+02 -0.23606004480E+02 -0.54569136954E+01  0.47396633982E+02  0.41800000000E+01 0.  1.
        -11    1    1    2    0    0  0.47162882254E+02 -0.40500114055E+02  0.44146290102E+02  0.76246256503E+02  0.00000000000E+00 0. -1.
         11    1    1    2    0    0 -0.27689128914E+02 -0.32306903436E+02  0.26572363615E+02  0.50164871950E+02  0.00000000000E+00 0.  1.
</event>
<event>
 7    1  0.2440960E-009  0.1168177E+03  0.7561462E-02  0.1248441E+00
          2   -1    0    0  501    0  0.00000000000E+00  0.00000000000E+00  0.13273670182E+04  0.13273670182E+04  0.00000000000E+00 0. -1.
         -2   -1    0    0    0  501 -0.00000000000E+00 -0.00000000000E+00 -0.16237540008E+02  0.16237540008E+02  0.00000000000E+00 0.  1.
         25    2    1    2    0    0  0.62452266120E+02  0.48567293136E+02  0.10606590648E+04  0.10709361099E+04  0.12508969659E+03 0.  0.
          5    1    3    3  502    0  0.92389924626E+02  0.21197254721E+02  0.50872119211E+03  0.51749390864E+03  0.41800000000E+01 0.  1.
         -5    1    3    3    0  502 -0.29937658506E+02  0.27370038415E+02  0.55193787273E+03  0.55344220128E+03  0.41800000000E+01 0.  1.
        -11    1    1    2    0    0 -0.49469514690E+02 -0.18683024264E+01  0.18309652440E+03  0.18967092735E+03  0.00000000000E+00 0. -1.
         11    1    1    2    0    0 -0.12982751430E+02 -0.46698990710E+02  0.67373888952E+02  0.82997520930E+02  0.00000000000E+00 0.  1.
</event>
<event>
 7    1  0.2440960E-009  0.8291784E+02  0.7561462E-02  0.1320969E+00
         -4   -1    0    0    0  501 -0.00000000000E+00  0.00000000000E+00  0.52743368166E+02  0.52743368166E+02  0.00000000000E+00 0.  1.
          4   -1    0    0  501    0  0.00000000000E+00 -0.00000000000E+00 -0.23000606854E+03  0.23000606854E+03  0.00000000000E+00 0. -1.
         25    2    1    2    0    0  0.38384026454E+00 -0.73925240150E+01 -0.13714016472E+03  0.18576761958E+03  0.12508951578E+03 0.  0.
          5    1    3    3  502    0  0.15018498366E+01  0.57852618771E+02 -0.48527465899E+02  0.75641049690E+02  0.41800000000E+01 0.  1.
         -5    1    3    3    0  502 -0.11180095721E+01 -0.65245142786E+02 -0.88612698823E+02  0.11012656989E+03  0.41800000000E+01 0.  1.
        -11    1    1    2    0    0 -0.11929830247E+02 -0.13829944129E+02  0.23013871056E+02  0.29380715875E+02  0.00000000000E+00 0.  1.
         11    1    1    2    0    0  0.11545989983E+02  0.21222468143E+02 -0.63136406709E+02  0.67601101256E+02  0.00000000000E+00 0. -1.
</event>
<event>
 7    1  0.2440960E-009  0.1834794E+03  0.7561462E-02  0.1164478E+00
         -1   -1    0    0    0  501 -0.00000000000E+00  0.00000000000E+00  0.32771256468E+02  0.32771256468E+02  0.00000000000E+00 0.  1.
          1   -1    0    0  501    0  0.00000000000E+00 -0.00000000000E+00 -0.11725230583E+04  0.11725230583E+04  0.00000000000E+00 0. -1.
         25    2    1    2    0    0 -0.14546661400E+03 -0.64636906851E+02 -0.50723133393E+03  0.54614451820E+03  0.12510692676E+03 0.  0.
          5    1    3    3  502    0  0.22782047100E+02 -0.86152825836E+01 -0.51911399934E+02  0.57493570138E+02  0.41800000000E+01 0.  1.
         -5    1    3    3    0  502 -0.16824866110E+03 -0.56021624267E+02 -0.45531993399E+03  0.48865094806E+03  0.41800000000E+01 0.  1.
        -11    1    1    2    0    0  0.42361369914E+02  0.41281100073E+02 -0.99556404303E+02  0.11580195388E+03  0.00000000000E+00 0.  1.
         11    1    1    2    0    0  0.10310524409E+03  0.23355806778E+02 -0.53296406362E+03  0.54334784271E+03  0.00000000000E+00 0. -1.
</event>
<event>
 7    1  0.2440960E-009  0.7642313E+02  0.7561462E-02  0.1339520E+00
          2   -1    0    0  501    0  0.00000000000E+00  0.00000000000E+00  0.32466409558E+03  0.32466409558E+03  0.00000000000E+00 0.  1.
         -2   -1    0    0    0  501 -0.00000000000E+00 -0.00000000000E+00 -0.33867338311E+02  0.33867338311E+02  0.00000000000E+00 0. -1.
         25    2    1    2    0    0 -0.14696218672E+02  0.83130410955E+01  0.16439281366E+03  0.20726029831E+03  0.12508696405E+03 0.  0.
          5    1    3    3  502    0  0.20238162553E+02  0.26527594439E+02 -0.43697366670E+01  0.33909637108E+02  0.41800000000E+01 0.  1.
         -5    1    3    3    0  502 -0.34934381225E+02 -0.18214553344E+02  0.16876255033E+03  0.17335066120E+03  0.41800000000E+01 0.  1.
        -11    1    1    2    0    0 -0.38288815245E-01  0.34408950953E+02  0.76869831523E+02  0.84219643612E+02  0.00000000000E+00 0. -1.
         11    1    1    2    0    0  0.14734507487E+02 -0.42721992049E+02  0.49534112085E+02  0.67051491971E+02  0.00000000000E+00 0.  1.
</event>
<event>
 7    1  0.2440960E-009  0.8926664E+02  0.7561462E-02  0.1304637E+00
          3   -1    0    0  501    0  0.00000000000E+00  0.00000000000E+00  0.25436189612E+03  0.25436189612E+03  0.00000000000E+00 0. -1.
         -3   -1    0    0    0  501 -0.00000000000E+00 -0.00000000000E+00 -0.66740830140E+02  0.66740830140E+02  0.00000000000E+00 0.  1.
         25    2    1    2    0    0  0.93467395065E+01  0.67074822433E+02  0.73051822750E+02  0.15990807041E+03  0.12509048257E+03 0.  0.
          5    1    3    3  502    0  0.12351537068E+02  0.68905808999E+01 -0.33960593198E+02  0.37024787149E+02  0.41800000000E+01 0.  1.
         -5    1    3    3    0  502 -0.30047975616E+01  0.60184241533E+02  0.10701241595E+03  0.12288328326E+03  0.41800000000E+01 0.  1.
        -11    1    1    2    0    0  0.16484070934E+02 -0.74661106386E+02  0.50317354878E+02  0.91530550109E+02  0.00000000000E+00 0.  1.
         11    1    1    2    0    0 -0.25830810441E+02  0.75862839534E+01  0.64251888354E+02  0.69664105745E+02  0.00000000000E+00 0. -1.
</event>
<event>
 7    1  0.2440960E-009  0.1664062E+03  0.7561462E-02  0.1181648E+00
          2   -1    0    0  501    0  0.00000000000E+00  0.00000000000E+00  0.47322931650E+03  0.47322931650E+03  0.00000000000E+00 0. -1.
         -2   -1    0    0    0  501 -0.00000000000E+00 -0.00000000000E+00 -0.69154520692E+02  0.69154520692E+02  0.00000000000E+00 0.  1.
         25    2    1    2    0    0 -0.45924874622E+02 -0.13433489859E+03  0.24085191618E+03  0.30628684282E+03  0.12508807085E+03 0.  0.
          5    1    3    3  502    0 -0.31442992261E+02  0.40644537635E+01  0.11240749632E+03  0.11686787058E+03  0.41800000000E+01 0.  1.
         -5    1    3    3    0  502 -0.14481882360E+02 -0.13839935236E+03  0.12844441987E+03  0.18941897224E+03  0.41800000000E+01 0.  1.
        -11    1    1    2    0    0  0.54673257928E+02  0.42197190832E+02  0.33545520344E+02  0.76779359087E+02  0.00000000000E+00 0.  1.
         11    1    1    2    0    0 -0.87483833066E+01  0.92137707762E+02  0.12967735928E+03  0.15931763529E+03  0.00000000000E+00 0. -1.
</event>
<event>
 7    1  0.2440960E-009  0.2058800E+03  0.7561462E-02  0.1144871E+00
          2   -1    0    0  501    0  0.00000000000E+00  0.00000000000E+00  0.11434542266E+03  0.11434542266E+03  0.00000000000E+00 0. -1.
         -2   -1    0    0    0  501 -0.00000000000E+00 -0.00000000000E+00 -0.56987964602E+03  0.56987964602E+03  0.00000000000E+00 0.  1.
         25    2    1    2    0    0  0.54054767974E+02 -0.17911038001E+03 -0.52841416259E+02  0.23117642436E+03  0.12509147748E+03 0.  0.
          5    1    3    3  502    0  0.81078065119E+02 -0.13189171286E+03  0.49070937598E+00  0.15487669211E+03  0.41800000000E+01 0.  1.
         -5    1    3    3    0  502 -0.27023297145E+02 -0.47218667150E+02 -0.53332125635E+02  0.76299732246E+02  0.41800000000E+01 0.  1.
        -11    1    1    2    0    0 -0.62819224091E+02  0.74966687058E+02 -0.24568100844E+03  0.26443414491E+03  0.00000000000E+00 0. -1.
         11    1    1    2    0    0  0.87644561167E+01  0.10414369295E+03 -0.15701179866E+03  0.18861449942E+03  0.00000000000E+00 0.  1.
</event>
<event>
 7    1  0.2440960E-009  0.5314517E+02  0.7561462E-02  0.1429080E+00
         -4   -1    0    0    0  501 -0.00000000000E+00  0.00000000000E+00  0.15519343381E+03  0.15519343381E+03  0.00000000000E+00 0.  1.
          4   -1    0    0  501    0  0.00000000000E+00 -0.00000000000E+00 -0.89142146717E+02  0.89142146717E+02  0.00000000000E+00 0. -1.
         25    2    1    2    0    0 -0.16432319966E+01  0.12060882199E+02  0.73529393773E+02  0.14561253409E+03  0.12509305834E+03 0.  0.
          5    1    3    3  502    0 -0.51229829717E+01  0.44726994043E+02 -0.17703396001E+02  0.48555448516E+02  0.41800000000E+01 0. -1.
         -5    1    3    3    0  502  0.34797509751E+01 -0.32666111844E+02  0.91232789774E+02  0.97057085572E+02  0.41800000000E+01 0. -1.
        -11    1    1    2    0    0 -0.93542924819E+01 -0.13956892108E+02 -0.51050457168E+02  0.53744272274E+02  0.00000000000E+00 0. -1.
         11    1    1    2    0    0  0.10997524478E+02  0.18960099090E+01  0.43572350489E+02  0.44978774164E+02  0.00000000000E+00 0.  1.
</event>
<event>
 7    1  0.2440960E-009  0.9231091E+02  0.7561462E-02  0.1297350E+00
         -1   -1    0    0    0  501 -0.00000000000E+00  0.00000000000E+00  0.33113960086E+03  0.33113960086E+03  0.00000000000E+00 0.  1.
          1   -1    0    0  501    0  0.00000000000E+00 -0.00000000000E+00 -0.50945746498E+02  0.50945746498E+02  0.00000000000E+00 0. -1.
         25    2    1    2    0    0  0.24351853957E+02  0.50135496909E+00  0.57363449939E+02  0.13975532177E+03  0.12509084869E+03 0.  0.
          5    1    3    3  502    0  0.37344370698E+02 -0.56783604013E+02  0.36663207892E+02  0.77334616572E+02  0.41800000000E+01 0. -1.
         -5    1    3    3    0  502 -0.12992516741E+02  0.57284958982E+02  0.20700242047E+02  0.62420705200E+02  0.41800000000E+01 0. -1.
        -11    1    1    2    0    0 -0.33532730663E+02 -0.17869240225E+02  0.21905423871E+03  0.22232524209E+03  0.00000000000E+00 0.  1.
         11    1    1    2    0    0  0.91808767055E+01  0.17367885256E+02  0.37761657114E+01  0.20004783498E+02  0.00000000000E+00 0. -1.
</event>
<event>
 7    1  0.2440960E-009  0.1124007E+03  0.7561462E-02  0.1256188E+00
         -1   -1    0    0    0  501 -0.00000000000E+00  0.00000000000E+00  0.37772018592E+03  0.37772018592E+03  0.00000000000E+00 0.  1.
          1   -1    0    0  501    0  0.00000000000E+00 -0.00000000000E+00 -0.37214103173E+02  0.37214103173E+02  0.00000000000E+00 0. -1.
         25    2    1    2    0    0 -0.41178347614E+02 -0.21932287396E+02  0.19397410693E+03  0.23547984399E+03  0.12509245070E+03 0.  0.
          5    1    3    3  502    0 -0.42618137709E+02 -0.71708880383E+02  0.12305983975E+03  0.14872681583E+03  0.41800000000E+01 0. -1.
         -5    1    3    3    0  502  0.14397900950E+01  0.49776592987E+02  0.70914267179E+02  0.86753028157E+02  0.41800000000E+01 0. -1.
        -11    1    1    2    0    0 -0.79361376168E+01 -0.23252364184E+02  0.82623037414E+01  0.25921427112E+02  0.00000000000E+00 0. -1.
         11    1    1    2    0    0  0.49114485231E+02  0.45184651580E+02  0.13826967208E+03  0.15353301800E+03  0.00000000000E+00 0.  1.
</event>
<event>
 7    1  0.2440960E-009  0.8410024E+02  0.7561462E-02  0.1317802E+00
         -3   -1    0    0    0  501 -0.00000000000E+00  0.00000000000E+00  0.65235011132E+02  0.65235011132E+02  0.00000000000E+00 0.  1.
          3   -1    0    0  501    0  0.00000000000E+00 -0.00000000000E+00 -0.20741303151E+03  0.20741303151E+03  0.00000000000E+00 0. -1.
         25    2    1    2    0    0 -0.51620586184E+01 -0.39703537365E+02 -0.67098668485E+02  0.14748424294E+03  0.12508538234E+03 0.  0.
          5    1    3    3  502    0  0.24985768746E+02 -0.42795695620E+02 -0.94259386249E+02  0.10657422061E+03  0.41800000000E+01 0.  1.
         -5    1    3    3    0  502 -0.30147827365E+02  0.30921582549E+01  0.27160717763E+02  0.40910022328E+02  0.41800000000E+01 0.  1.
        -11    1    1    2    0    0 -0.26846271944E+02  0.47832683404E+02 -0.74012090734E+02  0.92122079296E+02  0.00000000000E+00 0.  1.
         11    1    1    2    0    0  0.32008330562E+02 -0.81291460387E+01 -0.10672611549E+01  0.33041720401E+02  0.00000000000E+00 0. -1.
</event>
<event>
 7    1  0.2440960E-009  0.8650188E+02  0.7561462E-02  0.1311551E+00
         -2   -1    0    0    0  501 -0.00000000000E+00  0.00000000000E+00  0.47318095573E+02  0.47318095573E+02  0.00000000000E+00 0.  1.
          2   -1    0    0  501    0  0.00000000000E+00 -0.00000000000E+00 -0.36725341121E+03  0.36725341121E+03  0.00000000000E+00 0. -1.
         25    2    1    2    0    0  0.22312728247E+02  0.68158391868E+02 -0.20204847164E+03  0.24822279538E+03  0.12509015561E+03 0.  0.
          5    1    3    3  502    0  0.23918513861E+02  0.76970385521E+02 -0.21630665142E+03  0.23087350519E+03  0.41800000000E+01 0.  1.
         -5    1    3    3    0  502 -0.16057856142E+01 -0.88119936534E+01  0.14258179775E+02  0.17349290189E+02  0.41800000000E+01 0.  1.
        -11    1    1    2    0    0 -0.25402441367E+02 -0.15704192097E+02 -0.10905024659E+03  0.11306574176E+03  0.00000000000E+00 0.  1.
         11    1    1    2    0    0  0.30897131197E+01 -0.52454199771E+02 -0.88365974036E+01  0.53282969647E+02  0.00000000000E+00 0. -1.
</event>
<event>
 7    1  0.2440960E-009  0.1552679E+03  0.7561462E-02  0.1194145E+00
         -2   -1    0    0    0  501 -0.00000000000E+00  0.00000000000E+00  0.34091371855E+02  0.34091371855E+02  0.00000000000E+00 0.  1.
          2   -1    0    0  501    0  0.00000000000E+00 -0.00000000000E+00 -0.89365001808E+03  0.89365001808E+03  0.00000000000E+00 0. -1.
         25    2    1    2    0    0  0.15600614818E+02 -0.10020737736E+03 -0.64563822432E+03  0.66541794945E+03  0.12508970016E+03 0.  0.
          5    1    3    3  502    0  0.59108157461E+02 -0.98823876934E+02 -0.51203308157E+03  0.52483833887E+03  0.41800000000E+01 0.  1.
         -5    1    3    3    0  502 -0.43507542642E+02 -0.13835004241E+01 -0.13360514275E+03  0.14057961058E+03  0.41800000000E+01 0.  1.
        -11    1    1    2    0    0 -0.63203470895E+02  0.39887229452E+02 -0.97968865454E+02  0.12322162312E+03  0.00000000000E+00 0. -1.
         11    1    1    2    0    0  0.47602856077E+02  0.60320147906E+02 -0.11595155645E+03  0.13910181736E+03  0.00000000000E+00 0.  1.
</event>
<event>
 7    1  0.2440960E-009  0.1865671E+03  0.7561462E-02  0.1161595E+00
         -1   -1    0    0    0  501 -0.00000000000E+00  0.00000000000E+00  0.55849763145E+02  0.55849763145E+02  0.00000000000E+00 0.  1.
          1   -1    0    0  501    0  0.00000000000E+00 -0.00000000000E+00 -0.83421879925E+03  0.83421879925E+03  0.00000000000E+00 0. -1.
         25    2    1    2    0    0  0.16925119470E+03  0.28043570314E+02 -0.55660887814E+03  0.59572863105E+03  0.12508696929E+03 0.  0.
          5    1    3    3  502    0  0.12410648931E+03 -0.23472802653E+02 -0.23444623817E+03  0.26633795100E+03  0.41800000000E+01 0.  1.
         -5    1    3    3    0  502  0.45144705394E+02  0.51516372967E+02 -0.32216263997E+03  0.32939068005E+03  0.41800000000E+01 0.  1.
        -11    1    1    2    0    0 -0.98077040698E+02  0.79055545825E+01 -0.63440275738E+02  0.11707378994E+03  0.00000000000E+00 0.  1.
         11    1    1    2    0    0 -0.71174154007E+02 -0.35949124897E+02 -0.15831988223E+03  0.17726614141E+03  0.00000000000E+00 0. -1.
</event>
<event>
 7    1  0.2440960E-009  0.1398088E+03  0.7561462E-02  0.1213586E+00
         -2   -1    0    0    0  501 -0.00000000000E+00  0.00000000000E+00  0.18871190308E+02  0.18871190308E+02  0.00000000000E+00 0.  1.
          2   -1    0    0  501    0  0.00000000000E+00 -0.00000000000E+00 -0.11531435583E+04  0.11531435583E+04  0.00000000000E+00 0. -1.
         25    2    1    2    0    0 -0.92615057323E+02  0.38466554127E+02 -0.66837989836E+03  0.68733971923E+03  0.12508787502E+03 0.  0.
          5    1    3    3  502    0 -0.43278501874E+02 -0.45425585873E+02 -0.25565150450E+03  0.26327110880E+03  0.41800000000E+01 0. -1.
         -5    1    3    3    0  502 -0.49336555449E+02  0.83892140000E+02 -0.41272839385E+03  0.42406861043E+03  0.41800000000E+01 0. -1.
        -11    1    1    2    0    0  0.16318650112E+02 -0.39799424597E+02 -0.75492610388E+02  0.86887437313E+02  0.00000000000E+00 0.  1.
         11    1    1    2    0    0  0.76296407211E+02  0.13328704703E+01 -0.39039985920E+03  0.39778759202E+03  0.00000000000E+00 0. -1.
</event>
<event>
 7    1  0.2440960E-009  0.1202915E+03  0.7561462E-02  0.1242617E+00
          1   -1    0    0  501    0  0.00000000000E+00  0.00000000000E+00  0.18135068554E+03  0.18135068554E+03  0.00000000000E+00 0. -1.
         -1   -1    0    0    0  501 -0.00000000000E+00 -0.00000000000E+00 -0.12182867128E+03  0.12182867128E+03  0.00000000000E+00 0.  1.
         25    2    1    2    0    0 -0.31544304691E+02 -0.95652078343E+02  0.23686812823E+02  0.16233921755E+03  0.12509433722E+03 0.  0.
          5    1    3    3  502    0 -0.18859347517E+02 -0.20238001706E+02 -0.49209092753E+02  0.56606173792E+02  0.41800000000E+01 0. -1.
         -5    1    3    3    0  502 -0.12684957173E+02 -0.75414076637E+02  0.72895905576E+02  0.10573304376E+03  0.41800000000E+01 0. -1.
        -11    1    1    2    0    0  0.64092285899E+02  0.65745223352E+02  0.20718454193E+02  0.94124969320E+02  0.00000000000E+00 0.  1.
         11    1    1    2    0    0 -0.32547981208E+02  0.29906854991E+02  0.15116747247E+02  0.46715169950E+02  0.00000000000E+00 0. -1.
</event>
<event>
 7    1  0.2440960E-009  0.7907068E+02  0.7561462E-02  0.1331710E+00
         -2   -1    0    0    0  501 -0.00000000000E+00  0.00000000000E+00  0.24522430573E+02  0.24522430573E+02  0.00000000000E+00 0.  1.
          2   -1    0    0  501    0  0.00000000000E+00 -0.00000000000E+00 -0.64222732468E+03  0.64222732468E+03  0.00000000000E+00 0. -1.
         25    2    1    2    0    0 -0.42527212507E+02  0.36236695027E+02 -0.41541129849E+03  0.43741636230E+03  0.12507943565E+03 0.  0.
          5    1    3    3  502    0 -0.89500893064E+01  0.12059516282E+02 -0.38639098519E+03  0.38670531657E+03  0.41800000000E+01 0. -1.
         -5    1    3    3    0  502 -0.33577123200E+02  0.24177178745E+02 -0.29020313306E+02  0.50711045728E+02  0.41800000000E+01 0. -1.
        -11    1    1    2    0    0  0.51030491063E+02  0.11639217056E+02 -0.14516480690E+03  0.15431268112E+03  0.00000000000E+00 0. -1.
         11    1    1    2    0    0 -0.85032785562E+01 -0.47875912083E+02 -0.57128788710E+02  0.75020711830E+02  0.00000000000E+00 0.  1.
</event>
<event>
 7    1  0.3672308E-009  0.1056055E+03  0.7561462E-02  0.1268931E+00
          1   -1    0    0  501    0  0.00000000000E+00  0.00000000000E+00  0.73469693474E+03  0.73469693474E+03  0.00000000000E+00 0. -1.
         -1   -1    0    0    0  501 -0.00000000000E+00 -0.00000000000E+00 -0.22836523178E+02  0.22836523178E+02  0.00000000000E+00 0.  1.
         25    2    1    2    0    0  0.44044474723E+02  0.44049621921E+02  0.48998845529E+03  0.50952311224E+03  0.12507929745E+03 0.  0.
          5    1    3    3  502    0 -0.25656380509E+02  0.33690048117E+02  0.35164975913E+03  0.35421504019E+03  0.41800000000E+01 0.  1.
         -5    1    3    3    0  502  0.69700855233E+02  0.10359573805E+02  0.13833869616E+03  0.15530807205E+03  0.41800000000E+01 0.  1.
        -11    1    1    2    0    0 -0.64208349774E+02 -0.21255892760E+02  0.89481257292E+02  0.11216693169E+03  0.00000000000E+00 0.  1.
         11    1    1    2    0    0  0.20163875051E+02 -0.22793729161E+02  0.13239069898E+03  0.13584341398E+03  0.00000000000E+00 0. -1.
</event>
<event>
 7    1  0.2440960E-009  0.1520303E+03  0.7561462E-02  0.1198000E+00
         -1   -1    0    0    0  501 -0.00000000000E+00  0.00000000000E+00  0.67625786421E+02  0.67625786421E+02  0.00000000000E+00 0.  1.
          1   -1    0    0  501    0  0.00000000000E+00 -0.00000000000E+00 -0.43144265891E+03  0.43144265891E+03  0.00000000000E+00 0. -1.
         25    2    1    2    0    0 -0.88948621680E+02 -0.94568527567E+02 -0.22623839884E+03  0.28928634229E+03  0.12509081109E+03 0.  0.
          5    1    3    3  502    0 -0.97348636076E+02 -0.11028103276E+03 -0.22749450806E+03  0.27094258936E+03  0.41800000000E+01 0. -1.
         -5    1    3    3    0  502  0.84000143957E+01  0.15712505188E+02  0.12561092193E+01  0.18343752929E+02  0.41800000000E+01 0. -1.
        -11    1    1    2    0    0  0.38594127490E+02  0.95015751737E+01 -0.93401307521E+02  0.10150660498E+03  0.00000000000E+00 0. -1.
         11    1    1    2    0    0  0.50354494190E+02  0.85066952393E+02 -0.44177166129E+02  0.10827549807E+03  0.00000000000E+00 0.  1.
</event>
<event>
 7    1  0.2440960E-009  0.1189371E+03  0.7561462E-02  0.1244861E+00
         -1   -1    0    0    0  501 -0.00000000000E+00  0.00000000000E+00  0.19514294916E+03  0.19514294916E+03  0.00000000000E+00 0.  1.
          1   -1    0    0  501    0  0.00000000000E+00 -0.00000000000E+00 -0.10898153623E+03  0.10898153623E+03  0.00000000000E+00 0. -1.
         25    2    1    2    0    0  0.92694794605E+02 -0.37049246122E+01  0.79388706763E+02  0.17480289147E+03  0.12508969858E+03 0.  0.
          5    1    3    3  502    0  0.10506081280E+03  0.18216580113E+02  0.17860590151E+02  0.10819469145E+03  0.41800000000E+01 0. -1.
         -5    1    3    3    0  502 -0.12366018198E+02 -0.21921504725E+02  0.61528116613E+02  0.66608200016E+02  0.41800000000E+01 0. -1.
        -11    1    1    2    0    0 -0.76498196472E+02 -0.17981509824E+02 -0.29608477378E+02  0.83976012597E+02  0.00000000000E+00 0. -1.
         11    1    1    2    0    0 -0.16196598133E+02  0.21686434436E+02  0.36381183544E+02  0.45345581326E+02  0.00000000000E+00 0.  1.
</event>
<event>
 7    1  0.2440960E-009  0.1125053E+03  0.7561462E-02  0.1256000E+00
         -4   -1    0    0    0  501 -0.00000000000E+00  0.00000000000E+00  0.33956753030E+03  0.33956753030E+03  0.00000000000E+00 0.  1.
          4   -1    0    0  501    0  0.00000000000E+00 -0.00000000000E+00 -0.68434169701E+02  0.68434169701E+02  0.00000000000E+00 0. -1.
         25    2    1    2    0    0 -0.29320424349E+02  0.26939745142E+02  0.33795033199E+02  0.13555410937E+03  0.12508946856E+03 0.  0.
          5    1    3    3  502    0 -0.11009663672E+02  0.69318905740E+02  0.50187696459E+02  0.86386345351E+02  0.41800000000E+01 0. -1.
         -5    1    3    3    0  502 -0.18310760677E+02 -0.42379160599E+02 -0.16392663260E+02  0.49167764016E+02  0.41800000000E+01 0. -1.
        -11    1    1    2    0    0  0.31024624742E+02 -0.64063805239E+02  0.22039453915E+03  0.23160408323E+03  0.00000000000E+00 0.  1.
         11    1    1    2    0    0 -0.17042003925E+01  0.37124060097E+02  0.16943788259E+02  0.40843507411E+02  0.00000000000E+00 0. -1.
</event>
<event>
 7    1  0.2440960E-009  0.1114792E+03  0.7561462E-02  0.1257855E+00
          1   -1    0    0  501    0  0.00000000000E+00  0.00000000000E+00  0.51009328331E+02  0.51009328331E+02  0.00000000000E+00 0. -1.
         -1   -1    0    0    0  501 -0.00000000000E+00 -0.00000000000E+00 -0.27873752071E+03  0.27873752071E+03  0.00000000000E+00 0.  1.
         25    2    1    2    0    0  0.45490762584E+02  0.69362553307E+01 -0.10602293782E+03  0.17031087131E+03  0.12508960158E+03 0.  0.
          5    1    3    3  502    0 -0.81986649094E+01 -0.49276845440E+02 -0.65704818445E+02  0.82643942124E+02  0.41800000000E+01 0. -1.
         -5    1    3    3    0  502  0.53689427493E+02  0.56213100771E+02 -0.40318119372E+02  0.87666929184E+02  0.41800000000E+01 0. -1.
        -11    1    1    2    0    0  0.62131808873E+00 -0.38882145335E+02 -0.81863514612E+02  0.90630250395E+02  0.00000000000E+00 0.  1.
         11    1    1    2    0    0 -0.46112080673E+02  0.31945890005E+02 -0.39841739945E+02  0.68805727334E+02  0.00000000000E+00 0. -1.
</event>
<event>
 7    1  0.2440960E-009  0.1318375E+03  0.7561462E-02  0.1224754E+00
          2   -1    0    0  501    0  0.00000000000E+00  0.00000000000E+00  0.33583703953E+03  0.33583703953E+03  0.00000000000E+00 0. -1.
         -2   -1    0    0    0  501 -0.00000000000E+00 -0.00000000000E+00 -0.88204753645E+02  0.88204753645E+02  0.00000000000E+00 0.  1.
         25    2    1    2    0    0 -0.10655639680E+03 -0.27267801972E+01  0.23063417959E+03  0.28319828750E+03  0.12508974468E+03 0.  0.
          5    1    3    3  502    0 -0.43829267794E+01 -0.40435433937E+02  0.12460791089E+03  0.13114434117E+03  0.41800000000E+01 0.  1.
         -5    1    3    3    0  502 -0.10217347002E+03  0.37708653740E+02  0.10602626870E+03  0.15205394634E+03  0.41800000000E+01 0.  1.
        -11    1    1    2    0    0  0.96412909500E+02 -0.10662460871E+02 -0.21044627355E+02  0.99257309708E+02  0.00000000000E+00 0.  1.
         11    1    1    2    0    0  0.10143487295E+02  0.13389241068E+02  0.38042733659E+02  0.41586195968E+02  0.00000000000E+00 0. -1.
</event>
<event>
 7    1  0.2440960E-009  0.1270409E+03  0.7561462E-02  0.1231914E+00
         -2   -1    0    0    0  501 -0.00000000000E+00  0.00000000000E+00  0.82512360344E+02  0.82512360344E+02  0.00000000000E+00 0. -1.
          2   -1    0    0  501    0  0.00000000000E+00 -0.00000000000E+00 -0.22854511058E+03  0.22854511058E+03  0.00000000000E+00 0.  1.
         25    2    1    2    0    0  0.74880590433E+02 -0.33174513317E+02 -0.56432484072E+02  0.15980977403E+03  0.12508751920E+03 0.  0.
          5    1    3    3  502    0  0.70119260710E+02  0.27402526097E+02 -0.63390664196E+02  0.98506131110E+02  0.41800000000E+01 0.  1.
         -5    1    3    3    0  502  0.47613297228E+01 -0.60577039413E+02  0.69581801238E+01  0.61303642921E+02  0.41800000000E+01 0.  1.
        -11    1    1    2    0    0 -0.93186621593E+02  0.20237247038E+02 -0.86258343345E+02  0.12858380306E+03  0.00000000000E+00 0.  1.
         11    1    1    2    0    0  0.18306031160E+02  0.12937266279E+02 -0.33419228172E+01  0.22663893834E+02  0.00000000000E+00 0. -1.
</event>
<event>
 7    1  0.2504550E-009  0.1068494E+03  0.7561462E-02  0.1266518E+00
          1   -1    0    0  501    0  0.00000000000E+00  0.00000000000E+00  0.64590693850E+02  0.64590693850E+02  0.00000000000E+00 0. -1.
         -1   -1    0    0    0  501 -0.00000000000E+00 -0.00000000000E+00 -0.30336793216E+03  0.30336793216E+03  0.00000000000E+00 0.  1.
         25    2    1    2    0    0 -0.66269483348E+02  0.38302838200E+02 -0.72877697710E+02  0.16376156188E+03  0.12509172031E+03 0.  0.
          5    1    3    3  502    0 -0.62026440456E+02  0.52094383872E+02  0.79985972098E+01  0.81501865648E+02  0.41800000000E+01 0. -1.
         -5    1    3    3    0  502 -0.42430428917E+01 -0.13791545673E+02 -0.80876294919E+02  0.82259696236E+02  0.41800000000E+01 0. -1.
        -11    1    1    2    0    0  0.18139368483E+02 -0.61514215054E+02 -0.10632636692E+03  0.12417057479E+03  0.00000000000E+00 0.  1.
         11    1    1    2    0    0  0.48130114864E+02  0.23211376854E+02 -0.59573173685E+02  0.80026489335E+02  0.00000000000E+00 0. -1.
</event>
<event>
 7    1  0.2440960E-009  0.1589186E+03  0.7561462E-02  0.1189923E+00
         -1   -1    0    0    0  501 -0.00000000000E+00  0.00000000000E+00  0.27514009750E+02  0.27514009750E+02  0.00000000000E+00 0.  1.
          1   -1    0    0  501    0  0.00000000000E+00 -0.00000000000E+00 -0.95439638441E+03  0.95439638441E+03  0.00000000000E+00 0. -1.
         25    2    1    2    0    0  0.78347905530E+01 -0.11744201240E+03 -0.40791725730E+03  0.44260341155E+03  0.12508909182E+03 0.  0.
          5    1    3    3  502    0 -0.45369579236E+02 -0.35139176177E+01 -0.11960791769E+03  0.12804012149E+03  0.41800000000E+01 0. -1.
         -5    1    3    3    0  502  0.53204369789E+02 -0.11392809479E+03 -0.28830933962E+03  0.31456329007E+03  0.41800000000E+01 0. -1.
        -11    1    1    2    0    0  0.23898715260E+02 -0.79332580093E+00 -0.10029006804E+03  0.10310128857E+03  0.00000000000E+00 0. -1.
         11    1    1    2    0    0 -0.31733505813E+02  0.11823533821E+03 -0.41867504932E+03  0.43620569404E+03  0.00000000000E+00 0.  1.
</event>
<event>
 7    1  0.2440960E-009  0.9924731E+02  0.7561462E-02  0.1281887E+00
         -2   -1    0    0    0  501 -0.00000000000E+00  0.00000000000E+00  0.65335923703E+02  0.65335923703E+02  0.00000000000E+00 0.  1.
          2   -1    0    0  501    0  0.00000000000E+00 -0.00000000000E+00 -0.24351536000E+03  0.24351536000E+03  0.00000000000E+00 0. -1.
         25    2    1    2    0    0  0.61954245621E+02 -0.18977852160E+02 -0.10076329799E+03  0.17319927803E+03  0.12508501216E+03 0.  0.
          5    1    3    3  502    0  0.73118526340E+02 -0.13949558117E+02 -0.12510350860E+03  0.14563402531E+03  0.41800000000E+01 0.  1.
         -5    1    3    3    0  502 -0.11164280718E+02 -0.50282940428E+01  0.24340210611E+02  0.27565252720E+02  0.41800000000E+01 0.  1.
        -11    1    1    2    0    0 -0.81425249134E+02  0.32097486930E+02 -0.56243840660E+02  0.10403696207E+03  0.00000000000E+00 0.  1.
         11    1    1    2    0    0  0.19471003512E+02 -0.13119634770E+02 -0.21172297650E+02  0.31615043603E+02  0.00000000000E+00 0. -1.
</event>
<event>
 7    1  0.2440960E-009  0.1323271E+03  0.7561462E-02  0.1224043E+00
         -3   -1    0    0    0  501 -0.00000000000E+00  0.00000000000E+00  0.59274125974E+03  0.59274125974E+03  0.00000000000E+00 0.  1.
          3   -1    0    0  501    0  0.00000000000E+00 -0.00000000000E+00 -0.38321832017E+02  0.38321832017E+02  0.00000000000E+00 0. -1.
         25    2    1    2    0    0  0.67229240384E+02  0.55666519595E+02  0.41985064040E+03  0.44669971364E+03  0.12509013453E+03 0.  0.
          5    1    3    3  502    0  0.10312581877E+03  0.52155725030E+02  0.30202747664E+03  0.32340875559E+03  0.41800000000E+01 0. -1.
         -5    1    3    3    0  502 -0.35896578382E+02  0.35107945651E+01  0.11782316376E+03  0.12329095805E+03  0.41800000000E+01 0. -1.
        -11    1    1    2    0    0 -0.52567738294E+02 -0.73028357910E+02  0.64522911393E+02  0.11072359398E+03  0.00000000000E+00 0. -1.
         11    1    1    2    0    0 -0.14661502090E+02  0.17361838315E+02  0.70045875932E+02  0.73639784140E+02  0.00000000000E+00 0.  1.
</event>
<event>
 7    1  0.2440960E-009  0.9445310E+02  0.7561462E-02  0.1292413E+00
          1   -1    0    0  501    0  0.00000000000E+00  0.00000000000E+00  0.10179459679E+03  0.10179459679E+03  0.00000000000E+00 0. -1.
         -1   -1    0    0    0  501 -0.00000000000E+00 -0.00000000000E+00 -0.12242782340E+03  0.12242782340E+03  0.00000000000E+00 0.  1.
         25    2    1    2    0    0 -0.22507024437E+02 -0.18562697552E+02 -0.10654377557E+01  0.12845663435E+03  0.12509529112E+03 0.  0.
          5    1    3    3  502    0 -0.29402886721E+02 -0.52884246564E+02  0.41271048490E+02  0.73362423117E+02  0.41800000000E+01 0. -1.
         -5    1    3    3    0  502  0.68958622846E+01  0.34321549012E+02 -0.42336486246E+02  0.55094211228E+02  0.41800000000E+01 0. -1.
        -11    1    1    2    0    0 -0.63702626648E+01 -0.33156292509E+02 -0.12955979376E+02  0.36163204794E+02  0.00000000000E+00 0. -1.
         11    1    1    2    0    0  0.28877287101E+02  0.51718990061E+02 -0.66118094743E+01  0.59602581050E+02  0.00000000000E+00 0.  1.
</event>
<event>
 7    1  0.2440960E-009  0.1285404E+03  0.7561462E-02  0.1229638E+00
          2   -1    0    0  501    0  0.00000000000E+00  0.00000000000E+00  0.19880886454E+03  0.19880886454E+03  0.00000000000E+00 0. -1.
         -2   -1    0    0    0  501 -0.00000000000E+00 -0.00000000000E+00 -0.13291423066E+03  0.13291423066E+03  0.00000000000E+00 0.  1.
         25    2    1    2    0    0 -0.23378349387E+02  0.10882269666E+03 -0.12547043954E+02  0.16791046791E+03  0.12509024900E+03 0.  0.
          5    1    3    3  502    0  0.12966196014E+02  0.43304833531E+02 -0.62878755927E+02  0.77554117835E+02  0.41800000000E+01 0. -1.
         -5    1    3    3    0  502 -0.36344545401E+02  0.65517863124E+02  0.50331711973E+02  0.90356350075E+02  0.41800000000E+01 0. -1.
        -11    1    1    2    0    0  0.18666447210E+02  0.75792729758E+01 -0.47028097867E+01  0.20688113741E+02  0.00000000000E+00 0.  1.
         11    1    1    2    0    0  0.47119021770E+01 -0.11640196963E+03  0.83144487618E+02  0.14312451354E+03  0.00000000000E+00 0. -1.
</event>
<event>
 7    1  0.2440960E-009  0.1683718E+03  0.7561462E-02  0.1179556E+00
         -1   -1    0    0    0  501 -0.00000000000E+00  0.00000000000E+00  0.11943463544E+03  0.11943463544E+03  0.00000000000E+00 0.  1.
          1   -1    0    0  501    0  0.00000000000E+00 -0.00000000000E+00 -0.27945926662E+03  0.27945926662E+03  0.00000000000E+00 0. -1.
         25    2    1    2    0    0 -0.12304178659E+03 -0.66491413086E+02 -0.30488731097E+02  0.19009920555E+03  0.12509099074E+03 0.  0.
          5    1    3    3  502    0 -0.13250443880E+03 -0.80876493574E+02 -0.53099002312E+00  0.15529387581E+03  0.41800000000E+01 0. -1.
         -5    1    3    3    0  502  0.94626522118E+01  0.14385080488E+02 -0.29957741074E+02  0.34805329732E+02  0.41800000000E+01 0. -1.
        -11    1    1    2    0    0  0.45421788776E+02 -0.18127325264E+02 -0.37106802538E+02  0.61389360735E+02  0.00000000000E+00 0.  1.
         11    1    1    2    0    0  0.77619997814E+02  0.84618738351E+02 -0.92429097543E+02  0.14740533577E+03  0.00000000000E+00 0. -1.
</event>
<event>
 7    1  0.2440960E-009  0.1337166E+03  0.7561462E-02  0.1222043E+00
         -4   -1    0    0    0  501 -0.00000000000E+00  0.00000000000E+00  0.20225434091E+02  0.20225434091E+02  0.00000000000E+00 0.  1.
          4   -1    0    0  501    0  0.00000000000E+00 -0.00000000000E+00 -0.10865854814E+04  0.10865854814E+04  0.00000000000E+00 0. -1.
         25    2    1    2    0    0  0.88288075602E+02 -0.28180796168E+02 -0.72067389826E+03  0.73729872670E+03  0.12509837409E+03 0.  0.
          5    1    3    3  502    0  0.68697895387E+01  0.43296870568E+02 -0.28239522721E+03  0.28580823949E+03  0.41800000000E+01 0.  1.
         -5    1    3    3    0  502  0.81418286063E+02 -0.71477666736E+02 -0.43827867105E+03  0.45149048721E+03  0.41800000000E+01 0.  1.
        -11    1    1    2    0    0 -0.56360671262E+02 -0.17701928994E+02 -0.89080591794E+02  0.10688889273E+03  0.00000000000E+00 0.  1.
         11    1    1    2    0    0 -0.31927404340E+02  0.45882725162E+02 -0.25660555721E+03  0.26262329601E+03  0.00000000000E+00 0. -1.
</event>
<event>
 7    1  0.2440960E-009  0.2017661E+03  0.7561462E-02  0.1148257E+00
         -2   -1    0    0    0  501 -0.00000000000E+00  0.00000000000E+00  0.14279793796E+03  0.14279793796E+03  0.00000000000E+00 0.  1.
          2   -1    0    0  501    0  0.00000000000E+00 -0.00000000000E+00 -0.42237962359E+03  0.42237962359E+03  0.00000000000E+00 0. -1.
         25    2    1    2    0    0  0.12331926247E+03 -0.13768600622E+03 -0.74375487009E+01  0.22331267275E+03  0.12509258920E+03 0.  0.
          5    1    3    3  502    0 -0.20070114934E+02 -0.19882920737E+02 -0.23517051286E+02  0.36995461231E+02  0.41800000000E+01 0.  1.
         -5    1    3    3    0  502  0.14338937741E+03 -0.11780308549E+03  0.16079502585E+02  0.18631721152E+03  0.41800000000E+01 0.  1.
        -11    1    1    2    0    0 -0.26648978245E+02  0.84430608791E+01 -0.31030808579E+01  0.28126187607E+02  0.00000000000E+00 0.  1.
         11    1    1    2    0    0 -0.96670284229E+02  0.12924294534E+03 -0.26904105607E+03  0.31373870119E+03  0.00000000000E+00 0. -1.
</event>
<event>
 7    1  0.2440960E-009  0.1313408E+03  0.7561462E-02  0.1225480E+00
          2   -1    0    0  501    0  0.00000000000E+00  0.00000000000E+00  0.98544700109E+03  0.98544700109E+03  0.00000000000E+00 0. -1.
         -2   -1    0    0    0  501 -0.00000000000E+00 -0.00000000000E+00 -0.21906968103E+02  0.21906968103E+02  0.00000000000E+00 0.  1.
         25    2    1    2    0    0  0.17620575075E+02 -0.95640085605E+02  0.46993158217E+03  0.49592288885E+03  0.12508520743E+03 0.  0.
          5    1    3    3  502    0  0.55925530629E+02 -0.42033903892E+02  0.11324425855E+03  0.13317750766E+03  0.41800000000E+01 0.  1.
         -5    1    3    3    0  502 -0.38304955554E+02 -0.53606181714E+02  0.35668732362E+03  0.36274538118E+03  0.41800000000E+01 0.  1.
        -11    1    1    2    0    0 -0.42470013660E+02  0.19967160187E+02  0.10918898426E+03  0.11884706067E+03  0.00000000000E+00 0.  1.
         11    1    1    2    0    0  0.24849438585E+02  0.75672925419E+02  0.38441946655E+03  0.39258401968E+03  0.00000000000E+00 0. -1.
</event>
<event>
 7    1  0.2440960E-009  0.1046817E+03  0.7561462E-02  0.1270748E+00
          1   -1    0    0  501    0  0.00000000000E+00  0.00000000000E+00  0.15884407844E+02  0.15884407844E+02  0.00000000000E+00 0. -1.
         -1   -1    0    0    0  501 -0.00000000000E+00 -0.00000000000E+00 -0.75863862615E+03  0.75863862615E+03  0.00000000000E+00 0.  1.
         25    2    1    2    0    0  0.23541011365E+02 -0.10285638336E+02 -0.42325361251E+03  0.44210270562E+03  0.12510478905E+03 0.  0.
          5    1    3    3  502    0  0.68548824272E+02  0.74908476573E+01 -0.32781610999E+03  0.33501631076E+03  0.41800000000E+01 0. -1.
         -5    1    3    3    0  502 -0.45007812907E+02 -0.17776485993E+02 -0.95437502520E+02  0.10708639486E+03  0.41800000000E+01 0. -1.
        -11    1    1    2    0    0 -0.36242407585E+02  0.43223056388E+02 -0.20261474213E+03  0.21031994304E+03  0.00000000000E+00 0.  1.
         11    1    1    2    0    0  0.12701396220E+02 -0.32937418053E+02 -0.11688586367E+03  0.12210038534E+03  0.00000000000E+00 0. -1.
</event>
<event>
 7    1  0.2440960E-009  0.1446498E+03  0.7561462E-02  0.1207206E+00
          4   -1    0    0  501    0  0.00000000000E+00  0.00000000000E+00  0.11381152806E+03  0.11381152806E+03  0.00000000000E+00 0. -1.
         -4   -1    0    0    0  501 -0.00000000000E+00 -0.00000000000E+00 -0.22429987881E+03  0.22429987881E+03  0.00000000000E+00 0.  1.
         25    2    1    2    0    0  0.41879475346E+02 -0.10693560350E+03 -0.68794278083E+02  0.18321748853E+03  0.12508749599E+03 0.  0.
          5    1    3    3  502    0  0.34285973877E+02  0.24783017254E+01 -0.64700347436E+02  0.73384448915E+02  0.41800000000E+01 0. -1.
         -5    1    3    3    0  502  0.75935014682E+01 -0.10941390523E+03 -0.40939306468E+01  0.10983303961E+03  0.41800000000E+01 0. -1.
        -11    1    1    2    0    0  0.23812442422E+02  0.58905648051E+02 -0.36674716813E+02  0.73361724624E+02  0.00000000000E+00 0.  1.
         11    1    1    2    0    0 -0.65691917768E+02  0.48029955453E+02 -0.50193558533E+01  0.81532193727E+02  0.00000000000E+00 0. -1.
</event>
<event>
 7    1  0.2440960E-009  0.1011017E+03  0.7561462E-02  0.1277996E+00
          2   -1    0    0  501    0  0.00000000000E+00  0.00000000000E+00  0.27794088274E+03  0.27794088274E+03  0.00000000000E+00 0. -1.
         -2   -1    0    0    0  501 -0.00000000000E+00 -0.00000000000E+00 -0.69986760727E+02  0.69986760727E+02  0.00000000000E+00 0.  1.
         25    2    1    2    0    0  0.58891754707E+02 -0.23982260612E+02  0.16036813789E+02  0.14122827590E+03  0.12507941045E+03 0.  0.
          5    1    3    3  502    0  0.65523527058E+02  0.36599191348E+02  0.25577936577E+02  0.79401112366E+02  0.41800000000E+01 0.  1.
         -5    1    3    3    0  502 -0.66317723515E+01 -0.60581451960E+02 -0.95411227876E+01  0.61827163529E+02  0.41800000000E+01 0.  1.
        -11    1    1    2    0    0 -0.21359751616E+02  0.18020263111E+02  0.13759185425E+03  0.14040116533E+03  0.00000000000E+00 0. -1.
         11    1    1    2    0    0 -0.37532003091E+02  0.59619975008E+01  0.54325453976E+02  0.66298202237E+02  0.00000000000E+00 0.  1.
</event>
<event>
 7    1  0.2440960E-009  0.1015899E+03  0.7561462E-02  0.1276988E+00
         -1   -1    0    0    0  501 -0.00000000000E+00  0.00000000000E+00  0.95728585897E+02  0.95728585897E+02  0.00000000000E+00 0. -1.
          1   -1    0    0  501    0  0.00000000000E+00 -0.00000000000E+00 -0.15221252697E+03  0.15221252697E+03  0.00000000000E+00 0.  1.
         25    2    1    2    0    0  0.68569112840E+01  0.70857937181E+01 -0.86652443332E+02  0.15248816215E+03  0.12508704152E+03 0.  0.
          5    1    3    3  502    0 -0.55090723049E+02  0.11041143848E+02 -0.66351670048E+02  0.87045454457E+02  0.41800000000E+01 0.  1.
         -5    1    3    3    0  502  0.61947634333E+02 -0.39553501295E+01 -0.20300773284E+02  0.65442707692E+02  0.41800000000E+01 0.  1.
        -11    1    1    2    0    0 -0.45401794803E+02  0.17001655992E+00 -0.90915054528E+00  0.45411214823E+02  0.00000000000E+00 0. -1.
         11    1    1    2    0    0  0.38544883519E+02 -0.72558102780E+01  0.31077652799E+02  0.50041735900E+02  0.00000000000E+00 0.  1.
</event>
<event>
 7    1  0.2440960E-009  0.1256347E+03  0.7561462E-02  0.1234081E+00
          1   -1    0    0  501    0  0.00000000000E+00  0.00000000000E+00  0.99115213016E+03  0.99115213016E+03  0.00000000000E+00 0. -1.
         -1   -1    0    0    0  501 -0.00000000000E+00 -0.00000000000E+00 -0.18771004234E+02  0.18771004234E+02  0.00000000000E+00 0.  1.
         25    2    1    2    0    0  0.80065926015E+02 -0.23781681276E+01  0.61565566907E+03  0.63332164334E+03  0.12509273710E+03 0.  0.
          5    1    3    3  502    0  0.92932291864E+02 -0.45126599696E+02  0.44768640163E+03  0.45947079067E+03  0.41800000000E+01 0.  1.
         -5    1    3    3    0  502 -0.12866365848E+02  0.42748431569E+02  0.16796926744E+03  0.17385085267E+03  0.41800000000E+01 0.  1.
        -11    1    1    2    0    0 -0.78233723401E+01 -0.24682770548E+02  0.24886984441E+02  0.35913873521E+02  0.00000000000E+00 0. -1.
         11    1    1    2    0    0 -0.72242553675E+02  0.27060938676E+02  0.33183847242E+03  0.34068761753E+03  0.00000000000E+00 0.  1.
</event>
<event>
 7    1  0.2440960E-009  0.9113286E+02  0.7561462E-02  0.1300131E+00
          1   -1    0    0  501    0  0.00000000000E+00  0.00000000000E+00  0.19640955097E+03  0.19640955097E+03  0.00000000000E+00 0.  1.
         -1   -1    0    0    0  501 -0.00000000000E+00 -0.00000000000E+00 -0.63260263505E+02  0.63260263505E+02  0.00000000000E+00 0. -1.
         25    2    1    2    0    0  0.61783681521E+01 -0.29631653357E+01  0.10852647117E+03  0.16574799470E+03  0.12508976866E+03 0.  0.
          5    1    3    3  502    0 -0.51024626571E+02  0.13189456547E+02  0.88123230507E+02  0.10276502535E+03  0.41800000000E+01 0.  1.
         -5    1    3    3    0  502  0.57202994723E+02 -0.16152621883E+02  0.20403240659E+02  0.62982969351E+02  0.41800000000E+01 0.  1.
        -11    1    1    2    0    0 -0.26055171494E+02 -0.24597268415E+02  0.42448471355E+02  0.55549710129E+02  0.00000000000E+00 0.  1.
         11    1    1    2    0    0  0.19876803342E+02  0.27560433751E+02 -0.17825655060E+02  0.38372109637E+02  0.00000000000E+00 0. -1.
</event>
<event>
 7    1  0.2440960E-009  0.1220350E+03  0.7561462E-02  0.1239777E+00
          2   -1    0    0  501    0  0.00000000000E+00  0.00000000000E+00  0.98124389428E+03  0.98124389428E+03  0.00000000000E+00 0.  1.
         -2   -1    0    0    0  501 -0.00000000000E+00 -0.00000000000E+00 -0.16756850705E+02  0.16756850705E+02  0.00000000000E+00 0. -1.
         25    2    1    2    0    0 -0.36951928975E+02 -0.59716914743E+02  0.51355268634E+03  0.53321178086E+03  0.12508751594E+03 0.  0.
          5    1    3    3  502    0 -0.41249380219E+02  0.23776867451E+02  0.30097791763E+03  0.30474912649E+03  0.41800000000E+01 0.  1.
         -5    1    3    3    0  502  0.42974512438E+01 -0.83493782194E+02  0.21257476871E+03  0.22846265437E+03  0.41800000000E+01 0.  1.
        -11    1    1    2    0    0 -0.23416422807E+02  0.44538932717E+02  0.19346425394E+03  0.19990113291E+03  0.00000000000E+00 0.  1.
         11    1    1    2    0    0  0.60368351782E+02  0.15177982026E+02  0.25747010329E+03  0.26488783121E+03  0.00000000000E+00 0. -1.
</event>
<event>
 7    1  0.2440960E-009  0.1762421E+03  0.7561462E-02  0.1171490E+00
          1   -1    0    0  501    0  0.00000000000E+00  0.00000000000E+00  0.75209781637E+02  0.75209781637E+02  0.00000000000E+00 0. -1.
         -1   -1    0    0    0  501 -0.00000000000E+00 -0.00000000000E+00 -0.49797713145E+03  0.49797713145E+03  0.00000000000E+00 0.  1.
         25    2    1    2    0    0  0.11963760185E+03 -0.91525115736E+02 -0.14181461204E+03  0.24176154126E+03  0.12508899254E+03 0.  0.
          5    1    3    3  502    0  0.13396237626E+03 -0.71154465637E+02 -0.15177134267E+03  0.21461800737E+03  0.41800000000E+01 0.  1.
         -5    1    3    3    0  502 -0.14324774406E+02 -0.20370650099E+02  0.99567306236E+01  0.27143533888E+02  0.41800000000E+01 0.  1.
        -11    1    1    2    0    0  0.32476744101E+01  0.43390886363E+02 -0.78545989261E+02  0.89793033346E+02  0.00000000000E+00 0.  1.
         11    1    1    2    0    0 -0.12288527626E+03  0.48134229373E+02 -0.20240674851E+03  0.24163233848E+03  0.00000000000E+00 0. -1.
</event>
<event>
 7    1  0.2440960E-009  0.1261082E+03  0.7561462E-02  0.1233347E+00
          3   -1    0    0  501    0  0.00000000000E+00  0.00000000000E+00  0.14787359019E+03  0.14787359019E+03  0.00000000000E+00 0. -1.
         -3   -1    0    0    0  501 -0.00000000000E+00 -0.00000000000E+00 -0.16371671439E+03  0.16371671439E+03  0.00000000000E+00 0.  1.
         25    2    1    2    0    0  0.87983960076E+02  0.55342032332E+01 -0.75266806773E+02  0.17054178220E+03  0.12509037788E+03 0.  0.
          5    1    3    3  502    0 -0.86374007408E+01 -0.31789274189E+02 -0.55996818563E+02  0.65102063978E+02  0.41800000000E+01 0.  1.
         -5    1    3    3    0  502  0.96621360817E+02  0.37323477423E+02 -0.19269988210E+02  0.10543971822E+03  0.41800000000E+01 0.  1.
        -11    1    1    2    0    0 -0.75600798543E+02 -0.35055800607E+02  0.12530726824E+02  0.84269858261E+02  0.00000000000E+00 0. -1.
         11    1    1    2    0    0 -0.12383161533E+02  0.29521597374E+02  0.46892955751E+02  0.56778664128E+02  0.00000000000E+00 0.  1.
</event>
<event>
 7    1  0.2440960E-009  0.1048780E+03  0.7561462E-02  0.1270360E+00
          3   -1    0    0  501    0  0.00000000000E+00  0.00000000000E+00  0.35717880219E+03  0.35717880219E+03  0.00000000000E+00 0. -1.
         -3   -1    0    0    0  501 -0.00000000000E+00 -0.00000000000E+00 -0.47911075837E+02  0.47911075837E+02  0.00000000000E+00 0.  1.
         25    2    1    2    0    0  0.46514530692E+02  0.30709763016E+02  0.25086594039E+03  0.28581050257E+03  0.12508889728E+03 0.  0.
          5    1    3    3  502    0  0.80245978969E+02 -0.12199552844E+02  0.13326896454E+03  0.15609719902E+03  0.41800000000E+01 0.  1.
         -5    1    3    3    0  502 -0.33731448277E+02  0.42909315860E+02  0.11759697584E+03  0.12971330355E+03  0.41800000000E+01 0.  1.
        -11    1    1    2    0    0 -0.18425453046E+02  0.12455407471E+02 -0.16982641701E+02  0.27982934342E+02  0.00000000000E+00 0.  1.
         11    1    1    2    0    0 -0.28089077646E+02 -0.43165170487E+02  0.75384427672E+02  0.91296441122E+02  0.00000000000E+00 0. -1.
</event>
<event>
 7    1  0.2440960E-009  0.1301503E+03  0.7561462E-02  0.1227233E+00
         -1   -1    0    0    0  501 -0.00000000000E+00  0.00000000000E+00  0.45839726184E+03  0.45839726184E+03  0.00000000000E+00 0.  1.
          1   -1    0    0  501    0  0.00000000000E+00 -0.00000000000E+00 -0.40399558381E+02  0.40399558381E+02  0.00000000000E+00 0. -1.
         25    2    1    2    0    0  0.78903560634E+02 -0.64800212404E+00  0.30219700975E+03  0.33644500944E+03  0.12508405130E+03 0.  0.
          5    1    3    3  502    0  0.70159187237E+02 -0.56549271018E+02  0.20360762763E+03  0.22269636287E+03  0.41800000000E+01 0.  1.
         -5    1    3    3    0  502  0.87443733977E+01  0.55901268894E+02  0.98589382127E+02  0.11374864658E+03  0.41800000000E+01 0.  1.
        -11    1    1    2    0    0 -0.23141102691E+01 -0.30564116070E+02  0.25217031532E+02  0.39691547926E+02  0.00000000000E+00 0. -1.
         11    1    1    2    0    0 -0.76589450365E+02  0.31212118194E+02  0.90583662170E+02  0.12266026285E+03  0.00000000000E+00 0.  1.
</event>
<event>
 7    1  0.2440960E-009  0.1114190E+03  0.7561462E-02  0.1257964E+00
         -1   -1    0    0    0  501 -0.00000000000E+00  0.00000000000E+00  0.10086925654E+03  0.10086925654E+03  0.00000000000E+00 0.  1.
          1   -1    0    0  501    0  0.00000000000E+00 -0.00000000000E+00 -0.13492744287E+03  0.13492744287E+03  0.00000000000E+00 0. -1.
         25    2    1    2    0    0 -0.22662668148E+02 -0.33612728072E+02 -0.34366592944E+02  0.13591373305E+03  0.12509223839E+03 0.  0.
          5    1    3    3  502    0 -0.63177777197E+02 -0.48324590516E+02 -0.44777841274E+02  0.91374093972E+02  0.41800000000E+01 0.  1.
         -5    1    3    3    0  502  0.40515109049E+02  0.14711862444E+02  0.10411248330E+02  0.44539639082E+02  0.41800000000E+01 0.  1.
        -11    1    1    2    0    0  0.24320801870E+02 -0.28659283568E+02 -0.26049731489E-01  0.37587985006E+02  0.00000000000E+00 0. -1.
         11    1    1    2    0    0 -0.16581337221E+01  0.62272011640E+02  0.33445634361E+00  0.62294981356E+02  0.00000000000E+00 0.  1.
</event>
<event>
 7    1  0.2440960E-009  0.1089038E+03  0.7561462E-02  0.1262613E+00
         -2   -1    0    0    0  501 -0.00000000000E+00  0.00000000000E+00  0.15587666188E+03  0.15587666188E+03  0.00000000000E+00 0.  1.
          2   -1    0    0  501    0  0.00000000000E+00 -0.00000000000E+00 -0.79199227776E+02  0.79199227776E+02  0.00000000000E+00 0. -1.
         25    2    1    2    0    0  0.15365677882E+02 -0.17383516617E+02  0.60755983743E+02  0.14098454008E+03  0.12508820998E+03 0.  0.
          5    1    3    3  502    0  0.46126900415E+02  0.39301612974E+02  0.41432463924E+02  0.73528424375E+02  0.41800000000E+01 0.  1.
         -5    1    3    3    0  502 -0.30761222532E+02 -0.56685129591E+02  0.19323519819E+02  0.67456115709E+02  0.41800000000E+01 0.  1.
        -11    1    1    2    0    0 -0.52497020083E+02  0.17393726051E+02  0.58099762666E+01  0.55607864981E+02  0.00000000000E+00 0.  1.
         11    1    1    2    0    0  0.37131342201E+02 -0.10209434470E-01  0.10111474093E+02  0.38483484590E+02  0.00000000000E+00 0. -1.
</event>
<event>
 7    1  0.2440960E-009  0.1115037E+03  0.7561462E-02  0.1257810E+00
          3   -1    0    0  501    0  0.00000000000E+00  0.00000000000E+00  0.21047049854E+03  0.21047049854E+03  0.00000000000E+00 0. -1.
         -3   -1    0    0    0  501 -0.00000000000E+00 -0.00000000000E+00 -0.28368451163E+03  0.28368451163E+03  0.00000000000E+00 0.  1.
         25    2    1    2    0    0 -0.15884482352E+02  0.27434275741E+02 -0.25617025379E+03  0.28683716444E+03  0.12508958275E+03 0.  0.
          5    1    3    3  502    0 -0.69843595454E+02  0.24966971351E+02 -0.16134540748E+03  0.17762682905E+03  0.41800000000E+01 0.  1.
         -5    1    3    3    0  502  0.53959113103E+02  0.24673043893E+01 -0.94824846314E+02  0.10921033539E+03  0.41800000000E+01 0.  1.
        -11    1    1    2    0    0  0.23997742815E+01 -0.59607562076E+02  0.13855301687E+03  0.15085012051E+03  0.00000000000E+00 0. -1.
         11    1    1    2    0    0  0.13484708070E+02  0.32173286335E+02  0.44403223831E+02  0.56467725223E+02  0.00000000000E+00 0.  1.
</event>
<event>
 7    1  0.2440960E-009  0.1107050E+03  0.7561462E-02  0.1259270E+00
         -1   -1    0    0    0  501 -0.00000000000E+00  0.00000000000E+00  0.17700520144E+02  0.17700520144E+02  0.00000000000E+00 0.  1.
          1   -1    0    0  501    0  0.00000000000E+00 -0.00000000000E+00 -0.94803537348E+03  0.94803537348E+03  0.00000000000E+00 0. -1.
         25    2    1    2    0    0 -0.40886553156E+02  0.25535310253E+02 -0.69331983794E+03  0.70615964130E+03  0.12508108980E+03 0.  0.
          5    1    3    3  502    0 -0.37526229050E+02  0.73303058163E+02 -0.51099377630E+03  0.51760377513E+03  0.41800000000E+01 0.  1.
         -5    1    3    3    0  502 -0.33603241066E+01 -0.47767747910E+02 -0.18232606164E+03  0.18855586618E+03  0.41800000000E+01 0.  1.
        -11    1    1    2    0    0  0.11206470182E+01 -0.46102433006E+02 -0.18632127045E+03  0.19194349690E+03  0.00000000000E+00 0. -1.
         11    1    1    2    0    0  0.39765906138E+02  0.20567122753E+02 -0.50693744941E+02  0.67632755418E+02  0.00000000000E+00 0.  1.
</event>
<event>
 7    1  0.2440960E-009  0.2328645E+03  0.7561462E-02  0.1124640E+00
          1   -1    0    0  501    0  0.00000000000E+00  0.00000000000E+00  0.54946015646E+03  0.54946015646E+03  0.00000000000E+00 0. -1.
         -1   -1    0    0    0  501 -0.00000000000E+00 -0.00000000000E+00 -0.12103490585E+03  0.12103490585E+03  0.00000000000E+00 0.  1.
         25    2    1    2    0    0  0.13956273951E+03  0.18536951878E+03  0.17837559007E+03  0.31828295866E+03  0.12508626579E+03 0.  0.
          5    1    3    3  502    0  0.99130711987E+02  0.12056909114E+03  0.18430851901E+03  0.24155932269E+03  0.41800000000E+01 0.  1.
         -5    1    3    3    0  502  0.40432027519E+02  0.64800427641E+02 -0.59329289356E+01  0.76723635977E+02  0.41800000000E+01 0.  1.
        -11    1    1    2    0    0 -0.48615834549E+02 -0.82705802271E+02  0.16489759442E+03  0.19077464649E+03  0.00000000000E+00 0. -1.
         11    1    1    2    0    0 -0.90946904957E+02 -0.10266371651E+03  0.85152066116E+02  0.16143745716E+03  0.00000000000E+00 0.  1.
</event>
<event>
 7    1  0.2440960E-009  0.3079914E+03  0.7561462E-02  0.1081313E+00
         -3   -1    0    0    0  501 -0.00000000000E+00  0.00000000000E+00  0.89330052767E+02  0.89330052767E+02  0.00000000000E+00 0.  1.
          3   -1    0    0  501    0  0.00000000000E+00 -0.00000000000E+00 -0.11179596875E+04  0.11179596875E+04  0.00000000000E+00 0. -1.
         25    2    1    2    0    0  0.83737829607E+02  0.28129369759E+03 -0.60258967926E+03  0.68183657638E+03  0.12509447205E+03 0.  0.
          5    1    3    3  502    0 -0.19026815650E+02  0.15445365487E+03 -0.28724609884E+03  0.32671967329E+03  0.41800000000E+01 0. -1.
         -5    1    3    3    0  502  0.10276464526E+03  0.12684004271E+03 -0.31534358042E+03  0.35511690310E+03  0.41800000000E+01 0. -1.
        -11    1    1    2    0    0 -0.72800451398E+02 -0.16683842597E+03 -0.32444965392E+03  0.37202492394E+03  0.00000000000E+00 0.  1.
         11    1    1    2    0    0 -0.10937378209E+02 -0.11445527162E+03 -0.10159030156E+03  0.15342823995E+03  0.00000000000E+00 0. -1.
</event>
<event>
 7    1  0.2440960E-009  0.5195809E+02  0.7561462E-02  0.1435057E+00
          2   -1    0    0  501    0  0.00000000000E+00  0.00000000000E+00  0.42604580022E+02  0.42604580022E+02  0.00000000000E+00 0. -1.
         -2   -1    0    0    0  501 -0.00000000000E+00 -0.00000000000E+00 -0.25523503561E+03  0.25523503561E+03  0.00000000000E+00 0.  1.
         25    2    1    2    0    0  0.36092695512E+02  0.26498743089E+02 -0.13332938996E+03  0.18822737076E+03  0.12509176959E+03 0.  0.
          5    1    3    3  502    0  0.21466107766E+02  0.20259534503E+02  0.18778939221E+02  0.35232988508E+02  0.41800000000E+01 0. -1.
         -5    1    3    3    0  502  0.14626587746E+02  0.62392085855E+01 -0.15210832919E+03  0.15299438225E+03  0.41800000000E+01 0. -1.
        -11    1    1    2    0    0 -0.10966821845E+02  0.89895727941E+01 -0.60672076437E+02  0.62307178235E+02  0.00000000000E+00 0.  1.
         11    1    1    2    0    0 -0.25125873667E+02 -0.35488315883E+02 -0.18628989191E+02  0.47305066642E+02  0.00000000000E+00 0. -1.
</event>
<event>
 7    1  0.2852736E-009  0.1398459E+03  0.7561462E-02  0.1213536E+00
         -2   -1    0    0    0  501 -0.00000000000E+00  0.00000000000E+00  0.13512962958E+02  0.13512962958E+02  0.00000000000E+00 0.  1.
          2   -1    0    0  501    0  0.00000000000E+00 -0.00000000000E+00 -0.17070367602E+04  0.17070367602E+04  0.00000000000E+00 0. -1.
         25    2    1    2    0    0  0.33322132410E+02 -0.86782373167E+02 -0.12002595974E+04  0.12103355680E+04  0.12509013299E+03 0.  0.
          5    1    3    3  502    0 -0.18996161024E+02 -0.95466626846E+02 -0.91370472630E+03  0.91888439439E+03  0.41800000000E+01 0. -1.
         -5    1    3    3    0  502  0.52318293434E+02  0.86842536795E+01 -0.28655487105E+03  0.29145117364E+03  0.41800000000E+01 0. -1.
        -11    1    1    2    0    0  0.12330428047E+02  0.82271488703E+02 -0.35158548183E+03  0.36129349336E+03  0.00000000000E+00 0. -1.
         11    1    1    2    0    0 -0.45652560457E+02  0.45108844640E+01 -0.14167871806E+03  0.14892066179E+03  0.00000000000E+00 0.  1.
</event>
<event>
 7    1  0.2440960E-009  0.8674059E+02  0.7561462E-02  0.1310942E+00
         -2   -1    0    0    0  501 -0.00000000000E+00  0.00000000000E+00  0.47225819167E+02  0.47225819167E+02  0.00000000000E+00 0.  1.
          2   -1    0    0  501    0  0.00000000000E+00 -0.00000000000E+00 -0.29358712497E+03  0.29358712497E+03  0.00000000000E+00 0. -1.
         25    2    1    2    0    0 -0.45957812402E+02  0.59708456823E+01 -0.13457991031E+03  0.18949424597E+03  0.12509414646E+03 0.  0.
          5    1    3    3  502    0 -0.38089500154E+02  0.33525305376E+02 -0.14877313524E+03  0.15724399604E+03  0.41800000000E+01 0.  1.
         -5    1    3    3    0  502 -0.78683122484E+01 -0.27554459694E+02  0.14193224929E+02  0.32250249930E+02  0.41800000000E+01 0.  1.
        -11    1    1    2    0    0  0.23751882660E+02  0.37733095788E+02 -0.83670931598E+02  0.94809088394E+02  0.00000000000E+00 0. -1.
         11    1    1    2    0    0  0.22205929742E+02 -0.43703941471E+02 -0.28110463893E+02  0.56509609767E+02  0.00000000000E+00 0.  1.
</event>
<event>
 7    1  0.2440960E-009  0.1038386E+03  0.7561462E-02  0.1272425E+00
          2   -1    0    0  501    0  0.00000000000E+00  0.00000000000E+00  0.72028029738E+03  0.72028029738E+03  0.00000000000E+00 0.  1.
         -2   -1    0    0    0  501 -0.00000000000E+00 -0.00000000000E+00 -0.17144859536E+02  0.17144859536E+02  0.00000000000E+00 0. -1.
         25    2    1    2    0    0  0.15443979173E+01 -0.40048737962E+01  0.50495195698E+03  0.52023078171E+03  0.12508062680E+03 0.  0.
          5    1    3    3  502    0 -0.11357364997E+02 -0.60416331206E+02  0.18305378922E+03  0.19314576093E+03  0.41800000000E+01 0. -1.
         -5    1    3    3    0  502  0.12901762914E+02  0.56411457410E+02  0.32189816776E+03  0.32708502079E+03  0.41800000000E+01 0. -1.
        -11    1    1    2    0    0 -0.37902924875E+02 -0.21550046449E+02  0.83431160340E+02  0.94137106030E+02  0.00000000000E+00 0.  1.
         11    1    1    2    0    0  0.36358526958E+02  0.25554920245E+02  0.11475232052E+03  0.12305726917E+03  0.00000000000E+00 0. -1.
</event>
<event>
 7    1  0.2440960E-009  0.1136361E+03  0.7561462E-02  0.1253981E+00
         -1   -1    0    0    0  501 -0.00000000000E+00  0.00000000000E+00  0.71204306107E+02  0.71204306107E+02  0.00000000000E+00 0.  1.
          1   -1    0    0  501    0  0.00000000000E+00 -0.00000000000E+00 -0.28088774444E+03  0.28088774444E+03  0.00000000000E+00 0. -1.
         25    2    1    2    0    0 -0.42187910729E+02  0.61440197306E+02 -0.17780289376E+03  0.22981822841E+03  0.12509129235E+03 0.  0.
          5    1    3    3  502    0 -0.78582243593E+02  0.64705296167E+02 -0.95368333289E+02  0.13955119403E+03  0.41800000000E+01 0. -1.
         -5    1    3    3    0  502  0.36394332864E+02 -0.32650988613E+01 -0.82434560471E+02  0.90267034377E+02  0.41800000000E+01 0. -1.
        -11    1    1    2    0    0 -0.61337187987E+01 -0.30781961497E+02 -0.52732293714E+02  0.61366492977E+02  0.00000000000E+00 0. -1.
         11    1    1    2    0    0  0.48321629527E+02 -0.30658235809E+02  0.20851749146E+02  0.60907329161E+02  0.00000000000E+00 0.  1.
</event>
<event>
 7    1  0.2440960E-009  0.1967453E+03  0.7561462E-02  0.1152514E+00
          2   -1    0    0  501    0  0.00000000000E+00  0.00000000000E+00  0.22577520849E+03  0.22577520849E+03  0.00000000000E+00 0.  1.
         -2   -1    0    0    0  501 -0.00000000000E+00 -0.00000000000E+00 -0.26815848874E+03  0.26815848874E+03  0.00000000000E+00 0. -1.
         25    2    1    2    0    0  0.18416111549E+03  0.32365826729E+02  0.94834909486E+02  0.24413538757E+03  0.12508222978E+03 0.  0.
          5    1    3    3  502    0  0.62111538876E+02  0.13574150797E+02  0.10211551964E+03  0.12036258797E+03  0.41800000000E+01 0.  1.
         -5    1    3    3    0  502  0.12204957662E+03  0.18791675932E+02 -0.72806101547E+01  0.12377279960E+03  0.41800000000E+01 0.  1.
        -11    1    1    2    0    0 -0.10278443119E+03  0.26062620636E+02 -0.89844288871E+02  0.13898163811E+03  0.00000000000E+00 0.  1.
         11    1    1    2    0    0 -0.81376684301E+02 -0.58428447366E+02 -0.47373900869E+02  0.11081667155E+03  0.00000000000E+00 0. -1.
</event>
<event>
 7    1  0.2440960E-009  0.1050045E+03  0.7561462E-02  0.1270111E+00
          4   -1    0    0  501    0  0.00000000000E+00  0.00000000000E+00  0.21731752461E+02  0.21731752461E+02  0.00000000000E+00 0. -1.
         -4   -1    0    0    0  501 -0.00000000000E+00 -0.00000000000E+00 -0.59789959400E+03  0.59789959400E+03  0.00000000000E+00 0.  1.
         25    2    1    2    0    0  0.19628623552E+02 -0.89263466364E+01 -0.24785798920E+03  0.27846854098E+03  0.12508470321E+03 0.  0.
          5    1    3    3  502    0 -0.21703393223E+02  0.44475641645E+02 -0.55090516562E+02  0.74172484064E+02  0.41800000000E+01 0. -1.
         -5    1    3    3    0  502  0.41332016776E+02 -0.53401988282E+02 -0.19276747264E+03  0.20429605691E+03  0.41800000000E+01 0. -1.
        -11    1    1    2    0    0 -0.53152930993E+02 -0.10151763671E+02 -0.19840144577E+03  0.20564879300E+03  0.00000000000E+00 0.  1.
         11    1    1    2    0    0  0.33524307441E+02  0.19078110307E+02 -0.12990840657E+03  0.13551401248E+03  0.00000000000E+00 0. -1.
</event>
<event>
 7    1  0.2440960E-009  0.2681952E+03  0.7561462E-02  0.1102317E+00
          1   -1    0    0  501    0  0.00000000000E+00  0.00000000000E+00  0.10741753688E+04  0.10741753688E+04  0.00000000000E+00 0. -1.
         -1   -1    0    0    0  501 -0.00000000000E+00 -0.00000000000E+00 -0.76943530969E+02  0.76943530969E+02  0.00000000000E+00 0.  1.
         25    2    1    2    0    0 -0.24530185535E+03  0.48484908574E+02  0.32878279727E+03  0.43158887429E+03  0.12508813707E+03 0.  0.
          5    1    3    3  502    0 -0.20309560163E+03  0.81963550010E+02  0.22179929513E+03  0.31173425646E+03  0.41800000000E+01 0. -1.
         -5    1    3    3    0  502 -0.42206253721E+02 -0.33478641436E+02  0.10698350214E+03  0.11985461783E+03  0.41800000000E+01 0. -1.
        -11    1    1    2    0    0  0.11110193091E+00 -0.15967509132E+02  0.73532083495E+02  0.75245870283E+02  0.00000000000E+00 0. -1.
         11    1    1    2    0    0  0.24519075342E+03 -0.32517399441E+02  0.59491695706E+03  0.64428415519E+03  0.00000000000E+00 0.  1.
</event>
<event>
 7    1  0.2440960E-009  0.1233380E+03  0.7561462E-02  0.1237690E+00
          1   -1    0    0  501    0  0.00000000000E+00  0.00000000000E+00  0.40906175288E+03  0.40906175288E+03  0.00000000000E+00 0. -1.
         -1   -1    0    0    0  501 -0.00000000000E+00 -0.00000000000E+00 -0.44253196158E+02  0.44253196158E+02  0.00000000000E+00 0.  1.
         25    2    1    2    0    0  0.34352578741E+02  0.65328762675E+02  0.14315897582E+03  0.20393705418E+03  0.12509149776E+03 0.  0.
          5    1    3    3  502    0  0.73472214882E+02  0.26147846931E+02  0.42333702618E+02  0.88834064615E+02  0.41800000000E+01 0. -1.
         -5    1    3    3    0  502 -0.39119636141E+02  0.39180915745E+02  0.10082527320E+03  0.11510298956E+03  0.41800000000E+01 0. -1.
        -11    1    1    2    0    0  0.28778504437E+02 -0.15937275723E+02  0.82104716503E+02  0.88449892861E+02  0.00000000000E+00 0. -1.
         11    1    1    2    0    0 -0.63131083177E+02 -0.49391486953E+02  0.13954486440E+03  0.16092800200E+03  0.00000000000E+00 0.  1.
</event>
<event>
 7    1  0.2440960E-009  0.1185505E+03  0.7561462E-02  0.1245508E+00
         -2   -1    0    0    0  501 -0.00000000000E+00  0.00000000000E+00  0.53936125028E+02  0.53936125028E+02  0.00000000000E+00 0.  1.
          2   -1    0    0  501    0  0.00000000000E+00 -0.00000000000E+00 -0.29655164448E+03  0.29655164448E+03  0.00000000000E+00 0. -1.
         25    2    1    2    0    0 -0.38973547036E+02 -0.52378323976E+02 -0.13630470779E+03  0.19618582914E+03  0.12508988768E+03 0.  0.
          5    1    3    3  502    0 -0.73717098001E+02 -0.68111280444E+02 -0.81879069484E+02  0.12959556891E+03  0.41800000000E+01 0. -1.
         -5    1    3    3    0  502  0.34743550964E+02  0.15732956468E+02 -0.54425638307E+02  0.66590260233E+02  0.41800000000E+01 0. -1.
        -11    1    1    2    0    0 -0.18247117410E+02  0.33283524175E+02 -0.77404748801E+01  0.38738420549E+02  0.00000000000E+00 0.  1.
         11    1    1    2    0    0  0.57220664447E+02  0.19094799801E+02 -0.98570336783E+02  0.11556351982E+03  0.00000000000E+00 0. -1.
</event>
<event>
 7    1  0.2440960E-009  0.1446154E+03  0.7561462E-02  0.1207250E+00
          1   -1    0    0  501    0  0.00000000000E+00  0.00000000000E+00  0.27658918731E+02  0.27658918731E+02  0.00000000000E+00 0. -1.
         -1   -1    0    0    0  501 -0.00000000000E+00 -0.00000000000E+00 -0.80906643639E+03  0.80906643639E+03  0.00000000000E+00 0.  1.
         25    2    1    2    0    0  0.67259460484E+02 -0.71401449600E+02 -0.33325036382E+03  0.36922308212E+03  0.12509147596E+03 0.  0.
          5    1    3    3  502    0  0.88730044164E+02 -0.56468041343E+01 -0.17052578826E+03  0.19235754209E+03  0.41800000000E+01 0.  1.
         -5    1    3    3    0  502 -0.21470583679E+02 -0.65754645466E+02 -0.16272457555E+03  0.17686554004E+03  0.41800000000E+01 0.  1.
        -11    1    1    2    0    0  0.13114641198E+02  0.44150820398E+02 -0.11961870263E+03  0.12817926032E+03  0.00000000000E+00 0.  1.
         11    1    1    2    0    0 -0.80374101682E+02  0.27250629203E+02 -0.32853845120E+03  0.33932301268E+03  0.00000000000E+00 0. -1.
</event>
<event>
 7    1  0.2440960E-009  0.2233568E+03  0.7561462E-02  0.1131405E+00
         -2   -1    0    0    0  501 -0.00000000000E+00  0.00000000000E+00  0.16601455381E+03  0.16601455381E+03  0.00000000000E+00 0. -1.
          2   -1    0    0  501    0  0.00000000000E+00 -0.00000000000E+00 -0.45977795241E+03  0.45977795241E+03  0.00000000000E+00 0.  1.
         25    2    1    2    0    0  0.64344321999E+02 -0.19819040655E+03  0.13755267375E+02  0.24343578769E+03  0.12510853818E+03 0.  0.
          5    1    3    3  502    0  0.48762735630E+02 -0.20464334670E+03 -0.13792875662E+02  0.21086588049E+03  0.41800000000E+01 0. -1.
         -5    1    3    3    0  502  0.15581586369E+02  0.64529401525E+01  0.27548143036E+02  0.32569907202E+02  0.41800000000E+01 0. -1.
        -11    1    1    2    0    0 -0.32762974028E+02  0.20942008928E+02 -0.21615242275E+02  0.44488188362E+02  0.00000000000E+00 0. -1.
         11    1    1    2    0    0 -0.31581347971E+02  0.17724839762E+03 -0.28590342369E+03  0.33786853017E+03  0.00000000000E+00 0.  1.
</event>
<event>
 7    1  0.2440960E-009  0.1019510E+03  0.7561462E-02  0.1276246E+00
          4   -1    0    0  501    0  0.00000000000E+00  0.00000000000E+00  0.10332701963E+03  0.10332701963E+03  0.00000000000E+00 0. -1.
         -4   -1    0    0    0  501 -0.00000000000E+00 -0.00000000000E+00 -0.12304496337E+03  0.12304496337E+03  0.00000000000E+00 0.  1.
         25    2    1    2    0    0  0.30443201980E+01  0.11730935722E+02  0.19058215187E+02  0.12711207801E+03  0.12508949625E+03 0.  0.
          5    1    3    3  502    0  0.63863988657E+02  0.91251223211E+01  0.90635654255E+01  0.65280146468E+02  0.41800000000E+01 0. -1.
         -5    1    3    3    0  502 -0.60819668459E+02  0.26058134013E+01  0.99946497615E+01  0.61831931547E+02  0.41800000000E+01 0. -1.
        -11    1    1    2    0    0  0.35789988851E+02 -0.15929175296E+02  0.62302325950E+01  0.39667086177E+02  0.00000000000E+00 0. -1.
         11    1    1    2    0    0 -0.38834309049E+02  0.41982395734E+01 -0.45006391531E+02  0.59592818808E+02  0.00000000000E+00 0.  1.
</event>
<event>
 7    1  0.2440960E-009  0.1161958E+03  0.7561462E-02  0.1249508E+00
          1   -1    0    0  501    0  0.00000000000E+00  0.00000000000E+00  0.41875592431E+02  0.41875592431E+02  0.00000000000E+00 0. -1.
         -1   -1    0    0    0  501 -0.00000000000E+00 -0.00000000000E+00 -0.36917036234E+03  0.36917036234E+03  0.00000000000E+00 0.  1.
         25    2    1    2    0    0 -0.59973139195E+02 -0.18924841294E+02 -0.17732267692E+03  0.22593657947E+03  0.12509627951E+03 0.  0.
          5    1    3    3  502    0  0.35452414532E+02  0.14823751294E+02 -0.51887028438E+02  0.64702035661E+02  0.41800000000E+01 0.  1.
         -5    1    3    3    0  502 -0.95425553727E+02 -0.33748592588E+02 -0.12543564848E+03  0.16123454381E+03  0.41800000000E+01 0.  1.
        -11    1    1    2    0    0  0.41147716893E+02  0.44544895662E+02 -0.13870031503E+03  0.15137754036E+03  0.00000000000E+00 0.  1.
         11    1    1    2    0    0  0.18825422302E+02 -0.25620054368E+02 -0.11271777960E+02  0.33731834949E+02  0.00000000000E+00 0. -1.
</event>
<event>
 7    1  0.2440960E-009  0.7400184E+02  0.7561462E-02  0.1346990E+00
         -2   -1    0    0    0  501 -0.00000000000E+00  0.00000000000E+00  0.32518642383E+03  0.32518642383E+03  0.00000000000E+00 0.  1.
          2   -1    0    0  501    0  0.00000000000E+00 -0.00000000000E+00 -0.38170643754E+02  0.38170643754E+02  0.00000000000E+00 0. -1.
         25    2    1    2    0    0  0.12688717084E+02  0.24078040672E+02  0.15666188743E+03  0.20231681509E+03  0.12509352945E+03 0.  0.
          5    1    3    3  502    0  0.10630135131E+01 -0.37028198959E+02  0.12870071819E+03  0.13399091304E+03  0.41800000000E+01 0. -1.
         -5    1    3    3    0  502  0.11625703571E+02  0.61106239631E+02  0.27961169247E+02  0.68325902051E+02  0.41800000000E+01 0. -1.
        -11    1    1    2    0    0 -0.24249535661E+02 -0.31227629010E+01 -0.38219525207E+01  0.24746695718E+02  0.00000000000E+00 0. -1.
         11    1    1    2    0    0  0.11560818577E+02 -0.20955277771E+02  0.13417584517E+03  0.13629355678E+03  0.00000000000E+00 0.  1.
</event>
<event>
 7    1  0.2440960E-009  0.1136821E+03  0.7561462E-02  0.1253899E+00
          1   -1    0    0  501    0  0.00000000000E+00  0.00000000000E+00  0.46615957725E+03  0.46615957725E+03  0.00000000000E+00 0. -1.
         -1   -1    0    0    0  501 -0.00000000000E+00 -0.00000000000E+00 -0.32948185635E+02  0.32948185635E+02  0.00000000000E+00 0.  1.
         25    2    1    2    0    0  0.20559510043E+01  0.45877776381E+02  0.16637891554E+03  0.21316625885E+03  0.12509561574E+03 0.  0.
          5    1    3    3  502    0  0.50249252515E+02  0.63594543596E+02  0.11132801403E+03  0.13777028875E+03  0.41800000000E+01 0. -1.
         -5    1    3    3    0  502 -0.48193301511E+02 -0.17716767216E+02  0.55050901503E+02  0.75395970100E+02  0.41800000000E+01 0. -1.
        -11    1    1    2    0    0  0.39751386085E+02 -0.14109428983E+02  0.65756500568E+02  0.78122762681E+02  0.00000000000E+00 0.  1.
         11    1    1    2    0    0 -0.41807337090E+02 -0.31768347398E+02  0.20107597551E+03  0.20781874136E+03  0.00000000000E+00 0. -1.
</event>
<event>
 7    1  0.2440960E-009  0.1048211E+03  0.7561462E-02  0.1270473E+00
         -2   -1    0    0    0  501 -0.00000000000E+00  0.00000000000E+00  0.20962990471E+03  0.20962990471E+03  0.00000000000E+00 0.  1.
          2   -1    0    0  501    0  0.00000000000E+00 -0.00000000000E+00 -0.10728180221E+03  0.10728180221E+03  0.00000000000E+00 0. -1.
         25    2    1    2    0    0 -0.50931886442E+02 -0.18351874036E+02 -0.36980240340E+02  0.14123856976E+03  0.12509974850E+03 0.  0.
          5    1    3    3  502    0  0.33053830277E+02  0.24740781998E+02 -0.15805731364E+02  0.44406705955E+02  0.41800000000E+01 0. -1.
         -5    1    3    3    0  502 -0.83985716719E+02 -0.43092656034E+02 -0.21174508977E+02  0.96831863802E+02  0.41800000000E+01 0. -1.
        -11    1    1    2    0    0  0.56816064829E+02  0.27229931104E+02  0.14869323108E+03  0.16149059211E+03  0.00000000000E+00 0.  1.
         11    1    1    2    0    0 -0.58841783871E+01 -0.88780570684E+01 -0.93648882408E+01  0.14182545059E+02  0.00000000000E+00 0. -1.
</event>
<event>
 7    1  0.2440960E-009  0.1293042E+03  0.7561462E-02  0.1228492E+00
          1   -1    0    0  501    0  0.00000000000E+00  0.00000000000E+00  0.84020494384E+03  0.84020494384E+03  0.00000000000E+00 0. -1.
         -1   -1    0    0    0  501 -0.00000000000E+00 -0.00000000000E+00 -0.23755835178E+02  0.23755835178E+02  0.00000000000E+00 0.  1.
         25    2    1    2    0    0 -0.86310078621E+02  0.16116381813E+02  0.49875410798E+03  0.52164303428E+03  0.12508648031E+03 0.  0.
          5    1    3    3  502    0 -0.65152084410E+02  0.68712539957E+02  0.34236295938E+03  0.35524086984E+03  0.41800000000E+01 0. -1.
         -5    1    3    3    0  502 -0.21157994212E+02 -0.52596158145E+02  0.15639114860E+03  0.16640216444E+03  0.41800000000E+01 0. -1.
        -11    1    1    2    0    0  0.49301306714E+02  0.21880179570E+02  0.66703799504E+02  0.85783203309E+02  0.00000000000E+00 0.  1.
         11    1    1    2    0    0  0.37008771907E+02 -0.37996561383E+02  0.25099120118E+03  0.25653454143E+03  0.00000000000E+00 0. -1.
</event>
<event>
 7    1  0.2440960E-009  0.1141907E+03  0.7561462E-02  0.1253000E+00
         -3   -1    0    0    0  501 -0.00000000000E+00  0.00000000000E+00  0.65563895556E+03  0.65563895556E+03  0.00000000000E+00 0.  1.
          3   -1    0    0  501    0  0.00000000000E+00 -0.00000000000E+00 -0.86369069215E+02  0.86369069215E+02  0.00000000000E+00 0. -1.
         25    2    1    2    0    0  0.10895934986E+03 -0.15682257914E+02  0.56013275519E+03  0.58439280076E+03  0.12509264172E+03 0.  0.
          5    1    3    3  502    0  0.10012648364E+02  0.86029060382E+01 -0.11764771883E+01  0.13896748474E+02  0.41800000000E+01 0.  1.
         -5    1    3    3    0  502  0.98946701493E+02 -0.24285163952E+02  0.56130923238E+03  0.57049605229E+03  0.41800000000E+01 0.  1.
        -11    1    1    2    0    0 -0.71209897723E+01  0.75877593304E+01  0.47397349737E+02  0.48526192403E+02  0.00000000000E+00 0.  1.
         11    1    1    2    0    0 -0.10183836008E+03  0.80944985838E+01 -0.38260218580E+02  0.10908903161E+03  0.00000000000E+00 0. -1.
</event>
<event>
 7    1  0.2440960E-009  0.9331315E+02  0.7561462E-02  0.1295021E+00
          1   -1    0    0  501    0  0.00000000000E+00  0.00000000000E+00  0.39720173923E+03  0.39720173923E+03  0.00000000000E+00 0. -1.
         -1   -1    0    0    0  501 -0.00000000000E+00 -0.00000000000E+00 -0.56299466392E+02  0.56299466392E+02  0.00000000000E+00 0.  1.
         25    2    1    2    0    0 -0.25111050195E+02 -0.89429043386E+02  0.22662105961E+03  0.27501497121E+03  0.12509201048E+03 0.  0.
          5    1    3    3  502    0 -0.12958169920E+02 -0.35871184113E+02 -0.33744832418E+01  0.38516432265E+02  0.41800000000E+01 0.  1.
         -5    1    3    3    0  502 -0.12152880275E+02 -0.53557859274E+02  0.22999554285E+03  0.23649853894E+03  0.41800000000E+01 0.  1.
        -11    1    1    2    0    0  0.22068611083E+02  0.66893703712E+02  0.92773430046E+01  0.71048295438E+02  0.00000000000E+00 0.  1.
         11    1    1    2    0    0  0.30424391121E+01  0.22535339674E+02  0.10500387023E+03  0.10743793898E+03  0.00000000000E+00 0. -1.
</event>
<event>
 7    1  0.2440960E-009  0.2987439E+03  0.7561462E-02  0.1085870E+00
          1   -1    0    0  501    0  0.00000000000E+00  0.00000000000E+00  0.10257396415E+04  0.10257396415E+04  0.00000000000E+00 0. -1.
         -1   -1    0    0    0  501 -0.00000000000E+00 -0.00000000000E+00 -0.10021421357E+03  0.10021421357E+03  0.00000000000E+00 0.  1.
         25    2    1    2    0    0  0.27304221066E+02 -0.28328883560E+03  0.64504488936E+03  0.71605090740E+03  0.12509159778E+03 0.  0.
          5    1    3    3  502    0  0.69005781564E+02 -0.99566750952E+02  0.28403608094E+03  0.30881920837E+03  0.41800000000E+01 0.  1.
         -5    1    3    3    0  502 -0.41701560498E+02 -0.18372208465E+03  0.36100880842E+03  0.40723169903E+03  0.41800000000E+01 0.  1.
        -11    1    1    2    0    0  0.28044830464E+01  0.18531474408E+03  0.12453541807E+03  0.22329014723E+03  0.00000000000E+00 0.  1.
         11    1    1    2    0    0 -0.30108704113E+02  0.97974091527E+02  0.15594512048E+03  0.18661280041E+03  0.00000000000E+00 0. -1.
</event>
<event>
 7    1  0.2440960E-009  0.1128901E+03  0.7561462E-02  0.1255310E+00
          1   -1    0    0  501    0  0.00000000000E+00  0.00000000000E+00  0.53217690465E+02  0.53217690465E+02  0.00000000000E+00 0. -1.
         -1   -1    0    0    0  501 -0.00000000000E+00 -0.00000000000E+00 -0.64733041504E+03  0.64733041504E+03  0.00000000000E+00 0.  1.
         25    2    1    2    0    0  0.92476823842E+02  0.26923805621E+02 -0.53067387645E+03  0.55365945061E+03  0.12508864795E+03 0.  0.
          5    1    3    3  502    0  0.89653024452E+02  0.31583448271E+02 -0.53636622447E+03  0.54473973433E+03  0.41800000000E+01 0.  1.
         -5    1    3    3    0  502  0.28237993900E+01 -0.46596426501E+01  0.56923480207E+01  0.89197162853E+01  0.41800000000E+01 0.  1.
        -11    1    1    2    0    0 -0.53223755604E+02  0.24896331416E+02 -0.41519049738E+01  0.58905295123E+02  0.00000000000E+00 0. -1.
         11    1    1    2    0    0 -0.39253068237E+02 -0.51820137037E+02 -0.59286943146E+02  0.87983359769E+02  0.00000000000E+00 0.  1.
</event>
<event>
 7    1  0.2440960E-009  0.1586404E+03  0.7561462E-02  0.1190240E+00
         -2   -1    0    0    0  501 -0.00000000000E+00  0.00000000000E+00  0.11899676538E+03  0.11899676538E+03  0.00000000000E+00 0.  1.
          2   -1    0    0  501    0  0.00000000000E+00 -0.00000000000E+00 -0.28020452417E+03  0.28020452417E+03  0.00000000000E+00 0. -1.
         25    2    1    2    0    0  0.15739086955E+03  0.55932090017E+01 -0.62994590988E+02  0.21075807215E+03  0.12508987440E+03 0.  0.
          5    1    3    3  502    0  0.10106447593E+03  0.24940768105E+01 -0.10071955630E+03  0.14276606787E+03  0.41800000000E+01 0.  1.
         -5    1    3    3    0  502  0.56326393613E+02  0.30991321912E+01  0.37724965310E+02  0.67992004275E+02  0.41800000000E+01 0.  1.
        -11    1    1    2    0    0 -0.11615660801E+03  0.71443305547E+01 -0.60666661448E+02  0.13123963904E+03  0.00000000000E+00 0.  1.
         11    1    1    2    0    0 -0.41234261537E+02 -0.12737539556E+02 -0.37546506355E+02  0.57203578367E+02  0.00000000000E+00 0. -1.
</event>
<event>
 7    1  0.2440960E-009  0.1331116E+03  0.7561462E-02  0.1222910E+00
         -1   -1    0    0    0  501 -0.00000000000E+00  0.00000000000E+00  0.50200220694E+02  0.50200220694E+02  0.00000000000E+00 0.  1.
          1   -1    0    0  501    0  0.00000000000E+00 -0.00000000000E+00 -0.45124777126E+03  0.45124777126E+03  0.00000000000E+00 0. -1.
         25    2    1    2    0    0  0.32399695581E+02  0.96955372671E+02 -0.19553808762E+03  0.25363841693E+03  0.12508884150E+03 0.  0.
          5    1    3    3  502    0 -0.28835736088E+02  0.38635026666E+02 -0.14976855244E+03  0.15739204764E+03  0.41800000000E+01 0. -1.
         -5    1    3    3    0  502  0.61235431669E+02  0.58320346005E+02 -0.45769535183E+02  0.96246369286E+02  0.41800000000E+01 0. -1.
        -11    1    1    2    0    0  0.20623429510E+02 -0.71374712648E+02 -0.79990184287E+02  0.10917007389E+03  0.00000000000E+00 0.  1.
         11    1    1    2    0    0 -0.53023125092E+02 -0.25580660023E+02 -0.12551927866E+03  0.13863950114E+03  0.00000000000E+00 0. -1.
</event>
<event>
 7    1  0.2440960E-009  0.1290315E+03  0.7561462E-02  0.1228900E+00
          2   -1    0    0  501    0  0.00000000000E+00  0.00000000000E+00  0.11998465101E+04  0.11998465101E+04  0.00000000000E+00 0. -1.
         -2   -1    0    0    0  501 -0.00000000000E+00 -0.00000000000E+00 -0.33059901420E+02  0.33059901420E+02  0.00000000000E+00 0.  1.
         25    2    1    2    0    0  0.97181259675E+02  0.57313261935E+02  0.98747176639E+03  0.10017368234E+04  0.12508863502E+03 0.  0.
          5    1    3    3  502    0  0.67661618266E+02  0.41663043661E+02  0.94094732296E+03  0.94430569244E+03  0.41800000000E+01 0. -1.
         -5    1    3    3    0  502  0.29519641410E+02  0.15650218275E+02  0.46524443439E+02  0.57431130916E+02  0.41800000000E+01 0. -1.
        -11    1    1    2    0    0 -0.11423582617E+03 -0.41432773367E+02  0.13921228499E+03  0.18478787564E+03  0.00000000000E+00 0.  1.
         11    1    1    2    0    0  0.17054566496E+02 -0.15880488569E+02  0.40102557288E+02  0.46381712524E+02  0.00000000000E+00 0. -1.
</event>
<event>
 7    1  0.2440960E-009  0.1353808E+03  0.7561462E-02  0.1219683E+00
          1   -1    0    0  501    0  0.00000000000E+00  0.00000000000E+00  0.22831749465E+03  0.22831749465E+03  0.00000000000E+00 0. -1.
         -1   -1    0    0    0  501 -0.00000000000E+00 -0.00000000000E+00 -0.12213636615E+03  0.12213636615E+03  0.00000000000E+00 0.  1.
         25    2    1    2    0    0 -0.11489166856E+03  0.53868180686E+02  0.84139596229E+02  0.19705238772E+03  0.12509314713E+03 0.  0.
          5    1    3    3  502    0 -0.22661994781E+02  0.17833491587E+02  0.93087776087E+02  0.97541816092E+02  0.41800000000E+01 0. -1.
         -5    1    3    3    0  502 -0.92229673775E+02  0.36034689099E+02 -0.89481798582E+01  0.99510571629E+02  0.41800000000E+01 0. -1.
        -11    1    1    2    0    0  0.32826272573E+01  0.12324251056E+02  0.19883230560E+02  0.23622143495E+02  0.00000000000E+00 0.  1.
         11    1    1    2    0    0  0.11160904130E+03 -0.66192431742E+02  0.21583017067E+01  0.12977932958E+03  0.00000000000E+00 0. -1.
</event>
<event>
 7    1  0.2440960E-009  0.1053896E+03  0.7561462E-02  0.1269354E+00
          1   -1    0    0  501    0  0.00000000000E+00  0.00000000000E+00  0.40864189198E+03  0.40864189198E+03  0.00000000000E+00 0. -1.
         -1   -1    0    0    0  501 -0.00000000000E+00 -0.00000000000E+00 -0.35119910855E+02  0.35119910855E+02  0.00000000000E+00 0.  1.
         25    2    1    2    0    0 -0.17284428190E+02 -0.36203560138E+02  0.27026512474E+03  0.30049794339E+03  0.12508527934E+03 0.  0.
          5    1    3    3  502    0  0.28400983105E+02  0.27547190765E+02  0.16156477093E+03  0.16639143958E+03  0.41800000000E+01 0.  1.
         -5    1    3    3    0  502 -0.45685411295E+02 -0.63750750903E+02  0.10870035381E+03  0.13410650381E+03  0.41800000000E+01 0.  1.
        -11    1    1    2    0    0 -0.70323876024E+01  0.58822359707E+02  0.89470936897E+02  0.10730597852E+03  0.00000000000E+00 0. -1.
         11    1    1    2    0    0  0.24316815792E+02 -0.22618799569E+02  0.13785919487E+02  0.35957880921E+02  0.00000000000E+00 0.  1.
</event>
<event>
 7    1  0.2440960E-009  0.6515306E+02  0.7561462E-02  0.1377397E+00
          3   -1    0    0  501    0  0.00000000000E+00  0.00000000000E+00  0.17154132830E+02  0.17154132830E+02  0.00000000000E+00 0. -1.
         -3   -1    0    0    0  501 -0.00000000000E+00 -0.00000000000E+00 -0.89594498165E+03  0.89594498165E+03  0.00000000000E+00 0.  1.
         25    2    1    2    0    0 -0.24605753368E+02  0.11747366800E+02 -0.67863821941E+03  0.69060929135E+03  0.12509163330E+03 0.  0.
          5    1    3    3  502    0 -0.23275964080E+02  0.22300915513E+02 -0.38575114353E+02  0.50444159067E+02  0.41800000000E+01 0.  1.
         -5    1    3    3    0  502 -0.13297892881E+01 -0.10553548714E+02 -0.64006310506E+03  0.64016513228E+03  0.41800000000E+01 0.  1.
        -11    1    1    2    0    0  0.12215997461E+02 -0.47232359204E+02 -0.59719130884E+02  0.77113558752E+02  0.00000000000E+00 0. -1.
         11    1    1    2    0    0  0.12389755906E+02  0.35484992404E+02 -0.14043349852E+03  0.14537626437E+03  0.00000000000E+00 0.  1.
</event>
<event>
 7    1  0.2440960E-009  0.3222356E+03  0.7561462E-02  0.1074625E+00
          2   -1    0    0  501    0  0.00000000000E+00  0.00000000000E+00  0.15451489059E+03  0.15451489059E+03  0.00000000000E+00 0. -1.
         -2   -1    0    0    0  501 -0.00000000000E+00 -0.00000000000E+00 -0.72050037718E+03  0.72050037718E+03  0.00000000000E+00 0.  1.
         25    2    1    2    0    0  0.22022788466E+03  0.22652141175E+03 -0.30602122935E+03  0.45728489264E+03  0.12509280179E+03 0.  0.
          5    1    3    3  502    0  0.43163844469E+02  0.14042741103E+02 -0.10761678813E+03  0.11687241563E+03  0.41800000000E+01 0. -1.
         -5    1    3    3    0  502  0.17706404019E+03  0.21247867065E+03 -0.19840444122E+03  0.34041247701E+03  0.41800000000E+01 0. -1.
        -11    1    1    2    0    0 -0.13265662836E+03 -0.17850850306E+03 -0.21073705972E+03  0.30638729584E+03  0.00000000000E+00 0.  1.
         11    1    1    2    0    0 -0.87571256299E+02 -0.48012908697E+02 -0.49227197523E+02  0.11134307930E+03  0.00000000000E+00 0. -1.
</event>
<event>
 7    1  0.2440960E-009  0.9068752E+02  0.7561462E-02  0.1301195E+00
         -3   -1    0    0    0  501 -0.00000000000E+00  0.00000000000E+00  0.66843415692E+02  0.66843415692E+02  0.00000000000E+00 0.  1.
          3   -1    0    0  501    0  0.00000000000E+00 -0.00000000000E+00 -0.26704679205E+03  0.26704679205E+03  0.00000000000E+00 0. -1.
         25    2    1    2    0    0  0.44262731361E+02 -0.13314687978E+02 -0.18478308775E+03  0.22788248888E+03  0.12509663830E+03 0.  0.
          5    1    3    3  502    0 -0.66179267040E+01 -0.55484083710E+02 -0.40521750822E+02  0.69150308666E+02  0.41800000000E+01 0. -1.
         -5    1    3    3    0  502  0.50880658065E+02  0.42169395731E+02 -0.14426133693E+03  0.15873218021E+03  0.41800000000E+01 0. -1.
        -11    1    1    2    0    0 -0.25763288212E+02 -0.11467304396E+02 -0.51360978939E+02  0.58593482975E+02  0.00000000000E+00 0. -1.
         11    1    1    2    0    0 -0.18499443149E+02  0.24781992374E+02  0.35940690336E+02  0.47414235887E+02  0.00000000000E+00 0.  1.
</event>
<event>
 7    1  0.2440960E-009  0.1455670E+03  0.7561462E-02  0.1206029E+00
         -1   -1    0    0    0  501 -0.00000000000E+00  0.00000000000E+00  0.37201757550E+03  0.37201757550E+03  0.00000000000E+00 0.  1.
          1   -1    0    0  501    0  0.00000000000E+00 -0.00000000000E+00 -0.74902811914E+02  0.74902811914E+02  0.00000000000E+00 0. -1.
         25    2    1    2    0    0 -0.93314445797E+02 -0.84908660531E+02  0.14844970594E+03  0.23151999522E+03  0.12508847496E+03 0.  0.
          5    1    3    3  502    0 -0.86280855444E+02 -0.49102004437E+02  0.16390528206E+03  0.19167109000E+03  0.41800000000E+01 0.  1.
         -5    1    3    3    0  502 -0.70335903528E+01 -0.35806656094E+02 -0.15455576122E+02  0.39848905219E+02  0.41800000000E+01 0.  1.
        -11    1    1    2    0    0  0.10763171155E+03  0.89526587501E+02  0.12697010458E+03  0.18900000703E+03  0.00000000000E+00 0.  1.
         11    1    1    2    0    0 -0.14317265751E+02 -0.46179269702E+01  0.21694953065E+02  0.26400385160E+02  0.00000000000E+00 0. -1.
</event>
<event>
 7    1  0.2440960E-009  0.8196394E+02  0.7561462E-02  0.1323569E+00
          1   -1    0    0  501    0  0.00000000000E+00  0.00000000000E+00  0.35750474381E+03  0.35750474381E+03  0.00000000000E+00 0. -1.
         -1   -1    0    0    0  501 -0.00000000000E+00 -0.00000000000E+00 -0.43036898325E+02  0.43036898325E+02  0.00000000000E+00 0.  1.
         25    2    1    2    0    0 -0.85080647397E+01  0.58039889584E+02  0.15034873315E+03  0.20418991294E+03  0.12509101901E+03 0.  0.
          5    1    3    3  502    0  0.18219712143E+02  0.17556742227E+02  0.15328103585E+03  0.15541153580E+03  0.41800000000E+01 0.  1.
         -5    1    3    3    0  502 -0.26727776882E+02  0.40483147357E+02 -0.29323027000E+01  0.48778377137E+02  0.41800000000E+01 0.  1.
        -11    1    1    2    0    0 -0.21309287247E+02 -0.55754380758E+02  0.15336753266E+03  0.16457289197E+03  0.00000000000E+00 0. -1.
         11    1    1    2    0    0  0.29817351986E+02 -0.22855088262E+01  0.10751579673E+02  0.31778837228E+02  0.00000000000E+00 0.  1.
</event>
<event>
 7    1  0.2440960E-009  0.1166223E+03  0.7561462E-02  0.1248775E+00
         -1   -1    0    0    0  501 -0.00000000000E+00  0.00000000000E+00  0.44910000716E+02  0.44910000716E+02  0.00000000000E+00 0.  1.
          1   -1    0    0  501    0  0.00000000000E+00 -0.00000000000E+00 -0.32037960166E+03  0.32037960166E+03  0.00000000000E+00 0. -1.
         25    2    1    2    0    0 -0.22851641997E+02  0.45610848794E+02 -0.13542798798E+03  0.19128787768E+03  0.12509102746E+03 0.  0.
          5    1    3    3  502    0 -0.70098462511E+02  0.96399238436E+01 -0.48329506894E+02  0.85790070607E+02  0.41800000000E+01 0.  1.
         -5    1    3    3    0  502  0.47246820514E+02  0.35970924950E+02 -0.87098481088E+02  0.10549780708E+03  0.41800000000E+01 0.  1.
        -11    1    1    2    0    0  0.47957805264E+02 -0.57651082741E+02 -0.94742271816E+02  0.12082920382E+03  0.00000000000E+00 0.  1.
         11    1    1    2    0    0 -0.25106163267E+02  0.12040233947E+02 -0.45299341144E+02  0.53172520869E+02  0.00000000000E+00 0. -1.
</event>
<event>
 7    1  0.2440960E-009  0.5655005E+02  0.7561462E-02  0.1412908E+00
         -1   -1    0    0    0  501 -0.00000000000E+00  0.00000000000E+00  0.14722780616E+02  0.14722780616E+02  0.00000000000E+00 0.  1.
          1   -1    0    0  501    0  0.00000000000E+00 -0.00000000000E+00 -0.78042703014E+03  0.78042703014E+03  0.00000000000E+00 0. -1.
         25    2    1    2    0    0  0.10264821768E+02  0.46636528993E+01 -0.50704432186E+03  0.52236946815E+03  0.12509516658E+03 0.  0.
          5    1    3    3  502    0  0.93236685895E+01 -0.13748831918E+02 -0.50267484294E+03  0.50296663041E+03  0.41800000000E+01 0.  1.
         -5    1    3    3    0  502  0.94115317835E+00  0.18412484818E+02 -0.43694789141E+01  0.19402837742E+02  0.41800000000E+01 0.  1.
        -11    1    1    2    0    0  0.33329244293E+02 -0.22352734872E+01 -0.17755418264E+03  0.18066909737E+03  0.00000000000E+00 0. -1.
         11    1    1    2    0    0 -0.43594066060E+02 -0.24283794121E+01 -0.81105745031E+02  0.92111245238E+02  0.00000000000E+00 0.  1.
</event>
<event>
 7    1  0.2640261E-009  0.1250451E+03  0.7561462E-02  0.1234999E+00
         -2   -1    0    0    0  501 -0.00000000000E+00  0.00000000000E+00  0.23557592385E+02  0.23557592385E+02  0.00000000000E+00 0.  1.
          2   -1    0    0  501    0  0.00000000000E+00 -0.00000000000E+00 -0.86946199203E+03  0.86946199203E+03  0.00000000000E+00 0. -1.
         25    2    1    2    0    0 -0.12701017782E+02  0.87401439928E+02 -0.55339690125E+03  0.57419211638E+03  0.12509248039E+03 0.  0.
          5    1    3    3  502    0 -0.55860261603E+02  0.48311988970E+01 -0.15097416682E+03  0.16110363359E+03  0.41800000000E+01 0.  1.
         -5    1    3    3    0  502  0.43159243821E+02  0.82570241031E+02 -0.40242273443E+03  0.41308848279E+03  0.41800000000E+01 0.  1.
        -11    1    1    2    0    0  0.31192924483E+02 -0.58371614108E+02 -0.26930428647E+03  0.27731758434E+03  0.00000000000E+00 0. -1.
         11    1    1    2    0    0 -0.18491906701E+02 -0.29029825820E+02 -0.23203211925E+02  0.41509883693E+02  0.00000000000E+00 0.  1.
</event>
<event>
 7    1  0.2440960E-009  0.1414510E+03  0.7561462E-02  0.1211390E+00
         -2   -1    0    0    0  501 -0.00000000000E+00  0.00000000000E+00  0.15452216513E+03  0.15452216513E+03  0.00000000000E+00 0.  1.
          2   -1    0    0  501    0  0.00000000000E+00 -0.00000000000E+00 -0.14392766444E+03  0.14392766444E+03  0.00000000000E+00 0. -1.
         25    2    1    2    0    0  0.97660907926E+02  0.93158372489E+01  0.29278326041E+02  0.16164537064E+03  0.12509023827E+03 0.  0.
          5    1    3    3  502    0 -0.13946909237E+02 -0.31404334728E+02  0.24984542700E+02  0.42690142784E+02  0.41800000000E+01 0.  1.
         -5    1    3    3    0  502  0.11160781716E+03  0.40720171977E+02  0.42937833407E+01  0.11895522785E+03  0.41800000000E+01 0.  1.
        -11    1    1    2    0    0 -0.50933876979E+02  0.37511194672E+02  0.11157141901E+02  0.64232634737E+02  0.00000000000E+00 0. -1.
         11    1    1    2    0    0 -0.46727030947E+02 -0.46827031921E+02 -0.29840967255E+02  0.72571824191E+02  0.00000000000E+00 0.  1.
</event>
<event>
 7    1  0.2440960E-009  0.7740900E+02  0.7561462E-02  0.1336569E+00
         -1   -1    0    0    0  501 -0.00000000000E+00  0.00000000000E+00  0.39336660466E+03  0.39336660466E+03  0.00000000000E+00 0.  1.
          1   -1    0    0  501    0  0.00000000000E+00 -0.00000000000E+00 -0.62339197850E+02  0.62339197850E+02  0.00000000000E+00 0. -1.
         25    2    1    2    0    0 -0.45986368066E+02  0.28822895509E+02  0.31733782025E+03  0.34539454012E+03  0.12509432772E+03 0.  0.
          5    1    3    3  502    0 -0.30791322285E+02  0.54717123023E+02  0.30697698677E+03  0.31335987599E+03  0.41800000000E+01 0.  1.
         -5    1    3    3    0  502 -0.15195045780E+02 -0.25894227514E+02  0.10360833483E+02  0.32034664120E+02  0.41800000000E+01 0.  1.
        -11    1    1    2    0    0  0.22409159200E+02 -0.30609242584E+02 -0.37861331653E+02  0.53596423222E+02  0.00000000000E+00 0. -1.
         11    1    1    2    0    0  0.23577208866E+02  0.17863470745E+01  0.51550918216E+02  0.56714839176E+02  0.00000000000E+00 0.  1.
</event>
<event>
 7    1  0.2440960E-009  0.6491975E+02  0.7561462E-02  0.1378274E+00
         -2   -1    0    0    0  501 -0.00000000000E+00  0.00000000000E+00  0.14196511670E+03  0.14196511670E+03  0.00000000000E+00 0. -1.
          2   -1    0    0  501    0  0.00000000000E+00 -0.00000000000E+00 -0.81791523279E+02  0.81791523279E+02  0.00000000000E+00 0.  1.
         25    2    1    2    0    0 -0.65243666422E+01  0.80782479422E-01  0.36771253105E+02  0.13054161525E+03  0.12508562816E+03 0.  0.
          5    1    3    3  502    0 -0.24640082814E+02  0.71207681192E+01  0.79378879126E+02  0.83524354957E+02  0.41800000000E+01 0. -1.
         -5    1    3    3    0  502  0.18115716172E+02 -0.70399856397E+01 -0.42607626021E+02  0.47017260292E+02  0.41800000000E+01 0. -1.
        -11    1    1    2    0    0 -0.38702431841E+02  0.13101460735E+01  0.27922535309E+02  0.47741624305E+02  0.00000000000E+00 0. -1.
         11    1    1    2    0    0  0.45226798484E+02 -0.13909285530E+01 -0.45201949941E+01  0.45473400424E+02  0.00000000000E+00 0.  1.
</event>
<event>
 7    1  0.2440960E-009  0.2175282E+03  0.7561462E-02  0.1135739E+00
         -1   -1    0    0    0  501 -0.00000000000E+00  0.00000000000E+00  0.18443495130E+03  0.18443495130E+03  0.00000000000E+00 0.  1.
          1   -1    0    0  501    0  0.00000000000E+00 -0.00000000000E+00 -0.30184846425E+03  0.30184846425E+03  0.00000000000E+00 0. -1.
         25    2    1    2    0    0 -0.18969353125E+03  0.88362018822E+02 -0.58265754290E+02  0.25066404533E+03  0.12508430490E+03 0.  0.
          5    1    3    3  502    0 -0.17409047562E+03  0.46626625771E+02 -0.39918748762E+01  0.18031900454E+03  0.41800000000E+01 0. -1.
         -5    1    3    3    0  502 -0.15603055631E+02  0.41735393051E+02 -0.54273879413E+02  0.70345040797E+02  0.41800000000E+01 0. -1.
        -11    1    1    2    0    0  0.47102341824E+02 -0.13594664140E+02  0.23808337397E+02  0.54500297504E+02  0.00000000000E+00 0.  1.
         11    1    1    2    0    0  0.14259118943E+03 -0.74767354682E+02 -0.82956096060E+02  0.18111907272E+03  0.00000000000E+00 0. -1.
</event>
<event>
 7    1  0.2869698E-009  0.1680842E+03  0.7561462E-02  0.1179861E+00
          2   -1    0    0  501    0  0.00000000000E+00  0.00000000000E+00  0.16454814014E+04  0.16454814014E+04  0.00000000000E+00 0. -1.
         -2   -1    0    0    0  501 -0.00000000000E+00 -0.00000000000E+00 -0.20684785171E+02  0.20684785171E+02  0.00000000000E+00 0.  1.
         25    2    1    2    0    0  0.13158230694E+03 -0.51910455237E+02  0.65163373072E+03  0.67844159832E+03  0.12509150435E+03 0.  0.
          5    1    3    3  502    0  0.35147259674E+02  0.25375791403E+02  0.34616959993E+03  0.34889844506E+03  0.41800000000E+01 0. -1.
         -5    1    3    3    0  502  0.96435047266E+02 -0.77286246641E+02  0.30546413079E+03  0.32954315326E+03  0.41800000000E+01 0. -1.
        -11    1    1    2    0    0 -0.75252784340E+02  0.76671448425E+02  0.62529341533E+03  0.63445515823E+03  0.00000000000E+00 0.  1.
         11    1    1    2    0    0 -0.56329522600E+02 -0.24760993187E+02  0.34786947023E+03  0.35326943007E+03  0.00000000000E+00 0. -1.
</event>
<event>
 7    1  0.2440960E-009  0.1771671E+03  0.7561462E-02  0.1170573E+00
          1   -1    0    0  501    0  0.00000000000E+00  0.00000000000E+00  0.12349295732E+04  0.12349295732E+04  0.00000000000E+00 0. -1.
         -1   -1    0    0    0  501 -0.00000000000E+00 -0.00000000000E+00 -0.35363775024E+02  0.35363775024E+02  0.00000000000E+00 0.  1.
         25    2    1    2    0    0 -0.12420873727E+03 -0.98129845728E+02  0.37869355433E+03  0.42908657098E+03  0.12509676364E+03 0.  0.
          5    1    3    3  502    0 -0.31461967623E+02 -0.85787437705E+02  0.10217245834E+03  0.13713505576E+03  0.41800000000E+01 0. -1.
         -5    1    3    3    0  502 -0.92746769644E+02 -0.12342408024E+02  0.27652109599E+03  0.29195151522E+03  0.41800000000E+01 0. -1.
        -11    1    1    2    0    0  0.47933109793E+02  0.40692727481E+01  0.10950878443E+03  0.11960901246E+03  0.00000000000E+00 0.  1.
         11    1    1    2    0    0  0.76275627473E+02  0.94060572980E+02  0.71136345938E+03  0.72159776474E+03  0.00000000000E+00 0. -1.
</event>
<event>
 7    1  0.2440960E-009  0.2829671E+03  0.7561462E-02  0.1094079E+00
          1   -1    0    0  501    0  0.00000000000E+00  0.00000000000E+00  0.42818685078E+03  0.42818685078E+03  0.00000000000E+00 0. -1.
         -1   -1    0    0    0  501 -0.00000000000E+00 -0.00000000000E+00 -0.21738298722E+03  0.21738298722E+03  0.00000000000E+00 0.  1.
         25    2    1    2    0    0  0.12103195535E+03 -0.24744826808E+03  0.30558609911E+02  0.30407284805E+03  0.12508832354E+03 0.  0.
          5    1    3    3  502    0  0.53051169307E+02 -0.91636726155E+02  0.73161064425E+02  0.12877006598E+03  0.41800000000E+01 0.  1.
         -5    1    3    3    0  502  0.67980786042E+02 -0.15581154193E+03 -0.42602454514E+02  0.17530278206E+03  0.41800000000E+01 0.  1.
        -11    1    1    2    0    0 -0.12396204939E+03  0.15990596039E+03  0.13055459354E+03  0.24079245784E+03  0.00000000000E+00 0. -1.
         11    1    1    2    0    0  0.29300940403E+01  0.87542307688E+02  0.49690660105E+02  0.10070453211E+03  0.00000000000E+00 0.  1.
</event>
<event>
 7    1  0.2440960E-009  0.1394984E+03  0.7561462E-02  0.1214006E+00
         -1   -1    0    0    0  501 -0.00000000000E+00  0.00000000000E+00  0.52960764261E+03  0.52960764261E+03  0.00000000000E+00 0.  1.
          1   -1    0    0  501    0  0.00000000000E+00 -0.00000000000E+00 -0.41141330832E+02  0.41141330832E+02  0.00000000000E+00 0. -1.
         25    2    1    2    0    0  0.47204239545E+01 -0.91863110423E+02  0.19266640279E+03  0.24744670158E+03  0.12509362054E+03 0.  0.
          5    1    3    3  502    0 -0.40567219160E+02 -0.95638791157E+02  0.16189298492E+03  0.19240397244E+03  0.41800000000E+01 0.  1.
         -5    1    3    3    0  502  0.45287643114E+02  0.37756807345E+01  0.30773417873E+02  0.55042729142E+02  0.41800000000E+01 0.  1.
        -11    1    1    2    0    0 -0.37188344145E+02  0.60991195348E+01  0.68142718294E+02  0.77869135451E+02  0.00000000000E+00 0.  1.
         11    1    1    2    0    0  0.32467920190E+02  0.85763990888E+02  0.22765719070E+03  0.24543313642E+03  0.00000000000E+00 0. -1.
</event>
<event>
 7    1  0.2440960E-009  0.5600888E+02  0.7561462E-02  0.1415387E+00
          2   -1    0    0  501    0  0.00000000000E+00  0.00000000000E+00  0.12975049178E+02  0.12975049178E+02  0.00000000000E+00 0. -1.
         -2   -1    0    0    0  501 -0.00000000000E+00 -0.00000000000E+00 -0.95114920607E+03  0.95114920607E+03  0.00000000000E+00 0.  1.
         25    2    1    2    0    0 -0.30260393776E+01  0.41437933800E+01 -0.66064068791E+03  0.67239758958E+03  0.12508425966E+03 0.  0.
          5    1    3    3  502    0  0.94473226869E+01  0.17414364390E+01 -0.65881797206E+03  0.65890126515E+03  0.41800000000E+01 0. -1.
         -5    1    3    3    0  502 -0.12473362064E+02  0.24023569410E+01 -0.18227158491E+01  0.13496324430E+02  0.41800000000E+01 0. -1.
        -11    1    1    2    0    0 -0.24646685542E+02  0.33411829146E+02 -0.10266038755E+03  0.11073827074E+03  0.00000000000E+00 0.  1.
         11    1    1    2    0    0  0.27672724920E+02 -0.37555622526E+02 -0.17487308144E+03  0.18098839493E+03  0.00000000000E+00 0. -1.
</event>
<event>
 7    1  0.2440960E-009  0.1334565E+03  0.7561462E-02  0.1222415E+00
          2   -1    0    0  501    0  0.00000000000E+00  0.00000000000E+00  0.35511057025E+03  0.35511057025E+03  0.00000000000E+00 0. -1.
         -2   -1    0    0    0  501 -0.00000000000E+00 -0.00000000000E+00 -0.71754271043E+02  0.71754271043E+02  0.00000000000E+00 0.  1.
         25    2    1    2    0    0 -0.98704771718E+02 -0.64143086297E+02  0.15463607549E+03  0.23111753422E+03  0.12508409691E+03 0.  0.
          5    1    3    3  502    0 -0.29958418000E+02 -0.65851694771E+01 -0.18524579638E+02  0.36076359529E+02  0.41800000000E+01 0. -1.
         -5    1    3    3    0  502 -0.68746353719E+02 -0.57557916820E+02  0.17316065513E+03  0.19504117469E+03  0.41800000000E+01 0. -1.
        -11    1    1    2    0    0  0.11354567720E+03  0.45387309061E+02  0.11648277357E+03  0.16888121616E+03  0.00000000000E+00 0. -1.
         11    1    1    2    0    0 -0.14840905477E+02  0.18755777237E+02  0.12237450146E+02  0.26866090918E+02  0.00000000000E+00 0.  1.
</event>
<event>
 7    1  0.2440960E-009  0.1039291E+03  0.7561462E-02  0.1272244E+00
          1   -1    0    0  501    0  0.00000000000E+00  0.00000000000E+00  0.34081039259E+03  0.34081039259E+03  0.00000000000E+00 0. -1.
         -1   -1    0    0    0  501 -0.00000000000E+00 -0.00000000000E+00 -0.46612510427E+02  0.46612510427E+02  0.00000000000E+00 0.  1.
         25    2    1    2    0    0  0.30423719654E+02 -0.88856161938E+01  0.25169043720E+03  0.28284346080E+03  0.12509112777E+03 0.  0.
          5    1    3    3  502    0 -0.16533067772E+02 -0.48202407584E+02  0.18615271907E+03  0.19304694156E+03  0.41800000000E+01 0. -1.
         -5    1    3    3    0  502  0.46956787426E+02  0.39316791390E+02  0.65537718132E+02  0.89796519245E+02  0.41800000000E+01 0. -1.
        -11    1    1    2    0    0 -0.39766617033E+02  0.43823475235E+02  0.29713593502E+02  0.66217659659E+02  0.00000000000E+00 0.  1.
         11    1    1    2    0    0  0.93428973792E+01 -0.34937859041E+02  0.12793851457E+02  0.38361782557E+02  0.00000000000E+00 0. -1.
</event>
<event>
 7    1  0.2440960E-009  0.1405581E+03  0.7561462E-02  0.1212580E+00
          1   -1    0    0  501    0  0.00000000000E+00  0.00000000000E+00  0.14761789971E+03  0.14761789971E+03  0.00000000000E+00 0. -1.
         -1   -1    0    0    0  501 -0.00000000000E+00 -0.00000000000E+00 -0.13861737697E+03  0.13861737697E+03  0.00000000000E+00 0.  1.
         25    2    1    2    0    0  0.24136740012E+01  0.91174847692E+02  0.22004207944E+02  0.15636690597E+03  0.12509094869E+03 0.  0.
          5    1    3    3  502    0 -0.42738777916E+02 -0.98305790925E+01  0.78718441042E+01  0.44751332412E+02  0.41800000000E+01 0.  1.
         -5    1    3    3    0  502  0.45152451917E+02  0.10100542678E+03  0.14132363839E+02  0.11161557356E+03  0.41800000000E+01 0.  1.
        -11    1    1    2    0    0 -0.40008666112E+02 -0.75834275719E+02 -0.21475423619E+02  0.88389617929E+02  0.00000000000E+00 0.  1.
         11    1    1    2    0    0  0.37594992111E+02 -0.15340571973E+02  0.84717384165E+01  0.41478752779E+02  0.00000000000E+00 0. -1.
</event>
<event>
 7    1  0.2440960E-009  0.1188703E+03  0.7561462E-02  0.1244972E+00
         -4   -1    0    0    0  501 -0.00000000000E+00  0.00000000000E+00  0.16265409184E+04  0.16265409184E+04  0.00000000000E+00 0.  1.
          4   -1    0    0  501    0  0.00000000000E+00 -0.00000000000E+00 -0.94304239412E+01  0.94304239412E+01  0.00000000000E+00 0. -1.
         25    2    1    2    0    0 -0.50056488214E+02  0.20718705844E+02  0.10823044123E+04  0.10908550246E+04  0.12508767714E+03 0.  0.
          5    1    3    3  502    0 -0.89788522239E+02  0.76200857868E+01  0.60300715128E+03  0.60971726343E+03  0.41800000000E+01 0. -1.
         -5    1    3    3    0  502  0.39732034025E+02  0.13098620057E+02  0.47929726105E+03  0.48113776118E+03  0.41800000000E+01 0. -1.
        -11    1    1    2    0    0 -0.25340357197E+02 -0.15947572540E+02  0.15776066739E+03  0.16057673228E+03  0.00000000000E+00 0.  1.
         11    1    1    2    0    0  0.75396845411E+02 -0.47711333039E+01  0.37704541470E+03  0.38453958543E+03  0.00000000000E+00 0. -1.
</event>
<event>
 7    1  0.2440960E-009  0.8506872E+02  0.7561462E-02  0.1315253E+00
          3   -1    0    0  501    0  0.00000000000E+00  0.00000000000E+00  0.51241723855E+02  0.51241723855E+02  0.00000000000E+00 0. -1.
         -3   -1    0    0    0  501 -0.00000000000E+00 -0.00000000000E+00 -0.26273714571E+03  0.26273714571E+03  0.00000000000E+00 0.  1.
         25    2    1    2    0    0 -0.22840234214E+01  0.34332678816E+02 -0.10287406343E+03  0.16557740757E+03  0.12509538511E+03 0.  0.
          5    1    3    3  502    0 -0.15278290050E+02  0.74173754077E+02 -0.30311367735E+02  0.81678781545E+02  0.41800000000E+01 0. -1.
         -5    1    3    3    0  502  0.12994266628E+02 -0.39841075260E+02 -0.72562695694E+02  0.83898626029E+02  0.41800000000E+01 0. -1.
        -11    1    1    2    0    0  0.18730479667E+02 -0.64592640638E+01  0.12235403174E+02  0.23286434927E+02  0.00000000000E+00 0. -1.
         11    1    1    2    0    0 -0.16446456245E+02 -0.27873414753E+02 -0.12085676160E+03  0.12511502706E+03  0.00000000000E+00 0.  1.
</event>
<event>
 7    1  0.2440960E-009  0.9462825E+02  0.7561462E-02  0.1292016E+00
         -1   -1    0    0    0  501 -0.00000000000E+00  0.00000000000E+00  0.11011233006E+03  0.11011233006E+03  0.00000000000E+00 0.  1.
          1   -1    0    0  501    0  0.00000000000E+00 -0.00000000000E+00 -0.11761224827E+03  0.11761224827E+03  0.00000000000E+00 0. -1.
         25    2    1    2    0    0  0.32539313327E+02 -0.17600602280E+00 -0.20485396363E+01  0.12926889916E+03  0.12508962341E+03 0.  0.
          5    1    3    3  502    0  0.57212213029E+02 -0.25077789994E+02 -0.42430968617E+02  0.75630631152E+02  0.41800000000E+01 0.  1.
         -5    1    3    3    0  502 -0.24672899702E+02  0.24901783971E+02  0.40382428981E+02  0.53638268009E+02  0.41800000000E+01 0.  1.
        -11    1    1    2    0    0 -0.58729790546E+02 -0.15606751502E+02  0.13808684823E+02  0.62317242932E+02  0.00000000000E+00 0.  1.
         11    1    1    2    0    0  0.26190477219E+02  0.15782757525E+02 -0.19260063391E+02  0.36138436240E+02  0.00000000000E+00 0. -1.
</event>
<event>
 7    1  0.2440960E-009  0.8636057E+02  0.7561462E-02  0.1311912E+00
         -1   -1    0    0    0  501 -0.00000000000E+00  0.00000000000E+00  0.27257657711E+02  0.27257657711E+02  0.00000000000E+00 0.  1.
          1   -1    0    0  501    0  0.00000000000E+00 -0.00000000000E+00 -0.42281284393E+03  0.42281284393E+03  0.00000000000E+00 0. -1.
         25    2    1    2    0    0 -0.18914250788E+02  0.53068057015E+01 -0.23629517696E+03  0.26808481719E+03  0.12509255567E+03 0.  0.
          5    1    3    3  502    0 -0.73120957527E+01 -0.39413206612E+02 -0.16671042515E+02  0.43614947647E+02  0.41800000000E+01 0. -1.
         -5    1    3    3    0  502 -0.11602155035E+02  0.44720012313E+02 -0.21962413444E+03  0.22446986954E+03  0.41800000000E+01 0. -1.
        -11    1    1    2    0    0  0.24089068247E+02  0.36593255611E+02 -0.61596173009E+02  0.75587287916E+02  0.00000000000E+00 0.  1.
         11    1    1    2    0    0 -0.51748174594E+01 -0.41900061312E+02 -0.97663836247E+02  0.10639839653E+03  0.00000000000E+00 0. -1.
</event>
<event>
 7    1  0.2440960E-009  0.1113391E+03  0.7561462E-02  0.1258110E+00
         -2   -1    0    0    0  501 -0.00000000000E+00  0.00000000000E+00  0.21829595938E+02  0.21829595938E+02  0.00000000000E+00 0.  1.
          2   -1    0    0  501    0  0.00000000000E+00 -0.00000000000E+00 -0.59117062480E+03  0.59117062480E+03  0.00000000000E+00 0. -1.
         25    2    1    2    0    0 -0.29186015279E+02 -0.10419170234E+02 -0.37616343483E+03  0.39762663157E+03  0.12509047058E+03 0.  0.
          5    1    3    3  502    0  0.48353796074E+02  0.76791606872E+01 -0.14284169452E+03  0.15105721167E+03  0.41800000000E+01 0.  1.
         -5    1    3    3    0  502 -0.77539811354E+02 -0.18098330922E+02 -0.23332174031E+03  0.24656941989E+03  0.41800000000E+01 0.  1.
        -11    1    1    2    0    0  0.18104407344E+02 -0.39086613840E+02 -0.10740955403E+03  0.11572530079E+03  0.00000000000E+00 0.  1.
         11    1    1    2    0    0  0.11081607935E+02  0.49505784074E+02 -0.85768040005E+02  0.99648288382E+02  0.00000000000E+00 0. -1.
</event>
<event>
 7    1  0.2680135E-009  0.2051554E+03  0.7561462E-02  0.1145461E+00
         -2   -1    0    0    0  501 -0.00000000000E+00  0.00000000000E+00  0.11900392762E+03  0.11900392762E+03  0.00000000000E+00 0.  1.
          2   -1    0    0  501    0  0.00000000000E+00 -0.00000000000E+00 -0.44347962210E+03  0.44347962210E+03  0.00000000000E+00 0. -1.
         25    2    1    2    0    0  0.13856554434E+03  0.13755734094E+03 -0.23113443482E+03  0.32740377302E+03  0.12509065312E+03 0.  0.
          5    1    3    3  502    0  0.11153165986E+03  0.10893099102E+03 -0.88377915199E+02  0.17925791544E+03  0.41800000000E+01 0.  1.
         -5    1    3    3    0  502  0.27033884487E+02  0.28626349928E+02 -0.14275651962E+03  0.14814585757E+03  0.41800000000E+01 0.  1.
        -11    1    1    2    0    0 -0.87114256815E+02 -0.13812757528E+03 -0.80400568735E+02  0.18202299922E+03  0.00000000000E+00 0. -1.
         11    1    1    2    0    0 -0.51451287530E+02  0.57023433301E+00 -0.12940690919E+02  0.53056777485E+02  0.00000000000E+00 0.  1.
</event>
<event>
 7    1  0.2440960E-009  0.1256866E+03  0.7561462E-02  0.1234000E+00
          1   -1    0    0  501    0  0.00000000000E+00  0.00000000000E+00  0.16841536195E+04  0.16841536195E+04  0.00000000000E+00 0. -1.
         -1   -1    0    0    0  501 -0.00000000000E+00 -0.00000000000E+00 -0.10423823313E+02  0.10423823313E+02  0.00000000000E+00 0.  1.
         25    2    1    2    0    0  0.60995367923E+02  0.40806534920E+02  0.10821714953E+04  0.10918465705E+04  0.12509268671E+03 0.  0.
          5    1    3    3  502    0  0.57606257344E+02  0.78821961515E+02  0.92079402408E+03  0.92596462658E+03  0.41800000000E+01 0.  1.
         -5    1    3    3    0  502  0.33891105789E+01 -0.38015426594E+02  0.16137747118E+03  0.16588194396E+03  0.41800000000E+01 0.  1.
        -11    1    1    2    0    0 -0.54524465851E+02  0.16984326341E+02  0.27319565158E+03  0.27910078602E+03  0.00000000000E+00 0.  1.
         11    1    1    2    0    0 -0.64709020720E+01 -0.57790861262E+02  0.31836264935E+03  0.32363008624E+03  0.00000000000E+00 0. -1.
</event>
<event>
 7    1  0.2440960E-009  0.1214516E+03  0.7561462E-02  0.1240721E+00
         -2   -1    0    0    0  501 -0.00000000000E+00  0.00000000000E+00  0.35928758531E+03  0.35928758531E+03  0.00000000000E+00 0. -1.
          2   -1    0    0  501    0  0.00000000000E+00 -0.00000000000E+00 -0.46119617896E+02  0.46119617896E+02  0.00000000000E+00 0.  1.
         25    2    1    2    0    0  0.38331172064E+02  0.54784365896E+02  0.11780977385E+03  0.18438872320E+03  0.12509777347E+03 0.  0.
          5    1    3    3  502    0  0.18728805659E+00 -0.39191845178E+02  0.23849632940E+02  0.46068570595E+02  0.41800000000E+01 0. -1.
         -5    1    3    3    0  502  0.38143884008E+02  0.93976211074E+02  0.93960140914E+02  0.13832015260E+03  0.41800000000E+01 0. -1.
        -11    1    1    2    0    0  0.20282345948E+02  0.19881852211E+01  0.55127470105E+02  0.58773841101E+02  0.00000000000E+00 0. -1.
         11    1    1    2    0    0 -0.58613518012E+02 -0.56772551117E+02  0.14023072345E+03  0.16224463891E+03  0.00000000000E+00 0.  1.
</event>
<event>
 7    1  0.2440960E-009  0.1477063E+03  0.7561462E-02  0.1203320E+00
          1   -1    0    0  501    0  0.00000000000E+00  0.00000000000E+00  0.74983096221E+03  0.74983096221E+03  0.00000000000E+00 0.  1.
         -1   -1    0    0    0  501 -0.00000000000E+00 -0.00000000000E+00 -0.31616228589E+02  0.31616228589E+02  0.00000000000E+00 0. -1.
         25    2    1    2    0    0  0.93536649647E+02 -0.41783867663E+02  0.29051484838E+03  0.33247767459E+03  0.12509008974E+03 0.  0.
          5    1    3    3  502    0 -0.20781499902E+02 -0.41897168033E+02  0.94553454655E+02  0.10557022125E+03  0.41800000000E+01 0. -1.
         -5    1    3    3    0  502  0.11431814955E+03  0.11330036999E+00  0.19596139372E+03  0.22690745334E+03  0.41800000000E+01 0. -1.
        -11    1    1    2    0    0 -0.87080637656E+02 -0.46293265574E+01  0.31663467625E+03  0.32842348625E+03  0.00000000000E+00 0.  1.
         11    1    1    2    0    0 -0.64560119910E+01  0.46413194220E+02  0.11106520900E+03  0.12054602996E+03  0.00000000000E+00 0. -1.
</event>
<event>
 7    1  0.2440960E-009  0.1676007E+03  0.7561462E-02  0.1180373E+00
          1   -1    0    0  501    0  0.00000000000E+00  0.00000000000E+00  0.14271075465E+03  0.14271075465E+03  0.00000000000E+00 0. -1.
         -1   -1    0    0    0  501 -0.00000000000E+00 -0.00000000000E+00 -0.24080438467E+03  0.24080438467E+03  0.00000000000E+00 0.  1.
         25    2    1    2    0    0  0.13680889751E+03 -0.58196612711E+02 -0.31788781768E+02  0.19688191542E+03  0.12509373208E+03 0.  0.
          5    1    3    3  502    0  0.89844405475E+02  0.19189606420E+02  0.17664883419E+02  0.93647096570E+02  0.41800000000E+01 0.  1.
         -5    1    3    3    0  502  0.46964492034E+02 -0.77386219131E+02 -0.49453665187E+02  0.10323481885E+03  0.41800000000E+01 0.  1.
        -11    1    1    2    0    0 -0.44335426436E+02  0.19450052527E+01 -0.64608246498E+02  0.78381366397E+02  0.00000000000E+00 0.  1.
         11    1    1    2    0    0 -0.92473471074E+02  0.56251607458E+02 -0.16966017523E+01  0.10825185750E+03  0.00000000000E+00 0. -1.
</event>
<event>
 7    1  0.2440960E-009  0.1931636E+03  0.7561462E-02  0.1155639E+00
          2   -1    0    0  501    0  0.00000000000E+00  0.00000000000E+00  0.12432677390E+03  0.12432677390E+03  0.00000000000E+00 0. -1.
         -2   -1    0    0    0  501 -0.00000000000E+00 -0.00000000000E+00 -0.34548471744E+03  0.34548471744E+03  0.00000000000E+00 0.  1.
         25    2    1    2    0    0 -0.60372305539E+02  0.16421954889E+03 -0.14049855873E+03  0.25690501938E+03  0.12508984157E+03 0.  0.
          5    1    3    3  502    0  0.11512178121E+02  0.11880056372E+03 -0.12007389001E+03  0.16935558936E+03  0.41800000000E+01 0. -1.
         -5    1    3    3    0  502 -0.71884483660E+02  0.45418985169E+02 -0.20424668725E+02  0.87549430023E+02  0.41800000000E+01 0. -1.
        -11    1    1    2    0    0 -0.69427613826E+01 -0.38844067698E+02 -0.55963043884E+02  0.68475731552E+02  0.00000000000E+00 0.  1.
         11    1    1    2    0    0  0.67315066921E+02 -0.12537548119E+03 -0.24696340917E+02  0.14443074041E+03  0.00000000000E+00 0. -1.
</event>
<event>
 7    1  0.2440960E-009  0.1079422E+03  0.7561462E-02  0.1264429E+00
         -1   -1    0    0    0  501 -0.00000000000E+00  0.00000000000E+00  0.12316008994E+03  0.12316008994E+03  0.00000000000E+00 0.  1.
          1   -1    0    0  501    0  0.00000000000E+00 -0.00000000000E+00 -0.13245544464E+03  0.13245544464E+03  0.00000000000E+00 0. -1.
         25    2    1    2    0    0  0.28924810185E+01 -0.69844032886E+02 -0.13368109922E+02  0.14390643478E+03  0.12507517832E+03 0.  0.
          5    1    3    3  502    0  0.42385241886E+02 -0.80651235529E+02  0.16975245863E+02  0.92772635482E+02  0.41800000000E+01 0. -1.
         -5    1    3    3    0  502 -0.39492760868E+02  0.10807202643E+02 -0.30343355785E+02  0.51133799293E+02  0.41800000000E+01 0. -1.
        -11    1    1    2    0    0 -0.23672078729E+02  0.27031605539E+02 -0.34980826510E+02  0.50147115896E+02  0.00000000000E+00 0. -1.
         11    1    1    2    0    0  0.20779597710E+02  0.42812427347E+02  0.39053581728E+02  0.61561983903E+02  0.00000000000E+00 0.  1.
</event>
<event>
 7    1  0.2440960E-009  0.1167677E+03  0.7561462E-02  0.1248527E+00
         -2   -1    0    0    0  501 -0.00000000000E+00  0.00000000000E+00  0.38495871993E+02  0.38495871993E+02  0.00000000000E+00 0.  1.
          2   -1    0    0  501    0  0.00000000000E+00 -0.00000000000E+00 -0.70648847857E+03  0.70648847857E+03  0.00000000000E+00 0. -1.
         25    2    1    2    0    0 -0.53468830089E+02  0.46883529856E+02 -0.58926506393E+03  0.60657846070E+03  0.12508849767E+03 0.  0.
          5    1    3    3  502    0  0.27429460649E+02 -0.26072565592E+01 -0.31731608975E+03  0.31853751163E+03  0.41800000000E+01 0.  1.
         -5    1    3    3    0  502 -0.80898290738E+02  0.49490786416E+02 -0.27194897418E+03  0.28804094907E+03  0.41800000000E+01 0.  1.
        -11    1    1    2    0    0 -0.67588755402E+01 -0.49976867926E+02 -0.20074799279E+02  0.54280450370E+02  0.00000000000E+00 0.  1.
         11    1    1    2    0    0  0.60227705629E+02  0.30933380699E+01 -0.58652743365E+02  0.84125439493E+02  0.00000000000E+00 0. -1.
</event>
<event>
 7    1  0.2765334E-009  0.1059245E+03  0.7561462E-02  0.1268309E+00
         -3   -1    0    0    0  501 -0.00000000000E+00  0.00000000000E+00  0.20112406863E+03  0.20112406863E+03  0.00000000000E+00 0.  1.
          3   -1    0    0  501    0  0.00000000000E+00 -0.00000000000E+00 -0.81644111879E+02  0.81644111879E+02  0.00000000000E+00 0. -1.
         25    2    1    2    0    0  0.53631507113E+01 -0.67721082233E+02  0.68863163184E+02  0.15812390832E+03  0.12508447855E+03 0.  0.
          5    1    3    3  502    0 -0.33408091325E+02 -0.90544443540E+02  0.40312425008E+02  0.10467550254E+03  0.41800000000E+01 0.  1.
         -5    1    3    3    0  502  0.38771242036E+02  0.22823361307E+02  0.28550738176E+02  0.53448405783E+02  0.41800000000E+01 0.  1.
        -11    1    1    2    0    0  0.62990554880E+01  0.24473763254E+02 -0.25769895387E+02  0.36093360832E+02  0.00000000000E+00 0. -1.
         11    1    1    2    0    0 -0.11662206199E+02  0.43247318978E+02  0.76386688955E+02  0.88550911355E+02  0.00000000000E+00 0.  1.
</event>
<event>
 7    1  0.2440960E-009  0.7399468E+02  0.7561462E-02  0.1347013E+00
         -3   -1    0    0    0  501 -0.00000000000E+00  0.00000000000E+00  0.25329119012E+03  0.25329119012E+03  0.00000000000E+00 0. -1.
          3   -1    0    0  501    0  0.00000000000E+00 -0.00000000000E+00 -0.58303862256E+02  0.58303862256E+02  0.00000000000E+00 0.  1.
         25    2    1    2    0    0 -0.38119471515E+02  0.40701056188E+02  0.12272630853E+03  0.18389891581E+03  0.12508954532E+03 0.  0.
          5    1    3    3  502    0  0.15261429332E+01  0.58191312843E+01  0.13019711555E+03  0.13040303945E+03  0.41800000000E+01 0.  1.
         -5    1    3    3    0  502 -0.39645614448E+02  0.34881924904E+02 -0.74708070181E+01  0.53495876359E+02  0.41800000000E+01 0.  1.
        -11    1    1    2    0    0  0.48577785723E+02 -0.31142710530E+01  0.74077092195E+02  0.88639243781E+02  0.00000000000E+00 0. -1.
         11    1    1    2    0    0 -0.10458314208E+02 -0.37586785135E+02 -0.18160728667E+01  0.39056892778E+02  0.00000000000E+00 0.  1.
</event>
<event>
 7    1  0.2440960E-009  0.1383654E+03  0.7561462E-02  0.1215546E+00
          2   -1    0    0  501    0  0.00000000000E+00  0.00000000000E+00  0.34638790282E+03  0.34638790282E+03  0.00000000000E+00 0. -1.
         -2   -1    0    0    0  501 -0.00000000000E+00 -0.00000000000E+00 -0.15561490027E+03  0.15561490027E+03  0.00000000000E+00 0.  1.
         25    2    1    2    0    0 -0.92605011282E+02 -0.83078179229E+02  0.27480171309E+03  0.32655994390E+03  0.12509094080E+03 0.  0.
          5    1    3    3  502    0 -0.41740504098E+02 -0.44733398212E+02  0.25107741870E+03  0.25845829292E+03  0.41800000000E+01 0. -1.
         -5    1    3    3    0  502 -0.50864507185E+02 -0.38344781017E+02  0.23724294382E+02  0.68101650981E+02  0.41800000000E+01 0. -1.
        -11    1    1    2    0    0  0.31379808904E+02  0.84696781961E+02 -0.65098268062E+02  0.11133742312E+03  0.00000000000E+00 0.  1.
         11    1    1    2    0    0  0.61225202378E+02 -0.16186027316E+01 -0.18930442476E+02  0.64105436067E+02  0.00000000000E+00 0. -1.
</event>
<event>
 7    1  0.2440960E-009  0.1014411E+03  0.7561462E-02  0.1277294E+00
         -2   -1    0    0    0  501 -0.00000000000E+00  0.00000000000E+00  0.37092849445E+02  0.37092849445E+02  0.00000000000E+00 0. -1.
          2   -1    0    0  501    0  0.00000000000E+00 -0.00000000000E+00 -0.44577907775E+03  0.44577907775E+03  0.00000000000E+00 0.  1.
         25    2    1    2    0    0  0.28662883800E+02 -0.32435240784E+02 -0.32993549290E+03  0.35549834005E+03  0.12509210428E+03 0.  0.
          5    1    3    3  502    0 -0.37190305737E+02 -0.15710128716E+02 -0.37551930353E+02  0.55295088917E+02  0.41800000000E+01 0. -1.
         -5    1    3    3    0  502  0.65853189537E+02 -0.16725112068E+02 -0.29238356255E+03  0.30020325114E+03  0.41800000000E+01 0. -1.
        -11    1    1    2    0    0 -0.20951042769E+02 -0.27063417568E+02 -0.50632916873E+02  0.61115194794E+02  0.00000000000E+00 0.  1.
         11    1    1    2    0    0 -0.77118410314E+01  0.59498658352E+02 -0.28117818534E+02  0.66258392350E+02  0.00000000000E+00 0. -1.
</event>
<event>
 7    1  0.2440960E-009  0.1380504E+03  0.7561462E-02  0.1215977E+00
         -2   -1    0    0    0  501 -0.00000000000E+00  0.00000000000E+00  0.16608273311E+03  0.16608273311E+03  0.00000000000E+00 0.  1.
          2   -1    0    0  501    0  0.00000000000E+00 -0.00000000000E+00 -0.11594093389E+03  0.11594093389E+03  0.00000000000E+00 0. -1.
         25    2    1    2    0    0 -0.83712316679E+02 -0.22421916061E+02  0.28533415206E+02  0.15482703037E+03  0.12508700678E+03 0.  0.
          5    1    3    3  502    0 -0.59133926173E+02 -0.73967947854E+02  0.14752347053E+02  0.95933219887E+02  0.41800000000E+01 0.  1.
         -5    1    3    3    0  502 -0.24578390506E+02  0.51546031793E+02  0.13781068153E+02  0.58893810481E+02  0.41800000000E+01 0.  1.
        -11    1    1    2    0    0  0.95135377370E+02 -0.40468532661E+01  0.24210239791E+02  0.98250968236E+02  0.00000000000E+00 0.  1.
         11    1    1    2    0    0 -0.11423060691E+02  0.26468769327E+02 -0.26018557833E+01  0.28945668394E+02  0.00000000000E+00 0. -1.
</event>
<event>
 7    1  0.2440960E-009  0.1007359E+03  0.7561462E-02  0.1278756E+00
          1   -1    0    0  501    0  0.00000000000E+00  0.00000000000E+00  0.11365131381E+03  0.11365131381E+03  0.00000000000E+00 0. -1.
         -1   -1    0    0    0  501 -0.00000000000E+00 -0.00000000000E+00 -0.12317788721E+03  0.12317788721E+03  0.00000000000E+00 0.  1.
         25    2    1    2    0    0 -0.15247957413E+02  0.41255457765E+02  0.12667689677E+02  0.13320241600E+03  0.12509156753E+03 0.  0.
          5    1    3    3  502    0  0.45392981480E+02  0.53747482038E+02  0.88652857725E+01  0.71030840379E+02  0.41800000000E+01 0. -1.
         -5    1    3    3    0  502 -0.60640938893E+02 -0.12492024273E+02  0.38024039042E+01  0.62171575625E+02  0.41800000000E+01 0. -1.
        -11    1    1    2    0    0  0.72776376187E+01  0.12572213104E+02  0.26749276922E+02  0.30439257013E+02  0.00000000000E+00 0. -1.
         11    1    1    2    0    0  0.79703197939E+01 -0.53827670869E+02 -0.48943539995E+02  0.73187528009E+02  0.00000000000E+00 0.  1.
</event>
<event>
 7    1  0.2440960E-009  0.1043079E+03  0.7561462E-02  0.1271489E+00
          1   -1    0    0  501    0  0.00000000000E+00  0.00000000000E+00  0.47642240635E+03  0.47642240635E+03  0.00000000000E+00 0. -1.
         -1   -1    0    0    0  501 -0.00000000000E+00 -0.00000000000E+00 -0.34125072405E+02  0.34125072405E+02  0.00000000000E+00 0.  1.
         25    2    1    2    0    0  0.63473531779E+02  0.11548318180E+02  0.22091975589E+03  0.26195109223E+03  0.12510229130E+03 0.  0.
          5    1    3    3  502    0 -0.17891234870E+02 -0.75255950862E+01  0.15271481402E+03  0.15400005743E+03  0.41800000000E+01 0. -1.
         -5    1    3    3    0  502  0.81364766649E+02  0.19073913267E+02  0.68204941873E+02  0.10795103480E+03  0.41800000000E+01 0. -1.
        -11    1    1    2    0    0 -0.54028418618E+01 -0.40039748752E+02  0.43720649367E+02  0.59530390234E+02  0.00000000000E+00 0. -1.
         11    1    1    2    0    0 -0.58070689917E+02  0.28491430572E+02  0.17765692868E+03  0.18906599629E+03  0.00000000000E+00 0.  1.
</event>
<event>
 7    1  0.2440960E-009  0.1039320E+03  0.7561462E-02  0.1272238E+00
          1   -1    0    0  501    0  0.00000000000E+00  0.00000000000E+00  0.64278839476E+02  0.64278839476E+02  0.00000000000E+00 0. -1.
         -1   -1    0    0    0  501 -0.00000000000E+00 -0.00000000000E+00 -0.21758942601E+03  0.21758942601E+03  0.00000000000E+00 0.  1.
         25    2    1    2    0    0 -0.32961847343E+02 -0.35987761856E+02 -0.96056598895E+02  0.16509344200E+03  0.12508945605E+03 0.  0.
          5    1    3    3  502    0 -0.65334922545E+02  0.90445069360E+01 -0.16666206220E+02  0.68159298995E+02  0.41800000000E+01 0.  1.
         -5    1    3    3    0  502  0.32373075202E+02 -0.45032268792E+02 -0.79390392675E+02  0.96934143002E+02  0.41800000000E+01 0.  1.
        -11    1    1    2    0    0  0.11617813214E+02  0.55822217537E+02 -0.65159379659E+02  0.86584284441E+02  0.00000000000E+00 0.  1.
         11    1    1    2    0    0  0.21344034129E+02 -0.19834455681E+02  0.79053920189E+01  0.30190539049E+02  0.00000000000E+00 0. -1.
</event>
<event>
 7    1  0.2440960E-009  0.1099019E+03  0.7561462E-02  0.1260752E+00
         -2   -1    0    0    0  501 -0.00000000000E+00  0.00000000000E+00  0.12006045860E+03  0.12006045860E+03  0.00000000000E+00 0.  1.
          2   -1    0    0  501    0  0.00000000000E+00 -0.00000000000E+00 -0.20186182194E+03  0.20186182194E+03  0.00000000000E+00 0. -1.
         25    2    1    2    0    0  0.18303719555E+02  0.79527376318E+02 -0.12525418860E+03  0.19491277662E+03  0.12507097583E+03 0.  0.
          5    1    3    3  502    0  0.25863654234E+02 -0.20812729585E+02 -0.75499206521E+02  0.82581480421E+02  0.41800000000E+01 0.  1.
         -5    1    3    3    0  502 -0.75599346787E+01  0.10034010590E+03 -0.49754982076E+02  0.11233129620E+03  0.41800000000E+01 0.  1.
        -11    1    1    2    0    0 -0.10797020289E+02 -0.73395210399E+01  0.52291094250E+02  0.53896222076E+02  0.00000000000E+00 0.  1.
         11    1    1    2    0    0 -0.75066992657E+01 -0.72187855278E+02 -0.88382689936E+01  0.73113281846E+02  0.00000000000E+00 0. -1.
</event>
<event>
 7    1  0.2440960E-009  0.9991962E+02  0.7561462E-02  0.1280465E+00
          1   -1    0    0  501    0  0.00000000000E+00  0.00000000000E+00  0.20187652991E+03  0.20187652991E+03  0.00000000000E+00 0. -1.
         -1   -1    0    0    0  501 -0.00000000000E+00 -0.00000000000E+00 -0.61760874340E+02  0.61760874340E+02  0.00000000000E+00 0.  1.
         25    2    1    2    0    0  0.20026647907E+01 -0.24845318334E+00  0.11535796315E+03  0.17017377841E+03  0.12509029859E+03 0.  0.
          5    1    3    3  502    0  0.53063341712E+02  0.34260521836E+02  0.56346414295E+02  0.84746046480E+02  0.41800000000E+01 0. -1.
         -5    1    3    3    0  502 -0.51060676922E+02 -0.34508975020E+02  0.59011548857E+02  0.85427731932E+02  0.41800000000E+01 0. -1.
        -11    1    1    2    0    0 -0.62141702001E+01 -0.36881087607E+02 -0.13709740434E+02  0.39834501592E+02  0.00000000000E+00 0.  1.
         11    1    1    2    0    0  0.42115054094E+01  0.37129540790E+02  0.38467432851E+02  0.53629124245E+02  0.00000000000E+00 0. -1.
</event>
<event>
 7    1  0.2440960E-009  0.1447206E+03  0.7561462E-02  0.1207115E+00
         -3   -1    0    0    0  501 -0.00000000000E+00  0.00000000000E+00  0.10277894800E+03  0.10277894800E+03  0.00000000000E+00 0.  1.
          3   -1    0    0  501    0  0.00000000000E+00 -0.00000000000E+00 -0.25565236941E+03  0.25565236941E+03  0.00000000000E+00 0. -1.
         25    2    1    2    0    0  0.84896083865E+02 -0.84225343583E+02 -0.95706152764E+02  0.19775985008E+03  0.12509211433E+03 0.  0.
          5    1    3    3  502    0  0.74513181880E+02 -0.10723929657E+03 -0.10786682546E+03  0.16942610613E+03  0.41800000000E+01 0.  1.
         -5    1    3    3    0  502  0.10382901985E+02  0.23013952987E+02  0.12160672696E+02  0.28333743948E+02  0.41800000000E+01 0.  1.
        -11    1    1    2    0    0 -0.93968570484E+02  0.78729234636E+02 -0.22784562877E+02  0.12468969857E+03  0.00000000000E+00 0.  1.
         11    1    1    2    0    0  0.90724866190E+01  0.54961089470E+01 -0.34382705772E+02  0.35981768762E+02  0.00000000000E+00 0. -1.
</event>
<event>
 7    1  0.2440960E-009  0.9104835E+02  0.7561462E-02  0.1300333E+00
         -1   -1    0    0    0  501 -0.00000000000E+00  0.00000000000E+00  0.64179489398E+02  0.64179489398E+02  0.00000000000E+00 0.  1.
          1   -1    0    0  501    0  0.00000000000E+00 -0.00000000000E+00 -0.22285396037E+03  0.22285396037E+03  0.00000000000E+00 0. -1.
         25    2    1    2    0    0  0.17292503871E+02  0.41771919145E+02 -0.11280025189E+03  0.17439931960E+03  0.12508917593E+03 0.  0.
          5    1    3    3  502    0  0.59793315323E+02  0.49682444931E+02 -0.10428518725E+03  0.13014014973E+03  0.41800000000E+01 0.  1.
         -5    1    3    3    0  502 -0.42500811452E+02 -0.79105257859E+01 -0.85150646343E+01  0.44259169875E+02  0.41800000000E+01 0.  1.
        -11    1    1    2    0    0 -0.65768307555E+01  0.77379629378E+01 -0.59352835897E+02  0.60215362677E+02  0.00000000000E+00 0. -1.
         11    1    1    2    0    0 -0.10715673116E+02 -0.49509882083E+02  0.13478616807E+02  0.52418767490E+02  0.00000000000E+00 0.  1.
</event>
<event>
 7    1  0.2440960E-009  0.8000127E+02  0.7561462E-02  0.1329048E+00
         -2   -1    0    0    0  501 -0.00000000000E+00  0.00000000000E+00  0.45898789342E+02  0.45898789342E+02  0.00000000000E+00 0.  1.
          2   -1    0    0  501    0  0.00000000000E+00 -0.00000000000E+00 -0.32901620794E+03  0.32901620794E+03  0.00000000000E+00 0. -1.
         25    2    1    2    0    0 -0.44762874786E+02 -0.38269128042E+02 -0.15094337133E+03  0.20469339911E+03  0.12508894903E+03 0.  0.
          5    1    3    3  502    0  0.56134439918E+01 -0.10443341218E+02  0.20362400125E+02  0.23930605260E+02  0.41800000000E+01 0. -1.
         -5    1    3    3    0  502 -0.50376318777E+02 -0.27825786824E+02 -0.17130577146E+03  0.18076279385E+03  0.41800000000E+01 0. -1.
        -11    1    1    2    0    0  0.40593730167E+02 -0.95715403107E+01 -0.16279008314E+02  0.44771323685E+02  0.00000000000E+00 0.  1.
         11    1    1    2    0    0  0.41691446185E+01  0.47840668353E+02 -0.11589503895E+03  0.12545027448E+03  0.00000000000E+00 0. -1.
</event>
<event>
 7    1  0.2440960E-009  0.1220222E+03  0.7561462E-02  0.1239798E+00
          1   -1    0    0  501    0  0.00000000000E+00  0.00000000000E+00  0.18192704337E+03  0.18192704337E+03  0.00000000000E+00 0. -1.
         -1   -1    0    0    0  501 -0.00000000000E+00 -0.00000000000E+00 -0.87893705396E+02  0.87893705396E+02  0.00000000000E+00 0.  1.
         25    2    1    2    0    0  0.43564773915E+02 -0.40468899341E+02  0.83495353955E+02  0.16172312101E+03  0.12508905786E+03 0.  0.
          5    1    3    3  502    0 -0.17602385520E+02  0.34968624320E+02  0.36750812596E+02  0.53858548897E+02  0.41800000000E+01 0.  1.
         -5    1    3    3    0  502  0.61167159436E+02 -0.75437523661E+02  0.46744541359E+02  0.10786457211E+03  0.41800000000E+01 0.  1.
        -11    1    1    2    0    0 -0.35617670304E+02 -0.23714224849E+02  0.66920630232E+01  0.43310121283E+02  0.00000000000E+00 0.  1.
         11    1    1    2    0    0 -0.79471036109E+01  0.64183124190E+02  0.38459209914E+01  0.64787506472E+02  0.00000000000E+00 0. -1.
</event>
<event>
 7    1  0.2440960E-009  0.3268106E+03  0.7561462E-02  0.1072557E+00
          1   -1    0    0  501    0  0.00000000000E+00  0.00000000000E+00  0.12334550960E+03  0.12334550960E+03  0.00000000000E+00 0. -1.
         -1   -1    0    0    0  501 -0.00000000000E+00 -0.00000000000E+00 -0.99480304527E+03  0.99480304527E+03  0.00000000000E+00 0.  1.
         25    2    1    2    0    0 -0.27745869428E+02 -0.30898009111E+03 -0.24974697789E+03  0.41744554252E+03  0.12509475620E+03 0.  0.
          5    1    3    3  502    0  0.55067164993E+01  0.88465800135E+01 -0.22985466143E+02  0.25581046858E+02  0.41800000000E+01 0. -1.
         -5    1    3    3    0  502 -0.33252585928E+02 -0.31782667112E+03 -0.22676151175E+03  0.39186449566E+03  0.41800000000E+01 0. -1.
        -11    1    1    2    0    0  0.60360509422E+02  0.18447777852E+03 -0.39071779221E+03  0.43627495346E+03  0.00000000000E+00 0. -1.
         11    1    1    2    0    0 -0.32614639994E+02  0.12450231259E+03 -0.23099276558E+03  0.26442805889E+03  0.00000000000E+00 0.  1.
</event>
<event>
 7    1  0.2440960E-009  0.2245124E+03  0.7561462E-02  0.1130563E+00
          2   -1    0    0  501    0  0.00000000000E+00  0.00000000000E+00  0.15687720715E+04  0.15687720715E+04  0.00000000000E+00 0. -1.
         -2   -1    0    0    0  501 -0.00000000000E+00 -0.00000000000E+00 -0.32451578657E+02  0.32451578657E+02  0.00000000000E+00 0.  1.
         25    2    1    2    0    0 -0.12224234656E+03  0.15411512844E+03  0.86639783071E+03  0.89721048514E+03  0.12508712752E+03 0.  0.
          5    1    3    3  502    0 -0.14793034866E+03  0.13499844890E+03  0.76525275386E+03  0.79103553583E+03  0.41800000000E+01 0.  1.
         -5    1    3    3    0  502  0.25688002100E+02  0.19116679536E+02  0.10114507685E+03  0.10617494930E+03  0.41800000000E+01 0.  1.
        -11    1    1    2    0    0  0.12111714828E+03 -0.86594338739E+02  0.45945508224E+03  0.48297713787E+03  0.00000000000E+00 0. -1.
         11    1    1    2    0    0  0.11251982859E+01 -0.67520789697E+02  0.21046757988E+03  0.22103602714E+03  0.00000000000E+00 0.  1.
</event>
<event>
 7    1  0.2440960E-009  0.1429888E+03  0.7561462E-02  0.1209363E+00
          1   -1    0    0  501    0  0.00000000000E+00  0.00000000000E+00  0.64047805088E+03  0.64047805088E+03  0.00000000000E+00 0. -1.
         -1   -1    0    0    0  501 -0.00000000000E+00 -0.00000000000E+00 -0.40323477579E+02  0.40323477579E+02  0.00000000000E+00 0.  1.
         25    2    1    2    0    0 -0.41052817991E+02  0.10196944191E+03  0.43931604074E+03  0.46981824238E+03  0.12508995274E+03 0.  0.
          5    1    3    3  502    0 -0.80306523166E+02  0.66963916803E+02  0.35720003095E+03  0.37221316248E+03  0.41800000000E+01 0.  1.
         -5    1    3    3    0  502  0.39253705175E+02  0.35005525107E+02  0.82116009790E+02  0.97605079897E+02  0.41800000000E+01 0.  1.
        -11    1    1    2    0    0 -0.48740493007E+01 -0.75308849290E+02  0.12786612422E+03  0.14847533419E+03  0.00000000000E+00 0. -1.
         11    1    1    2    0    0  0.45926867291E+02 -0.26660592620E+02  0.32972408341E+02  0.62507951893E+02  0.00000000000E+00 0.  1.
</event>
<event>
 7    1  0.2440960E-009  0.1164223E+03  0.7561462E-02  0.1249119E+00
          1   -1    0    0  501    0  0.00000000000E+00  0.00000000000E+00  0.20486991570E+04  0.20486991570E+04  0.00000000000E+00 0. -1.
         -1   -1    0    0    0  501 -0.00000000000E+00 -0.00000000000E+00 -0.17388472638E+02  0.17388472638E+02  0.00000000000E+00 0.  1.
         25    2    1    2    0    0  0.76260641330E+02 -0.45658885755E+02  0.17548285722E+04  0.17615266914E+04  0.12511014144E+03 0.  0.
          5    1    3    3  502    0  0.55920536003E+01  0.35506476136E+02  0.76515145167E+03  0.76600665617E+03  0.41800000000E+01 0. -1.
         -5    1    3    3    0  502  0.70668587730E+02 -0.81165361891E+02  0.98967712052E+03  0.99552003522E+03  0.41800000000E+01 0. -1.
        -11    1    1    2    0    0 -0.41254040674E+02  0.26796906715E+02  0.36368980006E+02  0.61177387882E+02  0.00000000000E+00 0.  1.
         11    1    1    2    0    0 -0.35006600656E+02  0.18861979040E+02  0.24011313217E+03  0.24338355035E+03  0.00000000000E+00 0. -1.
</event>
<event>
 7    1  0.2440960E-009  0.1067701E+03  0.7561462E-02  0.1266671E+00
          1   -1    0    0  501    0  0.00000000000E+00  0.00000000000E+00  0.36127237401E+03  0.36127237401E+03  0.00000000000E+00 0. -1.
         -1   -1    0    0    0  501 -0.00000000000E+00 -0.00000000000E+00 -0.43921189158E+02  0.43921189158E+02  0.00000000000E+00 0.  1.
         25    2    1    2    0    0  0.52464708915E+02 -0.20709286401E+02  0.22360000312E+03  0.26235044093E+03  0.12509745096E+03 0.  0.
          5    1    3    3  502    0  0.48125134005E+02 -0.68943560053E+02  0.17178951792E+03  0.19130696240E+03  0.41800000000E+01 0. -1.
         -5    1    3    3    0  502  0.43395749108E+01  0.48234273652E+02  0.51810485197E+02  0.71043478529E+02  0.41800000000E+01 0. -1.
        -11    1    1    2    0    0 -0.63802239849E+02  0.89726001754E+01  0.20227978089E+02  0.67530766775E+02  0.00000000000E+00 0.  1.
         11    1    1    2    0    0  0.11337530933E+02  0.11736686226E+02  0.73523203644E+02  0.75312355462E+02  0.00000000000E+00 0. -1.
</event>
<event>
 7    1  0.2440960E-009  0.8514238E+02  0.7561462E-02  0.1315061E+00
          1   -1    0    0  501    0  0.00000000000E+00  0.00000000000E+00  0.67195076033E+02  0.67195076033E+02  0.00000000000E+00 0. -1.
         -1   -1    0    0    0  501 -0.00000000000E+00 -0.00000000000E+00 -0.24304527235E+03  0.24304527235E+03  0.00000000000E+00 0.  1.
         25    2    1    2    0    0 -0.41803286471E+02 -0.34740399527E+02 -0.49235436579E+02  0.14500165264E+03  0.12508773295E+03 0.  0.
          5    1    3    3  502    0 -0.21554629326E+02 -0.55899216351E+02 -0.81493453468E+02  0.10123230607E+03  0.41800000000E+01 0. -1.
         -5    1    3    3    0  502 -0.20248657145E+02  0.21158816823E+02  0.32258016890E+02  0.43769346570E+02  0.41800000000E+01 0. -1.
        -11    1    1    2    0    0  0.57243052555E+02  0.29024741120E+02 -0.36913844817E+02  0.74039412491E+02  0.00000000000E+00 0. -1.
         11    1    1    2    0    0 -0.15439766084E+02  0.57156584075E+01 -0.89700914921E+02  0.91199283251E+02  0.00000000000E+00 0.  1.
</event>
<event>
 7    1  0.2440960E-009  0.1376331E+03  0.7561462E-02  0.1216550E+00
         -1   -1    0    0    0  501 -0.00000000000E+00  0.00000000000E+00  0.31546542645E+02  0.31546542645E+02  0.00000000000E+00 0.  1.
          1   -1    0    0  501    0  0.00000000000E+00 -0.00000000000E+00 -0.10334612182E+04  0.10334612182E+04  0.00000000000E+00 0. -1.
         25    2    1    2    0    0  0.15370653910E+02 -0.85492040685E+02 -0.86682789028E+03  0.88010443896E+03  0.12509231026E+03 0.  0.
          5    1    3    3  502    0  0.73298799435E+01  0.31708326070E+02 -0.13726926467E+03  0.14113634722E+03  0.41800000000E+01 0. -1.
         -5    1    3    3    0  502  0.80407739661E+01 -0.11720036676E+03 -0.72955862561E+03  0.73896809174E+03  0.41800000000E+01 0. -1.
        -11    1    1    2    0    0 -0.18034943681E+02 -0.15558393022E+02 -0.37325615408E+02  0.44277808805E+02  0.00000000000E+00 0. -1.
         11    1    1    2    0    0  0.26642897715E+01  0.10105043371E+03 -0.97761169831E+02  0.14062551305E+03  0.00000000000E+00 0.  1.
</event>
<event>
 7    1  0.2440960E-009  0.9943396E+02  0.7561462E-02  0.1281491E+00
          1   -1    0    0  501    0  0.00000000000E+00  0.00000000000E+00  0.28775663592E+03  0.28775663592E+03  0.00000000000E+00 0. -1.
         -1   -1    0    0    0  501 -0.00000000000E+00 -0.00000000000E+00 -0.65001767564E+02  0.65001767564E+02  0.00000000000E+00 0.  1.
         25    2    1    2    0    0  0.60830992077E+02  0.31159748759E+02  0.18349871392E+03  0.23235744651E+03  0.12508743101E+03 0.  0.
          5    1    3    3  502    0  0.55667093137E+02  0.53451856177E+02  0.19248419574E+03  0.20742122408E+03  0.41800000000E+01 0. -1.
         -5    1    3    3    0  502  0.51638989395E+01 -0.22292107418E+02 -0.89854818238E+01  0.24936222429E+02  0.41800000000E+01 0. -1.
        -11    1    1    2    0    0 -0.68677396909E+02 -0.45212775050E+02  0.54165395999E+02  0.98461515312E+02  0.00000000000E+00 0. -1.
         11    1    1    2    0    0  0.78464048323E+01  0.14053026290E+02 -0.14909241561E+02  0.21939441667E+02  0.00000000000E+00 0.  1.
</event>
<event>
 7    1  0.2440960E-009  0.1036938E+03  0.7561462E-02  0.1272715E+00
         -3   -1    0    0    0  501 -0.00000000000E+00  0.00000000000E+00  0.81427812511E+03  0.81427812511E+03  0.00000000000E+00 0.  1.
          3   -1    0    0  501    0  0.00000000000E+00 -0.00000000000E+00 -0.20019173376E+02  0.20019173376E+02  0.00000000000E+00 0. -1.
         25    2    1    2    0    0  0.35909961370E+02 -0.80736442219E+01  0.59285541315E+03  0.60702548223E+03  0.12509071159E+03 0.  0.
          5    1    3    3  502    0  0.79399427740E+02 -0.46211099553E+01  0.27969727940E+03  0.29081551590E+03  0.41800000000E+01 0.  1.
         -5    1    3    3    0  502 -0.43489466370E+02 -0.34525342666E+01  0.31315813375E+03  0.31620996634E+03  0.41800000000E+01 0.  1.
        -11    1    1    2    0    0 -0.58604855044E+02  0.14419351858E+02  0.19305902814E+03  0.20227267509E+03  0.00000000000E+00 0.  1.
         11    1    1    2    0    0  0.22694893673E+02 -0.63457076366E+01  0.83445104487E+01  0.24999141163E+02  0.00000000000E+00 0. -1.
</event>
<event>
 7    1  0.2440960E-009  0.1116918E+03  0.7561462E-02  0.1257469E+00
          2   -1    0    0  501    0  0.00000000000E+00  0.00000000000E+00  0.64775340476E+03  0.64775340476E+03  0.00000000000E+00 0. -1.
         -2   -1    0    0    0  501 -0.00000000000E+00 -0.00000000000E+00 -0.20851439776E+02  0.20851439776E+02  0.00000000000E+00 0.  1.
         25    2    1    2    0    0  0.30343479204E+02  0.23683923904E+02  0.41541105868E+03  0.43554059773E+03  0.12509040578E+03 0.  0.
          5    1    3    3  502    0 -0.34025657493E+02 -0.27236576526E+02  0.92548182775E+02  0.10238268898E+03  0.41800000000E+01 0.  1.
         -5    1    3    3    0  502  0.64369136697E+02  0.50920500431E+02  0.32286287590E+03  0.33315790874E+03  0.41800000000E+01 0.  1.
        -11    1    1    2    0    0  0.23037539200E+02 -0.35901220668E+02  0.10456433794E+03  0.11293062750E+03  0.00000000000E+00 0. -1.
         11    1    1    2    0    0 -0.53381018404E+02  0.12217296764E+02  0.10692656837E+03  0.12013361931E+03  0.00000000000E+00 0.  1.
</event>
<event>
 7    1  0.2440960E-009  0.1161943E+03  0.7561462E-02  0.1249511E+00
         -1   -1    0    0    0  501 -0.00000000000E+00  0.00000000000E+00  0.48922793869E+02  0.48922793869E+02  0.00000000000E+00 0.  1.
          1   -1    0    0  501    0  0.00000000000E+00 -0.00000000000E+00 -0.36321322265E+03  0.36321322265E+03  0.00000000000E+00 0. -1.
         25    2    1    2    0    0 -0.66393804283E+02  0.34070257403E+02 -0.14531459181E+03  0.20574658569E+03  0.12508559966E+03 0.  0.
          5    1    3    3  502    0  0.23555083817E+02  0.48270636620E+02 -0.44954292168E+02  0.70165925617E+02  0.41800000000E+01 0. -1.
         -5    1    3    3    0  502 -0.89948888100E+02 -0.14200379217E+02 -0.10036029964E+03  0.13558066007E+03  0.41800000000E+01 0. -1.
        -11    1    1    2    0    0  0.63067216330E+02 -0.10965912697E+02 -0.17135927362E+03  0.18292546480E+03  0.00000000000E+00 0. -1.
         11    1    1    2    0    0  0.33265879528E+01 -0.23104344707E+02  0.23834366502E+01  0.23463966033E+02  0.00000000000E+00 0.  1.
</event>
<event>
 7    1  0.2440960E-009  0.1242843E+03  0.7561462E-02  0.1236192E+00
         -1   -1    0    0    0  501 -0.00000000000E+00  0.00000000000E+00  0.15075645638E+03  0.15075645638E+03  0.00000000000E+00 0.  1.
          1   -1    0    0  501    0  0.00000000000E+00 -0.00000000000E+00 -0.17510028932E+03  0.17510028932E+03  0.00000000000E+00 0. -1.
         25    2    1    2    0    0  0.17435804399E+02 -0.84592995959E+02 -0.97801694871E+02  0.18075049628E+03  0.12508232548E+03 0.  0.
          5    1    3    3  502    0  0.42023469405E+02 -0.10898823030E+03 -0.79454494469E+02  0.14133257026E+03  0.41800000000E+01 0.  1.
         -5    1    3    3    0  502 -0.24587665005E+02  0.24395234345E+02 -0.18347200402E+02  0.39417926021E+02  0.41800000000E+01 0.  1.
        -11    1    1    2    0    0 -0.31113853674E+02  0.43462087983E+02  0.84855692776E+02  0.10028715560E+03  0.00000000000E+00 0.  1.
         11    1    1    2    0    0  0.13678049275E+02  0.41130907976E+02 -0.11397830847E+02  0.44819093821E+02  0.00000000000E+00 0. -1.
</event>
<event>
 7    1  0.2440960E-009  0.1393089E+03  0.7561462E-02  0.1214262E+00
          1   -1    0    0  501    0  0.00000000000E+00  0.00000000000E+00  0.26999234869E+03  0.26999234869E+03  0.00000000000E+00 0. -1.
         -1   -1    0    0    0  501 -0.00000000000E+00 -0.00000000000E+00 -0.86071053866E+02  0.86071053866E+02  0.00000000000E+00 0.  1.
         25    2    1    2    0    0  0.83426620274E+02 -0.52268671418E+02  0.14558132824E+03  0.21571501748E+03  0.12508809157E+03 0.  0.
          5    1    3    3  502    0 -0.23172686503E+02 -0.45968649770E+02  0.56896301994E+02  0.76842382460E+02  0.41800000000E+01 0.  1.
         -5    1    3    3    0  502  0.10659930678E+03 -0.63000216483E+01  0.88685026247E+02  0.13887263502E+03  0.41800000000E+01 0.  1.
        -11    1    1    2    0    0  0.35189780140E+01 -0.11662785915E+02 -0.15523773836E+02  0.19733001183E+02  0.00000000000E+00 0.  1.
         11    1    1    2    0    0 -0.86945598288E+02  0.63931457333E+02  0.53863740415E+02  0.12061538389E+03  0.00000000000E+00 0. -1.
</event>
<event>
 7    1  0.2501676E-009  0.1213169E+03  0.7561462E-02  0.1240940E+00
         -2   -1    0    0    0  501 -0.00000000000E+00  0.00000000000E+00  0.52207525299E+02  0.52207525299E+02  0.00000000000E+00 0. -1.
          2   -1    0    0  501    0  0.00000000000E+00 -0.00000000000E+00 -0.40287804830E+03  0.40287804830E+03  0.00000000000E+00 0.  1.
         25    2    1    2    0    0  0.70693183420E+02 -0.60814909248E+02 -0.15381791185E+03  0.21909639239E+03  0.12508916734E+03 0.  0.
          5    1    3    3  502    0  0.39119590094E+02 -0.88610906519E+02 -0.14727178429E+03  0.17631983987E+03  0.41800000000E+01 0.  1.
         -5    1    3    3    0  502  0.31573593326E+02  0.27795997271E+02 -0.65461275579E+01  0.42776552524E+02  0.41800000000E+01 0.  1.
        -11    1    1    2    0    0 -0.32219691588E+02  0.93341647321E+00 -0.14339702866E+03  0.14697512585E+03  0.00000000000E+00 0.  1.
         11    1    1    2    0    0 -0.38473491832E+02  0.59881492775E+02 -0.53455582500E+02  0.89014055357E+02  0.00000000000E+00 0. -1.
</event>
<event>
 7    1  0.2440960E-009  0.3990579E+03  0.7561462E-02  0.1044106E+00
          2   -1    0    0  501    0  0.00000000000E+00  0.00000000000E+00  0.34592625768E+03  0.34592625768E+03  0.00000000000E+00 0. -1.
         -2   -1    0    0    0  501 -0.00000000000E+00 -0.00000000000E+00 -0.72909691125E+03  0.72909691125E+03  0.00000000000E+00 0.  1.
         25    2    1    2    0    0 -0.22697861351E+03 -0.32072378705E+03  0.12065775963E+03  0.42963862876E+03  0.12509203728E+03 0.  0.
          5    1    3    3  502    0 -0.10379130204E+02 -0.70911360275E+02 -0.13047730604E+02  0.72964806816E+02  0.41800000000E+01 0.  1.
         -5    1    3    3    0  502 -0.21659948331E+03 -0.24981242678E+03  0.13370549023E+03  0.35667382194E+03  0.41800000000E+01 0.  1.
        -11    1    1    2    0    0  0.26457392150E+02  0.16119479960E+02 -0.12274108931E+02  0.33323940097E+02  0.00000000000E+00 0. -1.
         11    1    1    2    0    0  0.20052122136E+03  0.30460430709E+03 -0.49155430426E+03  0.61206060007E+03  0.00000000000E+00 0.  1.
</event>
<event>
 7    1  0.2440960E-009  0.1696953E+03  0.7561462E-02  0.1178166E+00
          2   -1    0    0  501    0  0.00000000000E+00  0.00000000000E+00  0.95564530535E+03  0.95564530535E+03  0.00000000000E+00 0. -1.
         -2   -1    0    0    0  501 -0.00000000000E+00 -0.00000000000E+00 -0.33520043069E+02  0.33520043069E+02  0.00000000000E+00 0.  1.
         25    2    1    2    0    0 -0.42142965274E+02 -0.13149718222E+03  0.51571961273E+03  0.54834409130E+03  0.12508790933E+03 0.  0.
          5    1    3    3  502    0 -0.77456459632E+02 -0.42690278945E+02  0.20694351456E+03  0.22508899057E+03  0.41800000000E+01 0. -1.
         -5    1    3    3    0  502  0.35313494359E+02 -0.88806903278E+02  0.30877609817E+03  0.32325510074E+03  0.41800000000E+01 0. -1.
        -11    1    1    2    0    0 -0.76564680869E+01  0.90112847515E+02  0.14008035342E+03  0.16673767483E+03  0.00000000000E+00 0.  1.
         11    1    1    2    0    0  0.49799433361E+02  0.41384334708E+02  0.26632529613E+03  0.27408358229E+03  0.00000000000E+00 0. -1.
</event>
<event>
 7    1  0.2440960E-009  0.8155128E+02  0.7561462E-02  0.1324706E+00
          3   -1    0    0  501    0  0.00000000000E+00  0.00000000000E+00  0.19757110168E+03  0.19757110168E+03  0.00000000000E+00 0. -1.
         -3   -1    0    0    0  501 -0.00000000000E+00 -0.00000000000E+00 -0.81121316219E+02  0.81121316219E+02  0.00000000000E+00 0.  1.
         25    2    1    2    0    0  0.39015730339E+02  0.38505073599E+02  0.10626309656E+03  0.17304252858E+03  0.12508798143E+03 0.  0.
          5    1    3    3  502    0  0.24507237773E+01 -0.16393909195E+02  0.10557010522E+03  0.10694524684E+03  0.41800000000E+01 0.  1.
         -5    1    3    3    0  502  0.36565006561E+02  0.54898982794E+02  0.69299134669E+00  0.66097281742E+02  0.41800000000E+01 0.  1.
        -11    1    1    2    0    0 -0.19386140251E+02 -0.52395427988E+02  0.38990540088E+02  0.68127568019E+02  0.00000000000E+00 0. -1.
         11    1    1    2    0    0 -0.19629590087E+02  0.13890354389E+02 -0.28803851193E+02  0.37522321298E+02  0.00000000000E+00 0.  1.
</event>
<event>
 7    1  0.2440960E-009  0.9685027E+02  0.7561462E-02  0.1287062E+00
          1   -1    0    0  501    0  0.00000000000E+00  0.00000000000E+00  0.11875778170E+03  0.11875778170E+03  0.00000000000E+00 0. -1.
         -1   -1    0    0    0  501 -0.00000000000E+00 -0.00000000000E+00 -0.21904034603E+03  0.21904034603E+03  0.00000000000E+00 0.  1.
         25    2    1    2    0    0  0.54159914293E+02 -0.60588194263E+02  0.37098214297E+02  0.15371322127E+03  0.12508897349E+03 0.  0.
          5    1    3    3  502    0 -0.17120904943E+01 -0.29082364207E+02  0.73969960093E+02  0.79609940070E+02  0.41800000000E+01 0. -1.
         -5    1    3    3    0  502  0.55872004787E+02 -0.31505830055E+02 -0.36871745796E+02  0.74103281199E+02  0.41800000000E+01 0. -1.
        -11    1    1    2    0    0 -0.46465049675E+02  0.72320042110E+02 -0.14466458237E+03  0.16827664937E+03  0.00000000000E+00 0.  1.
         11    1    1    2    0    0 -0.76948646183E+01 -0.11731847847E+02  0.72838037416E+01  0.15808257094E+02  0.00000000000E+00 0. -1.
</event>
<event>
 7    1  0.2440960E-009  0.1519023E+03  0.7561462E-02  0.1198155E+00
         -2   -1    0    0    0  501 -0.00000000000E+00  0.00000000000E+00  0.28975827310E+02  0.28975827310E+02  0.00000000000E+00 0.  1.
          2   -1    0    0  501    0  0.00000000000E+00 -0.00000000000E+00 -0.11097988919E+04  0.11097988919E+04  0.00000000000E+00 0. -1.
         25    2    1    2    0    0 -0.93634884058E+02  0.89269622127E+02 -0.76408356830E+03  0.78498966811E+03  0.12509405557E+03 0.  0.
          5    1    3    3  502    0 -0.11629093339E+03  0.95425637156E+02 -0.57333971564E+03  0.59276094283E+03  0.41800000000E+01 0.  1.
         -5    1    3    3    0  502  0.22656049336E+02 -0.61560150297E+01 -0.19074385266E+03  0.19222872527E+03  0.41800000000E+01 0.  1.
        -11    1    1    2    0    0  0.56338575057E+02 -0.57099878601E+02 -0.85017256318E+02  0.11688612000E+03  0.00000000000E+00 0.  1.
         11    1    1    2    0    0  0.37296309001E+02 -0.32169743525E+02 -0.23172223999E+03  0.23689893112E+03  0.00000000000E+00 0. -1.
</event>
<event>
 7    1  0.2440960E-009  0.7317858E+02  0.7561462E-02  0.1349606E+00
          2   -1    0    0  501    0  0.00000000000E+00  0.00000000000E+00  0.24232835790E+03  0.24232835790E+03  0.00000000000E+00 0. -1.
         -2   -1    0    0    0  501 -0.00000000000E+00 -0.00000000000E+00 -0.72829667781E+02  0.72829667781E+02  0.00000000000E+00 0.  1.
         25    2    1    2    0    0 -0.15867783295E+02 -0.31458473643E+02  0.13636443955E+02  0.13067317920E+03  0.12509238605E+03 0.  0.
          5    1    3    3  502    0 -0.36663948853E+01  0.21375466904E+02 -0.45349185357E+02  0.50441788721E+02  0.41800000000E+01 0. -1.
         -5    1    3    3    0  502 -0.12201388410E+02 -0.52833940547E+02  0.58985629312E+02  0.80231390479E+02  0.41800000000E+01 0. -1.
        -11    1    1    2    0    0 -0.10544397718E+02  0.40591216429E+02  0.15023313152E+03  0.15597700144E+03  0.00000000000E+00 0. -1.
         11    1    1    2    0    0  0.26412181014E+02 -0.91327427854E+01  0.56291146425E+01  0.28507845031E+02  0.00000000000E+00 0.  1.
</event>
<event>
 7    1  0.2440960E-009  0.1480925E+03  0.7561462E-02  0.1202837E+00
         -1   -1    0    0    0  501 -0.00000000000E+00  0.00000000000E+00  0.11504294446E+04  0.11504294446E+04  0.00000000000E+00 0.  1.
          1   -1    0    0  501    0  0.00000000000E+00 -0.00000000000E+00 -0.23841977782E+02  0.23841977782E+02  0.00000000000E+00 0. -1.
         25    2    1    2    0    0 -0.10663293601E+03 -0.16859235618E+02  0.37450303316E+03  0.40933497252E+03  0.12509109086E+03 0.  0.
          5    1    3    3  502    0  0.22921873942E+02  0.97196794489E+01  0.11848513985E+03  0.12114489357E+03  0.41800000000E+01 0.  1.
         -5    1    3    3    0  502 -0.12955480995E+03 -0.26578915067E+02  0.25601789332E+03  0.28819007895E+03  0.41800000000E+01 0.  1.
        -11    1    1    2    0    0  0.11943847015E+03  0.26800723144E+02  0.68979892651E+03  0.70057575316E+03  0.00000000000E+00 0.  1.
         11    1    1    2    0    0 -0.12805534141E+02 -0.99414875258E+01  0.62285507169E+02  0.64360696719E+02  0.00000000000E+00 0. -1.
</event>
<event>
 7    1  0.2440960E-009  0.1664420E+03  0.7561462E-02  0.1181610E+00
         -1   -1    0    0    0  501 -0.00000000000E+00  0.00000000000E+00  0.11366219098E+03  0.11366219098E+03  0.00000000000E+00 0.  1.
          1   -1    0    0  501    0  0.00000000000E+00 -0.00000000000E+00 -0.34966533045E+03  0.34966533045E+03  0.00000000000E+00 0. -1.
         25    2    1    2    0    0 -0.10912514141E+03  0.12359501214E+03 -0.89057464002E+02  0.22530681851E+03  0.12509159468E+03 0.  0.
          5    1    3    3  502    0 -0.71575104354E+02  0.96838371403E+02 -0.11965704628E+03  0.16981150392E+03  0.41800000000E+01 0. -1.
         -5    1    3    3    0  502 -0.37550037053E+02  0.26756640742E+02  0.30599582274E+02  0.55495314594E+02  0.41800000000E+01 0. -1.
        -11    1    1    2    0    0  0.65819713744E+02 -0.88857443864E+02 -0.14515309096E+03  0.18247547743E+03  0.00000000000E+00 0. -1.
         11    1    1    2    0    0  0.43305427664E+02 -0.34737568281E+02 -0.17925845050E+01  0.55545225487E+02  0.00000000000E+00 0.  1.
</event>
<event>
 7    1  0.2440960E-009  0.8660641E+02  0.7561462E-02  0.1311284E+00
         -1   -1    0    0    0  501 -0.00000000000E+00  0.00000000000E+00  0.78431825819E+02  0.78431825819E+02  0.00000000000E+00 0.  1.
          1   -1    0    0  501    0  0.00000000000E+00 -0.00000000000E+00 -0.26080253597E+03  0.26080253597E+03  0.00000000000E+00 0. -1.
         25    2    1    2    0    0  0.14434000630E+01 -0.77742040243E+02 -0.35049777194E+02  0.15140015916E+03  0.12509041965E+03 0.  0.
          5    1    3    3  502    0  0.39157549256E+01 -0.43194904244E+02  0.45878372393E+02  0.63272666632E+02  0.41800000000E+01 0. -1.
         -5    1    3    3    0  502 -0.24723548626E+01 -0.34547135999E+02 -0.80928149587E+02  0.88127492532E+02  0.41800000000E+01 0. -1.
        -11    1    1    2    0    0  0.26009152679E+02  0.45478519001E+02 -0.24353333811E+02  0.57774186115E+02  0.00000000000E+00 0.  1.
         11    1    1    2    0    0 -0.27452552742E+02  0.32263521243E+02 -0.12296759915E+03  0.13006001651E+03  0.00000000000E+00 0. -1.
</event>
<event>
 7    1  0.2440960E-009  0.1130104E+03  0.7561462E-02  0.1255095E+00
         -2   -1    0    0    0  501 -0.00000000000E+00  0.00000000000E+00  0.58080180468E+02  0.58080180468E+02  0.00000000000E+00 0.  1.
          2   -1    0    0  501    0  0.00000000000E+00 -0.00000000000E+00 -0.25856112451E+03  0.25856112451E+03  0.00000000000E+00 0. -1.
         25    2    1    2    0    0 -0.33638417478E+02  0.46057905517E+02 -0.13014525993E+03  0.18931085915E+03  0.12509172203E+03 0.  0.
          5    1    3    3  502    0  0.80137331309E+01  0.72285751394E+02 -0.32270486316E+02  0.79676260331E+02  0.41800000000E+01 0.  1.
         -5    1    3    3    0  502 -0.41652150608E+02 -0.26227845876E+02 -0.97874773612E+02  0.10963459882E+03  0.41800000000E+01 0.  1.
        -11    1    1    2    0    0 -0.17789285529E+02  0.15475399966E+02 -0.28139695832E+02  0.36712248164E+02  0.00000000000E+00 0. -1.
         11    1    1    2    0    0  0.51427703007E+02 -0.61533305483E+02 -0.42195988285E+02  0.90618197662E+02  0.00000000000E+00 0.  1.
</event>
<event>
 7    1  0.2440960E-009  0.8830887E+02  0.7561462E-02  0.1306999E+00
          2   -1    0    0  501    0  0.00000000000E+00  0.00000000000E+00  0.19045949667E+02  0.19045949667E+02  0.00000000000E+00 0. -1.
         -2   -1    0    0    0  501 -0.00000000000E+00 -0.00000000000E+00 -0.72146064708E+03  0.72146064708E+03  0.00000000000E+00 0.  1.
         25    2    1    2    0    0 -0.20666443815E+02  0.23151508600E+02 -0.50924597959E+03  0.52530228481E+03  0.12509168018E+03 0.  0.
          5    1    3    3  502    0 -0.37075217088E+02  0.42162015538E+02 -0.96133742802E+02  0.11140635611E+03  0.41800000000E+01 0. -1.
         -5    1    3    3    0  502  0.16408773273E+02 -0.19010506938E+02 -0.41311223679E+03  0.41389592870E+03  0.41800000000E+01 0. -1.
        -11    1    1    2    0    0  0.55175535466E+02 -0.24395549009E+02 -0.12353279101E+03  0.13747666340E+03  0.00000000000E+00 0.  1.
         11    1    1    2    0    0 -0.34509091651E+02  0.12440404095E+01 -0.69635926818E+02  0.77727648536E+02  0.00000000000E+00 0. -1.
</event>
<event>
 7    1  0.2440960E-009  0.1090217E+03  0.7561462E-02  0.1262392E+00
         -2   -1    0    0    0  501 -0.00000000000E+00  0.00000000000E+00  0.21044588809E+02  0.21044588809E+02  0.00000000000E+00 0.  1.
          2   -1    0    0  501    0  0.00000000000E+00 -0.00000000000E+00 -0.62324519883E+03  0.62324519883E+03  0.00000000000E+00 0. -1.
         25    2    1    2    0    0  0.54342940302E+01 -0.24648664424E+02 -0.26987182395E+03  0.29852337088E+03  0.12509321880E+03 0.  0.
          5    1    3    3  502    0 -0.92974461710E+01  0.48945950078E+02 -0.13734628048E+03  0.14616299701E+03  0.41800000000E+01 0. -1.
         -5    1    3    3    0  502  0.14731740201E+02 -0.73594614503E+02 -0.13252554347E+03  0.15236037387E+03  0.41800000000E+01 0. -1.
        -11    1    1    2    0    0  0.41037623857E+02  0.17645523689E+01 -0.18767246648E+03  0.19211495229E+03  0.00000000000E+00 0. -1.
         11    1    1    2    0    0 -0.46471917887E+02  0.22884112056E+02 -0.14465631959E+03  0.15365146447E+03  0.00000000000E+00 0.  1.
</event>
<event>
 7    1  0.2440960E-009  0.9592637E+02  0.7561462E-02  0.1289103E+00
          2   -1    0    0  501    0  0.00000000000E+00  0.00000000000E+00  0.45194339258E+02  0.45194339258E+02  0.00000000000E+00 0. -1.
         -2   -1    0    0    0  501 -0.00000000000E+00 -0.00000000000E+00 -0.24820732332E+03  0.24820732332E+03  0.00000000000E+00 0.  1.
         25    2    1    2    0    0 -0.18341394404E+02  0.27144930856E+02 -0.11279232848E+03  0.17158996169E+03  0.12509097318E+03 0.  0.
          5    1    3    3  502    0 -0.21941851051E+02 -0.38876230930E+02 -0.91679535998E+02  0.10205594485E+03  0.41800000000E+01 0. -1.
         -5    1    3    3    0  502  0.36004566474E+01  0.66021161785E+02 -0.21112792482E+02  0.69534016840E+02  0.41800000000E+01 0. -1.
        -11    1    1    2    0    0  0.13348183491E+01 -0.51248618799E+02 -0.47451994053E+02  0.69856241013E+02  0.00000000000E+00 0. -1.
         11    1    1    2    0    0  0.17006576055E+02  0.24103687943E+02 -0.42768661525E+02  0.51955459869E+02  0.00000000000E+00 0.  1.
</event>
<event>
 7    1  0.3825464E-009  0.2306975E+03  0.7561462E-02  0.1126150E+00
         -1   -1    0    0    0  501 -0.00000000000E+00  0.00000000000E+00  0.39113264666E+02  0.39113264666E+02  0.00000000000E+00 0.  1.
          1   -1    0    0  501    0  0.00000000000E+00 -0.00000000000E+00 -0.15682136674E+04  0.15682136674E+04  0.00000000000E+00 0. -1.
         25    2    1    2    0    0  0.23880140230E+00  0.22201106227E+03 -0.75520135386E+03  0.79703547820E+03  0.12508996701E+03 0.  0.
          5    1    3    3  502    0 -0.12312718305E+02  0.19924512474E+03 -0.74035625591E+03  0.76680837296E+03  0.41800000000E+01 0. -1.
         -5    1    3    3    0  502  0.12551519708E+02  0.22765937531E+02 -0.14845097947E+02  0.30227105248E+02  0.41800000000E+01 0. -1.
        -11    1    1    2    0    0  0.38660507393E+02 -0.95141984571E+02 -0.41880941653E+03  0.43121683575E+03  0.00000000000E+00 0.  1.
         11    1    1    2    0    0 -0.38899308795E+02 -0.12686907770E+03 -0.35508963239E+03  0.37907461816E+03  0.00000000000E+00 0. -1.
</event>
<event>
 7    1  0.2440960E-009  0.9883308E+02  0.7561462E-02  0.1282769E+00
         -4   -1    0    0    0  501 -0.00000000000E+00  0.00000000000E+00  0.65964621524E+03  0.65964621524E+03  0.00000000000E+00 0.  1.
          4   -1    0    0  501    0  0.00000000000E+00 -0.00000000000E+00 -0.18485421770E+02  0.18485421770E+02  0.00000000000E+00 0. -1.
         25    2    1    2    0    0  0.30034457631E+02 -0.17047394236E+02  0.39058142090E+03  0.41157196574E+03  0.12507979189E+03 0.  0.
          5    1    3    3  502    0  0.18818330890E+02  0.50506995586E+02  0.10791477110E+03  0.12069861806E+03  0.41800000000E+01 0.  1.
         -5    1    3    3    0  502  0.11216126741E+02 -0.67554389822E+02  0.28266664980E+03  0.29087334768E+03  0.41800000000E+01 0.  1.
        -11    1    1    2    0    0  0.18222259180E+02 -0.88219758215E+01  0.16370956416E+02  0.26036247828E+02  0.00000000000E+00 0. -1.
         11    1    1    2    0    0 -0.48256716811E+02  0.25869370057E+02  0.23420841616E+03  0.24052342344E+03  0.00000000000E+00 0.  1.
</event>
<event>
 7    1  0.2440960E-009  0.1155617E+03  0.7561462E-02  0.1250604E+00
          1   -1    0    0  501    0  0.00000000000E+00  0.00000000000E+00  0.62772117631E+03  0.62772117631E+03  0.00000000000E+00 0. -1.
         -1   -1    0    0    0  501 -0.00000000000E+00 -0.00000000000E+00 -0.24548953269E+02  0.24548953269E+02  0.00000000000E+00 0.  1.
         25    2    1    2    0    0 -0.54674300509E+02 -0.50263776018E+01  0.27324015570E+03  0.30548741789E+03  0.12509131143E+03 0.  0.
          5    1    3    3  502    0  0.33217837455E+02  0.10303080814E+02  0.14524718526E+03  0.14941149697E+03  0.41800000000E+01 0. -1.
         -5    1    3    3    0  502 -0.87892137963E+02 -0.15329458415E+02  0.12799297044E+03  0.15607592093E+03  0.41800000000E+01 0. -1.
        -11    1    1    2    0    0 -0.14741499123E+02 -0.26665574519E+02  0.96072123715E+02  0.10078798349E+03  0.00000000000E+00 0. -1.
         11    1    1    2    0    0  0.69415799631E+02  0.31691952121E+02  0.23385994362E+03  0.24599472819E+03  0.00000000000E+00 0.  1.
</event>
<event>
 7    1  0.2440960E-009  0.2242988E+03  0.7561462E-02  0.1130718E+00
          2   -1    0    0  501    0  0.00000000000E+00  0.00000000000E+00  0.11309692548E+04  0.11309692548E+04  0.00000000000E+00 0. -1.
         -2   -1    0    0    0  501 -0.00000000000E+00 -0.00000000000E+00 -0.52284673694E+02  0.52284673694E+02  0.00000000000E+00 0.  1.
         25    2    1    2    0    0 -0.18707991770E+03 -0.11027350259E+03  0.52286810490E+03  0.57982528454E+03  0.12508862657E+03 0.  0.
          5    1    3    3  502    0 -0.45402070513E+01 -0.31946154902E+02  0.18525599788E+03  0.18809154006E+03  0.41800000000E+01 0. -1.
         -5    1    3    3    0  502 -0.18253971065E+03 -0.78327347689E+02  0.33761210702E+03  0.39173374448E+03  0.41800000000E+01 0. -1.
        -11    1    1    2    0    0  0.11768230665E+03  0.63844529976E+02  0.22129317061E+03  0.25864244947E+03  0.00000000000E+00 0. -1.
         11    1    1    2    0    0  0.69397611050E+02  0.46428972615E+02  0.33452330563E+03  0.34478619452E+03  0.00000000000E+00 0.  1.
</event>
<event>
 7    1  0.2440960E-009  0.1020610E+03  0.7561462E-02  0.1276021E+00
          2   -1    0    0  501    0  0.00000000000E+00  0.00000000000E+00  0.65464670943E+02  0.65464670943E+02  0.00000000000E+00 0. -1.
         -2   -1    0    0    0  501 -0.00000000000E+00 -0.00000000000E+00 -0.21461674537E+03  0.21461674537E+03  0.00000000000E+00 0.  1.
         25    2    1    2    0    0  0.32640789686E+02 -0.78008455680E+01 -0.42908371129E+02  0.13643650475E+03  0.12509003627E+03 0.  0.
          5    1    3    3  502    0  0.70339128350E+02 -0.49061817488E+01  0.99312551459E+01  0.71328576498E+02  0.41800000000E+01 0.  1.
         -5    1    3    3    0  502 -0.37698338664E+02 -0.28946638193E+01 -0.52839626274E+02  0.65107928254E+02  0.41800000000E+01 0.  1.
        -11    1    1    2    0    0 -0.59726329183E+02  0.23452490982E+02 -0.60234942405E+02  0.88008533777E+02  0.00000000000E+00 0. -1.
         11    1    1    2    0    0  0.27085539497E+02 -0.15651645414E+02 -0.46008760896E+02  0.55636377787E+02  0.00000000000E+00 0.  1.
</event>
<event>
 7    1  0.2440960E-009  0.6556582E+02  0.7561462E-02  0.1375856E+00
         -1   -1    0    0    0  501 -0.00000000000E+00  0.00000000000E+00  0.30003772387E+02  0.30003772387E+02  0.00000000000E+00 0.  1.
          1   -1    0    0  501    0  0.00000000000E+00 -0.00000000000E+00 -0.61657399422E+03  0.61657399422E+03  0.00000000000E+00 0. -1.
         25    2    1    2    0    0 -0.34262847187E+02 -0.20922143383E+02 -0.48609992297E+03  0.50353976656E+03  0.12508989811E+03 0.  0.
          5    1    3    3  502    0 -0.35404783723E+02 -0.74256596521E+01 -0.48789446663E+03  0.48925159386E+03  0.41800000000E+01 0. -1.
         -5    1    3    3    0  502  0.11419365353E+01 -0.13496483731E+02  0.17945436514E+01  0.14288172699E+02  0.41800000000E+01 0. -1.
        -11    1    1    2    0    0 -0.15141975063E+02 -0.13532838069E+02  0.55937674192E+01  0.21064362059E+02  0.00000000000E+00 0.  1.
         11    1    1    2    0    0  0.49404822250E+02  0.34454981452E+02 -0.10606406628E+03  0.12197363799E+03  0.00000000000E+00 0. -1.
</event>
<event>
 7    1  0.2440960E-009  0.8435249E+02  0.7561462E-02  0.1317135E+00
          3   -1    0    0  501    0  0.00000000000E+00  0.00000000000E+00  0.42458015768E+02  0.42458015768E+02  0.00000000000E+00 0. -1.
         -3   -1    0    0    0  501 -0.00000000000E+00 -0.00000000000E+00 -0.41116751117E+03  0.41116751117E+03  0.00000000000E+00 0.  1.
         25    2    1    2    0    0 -0.14886458076E+02 -0.72157396013E+02 -0.22934640716E+03  0.27143243492E+03  0.12508995090E+03 0.  0.
          5    1    3    3  502    0 -0.18732375389E+02 -0.46562880061E+02 -0.11042390984E+02  0.51559775852E+02  0.41800000000E+01 0. -1.
         -5    1    3    3    0  502  0.38459173133E+01 -0.25594515952E+02 -0.21830401618E+03  0.21987265907E+03  0.41800000000E+01 0. -1.
        -11    1    1    2    0    0 -0.11656596080E+02  0.62964520847E+02 -0.14015680596E+03  0.15409197700E+03  0.00000000000E+00 0.  1.
         11    1    1    2    0    0  0.26543054155E+02  0.91928751664E+01  0.79371771779E+00  0.28101115023E+02  0.00000000000E+00 0. -1.
</event>
<event>
 7    1  0.2440960E-009  0.1482747E+03  0.7561462E-02  0.1202609E+00
         -1   -1    0    0    0  501 -0.00000000000E+00  0.00000000000E+00  0.33896140283E+03  0.33896140283E+03  0.00000000000E+00 0.  1.
          1   -1    0    0  501    0  0.00000000000E+00 -0.00000000000E+00 -0.81483806348E+02  0.81483806348E+02  0.00000000000E+00 0. -1.
         25    2    1    2    0    0  0.43603988995E+02  0.95431900860E+02  0.22351541478E+03  0.27679371197E+03  0.12508822000E+03 0.  0.
          5    1    3    3  502    0 -0.39273898226E+02  0.43419073373E+01  0.62043712211E+02  0.73676223208E+02  0.41800000000E+01 0. -1.
         -5    1    3    3    0  502  0.82877887221E+02  0.91089993522E+02  0.16147170257E+03  0.20311748876E+03  0.41800000000E+01 0. -1.
        -11    1    1    2    0    0 -0.44182164823E+02 -0.11024539276E+03  0.15197783791E+02  0.11973755863E+03  0.00000000000E+00 0. -1.
         11    1    1    2    0    0  0.57817582785E+00  0.14813491902E+02  0.18764397917E+02  0.23913938588E+02  0.00000000000E+00 0.  1.
</event>
<event>
 7    1  0.2440960E-009  0.1894675E+03  0.7561462E-02  0.1158943E+00
         -2   -1    0    0    0  501 -0.00000000000E+00  0.00000000000E+00  0.56898623316E+02  0.56898623316E+02  0.00000000000E+00 0.  1.
          2   -1    0    0  501    0  0.00000000000E+00 -0.00000000000E+00 -0.64286638180E+03  0.64286638180E+03  0.00000000000E+00 0. -1.
         25    2    1    2    0    0 -0.48598988181E+02 -0.14710005329E+03 -0.27046839059E+03  0.33585789975E+03  0.12508833354E+03 0.  0.
          5    1    3    3  502    0 -0.74424797773E+02 -0.34106409523E+02 -0.94440690716E+02  0.12505524442E+03  0.41800000000E+01 0.  1.
         -5    1    3    3    0  502  0.25825809592E+02 -0.11299364377E+03 -0.17602769987E+03  0.21080265533E+03  0.41800000000E+01 0.  1.
        -11    1    1    2    0    0  0.26204083960E+02  0.15502357329E+03 -0.28151479723E+03  0.32244308544E+03  0.00000000000E+00 0.  1.
         11    1    1    2    0    0  0.22394904221E+02 -0.79235200010E+01 -0.33984570670E+02  0.41464019920E+02  0.00000000000E+00 0. -1.
</event>
<event>
 7    1  0.2440960E-009  0.1863443E+03  0.7561462E-02  0.1161800E+00
          3   -1    0    0  501    0  0.00000000000E+00  0.00000000000E+00  0.29486154246E+03  0.29486154246E+03  0.00000000000E+00 0. -1.
         -3   -1    0    0    0  501 -0.00000000000E+00 -0.00000000000E+00 -0.12237241854E+03  0.12237241854E+03  0.00000000000E+00 0.  1.
         25    2    1    2    0    0  0.12665420855E+03  0.90516921340E+02  0.10482723570E+03  0.22554631864E+03  0.12509113044E+03 0.  0.
          5    1    3    3  502    0  0.78246879003E+02  0.11915934399E+03  0.66517523600E+02  0.15736447083E+03  0.41800000000E+01 0.  1.
         -5    1    3    3    0  502  0.48407329548E+02 -0.28642422653E+02  0.38309712096E+02  0.68181847806E+02  0.41800000000E+01 0.  1.
        -11    1    1    2    0    0 -0.57478808043E+02 -0.87171570564E+02  0.16794668164E+02  0.10575801136E+03  0.00000000000E+00 0.  1.
         11    1    1    2    0    0 -0.69175400509E+02 -0.33453507760E+01  0.50867220055E+02  0.85929630998E+02  0.00000000000E+00 0. -1.
</event>
<event>
 7    1  0.2440960E-009  0.1137705E+03  0.7561462E-02  0.1253743E+00
          1   -1    0    0  501    0  0.00000000000E+00  0.00000000000E+00  0.35587902977E+02  0.35587902977E+02  0.00000000000E+00 0. -1.
         -1   -1    0    0    0  501 -0.00000000000E+00 -0.00000000000E+00 -0.41255290137E+03  0.41255290137E+03  0.00000000000E+00 0.  1.
         25    2    1    2    0    0 -0.30778050766E+02  0.38726011858E+02 -0.25501743022E+03  0.28831730765E+03  0.12508392291E+03 0.  0.
          5    1    3    3  502    0 -0.45678661011E+01  0.81596777573E+02 -0.13121291796E+03  0.15463893995E+03  0.41800000000E+01 0.  1.
         -5    1    3    3    0  502 -0.26210184665E+02 -0.42870765715E+02 -0.12380451226E+03  0.13367836769E+03  0.41800000000E+01 0.  1.
        -11    1    1    2    0    0 -0.22413871193E+02  0.86808792565E+01 -0.62726335861E+02  0.67173897438E+02  0.00000000000E+00 0.  1.
         11    1    1    2    0    0  0.53191921959E+02 -0.47406891114E+02 -0.59221232316E+02  0.92649599265E+02  0.00000000000E+00 0. -1.
</event>
<event>
 7    1  0.2440960E-009  0.1366471E+03  0.7561462E-02  0.1217913E+00
         -4   -1    0    0    0  501 -0.00000000000E+00  0.00000000000E+00  0.42568632931E+02  0.42568632931E+02  0.00000000000E+00 0.  1.
          4   -1    0    0  501    0  0.00000000000E+00 -0.00000000000E+00 -0.47925547325E+03  0.47925547325E+03  0.00000000000E+00 0. -1.
         25    2    1    2    0    0  0.96304950116E+02 -0.60674064083E+01 -0.20809113489E+03  0.26126868850E+03  0.12509176766E+03 0.  0.
          5    1    3    3  502    0 -0.21624849449E+02 -0.21909591929E+02 -0.82762840402E+02  0.88401495935E+02  0.41800000000E+01 0. -1.
         -5    1    3    3    0  502  0.11792979957E+03  0.15842185521E+02 -0.12532829449E+03  0.17286719257E+03  0.41800000000E+01 0. -1.
        -11    1    1    2    0    0 -0.50031316484E+02  0.41404296038E+02 -0.97948561284E+02  0.11752178103E+03  0.00000000000E+00 0.  1.
         11    1    1    2    0    0 -0.46273633632E+02 -0.35336889630E+02 -0.13064714414E+03  0.14303363664E+03  0.00000000000E+00 0. -1.
</event>
<event>
 7    1  0.2440960E-009  0.1849787E+03  0.7561462E-02  0.1163070E+00
         -2   -1    0    0    0  501 -0.00000000000E+00  0.00000000000E+00  0.23652438181E+02  0.23652438181E+02  0.00000000000E+00 0.  1.
          2   -1    0    0  501    0  0.00000000000E+00 -0.00000000000E+00 -0.20623414532E+04  0.20623414532E+04  0.00000000000E+00 0. -1.
         25    2    1    2    0    0 -0.13831811808E+02  0.15755938803E+03 -0.15572639017E+04  0.15702656850E+04  0.12508869740E+03 0.  0.
          5    1    3    3  502    0 -0.55343350873E+02  0.25189248713E+02 -0.38140233173E+03  0.38624162876E+03  0.41800000000E+01 0.  1.
         -5    1    3    3    0  502  0.41511539065E+02  0.13237013932E+03 -0.11758615700E+04  0.11840240563E+04  0.41800000000E+01 0.  1.
        -11    1    1    2    0    0 -0.23078243874E+02 -0.93309202127E+02 -0.36721840225E+03  0.37958999920E+03  0.00000000000E+00 0. -1.
         11    1    1    2    0    0  0.36910055682E+02 -0.64250185901E+02 -0.11420671109E+03  0.13613820719E+03  0.00000000000E+00 0.  1.
</event>
<event>
 7    1  0.3257351E-009  0.1009331E+03  0.7561462E-02  0.1278346E+00
          2   -1    0    0  501    0  0.00000000000E+00  0.00000000000E+00  0.12486909000E+03  0.12486909000E+03  0.00000000000E+00 0. -1.
         -2   -1    0    0    0  501 -0.00000000000E+00 -0.00000000000E+00 -0.12795164005E+03  0.12795164005E+03  0.00000000000E+00 0.  1.
         25    2    1    2    0    0  0.55711820094E+02 -0.16258724230E+02  0.26943956373E+02  0.14050576428E+03  0.12509092693E+03 0.  0.
          5    1    3    3  502    0  0.32451918826E+02  0.28269706723E+02 -0.38500301245E+02  0.57896882038E+02  0.41800000000E+01 0.  1.
         -5    1    3    3    0  502  0.23259901268E+02 -0.44528430953E+02  0.65444257618E+02  0.82608882243E+02  0.41800000000E+01 0.  1.
        -11    1    1    2    0    0 -0.27169572067E+02  0.54263288519E+02 -0.17692333942E+02  0.63211619244E+02  0.00000000000E+00 0. -1.
         11    1    1    2    0    0 -0.28542248027E+02 -0.38004564288E+02 -0.12334172478E+02  0.49103346524E+02  0.00000000000E+00 0.  1.
</event>
<event>
 7    1  0.2440960E-009  0.1211398E+03  0.7561462E-02  0.1241228E+00
         -2   -1    0    0    0  501 -0.00000000000E+00  0.00000000000E+00  0.29601158630E+02  0.29601158630E+02  0.00000000000E+00 0.  1.
          2   -1    0    0  501    0  0.00000000000E+00 -0.00000000000E+00 -0.64719214518E+03  0.64719214518E+03  0.00000000000E+00 0. -1.
         25    2    1    2    0    0 -0.33575146347E+02 -0.60773238573E+02 -0.21499671590E+03  0.25824784345E+03  0.12509070237E+03 0.  0.
          5    1    3    3  502    0  0.47657001210E+02 -0.18631226801E+02 -0.72204175373E+02  0.88595867385E+02  0.41800000000E+01 0. -1.
         -5    1    3    3    0  502 -0.81232147557E+02 -0.42142011772E+02 -0.14279254053E+03  0.16965197607E+03  0.41800000000E+01 0. -1.
        -11    1    1    2    0    0 -0.53748319516E+01  0.60136541516E+02 -0.33610592097E+03  0.34148569890E+03  0.00000000000E+00 0. -1.
         11    1    1    2    0    0  0.38949978299E+02  0.63669705686E+00 -0.66488349686E+02  0.77059761462E+02  0.00000000000E+00 0.  1.
</event>
<event>
 7    1  0.2440960E-009  0.7501214E+02  0.7561462E-02  0.1343833E+00
         -1   -1    0    0    0  501 -0.00000000000E+00  0.00000000000E+00  0.21452286978E+02  0.21452286978E+02  0.00000000000E+00 0.  1.
          1   -1    0    0  501    0  0.00000000000E+00 -0.00000000000E+00 -0.64447440821E+03  0.64447440821E+03  0.00000000000E+00 0. -1.
         25    2    1    2    0    0  0.70280031357E+01 -0.35342455070E+02 -0.41696983829E+03  0.43681868551E+03  0.12509290952E+03 0.  0.
          5    1    3    3  502    0  0.18388665807E+02  0.10816132397E+02 -0.36729068344E+03  0.36793348623E+03  0.41800000000E+01 0. -1.
         -5    1    3    3    0  502 -0.11360662671E+02 -0.46158587467E+02 -0.49679154851E+02  0.68885199281E+02  0.41800000000E+01 0. -1.
        -11    1    1    2    0    0  0.28439754906E+02 -0.26833172848E+01 -0.14981689690E+03  0.15251597440E+03  0.00000000000E+00 0. -1.
         11    1    1    2    0    0 -0.35467758041E+02  0.38025772355E+02 -0.56235386037E+02  0.76592035267E+02  0.00000000000E+00 0.  1.
</event>
<event>
 7    1  0.2440960E-009  0.1256515E+03  0.7561462E-02  0.1234055E+00
          2   -1    0    0  501    0  0.00000000000E+00  0.00000000000E+00  0.51085738390E+02  0.51085738390E+02  0.00000000000E+00 0. -1.
         -2   -1    0    0    0  501 -0.00000000000E+00 -0.00000000000E+00 -0.40281680251E+03  0.40281680251E+03  0.00000000000E+00 0.  1.
         25    2    1    2    0    0  0.79115704978E+02 -0.27274896224E+02 -0.12390611973E+03  0.19494449109E+03  0.12508962132E+03 0.  0.
          5    1    3    3  502    0  0.16989936698E+02  0.44448178576E+02 -0.14197166611E+02  0.49833025872E+02  0.41800000000E+01 0. -1.
         -5    1    3    3    0  502  0.62125768279E+02 -0.71723074800E+02 -0.10970895312E+03  0.14511146522E+03  0.41800000000E+01 0. -1.
        -11    1    1    2    0    0 -0.91113062922E+02  0.16844055373E+02 -0.22428531189E+03  0.24267099861E+03  0.00000000000E+00 0.  1.
         11    1    1    2    0    0  0.11997357944E+02  0.10430840851E+02 -0.35396324935E+01  0.16287051197E+02  0.00000000000E+00 0. -1.
</event>
<event>
 7    1  0.2440960E-009  0.1085377E+03  0.7561462E-02  0.1263302E+00
          3   -1    0    0  501    0  0.00000000000E+00  0.00000000000E+00  0.61504121319E+02  0.61504121319E+02  0.00000000000E+00 0. -1.
         -3   -1    0    0    0  501 -0.00000000000E+00 -0.00000000000E+00 -0.48617924520E+03  0.48617924520E+03  0.00000000000E+00 0.  1.
         25    2    1    2    0    0  0.26973876316E+01  0.63970781469E+02 -0.36691633846E+02  0.14523147784E+03  0.12508544831E+03 0.  0.
          5    1    3    3  502    0  0.46859883648E+02  0.14869918866E+02 -0.57592364152E+02  0.75837431333E+02  0.41800000000E+01 0.  1.
         -5    1    3    3    0  502 -0.44162496016E+02  0.49100862603E+02  0.20900730307E+02  0.69394046503E+02  0.41800000000E+01 0.  1.
        -11    1    1    2    0    0 -0.29305651203E+02 -0.68561659749E+02 -0.33236058592E+03  0.34062161037E+03  0.00000000000E+00 0.  1.
         11    1    1    2    0    0  0.26608263571E+02  0.45908782796E+01 -0.55622904114E+02  0.61830278308E+02  0.00000000000E+00 0. -1.
</event>
<event>
 7    1  0.2440960E-009  0.1127699E+03  0.7561462E-02  0.1255525E+00
          2   -1    0    0  501    0  0.00000000000E+00  0.00000000000E+00  0.80769838405E+03  0.80769838405E+03  0.00000000000E+00 0. -1.
         -2   -1    0    0    0  501 -0.00000000000E+00 -0.00000000000E+00 -0.17852374359E+02  0.17852374359E+02  0.00000000000E+00 0.  1.
         25    2    1    2    0    0  0.50845687968E+02  0.40878804539E+01  0.42836833603E+03  0.44916438116E+03  0.12508882939E+03 0.  0.
          5    1    3    3  502    0 -0.34693517912E+02 -0.73288704820E+01  0.52479152100E+02  0.63473508906E+02  0.41800000000E+01 0.  1.
         -5    1    3    3    0  502  0.85539205880E+02  0.11416750936E+02  0.37588918393E+03  0.38569087225E+03  0.41800000000E+01 0.  1.
        -11    1    1    2    0    0  0.24898687932E+01  0.36393040605E+02  0.99126156775E+02  0.10562503400E+03  0.00000000000E+00 0.  1.
         11    1    1    2    0    0 -0.53335556761E+02 -0.40480921059E+02  0.26235151688E+03  0.27076134324E+03  0.00000000000E+00 0. -1.
</event>
<event>
 7    1  0.2440960E-009  0.1843488E+03  0.7561462E-02  0.1163659E+00
          2   -1    0    0  501    0  0.00000000000E+00  0.00000000000E+00  0.81782077554E+03  0.81782077554E+03  0.00000000000E+00 0.  1.
         -2   -1    0    0    0  501 -0.00000000000E+00 -0.00000000000E+00 -0.46320596258E+02  0.46320596258E+02  0.00000000000E+00 0. -1.
         25    2    1    2    0    0  0.26495591865E+02 -0.15979478997E+03  0.35581295923E+03  0.41047157545E+03  0.12509061117E+03 0.  0.
          5    1    3    3  502    0  0.51654553746E+02 -0.23497930461E+02  0.16544486276E+03  0.17495662512E+03  0.41800000000E+01 0.  1.
         -5    1    3    3    0  502 -0.25158961881E+02 -0.13629685951E+03  0.19036809647E+03  0.23551495033E+03  0.41800000000E+01 0.  1.
        -11    1    1    2    0    0  0.19958517451E+02  0.41693848027E+02  0.58193365031E+02  0.74318147957E+02  0.00000000000E+00 0. -1.
         11    1    1    2    0    0 -0.46454109315E+02  0.11810094195E+03  0.35749385502E+03  0.37935164839E+03  0.00000000000E+00 0.  1.
</event>
<event>
 7    1  0.2440960E-009  0.1361213E+03  0.7561462E-02  0.1218645E+00
          2   -1    0    0  501    0  0.00000000000E+00  0.00000000000E+00  0.42614762659E+03  0.42614762659E+03  0.00000000000E+00 0. -1.
         -2   -1    0    0    0  501 -0.00000000000E+00 -0.00000000000E+00 -0.50030790030E+02  0.50030790030E+02  0.00000000000E+00 0.  1.
         25    2    1    2    0    0 -0.77181240430E+02 -0.58500968958E+02  0.24254600213E+03  0.28957817672E+03  0.12509056734E+03 0.  0.
          5    1    3    3  502    0 -0.43183932510E+01  0.29955643792E+02  0.11069234775E+03  0.11483143021E+03  0.41800000000E+01 0.  1.
         -5    1    3    3    0  502 -0.72862847179E+02 -0.88456612751E+02  0.13185365439E+03  0.17474674650E+03  0.41800000000E+01 0.  1.
        -11    1    1    2    0    0  0.37009435075E+02  0.74960509380E+02  0.67045821168E+02  0.10716304581E+03  0.00000000000E+00 0.  1.
         11    1    1    2    0    0  0.40171805355E+02 -0.16459540421E+02  0.66525013258E+02  0.79437194093E+02  0.00000000000E+00 0. -1.
</event>
<event>
 7    1  0.2440960E-009  0.1291914E+03  0.7561462E-02  0.1228661E+00
          2   -1    0    0  501    0  0.00000000000E+00  0.00000000000E+00  0.29033372154E+03  0.29033372154E+03  0.00000000000E+00 0. -1.
         -2   -1    0    0    0  501 -0.00000000000E+00 -0.00000000000E+00 -0.11016532179E+03  0.11016532179E+03  0.00000000000E+00 0.  1.
         25    2    1    2    0    0 -0.58391202651E+02  0.95841168882E+02  0.19111299058E+03  0.25449705399E+03  0.12509801405E+03 0.  0.
          5    1    3    3  502    0 -0.60482545132E+02  0.10238059218E+03  0.80650453446E+02  0.14374245011E+03  0.41800000000E+01 0.  1.
         -5    1    3    3    0  502  0.20913424812E+01 -0.65394233029E+01  0.11046253713E+03  0.11075460388E+03  0.41800000000E+01 0.  1.
        -11    1    1    2    0    0  0.70448226289E+02 -0.56784400630E+02  0.22440379714E+02  0.93225486772E+02  0.00000000000E+00 0.  1.
         11    1    1    2    0    0 -0.12057023638E+02 -0.39056768252E+02 -0.33384970548E+02  0.52776502572E+02  0.00000000000E+00 0. -1.
</event>
<event>
 7    1  0.2440960E-009  0.1142646E+03  0.7561462E-02  0.1252870E+00
          1   -1    0    0  501    0  0.00000000000E+00  0.00000000000E+00  0.11061700759E+03  0.11061700759E+03  0.00000000000E+00 0. -1.
         -1   -1    0    0    0  501 -0.00000000000E+00 -0.00000000000E+00 -0.15189699923E+03  0.15189699923E+03  0.00000000000E+00 0.  1.
         25    2    1    2    0    0  0.62068370315E+02  0.13658987299E+02  0.87036423781E+01  0.14057941194E+03  0.12509103542E+03 0.  0.
          5    1    3    3  502    0  0.76853489139E+02 -0.31420214517E+02  0.30037863242E+02  0.88393632696E+02  0.41800000000E+01 0. -1.
         -5    1    3    3    0  502 -0.14785118824E+02  0.45079201817E+02 -0.21334220864E+02  0.52185779240E+02  0.41800000000E+01 0. -1.
        -11    1    1    2    0    0 -0.74053898074E+02 -0.27919103561E+02 -0.61329112078E+02  0.10012350449E+03  0.00000000000E+00 0.  1.
         11    1    1    2    0    0  0.11985527759E+02  0.14260116261E+02  0.11345478061E+02  0.21811090387E+02  0.00000000000E+00 0. -1.
</event>
<event>
 7    1  0.2440960E-009  0.1320465E+03  0.7561462E-02  0.1224450E+00
          3   -1    0    0  501    0  0.00000000000E+00  0.00000000000E+00  0.27312416027E+02  0.27312416027E+02  0.00000000000E+00 0. -1.
         -3   -1    0    0    0  501 -0.00000000000E+00 -0.00000000000E+00 -0.85876987159E+03  0.85876987159E+03  0.00000000000E+00 0.  1.
         25    2    1    2    0    0 -0.58066265474E+02  0.72193425044E+02 -0.61533518639E+03  0.63471889636E+03  0.12508838468E+03 0.  0.
          5    1    3    3  502    0 -0.94790770888E+02  0.57608006845E+02 -0.37366172761E+03  0.38980063080E+03  0.41800000000E+01 0. -1.
         -5    1    3    3    0  502  0.36724505414E+02  0.14585418199E+02 -0.24167345879E+03  0.24491826556E+03  0.41800000000E+01 0. -1.
        -11    1    1    2    0    0  0.17452154865E+02 -0.70584245705E+02 -0.74814482432E+02  0.10432602855E+03  0.00000000000E+00 0.  1.
         11    1    1    2    0    0  0.40614110608E+02 -0.16091793385E+01 -0.14130778674E+03  0.14703736271E+03  0.00000000000E+00 0. -1.
</event>
<event>
 7    1  0.2440960E-009  0.8048509E+02  0.7561462E-02  0.1327680E+00
         -1   -1    0    0    0  501 -0.00000000000E+00  0.00000000000E+00  0.81421722410E+02  0.81421722410E+02  0.00000000000E+00 0.  1.
          1   -1    0    0  501    0  0.00000000000E+00 -0.00000000000E+00 -0.17237262025E+03  0.17237262025E+03  0.00000000000E+00 0. -1.
         25    2    1    2    0    0  0.50017169443E+01  0.43058775578E+02 -0.52946819125E+02  0.14258570559E+03  0.12509293528E+03 0.  0.
          5    1    3    3  502    0  0.43101878075E+02  0.53443978047E+02  0.86190605858E+01  0.69323814728E+02  0.41800000000E+01 0.  1.
         -5    1    3    3    0  502 -0.38100161131E+02 -0.10385202469E+02 -0.61565879711E+02  0.73261890865E+02  0.41800000000E+01 0.  1.
        -11    1    1    2    0    0  0.12450728823E+02 -0.19917540901E+02 -0.66521828714E+02  0.70547025303E+02  0.00000000000E+00 0. -1.
         11    1    1    2    0    0 -0.17452445768E+02 -0.23141234677E+02  0.28517750003E+02  0.40661611759E+02  0.00000000000E+00 0.  1.
</event>
<event>
 7    1  0.2440960E-009  0.1507716E+03  0.7561462E-02  0.1199528E+00
         -1   -1    0    0    0  501 -0.00000000000E+00  0.00000000000E+00  0.22023944026E+02  0.22023944026E+02  0.00000000000E+00 0. -1.
          1   -1    0    0  501    0  0.00000000000E+00 -0.00000000000E+00 -0.15003087983E+04  0.15003087983E+04  0.00000000000E+00 0.  1.
         25    2    1    2    0    0 -0.12730543843E+03 -0.50431571107E+01 -0.11084723734E+04  0.11227603413E+04  0.12509066011E+03 0.  0.
          5    1    3    3  502    0 -0.28925733365E+02 -0.49850386315E+02 -0.60738373828E+03  0.61012641067E+03  0.41800000000E+01 0. -1.
         -5    1    3    3    0  502 -0.98379705070E+02  0.44807229205E+02 -0.50108863515E+03  0.51263393063E+03  0.41800000000E+01 0. -1.
        -11    1    1    2    0    0  0.37468738632E+02  0.22992709615E+02 -0.21695471298E+03  0.22136376974E+03  0.00000000000E+00 0.  1.
         11    1    1    2    0    0  0.89836699803E+02 -0.17949552504E+02 -0.15285776783E+03  0.17820863125E+03  0.00000000000E+00 0. -1.
</event>
<event>
 7    1  0.2440960E-009  0.1167781E+03  0.7561462E-02  0.1248509E+00
          2   -1    0    0  501    0  0.00000000000E+00  0.00000000000E+00  0.41446435458E+03  0.41446435458E+03  0.00000000000E+00 0. -1.
         -2   -1    0    0    0  501 -0.00000000000E+00 -0.00000000000E+00 -0.34222466130E+02  0.34222466130E+02  0.00000000000E+00 0.  1.
         25    2    1    2    0    0 -0.38349760675E+02 -0.35056526776E+02  0.22921513542E+03  0.26624592897E+03  0.12509057589E+03 0.  0.
          5    1    3    3  502    0  0.50415726799E+01 -0.74991534884E+02  0.11169966973E+03  0.13469757377E+03  0.41800000000E+01 0. -1.
         -5    1    3    3    0  502 -0.43391333355E+02  0.39935008108E+02  0.11751546568E+03  0.13154835521E+03  0.41800000000E+01 0. -1.
        -11    1    1    2    0    0 -0.11760118809E+02  0.46328667666E+02  0.50381473055E+02  0.69447380579E+02  0.00000000000E+00 0.  1.
         11    1    1    2    0    0  0.50109879484E+02 -0.11272140890E+02  0.10064527997E+03  0.11299351115E+03  0.00000000000E+00 0. -1.
</event>
<event>
 7    1  0.2440960E-009  0.1157235E+03  0.7561462E-02  0.1250324E+00
          1   -1    0    0  501    0  0.00000000000E+00  0.00000000000E+00  0.46098171142E+03  0.46098171142E+03  0.00000000000E+00 0.  1.
         -1   -1    0    0    0  501 -0.00000000000E+00 -0.00000000000E+00 -0.39348717383E+02  0.39348717383E+02  0.00000000000E+00 0. -1.
         25    2    1    2    0    0 -0.70677976724E+02 -0.23685827517E+02  0.17978477615E+03  0.23135963932E+03  0.12509325383E+03 0.  0.
          5    1    3    3  502    0 -0.95708518439E+02  0.14538091061E+02  0.14206775660E+03  0.17196568396E+03  0.41800000000E+01 0. -1.
         -5    1    3    3    0  502  0.25030541715E+02 -0.38223918578E+02  0.37717019547E+02  0.59393955362E+02  0.41800000000E+01 0. -1.
        -11    1    1    2    0    0  0.19431790958E+00 -0.10382240874E+02 -0.38710799673E+01  0.11082145331E+02  0.00000000000E+00 0. -1.
         11    1    1    2    0    0  0.70483658814E+02  0.34068068391E+02  0.24571929786E+03  0.25788864416E+03  0.00000000000E+00 0.  1.
</event>
<event>
 7    1  0.2440960E-009  0.1583245E+03  0.7561462E-02  0.1190601E+00
          1   -1    0    0  501    0  0.00000000000E+00  0.00000000000E+00  0.93296681424E+03  0.93296681424E+03  0.00000000000E+00 0. -1.
         -1   -1    0    0    0  501 -0.00000000000E+00 -0.00000000000E+00 -0.30751828552E+02  0.30751828552E+02  0.00000000000E+00 0.  1.
         25    2    1    2    0    0  0.11178582206E+03  0.65825904107E+02  0.47300995814E+03  0.50617668728E+03  0.12508916254E+03 0.  0.
          5    1    3    3  502    0  0.12906366517E+03  0.50051373517E+02  0.28714259215E+03  0.31879603242E+03  0.41800000000E+01 0.  1.
         -5    1    3    3    0  502 -0.17277843112E+02  0.15774530590E+02  0.18586736598E+03  0.18738065486E+03  0.41800000000E+01 0.  1.
        -11    1    1    2    0    0 -0.75108855646E+02  0.43220561556E+01  0.15758543230E+03  0.17462299058E+03  0.00000000000E+00 0.  1.
         11    1    1    2    0    0 -0.36676966413E+02 -0.70147960262E+02  0.27161959525E+03  0.28291896493E+03  0.00000000000E+00 0. -1.
</event>
<event>
 7    1  0.2440960E-009  0.1075030E+03  0.7561462E-02  0.1265265E+00
         -2   -1    0    0    0  501 -0.00000000000E+00  0.00000000000E+00  0.10047918474E+03  0.10047918474E+03  0.00000000000E+00 0.  1.
          2   -1    0    0  501    0  0.00000000000E+00 -0.00000000000E+00 -0.15788437927E+03  0.15788437927E+03  0.00000000000E+00 0. -1.
         25    2    1    2    0    0 -0.10581936363E+02  0.59833624893E+02 -0.13031245022E+02  0.13967572231E+03  0.12508978380E+03 0.  0.
          5    1    3    3  502    0 -0.54239934299E+02  0.73577042559E+02 -0.18610973694E+02  0.93377686876E+02  0.41800000000E+01 0.  1.
         -5    1    3    3    0  502  0.43657997935E+02 -0.13743417667E+02  0.55797286726E+01  0.46298035433E+02  0.41800000000E+01 0.  1.
        -11    1    1    2    0    0  0.19584342048E+02 -0.27788384319E+01 -0.56330606577E+02  0.59702643441E+02  0.00000000000E+00 0. -1.
         11    1    1    2    0    0 -0.90024056843E+01 -0.57054786461E+02  0.11956657064E+02  0.58985198265E+02  0.00000000000E+00 0.  1.
</event>
<event>
 7    1  0.2440960E-009  0.7919173E+02  0.7561462E-02  0.1331361E+00
          2   -1    0    0  501    0  0.00000000000E+00  0.00000000000E+00  0.31797879646E+02  0.31797879646E+02  0.00000000000E+00 0. -1.
         -2   -1    0    0    0  501 -0.00000000000E+00 -0.00000000000E+00 -0.43217272485E+03  0.43217272485E+03  0.00000000000E+00 0.  1.
         25    2    1    2    0    0  0.19068223802E+02 -0.33701599332E+02 -0.18540003646E+03  0.22698018769E+03  0.12508971632E+03 0.  0.
          5    1    3    3  502    0  0.57351248468E+02 -0.72758730246E+01 -0.16701467691E+03  0.17678653436E+03  0.41800000000E+01 0. -1.
         -5    1    3    3    0  502 -0.38283024666E+02 -0.26425726307E+02 -0.18385359551E+02  0.50193653327E+02  0.41800000000E+01 0. -1.
        -11    1    1    2    0    0 -0.69439603722E+01  0.39620531599E+02 -0.21919395147E+03  0.22285419779E+03  0.00000000000E+00 0.  1.
         11    1    1    2    0    0 -0.12124263430E+02 -0.59189322674E+01  0.42191427246E+01  0.14136219022E+02  0.00000000000E+00 0. -1.
</event>
<event>
 7    1  0.2440960E-009  0.1044152E+03  0.7561462E-02  0.1271276E+00
          2   -1    0    0  501    0  0.00000000000E+00  0.00000000000E+00  0.13382234305E+03  0.13382234305E+03  0.00000000000E+00 0.  1.
         -2   -1    0    0    0  501 -0.00000000000E+00 -0.00000000000E+00 -0.12758835631E+03  0.12758835631E+03  0.00000000000E+00 0. -1.
         25    2    1    2    0    0 -0.43551949602E+02 -0.55796588598E+02 -0.13674908618E+02  0.14437736780E+03  0.12509112516E+03 0.  0.
          5    1    3    3  502    0 -0.51713595534E+02 -0.95534217093E+01  0.44838478657E+02  0.69235290118E+02  0.41800000000E+01 0.  1.
         -5    1    3    3    0  502  0.81616459319E+01 -0.46243166889E+02 -0.58513387275E+02  0.75142077683E+02  0.41800000000E+01 0.  1.
        -11    1    1    2    0    0  0.91286013074E+00 -0.21038837741E+02  0.20169277198E+02  0.29159316689E+02  0.00000000000E+00 0. -1.
         11    1    1    2    0    0  0.42639089472E+02  0.76835426339E+02 -0.26038183755E+00  0.87874014875E+02  0.00000000000E+00 0.  1.
</event>
<event>
 7    1  0.2440960E-009  0.8826412E+02  0.7561462E-02  0.1307111E+00
          1   -1    0    0  501    0  0.00000000000E+00  0.00000000000E+00  0.23981170592E+03  0.23981170592E+03  0.00000000000E+00 0. -1.
         -1   -1    0    0    0  501 -0.00000000000E+00 -0.00000000000E+00 -0.45157045623E+02  0.45157045623E+02  0.00000000000E+00 0.  1.
         25    2    1    2    0    0 -0.24114381341E+02 -0.11585870024E+02  0.11950506166E+03  0.17505542726E+03  0.12508879678E+03 0.  0.
          5    1    3    3  502    0  0.41092448715E+02 -0.20571190820E+01  0.96741007663E+02  0.10520986667E+03  0.41800000000E+01 0. -1.
         -5    1    3    3    0  502 -0.65206830056E+02 -0.95287509421E+01  0.22764053995E+02  0.69845560594E+02  0.41800000000E+01 0. -1.
        -11    1    1    2    0    0  0.57410797199E+01  0.37187740522E+02  0.67820662975E+02  0.77559850231E+02  0.00000000000E+00 0. -1.
         11    1    1    2    0    0  0.18373301621E+02 -0.25601870498E+02  0.73289356668E+01  0.32353474055E+02  0.00000000000E+00 0.  1.
</event>
<event>
 7    1  0.2440960E-009  0.3479171E+03  0.7561462E-02  0.1063473E+00
          2   -1    0    0  501    0  0.00000000000E+00  0.00000000000E+00  0.80586777733E+03  0.80586777733E+03  0.00000000000E+00 0.  1.
         -2   -1    0    0    0  501 -0.00000000000E+00 -0.00000000000E+00 -0.16385127147E+03  0.16385127147E+03  0.00000000000E+00 0. -1.
         25    2    1    2    0    0  0.30186489554E+03 -0.15225196592E+03  0.42812685151E+03  0.55968121672E+03  0.12508951628E+03 0.  0.
          5    1    3    3  502    0  0.29462064951E+03 -0.16696094221E+03  0.38178787735E+03  0.51034962430E+03  0.41800000000E+01 0. -1.
         -5    1    3    3    0  502  0.72442460296E+01  0.14708976286E+02  0.46338974164E+02  0.49331592418E+02  0.41800000000E+01 0. -1.
        -11    1    1    2    0    0 -0.10640078313E+03  0.74485113506E+02  0.12939700919E+03  0.18333778872E+03  0.00000000000E+00 0.  1.
         11    1    1    2    0    0 -0.19546411240E+03  0.77766852413E+02  0.84492645166E+02  0.22670004336E+03  0.00000000000E+00 0. -1.
</event>
<event>
 7    1  0.2440960E-009  0.1313403E+03  0.7561462E-02  0.1225480E+00
         -1   -1    0    0    0  501 -0.00000000000E+00  0.00000000000E+00  0.70989298265E+02  0.70989298265E+02  0.00000000000E+00 0.  1.
          1   -1    0    0  501    0  0.00000000000E+00 -0.00000000000E+00 -0.26929807869E+03  0.26929807869E+03  0.00000000000E+00 0. -1.
         25    2    1    2    0    0 -0.43173053374E+02 -0.66168149647E+02 -0.69623164835E+02  0.16351339207E+03  0.12508839970E+03 0.  0.
          5    1    3    3  502    0 -0.34636404856E+01  0.33976112760E+02  0.13581368572E+01  0.34433849326E+02  0.41800000000E+01 0. -1.
         -5    1    3    3    0  502 -0.39709412889E+02 -0.10014426241E+03 -0.70981301692E+02  0.12907954274E+03  0.41800000000E+01 0. -1.
        -11    1    1    2    0    0  0.34545817166E+01  0.78729398404E+02 -0.93201087528E+02  0.12205201770E+03  0.00000000000E+00 0.  1.
         11    1    1    2    0    0  0.39718471658E+02 -0.12561248757E+02 -0.35484528066E+02  0.54721967191E+02  0.00000000000E+00 0. -1.
</event>
<event>
 7    1  0.2440960E-009  0.1196288E+03  0.7561462E-02  0.1243711E+00
          1   -1    0    0  501    0  0.00000000000E+00  0.00000000000E+00  0.63996286044E+02  0.63996286044E+02  0.00000000000E+00 0. -1.
         -1   -1    0    0    0  501 -0.00000000000E+00 -0.00000000000E+00 -0.29818169161E+03  0.29818169161E+03  0.00000000000E+00 0.  1.
         25    2    1    2    0    0 -0.67249909548E+02 -0.74745925286E+01 -0.61096715617E+02  0.15478834815E+03  0.12509278235E+03 0.  0.
          5    1    3    3  502    0 -0.19105626714E+02 -0.63387503303E+02 -0.41802223637E+02  0.78408538107E+02  0.41800000000E+01 0.  1.
         -5    1    3    3    0  502 -0.48144282834E+02  0.55912910774E+02 -0.19294491980E+02  0.76379810039E+02  0.41800000000E+01 0.  1.
        -11    1    1    2    0    0  0.13200174622E+02 -0.30318038357E+02 -0.11447689316E+03  0.11915698522E+03  0.00000000000E+00 0.  1.
         11    1    1    2    0    0  0.54049734926E+02  0.37792630885E+02 -0.58611796789E+02  0.88232644286E+02  0.00000000000E+00 0. -1.
</event>
<event>
 7    1  0.2440960E-009  0.1580020E+03  0.7561462E-02  0.1190971E+00
          2   -1    0    0  501    0  0.00000000000E+00  0.00000000000E+00  0.20083040035E+03  0.20083040035E+03  0.00000000000E+00 0. -1.
         -2   -1    0    0    0  501 -0.00000000000E+00 -0.00000000000E+00 -0.20018698058E+03  0.20018698058E+03  0.00000000000E+00 0.  1.
         25    2    1    2    0    0  0.62537565565E+02 -0.12755200327E+03 -0.88225645243E+02  0.20883430266E+03  0.12509013088E+03 0.  0.
          5    1    3    3  502    0  0.61618219191E+02 -0.37006655370E+02 -0.93530547191E+02  0.11803276298E+03  0.41800000000E+01 0. -1.
         -5    1    3    3    0  502  0.91934637440E+00 -0.90545347900E+02  0.53049019485E+01  0.90801539683E+02  0.41800000000E+01 0. -1.
        -11    1    1    2    0    0  0.19311193946E+01  0.59817999358E+02 -0.45275481740E+01  0.60020171291E+02  0.00000000000E+00 0.  1.
         11    1    1    2    0    0 -0.64468684960E+02  0.67734003912E+02  0.93396613191E+02  0.13216290698E+03  0.00000000000E+00 0. -1.
</event>
<event>
 7    1  0.2440960E-009  0.1158717E+03  0.7561462E-02  0.1250067E+00
          3   -1    0    0  501    0  0.00000000000E+00  0.00000000000E+00  0.25144403537E+03  0.25144403537E+03  0.00000000000E+00 0.  1.
         -3   -1    0    0    0  501 -0.00000000000E+00 -0.00000000000E+00 -0.88063524540E+02  0.88063524540E+02  0.00000000000E+00 0. -1.
         25    2    1    2    0    0  0.29880967762E+02  0.38258235682E+02  0.19084570972E+03  0.23329375204E+03  0.12508926809E+03 0.  0.
          5    1    3    3  502    0  0.70624561431E+02 -0.83209533730E+01  0.88342561338E+02  0.11348545055E+03  0.41800000000E+01 0.  1.
         -5    1    3    3    0  502 -0.40743593669E+02  0.46579189055E+02  0.10250314838E+03  0.11980830149E+03  0.41800000000E+01 0.  1.
        -11    1    1    2    0    0 -0.39641859205E+02  0.16443156026E+02 -0.26890567334E+02  0.50645404460E+02  0.00000000000E+00 0.  1.
         11    1    1    2    0    0  0.97608914435E+01 -0.54701391708E+02 -0.57463155245E+00  0.55568403414E+02  0.00000000000E+00 0. -1.
</event>
<event>
 7    1  0.2440960E-009  0.9191019E+02  0.7561462E-02  0.1298291E+00
          2   -1    0    0  501    0  0.00000000000E+00  0.00000000000E+00  0.23766264167E+03  0.23766264167E+03  0.00000000000E+00 0. -1.
         -2   -1    0    0    0  501 -0.00000000000E+00 -0.00000000000E+00 -0.86703835689E+02  0.86703835689E+02  0.00000000000E+00 0.  1.
         25    2    1    2    0    0 -0.51789306010E+02  0.14744934875E+02 -0.45827453805E+01  0.13626409797E+03  0.12508939810E+03 0.  0.
          5    1    3    3  502    0 -0.12956477661E+02  0.49638534910E+02  0.41798156686E+02  0.66305450483E+02  0.41800000000E+01 0.  1.
         -5    1    3    3    0  502 -0.38832828350E+02 -0.34893600036E+02 -0.46380902067E+02  0.69958647483E+02  0.41800000000E+01 0.  1.
        -11    1    1    2    0    0 -0.46986757115E+00  0.18194697425E+02 -0.25423088234E+01  0.18377462395E+02  0.00000000000E+00 0.  1.
         11    1    1    2    0    0  0.52259173581E+02 -0.32939632300E+02  0.15808386018E+03  0.16972491700E+03  0.00000000000E+00 0. -1.
</event>
<event>
 7    1  0.2440960E-009  0.1140162E+03  0.7561462E-02  0.1253308E+00
         -1   -1    0    0    0  501 -0.00000000000E+00  0.00000000000E+00  0.40440804399E+02  0.40440804399E+02  0.00000000000E+00 0.  1.
          1   -1    0    0  501    0  0.00000000000E+00 -0.00000000000E+00 -0.35095783827E+03  0.35095783827E+03  0.00000000000E+00 0. -1.
         25    2    1    2    0    0 -0.46668721474E+02 -0.17654461533E+02 -0.16063068642E+03  0.20961719605E+03  0.12508997515E+03 0.  0.
          5    1    3    3  502    0 -0.41249614980E+02 -0.66205937865E+02 -0.13042230666E+03  0.15202699569E+03  0.41800000000E+01 0. -1.
         -5    1    3    3    0  502 -0.54191064940E+01  0.48551476332E+02 -0.30208379764E+02  0.57590200357E+02  0.41800000000E+01 0. -1.
        -11    1    1    2    0    0  0.24117782312E+02  0.53414772516E+02 -0.10408511333E+03  0.11945089436E+03  0.00000000000E+00 0. -1.
         11    1    1    2    0    0  0.22550939161E+02 -0.35760310983E+02 -0.45801234125E+02  0.62330552268E+02  0.00000000000E+00 0.  1.
</event>
<event>
 7    1  0.2440960E-009  0.1235767E+03  0.7561462E-02  0.1237311E+00
          2   -1    0    0  501    0  0.00000000000E+00  0.00000000000E+00  0.90339236392E+03  0.90339236392E+03  0.00000000000E+00 0. -1.
         -2   -1    0    0    0  501 -0.00000000000E+00 -0.00000000000E+00 -0.32463389619E+02  0.32463389619E+02  0.00000000000E+00 0.  1.
         25    2    1    2    0    0 -0.62651280544E+01 -0.70125910634E+02  0.76948704098E+03  0.78276129156E+03  0.12509211867E+03 0.  0.
          5    1    3    3  502    0 -0.59407696037E+02 -0.17377231128E+02  0.46766996180E+03  0.47176679417E+03  0.41800000000E+01 0.  1.
         -5    1    3    3    0  502  0.53142567982E+02 -0.52748679506E+02  0.30181707918E+03  0.31099449739E+03  0.41800000000E+01 0.  1.
        -11    1    1    2    0    0  0.16797568653E+02 -0.16092685716E+02  0.59561956346E+01  0.24012686493E+02  0.00000000000E+00 0.  1.
         11    1    1    2    0    0 -0.10532440598E+02  0.86218596350E+02  0.95485737681E+02  0.12908177548E+03  0.00000000000E+00 0. -1.
</event>
<event>
 7    1  0.2440960E-009  0.1545381E+03  0.7561462E-02  0.1195005E+00
          4   -1    0    0  501    0  0.00000000000E+00  0.00000000000E+00  0.24597653577E+03  0.24597653577E+03  0.00000000000E+00 0. -1.
         -4   -1    0    0    0  501 -0.00000000000E+00 -0.00000000000E+00 -0.12065420772E+03  0.12065420772E+03  0.00000000000E+00 0.  1.
         25    2    1    2    0    0  0.39669072238E+00 -0.12244910703E+03  0.82310096915E+01  0.17524314959E+03  0.12509384790E+03 0.  0.
          5    1    3    3  502    0 -0.20121145855E+02 -0.14301703070E+03  0.14558631996E+02  0.14521762202E+03  0.41800000000E+01 0. -1.
         -5    1    3    3    0  502  0.20517836577E+02  0.20567923668E+02 -0.63276223049E+01  0.30025527570E+02  0.41800000000E+01 0. -1.
        -11    1    1    2    0    0  0.24746167509E+02  0.27399806755E+02 -0.19768137038E+01  0.36973368916E+02  0.00000000000E+00 0.  1.
         11    1    1    2    0    0 -0.25142858231E+02  0.95049300273E+02  0.11906813206E+03  0.15441422498E+03  0.00000000000E+00 0. -1.
</event>
<event>
 7    1  0.2440960E-009  0.8568233E+02  0.7561462E-02  0.1313658E+00
          2   -1    0    0  501    0  0.00000000000E+00  0.00000000000E+00  0.92217992431E+03  0.92217992431E+03  0.00000000000E+00 0. -1.
         -2   -1    0    0    0  501 -0.00000000000E+00 -0.00000000000E+00 -0.27185691505E+02  0.27185691505E+02  0.00000000000E+00 0.  1.
         25    2    1    2    0    0  0.34131920391E+02  0.52203336295E+02  0.77077378287E+03  0.78334503100E+03  0.12508811661E+03 0.  0.
          5    1    3    3  502    0  0.16843204314E+02  0.75886803200E+02  0.72269230299E+03  0.72687284833E+03  0.41800000000E+01 0. -1.
         -5    1    3    3    0  502  0.17288716077E+02 -0.23683466904E+02  0.48081479879E+02  0.56472182670E+02  0.41800000000E+01 0. -1.
        -11    1    1    2    0    0 -0.20079250924E+02 -0.18171886783E+02 -0.84238258329E+01  0.28361146461E+02  0.00000000000E+00 0.  1.
         11    1    1    2    0    0 -0.14052669467E+02 -0.34031449513E+02  0.13264427577E+03  0.13765943836E+03  0.00000000000E+00 0. -1.
</event>
<event>
 7    1  0.2440960E-009  0.1186928E+03  0.7561462E-02  0.1245269E+00
         -1   -1    0    0    0  501 -0.00000000000E+00  0.00000000000E+00  0.13264386315E+02  0.13264386315E+02  0.00000000000E+00 0.  1.
          1   -1    0    0  501    0  0.00000000000E+00 -0.00000000000E+00 -0.12987808236E+04  0.12987808236E+04  0.00000000000E+00 0. -1.
         25    2    1    2    0    0 -0.26782045661E+02 -0.69811530731E+02 -0.69864514390E+03  0.71368339385E+03  0.12509205317E+03 0.  0.
          5    1    3    3  502    0  0.38753277746E+02 -0.37062899794E+02 -0.13561941096E+03  0.14589575767E+03  0.41800000000E+01 0.  1.
         -5    1    3    3    0  502 -0.65535323406E+02 -0.32748630937E+02 -0.56302573294E+03  0.56778763617E+03  0.41800000000E+01 0.  1.
        -11    1    1    2    0    0 -0.10878361432E+02 -0.14354408856E+02 -0.41343644056E+02  0.45096393480E+02  0.00000000000E+00 0.  1.
         11    1    1    2    0    0  0.37660407092E+02  0.84165939588E+02 -0.54552764932E+03  0.55326542258E+03  0.00000000000E+00 0. -1.
</event>
<event>
 7    1  0.2440960E-009  0.1102067E+03  0.7561462E-02  0.1260188E+00
         -2   -1    0    0    0  501 -0.00000000000E+00  0.00000000000E+00  0.17145902767E+03  0.17145902767E+03  0.00000000000E+00 0.  1.
          2   -1    0    0  501    0  0.00000000000E+00 -0.00000000000E+00 -0.87777973481E+02  0.87777973481E+02  0.00000000000E+00 0. -1.
         25    2    1    2    0    0 -0.51451358186E+02  0.10508910644E+02  0.20701694392E+02  0.13722386564E+03  0.12507657530E+03 0.  0.
          5    1    3    3  502    0 -0.20336380264E+02  0.56663726146E+02 -0.24763808173E+02  0.65230857868E+02  0.41800000000E+01 0.  1.
         -5    1    3    3    0  502 -0.31114977922E+02 -0.46154815502E+02  0.45465502566E+02  0.71993007776E+02  0.41800000000E+01 0.  1.
        -11    1    1    2    0    0  0.54776846741E+02 -0.44203336062E+02  0.38465813483E+02  0.80212571738E+02  0.00000000000E+00 0.  1.
         11    1    1    2    0    0 -0.33254885552E+01  0.33694425418E+02  0.24513546314E+02  0.41800563768E+02  0.00000000000E+00 0. -1.
</event>
<event>
 7    1  0.2440960E-009  0.1323986E+03  0.7561462E-02  0.1223939E+00
         -1   -1    0    0    0  501 -0.00000000000E+00  0.00000000000E+00  0.12187496285E+03  0.12187496285E+03  0.00000000000E+00 0.  1.
          1   -1    0    0  501    0  0.00000000000E+00 -0.00000000000E+00 -0.23791334288E+03  0.23791334288E+03  0.00000000000E+00 0. -1.
         25    2    1    2    0    0 -0.89744220046E+02  0.21931494593E+02 -0.16100699070E+03  0.22384231255E+03  0.12508842610E+03 0.  0.
          5    1    3    3  502    0 -0.10227132510E+03 -0.10872407303E+02 -0.65516619319E+02  0.12201447859E+03  0.41800000000E+01 0.  1.
         -5    1    3    3    0  502  0.12527105058E+02  0.32803901896E+02 -0.95490371382E+02  0.10182783395E+03  0.41800000000E+01 0.  1.
        -11    1    1    2    0    0  0.60833041594E+02  0.29418418381E+02  0.35270045429E+02  0.76223870239E+02  0.00000000000E+00 0.  1.
         11    1    1    2    0    0  0.28911178452E+02 -0.51349912974E+02  0.96985652472E+01  0.59722122951E+02  0.00000000000E+00 0. -1.
</event>
<event>
 7    1  0.2440960E-009  0.8262763E+02  0.7561462E-02  0.1321756E+00
          2   -1    0    0  501    0  0.00000000000E+00  0.00000000000E+00  0.64609632919E+03  0.64609632919E+03  0.00000000000E+00 0. -1.
         -2   -1    0    0    0  501 -0.00000000000E+00 -0.00000000000E+00 -0.20904612782E+02  0.20904612782E+02  0.00000000000E+00 0.  1.
         25    2    1    2    0    0 -0.10611948178E+02 -0.30086125960E+02  0.43629091394E+03  0.45498903426E+03  0.12508985289E+03 0.  0.
          5    1    3    3  502    0 -0.68512673363E+01  0.27918556304E+02  0.21540026678E+02  0.36163943363E+02  0.41800000000E+01 0.  1.
         -5    1    3    3    0  502 -0.37606808416E+01 -0.58004682264E+02  0.41475088726E+03  0.41882509090E+03  0.41800000000E+01 0.  1.
        -11    1    1    2    0    0 -0.29654879308E+02  0.21834006538E+02  0.15321524819E+03  0.15757870410E+03  0.00000000000E+00 0. -1.
         11    1    1    2    0    0  0.40266827486E+02  0.82521194219E+01  0.35685554280E+02  0.54433203607E+02  0.00000000000E+00 0.  1.
</event>
<event>
 7    1  0.2440960E-009  0.1496333E+03  0.7561462E-02  0.1200924E+00
         -1   -1    0    0    0  501 -0.00000000000E+00  0.00000000000E+00  0.69182989148E+02  0.69182989148E+02  0.00000000000E+00 0.  1.
          1   -1    0    0  501    0  0.00000000000E+00 -0.00000000000E+00 -0.42223323357E+03  0.42223323357E+03  0.00000000000E+00 0. -1.
         25    2    1    2    0    0  0.10254236198E+03 -0.23742437385E+02 -0.74269171707E+02  0.17955895476E+03  0.12508744555E+03 0.  0.
          5    1    3    3  502    0  0.12282091896E+03  0.81140636655E+01 -0.43323618289E+02  0.13055736082E+03  0.41800000000E+01 0.  1.
         -5    1    3    3    0  502 -0.20278556974E+02 -0.31856501051E+02 -0.30945553417E+02  0.49001593938E+02  0.41800000000E+01 0.  1.
        -11    1    1    2    0    0 -0.45617725517E+00 -0.24988391553E+02 -0.71133185914E+02  0.75396007510E+02  0.00000000000E+00 0. -1.
         11    1    1    2    0    0 -0.10208618473E+03  0.48730828939E+02 -0.20764788680E+03  0.23646126045E+03  0.00000000000E+00 0.  1.
</event>
<event>
 7    1  0.2440960E-009  0.1285368E+03  0.7561462E-02  0.1229643E+00
         -1   -1    0    0    0  501 -0.00000000000E+00  0.00000000000E+00  0.16565544342E+03  0.16565544342E+03  0.00000000000E+00 0.  1.
          1   -1    0    0  501    0  0.00000000000E+00 -0.00000000000E+00 -0.11706346369E+03  0.11706346369E+03  0.00000000000E+00 0. -1.
         25    2    1    2    0    0  0.40818786501E+02  0.68037040954E+02 -0.11019700444E+02  0.14853967138E+03  0.12508951956E+03 0.  0.
          5    1    3    3  502    0  0.43001399244E+01 -0.35160128177E+02 -0.15522732417E+02  0.38899272982E+02  0.41800000000E+01 0. -1.
         -5    1    3    3    0  502  0.36518646576E+02  0.10319716913E+03  0.45030319725E+01  0.10964039840E+03  0.41800000000E+01 0. -1.
        -11    1    1    2    0    0 -0.63301408237E+02 -0.61937226263E+02  0.65498595510E+02  0.11015150610E+03  0.00000000000E+00 0.  1.
         11    1    1    2    0    0  0.22482621736E+02 -0.60998146913E+01 -0.58869153366E+01  0.24027729638E+02  0.00000000000E+00 0. -1.
</event>
<event>
 7    1  0.2440960E-009  0.1031479E+03  0.7561462E-02  0.1273812E+00
          1   -1    0    0  501    0  0.00000000000E+00  0.00000000000E+00  0.12523317279E+03  0.12523317279E+03  0.00000000000E+00 0. -1.
         -1   -1    0    0    0  501 -0.00000000000E+00 -0.00000000000E+00 -0.11107200084E+03  0.11107200084E+03  0.00000000000E+00 0.  1.
         25    2    1    2    0    0 -0.15446137862E+02  0.65475406875E+01  0.51998590323E+02  0.13651908254E+03  0.12510856500E+03 0.  0.
          5    1    3    3  502    0 -0.49607100738E+02  0.49758996989E+02  0.35701603993E+02  0.78923375198E+02  0.41800000000E+01 0. -1.
         -5    1    3    3    0  502  0.34160962875E+02 -0.43211456301E+02  0.16296986330E+02  0.57595707337E+02  0.41800000000E+01 0. -1.
        -11    1    1    2    0    0  0.64849751086E+01 -0.42817832054E+02  0.42430673862E+01  0.43513506694E+02  0.00000000000E+00 0. -1.
         11    1    1    2    0    0  0.89611627538E+01  0.36270291366E+02 -0.42080485752E+02  0.56272584398E+02  0.00000000000E+00 0.  1.
</event>
<event>
 7    1  0.2440960E-009  0.1768752E+03  0.7561462E-02  0.1170862E+00
          2   -1    0    0  501    0  0.00000000000E+00  0.00000000000E+00  0.28387997223E+03  0.28387997223E+03  0.00000000000E+00 0. -1.
         -2   -1    0    0    0  501 -0.00000000000E+00 -0.00000000000E+00 -0.15265086327E+03  0.15265086327E+03  0.00000000000E+00 0.  1.
         25    2    1    2    0    0 -0.91893901057E+01  0.16932903706E+03  0.12211354853E+03  0.24354896010E+03  0.12509040550E+03 0.  0.
          5    1    3    3  502    0  0.17844527657E+01  0.82835248366E+02  0.13178980326E+03  0.15572696390E+03  0.41800000000E+01 0. -1.
         -5    1    3    3    0  502 -0.10973842871E+02  0.86493788693E+02 -0.96762547303E+01  0.87821996194E+02  0.41800000000E+01 0. -1.
        -11    1    1    2    0    0  0.39951210474E+02 -0.96789796295E+02 -0.24142516250E+02  0.10745801495E+03  0.00000000000E+00 0. -1.
         11    1    1    2    0    0 -0.30761820368E+02 -0.72539240764E+02  0.33258076676E+02  0.85523860456E+02  0.00000000000E+00 0.  1.
</event>
<event>
 7    1  0.2440960E-009  0.2592170E+03  0.7561462E-02  0.1107615E+00
          1   -1    0    0  501    0  0.00000000000E+00  0.00000000000E+00  0.11499836003E+04  0.11499836003E+04  0.00000000000E+00 0. -1.
         -1   -1    0    0    0  501 -0.00000000000E+00 -0.00000000000E+00 -0.59289626131E+02  0.59289626131E+02  0.00000000000E+00 0.  1.
         25    2    1    2    0    0 -0.22597735006E+03 -0.72021754463E+02  0.55535813302E+03  0.61670290819E+03  0.12508767007E+03 0.  0.
          5    1    3    3  502    0 -0.14275955894E+03  0.17975548917E+02  0.33258396533E+03  0.36239892166E+03  0.41800000000E+01 0.  1.
         -5    1    3    3    0  502 -0.83217791122E+02 -0.89997303380E+02  0.22277416769E+03  0.25430398653E+03  0.41800000000E+01 0.  1.
        -11    1    1    2    0    0  0.18354097414E+03  0.19883898635E+02  0.42504067919E+03  0.46340288905E+03  0.00000000000E+00 0. -1.
         11    1    1    2    0    0  0.42436375926E+02  0.52137855828E+02  0.11029516197E+03  0.12916742920E+03  0.00000000000E+00 0.  1.
</event>
<event>
 7    1  0.2440960E-009  0.1733221E+03  0.7561462E-02  0.1174427E+00
         -4   -1    0    0    0  501 -0.00000000000E+00  0.00000000000E+00  0.97814065530E+02  0.97814065530E+02  0.00000000000E+00 0.  1.
          4   -1    0    0  501    0  0.00000000000E+00 -0.00000000000E+00 -0.41183480623E+03  0.41183480623E+03  0.00000000000E+00 0. -1.
         25    2    1    2    0    0 -0.10648451767E+03  0.92125720746E+02 -0.27975345306E+03  0.33724712589E+03  0.12509008151E+03 0.  0.
          5    1    3    3  502    0 -0.82182398172E+01  0.88602249967E+02 -0.14891343903E+03  0.17352401243E+03  0.41800000000E+01 0.  1.
         -5    1    3    3    0  502 -0.98266277855E+02  0.35234707790E+01 -0.13084001403E+03  0.16372311346E+03  0.41800000000E+01 0.  1.
        -11    1    1    2    0    0  0.46878882843E+02 -0.87616449361E+02 -0.49063277722E+02  0.11082182581E+03  0.00000000000E+00 0.  1.
         11    1    1    2    0    0  0.59605634830E+02 -0.45092713846E+01  0.14795990085E+02  0.61579920059E+02  0.00000000000E+00 0. -1.
</event>
<event>
 7    1  0.2440960E-009  0.1112780E+03  0.7561462E-02  0.1258221E+00
          2   -1    0    0  501    0  0.00000000000E+00  0.00000000000E+00  0.16648209780E+04  0.16648209780E+04  0.00000000000E+00 0.  1.
         -2   -1    0    0    0  501 -0.00000000000E+00 -0.00000000000E+00 -0.85448907729E+01  0.85448907729E+01  0.00000000000E+00 0. -1.
         25    2    1    2    0    0  0.27804553728E+02  0.13407212508E+02  0.11964696143E+04  0.12033855183E+04  0.12507726110E+03 0.  0.
          5    1    3    3  502    0 -0.44025099493E+02 -0.17025878788E+02  0.59098883589E+03  0.59288562681E+03  0.41800000000E+01 0. -1.
         -5    1    3    3    0  502  0.71829653221E+02  0.30433091296E+02  0.60548077839E+03  0.61049989150E+03  0.41800000000E+01 0. -1.
        -11    1    1    2    0    0  0.97539135986E+01  0.34682174529E+02  0.18602589300E+03  0.18948251879E+03  0.00000000000E+00 0.  1.
         11    1    1    2    0    0 -0.37558467327E+02 -0.48089387037E+02  0.27378057998E+03  0.28049783170E+03  0.00000000000E+00 0. -1.
</event>
<event>
 7    1  0.2440960E-009  0.8650360E+02  0.7561462E-02  0.1311547E+00
          1   -1    0    0  501    0  0.00000000000E+00  0.00000000000E+00  0.52131615401E+03  0.52131615401E+03  0.00000000000E+00 0. -1.
         -1   -1    0    0    0  501 -0.00000000000E+00 -0.00000000000E+00 -0.32922752061E+02  0.32922752061E+02  0.00000000000E+00 0.  1.
         25    2    1    2    0    0 -0.55391041949E+02 -0.22004162084E+02  0.18142431999E+03  0.22828582514E+03  0.12508910184E+03 0.  0.
          5    1    3    3  502    0 -0.54388726083E+02 -0.26627437229E+02  0.16044771137E+02  0.62785834542E+02  0.41800000000E+01 0.  1.
         -5    1    3    3    0  502 -0.10023158653E+01  0.46232751449E+01  0.16537954885E+03  0.16549999060E+03  0.41800000000E+01 0.  1.
        -11    1    1    2    0    0  0.35330175519E+02 -0.32444026326E+02  0.18123577522E+03  0.18747597810E+03  0.00000000000E+00 0.  1.
         11    1    1    2    0    0  0.20060866429E+02  0.54448188410E+02  0.12573330674E+03  0.13847710283E+03  0.00000000000E+00 0. -1.
</event>
<event>
 7    1  0.2440960E-009  0.9951973E+02  0.7561462E-02  0.1281309E+00
         -2   -1    0    0    0  501 -0.00000000000E+00  0.00000000000E+00  0.42802507651E+02  0.42802507651E+02  0.00000000000E+00 0.  1.
          2   -1    0    0  501    0  0.00000000000E+00 -0.00000000000E+00 -0.39352602006E+03  0.39352602006E+03  0.00000000000E+00 0. -1.
         25    2    1    2    0    0 -0.47811792233E+01  0.11355269227E+02 -0.76360930168E+02  0.14707198241E+03  0.12508946614E+03 0.  0.
          5    1    3    3  502    0  0.21902095391E+01  0.67613320970E+02 -0.51033066953E+02  0.84842233074E+02  0.41800000000E+01 0.  1.
         -5    1    3    3    0  502 -0.69713887624E+01 -0.56258051742E+02 -0.25327863215E+02  0.62229749334E+02  0.41800000000E+01 0.  1.
        -11    1    1    2    0    0 -0.30698383487E+02 -0.21546426013E+02 -0.22226187316E+03  0.22540403609E+03  0.00000000000E+00 0. -1.
         11    1    1    2    0    0  0.35479562711E+02  0.10191156786E+02 -0.52100709077E+02  0.63852509215E+02  0.00000000000E+00 0.  1.
</event>
<event>
 7    1  0.2440960E-009  0.8278647E+02  0.7561462E-02  0.1321325E+00
         -2   -1    0    0    0  501 -0.00000000000E+00  0.00000000000E+00  0.83598313263E+02  0.83598313263E+02  0.00000000000E+00 0.  1.
          2   -1    0    0  501    0  0.00000000000E+00 -0.00000000000E+00 -0.15423671369E+03  0.15423671369E+03  0.00000000000E+00 0. -1.
         25    2    1    2    0    0 -0.18848256812E+01 -0.26656767886E+02 -0.64052081435E+02  0.14305252265E+03  0.12508884545E+03 0.  0.
          5    1    3    3  502    0  0.35119496544E+02  0.26975071341E+02 -0.63780568037E+02  0.77759030154E+02  0.41800000000E+01 0.  1.
         -5    1    3    3    0  502 -0.37004322225E+02 -0.53631839228E+02 -0.27151339794E+00  0.65293492492E+02  0.41800000000E+01 0.  1.
        -11    1    1    2    0    0 -0.20891997302E+02  0.25538556692E+02  0.34533550448E+02  0.47762532761E+02  0.00000000000E+00 0.  1.
         11    1    1    2    0    0  0.22776822984E+02  0.11182111945E+01 -0.41119869437E+02  0.47019971544E+02  0.00000000000E+00 0. -1.
</event>
<event>
 7    1  0.2440960E-009  0.1012167E+03  0.7561462E-02  0.1277758E+00
         -1   -1    0    0    0  501 -0.00000000000E+00  0.00000000000E+00  0.10302776641E+03  0.10302776641E+03  0.00000000000E+00 0.  1.
          1   -1    0    0  501    0  0.00000000000E+00 -0.00000000000E+00 -0.14028625526E+03  0.14028625526E+03  0.00000000000E+00 0. -1.
         25    2    1    2    0    0  0.49751243557E+02  0.30758687373E+01 -0.35989774403E+02  0.13938525306E+03  0.12509331599E+03 0.  0.
          5    1    3    3  502    0  0.69523603326E+02 -0.15412904758E+02  0.22500931661E+02  0.74798752518E+02  0.41800000000E+01 0.  1.
         -5    1    3    3    0  502 -0.19772359769E+02  0.18488773496E+02 -0.58490706064E+02  0.64586500540E+02  0.41800000000E+01 0.  1.
        -11    1    1    2    0    0 -0.42959310293E+02  0.40837866909E+02 -0.40130565084E+01  0.59408234590E+02  0.00000000000E+00 0. -1.
         11    1    1    2    0    0 -0.67919332639E+01 -0.43913735647E+02  0.27443420568E+01  0.44520534018E+02  0.00000000000E+00 0.  1.
</event>
<event>
 7    1  0.2440960E-009  0.8571553E+02  0.7561462E-02  0.1313572E+00
          3   -1    0    0  501    0  0.00000000000E+00  0.00000000000E+00  0.58088730696E+03  0.58088730696E+03  0.00000000000E+00 0. -1.
         -3   -1    0    0    0  501 -0.00000000000E+00 -0.00000000000E+00 -0.32681741220E+02  0.32681741220E+02  0.00000000000E+00 0.  1.
         25    2    1    2    0    0  0.41290978794E+02  0.46801456146E+02  0.43229994571E+03  0.45434185246E+03  0.12509178473E+03 0.  0.
          5    1    3    3  502    0  0.54030035794E+02  0.31331463982E+02  0.42907619004E+03  0.43361821302E+03  0.41800000000E+01 0.  1.
         -5    1    3    3    0  502 -0.12739057001E+02  0.15469992164E+02  0.32237556670E+01  0.20723639435E+02  0.41800000000E+01 0.  1.
        -11    1    1    2    0    0 -0.32029227297E+02  0.78131250485E+01  0.94078066481E+02  0.99687506324E+02  0.00000000000E+00 0. -1.
         11    1    1    2    0    0 -0.92617514964E+01 -0.54614581195E+02  0.21827553552E+02  0.59539689401E+02  0.00000000000E+00 0.  1.
</event>
<event>
 7    1  0.2440960E-009  0.1054645E+03  0.7561462E-02  0.1269207E+00
         -1   -1    0    0    0  501 -0.00000000000E+00  0.00000000000E+00  0.30074959028E+02  0.30074959028E+02  0.00000000000E+00 0.  1.
          1   -1    0    0  501    0  0.00000000000E+00 -0.00000000000E+00 -0.76831611689E+03  0.76831611689E+03  0.00000000000E+00 0. -1.
         25    2    1    2    0    0 -0.52447792701E+02  0.75624916838E+02 -0.57419459779E+03  0.59482488581E+03  0.12508920674E+03 0.  0.
          5    1    3    3  502    0 -0.85705464878E+01  0.96750212329E+01  0.15221284700E+01  0.13669293253E+02  0.41800000000E+01 0. -1.
         -5    1    3    3    0  502 -0.43877246213E+02  0.65949895605E+02 -0.57571672626E+03  0.58115559255E+03  0.41800000000E+01 0. -1.
        -11    1    1    2    0    0  0.70331421085E+02 -0.48131449293E+02 -0.13556209708E+03  0.16012566118E+03  0.00000000000E+00 0. -1.
         11    1    1    2    0    0 -0.17883628384E+02 -0.27493467545E+02 -0.28484462994E+02  0.43440528933E+02  0.00000000000E+00 0.  1.
</event>
<event>
 7    1  0.2440960E-009  0.1028906E+03  0.7561462E-02  0.1274332E+00
          2   -1    0    0  501    0  0.00000000000E+00  0.00000000000E+00  0.29657044069E+03  0.29657044069E+03  0.00000000000E+00 0.  1.
         -2   -1    0    0    0  501 -0.00000000000E+00 -0.00000000000E+00 -0.59591130744E+02  0.59591130744E+02  0.00000000000E+00 0. -1.
         25    2    1    2    0    0 -0.59169998481E+02  0.25153681015E+02  0.19073895405E+03  0.23698704389E+03  0.12509082296E+03 0.  0.
          5    1    3    3  502    0 -0.79711750802E+02 -0.35587178758E+01  0.18427777033E+03  0.20085416781E+03  0.41800000000E+01 0. -1.
         -5    1    3    3    0  502  0.20541752321E+02  0.28712398891E+02  0.64611837168E+01  0.36132876076E+02  0.41800000000E+01 0. -1.
        -11    1    1    2    0    0  0.64541478572E+02 -0.39047527182E+02  0.53134338400E+01  0.75621058010E+02  0.00000000000E+00 0. -1.
         11    1    1    2    0    0 -0.53714800916E+01  0.13893846167E+02  0.40926922063E+02  0.43553469543E+02  0.00000000000E+00 0.  1.
</event>
<event>
 7    1  0.2440960E-009  0.1080472E+03  0.7561462E-02  0.1264230E+00
         -2   -1    0    0    0  501 -0.00000000000E+00  0.00000000000E+00  0.48267046760E+02  0.48267046760E+02  0.00000000000E+00 0.  1.
          2   -1    0    0  501    0  0.00000000000E+00 -0.00000000000E+00 -0.43347027680E+03  0.43347027680E+03  0.00000000000E+00 0. -1.
         25    2    1    2    0    0  0.28701833160E+02 -0.77885808741E+02 -0.28268999312E+03  0.32007947045E+03  0.12508893144E+03 0.  0.
          5    1    3    3  502    0 -0.66600998146E+01 -0.60462599880E+02 -0.27237679704E+03  0.27911767211E+03  0.41800000000E+01 0.  1.
         -5    1    3    3    0  502  0.35361932975E+02 -0.17423208860E+02 -0.10313196072E+02  0.40961798348E+02  0.41800000000E+01 0.  1.
        -11    1    1    2    0    0  0.23943597846E+02  0.51057915345E+02 -0.19308308640E+02  0.59607192349E+02  0.00000000000E+00 0.  1.
         11    1    1    2    0    0 -0.52645431006E+02  0.26827893395E+02 -0.83204928280E+02  0.10205066075E+03  0.00000000000E+00 0. -1.
</event>
<event>
 7    1  0.2576893E-009  0.1076671E+03  0.7561462E-02  0.1264952E+00
         -2   -1    0    0    0  501 -0.00000000000E+00  0.00000000000E+00  0.86754345890E+02  0.86754345890E+02  0.00000000000E+00 0.  1.
          2   -1    0    0  501    0  0.00000000000E+00 -0.00000000000E+00 -0.22982021628E+03  0.22982021628E+03  0.00000000000E+00 0. -1.
         25    2    1    2    0    0 -0.17142497208E+02  0.83308145526E+02 -0.45573763905E+02  0.15798819601E+03  0.12509672178E+03 0.  0.
          5    1    3    3  502    0  0.23016762317E+02  0.70476339463E+02 -0.75670606885E+02  0.10601980437E+03  0.41800000000E+01 0.  1.
         -5    1    3    3    0  502 -0.40159259525E+02  0.12831806063E+02  0.30096842980E+02  0.51968391641E+02  0.41800000000E+01 0.  1.
        -11    1    1    2    0    0 -0.17607102406E+02 -0.35280239612E+02 -0.90722148869E+02  0.98920238868E+02  0.00000000000E+00 0. -1.
         11    1    1    2    0    0  0.34749599614E+02 -0.48027905914E+02 -0.67699576121E+01  0.59666127291E+02  0.00000000000E+00 0.  1.
</event>
<event>
 7    1  0.2440960E-009  0.1333717E+03  0.7561462E-02  0.1222537E+00
         -4   -1    0    0    0  501 -0.00000000000E+00  0.00000000000E+00  0.38495725824E+03  0.38495725824E+03  0.00000000000E+00 0. -1.
          4   -1    0    0  501    0  0.00000000000E+00 -0.00000000000E+00 -0.61885147158E+02  0.61885147158E+02  0.00000000000E+00 0.  1.
         25    2    1    2    0    0  0.90924442113E+02 -0.55247944055E+02  0.21819203326E+03  0.27308420307E+03  0.12509048362E+03 0.  0.
          5    1    3    3  502    0  0.66598055010E+02 -0.85007638750E+02  0.94734281486E+02  0.14371379915E+03  0.41800000000E+01 0.  1.
         -5    1    3    3    0  502  0.24326387102E+02  0.29759694695E+02  0.12345775177E+03  0.12937040392E+03  0.41800000000E+01 0.  1.
        -11    1    1    2    0    0 -0.55414009487E+02  0.62750238382E+02  0.10877002814E+03  0.13725605227E+03  0.00000000000E+00 0. -1.
         11    1    1    2    0    0 -0.35510432626E+02 -0.75022943273E+01 -0.38899503135E+01  0.36502150059E+02  0.00000000000E+00 0.  1.
</event>
<event>
 7    1  0.2440960E-009  0.1670635E+03  0.7561462E-02  0.1180945E+00
         -2   -1    0    0    0  501 -0.00000000000E+00  0.00000000000E+00  0.27915734774E+02  0.27915734774E+02  0.00000000000E+00 0.  1.
          2   -1    0    0  501    0  0.00000000000E+00 -0.00000000000E+00 -0.10155931977E+04  0.10155931977E+04  0.00000000000E+00 0. -1.
         25    2    1    2    0    0 -0.45852648108E+02 -0.11911564937E+03 -0.49270371588E+03  0.52411393973E+03  0.12508983538E+03 0.  0.
          5    1    3    3  502    0  0.14035148008E+02 -0.11585352421E+03 -0.35899421053E+03  0.37750939067E+03  0.41800000000E+01 0. -1.
         -5    1    3    3    0  502 -0.59887796116E+02 -0.32621251618E+01 -0.13370950535E+03  0.14660454906E+03  0.41800000000E+01 0. -1.
        -11    1    1    2    0    0 -0.24582041843E+02  0.61502943740E+02 -0.19695239396E+03  0.20779108344E+03  0.00000000000E+00 0.  1.
         11    1    1    2    0    0  0.70434689952E+02  0.57612705628E+02 -0.29802135306E+03  0.31160390928E+03  0.00000000000E+00 0. -1.
</event>
<event>
 7    1  0.2440960E-009  0.1231263E+03  0.7561462E-02  0.1238027E+00
         -1   -1    0    0    0  501 -0.00000000000E+00  0.00000000000E+00  0.10011278766E+03  0.10011278766E+03  0.00000000000E+00 0.  1.
          1   -1    0    0  501    0  0.00000000000E+00 -0.00000000000E+00 -0.19769835995E+03  0.19769835995E+03  0.00000000000E+00 0. -1.
         25    2    1    2    0    0  0.23786095723E+02 -0.81307928466E+02 -0.17281617839E+02  0.15206375458E+03  0.12509186049E+03 0.  0.
          5    1    3    3  502    0  0.51952319273E+02 -0.98966175278E+02 -0.30672892614E+02  0.11598123153E+03  0.41800000000E+01 0. -1.
         -5    1    3    3    0  502 -0.28166223550E+02  0.17658246811E+02  0.13391274776E+02  0.36082523050E+02  0.41800000000E+01 0. -1.
        -11    1    1    2    0    0 -0.30913163308E+02  0.15279194348E+02  0.78611468623E+01  0.35367712333E+02  0.00000000000E+00 0.  1.
         11    1    1    2    0    0  0.71270675852E+01  0.66028734118E+02 -0.88165101312E+02  0.11037968070E+03  0.00000000000E+00 0. -1.
</event>
<event>
 7    1  0.2440960E-009  0.1253328E+03  0.7561462E-02  0.1234550E+00
         -2   -1    0    0    0  501 -0.00000000000E+00  0.00000000000E+00  0.15354974754E+03  0.15354974754E+03  0.00000000000E+00 0.  1.
          2   -1    0    0  501    0  0.00000000000E+00 -0.00000000000E+00 -0.31858281560E+03  0.31858281560E+03  0.00000000000E+00 0. -1.
         25    2    1    2    0    0 -0.22624793025E+02 -0.97396076047E+02 -0.26317323763E+03  0.30807068930E+03  0.12509804042E+03 0.  0.
          5    1    3    3  502    0  0.78160308374E+01 -0.86223534589E+02 -0.67973920909E+02  0.11015223365E+03  0.41800000000E+01 0.  1.
         -5    1    3    3    0  502 -0.30440823862E+02 -0.11172541458E+02 -0.19519931672E+03  0.19791845565E+03  0.41800000000E+01 0.  1.
        -11    1    1    2    0    0 -0.28577234638E+02  0.64195601401E+02  0.48250330847E+02  0.85239826406E+02  0.00000000000E+00 0.  1.
         11    1    1    2    0    0  0.51202027663E+02  0.33200474646E+02  0.49889838723E+02  0.78822047432E+02  0.00000000000E+00 0. -1.
</event>
<event>
 7    1  0.2440960E-009  0.1720850E+03  0.7561462E-02  0.1175691E+00
          2   -1    0    0  501    0  0.00000000000E+00  0.00000000000E+00  0.23602679823E+04  0.23602679823E+04  0.00000000000E+00 0.  1.
         -2   -1    0    0    0  501 -0.00000000000E+00 -0.00000000000E+00 -0.29771579811E+02  0.29771579811E+02  0.00000000000E+00 0. -1.
         25    2    1    2    0    0  0.11917867127E+03  0.92569837143E+02  0.20490523346E+04  0.20584060988E+04  0.12508983684E+03 0.  0.
          5    1    3    3  502    0 -0.67329975341E+01 -0.21566616559E+02  0.38738866241E+03  0.38806945302E+03  0.41800000000E+01 0.  1.
         -5    1    3    3    0  502  0.12591166881E+03  0.11413645370E+03  0.16616636721E+04  0.16703366458E+04  0.41800000000E+01 0.  1.
        -11    1    1    2    0    0 -0.39315267581E+02 -0.36220092191E+02  0.19144374888E+03  0.19876693470E+03  0.00000000000E+00 0.  1.
         11    1    1    2    0    0 -0.79863403693E+02 -0.56349744952E+02  0.90000319075E+02  0.13286652866E+03  0.00000000000E+00 0. -1.
</event>
<event>
 7    1  0.2440960E-009  0.9587146E+02  0.7561462E-02  0.1289225E+00
         -1   -1    0    0    0  501 -0.00000000000E+00  0.00000000000E+00  0.12139794109E+03  0.12139794109E+03  0.00000000000E+00 0.  1.
          1   -1    0    0  501    0  0.00000000000E+00 -0.00000000000E+00 -0.12896562498E+03  0.12896562498E+03  0.00000000000E+00 0. -1.
         25    2    1    2    0    0 -0.17386987036E+02 -0.63619214373E+01 -0.72810086854E+02  0.14592033143E+03  0.12509457628E+03 0.  0.
          5    1    3    3  502    0 -0.52085878303E+02 -0.47987603421E+02 -0.31365149099E+02  0.77569283732E+02  0.41800000000E+01 0. -1.
         -5    1    3    3    0  502  0.34698891267E+02  0.41625681984E+02 -0.41444937755E+02  0.68351047697E+02  0.41800000000E+01 0. -1.
        -11    1    1    2    0    0  0.11116934304E+02 -0.28725733183E+02  0.61273021344E+02  0.68579421985E+02  0.00000000000E+00 0.  1.
         11    1    1    2    0    0  0.62700527317E+01  0.35087654620E+02  0.39693816147E+01  0.35863812659E+02  0.00000000000E+00 0. -1.
</event>
<event>
 7    1  0.3721833E-009  0.1313114E+03  0.7561462E-02  0.1225523E+00
          1   -1    0    0  501    0  0.00000000000E+00  0.00000000000E+00  0.46408225123E+03  0.46408225123E+03  0.00000000000E+00 0. -1.
         -1   -1    0    0    0  501 -0.00000000000E+00 -0.00000000000E+00 -0.59807228285E+02  0.59807228285E+02  0.00000000000E+00 0.  1.
         25    2    1    2    0    0  0.15414633394E+02 -0.12232746960E+03  0.17263505924E+03  0.24627769776E+03  0.12509284549E+03 0.  0.
          5    1    3    3  502    0  0.21023246297E+02 -0.65268068884E+01  0.11420522032E+03  0.11638247652E+03  0.41800000000E+01 0.  1.
         -5    1    3    3    0  502 -0.56086129033E+01 -0.11580066272E+03  0.58429838922E+02  0.12989522124E+03  0.41800000000E+01 0.  1.
        -11    1    1    2    0    0 -0.16118036215E+02  0.68430260142E+02  0.45302811315E+02  0.83635137996E+02  0.00000000000E+00 0.  1.
         11    1    1    2    0    0  0.70340282086E+00  0.53897209463E+02  0.18633715239E+03  0.19397664376E+03  0.00000000000E+00 0. -1.
</event>
<event>
 7    1  0.2440960E-009  0.1029136E+03  0.7561462E-02  0.1274286E+00
          2   -1    0    0  501    0  0.00000000000E+00  0.00000000000E+00  0.18277265906E+04  0.18277265906E+04  0.00000000000E+00 0. -1.
         -2   -1    0    0    0  501 -0.00000000000E+00 -0.00000000000E+00 -0.23023577662E+02  0.23023577662E+02  0.00000000000E+00 0.  1.
         25    2    1    2    0    0  0.23063965163E+02  0.56471965895E+02  0.16748759943E+04  0.16806479154E+04  0.12508712875E+03 0.  0.
          5    1    3    3  502    0 -0.49649570409E+02  0.53870239355E+01  0.57484416387E+03  0.57702459653E+03  0.41800000000E+01 0. -1.
         -5    1    3    3    0  502  0.72713535573E+02  0.51084941959E+02  0.11000318305E+04  0.11036233189E+04  0.41800000000E+01 0. -1.
        -11    1    1    2    0    0  0.59756897528E+01 -0.14757878942E+02 -0.11678338567E+02  0.19745567872E+02  0.00000000000E+00 0.  1.
         11    1    1    2    0    0 -0.29039654916E+02 -0.41714086952E+02  0.14150535718E+03  0.15035668498E+03  0.00000000000E+00 0. -1.
</event>
<event>
 7    1  0.2440960E-009  0.1046293E+03  0.7561462E-02  0.1270852E+00
          3   -1    0    0  501    0  0.00000000000E+00  0.00000000000E+00  0.87959105901E+03  0.87959105901E+03  0.00000000000E+00 0. -1.
         -3   -1    0    0    0  501 -0.00000000000E+00 -0.00000000000E+00 -0.18658045207E+02  0.18658045207E+02  0.00000000000E+00 0.  1.
         25    2    1    2    0    0  0.17306251823E+02 -0.45036257846E+02  0.71296409886E+03  0.72546102955E+03  0.12509247885E+03 0.  0.
          5    1    3    3  502    0 -0.36598890481E+02  0.21539893950E+02  0.34527423844E+03  0.34790116117E+03  0.41800000000E+01 0.  1.
         -5    1    3    3    0  502  0.53905142304E+02 -0.66576151795E+02  0.36768986042E+03  0.37755986838E+03  0.41800000000E+01 0.  1.
        -11    1    1    2    0    0 -0.42076513167E+02  0.24843609272E+02  0.12262024900E+03  0.13199758841E+03  0.00000000000E+00 0. -1.
         11    1    1    2    0    0  0.24770261344E+02  0.20192648573E+02  0.25348665941E+02  0.40790486249E+02  0.00000000000E+00 0.  1.
</event>
<event>
 7    1  0.2440960E-009  0.4954827E+02  0.7561462E-02  0.1447793E+00
          2   -1    0    0  501    0  0.00000000000E+00  0.00000000000E+00  0.83838264710E+02  0.83838264710E+02  0.00000000000E+00 0. -1.
         -2   -1    0    0    0  501 -0.00000000000E+00 -0.00000000000E+00 -0.15707571393E+03  0.15707571393E+03  0.00000000000E+00 0.  1.
         25    2    1    2    0    0 -0.66563037680E+01  0.57891181422E+00 -0.26204600685E+01  0.12529380564E+03  0.12508808657E+03 0.  0.
          5    1    3    3  502    0 -0.33576324506E+02 -0.35183918437E+01 -0.55828886974E+02  0.65376491717E+02  0.41800000000E+01 0.  1.
         -5    1    3    3    0  502  0.26920020738E+02  0.40973036580E+01  0.53208426906E+02  0.59917313922E+02  0.41800000000E+01 0.  1.
        -11    1    1    2    0    0 -0.52988739010E+01  0.16133451225E+02 -0.87433860087E+02  0.89067649586E+02  0.00000000000E+00 0.  1.
         11    1    1    2    0    0  0.11955177669E+02 -0.16712363039E+02  0.16816870938E+02  0.26552523413E+02  0.00000000000E+00 0. -1.
</event>
<event>
 7    1  0.2440960E-009  0.1397546E+03  0.7561462E-02  0.1213660E+00
          2   -1    0    0  501    0  0.00000000000E+00  0.00000000000E+00  0.66160233181E+03  0.66160233181E+03  0.00000000000E+00 0. -1.
         -2   -1    0    0    0  501 -0.00000000000E+00 -0.00000000000E+00 -0.42506430013E+02  0.42506430013E+02  0.00000000000E+00 0.  1.
         25    2    1    2    0    0  0.47599670354E+02  0.11496621187E+03  0.27460673895E+03  0.32640405149E+03  0.12509110785E+03 0.  0.
          5    1    3    3  502    0  0.14126959191E+02  0.26826803343E+02 -0.52591742016E+01  0.31054462914E+02  0.41800000000E+01 0. -1.
         -5    1    3    3    0  502  0.33472711163E+02  0.88139408525E+02  0.27986591315E+03  0.29534958857E+03  0.41800000000E+01 0. -1.
        -11    1    1    2    0    0 -0.74963609005E+02 -0.92923716428E+02  0.27640164013E+03  0.30108508169E+03  0.00000000000E+00 0.  1.
         11    1    1    2    0    0  0.27363938650E+02 -0.22042495441E+02  0.68087522720E+02  0.76619628646E+02  0.00000000000E+00 0. -1.
</event>
<event>
 7    1  0.2440960E-009  0.1081791E+03  0.7561462E-02  0.1263979E+00
          1   -1    0    0  501    0  0.00000000000E+00  0.00000000000E+00  0.48755141285E+02  0.48755141285E+02  0.00000000000E+00 0. -1.
         -1   -1    0    0    0  501 -0.00000000000E+00 -0.00000000000E+00 -0.32672498788E+03  0.32672498788E+03  0.00000000000E+00 0.  1.
         25    2    1    2    0    0 -0.19108540968E+02 -0.42493192518E+02 -0.17941124443E+03  0.22362463398E+03  0.12509506204E+03 0.  0.
          5    1    3    3  502    0  0.32228388153E+02  0.24336910673E+01 -0.14203329952E+03  0.14572413125E+03  0.41800000000E+01 0.  1.
         -5    1    3    3    0  502 -0.51336929121E+02 -0.44926883585E+02 -0.37377944910E+02  0.77900502732E+02  0.41800000000E+01 0.  1.
        -11    1    1    2    0    0 -0.12099504585E+02 -0.32239026810E+02 -0.26482216592E+02  0.43440311423E+02  0.00000000000E+00 0. -1.
         11    1    1    2    0    0  0.31208045554E+02  0.74732219328E+02 -0.72076385573E+02  0.10841518376E+03  0.00000000000E+00 0.  1.
</event>
<event>
 7    1  0.2440960E-009  0.1248314E+03  0.7561462E-02  0.1235333E+00
         -2   -1    0    0    0  501 -0.00000000000E+00  0.00000000000E+00  0.28261576164E+02  0.28261576164E+02  0.00000000000E+00 0. -1.
          2   -1    0    0  501    0  0.00000000000E+00 -0.00000000000E+00 -0.90061899347E+03  0.90061899347E+03  0.00000000000E+00 0.  1.
         25    2    1    2    0    0 -0.40473570907E+02  0.10860566889E+03 -0.50974109902E+03  0.53750958937E+03  0.12508904579E+03 0.  0.
          5    1    3    3  502    0 -0.27505775741E+02  0.98882994846E+02 -0.17926841613E+03  0.20661329045E+03  0.41800000000E+01 0.  1.
         -5    1    3    3    0  502 -0.12967795167E+02  0.97226740393E+01 -0.33047268289E+03  0.33089629891E+03  0.41800000000E+01 0.  1.
        -11    1    1    2    0    0 -0.13563356949E+02 -0.43647696868E+02 -0.50918523155E+02  0.68423549263E+02  0.00000000000E+00 0. -1.
         11    1    1    2    0    0  0.54036927856E+02 -0.64957972018E+02 -0.31169779513E+03  0.32294743100E+03  0.00000000000E+00 0.  1.
</event>
<event>
 7    1  0.2440960E-009  0.1718168E+03  0.7561462E-02  0.1175966E+00
          1   -1    0    0  501    0  0.00000000000E+00  0.00000000000E+00  0.87022344686E+03  0.87022344686E+03  0.00000000000E+00 0. -1.
         -1   -1    0    0    0  501 -0.00000000000E+00 -0.00000000000E+00 -0.51256375737E+02  0.51256375737E+02  0.00000000000E+00 0.  1.
         25    2    1    2    0    0 -0.24395094022E+02 -0.13284483119E+03  0.16374950972E+03  0.24637312551E+03  0.12507176042E+03 0.  0.
          5    1    3    3  502    0  0.49430347113E+02 -0.32041410874E+02  0.51334290563E+02  0.78247639032E+02  0.41800000000E+01 0.  1.
         -5    1    3    3    0  502 -0.73825441135E+02 -0.10080342032E+03  0.11241521916E+03  0.16812548648E+03  0.41800000000E+01 0.  1.
        -11    1    1    2    0    0 -0.31819923745E+02  0.55015329579E+02  0.19922911807E+03  0.20912062434E+03  0.00000000000E+00 0. -1.
         11    1    1    2    0    0  0.56215017767E+02  0.77829501610E+02  0.45598844332E+03  0.46598607274E+03  0.00000000000E+00 0.  1.
</event>
<event>
 7    1  0.2440960E-009  0.1138041E+03  0.7561462E-02  0.1253683E+00
          2   -1    0    0  501    0  0.00000000000E+00  0.00000000000E+00  0.59043786951E+03  0.59043786951E+03  0.00000000000E+00 0. -1.
         -2   -1    0    0    0  501 -0.00000000000E+00 -0.00000000000E+00 -0.24089212129E+02  0.24089212129E+02  0.00000000000E+00 0.  1.
         25    2    1    2    0    0  0.38729619349E+02  0.27058582982E+02  0.34476186519E+03  0.36978479492E+03  0.12509156860E+03 0.  0.
          5    1    3    3  502    0  0.77745831165E+02  0.45500337980E+02  0.22365868873E+03  0.24115425865E+03  0.41800000000E+01 0.  1.
         -5    1    3    3    0  502 -0.39016211816E+02 -0.18441754998E+02  0.12110317646E+03  0.12863053627E+03  0.41800000000E+01 0.  1.
        -11    1    1    2    0    0 -0.49140593240E+02 -0.49242412286E+02  0.20112797904E+03  0.21281935303E+03  0.00000000000E+00 0. -1.
         11    1    1    2    0    0  0.10410973891E+02  0.22183829304E+02  0.20458813152E+02  0.31922933693E+02  0.00000000000E+00 0.  1.
</event>
<event>
 7    1  0.2440960E-009  0.9442218E+02  0.7561462E-02  0.1292483E+00
         -1   -1    0    0    0  501 -0.00000000000E+00  0.00000000000E+00  0.12152530909E+03  0.12152530909E+03  0.00000000000E+00 0.  1.
          1   -1    0    0  501    0  0.00000000000E+00 -0.00000000000E+00 -0.16505988447E+03  0.16505988447E+03  0.00000000000E+00 0. -1.
         25    2    1    2    0    0  0.68506953611E+02 -0.14116161311E+02 -0.82780857882E+02  0.16550671113E+03  0.12508929728E+03 0.  0.
          5    1    3    3  502    0  0.90976963211E+02 -0.50453098595E+01 -0.10010434486E+03  0.13542752766E+03  0.41800000000E+01 0. -1.
         -5    1    3    3    0  502 -0.22470009600E+02 -0.90708514519E+01  0.17323486981E+02  0.30079183477E+02  0.41800000000E+01 0. -1.
        -11    1    1    2    0    0 -0.25855809687E+02  0.15900278769E+02  0.64637278563E+02  0.71409519950E+02  0.00000000000E+00 0.  1.
         11    1    1    2    0    0 -0.42651143924E+02 -0.17841174575E+01 -0.25390996056E+02  0.49668962480E+02  0.00000000000E+00 0. -1.
</event>
<event>
 7    1  0.2440960E-009  0.7703346E+02  0.7561462E-02  0.1337687E+00
         -1   -1    0    0    0  501 -0.00000000000E+00  0.00000000000E+00  0.49343019063E+03  0.49343019063E+03  0.00000000000E+00 0.  1.
          1   -1    0    0  501    0  0.00000000000E+00 -0.00000000000E+00 -0.38059888715E+02  0.38059888715E+02  0.00000000000E+00 0. -1.
         25    2    1    2    0    0  0.70312646848E+02  0.16430363011E+02  0.33233986377E+03  0.36236838461E+03  0.12508891227E+03 0.  0.
          5    1    3    3  502    0  0.67079467771E+02  0.16687017169E+02  0.65001842230E+02  0.94978015518E+02  0.41800000000E+01 0. -1.
         -5    1    3    3    0  502  0.32331790774E+01 -0.25665415842E+00  0.26733802154E+03  0.26739036909E+03  0.41800000000E+01 0. -1.
        -11    1    1    2    0    0 -0.62611006930E+02 -0.13876381354E+01  0.13472552861E+03  0.14856995588E+03  0.00000000000E+00 0.  1.
         11    1    1    2    0    0 -0.77016399180E+01 -0.15042724876E+02 -0.11695090474E+02  0.20551738863E+02  0.00000000000E+00 0. -1.
</event>
<event>
 7    1  0.2440960E-009  0.1045718E+03  0.7561462E-02  0.1270966E+00
         -2   -1    0    0    0  501 -0.00000000000E+00  0.00000000000E+00  0.38503155980E+03  0.38503155980E+03  0.00000000000E+00 0.  1.
          2   -1    0    0  501    0  0.00000000000E+00 -0.00000000000E+00 -0.30878099341E+02  0.30878099341E+02  0.00000000000E+00 0. -1.
         25    2    1    2    0    0 -0.11075779476E+02  0.38103491168E+01  0.19594111670E+03  0.23276158090E+03  0.12509132935E+03 0.  0.
          5    1    3    3  502    0 -0.52033517635E+02  0.40795723161E+02  0.77025425290E+02  0.10159806360E+03  0.41800000000E+01 0.  1.
         -5    1    3    3    0  502  0.40957738159E+02 -0.36985374044E+02  0.11891569141E+03  0.13116351731E+03  0.41800000000E+01 0.  1.
        -11    1    1    2    0    0 -0.20296764778E+02 -0.36798140877E+02  0.10513044905E+03  0.11321869611E+03  0.00000000000E+00 0.  1.
         11    1    1    2    0    0  0.31372544254E+02  0.32987791760E+02  0.53081894708E+02  0.69929382123E+02  0.00000000000E+00 0. -1.
</event>
<event>
 7    1  0.2440960E-009  0.1644924E+03  0.7561462E-02  0.1183716E+00
          1   -1    0    0  501    0  0.00000000000E+00  0.00000000000E+00  0.67629600433E+02  0.67629600433E+02  0.00000000000E+00 0. -1.
         -1   -1    0    0    0  501 -0.00000000000E+00 -0.00000000000E+00 -0.59659678118E+03  0.59659678118E+03  0.00000000000E+00 0.  1.
         25    2    1    2    0    0  0.15557759795E+03  0.32957216499E+02 -0.18333282047E+03  0.27303716144E+03  0.12509117220E+03 0.  0.
          5    1    3    3  502    0  0.15925248970E+03  0.29067971454E+02 -0.10191898963E+03  0.19134067860E+03  0.41800000000E+01 0. -1.
         -5    1    3    3    0  502 -0.36748917465E+01  0.38892450446E+01 -0.81413830846E+02  0.81696482845E+02  0.41800000000E+01 0. -1.
        -11    1    1    2    0    0 -0.10295833666E+03 -0.12147116791E+02 -0.30327588215E+03  0.32050621247E+03  0.00000000000E+00 0.  1.
         11    1    1    2    0    0 -0.52619261298E+02 -0.20810099707E+02 -0.42358478125E+02  0.70683007706E+02  0.00000000000E+00 0. -1.
</event>
<event>
 7    1  0.2440960E-009  0.1306329E+03  0.7561462E-02  0.1226520E+00
         -2   -1    0    0    0  501 -0.00000000000E+00  0.00000000000E+00  0.26881694064E+02  0.26881694064E+02  0.00000000000E+00 0.  1.
          2   -1    0    0  501    0  0.00000000000E+00 -0.00000000000E+00 -0.94824931127E+03  0.94824931127E+03  0.00000000000E+00 0. -1.
         25    2    1    2    0    0 -0.78423235540E+02 -0.15421100575E+02 -0.75420110556E+03  0.76867099903E+03  0.12509109848E+03 0.  0.
          5    1    3    3  502    0 -0.56815271958E+02  0.52237396384E+02 -0.39003124358E+03  0.39761610138E+03  0.41800000000E+01 0. -1.
         -5    1    3    3    0  502 -0.21607963582E+02 -0.67658496959E+02 -0.36416986198E+03  0.37105489766E+03  0.41800000000E+01 0. -1.
        -11    1    1    2    0    0 -0.47590552739E+01 -0.21352553051E+02 -0.82919892512E+01  0.23395239144E+02  0.00000000000E+00 0.  1.
         11    1    1    2    0    0  0.83182290814E+02  0.36773653626E+02 -0.15887452240E+03  0.18306476715E+03  0.00000000000E+00 0. -1.
</event>
<event>
 7    1  0.2440960E-009  0.1099283E+03  0.7561462E-02  0.1260703E+00
          1   -1    0    0  501    0  0.00000000000E+00  0.00000000000E+00  0.54237147363E+03  0.54237147363E+03  0.00000000000E+00 0. -1.
         -1   -1    0    0    0  501 -0.00000000000E+00 -0.00000000000E+00 -0.28863384880E+02  0.28863384880E+02  0.00000000000E+00 0.  1.
         25    2    1    2    0    0  0.59540434106E+02 -0.21565569805E+02  0.27984149384E+03  0.31300498872E+03  0.12510285446E+03 0.  0.
          5    1    3    3  502    0  0.37160407832E+02  0.34340296497E+02  0.22753833135E+03  0.23313368806E+03  0.41800000000E+01 0. -1.
         -5    1    3    3    0  502  0.22380026274E+02 -0.55905866302E+02  0.52303162490E+02  0.79871300662E+02  0.41800000000E+01 0. -1.
        -11    1    1    2    0    0  0.20185905764E+02 -0.10542969442E+02  0.34857253174E+02  0.41637160026E+02  0.00000000000E+00 0. -1.
         11    1    1    2    0    0 -0.79726339870E+02  0.32108539248E+02  0.19880934174E+03  0.21659270977E+03  0.00000000000E+00 0.  1.
</event>
<event>
 7    1  0.2440960E-009  0.3016977E+03  0.7561462E-02  0.1084395E+00
         -2   -1    0    0    0  501 -0.00000000000E+00  0.00000000000E+00  0.18177577080E+03  0.18177577080E+03  0.00000000000E+00 0.  1.
          2   -1    0    0  501    0  0.00000000000E+00 -0.00000000000E+00 -0.50501466424E+03  0.50501466424E+03  0.00000000000E+00 0. -1.
         25    2    1    2    0    0  0.11862533233E+03  0.25582508671E+03 -0.17671668769E+03  0.35551967943E+03  0.12508801018E+03 0.  0.
          5    1    3    3  502    0  0.13966288974E+03  0.17031437710E+03 -0.12857226670E+03  0.25507059804E+03  0.41800000000E+01 0. -1.
         -5    1    3    3    0  502 -0.21037557412E+02  0.85510709609E+02 -0.48144420994E+02  0.10044908139E+03  0.41800000000E+01 0. -1.
        -11    1    1    2    0    0 -0.13256725442E+03 -0.23633676467E+03 -0.12263577171E+03  0.29743684335E+03  0.00000000000E+00 0. -1.
         11    1    1    2    0    0  0.13941922086E+02 -0.19488322043E+02 -0.23886434038E+02  0.33833912256E+02  0.00000000000E+00 0.  1.
</event>
<event>
 7    1  0.2440960E-009  0.8910650E+02  0.7561462E-02  0.1305030E+00
         -3   -1    0    0    0  501 -0.00000000000E+00  0.00000000000E+00  0.52592217639E+02  0.52592217639E+02  0.00000000000E+00 0.  1.
          3   -1    0    0  501    0  0.00000000000E+00 -0.00000000000E+00 -0.22680754643E+03  0.22680754643E+03  0.00000000000E+00 0. -1.
         25    2    1    2    0    0  0.12839984420E+02 -0.10335152283E+02 -0.99862215263E+02  0.16091071225E+03  0.12509242466E+03 0.  0.
          5    1    3    3  502    0 -0.38604554741E+02  0.23641195011E+02 -0.24177053492E+01  0.45525107879E+02  0.41800000000E+01 0.  1.
         -5    1    3    3    0  502  0.51444539160E+02 -0.33976347294E+02 -0.97444509914E+02  0.11538560438E+03  0.41800000000E+01 0.  1.
        -11    1    1    2    0    0 -0.26534733334E+02  0.34294819992E+02 -0.79367215021E+02  0.90439933501E+02  0.00000000000E+00 0. -1.
         11    1    1    2    0    0  0.13694748914E+02 -0.23959667709E+02  0.50141014913E+01  0.28049118316E+02  0.00000000000E+00 0.  1.
</event>
<event>
 7    1  0.2440960E-009  0.1984137E+03  0.7561462E-02  0.1151084E+00
          1   -1    0    0  501    0  0.00000000000E+00  0.00000000000E+00  0.64248614420E+02  0.64248614420E+02  0.00000000000E+00 0. -1.
         -1   -1    0    0    0  501 -0.00000000000E+00 -0.00000000000E+00 -0.72222334316E+03  0.72222334316E+03  0.00000000000E+00 0.  1.
         25    2    1    2    0    0 -0.13318676384E+03  0.11634620249E+03 -0.23703582655E+03  0.32111221815E+03  0.12510763638E+03 0.  0.
          5    1    3    3  502    0 -0.24511526772E+02  0.10404301805E+03 -0.12413390706E+03  0.16386721402E+03  0.41800000000E+01 0. -1.
         -5    1    3    3    0  502 -0.10867523707E+03  0.12303184447E+02 -0.11290191950E+03  0.15724500414E+03  0.41800000000E+01 0. -1.
        -11    1    1    2    0    0  0.10434615576E+03 -0.69433373104E+02 -0.18764251705E+03  0.22565200581E+03  0.00000000000E+00 0. -1.
         11    1    1    2    0    0  0.28840608081E+02 -0.46912829388E+02 -0.23329638514E+03  0.23970773361E+03  0.00000000000E+00 0.  1.
</event>
<event>
 7    1  0.2440960E-009  0.9641058E+02  0.7561462E-02  0.1288030E+00
         -3   -1    0    0    0  501 -0.00000000000E+00  0.00000000000E+00  0.23031623227E+02  0.23031623227E+02  0.00000000000E+00 0.  1.
          3   -1    0    0  501    0  0.00000000000E+00 -0.00000000000E+00 -0.52335217414E+03  0.52335217414E+03  0.00000000000E+00 0. -1.
         25    2    1    2    0    0  0.12159401014E+02 -0.31634369472E+02 -0.28074470772E+03  0.30921513211E+03  0.12509125729E+03 0.  0.
          5    1    3    3  502    0 -0.51809102722E+02  0.15466341873E+01 -0.75732711563E+02  0.91866703450E+02  0.41800000000E+01 0. -1.
         -5    1    3    3    0  502  0.63968503736E+02 -0.33181003660E+02 -0.20501199615E+03  0.21734842866E+03  0.41800000000E+01 0. -1.
        -11    1    1    2    0    0 -0.26788105745E+02 -0.66944163972E+01 -0.21793831500E+02  0.35176539223E+02  0.00000000000E+00 0.  1.
         11    1    1    2    0    0  0.14628704731E+02  0.38328785870E+02 -0.19778201169E+03  0.20199212603E+03  0.00000000000E+00 0. -1.
</event>
<event>
 7    1  0.2440960E-009  0.1414879E+03  0.7561462E-02  0.1211341E+00
         -1   -1    0    0    0  501 -0.00000000000E+00  0.00000000000E+00  0.48776688961E+02  0.48776688961E+02  0.00000000000E+00 0.  1.
          1   -1    0    0  501    0  0.00000000000E+00 -0.00000000000E+00 -0.80448927740E+03  0.80448927740E+03  0.00000000000E+00 0. -1.
         25    2    1    2    0    0  0.11735117261E+03  0.20309365988E+02 -0.64315196517E+03  0.66593825392E+03  0.12508213169E+03 0.  0.
          5    1    3    3  502    0  0.71571042311E+02  0.41476501051E+02 -0.16022795157E+03  0.18036957366E+03  0.41800000000E+01 0.  1.
         -5    1    3    3    0  502  0.45780130297E+02 -0.21167135063E+02 -0.48292401360E+03  0.48556868026E+03  0.41800000000E+01 0.  1.
        -11    1    1    2    0    0 -0.94709307093E+02  0.25809364171E+02 -0.78428163163E+02  0.12564614163E+03  0.00000000000E+00 0.  1.
         11    1    1    2    0    0 -0.22641865515E+02 -0.46118730159E+02 -0.34132460103E+02  0.61681570815E+02  0.00000000000E+00 0. -1.
</event>
<event>
 7    1  0.2440960E-009  0.2399131E+03  0.7561462E-02  0.1119851E+00
          2   -1    0    0  501    0  0.00000000000E+00  0.00000000000E+00  0.54083078574E+03  0.54083078574E+03  0.00000000000E+00 0. -1.
         -2   -1    0    0    0  501 -0.00000000000E+00 -0.00000000000E+00 -0.11173397161E+03  0.11173397161E+03  0.00000000000E+00 0.  1.
         25    2    1    2    0    0  0.36840896196E+02 -0.21106641519E+03  0.28689638322E+03  0.37929358490E+03  0.12509118910E+03 0.  0.
          5    1    3    3  502    0 -0.41704926028E+02 -0.12327739004E+03  0.14811545164E+03  0.19721124503E+03  0.41800000000E+01 0.  1.
         -5    1    3    3    0  502  0.78545822224E+02 -0.87789025151E+02  0.13878093157E+03  0.18208233987E+03  0.41800000000E+01 0.  1.
        -11    1    1    2    0    0 -0.65211270209E+02  0.12292267486E+03  0.69474152101E+02  0.15552861977E+03  0.00000000000E+00 0.  1.
         11    1    1    2    0    0  0.28370374013E+02  0.88143740337E+02  0.72726278813E+02  0.11774255268E+03  0.00000000000E+00 0. -1.
</event>
<event>
 7    1  0.2440960E-009  0.1067621E+03  0.7561462E-02  0.1266686E+00
         -1   -1    0    0    0  501 -0.00000000000E+00  0.00000000000E+00  0.80392505708E+03  0.80392505708E+03  0.00000000000E+00 0.  1.
          1   -1    0    0  501    0  0.00000000000E+00 -0.00000000000E+00 -0.27339095956E+02  0.27339095956E+02  0.00000000000E+00 0. -1.
         25    2    1    2    0    0 -0.64578403213E+02 -0.21005274820E+02  0.63048009973E+03  0.64634595000E+03  0.12508532766E+03 0.  0.
          5    1    3    3  502    0  0.29143857797E+02 -0.53278506640E+01  0.51140109755E+02  0.59249756672E+02  0.41800000000E+01 0. -1.
         -5    1    3    3    0  502 -0.93722261010E+02 -0.15677424156E+02  0.57933998997E+03  0.58709619333E+03  0.41800000000E+01 0. -1.
        -11    1    1    2    0    0  0.10330691298E+01  0.24807108045E+02  0.10780109034E+03  0.11062339228E+03  0.00000000000E+00 0.  1.
         11    1    1    2    0    0  0.63545334083E+02 -0.38018332247E+01  0.38304771059E+02  0.74294810758E+02  0.00000000000E+00 0. -1.
</event>
<event>
 7    1  0.2440960E-009  0.2292675E+03  0.7561462E-02  0.1127156E+00
         -2   -1    0    0    0  501 -0.00000000000E+00  0.00000000000E+00  0.18667914908E+03  0.18667914908E+03  0.00000000000E+00 0.  1.
          2   -1    0    0  501    0  0.00000000000E+00 -0.00000000000E+00 -0.64871067767E+03  0.64871067767E+03  0.00000000000E+00 0. -1.
         25    2    1    2    0    0 -0.13893841315E+03  0.15769906638E+03 -0.54043282841E+03  0.59319950887E+03  0.12508052249E+03 0.  0.
          5    1    3    3  502    0 -0.53151836777E+02 -0.11411824351E+02 -0.13494649096E+03  0.14554509717E+03  0.41800000000E+01 0.  1.
         -5    1    3    3    0  502 -0.85786576375E+02  0.16911089074E+03 -0.40548633745E+03  0.44765441170E+03  0.41800000000E+01 0.  1.
        -11    1    1    2    0    0  0.55090048538E+02 -0.94331572270E+02  0.82683291182E+02  0.13700323214E+03  0.00000000000E+00 0.  1.
         11    1    1    2    0    0  0.83848364614E+02 -0.63367494114E+02 -0.42819913544E+01  0.10518708575E+03  0.00000000000E+00 0. -1.
</event>
<event>
 7    1  0.2440960E-009  0.1532201E+03  0.7561462E-02  0.1196571E+00
          1   -1    0    0  501    0  0.00000000000E+00  0.00000000000E+00  0.41671198180E+03  0.41671198180E+03  0.00000000000E+00 0. -1.
         -1   -1    0    0    0  501 -0.00000000000E+00 -0.00000000000E+00 -0.58295906306E+02  0.58295906306E+02  0.00000000000E+00 0.  1.
         25    2    1    2    0    0  0.94217607623E+02 -0.59791602473E+02  0.17302717950E+03  0.24091110493E+03  0.12509101614E+03 0.  0.
          5    1    3    3  502    0  0.11647044505E+03 -0.15672457370E+02  0.11349673816E+03  0.16343185877E+03  0.41800000000E+01 0. -1.
         -5    1    3    3    0  502 -0.22252837424E+02 -0.44119145103E+02  0.59530441342E+02  0.77479246153E+02  0.41800000000E+01 0. -1.
        -11    1    1    2    0    0 -0.85295911520E+02  0.80139930697E+02  0.13283575002E+03  0.17703993193E+03  0.00000000000E+00 0. -1.
         11    1    1    2    0    0 -0.89216961028E+01 -0.20348328224E+02  0.52553145965E+02  0.57056851243E+02  0.00000000000E+00 0.  1.
</event>
<event>
 7    1  0.2440960E-009  0.1201493E+03  0.7561462E-02  0.1242851E+00
         -1   -1    0    0    0  501 -0.00000000000E+00  0.00000000000E+00  0.26177038868E+02  0.26177038868E+02  0.00000000000E+00 0. -1.
          1   -1    0    0  501    0  0.00000000000E+00 -0.00000000000E+00 -0.78398831531E+03  0.78398831531E+03  0.00000000000E+00 0.  1.
         25    2    1    2    0    0 -0.89186986112E+02 -0.13328028610E+02 -0.34162305638E+03  0.37481488230E+03  0.12509168039E+03 0.  0.
          5    1    3    3  502    0  0.16453669828E+02 -0.22439948163E+02 -0.17515999001E+03  0.17740566233E+03  0.41800000000E+01 0.  1.
         -5    1    3    3    0  502 -0.10564065594E+03  0.91119195532E+01 -0.16646306637E+03  0.19740921997E+03  0.41800000000E+01 0.  1.
        -11    1    1    2    0    0  0.60494461224E+01  0.21662187830E+02 -0.18920006792E+02  0.29390693033E+02  0.00000000000E+00 0. -1.
         11    1    1    2    0    0  0.83137539990E+02 -0.83341592203E+01 -0.39726821327E+03  0.40595977884E+03  0.00000000000E+00 0.  1.
</event>
<event>
 7    1  0.2440960E-009  0.1163477E+03  0.7561462E-02  0.1249247E+00
         -2   -1    0    0    0  501 -0.00000000000E+00  0.00000000000E+00  0.13125617891E+02  0.13125617891E+02  0.00000000000E+00 0.  1.
          2   -1    0    0  501    0  0.00000000000E+00 -0.00000000000E+00 -0.11760181697E+04  0.11760181697E+04  0.00000000000E+00 0. -1.
         25    2    1    2    0    0  0.72697601774E+01 -0.52934945150E+02 -0.65054517197E+03  0.66461361725E+03  0.12508909478E+03 0.  0.
          5    1    3    3  502    0  0.25072036080E+02  0.28124791871E+02 -0.85984887132E+02  0.93970655665E+02  0.41800000000E+01 0.  1.
         -5    1    3    3    0  502 -0.17802275903E+02 -0.81059737021E+02 -0.56456028484E+03  0.57064296159E+03  0.41800000000E+01 0.  1.
        -11    1    1    2    0    0 -0.46620777044E+02  0.11305804064E+01 -0.24333421770E+03  0.24776262141E+03  0.00000000000E+00 0.  1.
         11    1    1    2    0    0  0.39351016866E+02  0.51804364743E+02 -0.26901316210E+03  0.27676754889E+03  0.00000000000E+00 0. -1.
</event>
<event>
 7    1  0.2440960E-009  0.9911604E+02  0.7561462E-02  0.1282166E+00
          1   -1    0    0  501    0  0.00000000000E+00  0.00000000000E+00  0.78788112946E+03  0.78788112946E+03  0.00000000000E+00 0. -1.
         -1   -1    0    0    0  501 -0.00000000000E+00 -0.00000000000E+00 -0.39733493916E+02  0.39733493916E+02  0.00000000000E+00 0.  1.
         25    2    1    2    0    0 -0.55453679771E+02 -0.52291731634E+02  0.67524938398E+03  0.69095501640E+03  0.12509024072E+03 0.  0.
          5    1    3    3  502    0  0.15879992962E+02 -0.14294130050E+02  0.16665885411E+02  0.27417521166E+02  0.41800000000E+01 0.  1.
         -5    1    3    3    0  502 -0.71333672733E+02 -0.37997601584E+02  0.65858349857E+03  0.66353749523E+03  0.41800000000E+01 0.  1.
        -11    1    1    2    0    0  0.67697787216E+02  0.43860635410E+02  0.21965439404E+02  0.83601592453E+02  0.00000000000E+00 0.  1.
         11    1    1    2    0    0 -0.12244107445E+02  0.84310962246E+01  0.50932812158E+02  0.53058014522E+02  0.00000000000E+00 0. -1.
</event>
<event>
 7    1  0.2440960E-009  0.1350536E+03  0.7561462E-02  0.1220144E+00
         -2   -1    0    0    0  501 -0.00000000000E+00  0.00000000000E+00  0.68210683944E+02  0.68210683944E+02  0.00000000000E+00 0.  1.
          2   -1    0    0  501    0  0.00000000000E+00 -0.00000000000E+00 -0.36047916579E+03  0.36047916579E+03  0.00000000000E+00 0. -1.
         25    2    1    2    0    0  0.55882314054E+02 -0.90105676536E+02 -0.10520578990E+03  0.19483197842E+03  0.12509746447E+03 0.  0.
          5    1    3    3  502    0  0.32637988179E+02 -0.10290434133E+03 -0.25897074583E+02  0.11109758147E+03  0.41800000000E+01 0. -1.
         -5    1    3    3    0  502  0.23244325875E+02  0.12798664796E+02 -0.79308715319E+02  0.83734396944E+02  0.41800000000E+01 0. -1.
        -11    1    1    2    0    0 -0.71614343863E+02  0.38602937597E+02 -0.80448145190E+02  0.11441461927E+03  0.00000000000E+00 0. -1.
         11    1    1    2    0    0  0.15732029808E+02  0.51502738939E+02 -0.10661454676E+03  0.11944325205E+03  0.00000000000E+00 0.  1.
</event>
<event>
 7    1  0.2440960E-009  0.5659911E+02  0.7561462E-02  0.1412684E+00
         -1   -1    0    0    0  501 -0.00000000000E+00  0.00000000000E+00  0.11368269381E+03  0.11368269381E+03  0.00000000000E+00 0.  1.
          1   -1    0    0  501    0  0.00000000000E+00 -0.00000000000E+00 -0.14569369582E+03  0.14569369582E+03  0.00000000000E+00 0. -1.
         25    2    1    2    0    0  0.40824509193E+02 -0.13158821089E+01 -0.74853160008E+02  0.15138430294E+03  0.12508333029E+03 0.  0.
          5    1    3    3  502    0  0.33593407015E+02 -0.47277239568E+01 -0.10995301610E+03  0.11514341717E+03  0.41800000000E+01 0. -1.
         -5    1    3    3    0  502  0.72311021776E+01  0.34118418480E+01  0.35099856091E+02  0.36240885766E+02  0.41800000000E+01 0. -1.
        -11    1    1    2    0    0 -0.52514716676E+02  0.12319761445E+02  0.62534891636E+02  0.82584409313E+02  0.00000000000E+00 0.  1.
         11    1    1    2    0    0  0.11690207484E+02 -0.11003879336E+02 -0.19692733642E+02  0.25407677378E+02  0.00000000000E+00 0. -1.
</event>
<event>
 7    1  0.2440960E-009  0.1797136E+03  0.7561462E-02  0.1168080E+00
         -2   -1    0    0    0  501 -0.00000000000E+00  0.00000000000E+00  0.33523238609E+02  0.33523238609E+02  0.00000000000E+00 0. -1.
          2   -1    0    0  501    0  0.00000000000E+00 -0.00000000000E+00 -0.10933227255E+04  0.10933227255E+04  0.00000000000E+00 0.  1.
         25    2    1    2    0    0  0.14627280587E+03  0.50400991200E+02 -0.64967761120E+03  0.67945906249E+03  0.12509046906E+03 0.  0.
          5    1    3    3  502    0 -0.14611251478E+02 -0.13784665683E+02 -0.13124623760E+03  0.13284032883E+03  0.41800000000E+01 0.  1.
         -5    1    3    3    0  502  0.16088405735E+03  0.64185656883E+02 -0.51843137360E+03  0.54661873366E+03  0.41800000000E+01 0.  1.
        -11    1    1    2    0    0 -0.14144589616E+03 -0.29885925618E+02 -0.39713823382E+03  0.42263327703E+03  0.00000000000E+00 0.  1.
         11    1    1    2    0    0 -0.48269097123E+01 -0.20515065583E+02 -0.12983641828E+02  0.24753624550E+02  0.00000000000E+00 0. -1.
</event>
<event>
 7    1  0.2440960E-009  0.1048269E+03  0.7561462E-02  0.1270461E+00
         -1   -1    0    0    0  501 -0.00000000000E+00  0.00000000000E+00  0.31382635569E+02  0.31382635569E+02  0.00000000000E+00 0.  1.
          1   -1    0    0  501    0  0.00000000000E+00 -0.00000000000E+00 -0.72498803540E+03  0.72498803540E+03  0.00000000000E+00 0. -1.
         25    2    1    2    0    0  0.99066825901E+01 -0.62766033597E+02 -0.58676156609E+03  0.60330226933E+03  0.12508707131E+03 0.  0.
          5    1    3    3  502    0  0.16681268718E+02 -0.84871924601E+02 -0.22990611728E+03  0.24567418154E+03  0.41800000000E+01 0. -1.
         -5    1    3    3    0  502 -0.67745861275E+01  0.22105891004E+02 -0.35685544880E+03  0.35762808779E+03  0.41800000000E+01 0. -1.
        -11    1    1    2    0    0  0.32977559340E+02  0.36865166889E+02 -0.21129671860E+02  0.53786829082E+02  0.00000000000E+00 0.  1.
         11    1    1    2    0    0 -0.42884241930E+02  0.25900866708E+02 -0.85714161887E+02  0.99281572561E+02  0.00000000000E+00 0. -1.
</event>
<event>
 7    1  0.2440960E-009  0.1940437E+03  0.7561462E-02  0.1154864E+00
         -1   -1    0    0    0  501 -0.00000000000E+00  0.00000000000E+00  0.66208104733E+03  0.66208104733E+03  0.00000000000E+00 0.  1.
          1   -1    0    0  501    0  0.00000000000E+00 -0.00000000000E+00 -0.68593101221E+02  0.68593101221E+02  0.00000000000E+00 0. -1.
         25    2    1    2    0    0  0.10857777215E+03  0.12916864195E+03  0.18540500065E+03  0.28017166287E+03  0.12508987065E+03 0.  0.
          5    1    3    3  502    0  0.13334794660E+03  0.12758807243E+03  0.15827803140E+03  0.24316619566E+03  0.41800000000E+01 0.  1.
         -5    1    3    3    0  502 -0.24770174452E+02  0.15805695218E+01  0.27126969244E+02  0.37005467201E+02  0.41800000000E+01 0.  1.
        -11    1    1    2    0    0 -0.58077960689E+02 -0.26373580393E+02  0.75974440966E+02  0.99200458369E+02  0.00000000000E+00 0. -1.
         11    1    1    2    0    0 -0.50499811464E+02 -0.10279506156E+03  0.33210850449E+03  0.35130202731E+03  0.00000000000E+00 0.  1.
</event>
<event>
 7    1  0.2440960E-009  0.9174600E+02  0.7561462E-02  0.1298678E+00
         -3   -1    0    0    0  501 -0.00000000000E+00  0.00000000000E+00  0.17135334292E+03  0.17135334292E+03  0.00000000000E+00 0.  1.
          3   -1    0    0  501    0  0.00000000000E+00 -0.00000000000E+00 -0.90362820132E+02  0.90362820132E+02  0.00000000000E+00 0. -1.
         25    2    1    2    0    0 -0.58701444970E+02  0.14043293081E+02  0.57681411025E+02  0.15039348079E+03  0.12509188689E+03 0.  0.
          5    1    3    3  502    0  0.28484110757E+02  0.45515870117E+01  0.55358206231E+02  0.62562488018E+02  0.41800000000E+01 0. -1.
         -5    1    3    3    0  502 -0.87185555727E+02  0.94917060691E+01  0.23232047945E+01  0.87830992777E+02  0.41800000000E+01 0. -1.
        -11    1    1    2    0    0  0.46111658071E+02 -0.22570484901E+02  0.55571502943E+02  0.75656485102E+02  0.00000000000E+00 0.  1.
         11    1    1    2    0    0  0.12589786900E+02  0.85271918201E+01 -0.32262391183E+02  0.35666197153E+02  0.00000000000E+00 0. -1.
</event>
<event>
 7    1  0.2440960E-009  0.9721082E+02  0.7561462E-02  0.1286273E+00
          2   -1    0    0  501    0  0.00000000000E+00  0.00000000000E+00  0.24199014392E+03  0.24199014392E+03  0.00000000000E+00 0.  1.
         -2   -1    0    0    0  501 -0.00000000000E+00 -0.00000000000E+00 -0.63150374409E+02  0.63150374409E+02  0.00000000000E+00 0. -1.
         25    2    1    2    0    0  0.29989592625E+01 -0.17723438606E+02  0.16700995052E+03  0.20943486744E+03  0.12509007193E+03 0.  0.
          5    1    3    3  502    0  0.26332406589E+02  0.44147733404E+02  0.36865136105E+02  0.63395020794E+02  0.41800000000E+01 0. -1.
         -5    1    3    3    0  502 -0.23333447326E+02 -0.61871172011E+02  0.13014481441E+03  0.14603984665E+03  0.41800000000E+01 0. -1.
        -11    1    1    2    0    0 -0.34963192081E+02  0.26001652990E+02  0.34564695380E+02  0.55616804344E+02  0.00000000000E+00 0.  1.
         11    1    1    2    0    0  0.31964232819E+02 -0.82782143835E+01 -0.22734876385E+02  0.40088846545E+02  0.00000000000E+00 0. -1.
</event>
<event>
 7    1  0.2440960E-009  0.1484478E+03  0.7561462E-02  0.1202393E+00
          1   -1    0    0  501    0  0.00000000000E+00  0.00000000000E+00  0.35986376410E+03  0.35986376410E+03  0.00000000000E+00 0. -1.
         -1   -1    0    0    0  501 -0.00000000000E+00 -0.00000000000E+00 -0.86720068335E+02  0.86720068335E+02  0.00000000000E+00 0.  1.
         25    2    1    2    0    0 -0.10380615630E+02  0.12212359513E+03  0.61896461480E+02  0.18574136621E+03  0.12508698378E+03 0.  0.
          5    1    3    3  502    0  0.30444560489E+02 -0.31653841985E+01 -0.13669357975E+02  0.33781868924E+02  0.41800000000E+01 0. -1.
         -5    1    3    3    0  502 -0.40825176120E+02  0.12528897933E+03  0.75565819455E+02  0.15195949729E+03  0.41800000000E+01 0. -1.
        -11    1    1    2    0    0 -0.22500063958E+02 -0.54826789135E+02  0.33776148193E+02  0.68213326203E+02  0.00000000000E+00 0.  1.
         11    1    1    2    0    0  0.32880679588E+02 -0.67296805993E+02  0.17747108609E+03  0.19262914002E+03  0.00000000000E+00 0. -1.
</event>
<event>
 7    1  0.2440960E-009  0.8366609E+02  0.7561462E-02  0.1318958E+00
         -1   -1    0    0    0  501 -0.00000000000E+00  0.00000000000E+00  0.17371284262E+03  0.17371284262E+03  0.00000000000E+00 0.  1.
          1   -1    0    0  501    0  0.00000000000E+00 -0.00000000000E+00 -0.84823113568E+02  0.84823113568E+02  0.00000000000E+00 0. -1.
         25    2    1    2    0    0  0.70412492307E+01  0.60735457745E+02  0.55238450731E+02  0.14979030291E+03  0.12508986126E+03 0.  0.
          5    1    3    3  502    0  0.10356300763E+02  0.80752842484E+02  0.82213001884E+02  0.11577877445E+03  0.41800000000E+01 0.  1.
         -5    1    3    3    0  502 -0.33150515325E+01 -0.20017384739E+02 -0.26974551153E+02  0.34011528463E+02  0.41800000000E+01 0.  1.
        -11    1    1    2    0    0  0.13142542080E+01 -0.54870369772E+02 -0.16699548487E+02  0.57370372691E+02  0.00000000000E+00 0. -1.
         11    1    1    2    0    0 -0.83555034387E+01 -0.58650879733E+01  0.50350826811E+02  0.51375280585E+02  0.00000000000E+00 0.  1.
</event>
<event>
 7    1  0.2440960E-009  0.1021734E+03  0.7561462E-02  0.1275791E+00
          1   -1    0    0  501    0  0.00000000000E+00  0.00000000000E+00  0.12340350604E+03  0.12340350604E+03  0.00000000000E+00 0. -1.
         -1   -1    0    0    0  501 -0.00000000000E+00 -0.00000000000E+00 -0.25742532652E+03  0.25742532652E+03  0.00000000000E+00 0.  1.
         25    2    1    2    0    0 -0.51794739782E+02  0.72033128902E+02 -0.18903960907E+03  0.24342555074E+03  0.12509419742E+03 0.  0.
          5    1    3    3  502    0 -0.11667277557E+02 -0.99247145381E+01  0.13754347560E+02  0.21006660874E+02  0.41800000000E+01 0. -1.
         -5    1    3    3    0  502 -0.40127462225E+02  0.81957843440E+02 -0.20279395663E+03  0.22241888987E+03  0.41800000000E+01 0. -1.
        -11    1    1    2    0    0  0.12672492115E+01 -0.33630882380E+02 -0.19993932143E+02  0.39145874531E+02  0.00000000000E+00 0.  1.
         11    1    1    2    0    0  0.50527490570E+02 -0.38402246521E+02  0.75011720722E+02  0.98257407288E+02  0.00000000000E+00 0. -1.
</event>
<event>
 7    1  0.2440960E-009  0.2275877E+03  0.7561462E-02  0.1128349E+00
         -3   -1    0    0    0  501 -0.00000000000E+00  0.00000000000E+00  0.25464060452E+03  0.25464060452E+03  0.00000000000E+00 0.  1.
          3   -1    0    0  501    0  0.00000000000E+00 -0.00000000000E+00 -0.27624977695E+03  0.27624977695E+03  0.00000000000E+00 0. -1.
         25    2    1    2    0    0 -0.20044152125E+03 -0.35144048831E+02  0.11917592516E+03  0.26695082437E+03  0.12509170189E+03 0.  0.
          5    1    3    3  502    0 -0.20995972375E+03 -0.53538662885E+02  0.10108046185E+03  0.23913219396E+03  0.41800000000E+01 0. -1.
         -5    1    3    3    0  502  0.95182024990E+01  0.18394614054E+02  0.18095463313E+02  0.27818630404E+02  0.41800000000E+01 0. -1.
        -11    1    1    2    0    0  0.47093751864E+02  0.43010136627E+02 -0.15177754948E+02  0.65559572623E+02  0.00000000000E+00 0.  1.
         11    1    1    2    0    0  0.15334776939E+03 -0.78660877953E+01 -0.12560734265E+03  0.19837998448E+03  0.00000000000E+00 0. -1.
</event>
<event>
 7    1  0.2440960E-009  0.1163057E+03  0.7561462E-02  0.1249319E+00
          2   -1    0    0  501    0  0.00000000000E+00  0.00000000000E+00  0.14055792341E+03  0.14055792341E+03  0.00000000000E+00 0. -1.
         -2   -1    0    0    0  501 -0.00000000000E+00 -0.00000000000E+00 -0.10409492263E+03  0.10409492263E+03  0.00000000000E+00 0.  1.
         25    2    1    2    0    0 -0.21684239757E+02 -0.40870842946E+02  0.41432438506E+02  0.13966432180E+03  0.12509533871E+03 0.  0.
          5    1    3    3  502    0  0.22370423676E+02 -0.71179472747E+02  0.42592970972E+02  0.86015038059E+02  0.41800000000E+01 0.  1.
         -5    1    3    3    0  502 -0.44054663433E+02  0.30308629801E+02 -0.11605324662E+01  0.53649283744E+02  0.41800000000E+01 0.  1.
        -11    1    1    2    0    0  0.22412155684E+02  0.70822976846E+02 -0.87161575270E+01  0.74794185428E+02  0.00000000000E+00 0.  1.
         11    1    1    2    0    0 -0.72791592697E+00 -0.29952133900E+02  0.37467198066E+01  0.30194338808E+02  0.00000000000E+00 0. -1.
</event>
<event>
 7    1  0.2440960E-009  0.1597873E+03  0.7561462E-02  0.1188937E+00
         -3   -1    0    0    0  501 -0.00000000000E+00  0.00000000000E+00  0.23556636056E+03  0.23556636056E+03  0.00000000000E+00 0.  1.
          3   -1    0    0  501    0  0.00000000000E+00 -0.00000000000E+00 -0.13956790648E+03  0.13956790648E+03  0.00000000000E+00 0. -1.
         25    2    1    2    0    0 -0.12722304925E+03 -0.71177568178E+01 -0.20489291247E+02  0.17973335048E+03  0.12509156445E+03 0.  0.
          5    1    3    3  502    0 -0.60886637538E+02  0.53561675254E+02 -0.35266857174E+02  0.88528296615E+02  0.41800000000E+01 0.  1.
         -5    1    3    3    0  502 -0.66336411710E+02 -0.60679432072E+02  0.14777565928E+02  0.91205053861E+02  0.41800000000E+01 0.  1.
        -11    1    1    2    0    0 -0.44087419123E+01  0.15851416905E+02  0.39185496818E+02  0.42499500985E+02  0.00000000000E+00 0.  1.
         11    1    1    2    0    0  0.13163179116E+03 -0.87336600872E+01  0.77302248505E+02  0.15290141558E+03  0.00000000000E+00 0. -1.
</event>
<event>
 7    1  0.2440960E-009  0.2890233E+03  0.7561462E-02  0.1090860E+00
          1   -1    0    0  501    0  0.00000000000E+00  0.00000000000E+00  0.47290011285E+03  0.47290011285E+03  0.00000000000E+00 0. -1.
         -1   -1    0    0    0  501 -0.00000000000E+00 -0.00000000000E+00 -0.27263497553E+03  0.27263497553E+03  0.00000000000E+00 0.  1.
         25    2    1    2    0    0  0.22362464029E+03  0.13808191499E+03 -0.83134702708E+02  0.30270983667E+03  0.12508905401E+03 0.  0.
          5    1    3    3  502    0  0.46439841796E+01 -0.19470671333E+02 -0.11915012813E+02  0.23666718436E+02  0.41800000000E+01 0. -1.
         -5    1    3    3    0  502  0.21898065611E+03  0.15755258632E+03 -0.71219689895E+02  0.27904311824E+03  0.41800000000E+01 0. -1.
        -11    1    1    2    0    0 -0.91994303274E+02  0.65577760308E+01  0.21784174703E+03  0.23656073853E+03  0.00000000000E+00 0. -1.
         11    1    1    2    0    0 -0.13163033701E+03 -0.14463969102E+03  0.65558092996E+02  0.20626451318E+03  0.00000000000E+00 0.  1.
</event>
<event>
 7    1  0.2440960E-009  0.2351847E+03  0.7561462E-02  0.1123043E+00
         -1   -1    0    0    0  501 -0.00000000000E+00  0.00000000000E+00  0.26118294880E+03  0.26118294880E+03  0.00000000000E+00 0.  1.
          1   -1    0    0  501    0  0.00000000000E+00 -0.00000000000E+00 -0.38096101843E+03  0.38096101843E+03  0.00000000000E+00 0. -1.
         25    2    1    2    0    0 -0.14214673116E+03  0.16296318746E+03  0.14467663214E+03  0.28868860663E+03  0.12508832904E+03 0.  0.
          5    1    3    3  502    0 -0.55295828469E+02  0.14652006783E+03  0.65000820905E+02  0.16961231689E+03  0.41800000000E+01 0.  1.
         -5    1    3    3    0  502 -0.86850902690E+02  0.16443119635E+02  0.79675811239E+02  0.11907628974E+03  0.41800000000E+01 0.  1.
        -11    1    1    2    0    0  0.54938855250E+02 -0.21429497945E+02 -0.30333029877E+02  0.66314356665E+02  0.00000000000E+00 0.  1.
         11    1    1    2    0    0  0.87207875909E+02 -0.14153368951E+03 -0.23412167190E+03  0.28714100394E+03  0.00000000000E+00 0. -1.
</event>
<event>
 7    1  0.2440960E-009  0.1037212E+03  0.7561462E-02  0.1272660E+00
          3   -1    0    0  501    0  0.00000000000E+00  0.00000000000E+00  0.17570326736E+03  0.17570326736E+03  0.00000000000E+00 0. -1.
         -3   -1    0    0    0  501 -0.00000000000E+00 -0.00000000000E+00 -0.81671254828E+02  0.81671254828E+02  0.00000000000E+00 0.  1.
         25    2    1    2    0    0 -0.49188642022E+02 -0.15146851888E+02  0.59829554796E+02  0.14790421575E+03  0.12508849581E+03 0.  0.
          5    1    3    3  502    0 -0.59098456103E+02  0.23709223221E+02 -0.12565885620E+02  0.65039439273E+02  0.41800000000E+01 0.  1.
         -5    1    3    3    0  502  0.99098140808E+01 -0.38856075109E+02  0.72395440416E+02  0.82864776480E+02  0.41800000000E+01 0.  1.
        -11    1    1    2    0    0 -0.14605965183E+02 -0.24266795110E+02  0.15057286497E+02  0.32076992386E+02  0.00000000000E+00 0.  1.
         11    1    1    2    0    0  0.63794607205E+02  0.39413646999E+02  0.19145171243E+02  0.77393314053E+02  0.00000000000E+00 0. -1.
</event>
<event>
 7    1  0.2440960E-009  0.3952295E+03  0.7561462E-02  0.1045444E+00
         -2   -1    0    0    0  501 -0.00000000000E+00  0.00000000000E+00  0.38718160588E+03  0.38718160588E+03  0.00000000000E+00 0. -1.
          2   -1    0    0  501    0  0.00000000000E+00 -0.00000000000E+00 -0.63672439371E+03  0.63672439371E+03  0.00000000000E+00 0.  1.
         25    2    1    2    0    0 -0.38772146189E+03  0.14436176520E+02 -0.42504712968E+03  0.58893772833E+03  0.12508497190E+03 0.  0.
          5    1    3    3  502    0 -0.11529794072E+03 -0.23225341404E+02 -0.60669758217E+02  0.13240590462E+03  0.41800000000E+01 0. -1.
         -5    1    3    3    0  502 -0.27242352117E+03  0.37661517924E+02 -0.36437737146E+03  0.45653182370E+03  0.41800000000E+01 0. -1.
        -11    1    1    2    0    0  0.18691372698E+03  0.36758072066E+02  0.76138115329E+02  0.20514606942E+03  0.00000000000E+00 0. -1.
         11    1    1    2    0    0  0.20080773491E+03 -0.51194248587E+02  0.99366226512E+02  0.22982220184E+03  0.00000000000E+00 0.  1.
</event>
<event>
 7    1  0.2440960E-009  0.1235203E+03  0.7561462E-02  0.1237400E+00
          1   -1    0    0  501    0  0.00000000000E+00  0.00000000000E+00  0.10491047081E+03  0.10491047081E+03  0.00000000000E+00 0. -1.
         -1   -1    0    0    0  501 -0.00000000000E+00 -0.00000000000E+00 -0.21313727920E+03  0.21313727920E+03  0.00000000000E+00 0.  1.
         25    2    1    2    0    0 -0.97557016012E+02 -0.35061697005E+02 -0.61826058646E+02  0.17383033613E+03  0.12509128771E+03 0.  0.
          5    1    3    3  502    0 -0.93889809151E+02  0.52863924550E+01  0.64247721148E+01  0.94350369922E+02  0.41800000000E+01 0. -1.
         -5    1    3    3    0  502 -0.36672068601E+01 -0.40348089460E+02 -0.68250830760E+02  0.79479966210E+02  0.41800000000E+01 0. -1.
        -11    1    1    2    0    0  0.85246858536E+02  0.12066330224E+02 -0.68507056863E+02  0.11002654250E+03  0.00000000000E+00 0.  1.
         11    1    1    2    0    0  0.12310157476E+02  0.22995366780E+02  0.22106307118E+02  0.34190871367E+02  0.00000000000E+00 0. -1.
</event>
<event>
 7    1  0.2440960E-009  0.9783633E+02  0.7561462E-02  0.1284913E+00
          2   -1    0    0  501    0  0.00000000000E+00  0.00000000000E+00  0.51376259440E+03  0.51376259440E+03  0.00000000000E+00 0. -1.
         -2   -1    0    0    0  501 -0.00000000000E+00 -0.00000000000E+00 -0.26722738500E+02  0.26722738500E+02  0.00000000000E+00 0.  1.
         25    2    1    2    0    0  0.19728731936E+02  0.38230375765E+02  0.30765932325E+03  0.33489182251E+03  0.12508992408E+03 0.  0.
          5    1    3    3  502    0  0.42154324229E+02 -0.27945692070E+02  0.20105524187E+03  0.20736111361E+03  0.41800000000E+01 0. -1.
         -5    1    3    3    0  502 -0.22425592293E+02  0.66176067835E+02  0.10660408138E+03  0.12753070890E+03  0.41800000000E+01 0. -1.
        -11    1    1    2    0    0  0.46953981288E+01 -0.48285742909E+02  0.17120248690E+03  0.17794339339E+03  0.00000000000E+00 0. -1.
         11    1    1    2    0    0 -0.24424130065E+02  0.10055367144E+02  0.81780457536E+01  0.27650117001E+02  0.00000000000E+00 0.  1.
</event>
<event>
 7    1  0.2440960E-009  0.1375453E+03  0.7561462E-02  0.1216671E+00
         -2   -1    0    0    0  501 -0.00000000000E+00  0.00000000000E+00  0.27188480268E+03  0.27188480268E+03  0.00000000000E+00 0.  1.
          2   -1    0    0  501    0  0.00000000000E+00 -0.00000000000E+00 -0.95844069337E+02  0.95844069337E+02  0.00000000000E+00 0. -1.
         25    2    1    2    0    0  0.97424563261E+02 -0.42684631003E+02  0.34541353203E+02  0.16779617673E+03  0.12509567776E+03 0.  0.
          5    1    3    3  502    0  0.38046010006E+02 -0.79358742749E+02 -0.35476463939E+01  0.88178042182E+02  0.41800000000E+01 0. -1.
         -5    1    3    3    0  502  0.59378553256E+02  0.36674111746E+02  0.38088999597E+02  0.79618134551E+02  0.41800000000E+01 0. -1.
        -11    1    1    2    0    0 -0.30088062919E+02 -0.98532214618E+01 -0.32895159307E+01  0.31830777848E+02  0.00000000000E+00 0. -1.
         11    1    1    2    0    0 -0.67336500342E+02  0.52537852465E+02  0.14478889607E+03  0.16810191743E+03  0.00000000000E+00 0.  1.
</event>
<event>
 7    1  0.2440960E-009  0.1110164E+03  0.7561462E-02  0.1258699E+00
          1   -1    0    0  501    0  0.00000000000E+00  0.00000000000E+00  0.66793811511E+03  0.66793811511E+03  0.00000000000E+00 0. -1.
         -1   -1    0    0    0  501 -0.00000000000E+00 -0.00000000000E+00 -0.25274283198E+02  0.25274283198E+02  0.00000000000E+00 0.  1.
         25    2    1    2    0    0 -0.66313575258E+02 -0.32014929687E+02  0.38683388496E+03  0.41317027189E+03  0.12508706183E+03 0.  0.
          5    1    3    3  502    0 -0.71684093017E+02  0.22128408578E+02  0.12611407078E+03  0.14680090908E+03  0.41800000000E+01 0. -1.
         -5    1    3    3    0  502  0.53705177594E+01 -0.54143338265E+02  0.26071981418E+03  0.26636936281E+03  0.41800000000E+01 0. -1.
        -11    1    1    2    0    0  0.58325366645E+02 -0.10239607117E+01  0.69959079414E+02  0.91088801080E+02  0.00000000000E+00 0.  1.
         11    1    1    2    0    0  0.79882086134E+01  0.33038890398E+02  0.18587086753E+03  0.18895332533E+03  0.00000000000E+00 0. -1.
</event>
<event>
 7    1  0.2440960E-009  0.1055337E+03  0.7561462E-02  0.1269072E+00
         -1   -1    0    0    0  501 -0.00000000000E+00  0.00000000000E+00  0.21226740887E+03  0.21226740887E+03  0.00000000000E+00 0.  1.
          1   -1    0    0  501    0  0.00000000000E+00 -0.00000000000E+00 -0.92580894910E+02  0.92580894910E+02  0.00000000000E+00 0. -1.
         25    2    1    2    0    0 -0.49183167832E+02  0.37611559739E+02  0.13375130243E+03  0.19331430314E+03  0.12508954982E+03 0.  0.
          5    1    3    3  502    0 -0.87262251284E+02  0.31713792531E+01  0.92944282770E+02  0.12759651345E+03  0.41800000000E+01 0.  1.
         -5    1    3    3    0  502  0.38079083453E+02  0.34440180486E+02  0.40807019656E+02  0.65717789690E+02  0.41800000000E+01 0.  1.
        -11    1    1    2    0    0  0.31328773571E+02 -0.43255444477E+02  0.31685006047E+02  0.62100443949E+02  0.00000000000E+00 0.  1.
         11    1    1    2    0    0  0.17854394260E+02  0.56438847383E+01 -0.45749794511E+02  0.49433556692E+02  0.00000000000E+00 0. -1.
</event>
<event>
 7    1  0.2440960E-009  0.8493166E+02  0.7561462E-02  0.1315611E+00
         -1   -1    0    0    0  501 -0.00000000000E+00  0.00000000000E+00  0.10260379403E+03  0.10260379403E+03  0.00000000000E+00 0.  1.
          1   -1    0    0  501    0  0.00000000000E+00 -0.00000000000E+00 -0.17387020012E+03  0.17387020012E+03  0.00000000000E+00 0. -1.
         25    2    1    2    0    0 -0.48711675301E+02 -0.37319565270E+02  0.44587756608E+01  0.13940257563E+03  0.12509044788E+03 0.  0.
          5    1    3    3  502    0 -0.39095686987E+02 -0.28981438982E+02  0.62790694275E+02  0.79552122750E+02  0.41800000000E+01 0.  1.
         -5    1    3    3    0  502 -0.96159883142E+01 -0.83381262878E+01 -0.58331918614E+02  0.59850452884E+02  0.41800000000E+01 0.  1.
        -11    1    1    2    0    0  0.96300494877E+01  0.61112776128E+02 -0.65675106659E+02  0.90225987908E+02  0.00000000000E+00 0. -1.
         11    1    1    2    0    0  0.39081625813E+02 -0.23793210858E+02 -0.10050075091E+02  0.46845430604E+02  0.00000000000E+00 0.  1.
</event>
<event>
 7    1  0.2440960E-009  0.9077389E+02  0.7561462E-02  0.1300988E+00
          2   -1    0    0  501    0  0.00000000000E+00  0.00000000000E+00  0.14227913734E+03  0.14227913734E+03  0.00000000000E+00 0. -1.
         -2   -1    0    0    0  501 -0.00000000000E+00 -0.00000000000E+00 -0.94802271413E+02  0.94802271413E+02  0.00000000000E+00 0.  1.
         25    2    1    2    0    0  0.17535685899E+02 -0.27219766692E+02  0.60171748614E+02  0.14253669348E+03  0.12509058190E+03 0.  0.
          5    1    3    3  502    0  0.22115520494E+02 -0.55621694053E+02  0.85178099026E+02  0.10419045086E+03  0.41800000000E+01 0. -1.
         -5    1    3    3    0  502 -0.45798345952E+01  0.28401927361E+02 -0.25006350411E+02  0.38346242627E+02  0.41800000000E+01 0. -1.
        -11    1    1    2    0    0 -0.45431065104E+02 -0.94464408630E+01  0.12172479060E+01  0.46418731283E+02  0.00000000000E+00 0.  1.
         11    1    1    2    0    0  0.27895379205E+02  0.36666207555E+02 -0.13912130589E+02  0.48125983990E+02  0.00000000000E+00 0. -1.
</event>
<event>
 7    1  0.2440960E-009  0.9662383E+02  0.7561462E-02  0.1287560E+00
         -1   -1    0    0    0  501 -0.00000000000E+00  0.00000000000E+00  0.13272838879E+03  0.13272838879E+03  0.00000000000E+00 0.  1.
          1   -1    0    0  501    0  0.00000000000E+00 -0.00000000000E+00 -0.12041752783E+03  0.12041752783E+03  0.00000000000E+00 0. -1.
         25    2    1    2    0    0 -0.49303052263E+01 -0.26220268529E+02 -0.52690130216E+02  0.13833240885E+03  0.12509114727E+03 0.  0.
          5    1    3    3  502    0  0.21706991085E+02 -0.71438165295E+02 -0.36769533361E+02  0.83331122075E+02  0.41800000000E+01 0. -1.
         -5    1    3    3    0  502 -0.26637296311E+02  0.45217896766E+02 -0.15920596855E+02  0.55001286775E+02  0.41800000000E+01 0. -1.
        -11    1    1    2    0    0  0.19122007796E+02  0.41055710648E+02  0.78226933327E+02  0.90391789764E+02  0.00000000000E+00 0.  1.
         11    1    1    2    0    0 -0.14191702570E+02 -0.14835442119E+02 -0.13225942149E+02  0.24421718008E+02  0.00000000000E+00 0. -1.
</event>
<event>
 7    1  0.2440960E-009  0.1067021E+03  0.7561462E-02  0.1266802E+00
         -3   -1    0    0    0  501 -0.00000000000E+00  0.00000000000E+00  0.30846960891E+03  0.30846960891E+03  0.00000000000E+00 0.  1.
          3   -1    0    0  501    0  0.00000000000E+00 -0.00000000000E+00 -0.54604471067E+02  0.54604471067E+02  0.00000000000E+00 0. -1.
         25    2    1    2    0    0  0.44147052866E+02  0.42384536764E+02  0.19284391788E+03  0.23786914546E+03  0.12509013735E+03 0.  0.
          5    1    3    3  502    0 -0.33957795539E+02 -0.18326107190E+02  0.70510685452E+02  0.80487311084E+02  0.41800000000E+01 0. -1.
         -5    1    3    3    0  502  0.78104848405E+02  0.60710643954E+02  0.12233323243E+03  0.15738183437E+03  0.41800000000E+01 0. -1.
        -11    1    1    2    0    0  0.26531544160E+01 -0.25784900597E+02  0.70087451411E+02  0.74727178272E+02  0.00000000000E+00 0.  1.
         11    1    1    2    0    0 -0.46800207282E+02 -0.16599636167E+02 -0.90662314568E+01  0.50477756243E+02  0.00000000000E+00 0. -1.
</event>
<event>
 7    1  0.2440960E-009  0.1031339E+03  0.7561462E-02  0.1273840E+00
          1   -1    0    0  501    0  0.00000000000E+00  0.00000000000E+00  0.23815068032E+03  0.23815068032E+03  0.00000000000E+00 0. -1.
         -1   -1    0    0    0  501 -0.00000000000E+00 -0.00000000000E+00 -0.54709955664E+02  0.54709955664E+02  0.00000000000E+00 0.  1.
         25    2    1    2    0    0  0.85536895268E+01 -0.22804809512E+02  0.13966863527E+03  0.18907247514E+03  0.12509135956E+03 0.  0.
          5    1    3    3  502    0  0.52142063480E+01 -0.67440563419E+02  0.37507759729E+02  0.77457872305E+02  0.41800000000E+01 0.  1.
         -5    1    3    3    0  502  0.33394831788E+01  0.44635753907E+02  0.10216087554E+03  0.11161460283E+03  0.41800000000E+01 0.  1.
        -11    1    1    2    0    0 -0.12669539221E+01  0.57790914622E+02  0.32505148265E+02  0.66317265088E+02  0.00000000000E+00 0.  1.
         11    1    1    2    0    0 -0.72867356047E+01 -0.34986105109E+02  0.11266941122E+02  0.37470895756E+02  0.00000000000E+00 0. -1.
</event>
<event>
 7    1  0.2440960E-009  0.8444602E+02  0.7561462E-02  0.1316888E+00
          2   -1    0    0  501    0  0.00000000000E+00  0.00000000000E+00  0.98031557816E+02  0.98031557816E+02  0.00000000000E+00 0. -1.
         -2   -1    0    0    0  501 -0.00000000000E+00 -0.00000000000E+00 -0.18899985000E+03  0.18899985000E+03  0.00000000000E+00 0.  1.
         25    2    1    2    0    0  0.41653695697E+02 -0.47685214923E+02 -0.10601071098E+03  0.17576665390E+03  0.12508691255E+03 0.  0.
          5    1    3    3  502    0  0.16194684323E+02 -0.42517716141E+02  0.17916849489E+02  0.49076571618E+02  0.41800000000E+01 0. -1.
         -5    1    3    3    0  502  0.25459011374E+02 -0.51674987821E+01 -0.12392756047E+03  0.12669008228E+03  0.41800000000E+01 0. -1.
        -11    1    1    2    0    0 -0.12507094058E+02  0.62817112183E+02 -0.16060756586E+02  0.66033059046E+02  0.00000000000E+00 0.  1.
         11    1    1    2    0    0 -0.29146601639E+02 -0.15131897260E+02  0.31103175385E+02  0.45231694870E+02  0.00000000000E+00 0. -1.
</event>
<event>
 7    1  0.2440960E-009  0.8748452E+02  0.7561462E-02  0.1309060E+00
         -1   -1    0    0    0  501 -0.00000000000E+00  0.00000000000E+00  0.76489525600E+02  0.76489525600E+02  0.00000000000E+00 0.  1.
          1   -1    0    0  501    0  0.00000000000E+00 -0.00000000000E+00 -0.18289176300E+03  0.18289176300E+03  0.00000000000E+00 0. -1.
         25    2    1    2    0    0 -0.12751476813E+02 -0.11110138067E+02 -0.10673830467E+03  0.16530839418E+03  0.12509102355E+03 0.  0.
          5    1    3    3  502    0 -0.53423580850E+02 -0.32649792796E+02 -0.10077157063E+03  0.11871170881E+03  0.41800000000E+01 0.  1.
         -5    1    3    3    0  502  0.40672104036E+02  0.21539654729E+02 -0.59667340382E+01  0.46596685372E+02  0.41800000000E+01 0.  1.
        -11    1    1    2    0    0 -0.20984741315E+02 -0.12868563936E+02  0.33124372047E+02  0.41269641740E+02  0.00000000000E+00 0.  1.
         11    1    1    2    0    0  0.33736218129E+02  0.23978702002E+02 -0.32788304773E+02  0.52803252677E+02  0.00000000000E+00 0. -1.
</event>
<event>
 7    1  0.2440960E-009  0.9572271E+02  0.7561462E-02  0.1289557E+00
         -1   -1    0    0    0  501 -0.00000000000E+00  0.00000000000E+00  0.21950561251E+02  0.21950561251E+02  0.00000000000E+00 0.  1.
          1   -1    0    0  501    0  0.00000000000E+00 -0.00000000000E+00 -0.58034268911E+03  0.58034268911E+03  0.00000000000E+00 0. -1.
         25    2    1    2    0    0 -0.66507625260E+01  0.30699502605E+02 -0.29162195865E+03  0.31886892915E+03  0.12508930854E+03 0.  0.
          5    1    3    3  502    0 -0.45764131255E+02 -0.13341694712E+02 -0.46461225847E+02  0.66696884744E+02  0.41800000000E+01 0. -1.
         -5    1    3    3    0  502  0.39113368729E+02  0.44041197318E+02 -0.24516073280E+03  0.25217204441E+03  0.41800000000E+01 0. -1.
        -11    1    1    2    0    0 -0.31040229474E+02  0.63591751522E+01 -0.42510731912E+02  0.53019781988E+02  0.00000000000E+00 0.  1.
         11    1    1    2    0    0  0.37690992000E+02 -0.37058677757E+02 -0.22425943730E+03  0.23040453922E+03  0.00000000000E+00 0. -1.
</event>
<event>
 7    1  0.2440960E-009  0.1733218E+03  0.7561462E-02  0.1174427E+00
         -2   -1    0    0    0  501 -0.00000000000E+00  0.00000000000E+00  0.12443361101E+03  0.12443361101E+03  0.00000000000E+00 0.  1.
          2   -1    0    0  501    0  0.00000000000E+00 -0.00000000000E+00 -0.59873248009E+03  0.59873248009E+03  0.00000000000E+00 0. -1.
         25    2    1    2    0    0 -0.16818124363E+03 -0.49017740280E+01  0.25772917395E+00  0.20965694480E+03  0.12508800893E+03 0.  0.
          5    1    3    3  502    0 -0.96325135638E+02 -0.22066540563E+02 -0.58725807470E+02  0.11502893910E+03  0.41800000000E+01 0. -1.
         -5    1    3    3    0  502 -0.71856107995E+02  0.17164766535E+02  0.58983536644E+02  0.94628005693E+02  0.41800000000E+01 0. -1.
        -11    1    1    2    0    0  0.65580785792E+02 -0.19223738583E+02 -0.80481050282E+02  0.10558215306E+03  0.00000000000E+00 0.  1.
         11    1    1    2    0    0  0.10260045784E+03  0.24125512611E+02 -0.39407554798E+03  0.40792699325E+03  0.00000000000E+00 0. -1.
</event>
<event>
 7    1  0.3792780E-009  0.6189456E+02  0.7561462E-02  0.1390049E+00
          1   -1    0    0  501    0  0.00000000000E+00  0.00000000000E+00  0.67636761185E+02  0.67636761185E+02  0.00000000000E+00 0. -1.
         -1   -1    0    0    0  501 -0.00000000000E+00 -0.00000000000E+00 -0.26473887144E+03  0.26473887144E+03  0.00000000000E+00 0.  1.
         25    2    1    2    0    0  0.34250366617E+01 -0.16425224455E+02 -0.13781715738E+02  0.12695698288E+03  0.12508645386E+03 0.  0.
          5    1    3    3  502    0  0.36223631468E+02 -0.12444089379E+01  0.44935099249E+02  0.57882083366E+02  0.41800000000E+01 0. -1.
         -5    1    3    3    0  502 -0.32798594806E+02 -0.15180815517E+02 -0.58716814987E+02  0.69074899516E+02  0.41800000000E+01 0. -1.
        -11    1    1    2    0    0 -0.21020635772E+00  0.33523229271E+02 -0.18493252149E+03  0.18794650460E+03  0.00000000000E+00 0.  1.
         11    1    1    2    0    0 -0.32148303039E+01 -0.17098004816E+02  0.16121269694E+01  0.17472145144E+02  0.00000000000E+00 0. -1.
</event>
<event>
 7    1  0.2440960E-009  0.9787770E+02  0.7561462E-02  0.1284823E+00
          3   -1    0    0  501    0  0.00000000000E+00  0.00000000000E+00  0.10214389469E+03  0.10214389469E+03  0.00000000000E+00 0. -1.
         -3   -1    0    0    0  501 -0.00000000000E+00 -0.00000000000E+00 -0.13026080871E+03  0.13026080871E+03  0.00000000000E+00 0.  1.
         25    2    1    2    0    0 -0.66006357796E+01  0.99450437732E+01 -0.51860686097E+02  0.13593918833E+03  0.12508980723E+03 0.  0.
          5    1    3    3  502    0  0.92073783960E+00  0.66315849258E+02 -0.15271157228E+02  0.68185924237E+02  0.41800000000E+01 0. -1.
         -5    1    3    3    0  502 -0.75213736192E+01 -0.56370805484E+02 -0.36589528869E+02  0.67753264091E+02  0.41800000000E+01 0. -1.
        -11    1    1    2    0    0 -0.13815605079E+02  0.26851251822E+02  0.41053882261E+02  0.50963535168E+02  0.00000000000E+00 0. -1.
         11    1    1    2    0    0  0.20416240858E+02 -0.36796295596E+02 -0.17310110182E+02  0.45501979900E+02  0.00000000000E+00 0.  1.
</event>
<event>
 7    1  0.2440960E-009  0.1011231E+03  0.7561462E-02  0.1277952E+00
          1   -1    0    0  501    0  0.00000000000E+00  0.00000000000E+00  0.78762621496E+03  0.78762621496E+03  0.00000000000E+00 0. -1.
         -1   -1    0    0    0  501 -0.00000000000E+00 -0.00000000000E+00 -0.19389859049E+02  0.19389859049E+02  0.00000000000E+00 0.  1.
         25    2    1    2    0    0  0.31683753171E+02  0.55087156774E+02  0.52001615657E+03  0.53861171066E+03  0.12508923499E+03 0.  0.
          5    1    3    3  502    0  0.56969596012E+02  0.13624805757E+02  0.10148161888E+03  0.11724829027E+03  0.41800000000E+01 0. -1.
         -5    1    3    3    0  502 -0.25285842841E+02  0.41462351017E+02  0.41853453769E+03  0.42136342039E+03  0.41800000000E+01 0. -1.
        -11    1    1    2    0    0 -0.20378231833E+02 -0.71779711630E+02  0.14327796948E+03  0.16154310841E+03  0.00000000000E+00 0.  1.
         11    1    1    2    0    0 -0.11305521338E+02  0.16692554856E+02  0.10494222986E+03  0.10686125494E+03  0.00000000000E+00 0. -1.
</event>
<event>
 7    1  0.2440960E-009  0.1100267E+03  0.7561462E-02  0.1260520E+00
          1   -1    0    0  501    0  0.00000000000E+00  0.00000000000E+00  0.34273882523E+03  0.34273882523E+03  0.00000000000E+00 0. -1.
         -1   -1    0    0    0  501 -0.00000000000E+00 -0.00000000000E+00 -0.37464668792E+02  0.37464668792E+02  0.00000000000E+00 0.  1.
         25    2    1    2    0    0  0.10672507357E+02  0.13386095360E+02  0.20551945042E+03  0.24120420992E+03  0.12509251144E+03 0.  0.
          5    1    3    3  502    0  0.23662246589E+02 -0.51592737444E+02  0.69384109210E+02  0.89740400497E+02  0.41800000000E+01 0. -1.
         -5    1    3    3    0  502 -0.12989739231E+02  0.64978832803E+02  0.13613534121E+03  0.15146380942E+03  0.41800000000E+01 0. -1.
        -11    1    1    2    0    0 -0.28716242036E+02  0.34900337568E+02  0.44282335055E+02  0.63273859666E+02  0.00000000000E+00 0.  1.
         11    1    1    2    0    0  0.18043734679E+02 -0.48286432928E+02  0.55472370962E+02  0.75725424437E+02  0.00000000000E+00 0. -1.
</event>
<event>
 7    1  0.2440960E-009  0.1139893E+03  0.7561462E-02  0.1253356E+00
         -2   -1    0    0    0  501 -0.00000000000E+00  0.00000000000E+00  0.31977852937E+02  0.31977852937E+02  0.00000000000E+00 0.  1.
          2   -1    0    0  501    0  0.00000000000E+00 -0.00000000000E+00 -0.54500083917E+03  0.54500083917E+03  0.00000000000E+00 0. -1.
         25    2    1    2    0    0  0.40130097184E+02 -0.47038292488E+02 -0.36529628924E+03  0.39103976912E+03  0.12509075282E+03 0.  0.
          5    1    3    3  502    0 -0.21079898596E+02 -0.68139425314E+02 -0.23269622474E+03  0.24341805359E+03  0.41800000000E+01 0. -1.
         -5    1    3    3    0  502  0.61209995780E+02  0.21101132826E+02 -0.13260006450E+03  0.14762171553E+03  0.41800000000E+01 0. -1.
        -11    1    1    2    0    0 -0.17941570806E+02 -0.16484186364E+02 -0.84537135750E+00  0.24379151253E+02  0.00000000000E+00 0.  1.
         11    1    1    2    0    0 -0.22188526378E+02  0.63522478852E+02 -0.14688132564E+03  0.16155977174E+03  0.00000000000E+00 0. -1.
</event>
<event>
 7    1  0.3511083E-009  0.1279307E+03  0.7561462E-02  0.1230559E+00
          1   -1    0    0  501    0  0.00000000000E+00  0.00000000000E+00  0.26596855623E+03  0.26596855623E+03  0.00000000000E+00 0. -1.
         -1   -1    0    0    0  501 -0.00000000000E+00 -0.00000000000E+00 -0.67372227822E+02  0.67372227822E+02  0.00000000000E+00 0.  1.
         25    2    1    2    0    0 -0.64625814993E+02  0.33320640417E+02  0.73841898966E+02  0.16243251578E+03  0.12507971498E+03 0.  0.
          5    1    3    3  502    0 -0.32400886851E+02  0.78062847695E+02  0.23931684068E+02  0.87942160318E+02  0.41800000000E+01 0.  1.
         -5    1    3    3    0  502 -0.32224928143E+02 -0.44742207279E+02  0.49910214898E+02  0.74490355464E+02  0.41800000000E+01 0.  1.
        -11    1    1    2    0    0  0.57352057863E+02  0.21044678047E+02  0.76109734716E+02  0.97595229052E+02  0.00000000000E+00 0. -1.
         11    1    1    2    0    0  0.72737571304E+01 -0.54365318464E+02  0.48644694728E+02  0.73313039220E+02  0.00000000000E+00 0.  1.
</event>
<event>
 7    1  0.2440960E-009  0.7980908E+02  0.7561462E-02  0.1329594E+00
          1   -1    0    0  501    0  0.00000000000E+00  0.00000000000E+00  0.29602332688E+02  0.29602332688E+02  0.00000000000E+00 0. -1.
         -1   -1    0    0    0  501 -0.00000000000E+00 -0.00000000000E+00 -0.45111513543E+03  0.45111513543E+03  0.00000000000E+00 0.  1.
         25    2    1    2    0    0 -0.25281345490E+02 -0.26753918757E+02 -0.27609241514E+03  0.30533550008E+03  0.12509127591E+03 0.  0.
          5    1    3    3  502    0  0.10617188305E+02  0.11789298687E+02 -0.24177709622E+03  0.24233313621E+03  0.41800000000E+01 0. -1.
         -5    1    3    3    0  502 -0.35898533795E+02 -0.38543217444E+02 -0.34315318926E+02  0.63002363865E+02  0.41800000000E+01 0. -1.
        -11    1    1    2    0    0  0.50237309413E+02 -0.44318037890E+01 -0.46085525061E+02  0.68317668008E+02  0.00000000000E+00 0. -1.
         11    1    1    2    0    0 -0.24955963923E+02  0.31185722546E+02 -0.99334862535E+02  0.10706430003E+03  0.00000000000E+00 0.  1.
</event>
<event>
 7    1  0.2440960E-009  0.1377509E+03  0.7561462E-02  0.1216388E+00
         -1   -1    0    0    0  501 -0.00000000000E+00  0.00000000000E+00  0.52591472389E+03  0.52591472389E+03  0.00000000000E+00 0.  1.
          1   -1    0    0  501    0  0.00000000000E+00 -0.00000000000E+00 -0.46976251121E+02  0.46976251121E+02  0.00000000000E+00 0. -1.
         25    2    1    2    0    0  0.45143661998E+02  0.98775115134E+02  0.31865968723E+03  0.35914578968E+03  0.12508888196E+03 0.  0.
          5    1    3    3  502    0  0.17631750201E+02  0.12556831768E+03  0.25072694466E+03  0.28099778326E+03  0.41800000000E+01 0.  1.
         -5    1    3    3    0  502  0.27511911796E+02 -0.26793202549E+02  0.67932742572E+02  0.78148006417E+02  0.41800000000E+01 0.  1.
        -11    1    1    2    0    0 -0.38698790184E+02 -0.65239318946E+02  0.16269653076E+03  0.17951023987E+03  0.00000000000E+00 0.  1.
         11    1    1    2    0    0 -0.64448718133E+01 -0.33535796188E+02 -0.24177452198E+01  0.34234945459E+02  0.00000000000E+00 0. -1.
</event>
<event>
 7    1  0.2440960E-009  0.1589898E+03  0.7561462E-02  0.1189842E+00
          1   -1    0    0  501    0  0.00000000000E+00  0.00000000000E+00  0.85041150847E+03  0.85041150847E+03  0.00000000000E+00 0. -1.
         -1   -1    0    0    0  501 -0.00000000000E+00 -0.00000000000E+00 -0.30844045226E+02  0.30844045226E+02  0.00000000000E+00 0.  1.
         25    2    1    2    0    0 -0.11536086677E+03 -0.92802332503E+01  0.36276386984E+03  0.40079806866E+03  0.12508882551E+03 0.  0.
          5    1    3    3  502    0 -0.59035748878E+02 -0.67173213933E+02  0.18849002719E+03  0.20867060901E+03  0.41800000000E+01 0.  1.
         -5    1    3    3    0  502 -0.56325117895E+02  0.57892980683E+02  0.17427384265E+03  0.19212745965E+03  0.41800000000E+01 0.  1.
        -11    1    1    2    0    0  0.59172394846E+02 -0.41148687655E+02  0.25512779511E+03  0.26511276591E+03  0.00000000000E+00 0.  1.
         11    1    1    2    0    0  0.56188471927E+02  0.50428920905E+02  0.20167579829E+03  0.21534471913E+03  0.00000000000E+00 0. -1.
</event>
<event>
 7    1  0.2440960E-009  0.1402330E+03  0.7561462E-02  0.1213016E+00
         -1   -1    0    0    0  501 -0.00000000000E+00  0.00000000000E+00  0.43849257934E+03  0.43849257934E+03  0.00000000000E+00 0.  1.
          1   -1    0    0  501    0  0.00000000000E+00 -0.00000000000E+00 -0.78082392525E+02  0.78082392525E+02  0.00000000000E+00 0. -1.
         25    2    1    2    0    0  0.12944184129E+03 -0.32402056793E+02  0.28378943210E+03  0.33762226689E+03  0.12508904734E+03 0.  0.
          5    1    3    3  502    0  0.10170281809E+02 -0.73948956213E+01 -0.11879395043E+02  0.17796391205E+02  0.41800000000E+01 0.  1.
         -5    1    3    3    0  502  0.11927155949E+03 -0.25007161172E+02  0.29566882714E+03  0.31982587568E+03  0.41800000000E+01 0.  1.
        -11    1    1    2    0    0 -0.73552438858E+02 -0.11190246529E+02  0.78358257536E+02  0.10805183665E+03  0.00000000000E+00 0.  1.
         11    1    1    2    0    0 -0.55889402437E+02  0.43592303322E+02 -0.17375028209E+01  0.70900868328E+02  0.00000000000E+00 0. -1.
</event>
<event>
 7    1  0.2440960E-009  0.6458280E+02  0.7561462E-02  0.1379548E+00
          2   -1    0    0  501    0  0.00000000000E+00  0.00000000000E+00  0.10602463777E+03  0.10602463777E+03  0.00000000000E+00 0. -1.
         -2   -1    0    0    0  501 -0.00000000000E+00 -0.00000000000E+00 -0.13697898665E+03  0.13697898665E+03  0.00000000000E+00 0.  1.
         25    2    1    2    0    0  0.51040198632E+01  0.51842713793E+02 -0.10920045954E+02  0.13594179758E+03  0.12508879619E+03 0.  0.
          5    1    3    3  502    0 -0.28133251709E+01  0.23657628970E+02  0.56968972161E+02  0.61891311152E+02  0.41800000000E+01 0. -1.
         -5    1    3    3    0  502  0.79173450341E+01  0.28185084823E+02 -0.67889018115E+02  0.74050486423E+02  0.41800000000E+01 0. -1.
        -11    1    1    2    0    0 -0.26550203667E+02 -0.99723938164E+01 -0.45464381112E+02  0.53585183615E+02  0.00000000000E+00 0.  1.
         11    1    1    2    0    0  0.21446183803E+02 -0.41870319976E+02  0.25430078187E+02  0.53476643231E+02  0.00000000000E+00 0. -1.
</event>
<event>
 7    1  0.2440960E-009  0.5329809E+03  0.7561462E-02  0.1005512E+00
         -1   -1    0    0    0  501 -0.00000000000E+00  0.00000000000E+00  0.62755522319E+03  0.62755522319E+03  0.00000000000E+00 0.  1.
          1   -1    0    0  501    0  0.00000000000E+00 -0.00000000000E+00 -0.60198746021E+03  0.60198746021E+03  0.00000000000E+00 0. -1.
         25    2    1    2    0    0 -0.68482825685E+02 -0.51856120274E+03  0.31659601515E+03  0.62408018902E+03  0.12508967628E+03 0.  0.
          5    1    3    3  502    0 -0.73765709242E+02 -0.13511203753E+03  0.81187144611E+02  0.17408465583E+03  0.41800000000E+01 0.  1.
         -5    1    3    3    0  502  0.52828835569E+01 -0.38344916521E+03  0.23540887054E+03  0.44999553319E+03  0.41800000000E+01 0.  1.
        -11    1    1    2    0    0  0.20533605509E+02  0.40059357814E+03 -0.24519674390E+03  0.47012582041E+03  0.00000000000E+00 0. -1.
         11    1    1    2    0    0  0.47949220176E+02  0.11796762461E+03 -0.45831508271E+02  0.13533667397E+03  0.00000000000E+00 0.  1.
</event>
<event>
 7    1  0.2440960E-009  0.2349897E+03  0.7561462E-02  0.1123176E+00
         -1   -1    0    0    0  501 -0.00000000000E+00  0.00000000000E+00  0.53583991533E+03  0.53583991533E+03  0.00000000000E+00 0.  1.
          1   -1    0    0  501    0  0.00000000000E+00 -0.00000000000E+00 -0.12585590275E+03  0.12585590275E+03  0.00000000000E+00 0. -1.
         25    2    1    2    0    0  0.19744919685E+03 -0.10632408527E+03  0.11938170666E+03  0.28317548253E+03  0.12508143578E+03 0.  0.
          5    1    3    3  502    0  0.17044393998E+03 -0.75385025630E+02  0.14360239821E+03  0.23531502276E+03  0.41800000000E+01 0. -1.
         -5    1    3    3    0  502  0.27005256862E+02 -0.30939059643E+02 -0.24220691553E+02  0.47860459767E+02  0.41800000000E+01 0. -1.
        -11    1    1    2    0    0 -0.84893193667E+02 -0.35795709682E+01  0.11040528540E+03  0.13931616813E+03  0.00000000000E+00 0. -1.
         11    1    1    2    0    0 -0.11255600318E+03  0.10990365624E+03  0.18019702052E+03  0.23920416742E+03  0.00000000000E+00 0.  1.
</event>
<event>
 7    1  0.2440960E-009  0.1090564E+03  0.7561462E-02  0.1262327E+00
          2   -1    0    0  501    0  0.00000000000E+00  0.00000000000E+00  0.79124644293E+02  0.79124644293E+02  0.00000000000E+00 0. -1.
         -2   -1    0    0    0  501 -0.00000000000E+00 -0.00000000000E+00 -0.17681889396E+03  0.17681889396E+03  0.00000000000E+00 0.  1.
         25    2    1    2    0    0 -0.40391211024E+02  0.22353608947E+02 -0.37521901121E+02  0.13852753523E+03  0.12510336204E+03 0.  0.
          5    1    3    3  502    0 -0.51403022169E+02  0.68179043647E+02 -0.30112227071E+02  0.90635927203E+02  0.41800000000E+01 0.  1.
         -5    1    3    3    0  502  0.11011811144E+02 -0.45825434700E+02 -0.74096740501E+01  0.47891608030E+02  0.41800000000E+01 0.  1.
        -11    1    1    2    0    0 -0.16147650171E+02  0.11119398466E+02  0.93818414529E+01  0.21734916088E+02  0.00000000000E+00 0. -1.
         11    1    1    2    0    0  0.56538861195E+02 -0.33473007413E+02 -0.69554190002E+02  0.95681086937E+02  0.00000000000E+00 0.  1.
</event>
<event>
 7    1  0.2440960E-009  0.1740774E+03  0.7561462E-02  0.1173661E+00
          1   -1    0    0  501    0  0.00000000000E+00  0.00000000000E+00  0.34844899074E+02  0.34844899074E+02  0.00000000000E+00 0. -1.
         -1   -1    0    0    0  501 -0.00000000000E+00 -0.00000000000E+00 -0.99475933520E+03  0.99475933520E+03  0.00000000000E+00 0.  1.
         25    2    1    2    0    0 -0.75536087947E+02 -0.12902310141E+03 -0.56542860942E+03  0.59808844735E+03  0.12509043620E+03 0.  0.
          5    1    3    3  502    0  0.19163809338E+02 -0.73778033340E+02 -0.14860435635E+03  0.16706638476E+03  0.41800000000E+01 0.  1.
         -5    1    3    3    0  502 -0.94699897285E+02 -0.55245068072E+02 -0.41682425307E+03  0.43102206259E+03  0.41800000000E+01 0.  1.
        -11    1    1    2    0    0  0.59426053359E+02  0.40012072996E+02 -0.25810482306E+03  0.26786287815E+03  0.00000000000E+00 0.  1.
         11    1    1    2    0    0  0.16110034588E+02  0.89011028416E+02 -0.13638100365E+03  0.16365290878E+03  0.00000000000E+00 0. -1.
</event>
<event>
 7    1  0.2440960E-009  0.1130032E+03  0.7561462E-02  0.1255107E+00
         -3   -1    0    0    0  501 -0.00000000000E+00  0.00000000000E+00  0.28374081141E+02  0.28374081141E+02  0.00000000000E+00 0.  1.
          3   -1    0    0  501    0  0.00000000000E+00 -0.00000000000E+00 -0.56572311918E+03  0.56572311918E+03  0.00000000000E+00 0. -1.
         25    2    1    2    0    0 -0.13504957914E+02  0.56771177870E+02 -0.22947403065E+03  0.26778873110E+03  0.12508846164E+03 0.  0.
          5    1    3    3  502    0  0.52354570729E+02  0.15041309750E+02 -0.13227507963E+03  0.14311328089E+03  0.41800000000E+01 0. -1.
         -5    1    3    3    0  502 -0.65859528643E+02  0.41729868120E+02 -0.97198951020E+02  0.12467545021E+03  0.41800000000E+01 0. -1.
        -11    1    1    2    0    0  0.43237885636E+01  0.17720099096E+02 -0.13980514242E+02  0.22981554299E+02  0.00000000000E+00 0.  1.
         11    1    1    2    0    0  0.91811693502E+01 -0.74491276966E+02 -0.29389449315E+03  0.30332691492E+03  0.00000000000E+00 0. -1.
</event>
<event>
 7    1  0.2440960E-009  0.1208084E+03  0.7561462E-02  0.1241769E+00
         -2   -1    0    0    0  501 -0.00000000000E+00  0.00000000000E+00  0.21665535005E+03  0.21665535005E+03  0.00000000000E+00 0. -1.
          2   -1    0    0  501    0  0.00000000000E+00 -0.00000000000E+00 -0.12191293857E+03  0.12191293857E+03  0.00000000000E+00 0.  1.
         25    2    1    2    0    0 -0.34373108852E+02  0.75245634165E+02 -0.41336211621E+02  0.15556583446E+03  0.12509448584E+03 0.  0.
          5    1    3    3  502    0 -0.74174322217E+02  0.80166984480E+02 -0.34893790650E+02  0.11473283969E+03  0.41800000000E+01 0.  1.
         -5    1    3    3    0  502  0.39801213366E+02 -0.49213503145E+01 -0.64424209704E+01  0.40832994775E+02  0.41800000000E+01 0.  1.
        -11    1    1    2    0    0  0.19620729105E+02 -0.50390356930E+01 -0.82142780643E+01  0.21859534658E+02  0.00000000000E+00 0.  1.
         11    1    1    2    0    0  0.14752379746E+02 -0.70206598472E+02  0.14429290117E+03  0.16114291950E+03  0.00000000000E+00 0. -1.
</event>
<event>
 7    1  0.2440960E-009  0.1515564E+03  0.7561462E-02  0.1198573E+00
          2   -1    0    0  501    0  0.00000000000E+00  0.00000000000E+00  0.65028060611E+03  0.65028060611E+03  0.00000000000E+00 0.  1.
         -2   -1    0    0    0  501 -0.00000000000E+00 -0.00000000000E+00 -0.15934931043E+03  0.15934931043E+03  0.00000000000E+00 0. -1.
         25    2    1    2    0    0  0.29348514093E+02 -0.13427392380E+03  0.58752331426E+03  0.61621636556E+03  0.12509253572E+03 0.  0.
          5    1    3    3  502    0 -0.27805043363E+02 -0.48968074000E+02  0.77190425694E+02  0.95639044989E+02  0.41800000000E+01 0. -1.
         -5    1    3    3    0  502  0.57153557456E+02 -0.85305849797E+02  0.51033288857E+03  0.52057732057E+03  0.41800000000E+01 0. -1.
        -11    1    1    2    0    0 -0.23414431704E+02  0.24299131411E+02  0.14728616645E+02  0.36818684762E+02  0.00000000000E+00 0.  1.
         11    1    1    2    0    0 -0.59340823885E+01  0.10997479239E+03 -0.11132063523E+03  0.15659486621E+03  0.00000000000E+00 0. -1.
</event>
<event>
 7    1  0.2440960E-009  0.8178254E+02  0.7561462E-02  0.1324068E+00
          1   -1    0    0  501    0  0.00000000000E+00  0.00000000000E+00  0.44423347818E+02  0.44423347818E+02  0.00000000000E+00 0. -1.
         -1   -1    0    0    0  501 -0.00000000000E+00 -0.00000000000E+00 -0.26441217687E+03  0.26441217687E+03  0.00000000000E+00 0.  1.
         25    2    1    2    0    0 -0.14154305474E+01 -0.10509199883E+02 -0.14185407694E+03  0.18942787439E+03  0.12509154138E+03 0.  0.
          5    1    3    3  502    0 -0.48716683006E+01  0.33806026835E+02 -0.14061576254E+03  0.14476479433E+03  0.41800000000E+01 0. -1.
         -5    1    3    3    0  502  0.34562377532E+01 -0.44315226717E+02 -0.12383144058E+01  0.44663080066E+02  0.41800000000E+01 0. -1.
        -11    1    1    2    0    0  0.35620199088E+02 -0.18065215438E+02 -0.16192259410E+02  0.43096865973E+02  0.00000000000E+00 0. -1.
         11    1    1    2    0    0 -0.34204768541E+02  0.28574415321E+02 -0.61942492695E+02  0.76310784317E+02  0.00000000000E+00 0.  1.
</event>
<event>
 7    1  0.2483428E-009  0.8037943E+02  0.7561462E-02  0.1327978E+00
         -3   -1    0    0    0  501 -0.00000000000E+00  0.00000000000E+00  0.56362576757E+02  0.56362576757E+02  0.00000000000E+00 0.  1.
          3   -1    0    0  501    0  0.00000000000E+00 -0.00000000000E+00 -0.44456418418E+03  0.44456418418E+03  0.00000000000E+00 0. -1.
         25    2    1    2    0    0  0.73633977773E+02 -0.22907615762E+02 -0.34233387307E+03  0.37254070429E+03  0.12508946461E+03 0.  0.
          5    1    3    3  502    0  0.69506533419E+02 -0.20338992835E+02 -0.72259154171E+02  0.10238989491E+03  0.41800000000E+01 0.  1.
         -5    1    3    3    0  502  0.41274443536E+01 -0.25686229267E+01 -0.27007471890E+03  0.27015080938E+03  0.41800000000E+01 0.  1.
        -11    1    1    2    0    0 -0.66123649196E+02  0.10004757891E+02  0.12590876924E+02  0.68051174458E+02  0.00000000000E+00 0.  1.
         11    1    1    2    0    0 -0.75103285769E+01  0.12902857871E+02 -0.58458611276E+02  0.60334882190E+02  0.00000000000E+00 0. -1.
</event>
<event>
 7    1  0.2440960E-009  0.1100061E+03  0.7561462E-02  0.1260559E+00
          2   -1    0    0  501    0  0.00000000000E+00  0.00000000000E+00  0.12839973059E+04  0.12839973059E+04  0.00000000000E+00 0. -1.
         -2   -1    0    0    0  501 -0.00000000000E+00 -0.00000000000E+00 -0.18809096518E+02  0.18809096518E+02  0.00000000000E+00 0.  1.
         25    2    1    2    0    0  0.58631983670E+02  0.87811139826E+01  0.10669238585E+04  0.10758666768E+04  0.12509104264E+03 0.  0.
          5    1    3    3  502    0 -0.58574091095E+01 -0.50311984015E+02  0.40370593457E+03  0.40689256443E+03  0.41800000000E+01 0.  1.
         -5    1    3    3    0  502  0.64489392779E+02  0.59093097997E+02  0.66321792394E+03  0.66897411239E+03  0.41800000000E+01 0.  1.
        -11    1    1    2    0    0 -0.41711587611E+01 -0.24565441477E+02  0.48493582397E+01  0.25384557426E+02  0.00000000000E+00 0.  1.
         11    1    1    2    0    0 -0.54460824909E+02  0.15784327495E+02  0.19341499262E+03  0.20155516817E+03  0.00000000000E+00 0. -1.
</event>
<event>
 7    1  0.2440960E-009  0.1572035E+03  0.7561462E-02  0.1191891E+00
          3   -1    0    0  501    0  0.00000000000E+00  0.00000000000E+00  0.12548130150E+03  0.12548130150E+03  0.00000000000E+00 0. -1.
         -3   -1    0    0    0  501 -0.00000000000E+00 -0.00000000000E+00 -0.27363008805E+03  0.27363008805E+03  0.00000000000E+00 0.  1.
         25    2    1    2    0    0 -0.52566324302E+00 -0.14549335774E+03 -0.65099175304E+02  0.20261374991E+03  0.12508331447E+03 0.  0.
          5    1    3    3  502    0 -0.41675635726E+02 -0.59198789485E+02 -0.77478416200E+02  0.10612131109E+03  0.41800000000E+01 0.  1.
         -5    1    3    3    0  502  0.41149972483E+02 -0.86294568250E+02  0.12379240896E+02  0.96492438823E+02  0.41800000000E+01 0.  1.
        -11    1    1    2    0    0 -0.68848424395E+01  0.71207142760E+02  0.15166533381E+02  0.73129214205E+02  0.00000000000E+00 0. -1.
         11    1    1    2    0    0  0.74105056825E+01  0.74286214975E+02 -0.98216144620E+02  0.12336842543E+03  0.00000000000E+00 0.  1.
</event>
<event>
 7    1  0.2440960E-009  0.1844842E+03  0.7561462E-02  0.1163532E+00
         -2   -1    0    0    0  501 -0.00000000000E+00  0.00000000000E+00  0.10523369194E+03  0.10523369194E+03  0.00000000000E+00 0.  1.
          2   -1    0    0  501    0  0.00000000000E+00 -0.00000000000E+00 -0.35883517846E+03  0.35883517846E+03  0.00000000000E+00 0. -1.
         25    2    1    2    0    0  0.41337134496E+02 -0.15345087493E+03 -0.10527613220E+03  0.22800250352E+03  0.12508456298E+03 0.  0.
          5    1    3    3  502    0  0.83444448861E+02 -0.11025400021E+03 -0.91881257631E+02  0.16606793343E+03  0.41800000000E+01 0. -1.
         -5    1    3    3    0  502 -0.42107314366E+02 -0.43196874718E+02 -0.13394874570E+02  0.61934570098E+02  0.41800000000E+01 0. -1.
        -11    1    1    2    0    0 -0.57337979002E+02  0.12501090211E+03 -0.76977051168E+02  0.15760975823E+03  0.00000000000E+00 0.  1.
         11    1    1    2    0    0  0.16000844506E+02  0.28439972818E+02 -0.71348303144E+02  0.78456608647E+02  0.00000000000E+00 0. -1.
</event>
<event>
 7    1  0.2440960E-009  0.1486593E+03  0.7561462E-02  0.1202130E+00
          2   -1    0    0  501    0  0.00000000000E+00  0.00000000000E+00  0.29833072486E+02  0.29833072486E+02  0.00000000000E+00 0. -1.
         -2   -1    0    0    0  501 -0.00000000000E+00 -0.00000000000E+00 -0.87227358725E+03  0.87227358725E+03  0.00000000000E+00 0.  1.
         25    2    1    2    0    0 -0.71782462752E+02 -0.85612395884E+02 -0.34058151263E+03  0.37963854407E+03  0.12508978020E+03 0.  0.
          5    1    3    3  502    0 -0.93460409386E+02 -0.22161109362E+02 -0.24144062298E+03  0.25987883660E+03  0.41800000000E+01 0.  1.
         -5    1    3    3    0  502  0.21677946634E+02 -0.63451286523E+02 -0.99140889656E+02  0.11975970747E+03  0.41800000000E+01 0.  1.
        -11    1    1    2    0    0  0.13738971689E+02 -0.13419364874E+02 -0.22618069942E+02  0.29671801169E+02  0.00000000000E+00 0. -1.
         11    1    1    2    0    0  0.58043491063E+02  0.99031760758E+02 -0.47924093219E+03  0.49279631449E+03  0.00000000000E+00 0.  1.
</event>
<event>
 7    1  0.2440960E-009  0.1628917E+03  0.7561462E-02  0.1185470E+00
         -2   -1    0    0    0  501 -0.00000000000E+00  0.00000000000E+00  0.11267947007E+04  0.11267947007E+04  0.00000000000E+00 0.  1.
          2   -1    0    0  501    0  0.00000000000E+00 -0.00000000000E+00 -0.41437520425E+02  0.41437520425E+02  0.00000000000E+00 0. -1.
         25    2    1    2    0    0  0.11738828269E+03 -0.50930532859E+02  0.93462215666E+03  0.95159856720E+03  0.12508928533E+03 0.  0.
          5    1    3    3  502    0  0.13698035730E+03 -0.15309737660E+02  0.70248824862E+03  0.71589469770E+03  0.41800000000E+01 0.  1.
         -5    1    3    3    0  502 -0.19592074602E+02 -0.35620795199E+02  0.23213390803E+03  0.23570386950E+03  0.41800000000E+01 0.  1.
        -11    1    1    2    0    0 -0.34338446329E+02  0.53908335255E+02  0.10177432507E+03  0.12018007635E+03  0.00000000000E+00 0.  1.
         11    1    1    2    0    0 -0.83049836364E+02 -0.29778023958E+01  0.48960698570E+02  0.96453577599E+02  0.00000000000E+00 0. -1.
</event>
<event>
 7    1  0.2440960E-009  0.8975654E+02  0.7561462E-02  0.1303442E+00
         -1   -1    0    0    0  501 -0.00000000000E+00  0.00000000000E+00  0.22382448629E+02  0.22382448629E+02  0.00000000000E+00 0.  1.
          1   -1    0    0  501    0  0.00000000000E+00 -0.00000000000E+00 -0.54625102002E+03  0.54625102002E+03  0.00000000000E+00 0. -1.
         25    2    1    2    0    0 -0.20165751673E+02 -0.82074166196E+01 -0.28961183217E+03  0.31622324534E+03  0.12509239920E+03 0.  0.
          5    1    3    3  502    0 -0.58277024314E+02 -0.16026796080E+02 -0.67543942221E+02  0.90734372133E+02  0.41800000000E+01 0. -1.
         -5    1    3    3    0  502  0.38111272641E+02  0.78193794603E+01 -0.22206788994E+03  0.22548887321E+03  0.41800000000E+01 0. -1.
        -11    1    1    2    0    0  0.23764215050E+01 -0.33954628868E+02 -0.38557748596E+02  0.51432131761E+02  0.00000000000E+00 0.  1.
         11    1    1    2    0    0  0.17789330168E+02  0.42162045487E+02 -0.19569899063E+03  0.20097809154E+03  0.00000000000E+00 0. -1.
</event>
<event>
 7    1  0.2440960E-009  0.1048634E+03  0.7561462E-02  0.1270389E+00
         -2   -1    0    0    0  501 -0.00000000000E+00  0.00000000000E+00  0.14352193626E+02  0.14352193626E+02  0.00000000000E+00 0.  1.
          2   -1    0    0  501    0  0.00000000000E+00 -0.00000000000E+00 -0.10872613124E+04  0.10872613124E+04  0.00000000000E+00 0. -1.
         25    2    1    2    0    0  0.23159050740E+02 -0.53780644103E+02 -0.66829414297E+03  0.68241702508E+03  0.12508890950E+03 0.  0.
          5    1    3    3  502    0 -0.25787851127E+02 -0.63720976986E+02 -0.54486053515E+03  0.54919564032E+03  0.41800000000E+01 0.  1.
         -5    1    3    3    0  502  0.48946901867E+02  0.99403328829E+01 -0.12343360781E+03  0.13322138476E+03  0.41800000000E+01 0.  1.
        -11    1    1    2    0    0 -0.14127505891E+02 -0.15441376379E+02 -0.22388511962E+02  0.30647479424E+02  0.00000000000E+00 0.  1.
         11    1    1    2    0    0 -0.90315448485E+01  0.69222020482E+02 -0.38222646379E+03  0.38854900147E+03  0.00000000000E+00 0. -1.
</event>
<event>
 7    1  0.2440960E-009  0.1437100E+03  0.7561462E-02  0.1208422E+00
         -1   -1    0    0    0  501 -0.00000000000E+00  0.00000000000E+00  0.18506725632E+03  0.18506725632E+03  0.00000000000E+00 0.  1.
          1   -1    0    0  501    0  0.00000000000E+00 -0.00000000000E+00 -0.30968308415E+03  0.30968308415E+03  0.00000000000E+00 0. -1.
         25    2    1    2    0    0  0.10263490185E+02 -0.94122288498E+02 -0.26163580558E+03  0.30506397869E+03  0.12508553836E+03 0.  0.
          5    1    3    3  502    0  0.66977178801E+02 -0.62550169112E+02 -0.15831463707E+03  0.18297394035E+03  0.41800000000E+01 0. -1.
         -5    1    3    3    0  502 -0.56713688617E+02 -0.31572119386E+02 -0.10332116851E+03  0.12209003834E+03  0.41800000000E+01 0. -1.
        -11    1    1    2    0    0 -0.33819212557E+02  0.10066182722E+03  0.10433327022E+03  0.14886898224E+03  0.00000000000E+00 0. -1.
         11    1    1    2    0    0  0.23555722373E+02 -0.65395387229E+01  0.32686707536E+02  0.40817379543E+02  0.00000000000E+00 0.  1.
</event>
<event>
 7    1  0.2440960E-009  0.7620460E+02  0.7561462E-02  0.1340181E+00
          1   -1    0    0  501    0  0.00000000000E+00  0.00000000000E+00  0.20192832171E+03  0.20192832171E+03  0.00000000000E+00 0. -1.
         -1   -1    0    0    0  501 -0.00000000000E+00 -0.00000000000E+00 -0.62310268848E+02  0.62310268848E+02  0.00000000000E+00 0.  1.
         25    2    1    2    0    0  0.51264878720E+02  0.26628964307E+01  0.61981600658E+02  0.14874276257E+03  0.12509001475E+03 0.  0.
          5    1    3    3  502    0 -0.86715716783E+01  0.75823075583E+01 -0.33585449050E+02  0.35751116502E+02  0.41800000000E+01 0. -1.
         -5    1    3    3    0  502  0.59936450398E+02 -0.49194111276E+01  0.95567049708E+02  0.11299164607E+03  0.41800000000E+01 0. -1.
        -11    1    1    2    0    0 -0.64352690354E+02 -0.95913904729E+01  0.76811663697E+02  0.10066426976E+03  0.00000000000E+00 0. -1.
         11    1    1    2    0    0  0.13087811634E+02  0.69284940422E+01  0.82478850330E+00  0.14831558217E+02  0.00000000000E+00 0.  1.
</event>
<event>
 7    1  0.2440960E-009  0.9366289E+02  0.7561462E-02  0.1294216E+00
         -2   -1    0    0    0  501 -0.00000000000E+00  0.00000000000E+00  0.34817344220E+02  0.34817344220E+02  0.00000000000E+00 0.  1.
          2   -1    0    0  501    0  0.00000000000E+00 -0.00000000000E+00 -0.31142525138E+03  0.31142525138E+03  0.00000000000E+00 0. -1.
         25    2    1    2    0    0  0.37416086034E+02  0.38944479732E+02 -0.17703094843E+03  0.22339223955E+03  0.12508996759E+03 0.  0.
          5    1    3    3  502    0  0.16136433825E+02  0.73090885578E+02 -0.16493256175E+03  0.18117087066E+03  0.41800000000E+01 0. -1.
         -5    1    3    3    0  502  0.21279652209E+02 -0.34146405846E+02 -0.12098386681E+02  0.42221368886E+02  0.41800000000E+01 0. -1.
        -11    1    1    2    0    0 -0.48406881603E+02 -0.36557491775E+02 -0.85479198965E+02  0.10481588547E+03  0.00000000000E+00 0. -1.
         11    1    1    2    0    0  0.10990795569E+02 -0.23869879578E+01 -0.14097759762E+02  0.18034470579E+02  0.00000000000E+00 0.  1.
</event>
<event>
 7    1  0.2440960E-009  0.9896905E+02  0.7561462E-02  0.1282479E+00
         -1   -1    0    0    0  501 -0.00000000000E+00  0.00000000000E+00  0.43274365582E+03  0.43274365582E+03  0.00000000000E+00 0.  1.
          1   -1    0    0  501    0  0.00000000000E+00 -0.00000000000E+00 -0.33785741616E+02  0.33785741616E+02  0.00000000000E+00 0. -1.
         25    2    1    2    0    0  0.16347105310E+02 -0.32026273593E+02  0.14787558452E+03  0.19699781401E+03  0.12509212674E+03 0.  0.
          5    1    3    3  502    0  0.37814183355E+02 -0.59949929461E+02  0.35946769629E+02  0.79583598510E+02  0.41800000000E+01 0. -1.
         -5    1    3    3    0  502 -0.21467078045E+02  0.27923655868E+02  0.11192881490E+03  0.11741421550E+03  0.41800000000E+01 0. -1.
        -11    1    1    2    0    0 -0.12527371798E+02 -0.28336995992E+02  0.13642567223E+03  0.13989955121E+03  0.00000000000E+00 0.  1.
         11    1    1    2    0    0 -0.38197335117E+01  0.60363269585E+02  0.11465665745E+03  0.12963203222E+03  0.00000000000E+00 0. -1.
</event>
<event>
 7    1  0.2440960E-009  0.1002671E+03  0.7561462E-02  0.1279735E+00
         -1   -1    0    0    0  501 -0.00000000000E+00  0.00000000000E+00  0.65881299781E+02  0.65881299781E+02  0.00000000000E+00 0.  1.
          1   -1    0    0  501    0  0.00000000000E+00 -0.00000000000E+00 -0.48458251477E+03  0.48458251477E+03  0.00000000000E+00 0. -1.
         25    2    1    2    0    0 -0.38225400805E+01  0.21559517767E+02 -0.56757098538E+01  0.12711815521E+03  0.12508951628E+03 0.  0.
          5    1    3    3  502    0  0.50262577889E+02 -0.27493330042E+01 -0.34385503911E+02  0.61104180276E+02  0.41800000000E+01 0. -1.
         -5    1    3    3    0  502 -0.54085117970E+02  0.24308850771E+02  0.28709794057E+02  0.66013974933E+02  0.41800000000E+01 0. -1.
        -11    1    1    2    0    0  0.31692310052E+02 -0.44396679100E+02 -0.29277003051E+03  0.29780825777E+03  0.00000000000E+00 0. -1.
         11    1    1    2    0    0 -0.27869769972E+02  0.22837161333E+02 -0.12025547463E+03  0.12553740157E+03  0.00000000000E+00 0.  1.
</event>
<event>
 7    1  0.2440960E-009  0.1385422E+03  0.7561462E-02  0.1215304E+00
          1   -1    0    0  501    0  0.00000000000E+00  0.00000000000E+00  0.34936893651E+02  0.34936893651E+02  0.00000000000E+00 0. -1.
         -1   -1    0    0    0  501 -0.00000000000E+00 -0.00000000000E+00 -0.59839705497E+03  0.59839705497E+03  0.00000000000E+00 0.  1.
         25    2    1    2    0    0  0.46762232135E+02 -0.74390680052E+02 -0.22573313317E+03  0.27262232191E+03  0.12508718304E+03 0.  0.
          5    1    3    3  502    0  0.20294634178E+02 -0.10653682344E+03 -0.13929094828E+03  0.17658258011E+03  0.41800000000E+01 0. -1.
         -5    1    3    3    0  502  0.26467597957E+02  0.32146143390E+02 -0.86442184893E+02  0.96039741803E+02  0.41800000000E+01 0. -1.
        -11    1    1    2    0    0 -0.14398613584E+02  0.89736378217E+02 -0.24237031885E+03  0.25884997414E+03  0.00000000000E+00 0.  1.
         11    1    1    2    0    0 -0.32363618551E+02 -0.15345698165E+02 -0.95356709288E+02  0.10186165257E+03  0.00000000000E+00 0. -1.
</event>
<event>
 7    1  0.2440960E-009  0.1891812E+03  0.7561462E-02  0.1159202E+00
         -2   -1    0    0    0  501 -0.00000000000E+00  0.00000000000E+00  0.52503254077E+02  0.52503254077E+02  0.00000000000E+00 0.  1.
          2   -1    0    0  501    0  0.00000000000E+00 -0.00000000000E+00 -0.85470222748E+03  0.85470222748E+03  0.00000000000E+00 0. -1.
         25    2    1    2    0    0 -0.88517147498E+02  0.14878080279E+03 -0.53752967617E+03  0.57840879073E+03  0.12509022247E+03 0.  0.
          5    1    3    3  502    0  0.38422401581E+01  0.95141770849E+02 -0.16194304820E+03  0.18790886788E+03  0.41800000000E+01 0.  1.
         -5    1    3    3    0  502 -0.92359387656E+02  0.53639031940E+02 -0.37558662797E+03  0.39049992285E+03  0.41800000000E+01 0.  1.
        -11    1    1    2    0    0  0.27571110369E+02 -0.78164400413E+02 -0.55442333904E+02  0.99718062595E+02  0.00000000000E+00 0.  1.
         11    1    1    2    0    0  0.60946037129E+02 -0.70616402376E+02 -0.20922696333E+03  0.22907862823E+03  0.00000000000E+00 0. -1.
</event>
<event>
 7    1  0.2440960E-009  0.1556632E+03  0.7561462E-02  0.1193682E+00
         -2   -1    0    0    0  501 -0.00000000000E+00  0.00000000000E+00  0.38203929405E+02  0.38203929405E+02  0.00000000000E+00 0.  1.
          2   -1    0    0  501    0  0.00000000000E+00 -0.00000000000E+00 -0.84863486266E+03  0.84863486266E+03  0.00000000000E+00 0. -1.
         25    2    1    2    0    0  0.86919359033E+02 -0.10693636111E+03 -0.33305229519E+03  0.38152459570E+03  0.12508727148E+03 0.  0.
          5    1    3    3  502    0  0.78348541418E+02 -0.12388161998E+03 -0.33093237265E+03  0.36196527096E+03  0.41800000000E+01 0.  1.
         -5    1    3    3    0  502  0.85708176147E+01  0.16945258868E+02 -0.21199225433E+01  0.19559324740E+02  0.41800000000E+01 0.  1.
        -11    1    1    2    0    0 -0.92061952281E+02  0.95209704705E+02 -0.47388135181E+03  0.49204047244E+03  0.00000000000E+00 0. -1.
         11    1    1    2    0    0  0.51425932482E+01  0.11726656406E+02 -0.34972862531E+01  0.13273723928E+02  0.00000000000E+00 0.  1.
</event>
<event>
 7    1  0.2440960E-009  0.1148796E+03  0.7561462E-02  0.1251791E+00
          1   -1    0    0  501    0  0.00000000000E+00  0.00000000000E+00  0.14086809946E+03  0.14086809946E+03  0.00000000000E+00 0. -1.
         -1   -1    0    0    0  501 -0.00000000000E+00 -0.00000000000E+00 -0.13498704136E+03  0.13498704136E+03  0.00000000000E+00 0.  1.
         25    2    1    2    0    0 -0.65937528173E+02 -0.51770998256E+02  0.58311207327E+01  0.15069724544E+03  0.12509062288E+03 0.  0.
          5    1    3    3  502    0 -0.25600844628E+02 -0.82888810674E+02 -0.25777846596E+02  0.90597615618E+02  0.41800000000E+01 0. -1.
         -5    1    3    3    0  502 -0.40336683545E+02  0.31117812418E+02  0.31608967328E+02  0.60099629821E+02  0.41800000000E+01 0. -1.
        -11    1    1    2    0    0  0.44170922305E+02  0.54165312517E+02  0.39321076021E+02  0.80194129939E+02  0.00000000000E+00 0. -1.
         11    1    1    2    0    0  0.21766605868E+02 -0.23943142610E+01 -0.39271138655E+02  0.44963765446E+02  0.00000000000E+00 0.  1.
</event>
<event>
 7    1  0.2440960E-009  0.1348145E+03  0.7561462E-02  0.1220482E+00
          2   -1    0    0  501    0  0.00000000000E+00  0.00000000000E+00  0.35451326474E+03  0.35451326474E+03  0.00000000000E+00 0. -1.
         -2   -1    0    0    0  501 -0.00000000000E+00 -0.00000000000E+00 -0.70337148947E+02  0.70337148947E+02  0.00000000000E+00 0.  1.
         25    2    1    2    0    0  0.10832917406E+03  0.20049384166E+02  0.19623825531E+03  0.25747462629E+03  0.12508614063E+03 0.  0.
          5    1    3    3  502    0  0.17215725408E+02 -0.40294814562E+02  0.10908478700E+03  0.11763084815E+03  0.41800000000E+01 0. -1.
         -5    1    3    3    0  502  0.91113448654E+02  0.60344198729E+02  0.87153468312E+02  0.13984377814E+03  0.41800000000E+01 0. -1.
        -11    1    1    2    0    0 -0.60499030136E+02  0.76415581758E+01 -0.28970542491E+01  0.61048496968E+02  0.00000000000E+00 0.  1.
         11    1    1    2    0    0 -0.47830143926E+02 -0.27690942342E+02  0.90834914731E+02  0.10632729043E+03  0.00000000000E+00 0. -1.
</event>
<event>
 7    1  0.2440960E-009  0.1336291E+03  0.7561462E-02  0.1222168E+00
          1   -1    0    0  501    0  0.00000000000E+00  0.00000000000E+00  0.38062566893E+03  0.38062566893E+03  0.00000000000E+00 0. -1.
         -1   -1    0    0    0  501 -0.00000000000E+00 -0.00000000000E+00 -0.59119322551E+02  0.59119322551E+02  0.00000000000E+00 0.  1.
         25    2    1    2    0    0 -0.43756549168E+02  0.83098210395E+02  0.13191267592E+03  0.20461757327E+03  0.12508976399E+03 0.  0.
          5    1    3    3  502    0  0.28392060817E+02  0.20968811332E+02 -0.69307168844E+01  0.36211978717E+02  0.41800000000E+01 0.  1.
         -5    1    3    3    0  502 -0.72148609985E+02  0.62129399062E+02  0.13884339281E+03  0.16840559455E+03  0.41800000000E+01 0.  1.
        -11    1    1    2    0    0  0.69456910608E+02 -0.26661875972E+02  0.80310089988E+02  0.10947524202E+03  0.00000000000E+00 0.  1.
         11    1    1    2    0    0 -0.25700361439E+02 -0.56436334422E+02  0.10928358047E+03  0.12565217619E+03  0.00000000000E+00 0. -1.
</event>
<event>
 7    1  0.2440960E-009  0.6722135E+02  0.7561462E-02  0.1369805E+00
          2   -1    0    0  501    0  0.00000000000E+00  0.00000000000E+00  0.25953137317E+02  0.25953137317E+02  0.00000000000E+00 0.  1.
         -2   -1    0    0    0  501 -0.00000000000E+00 -0.00000000000E+00 -0.43041514507E+03  0.43041514507E+03  0.00000000000E+00 0. -1.
         25    2    1    2    0    0 -0.13570204399E+02  0.38774256427E+02 -0.23884717420E+03  0.27273385490E+03  0.12509272390E+03 0.  0.
          5    1    3    3  502    0 -0.43140993251E+02 -0.25145266141E+00 -0.18763930845E+02  0.47230985887E+02  0.41800000000E+01 0. -1.
         -5    1    3    3    0  502  0.29570788852E+02  0.39025709088E+02 -0.22008324336E+03  0.22550286901E+03  0.41800000000E+01 0. -1.
        -11    1    1    2    0    0  0.81871264859E+01 -0.11262838433E+02  0.16637674135E+01  0.14023148423E+02  0.00000000000E+00 0.  1.
         11    1    1    2    0    0  0.53830779134E+01 -0.27511417994E+02 -0.16727860096E+03  0.16961127907E+03  0.00000000000E+00 0. -1.
</event>
<event>
 7    1  0.2440960E-009  0.9198867E+02  0.7561462E-02  0.1298106E+00
          1   -1    0    0  501    0  0.00000000000E+00  0.00000000000E+00  0.52648390198E+03  0.52648390198E+03  0.00000000000E+00 0. -1.
         -1   -1    0    0    0  501 -0.00000000000E+00 -0.00000000000E+00 -0.64191646020E+02  0.64191646020E+02  0.00000000000E+00 0.  1.
         25    2    1    2    0    0  0.55470070948E+01  0.49824676498E+02  0.45255419402E+03  0.47219373730E+03  0.12509340248E+03 0.  0.
          5    1    3    3  502    0  0.56204291367E+01 -0.69353815517E+01  0.37930288364E+03  0.37943094059E+03  0.41800000000E+01 0. -1.
         -5    1    3    3    0  502 -0.73422041874E-01  0.56760058049E+02  0.73251310379E+02  0.92762796706E+02  0.41800000000E+01 0. -1.
        -11    1    1    2    0    0 -0.48425798255E+02  0.37671984512E+01  0.11139536181E+02  0.49833111353E+02  0.00000000000E+00 0. -1.
         11    1    1    2    0    0  0.42878791160E+02 -0.53591874949E+02 -0.14014742435E+01  0.68648699346E+02  0.00000000000E+00 0.  1.
</event>
<event>
 7    1  0.2440960E-009  0.1238251E+03  0.7561462E-02  0.1236917E+00
          4   -1    0    0  501    0  0.00000000000E+00  0.00000000000E+00  0.72554662728E+03  0.72554662728E+03  0.00000000000E+00 0. -1.
         -4   -1    0    0    0  501 -0.00000000000E+00 -0.00000000000E+00 -0.31088779356E+02  0.31088779356E+02  0.00000000000E+00 0.  1.
         25    2    1    2    0    0  0.25605833052E+02  0.68554689227E+02  0.19133200700E+03  0.24002076419E+03  0.12508647504E+03 0.  0.
          5    1    3    3  502    0 -0.19487534932E+02  0.86648459292E+02  0.15683899058E+03  0.18028771695E+03  0.41800000000E+01 0. -1.
         -5    1    3    3    0  502  0.45093367984E+02 -0.18093770065E+02  0.34493016422E+02  0.59733047246E+02  0.41800000000E+01 0. -1.
        -11    1    1    2    0    0 -0.47702836945E+02 -0.11906575843E+02  0.13882720882E+03  0.14727634267E+03  0.00000000000E+00 0. -1.
         11    1    1    2    0    0  0.22097003893E+02 -0.56648113384E+02  0.36429863210E+03  0.36933829977E+03  0.00000000000E+00 0.  1.
</event>
<event>
 7    1  0.2440960E-009  0.6335188E+02  0.7561462E-02  0.1384281E+00
          2   -1    0    0  501    0  0.00000000000E+00  0.00000000000E+00  0.11396025703E+03  0.11396025703E+03  0.00000000000E+00 0. -1.
         -2   -1    0    0    0  501 -0.00000000000E+00 -0.00000000000E+00 -0.21032958423E+03  0.21032958423E+03  0.00000000000E+00 0.  1.
         25    2    1    2    0    0  0.18044469050E+02 -0.49271508293E+01 -0.16539996299E+03  0.20822511706E+03  0.12510264562E+03 0.  0.
          5    1    3    3  502    0 -0.14761094612E+02  0.22951336171E+02  0.86114092385E+01  0.28918549674E+02  0.41800000000E+01 0.  1.
         -5    1    3    3    0  502  0.32805563662E+02 -0.27878487000E+02 -0.17401137223E+03  0.17930656739E+03  0.41800000000E+01 0.  1.
        -11    1    1    2    0    0  0.10056516202E+02  0.21133345389E+02  0.78787307798E+02  0.82189973084E+02  0.00000000000E+00 0. -1.
         11    1    1    2    0    0 -0.28100985252E+02 -0.16206194560E+02 -0.97566720073E+01  0.33874751112E+02  0.00000000000E+00 0.  1.
</event>
<event>
 7    1  0.2440960E-009  0.7742168E+02  0.7561462E-02  0.1336532E+00
          2   -1    0    0  501    0  0.00000000000E+00  0.00000000000E+00  0.46330256800E+02  0.46330256800E+02  0.00000000000E+00 0. -1.
         -2   -1    0    0    0  501 -0.00000000000E+00 -0.00000000000E+00 -0.26516692551E+03  0.26516692551E+03  0.00000000000E+00 0.  1.
         25    2    1    2    0    0 -0.58560734259E+00 -0.19502227445E+02 -0.15473469696E+03  0.19993240957E+03  0.12509781031E+03 0.  0.
          5    1    3    3  502    0 -0.22470386461E+02  0.34422713456E+02 -0.13026729417E+03  0.13666338865E+03  0.41800000000E+01 0.  1.
         -5    1    3    3    0  502  0.21884779118E+02 -0.53924940901E+02 -0.24467402790E+02  0.63269020915E+02  0.41800000000E+01 0.  1.
        -11    1    1    2    0    0 -0.18794384391E+02 -0.88982925470E+01  0.14782168416E+02  0.25513153430E+02  0.00000000000E+00 0. -1.
         11    1    1    2    0    0  0.19379991733E+02  0.28400519992E+02 -0.78884140172E+02  0.86051619311E+02  0.00000000000E+00 0.  1.
</event>
<event>
 7    1  0.3422345E-009  0.1277648E+03  0.7561462E-02  0.1230811E+00
         -2   -1    0    0    0  501 -0.00000000000E+00  0.00000000000E+00  0.18973451130E+03  0.18973451130E+03  0.00000000000E+00 0. -1.
          2   -1    0    0  501    0  0.00000000000E+00 -0.00000000000E+00 -0.13936163829E+03  0.13936163829E+03  0.00000000000E+00 0.  1.
         25    2    1    2    0    0 -0.46666937729E+02 -0.96101128088E+02  0.84045878419E+02  0.18472856183E+03  0.12509077496E+03 0.  0.
          5    1    3    3  502    0 -0.77973891538E+02 -0.82772908034E+02  0.25083431803E+02  0.11652438808E+03  0.41800000000E+01 0.  1.
         -5    1    3    3    0  502  0.31306953809E+02 -0.13328220054E+02  0.58962446616E+02  0.68204173754E+02  0.41800000000E+01 0.  1.
        -11    1    1    2    0    0  0.24978303531E+02  0.64120500819E+02 -0.64972429337E+02  0.94640217913E+02  0.00000000000E+00 0.  1.
         11    1    1    2    0    0  0.21688634198E+02  0.31980627269E+02  0.31299423927E+02  0.49727369848E+02  0.00000000000E+00 0. -1.
</event>
<event>
 7    1  0.2440960E-009  0.1542292E+03  0.7561462E-02  0.1195370E+00
          2   -1    0    0  501    0  0.00000000000E+00  0.00000000000E+00  0.11029161729E+04  0.11029161729E+04  0.00000000000E+00 0. -1.
         -2   -1    0    0    0  501 -0.00000000000E+00 -0.00000000000E+00 -0.25045206258E+02  0.25045206258E+02  0.00000000000E+00 0.  1.
         25    2    1    2    0    0  0.14377571328E+02 -0.11038316124E+03  0.77567539107E+03  0.79354364792E+03  0.12509217404E+03 0.  0.
          5    1    3    3  502    0 -0.51607627933E+02 -0.72341053440E+02  0.35278860069E+03  0.36383216522E+03  0.41800000000E+01 0.  1.
         -5    1    3    3    0  502  0.65985199262E+02 -0.38042107797E+02  0.42288679038E+03  0.42971148270E+03  0.41800000000E+01 0.  1.
        -11    1    1    2    0    0  0.38113924024E+02  0.38163126537E+02  0.11538949676E+03  0.12737280477E+03  0.00000000000E+00 0. -1.
         11    1    1    2    0    0 -0.52491495352E+02  0.72220034700E+02  0.18680607884E+03  0.20704492650E+03  0.00000000000E+00 0.  1.
</event>
<event>
 7    1  0.2440960E-009  0.1202808E+03  0.7561462E-02  0.1242635E+00
          1   -1    0    0  501    0  0.00000000000E+00  0.00000000000E+00  0.49521382064E+02  0.49521382064E+02  0.00000000000E+00 0. -1.
         -1   -1    0    0    0  501 -0.00000000000E+00 -0.00000000000E+00 -0.39805673660E+03  0.39805673660E+03  0.00000000000E+00 0.  1.
         25    2    1    2    0    0 -0.49279296357E+02  0.65030148802E+02 -0.13348080729E+03  0.20030503840E+03  0.12509042007E+03 0.  0.
          5    1    3    3  502    0  0.10668325098E+02 -0.14871515077E+02 -0.88861283285E+02  0.90822768006E+02  0.41800000000E+01 0. -1.
         -5    1    3    3    0  502 -0.59947621455E+02  0.79901663879E+02 -0.44619524003E+02  0.10948227040E+03  0.41800000000E+01 0. -1.
        -11    1    1    2    0    0 -0.15344680890E+02  0.13269776636E+02 -0.30351730444E+02  0.36507173877E+02  0.00000000000E+00 0.  1.
         11    1    1    2    0    0  0.64623977246E+02 -0.78299925437E+02 -0.18470281680E+03  0.21076590638E+03  0.00000000000E+00 0. -1.
</event>
<event>
 7    1  0.2440960E-009  0.1655372E+03  0.7561462E-02  0.1182583E+00
         -1   -1    0    0    0  501 -0.00000000000E+00  0.00000000000E+00  0.87796458604E+03  0.87796458604E+03  0.00000000000E+00 0.  1.
          1   -1    0    0  501    0  0.00000000000E+00 -0.00000000000E+00 -0.37613928146E+02  0.37613928146E+02  0.00000000000E+00 0. -1.
         25    2    1    2    0    0  0.25379855810E+02 -0.14403159303E+03  0.42078394696E+03  0.46270634228E+03  0.12509513300E+03 0.  0.
          5    1    3    3  502    0  0.21136817598E+01 -0.15688804555E+03  0.29585074740E+03  0.33490814207E+03  0.41800000000E+01 0. -1.
         -5    1    3    3    0  502  0.23266174050E+02  0.12856452520E+02  0.12493319956E+03  0.12779820021E+03  0.41800000000E+01 0. -1.
        -11    1    1    2    0    0 -0.13399796102E+02  0.11533700614E+03  0.39909593421E+03  0.41564377083E+03  0.00000000000E+00 0.  1.
         11    1    1    2    0    0 -0.11980059707E+02  0.28694586886E+02  0.20470776720E+02  0.37228401076E+02  0.00000000000E+00 0. -1.
</event>
<event>
 7    1  0.2440960E-009  0.1033710E+03  0.7561462E-02  0.1273363E+00
         -2   -1    0    0    0  501 -0.00000000000E+00  0.00000000000E+00  0.63438541186E+03  0.63438541186E+03  0.00000000000E+00 0.  1.
          2   -1    0    0  501    0  0.00000000000E+00 -0.00000000000E+00 -0.33073186792E+02  0.33073186792E+02  0.00000000000E+00 0. -1.
         25    2    1    2    0    0 -0.63192889977E+02  0.66973775444E+02  0.25754875244E+03  0.30076162919E+03  0.12508944709E+03 0.  0.
          5    1    3    3  502    0 -0.60859788218E+02  0.32047775459E+02  0.25639139512E+03  0.26549010081E+03  0.41800000000E+01 0.  1.
         -5    1    3    3    0  502 -0.23331017590E+01  0.34925999985E+02  0.11573573156E+01  0.35271528387E+02  0.41800000000E+01 0.  1.
        -11    1    1    2    0    0  0.15151204649E+02  0.50794086578E+01  0.45667305449E+01  0.16619699831E+02  0.00000000000E+00 0. -1.
         11    1    1    2    0    0  0.48041685329E+02 -0.72053184102E+02  0.33919674209E+03  0.35007726963E+03  0.00000000000E+00 0.  1.
</event>
<event>
 7    1  0.2440960E-009  0.2113018E+03  0.7561462E-02  0.1140539E+00
         -2   -1    0    0    0  501 -0.00000000000E+00  0.00000000000E+00  0.11290322966E+03  0.11290322966E+03  0.00000000000E+00 0.  1.
          2   -1    0    0  501    0  0.00000000000E+00 -0.00000000000E+00 -0.45991653829E+03  0.45991653829E+03  0.00000000000E+00 0. -1.
         25    2    1    2    0    0 -0.17070735024E+03 -0.98917428348E+02 -0.13891973096E+03  0.27179559299E+03  0.12509394735E+03 0.  0.
          5    1    3    3  502    0 -0.88115773754E+02 -0.89902273063E+02 -0.21316153536E+02  0.12774450707E+03  0.41800000000E+01 0. -1.
         -5    1    3    3    0  502 -0.82591576486E+02 -0.90151552859E+01 -0.11760357743E+03  0.14405108592E+03  0.41800000000E+01 0. -1.
        -11    1    1    2    0    0  0.23164897384E+02 -0.14532075628E+02 -0.97499491928E+01  0.29031968623E+02  0.00000000000E+00 0.  1.
         11    1    1    2    0    0  0.14754245286E+03  0.11344950398E+03 -0.19834362848E+03  0.27199220633E+03  0.00000000000E+00 0. -1.
</event>
<event>
 7    1  0.2440960E-009  0.9399848E+02  0.7561462E-02  0.1293448E+00
         -1   -1    0    0    0  501 -0.00000000000E+00  0.00000000000E+00  0.72679464408E+02  0.72679464408E+02  0.00000000000E+00 0.  1.
          1   -1    0    0  501    0  0.00000000000E+00 -0.00000000000E+00 -0.19237154066E+03  0.19237154066E+03  0.00000000000E+00 0. -1.
         25    2    1    2    0    0 -0.31115540362E+01  0.20464906442E+02 -0.17961277551E+02  0.12805569003E+03  0.12508860098E+03 0.  0.
          5    1    3    3  502    0  0.44217948146E+01 -0.39721875872E+02 -0.46017879826E+02  0.61094167936E+02  0.41800000000E+01 0. -1.
         -5    1    3    3    0  502 -0.75333488508E+01  0.60186782314E+02  0.28056602275E+02  0.66961522096E+02  0.41800000000E+01 0. -1.
        -11    1    1    2    0    0  0.50665005628E+01 -0.53589888994E+02 -0.82896480693E+02  0.98840134265E+02  0.00000000000E+00 0. -1.
         11    1    1    2    0    0 -0.19549465266E+01  0.33124982552E+02 -0.18834318012E+02  0.38155180775E+02  0.00000000000E+00 0.  1.
</event>
<event>
 7    1  0.2440960E-009  0.1270918E+03  0.7561462E-02  0.1231836E+00
          1   -1    0    0  501    0  0.00000000000E+00  0.00000000000E+00  0.39542921436E+03  0.39542921436E+03  0.00000000000E+00 0. -1.
         -1   -1    0    0    0  501 -0.00000000000E+00 -0.00000000000E+00 -0.66585709000E+02  0.66585709000E+02  0.00000000000E+00 0.  1.
         25    2    1    2    0    0 -0.10973126886E+03  0.25619515951E+02  0.11170174803E+03  0.20203493071E+03  0.12507406505E+03 0.  0.
          5    1    3    3  502    0 -0.64264809439E+02  0.30908914255E+02  0.13331214509E+03  0.15124459376E+03  0.41800000000E+01 0.  1.
         -5    1    3    3    0  502 -0.45466459425E+02 -0.52893983037E+01 -0.21610397053E+02  0.50790336953E+02  0.41800000000E+01 0.  1.
        -11    1    1    2    0    0  0.29669609511E+02 -0.45476167727E+02  0.51028299951E+02  0.74513454863E+02  0.00000000000E+00 0. -1.
         11    1    1    2    0    0  0.80061659353E+02  0.19856651776E+02  0.16611345737E+03  0.18546653779E+03  0.00000000000E+00 0.  1.
</event>
<event>
 7    1  0.2440960E-009  0.1225536E+03  0.7561462E-02  0.1238943E+00
          2   -1    0    0  501    0  0.00000000000E+00  0.00000000000E+00  0.44743205679E+03  0.44743205679E+03  0.00000000000E+00 0.  1.
         -2   -1    0    0    0  501 -0.00000000000E+00 -0.00000000000E+00 -0.46317280421E+02  0.46317280421E+02  0.00000000000E+00 0. -1.
         25    2    1    2    0    0 -0.87463990811E+02 -0.76319275935E+00  0.26464721085E+03  0.30551428957E+03  0.12510117013E+03 0.  0.
          5    1    3    3  502    0 -0.82009775574E+02  0.50270100600E+02  0.20650495396E+03  0.22784743736E+03  0.41800000000E+01 0.  1.
         -5    1    3    3    0  502 -0.54542152369E+01 -0.51033293359E+02  0.58142256894E+02  0.77666852207E+02  0.41800000000E+01 0.  1.
        -11    1    1    2    0    0  0.31060401678E+02 -0.20319686236E+02 -0.20729329427E+01  0.37174389734E+02  0.00000000000E+00 0.  1.
         11    1    1    2    0    0  0.56403589133E+02  0.21082878995E+02  0.13854049846E+03  0.15106065790E+03  0.00000000000E+00 0. -1.
</event>
<event>
 7    1  0.2440960E-009  0.1506948E+03  0.7561462E-02  0.1199622E+00
         -1   -1    0    0    0  501 -0.00000000000E+00  0.00000000000E+00  0.24024413469E+02  0.24024413469E+02  0.00000000000E+00 0.  1.
          1   -1    0    0  501    0  0.00000000000E+00 -0.00000000000E+00 -0.11433233698E+04  0.11433233698E+04  0.00000000000E+00 0. -1.
         25    2    1    2    0    0 -0.36178123265E+01 -0.10751441771E+03 -0.82450796583E+03  0.84085296456E+03  0.12509150132E+03 0.  0.
          5    1    3    3  502    0 -0.61307289662E+02 -0.63747644314E+02 -0.54186482752E+03  0.54905128142E+03  0.41800000000E+01 0.  1.
         -5    1    3    3    0  502  0.57689477336E+02 -0.43766773398E+02 -0.28264313831E+03  0.29180168314E+03  0.41800000000E+01 0.  1.
        -11    1    1    2    0    0 -0.42910705100E+02  0.60454991121E+02 -0.15927709093E+03  0.17568530462E+03  0.00000000000E+00 0.  1.
         11    1    1    2    0    0  0.46528517427E+02  0.47059426591E+02 -0.13551389956E+03  0.15080951409E+03  0.00000000000E+00 0. -1.
</event>
<event>
 7    1  0.2440960E-009  0.1037542E+03  0.7561462E-02  0.1272594E+00
         -1   -1    0    0    0  501 -0.00000000000E+00  0.00000000000E+00  0.17273016158E+02  0.17273016158E+02  0.00000000000E+00 0.  1.
          1   -1    0    0  501    0  0.00000000000E+00 -0.00000000000E+00 -0.71523270941E+03  0.71523270941E+03  0.00000000000E+00 0. -1.
         25    2    1    2    0    0  0.77471300825E+01 -0.83172532496E+01 -0.44048917030E+03  0.45804695112E+03  0.12508839099E+03 0.  0.
          5    1    3    3  502    0  0.22712436917E+02  0.54842436005E+02 -0.18103416210E+03  0.19056334334E+03  0.41800000000E+01 0.  1.
         -5    1    3    3    0  502 -0.14965306835E+02 -0.63159689254E+02 -0.25945500820E+03  0.26748360779E+03  0.41800000000E+01 0.  1.
        -11    1    1    2    0    0 -0.17622329280E+02  0.43226134997E+02 -0.74425952690E+02  0.87853671920E+02  0.00000000000E+00 0.  1.
         11    1    1    2    0    0  0.98751991971E+01 -0.34908881747E+02 -0.18304457027E+03  0.18660510252E+03  0.00000000000E+00 0. -1.
</event>
<event>
 7    1  0.2440960E-009  0.8993525E+02  0.7561462E-02  0.1303009E+00
          2   -1    0    0  501    0  0.00000000000E+00  0.00000000000E+00  0.12861808564E+03  0.12861808564E+03  0.00000000000E+00 0. -1.
         -2   -1    0    0    0  501 -0.00000000000E+00 -0.00000000000E+00 -0.17303281776E+03  0.17303281776E+03  0.00000000000E+00 0.  1.
         25    2    1    2    0    0 -0.24666389065E+02 -0.83627133973E+02 -0.78302470183E+02  0.17140906315E+03  0.12509141380E+03 0.  0.
          5    1    3    3  502    0 -0.23313530883E+02 -0.81719942323E+02 -0.11016093628E+03  0.13919257875E+03  0.41800000000E+01 0.  1.
         -5    1    3    3    0  502 -0.13528581815E+01 -0.19071916496E+01  0.31858466098E+02  0.32216484405E+02  0.41800000000E+01 0.  1.
        -11    1    1    2    0    0  0.59165049892E+01  0.57693246939E+02 -0.25051435922E+02  0.63175075903E+02  0.00000000000E+00 0.  1.
         11    1    1    2    0    0  0.18749884075E+02  0.25933887034E+02  0.58939173987E+02  0.67066764346E+02  0.00000000000E+00 0. -1.
</event>
<event>
 7    1  0.2451856E-009  0.1608219E+03  0.7561462E-02  0.1187772E+00
         -1   -1    0    0    0  501 -0.00000000000E+00  0.00000000000E+00  0.39296138637E+02  0.39296138637E+02  0.00000000000E+00 0.  1.
          1   -1    0    0  501    0  0.00000000000E+00 -0.00000000000E+00 -0.79324921161E+03  0.79324921161E+03  0.00000000000E+00 0. -1.
         25    2    1    2    0    0  0.12593013434E+03 -0.52650614570E+02 -0.34252955936E+03  0.38936435906E+03  0.12509044378E+03 0.  0.
          5    1    3    3  502    0 -0.30121638896E+01  0.30675263772E+02 -0.68521242862E+02  0.75250767851E+02  0.41800000000E+01 0. -1.
         -5    1    3    3    0  502  0.12894229823E+03 -0.83325878342E+02 -0.27400831649E+03  0.31411359121E+03  0.41800000000E+01 0. -1.
        -11    1    1    2    0    0 -0.45699556093E+02  0.13286276756E+02 -0.43221771607E+02  0.64289160190E+02  0.00000000000E+00 0.  1.
         11    1    1    2    0    0 -0.80230578248E+02  0.39364337814E+02 -0.36820174201E+03  0.37889183100E+03  0.00000000000E+00 0. -1.
</event>
<event>
 7    1  0.2440960E-009  0.9140324E+02  0.7561462E-02  0.1299489E+00
          1   -1    0    0  501    0  0.00000000000E+00  0.00000000000E+00  0.20463277779E+03  0.20463277779E+03  0.00000000000E+00 0. -1.
         -1   -1    0    0    0  501 -0.00000000000E+00 -0.00000000000E+00 -0.79503316427E+02  0.79503316427E+02  0.00000000000E+00 0.  1.
         25    2    1    2    0    0  0.50496446865E+02  0.36329099278E+02  0.40482997080E+02  0.14545421760E+03  0.12509341215E+03 0.  0.
          5    1    3    3  502    0 -0.64348054473E+01  0.30471966150E+02 -0.37314192670E+02  0.48782874216E+02  0.41800000000E+01 0. -1.
         -5    1    3    3    0  502  0.56931252312E+02  0.58571331276E+01  0.77797189750E+02  0.96671343382E+02  0.41800000000E+01 0. -1.
        -11    1    1    2    0    0  0.91666854872E+01 -0.32992966638E+02  0.68815006737E+02  0.76863965046E+02  0.00000000000E+00 0. -1.
         11    1    1    2    0    0 -0.59663132352E+02 -0.33361326402E+01  0.15831457544E+02  0.61817911571E+02  0.00000000000E+00 0.  1.
</event>
<event>
 7    1  0.2440960E-009  0.1321254E+03  0.7561462E-02  0.1224336E+00
         -1   -1    0    0    0  501 -0.00000000000E+00  0.00000000000E+00  0.25404616205E+03  0.25404616205E+03  0.00000000000E+00 0.  1.
          1   -1    0    0  501    0  0.00000000000E+00 -0.00000000000E+00 -0.95032053759E+02  0.95032053759E+02  0.00000000000E+00 0. -1.
         25    2    1    2    0    0  0.32640711277E+02  0.10119990140E+03  0.12287644847E+03  0.20506831722E+03  0.12509019571E+03 0.  0.
          5    1    3    3  502    0  0.31661676688E+02  0.90589129729E+01 -0.17170054312E+02  0.37373905870E+02  0.41800000000E+01 0. -1.
         -5    1    3    3    0  502  0.97903458889E+00  0.92140988423E+02  0.14004650278E+03  0.16769441135E+03  0.41800000000E+01 0. -1.
        -11    1    1    2    0    0 -0.12370484463E+02  0.15802278891E+02  0.66401968113E+00  0.20079388092E+02  0.00000000000E+00 0. -1.
         11    1    1    2    0    0 -0.20270226814E+02 -0.11700218029E+03  0.35473640135E+02  0.12393051049E+03  0.00000000000E+00 0.  1.
</event>
<event>
 7    1  0.2440960E-009  0.9062512E+02  0.7561462E-02  0.1301345E+00
          2   -1    0    0  501    0  0.00000000000E+00  0.00000000000E+00  0.76322653044E+03  0.76322653044E+03  0.00000000000E+00 0. -1.
         -2   -1    0    0    0  501 -0.00000000000E+00 -0.00000000000E+00 -0.21332960555E+02  0.21332960555E+02  0.00000000000E+00 0.  1.
         25    2    1    2    0    0 -0.38761045208E+02  0.56480266471E+02  0.48282261313E+03  0.50344593853E+03  0.12509075965E+03 0.  0.
          5    1    3    3  502    0 -0.49322836091E+02  0.53602317272E+02  0.48588666226E+03  0.49133417502E+03  0.41800000000E+01 0. -1.
         -5    1    3    3    0  502  0.10561790883E+02  0.28779491991E+01 -0.30640491362E+01  0.12111763511E+02  0.41800000000E+01 0. -1.
        -11    1    1    2    0    0  0.58615872156E+01  0.15963908284E+02  0.10193003531E+02  0.19826797355E+02  0.00000000000E+00 0.  1.
         11    1    1    2    0    0  0.32899457992E+02 -0.72444174755E+02  0.24887795323E+03  0.26128675511E+03  0.00000000000E+00 0. -1.
</event>
<event>
 7    1  0.2440960E-009  0.1734597E+03  0.7561462E-02  0.1174287E+00
         -1   -1    0    0    0  501 -0.00000000000E+00  0.00000000000E+00  0.30141141849E+02  0.30141141849E+02  0.00000000000E+00 0.  1.
          1   -1    0    0  501    0  0.00000000000E+00 -0.00000000000E+00 -0.11187075875E+04  0.11187075875E+04  0.00000000000E+00 0. -1.
         25    2    1    2    0    0  0.13597029043E+03  0.53586546371E+02 -0.62980723924E+03  0.65853165489E+03  0.12508934432E+03 0.  0.
          5    1    3    3  502    0  0.10002886271E+03  0.83966350932E+02 -0.32834073082E+03  0.35338538365E+03  0.41800000000E+01 0. -1.
         -5    1    3    3    0  502  0.35941427721E+02 -0.30379804560E+02 -0.30146650843E+03  0.30514627124E+03  0.41800000000E+01 0. -1.
        -11    1    1    2    0    0 -0.34082461169E+02 -0.57724681945E+02 -0.13248210068E+03  0.14847646300E+03  0.00000000000E+00 0.  1.
         11    1    1    2    0    0 -0.10188782926E+03  0.41381355733E+01 -0.32627710575E+03  0.34184061147E+03  0.00000000000E+00 0. -1.
</event>
<event>
 7    1  0.2440960E-009  0.2508127E+03  0.7561462E-02  0.1112792E+00
         -1   -1    0    0    0  501 -0.00000000000E+00  0.00000000000E+00  0.11201395087E+04  0.11201395087E+04  0.00000000000E+00 0. -1.
          1   -1    0    0  501    0  0.00000000000E+00 -0.00000000000E+00 -0.63053729161E+02  0.63053729161E+02  0.00000000000E+00 0.  1.
         25    2    1    2    0    0  0.72528699285E+02  0.22760785300E+03  0.54007382460E+03  0.60364919165E+03  0.12508742381E+03 0.  0.
          5    1    3    3  502    0  0.93398051111E+02  0.11577300145E+03  0.37190084509E+03  0.40056746598E+03  0.41800000000E+01 0.  1.
         -5    1    3    3    0  502 -0.20869351825E+02  0.11183485155E+03  0.16817297950E+03  0.20308172567E+03  0.41800000000E+01 0.  1.
        -11    1    1    2    0    0 -0.36786742986E+02 -0.10467175047E+03  0.12490282186E+03  0.16706332546E+03  0.00000000000E+00 0.  1.
         11    1    1    2    0    0 -0.35741956299E+02 -0.12293610253E+03  0.39210913312E+03  0.41248072079E+03  0.00000000000E+00 0. -1.
</event>
<event>
 7    1  0.2440960E-009  0.9068324E+02  0.7561462E-02  0.1301206E+00
         -2   -1    0    0    0  501 -0.00000000000E+00  0.00000000000E+00  0.69027402431E+02  0.69027402431E+02  0.00000000000E+00 0.  1.
          2   -1    0    0  501    0  0.00000000000E+00 -0.00000000000E+00 -0.18247259143E+03  0.18247259143E+03  0.00000000000E+00 0. -1.
         25    2    1    2    0    0  0.12833519867E+02 -0.13885341624E+02 -0.89721117244E+02  0.15509457359E+03  0.12508775294E+03 0.  0.
          5    1    3    3  502    0  0.66394637365E+02 -0.12449946759E+02 -0.71235820722E+02  0.98261200884E+02  0.41800000000E+01 0. -1.
         -5    1    3    3    0  502 -0.53561117499E+02 -0.14353948658E+01 -0.18485296522E+02  0.56833372710E+02  0.41800000000E+01 0. -1.
        -11    1    1    2    0    0  0.22122466802E+02 -0.53447940545E+00  0.25867990151E+02  0.34041770225E+02  0.00000000000E+00 0.  1.
         11    1    1    2    0    0 -0.34955986668E+02  0.14419821030E+02 -0.49592061903E+02  0.62363650040E+02  0.00000000000E+00 0. -1.
</event>
<event>
 7    1  0.2440960E-009  0.1110451E+03  0.7561462E-02  0.1258647E+00
          1   -1    0    0  501    0  0.00000000000E+00  0.00000000000E+00  0.28620287914E+02  0.28620287914E+02  0.00000000000E+00 0. -1.
         -1   -1    0    0    0  501 -0.00000000000E+00 -0.00000000000E+00 -0.45290589474E+03  0.45290589474E+03  0.00000000000E+00 0.  1.
         25    2    1    2    0    0 -0.12433394120E+02  0.28407054658E+02 -0.27640781741E+03  0.30497500427E+03  0.12508765591E+03 0.  0.
          5    1    3    3  502    0  0.33484614665E+00 -0.48188384226E+02 -0.13779592245E+03  0.14603910826E+03  0.41800000000E+01 0. -1.
         -5    1    3    3    0  502 -0.12768240267E+02  0.76595438884E+02 -0.13861189496E+03  0.15893589601E+03  0.41800000000E+01 0. -1.
        -11    1    1    2    0    0  0.44304061959E+02  0.10628687426E+02 -0.61337198878E+02  0.76407269737E+02  0.00000000000E+00 0.  1.
         11    1    1    2    0    0 -0.31870667839E+02 -0.39035742084E+02 -0.86540590540E+02  0.10014390865E+03  0.00000000000E+00 0. -1.
</event>
<event>
 7    1  0.2440960E-009  0.1055260E+03  0.7561462E-02  0.1269087E+00
         -2   -1    0    0    0  501 -0.00000000000E+00  0.00000000000E+00  0.71710945195E+02  0.71710945195E+02  0.00000000000E+00 0.  1.
          2   -1    0    0  501    0  0.00000000000E+00 -0.00000000000E+00 -0.22718650646E+03  0.22718650646E+03  0.00000000000E+00 0. -1.
         25    2    1    2    0    0  0.65825705276E+02 -0.23417432923E+02 -0.14339666862E+03  0.20271011827E+03  0.12508951930E+03 0.  0.
          5    1    3    3  502    0  0.15656059879E+02 -0.70440787884E+02 -0.90693322801E+02  0.11597313486E+03  0.41800000000E+01 0.  1.
         -5    1    3    3    0  502  0.50169645397E+02  0.47023354960E+02 -0.52703345817E+02  0.86736983411E+02  0.41800000000E+01 0.  1.
        -11    1    1    2    0    0 -0.28910907471E+02  0.11064339865E+02 -0.38305249201E+02  0.49249896485E+02  0.00000000000E+00 0.  1.
         11    1    1    2    0    0 -0.36914797805E+02  0.12353093058E+02  0.26226356550E+02  0.46937436902E+02  0.00000000000E+00 0. -1.
</event>
<event>
 7    1  0.2440960E-009  0.1312179E+03  0.7561462E-02  0.1225660E+00
          1   -1    0    0  501    0  0.00000000000E+00  0.00000000000E+00  0.13211886958E+03  0.13211886958E+03  0.00000000000E+00 0. -1.
         -1   -1    0    0    0  501 -0.00000000000E+00 -0.00000000000E+00 -0.19031630535E+03  0.19031630535E+03  0.00000000000E+00 0.  1.
         25    2    1    2    0    0 -0.10528386583E+03 -0.12979990336E+02  0.16293675052E+02  0.16482386967E+03  0.12509297188E+03 0.  0.
          5    1    3    3  502    0 -0.12590790038E+03  0.27203124982E+01 -0.11573190707E+02  0.12653699310E+03  0.41800000000E+01 0.  1.
         -5    1    3    3    0  502  0.20624034556E+02 -0.15700302834E+02  0.27866865759E+02  0.38286876573E+02  0.41800000000E+01 0.  1.
        -11    1    1    2    0    0  0.51623590040E+02  0.21351478184E+02 -0.85562210307E+02  0.10218499157E+03  0.00000000000E+00 0.  1.
         11    1    1    2    0    0  0.53660275786E+02 -0.83714878484E+01  0.11071099484E+02  0.55426313697E+02  0.00000000000E+00 0. -1.
</event>
<event>
 7    1  0.2440960E-009  0.1042168E+03  0.7561462E-02  0.1271670E+00
          1   -1    0    0  501    0  0.00000000000E+00  0.00000000000E+00  0.25883071209E+03  0.25883071209E+03  0.00000000000E+00 0. -1.
         -1   -1    0    0    0  501 -0.00000000000E+00 -0.00000000000E+00 -0.45476768845E+02  0.45476768845E+02  0.00000000000E+00 0.  1.
         25    2    1    2    0    0 -0.26752165581E+01  0.83450742723E+01  0.10680078271E+03  0.16471352055E+03  0.12508932655E+03 0.  0.
          5    1    3    3  502    0  0.63874968681E+01 -0.55544498649E+02  0.27673058851E+02  0.62524091618E+02  0.41800000000E+01 0.  1.
         -5    1    3    3    0  502 -0.90627134262E+01  0.63889572922E+02  0.79127723863E+02  0.10218942894E+03  0.41800000000E+01 0.  1.
        -11    1    1    2    0    0  0.23099786684E+02  0.33759249852E+02  0.33671057168E+02  0.52981385280E+02  0.00000000000E+00 0.  1.
         11    1    1    2    0    0 -0.20424570126E+02 -0.42104324124E+02  0.72882103360E+02  0.86612575097E+02  0.00000000000E+00 0. -1.
</event>
<event>
 7    1  0.2440960E-009  0.1064654E+03  0.7561462E-02  0.1267259E+00
         -1   -1    0    0    0  501 -0.00000000000E+00  0.00000000000E+00  0.35040124050E+02  0.35040124050E+02  0.00000000000E+00 0. -1.
          1   -1    0    0  501    0  0.00000000000E+00 -0.00000000000E+00 -0.63197996372E+03  0.63197996372E+03  0.00000000000E+00 0.  1.
         25    2    1    2    0    0  0.56806329653E+02 -0.49981256486E+02 -0.47405495317E+03  0.49608567826E+03  0.12509123254E+03 0.  0.
          5    1    3    3  502    0  0.78380643859E+02 -0.45543599347E+02 -0.18395849966E+03  0.20512422277E+03  0.41800000000E+01 0.  1.
         -5    1    3    3    0  502 -0.21574314206E+02 -0.44376571387E+01 -0.29009645352E+03  0.29096145548E+03  0.41800000000E+01 0.  1.
        -11    1    1    2    0    0 -0.62731889155E+02  0.15287837174E+02 -0.29213673083E+02  0.70869221651E+02  0.00000000000E+00 0. -1.
         11    1    1    2    0    0  0.59255595020E+01  0.34693419312E+02 -0.93671213416E+02  0.10006518786E+03  0.00000000000E+00 0.  1.
</event>
<event>
 7    1  0.2440960E-009  0.8363378E+02  0.7561462E-02  0.1319044E+00
          2   -1    0    0  501    0  0.00000000000E+00  0.00000000000E+00  0.14914238362E+03  0.14914238362E+03  0.00000000000E+00 0.  1.
         -2   -1    0    0    0  501 -0.00000000000E+00 -0.00000000000E+00 -0.81649049800E+02  0.81649049800E+02  0.00000000000E+00 0. -1.
         25    2    1    2    0    0 -0.10880945882E+00 -0.19665448527E+02  0.29348879053E+02  0.12998095992E+03  0.12508777532E+03 0.  0.
          5    1    3    3  502    0 -0.60663259094E+02 -0.24815825227E+02  0.16677112196E+02  0.67760273441E+02  0.41800000000E+01 0. -1.
         -5    1    3    3    0  502  0.60554449636E+02  0.51503766993E+01  0.12671766858E+02  0.62220686480E+02  0.41800000000E+01 0. -1.
        -11    1    1    2    0    0  0.17832687915E+02  0.10924144976E+02  0.64536052878E+02  0.67839839496E+02  0.00000000000E+00 0.  1.
         11    1    1    2    0    0 -0.17723878456E+02  0.87413035512E+01 -0.26391598115E+02  0.32970634000E+02  0.00000000000E+00 0. -1.
</event>
<event>
 7    1  0.2440960E-009  0.1231549E+03  0.7561462E-02  0.1237981E+00
          2   -1    0    0  501    0  0.00000000000E+00  0.00000000000E+00  0.87596706816E+02  0.87596706816E+02  0.00000000000E+00 0. -1.
         -2   -1    0    0    0  501 -0.00000000000E+00 -0.00000000000E+00 -0.18607162991E+03  0.18607162991E+03  0.00000000000E+00 0.  1.
         25    2    1    2    0    0 -0.89243431031E+01  0.65892232164E+02 -0.49485477822E+02  0.15005921096E+03  0.12509006403E+03 0.  0.
          5    1    3    3  502    0  0.22788066703E+02 -0.27573504848E+02  0.63707199115E+01  0.36573933694E+02  0.41800000000E+01 0.  1.
         -5    1    3    3    0  502 -0.31712409806E+02  0.93465737012E+02 -0.55856197734E+02  0.11348527727E+03  0.41800000000E+01 0.  1.
        -11    1    1    2    0    0  0.24290149816E+02  0.15409905919E+02 -0.29380823162E+01  0.28915547829E+02  0.00000000000E+00 0.  1.
         11    1    1    2    0    0 -0.15365806713E+02 -0.81302138083E+02 -0.46051362957E+02  0.94693577940E+02  0.00000000000E+00 0. -1.
</event>
<event>
 7    1  0.2636553E-009  0.7856224E+02  0.7561462E-02  0.1333182E+00
         -1   -1    0    0    0  501 -0.00000000000E+00  0.00000000000E+00  0.13835991705E+02  0.13835991705E+02  0.00000000000E+00 0.  1.
          1   -1    0    0  501    0  0.00000000000E+00 -0.00000000000E+00 -0.95407772028E+03  0.95407772028E+03  0.00000000000E+00 0. -1.
         25    2    1    2    0    0 -0.43893592445E+01 -0.24140305456E+02 -0.65515934272E+03  0.66744517588E+03  0.12508907880E+03 0.  0.
          5    1    3    3  502    0  0.27117095199E+02 -0.22857561878E+02 -0.49961254638E+02  0.61411760698E+02  0.41800000000E+01 0.  1.
         -5    1    3    3    0  502 -0.31506454444E+02 -0.12827435777E+01 -0.60519808808E+03  0.60603341519E+03  0.41800000000E+01 0.  1.
        -11    1    1    2    0    0  0.20995523859E+02 -0.27935430563E+02 -0.66117297434E+02  0.74784338754E+02  0.00000000000E+00 0.  1.
         11    1    1    2    0    0 -0.16606164614E+02  0.52075736019E+02 -0.21896508842E+03  0.22568419735E+03  0.00000000000E+00 0. -1.
</event>
<event>
 7    1  0.2440960E-009  0.1515463E+03  0.7561462E-02  0.1198586E+00
          1   -1    0    0  501    0  0.00000000000E+00  0.00000000000E+00  0.12289691345E+03  0.12289691345E+03  0.00000000000E+00 0. -1.
         -1   -1    0    0    0  501 -0.00000000000E+00 -0.00000000000E+00 -0.20204314611E+03  0.20204314611E+03  0.00000000000E+00 0.  1.
         25    2    1    2    0    0  0.11298160866E+03 -0.12540122726E+02 -0.32832643017E+02  0.17218431527E+03  0.12508939764E+03 0.  0.
          5    1    3    3  502    0 -0.19415901878E+02 -0.29162852315E+02 -0.31643904562E+01  0.35425061297E+02  0.41800000000E+01 0.  1.
         -5    1    3    3    0  502  0.13239751054E+03  0.16622729590E+02 -0.29668252561E+02  0.13675925397E+03  0.41800000000E+01 0.  1.
        -11    1    1    2    0    0 -0.36434484906E+02 -0.29585604429E+02 -0.45515363927E+02  0.65379110067E+02  0.00000000000E+00 0.  1.
         11    1    1    2    0    0 -0.76547123758E+02  0.42125727154E+02 -0.79822572352E+00  0.87376634223E+02  0.00000000000E+00 0. -1.
</event>
<event>
 7    1  0.2440960E-009  0.3025285E+03  0.7561462E-02  0.1083983E+00
          2   -1    0    0  501    0  0.00000000000E+00  0.00000000000E+00  0.65395667634E+03  0.65395667634E+03  0.00000000000E+00 0. -1.
         -2   -1    0    0    0  501 -0.00000000000E+00 -0.00000000000E+00 -0.14719253848E+03  0.14719253848E+03  0.00000000000E+00 0.  1.
         25    2    1    2    0    0  0.19971892576E+03 -0.20405771231E+03  0.18733722498E+03  0.36368801876E+03  0.12508612978E+03 0.  0.
          5    1    3    3  502    0  0.19914367739E+03 -0.21765415534E+03  0.16750150350E+03  0.33927240038E+03  0.41800000000E+01 0. -1.
         -5    1    3    3    0  502  0.57524837086E+00  0.13596443039E+02  0.19835721488E+02  0.24415618382E+02  0.41800000000E+01 0. -1.
        -11    1    1    2    0    0 -0.11274861820E+02  0.53223912148E+02  0.85423972059E+02  0.10127764973E+03  0.00000000000E+00 0.  1.
         11    1    1    2    0    0 -0.18844406394E+03  0.15083380016E+03  0.23400294082E+03  0.33618354632E+03  0.00000000000E+00 0. -1.
</event>
<event>
 7    1  0.2440960E-009  0.1222817E+03  0.7561462E-02  0.1239380E+00
          1   -1    0    0  501    0  0.00000000000E+00  0.00000000000E+00  0.79656339897E+03  0.79656339897E+03  0.00000000000E+00 0. -1.
         -1   -1    0    0    0  501 -0.00000000000E+00 -0.00000000000E+00 -0.27788564854E+02  0.27788564854E+02  0.00000000000E+00 0.  1.
         25    2    1    2    0    0 -0.33626383875E+02  0.52917270551E+02  0.64557678918E+03  0.66056644563E+03  0.12509063573E+03 0.  0.
          5    1    3    3  502    0 -0.80069989645E+02  0.28425989858E+02  0.33982200626E+03  0.35030801944E+03  0.41800000000E+01 0.  1.
         -5    1    3    3    0  502  0.46443605769E+02  0.24491280694E+02  0.30575478292E+03  0.31025842619E+03  0.41800000000E+01 0.  1.
        -11    1    1    2    0    0 -0.16611679539E+02 -0.54077475261E+02  0.53512394209E+02  0.77871031595E+02  0.00000000000E+00 0.  1.
         11    1    1    2    0    0  0.50238063414E+02  0.11602047093E+01  0.69685650733E+02  0.85914486605E+02  0.00000000000E+00 0. -1.
</event>
<event>
 7    1  0.2440960E-009  0.1052329E+03  0.7561462E-02  0.1269662E+00
         -2   -1    0    0    0  501 -0.00000000000E+00  0.00000000000E+00  0.17373796714E+02  0.17373796714E+02  0.00000000000E+00 0.  1.
          2   -1    0    0  501    0  0.00000000000E+00 -0.00000000000E+00 -0.79618899885E+03  0.79618899885E+03  0.00000000000E+00 0. -1.
         25    2    1    2    0    0 -0.10878668579E+02 -0.38771972462E+02 -0.49641466714E+03  0.51351383600E+03  0.12508927503E+03 0.  0.
          5    1    3    3  502    0 -0.11184819886E+02 -0.73496248131E+02 -0.17473665143E+03  0.18993990744E+03  0.41800000000E+01 0. -1.
         -5    1    3    3    0  502  0.30615130663E+00  0.34724275669E+02 -0.32167801571E+03  0.32357392856E+03  0.41800000000E+01 0. -1.
        -11    1    1    2    0    0 -0.63714170950E+01  0.67349018111E+02 -0.17691409855E+03  0.18940718958E+03  0.00000000000E+00 0.  1.
         11    1    1    2    0    0  0.17250085674E+02 -0.28577045649E+02 -0.10548643643E+03  0.11064176998E+03  0.00000000000E+00 0. -1.
</event>
<event>
 7    1  0.2440960E-009  0.1111139E+03  0.7561462E-02  0.1258521E+00
         -1   -1    0    0    0  501 -0.00000000000E+00  0.00000000000E+00  0.94829709670E+02  0.94829709670E+02  0.00000000000E+00 0. -1.
          1   -1    0    0  501    0  0.00000000000E+00 -0.00000000000E+00 -0.24826418656E+03  0.24826418656E+03  0.00000000000E+00 0.  1.
         25    2    1    2    0    0 -0.65902098362E+02  0.37404844852E+02  0.14194311654E+02  0.14693744272E+03  0.12508766767E+03 0.  0.
          5    1    3    3  502    0 -0.46327185956E+02  0.74326694537E+02 -0.23204945961E+02  0.90700648269E+02  0.41800000000E+01 0. -1.
         -5    1    3    3    0  502 -0.19574912406E+02 -0.36921849685E+02  0.37399257614E+02  0.56236794450E+02  0.41800000000E+01 0. -1.
        -11    1    1    2    0    0  0.74817527503E+02 -0.28837841571E+02 -0.10391483491E+03  0.13125386259E+03  0.00000000000E+00 0.  1.
         11    1    1    2    0    0 -0.89154291412E+01 -0.85670032807E+01 -0.63713953627E+02  0.64902590925E+02  0.00000000000E+00 0. -1.
</event>
<event>
 7    1  0.2440960E-009  0.1174021E+03  0.7561462E-02  0.1247445E+00
         -2   -1    0    0    0  501 -0.00000000000E+00  0.00000000000E+00  0.12420611934E+03  0.12420611934E+03  0.00000000000E+00 0.  1.
          2   -1    0    0  501    0  0.00000000000E+00 -0.00000000000E+00 -0.13181284985E+03  0.13181284985E+03  0.00000000000E+00 0. -1.
         25    2    1    2    0    0  0.57301557264E+02  0.34288122659E+02  0.13815062015E+02  0.14247070898E+03  0.12509157909E+03 0.  0.
          5    1    3    3  502    0 -0.31465811062E+02 -0.38725992276E+01 -0.22569580342E+02  0.39140166675E+02  0.41800000000E+01 0. -1.
         -5    1    3    3    0  502  0.88767368326E+02  0.38160721887E+02  0.36384642358E+02  0.10333054231E+03  0.41800000000E+01 0. -1.
        -11    1    1    2    0    0  0.17312678326E+01  0.23464991650E+02  0.94859187542E+01  0.25368992413E+02  0.00000000000E+00 0.  1.
         11    1    1    2    0    0 -0.59032825097E+02 -0.57753114309E+02 -0.30907711287E+02  0.88179267792E+02  0.00000000000E+00 0. -1.
</event>
<event>
 7    1  0.2440960E-009  0.7826368E+02  0.7561462E-02  0.1334052E+00
         -1   -1    0    0    0  501 -0.00000000000E+00  0.00000000000E+00  0.23832076936E+03  0.23832076936E+03  0.00000000000E+00 0.  1.
          1   -1    0    0  501    0  0.00000000000E+00 -0.00000000000E+00 -0.66502506114E+02  0.66502506114E+02  0.00000000000E+00 0. -1.
         25    2    1    2    0    0 -0.44342774102E+02  0.16671025448E+02  0.14408254054E+03  0.19660021752E+03  0.12509061649E+03 0.  0.
          5    1    3    3  502    0 -0.34229854305E+02  0.27948535718E+02 -0.67964906041E+01  0.44905102818E+02  0.41800000000E+01 0.  1.
         -5    1    3    3    0  502 -0.10112919797E+02 -0.11277510270E+02  0.15087903115E+03  0.15169511470E+03  0.41800000000E+01 0.  1.
        -11    1    1    2    0    0  0.21829695096E+02 -0.50941627749E+02  0.36409778738E+02  0.66311816545E+02  0.00000000000E+00 0.  1.
         11    1    1    2    0    0  0.22513079006E+02  0.34270602301E+02 -0.86740560340E+01  0.41911241410E+02  0.00000000000E+00 0. -1.
</event>
<event>
 7    1  0.2440960E-009  0.1246344E+03  0.7561462E-02  0.1235642E+00
         -2   -1    0    0    0  501 -0.00000000000E+00  0.00000000000E+00  0.33327808568E+02  0.33327808568E+02  0.00000000000E+00 0. -1.
          2   -1    0    0  501    0  0.00000000000E+00 -0.00000000000E+00 -0.49773992852E+03  0.49773992852E+03  0.00000000000E+00 0.  1.
         25    2    1    2    0    0 -0.57140373973E+02  0.33882664790E+02 -0.27337932299E+03  0.30789044095E+03  0.12508881676E+03 0.  0.
          5    1    3    3  502    0 -0.57114390517E+02 -0.34128783694E+02 -0.88112881174E+02  0.11049063177E+03  0.41800000000E+01 0.  1.
         -5    1    3    3    0  502 -0.25983455655E-01  0.68011448484E+02 -0.18526644182E+03  0.19739980918E+03  0.41800000000E+01 0.  1.
        -11    1    1    2    0    0  0.68986753981E+02 -0.56342428710E+02 -0.15956694671E+03  0.18274367836E+03  0.00000000000E+00 0.  1.
         11    1    1    2    0    0 -0.11846380008E+02  0.22459763921E+02 -0.31465850256E+02  0.40433617783E+02  0.00000000000E+00 0. -1.
</event>
<event>
 7    1  0.2440960E-009  0.1578931E+03  0.7561462E-02  0.1191096E+00
          2   -1    0    0  501    0  0.00000000000E+00  0.00000000000E+00  0.11016131133E+04  0.11016131133E+04  0.00000000000E+00 0. -1.
         -2   -1    0    0    0  501 -0.00000000000E+00 -0.00000000000E+00 -0.29575831634E+02  0.29575831634E+02  0.00000000000E+00 0.  1.
         25    2    1    2    0    0  0.14371880871E+03  0.57052322533E+01  0.58778976776E+03  0.61792546599E+03  0.12508966697E+03 0.  0.
          5    1    3    3  502    0  0.88649035359E+00  0.19235589470E+02  0.91057352818E+01  0.21706694415E+02  0.41800000000E+01 0. -1.
         -5    1    3    3    0  502  0.14283231836E+03 -0.13530357217E+02  0.57868403248E+03  0.59621877158E+03  0.41800000000E+01 0. -1.
        -11    1    1    2    0    0 -0.38513794444E+02 -0.24545536385E+02  0.27001792267E+03  0.27385301584E+03  0.00000000000E+00 0.  1.
         11    1    1    2    0    0 -0.10520501427E+03  0.18840304132E+02  0.21422959126E+03  0.23941046313E+03  0.00000000000E+00 0. -1.
</event>
<event>
 7    1  0.2440960E-009  0.1098682E+03  0.7561462E-02  0.1260814E+00
         -4   -1    0    0    0  501 -0.00000000000E+00  0.00000000000E+00  0.15155162923E+03  0.15155162923E+03  0.00000000000E+00 0.  1.
          4   -1    0    0  501    0  0.00000000000E+00 -0.00000000000E+00 -0.12207530613E+03  0.12207530613E+03  0.00000000000E+00 0. -1.
         25    2    1    2    0    0  0.25531508332E+02 -0.74737666796E+01  0.94368321954E+02  0.15893515924E+03  0.12508912642E+03 0.  0.
          5    1    3    3  502    0 -0.49414938922E+02  0.49232631846E+01  0.51255275518E+02  0.71488812954E+02  0.41800000000E+01 0.  1.
         -5    1    3    3    0  502  0.74946447254E+02 -0.12397029864E+02  0.43113046436E+02  0.87446346284E+02  0.41800000000E+01 0.  1.
        -11    1    1    2    0    0 -0.66942225057E+01 -0.41142353432E+02 -0.21736670337E+02  0.47010516889E+02  0.00000000000E+00 0.  1.
         11    1    1    2    0    0 -0.18837285826E+02  0.48616120111E+02 -0.43155328523E+02  0.67681259237E+02  0.00000000000E+00 0. -1.
</event>
<event>
 7    1  0.2440960E-009  0.1130483E+03  0.7561462E-02  0.1255027E+00
          2   -1    0    0  501    0  0.00000000000E+00  0.00000000000E+00  0.10321759210E+04  0.10321759210E+04  0.00000000000E+00 0. -1.
         -2   -1    0    0    0  501 -0.00000000000E+00 -0.00000000000E+00 -0.12663800108E+02  0.12663800108E+02  0.00000000000E+00 0.  1.
         25    2    1    2    0    0  0.40320234707E+02  0.26728954826E+01  0.58123696008E+03  0.59591664824E+03  0.12508949671E+03 0.  0.
          5    1    3    3  502    0 -0.38435516295E+02  0.27095866689E+02  0.25921477474E+03  0.26347912014E+03  0.41800000000E+01 0. -1.
         -5    1    3    3    0  502  0.78755751002E+02 -0.24422971206E+02  0.32202218534E+03  0.33243752810E+03  0.41800000000E+01 0. -1.
        -11    1    1    2    0    0 -0.63650946917E+02 -0.20598926431E+02  0.33055113576E+03  0.33725333529E+03  0.00000000000E+00 0.  1.
         11    1    1    2    0    0  0.23330712210E+02  0.17926030949E+02  0.10772402509E+03  0.11166973761E+03  0.00000000000E+00 0. -1.
</event>
<event>
 7    1  0.2440960E-009  0.8291716E+02  0.7561462E-02  0.1320971E+00
         -2   -1    0    0    0  501 -0.00000000000E+00  0.00000000000E+00  0.36652711551E+02  0.36652711551E+02  0.00000000000E+00 0.  1.
          2   -1    0    0  501    0  0.00000000000E+00 -0.00000000000E+00 -0.43841373694E+03  0.43841373694E+03  0.00000000000E+00 0. -1.
         25    2    1    2    0    0  0.19201462979E+02  0.29885897907E+02 -0.33039515863E+03  0.35506489623E+03  0.12509299186E+03 0.  0.
          5    1    3    3  502    0 -0.69779972628E+01  0.44253621708E+02 -0.32003227096E+03  0.32317982972E+03  0.41800000000E+01 0.  1.
         -5    1    3    3    0  502  0.26179460242E+02 -0.14367723801E+02 -0.10362887674E+02  0.31885066516E+02  0.41800000000E+01 0.  1.
        -11    1    1    2    0    0 -0.52298808337E+02 -0.21473092030E+02 -0.63378801602E+02  0.84930156760E+02  0.00000000000E+00 0. -1.
         11    1    1    2    0    0  0.33097345358E+02 -0.84128058771E+01 -0.79870651527E+01  0.35071395499E+02  0.00000000000E+00 0.  1.
</event>
<event>
 7    1  0.2440960E-009  0.9020290E+02  0.7561462E-02  0.1302361E+00
         -2   -1    0    0    0  501 -0.00000000000E+00  0.00000000000E+00  0.36047782932E+02  0.36047782932E+02  0.00000000000E+00 0.  1.
          2   -1    0    0  501    0  0.00000000000E+00 -0.00000000000E+00 -0.42632059059E+03  0.42632059059E+03  0.00000000000E+00 0. -1.
         25    2    1    2    0    0 -0.30144813601E+02 -0.24816363079E+02 -0.31514487129E+03  0.34130491160E+03  0.12509273008E+03 0.  0.
          5    1    3    3  502    0  0.40770039499E+02  0.19992812610E+02 -0.87677242791E+02  0.98826514561E+02  0.41800000000E+01 0.  1.
         -5    1    3    3    0  502 -0.70914853100E+02 -0.44809175689E+02 -0.22746762850E+03  0.24247839704E+03  0.41800000000E+01 0.  1.
        -11    1    1    2    0    0 -0.85576746476E+00  0.19311472196E+02  0.15719132676E+02  0.24914984014E+02  0.00000000000E+00 0.  1.
         11    1    1    2    0    0  0.31000581066E+02  0.55048908829E+01 -0.90847069052E+02  0.96148477915E+02  0.00000000000E+00 0. -1.
</event>
<event>
 7    1  0.2440960E-009  0.1562882E+03  0.7561462E-02  0.1192952E+00
         -2   -1    0    0    0  501 -0.00000000000E+00  0.00000000000E+00  0.57334808778E+03  0.57334808778E+03  0.00000000000E+00 0.  1.
          2   -1    0    0  501    0  0.00000000000E+00 -0.00000000000E+00 -0.60008433309E+02  0.60008433309E+02  0.00000000000E+00 0. -1.
         25    2    1    2    0    0 -0.12376039115E+03  0.79960150408E+02  0.26540938846E+03  0.32832890390E+03  0.12508983005E+03 0.  0.
          5    1    3    3  502    0  0.98471692542E+01  0.80525913116E+01 -0.80104407720E+01  0.15602901349E+02  0.41800000000E+01 0. -1.
         -5    1    3    3    0  502 -0.13360756040E+03  0.71907559097E+02  0.27341982923E+03  0.31272600255E+03  0.41800000000E+01 0. -1.
        -11    1    1    2    0    0  0.37579799290E+02 -0.22069681237E+02  0.16922705399E+03  0.17474869942E+03  0.00000000000E+00 0.  1.
         11    1    1    2    0    0  0.86180591859E+02 -0.57890469171E+02  0.78703212011E+02  0.13027891777E+03  0.00000000000E+00 0. -1.
</event>
<event>
 7    1  0.2440960E-009  0.7798561E+02  0.7561462E-02  0.1334867E+00
         -2   -1    0    0    0  501 -0.00000000000E+00  0.00000000000E+00  0.18219173825E+02  0.18219173825E+02  0.00000000000E+00 0.  1.
          2   -1    0    0  501    0  0.00000000000E+00 -0.00000000000E+00 -0.80186032429E+03  0.80186032429E+03  0.00000000000E+00 0. -1.
         25    2    1    2    0    0 -0.15006107221E+01  0.13194921048E+02 -0.61509223261E+03  0.62782630609E+03  0.12510418949E+03 0.  0.
          5    1    3    3  502    0  0.32926149826E+02 -0.18996778068E+02 -0.52199661324E+03  0.52339559184E+03  0.41800000000E+01 0. -1.
         -5    1    3    3    0  502 -0.34426760548E+02  0.32191699116E+02 -0.93095619368E+02  0.10443071425E+03  0.41800000000E+01 0. -1.
        -11    1    1    2    0    0  0.17634895327E+02  0.24049357532E+02 -0.14907018166E+02  0.33340370746E+02  0.00000000000E+00 0.  1.
         11    1    1    2    0    0 -0.16134284605E+02 -0.37244278580E+02 -0.15364189969E+03  0.15891282128E+03  0.00000000000E+00 0. -1.
</event>
<event>
 7    1  0.2440960E-009  0.1123624E+03  0.7561462E-02  0.1256257E+00
         -1   -1    0    0    0  501 -0.00000000000E+00  0.00000000000E+00  0.20979862389E+02  0.20979862389E+02  0.00000000000E+00 0.  1.
          1   -1    0    0  501    0  0.00000000000E+00 -0.00000000000E+00 -0.99854799750E+03  0.99854799750E+03  0.00000000000E+00 0. -1.
         25    2    1    2    0    0  0.67309778857E+02 -0.66357881500E+02 -0.46442852068E+03  0.49017634353E+03  0.12508006302E+03 0.  0.
          5    1    3    3  502    0 -0.42088094347E+01  0.10365403591E+01  0.66312558989E+01  0.89573683396E+01  0.41800000000E+01 0.  1.
         -5    1    3    3    0  502  0.71518588291E+02 -0.67394421859E+02 -0.47105977658E+03  0.48121897519E+03  0.41800000000E+01 0.  1.
        -11    1    1    2    0    0 -0.80073856263E+02  0.36753583152E+02 -0.44903203980E+03  0.45759416637E+03  0.00000000000E+00 0. -1.
         11    1    1    2    0    0  0.12764077406E+02  0.29604298348E+02 -0.64107574636E+02  0.71757349996E+02  0.00000000000E+00 0.  1.
</event>
<event>
 7    1  0.2440960E-009  0.7085760E+02  0.7561462E-02  0.1357201E+00
         -2   -1    0    0    0  501 -0.00000000000E+00  0.00000000000E+00  0.78486788244E+02  0.78486788244E+02  0.00000000000E+00 0.  1.
          2   -1    0    0  501    0  0.00000000000E+00 -0.00000000000E+00 -0.18593099402E+03  0.18593099402E+03  0.00000000000E+00 0. -1.
         25    2    1    2    0    0  0.42950353968E+02  0.71763557654E+01 -0.88082567410E+02  0.15906862942E+03  0.12509219478E+03 0.  0.
          5    1    3    3  502    0  0.44579483562E+02  0.21363847599E+01  0.21194107143E+02  0.49583838819E+02  0.41800000000E+01 0.  1.
         -5    1    3    3    0  502 -0.16291295933E+01  0.50399710056E+01 -0.10927667455E+03  0.10948479060E+03  0.41800000000E+01 0.  1.
        -11    1    1    2    0    0  0.23120009557E+02 -0.66943801792E+01 -0.29961372497E+02  0.38432192363E+02  0.00000000000E+00 0. -1.
         11    1    1    2    0    0 -0.66070363526E+02 -0.48197558627E+00  0.10599734130E+02  0.66916960485E+02  0.00000000000E+00 0.  1.
</event>
<event>
 7    1  0.2440960E-009  0.1192671E+03  0.7561462E-02  0.1244311E+00
         -2   -1    0    0    0  501 -0.00000000000E+00  0.00000000000E+00  0.19081217131E+02  0.19081217131E+02  0.00000000000E+00 0.  1.
          2   -1    0    0  501    0  0.00000000000E+00 -0.00000000000E+00 -0.82655181346E+03  0.82655181346E+03  0.00000000000E+00 0. -1.
         25    2    1    2    0    0  0.43019621277E+02 -0.44949016340E+02 -0.40246276576E+03  0.42602261008E+03  0.12509150486E+03 0.  0.
          5    1    3    3  502    0 -0.18813336214E+02  0.27426660892E+02 -0.45209135847E+02  0.56280562464E+02  0.41800000000E+01 0. -1.
         -5    1    3    3    0  502  0.61832957491E+02 -0.72375677232E+02 -0.35725362991E+03  0.36974204761E+03  0.41800000000E+01 0. -1.
        -11    1    1    2    0    0 -0.56284409145E+02  0.64814867637E+02 -0.31837685176E+03  0.32974645035E+03  0.00000000000E+00 0.  1.
         11    1    1    2    0    0  0.13264787868E+02 -0.19865851296E+02 -0.86630978801E+02  0.89863970160E+02  0.00000000000E+00 0. -1.
</event>
<event>
 7    1  0.2440960E-009  0.1157859E+03  0.7561462E-02  0.1250215E+00
         -2   -1    0    0    0  501 -0.00000000000E+00  0.00000000000E+00  0.11710355100E+04  0.11710355100E+04  0.00000000000E+00 0. -1.
          2   -1    0    0  501    0  0.00000000000E+00 -0.00000000000E+00 -0.17585996639E+02  0.17585996639E+02  0.00000000000E+00 0.  1.
         25    2    1    2    0    0  0.46188108182E+02 -0.53504344228E+02  0.88643718129E+03  0.89800578695E+03  0.12508981109E+03 0.  0.
          5    1    3    3  502    0  0.81735468679E+02 -0.66630443486E+02  0.64459147534E+03  0.65317374819E+03  0.41800000000E+01 0.  1.
         -5    1    3    3    0  502 -0.35547360497E+02  0.13126099258E+02  0.24184570595E+03  0.24483203877E+03  0.41800000000E+01 0.  1.
        -11    1    1    2    0    0 -0.42499639952E+02  0.63978642774E+02  0.26862887524E+03  0.27939391322E+03  0.00000000000E+00 0. -1.
         11    1    1    2    0    0 -0.36884682300E+01 -0.10474298546E+02 -0.16165432015E+01  0.11221806443E+02  0.00000000000E+00 0.  1.
</event>
<event>
 7    1  0.2440960E-009  0.1159849E+03  0.7561462E-02  0.1249872E+00
          1   -1    0    0  501    0  0.00000000000E+00  0.00000000000E+00  0.92099510501E+03  0.92099510501E+03  0.00000000000E+00 0. -1.
         -1   -1    0    0    0  501 -0.00000000000E+00 -0.00000000000E+00 -0.16916120895E+02  0.16916120895E+02  0.00000000000E+00 0.  1.
         25    2    1    2    0    0 -0.32033310498E+01  0.61286100850E+02  0.54470621286E+03  0.56224274445E+03  0.12508316386E+03 0.  0.
          5    1    3    3  502    0  0.23978464985E+02 -0.32444889113E+02  0.12962540488E+03  0.13582288321E+03  0.41800000000E+01 0.  1.
         -5    1    3    3    0  502 -0.27181796035E+02  0.93730989963E+02  0.41508080798E+03  0.42641986125E+03  0.41800000000E+01 0.  1.
        -11    1    1    2    0    0 -0.13270454093E+02 -0.72561239459E+02  0.33978870217E+03  0.34770332260E+03  0.00000000000E+00 0. -1.
         11    1    1    2    0    0  0.16473785143E+02  0.11275138609E+02  0.19584069093E+02  0.27965158856E+02  0.00000000000E+00 0.  1.
</event>
<event>
 7    1  0.2440960E-009  0.7383664E+02  0.7561462E-02  0.1347512E+00
          1   -1    0    0  501    0  0.00000000000E+00  0.00000000000E+00  0.39048860583E+02  0.39048860583E+02  0.00000000000E+00 0. -1.
         -1   -1    0    0    0  501 -0.00000000000E+00 -0.00000000000E+00 -0.30307857286E+03  0.30307857286E+03  0.00000000000E+00 0.  1.
         25    2    1    2    0    0 -0.78238673407E+01  0.10077323477E+02 -0.16762089459E+03  0.20953762970E+03  0.12508592490E+03 0.  0.
          5    1    3    3  502    0  0.88482939671E+01 -0.41356659875E+02 -0.11152020192E+02  0.43937519007E+02  0.41800000000E+01 0.  1.
         -5    1    3    3    0  502 -0.16672161308E+02  0.51433983352E+02 -0.15646887440E+03  0.16560011069E+03  0.41800000000E+01 0.  1.
        -11    1    1    2    0    0  0.66910550872E+01 -0.30127968117E+02 -0.10595182950E+03  0.11035513063E+03  0.00000000000E+00 0.  1.
         11    1    1    2    0    0  0.11328122535E+01  0.20050644639E+02  0.95430118140E+01  0.22234673115E+02  0.00000000000E+00 0. -1.
</event>
<event>
 7    1  0.2440960E-009  0.1380310E+03  0.7561462E-02  0.1216003E+00
          3   -1    0    0  501    0  0.00000000000E+00  0.00000000000E+00  0.99525419617E+02  0.99525419617E+02  0.00000000000E+00 0. -1.
         -3   -1    0    0    0  501 -0.00000000000E+00 -0.00000000000E+00 -0.27317391662E+03  0.27317391662E+03  0.00000000000E+00 0.  1.
         25    2    1    2    0    0  0.55308536768E+01  0.96301607939E+02 -0.17997775805E+03  0.23946858305E+03  0.12509443968E+03 0.  0.
          5    1    3    3  502    0 -0.55491633814E+02  0.34900134364E+02 -0.10980830035E+03  0.12795575808E+03  0.41800000000E+01 0.  1.
         -5    1    3    3    0  502  0.61022487491E+02  0.61401473575E+02 -0.70169457708E+02  0.11151282497E+03  0.41800000000E+01 0.  1.
        -11    1    1    2    0    0 -0.23460233469E+02  0.22217805117E+01 -0.18613505302E+02  0.30029676034E+02  0.00000000000E+00 0.  1.
         11    1    1    2    0    0  0.17929379792E+02 -0.98523388451E+02  0.24942766356E+02  0.10320107715E+03  0.00000000000E+00 0. -1.
</event>
<event>
 7    1  0.2440960E-009  0.1312831E+03  0.7561462E-02  0.1225564E+00
         -1   -1    0    0    0  501 -0.00000000000E+00  0.00000000000E+00  0.66927027999E+02  0.66927027999E+02  0.00000000000E+00 0.  1.
          1   -1    0    0  501    0  0.00000000000E+00 -0.00000000000E+00 -0.26934895477E+03  0.26934895477E+03  0.00000000000E+00 0. -1.
         25    2    1    2    0    0  0.44680026178E+02  0.63724434641E+02 -0.94891175753E+02  0.17523704450E+03  0.12508628309E+03 0.  0.
          5    1    3    3  502    0  0.80456010978E+02  0.72228999685E+02 -0.57108825587E+02  0.12234822622E+03  0.41800000000E+01 0.  1.
         -5    1    3    3    0  502 -0.35775984800E+02 -0.85045650437E+01 -0.37782350166E+02  0.52888818280E+02  0.41800000000E+01 0.  1.
        -11    1    1    2    0    0 -0.54269459195E+02 -0.13906464190E+01 -0.66300291369E+02  0.85690353800E+02  0.00000000000E+00 0. -1.
         11    1    1    2    0    0  0.95894330166E+01 -0.62333788222E+02 -0.41230459653E+02  0.75348584479E+02  0.00000000000E+00 0.  1.
</event>
<event>
 7    1  0.2440960E-009  0.1007437E+03  0.7561462E-02  0.1278740E+00
         -2   -1    0    0    0  501 -0.00000000000E+00  0.00000000000E+00  0.63285658484E+02  0.63285658484E+02  0.00000000000E+00 0.  1.
          2   -1    0    0  501    0  0.00000000000E+00 -0.00000000000E+00 -0.21630379822E+03  0.21630379822E+03  0.00000000000E+00 0. -1.
         25    2    1    2    0    0 -0.18791535153E+02 -0.26594325740E+02 -0.12279213743E+03  0.17828518742E+03  0.12508924447E+03 0.  0.
          5    1    3    3  502    0 -0.34993202132E+02 -0.72163681563E+02 -0.69603937266E+02  0.10627465180E+03  0.41800000000E+01 0.  1.
         -5    1    3    3    0  502  0.16201666979E+02  0.45569355823E+02 -0.53188200163E+02  0.72010535616E+02  0.41800000000E+01 0.  1.
        -11    1    1    2    0    0 -0.14958360981E+02 -0.13553109289E+02 -0.42842448066E+02  0.47359420298E+02  0.00000000000E+00 0. -1.
         11    1    1    2    0    0  0.33749896134E+02  0.40147435029E+02  0.12616445764E+02  0.53944848986E+02  0.00000000000E+00 0.  1.
</event>
<event>
 7    1  0.2440960E-009  0.1633779E+03  0.7561462E-02  0.1184935E+00
         -1   -1    0    0    0  501 -0.00000000000E+00  0.00000000000E+00  0.64451847291E+02  0.64451847291E+02  0.00000000000E+00 0.  1.
          1   -1    0    0  501    0  0.00000000000E+00 -0.00000000000E+00 -0.50642061510E+03  0.50642061510E+03  0.00000000000E+00 0. -1.
         25    2    1    2    0    0 -0.11100407693E+03  0.91123704139E+02 -0.25146706659E+03  0.31544978826E+03  0.12508976292E+03 0.  0.
          5    1    3    3  502    0 -0.11550273791E+03  0.10558882413E+03 -0.16454114253E+03  0.22711482169E+03  0.41800000000E+01 0.  1.
         -5    1    3    3    0  502  0.44986609823E+01 -0.14465119989E+02 -0.86925924057E+02  0.88334966577E+02  0.41800000000E+01 0.  1.
        -11    1    1    2    0    0  0.19084223233E+01 -0.28774172545E+02 -0.90036959176E+02  0.94542313802E+02  0.00000000000E+00 0. -1.
         11    1    1    2    0    0  0.10909565461E+03 -0.62349531594E+02 -0.10046474205E+03  0.16088036033E+03  0.00000000000E+00 0.  1.
</event>
<event>
 7    1  0.2440960E-009  0.8193332E+02  0.7561462E-02  0.1323653E+00
          1   -1    0    0  501    0  0.00000000000E+00  0.00000000000E+00  0.77219323603E+02  0.77219323603E+02  0.00000000000E+00 0. -1.
         -1   -1    0    0    0  501 -0.00000000000E+00 -0.00000000000E+00 -0.25303892718E+03  0.25303892718E+03  0.00000000000E+00 0.  1.
         25    2    1    2    0    0 -0.20018782186E+02 -0.40086638437E+02 -0.18437412399E+03  0.22726387046E+03  0.12508940403E+03 0.  0.
          5    1    3    3  502    0 -0.52652016914E+02 -0.46965226010E+02 -0.17998777384E+03  0.19336762519E+03  0.41800000000E+01 0. -1.
         -5    1    3    3    0  502  0.32633234728E+02  0.68785875730E+01 -0.43863501447E+01  0.33896245270E+02  0.41800000000E+01 0. -1.
        -11    1    1    2    0    0 -0.10983105118E+02  0.19443421248E+02  0.45405161375E+02  0.50599445722E+02  0.00000000000E+00 0. -1.
         11    1    1    2    0    0  0.31001887305E+02  0.20643217190E+02 -0.36850640967E+02  0.52394934603E+02  0.00000000000E+00 0.  1.
</event>
<event>
 7    1  0.2440960E-009  0.1016159E+03  0.7561462E-02  0.1276934E+00
          1   -1    0    0  501    0  0.00000000000E+00  0.00000000000E+00  0.20535019203E+03  0.20535019203E+03  0.00000000000E+00 0.  1.
         -1   -1    0    0    0  501 -0.00000000000E+00 -0.00000000000E+00 -0.70719051329E+02  0.70719051329E+02  0.00000000000E+00 0. -1.
         25    2    1    2    0    0 -0.12634528997E+02  0.39310059108E+02  0.42190433968E+02  0.13831632236E+03  0.12508581151E+03 0.  0.
          5    1    3    3  502    0 -0.37698704415E+02 -0.25951964455E+02  0.49923063801E+02  0.67856329646E+02  0.41800000000E+01 0. -1.
         -5    1    3    3    0  502  0.25064175418E+02  0.65262023563E+02 -0.77326298330E+01  0.70459992712E+02  0.41800000000E+01 0. -1.
        -11    1    1    2    0    0 -0.24553599483E+02 -0.43361685994E+02  0.86569345447E+02  0.99886769049E+02  0.00000000000E+00 0.  1.
         11    1    1    2    0    0  0.37188128481E+02  0.40516268860E+01  0.58713612857E+01  0.37866151952E+02  0.00000000000E+00 0. -1.
</event>
<event>
 7    1  0.2440960E-009  0.1674327E+03  0.7561462E-02  0.1180552E+00
         -3   -1    0    0    0  501 -0.00000000000E+00  0.00000000000E+00  0.11208515414E+03  0.11208515414E+03  0.00000000000E+00 0.  1.
          3   -1    0    0  501    0  0.00000000000E+00 -0.00000000000E+00 -0.31360017804E+03  0.31360017804E+03  0.00000000000E+00 0. -1.
         25    2    1    2    0    0 -0.12377474411E+03 -0.45952925934E+02 -0.20015852024E+02  0.18298184927E+03  0.12509941706E+03 0.  0.
          5    1    3    3  502    0 -0.76768596465E+01 -0.59240987736E+02 -0.27326834196E+02  0.65822922065E+02  0.41800000000E+01 0.  1.
         -5    1    3    3    0  502 -0.11609788446E+03  0.13288061802E+02  0.73109821726E+01  0.11715892721E+03  0.41800000000E+01 0.  1.
        -11    1    1    2    0    0  0.25474210196E+02  0.53711476118E+02 -0.46217599376E+02  0.75298901346E+02  0.00000000000E+00 0. -1.
         11    1    1    2    0    0  0.98300533916E+02 -0.77585501840E+01 -0.13528157251E+03  0.16740458156E+03  0.00000000000E+00 0.  1.
</event>
<event>
 7    1  0.2440960E-009  0.9808217E+02  0.7561462E-02  0.1284381E+00
         -2   -1    0    0    0  501 -0.00000000000E+00  0.00000000000E+00  0.35820073332E+02  0.35820073332E+02  0.00000000000E+00 0.  1.
          2   -1    0    0  501    0  0.00000000000E+00 -0.00000000000E+00 -0.72282678155E+03  0.72282678155E+03  0.00000000000E+00 0. -1.
         25    2    1    2    0    0 -0.32660087522E+02 -0.36587594214E+02 -0.62885210206E+03  0.64304615824E+03  0.12509221397E+03 0.  0.
          5    1    3    3  502    0 -0.70522570971E+02 -0.56870400651E+02 -0.39895196594E+03  0.40913056475E+03  0.41800000000E+01 0.  1.
         -5    1    3    3    0  502  0.37862483449E+02  0.20282806437E+02 -0.22990013612E+03  0.23391559349E+03  0.41800000000E+01 0.  1.
        -11    1    1    2    0    0 -0.74992448494E+01  0.14885161797E+02 -0.67052727237E+02  0.69093233714E+02  0.00000000000E+00 0. -1.
         11    1    1    2    0    0  0.40159332371E+02  0.21702432418E+02  0.88981210766E+01  0.46507462929E+02  0.00000000000E+00 0.  1.
</event>
<event>
 7    1  0.2440960E-009  0.1771249E+03  0.7561462E-02  0.1170615E+00
          1   -1    0    0  501    0  0.00000000000E+00  0.00000000000E+00  0.18086893780E+03  0.18086893780E+03  0.00000000000E+00 0. -1.
         -1   -1    0    0    0  501 -0.00000000000E+00 -0.00000000000E+00 -0.22848920175E+03  0.22848920175E+03  0.00000000000E+00 0.  1.
         25    2    1    2    0    0 -0.14563653995E+03 -0.79754493135E+02 -0.67163931119E+02  0.21846961303E+03  0.12508875741E+03 0.  0.
          5    1    3    3  502    0 -0.30170976089E+02 -0.48605738361E+02 -0.79648613989E+02  0.98153857337E+02  0.41800000000E+01 0. -1.
         -5    1    3    3    0  502 -0.11546556386E+03 -0.31148754773E+02  0.12484682870E+02  0.12031575569E+03  0.41800000000E+01 0. -1.
        -11    1    1    2    0    0  0.90556931526E+02  0.81903036906E+02  0.45056607457E+02  0.13014900375E+03  0.00000000000E+00 0. -1.
         11    1    1    2    0    0  0.55079608423E+02 -0.21485437710E+01 -0.25512940286E+02  0.60739522771E+02  0.00000000000E+00 0.  1.
</event>
<event>
 7    1  0.2440960E-009  0.1094769E+03  0.7561462E-02  0.1261542E+00
         -1   -1    0    0    0  501 -0.00000000000E+00  0.00000000000E+00  0.19267748334E+02  0.19267748334E+02  0.00000000000E+00 0.  1.
          1   -1    0    0  501    0  0.00000000000E+00 -0.00000000000E+00 -0.73599562041E+03  0.73599562041E+03  0.00000000000E+00 0. -1.
         25    2    1    2    0    0  0.34789664079E+02  0.38052493390E+02 -0.39263801823E+03  0.41529324414E+03  0.12508218215E+03 0.  0.
          5    1    3    3  502    0  0.25569476043E+02 -0.34425138919E+02 -0.55270987677E+02  0.70080259514E+02  0.41800000000E+01 0. -1.
         -5    1    3    3    0  502  0.92201880353E+01  0.72477632309E+02 -0.33736703055E+03  0.34521298463E+03  0.41800000000E+01 0. -1.
        -11    1    1    2    0    0 -0.57016208970E+02  0.18121304796E+01 -0.18150722746E+03  0.19026036246E+03  0.00000000000E+00 0.  1.
         11    1    1    2    0    0  0.22226544891E+02 -0.39864623870E+02 -0.14258262638E+03  0.14970976214E+03  0.00000000000E+00 0. -1.
</event>
<event>
 7    1  0.2440960E-009  0.1001071E+03  0.7561462E-02  0.1280071E+00
         -2   -1    0    0    0  501 -0.00000000000E+00  0.00000000000E+00  0.99795147418E+02  0.99795147418E+02  0.00000000000E+00 0. -1.
          2   -1    0    0  501    0  0.00000000000E+00 -0.00000000000E+00 -0.13399242590E+03  0.13399242590E+03  0.00000000000E+00 0.  1.
         25    2    1    2    0    0  0.25295679216E+02  0.18105493259E+02 -0.46101840627E+02  0.13688394807E+03  0.12507659756E+03 0.  0.
          5    1    3    3  502    0  0.28223511178E+02  0.70380627632E+02 -0.32650834055E+02  0.82665281065E+02  0.41800000000E+01 0. -1.
         -5    1    3    3    0  502 -0.29278319624E+01 -0.52275134373E+02 -0.13451006572E+02  0.54218667003E+02  0.41800000000E+01 0. -1.
        -11    1    1    2    0    0 -0.15356568961E+02 -0.42615574259E+02 -0.24815495492E+02  0.51649977698E+02  0.00000000000E+00 0.  1.
         11    1    1    2    0    0 -0.99391102548E+01  0.24510081000E+02  0.36720057640E+02  0.45253647548E+02  0.00000000000E+00 0. -1.
</event>
<event>
 7    1  0.2440960E-009  0.1568398E+03  0.7561462E-02  0.1192312E+00
          2   -1    0    0  501    0  0.00000000000E+00  0.00000000000E+00  0.31020531026E+03  0.31020531026E+03  0.00000000000E+00 0.  1.
         -2   -1    0    0    0  501 -0.00000000000E+00 -0.00000000000E+00 -0.91070342503E+02  0.91070342503E+02  0.00000000000E+00 0. -1.
         25    2    1    2    0    0  0.10337802099E+03 -0.75516338516E+02  0.12979581349E+03  0.22109707570E+03  0.12508889269E+03 0.  0.
          5    1    3    3  502    0  0.28185074806E+02  0.21664375753E+02  0.81485883872E+02  0.89000928585E+02  0.41800000000E+01 0. -1.
         -5    1    3    3    0  502  0.75192946186E+02 -0.97180714269E+02  0.48309929619E+02  0.13209614711E+03  0.41800000000E+01 0. -1.
        -11    1    1    2    0    0  0.60787877461E+01  0.39121896286E+02  0.34249063793E+02  0.52349525310E+02  0.00000000000E+00 0.  1.
         11    1    1    2    0    0 -0.10945680874E+03  0.36394442230E+02  0.55090090473E+02  0.12782905176E+03  0.00000000000E+00 0. -1.
</event>
<event>
 7    1  0.2440960E-009  0.1302779E+03  0.7561462E-02  0.1227044E+00
          2   -1    0    0  501    0  0.00000000000E+00  0.00000000000E+00  0.32974789672E+03  0.32974789672E+03  0.00000000000E+00 0. -1.
         -2   -1    0    0    0  501 -0.00000000000E+00 -0.00000000000E+00 -0.85681291906E+02  0.85681291906E+02  0.00000000000E+00 0.  1.
         25    2    1    2    0    0 -0.29001774187E+02 -0.10071617655E+03  0.22066579808E+03  0.27445604862E+03  0.12509147477E+03 0.  0.
          5    1    3    3  502    0 -0.49512735531E+02 -0.87850169607E+02  0.22755881567E+03  0.24893704078E+03  0.41800000000E+01 0. -1.
         -5    1    3    3    0  502  0.20510961344E+02 -0.12866006942E+02 -0.68930175959E+01  0.25519007847E+02  0.41800000000E+01 0. -1.
        -11    1    1    2    0    0 -0.27634797547E+02  0.57564417506E+02  0.27782085596E+02  0.69636114756E+02  0.00000000000E+00 0. -1.
         11    1    1    2    0    0  0.56636571734E+02  0.43151759043E+02 -0.43812788614E+01  0.71337025245E+02  0.00000000000E+00 0.  1.
</event>
<event>
 7    1  0.2440960E-009  0.1008725E+03  0.7561462E-02  0.1278472E+00
          2   -1    0    0  501    0  0.00000000000E+00  0.00000000000E+00  0.10147637235E+04  0.10147637235E+04  0.00000000000E+00 0. -1.
         -2   -1    0    0    0  501 -0.00000000000E+00 -0.00000000000E+00 -0.15167601819E+02  0.15167601819E+02  0.00000000000E+00 0.  1.
         25    2    1    2    0    0 -0.26650283691E+02 -0.23438229973E+02  0.74768023547E+03  0.75890280165E+03  0.12509252414E+03 0.  0.
          5    1    3    3  502    0  0.35056594469E+02 -0.32284038335E+02  0.13855231401E+03  0.14657912561E+03  0.41800000000E+01 0.  1.
         -5    1    3    3    0  502 -0.61706878160E+02  0.88458083622E+01  0.60912792146E+03  0.61232367604E+03  0.41800000000E+01 0.  1.
        -11    1    1    2    0    0  0.35571232842E+02 -0.24159902788E+02  0.17444968373E+03  0.17967110414E+03  0.00000000000E+00 0.  1.
         11    1    1    2    0    0 -0.89209491513E+01  0.47598132761E+02  0.77466202467E+02  0.91357419517E+02  0.00000000000E+00 0. -1.
</event>
<event>
 7    1  0.2440960E-009  0.8421449E+02  0.7561462E-02  0.1317500E+00
          2   -1    0    0  501    0  0.00000000000E+00  0.00000000000E+00  0.10972117102E+04  0.10972117102E+04  0.00000000000E+00 0.  1.
         -2   -1    0    0    0  501 -0.00000000000E+00 -0.00000000000E+00 -0.13103466181E+02  0.13103466181E+02  0.00000000000E+00 0. -1.
         25    2    1    2    0    0 -0.42534408853E+02  0.61167204595E+01  0.72127599107E+03  0.73330276245E+03  0.12508915186E+03 0.  0.
          5    1    3    3  502    0  0.11793002511E+02  0.70929457890E-01  0.29075530268E+01  0.12845474060E+02  0.41800000000E+01 0. -1.
         -5    1    3    3    0  502 -0.54327411364E+02  0.60457910016E+01  0.71836843804E+03  0.72045728839E+03  0.41800000000E+01 0. -1.
        -11    1    1    2    0    0 -0.27765250486E+02  0.90008943173E+01  0.79199602707E+02  0.84406766921E+02  0.00000000000E+00 0.  1.
         11    1    1    2    0    0  0.70299659339E+02 -0.15117614777E+02  0.28363265020E+03  0.29260564697E+03  0.00000000000E+00 0. -1.
</event>
<event>
 7    1  0.2440960E-009  0.1071984E+03  0.7561462E-02  0.1265848E+00
          1   -1    0    0  501    0  0.00000000000E+00  0.00000000000E+00  0.67870458084E+02  0.67870458084E+02  0.00000000000E+00 0. -1.
         -1   -1    0    0    0  501 -0.00000000000E+00 -0.00000000000E+00 -0.17357881100E+03  0.17357881100E+03  0.00000000000E+00 0.  1.
         25    2    1    2    0    0  0.78395957486E+01  0.10264353338E+02 -0.52319201479E+02  0.13618592262E+03  0.12506994229E+03 0.  0.
          5    1    3    3  502    0 -0.57176160918E+02 -0.55983571946E+01 -0.15328309000E+02  0.59606077185E+02  0.41800000000E+01 0.  1.
         -5    1    3    3    0  502  0.65015756667E+02  0.15862710532E+02 -0.36990892479E+02  0.76579845434E+02  0.41800000000E+01 0.  1.
        -11    1    1    2    0    0 -0.53569302682E+01 -0.49820726788E+02 -0.22091029400E+02  0.54761438070E+02  0.00000000000E+00 0. -1.
         11    1    1    2    0    0 -0.24826654805E+01  0.39556373450E+02 -0.31298122036E+02  0.50501908393E+02  0.00000000000E+00 0.  1.
</event>
<event>
 7    1  0.2440960E-009  0.8489400E+02  0.7561462E-02  0.1315710E+00
         -2   -1    0    0    0  501 -0.00000000000E+00  0.00000000000E+00  0.16413236440E+03  0.16413236440E+03  0.00000000000E+00 0.  1.
          2   -1    0    0  501    0  0.00000000000E+00 -0.00000000000E+00 -0.74813895497E+02  0.74813895497E+02  0.00000000000E+00 0. -1.
         25    2    1    2    0    0 -0.78197192102E+00 -0.23800819601E+02  0.60871670340E+02  0.14113664268E+03  0.12508837342E+03 0.  0.
          5    1    3    3  502    0  0.84927664894E+00  0.27866874597E+02 -0.27042783446E+02  0.39064926817E+02  0.41800000000E+01 0.  1.
         -5    1    3    3    0  502 -0.16312485700E+01 -0.51667694198E+02  0.87914453786E+02  0.10207171587E+03  0.41800000000E+01 0.  1.
        -11    1    1    2    0    0 -0.23809043107E+02  0.49028872158E+02  0.34518749872E+01  0.54613334266E+02  0.00000000000E+00 0.  1.
         11    1    1    2    0    0  0.24591015028E+02 -0.25228052557E+02  0.24994923578E+02  0.43196282949E+02  0.00000000000E+00 0. -1.
</event>
<event>
 7    1  0.2440960E-009  0.1678542E+03  0.7561462E-02  0.1180104E+00
          2   -1    0    0  501    0  0.00000000000E+00  0.00000000000E+00  0.19205549937E+03  0.19205549937E+03  0.00000000000E+00 0. -1.
         -2   -1    0    0    0  501 -0.00000000000E+00 -0.00000000000E+00 -0.17371078102E+03  0.17371078102E+03  0.00000000000E+00 0.  1.
         25    2    1    2    0    0 -0.11815259173E+03 -0.84435429615E+02  0.41940781509E+01  0.19171523668E+03  0.12509102676E+03 0.  0.
          5    1    3    3  502    0 -0.14208287532E+03 -0.72038487649E+02  0.19328219800E+02  0.16052457644E+03  0.41800000000E+01 0.  1.
         -5    1    3    3    0  502  0.23930283587E+02 -0.12396941966E+02 -0.15134141649E+02  0.31190660239E+02  0.41800000000E+01 0.  1.
        -11    1    1    2    0    0  0.38278265584E+02  0.47705354581E+02  0.50106611287E+02  0.79067685981E+02  0.00000000000E+00 0. -1.
         11    1    1    2    0    0  0.79874326146E+02  0.36730075035E+02 -0.35955971091E+02  0.94983357734E+02  0.00000000000E+00 0.  1.
</event>
<event>
 7    1  0.2440960E-009  0.1078016E+03  0.7561462E-02  0.1264696E+00
         -2   -1    0    0    0  501 -0.00000000000E+00  0.00000000000E+00  0.51891456224E+02  0.51891456224E+02  0.00000000000E+00 0. -1.
          2   -1    0    0  501    0  0.00000000000E+00 -0.00000000000E+00 -0.39477796611E+03  0.39477796611E+03  0.00000000000E+00 0.  1.
         25    2    1    2    0    0  0.26721503654E+02  0.88610314742E+02 -0.19746762914E+03  0.25141001041E+03  0.12509077560E+03 0.  0.
          5    1    3    3  502    0  0.13420929023E+02  0.24065938060E+02 -0.18129585255E+03  0.18342559599E+03  0.41800000000E+01 0. -1.
         -5    1    3    3    0  502  0.13300574631E+02  0.64544376681E+02 -0.16171776588E+02  0.67984414425E+02  0.41800000000E+01 0. -1.
        -11    1    1    2    0    0  0.22945313716E+02 -0.35747889600E+01 -0.61975655042E+02  0.66183444724E+02  0.00000000000E+00 0.  1.
         11    1    1    2    0    0 -0.49666817370E+02 -0.85035525782E+02 -0.83443225706E+02  0.12907596720E+03  0.00000000000E+00 0. -1.
</event>
<event>
 7    1  0.2440960E-009  0.5790092E+02  0.7561462E-02  0.1406858E+00
          1   -1    0    0  501    0  0.00000000000E+00  0.00000000000E+00  0.49768350481E+03  0.49768350481E+03  0.00000000000E+00 0. -1.
         -1   -1    0    0    0  501 -0.00000000000E+00 -0.00000000000E+00 -0.23159839306E+02  0.23159839306E+02  0.00000000000E+00 0.  1.
         25    2    1    2    0    0 -0.19261202505E+02 -0.27078999080E+01  0.33370596799E+03  0.35691186924E+03  0.12509229670E+03 0.  0.
          5    1    3    3  502    0 -0.10686335604E+02 -0.25352775032E+02  0.33102634545E+03  0.33219403178E+03  0.41800000000E+01 0. -1.
         -5    1    3    3    0  502 -0.85748669006E+01  0.22644875124E+02  0.26796225372E+01  0.24717837460E+02  0.41800000000E+01 0. -1.
        -11    1    1    2    0    0 -0.16137892194E+02 -0.16539073331E+02  0.11208696112E+03  0.11444413207E+03  0.00000000000E+00 0. -1.
         11    1    1    2    0    0  0.35399094700E+02  0.19246973239E+02  0.28730736401E+02  0.49487342812E+02  0.00000000000E+00 0.  1.
</event>
<event>
 7    1  0.2440960E-009  0.2190470E+03  0.7561462E-02  0.1134596E+00
          1   -1    0    0  501    0  0.00000000000E+00  0.00000000000E+00  0.77705923554E+03  0.77705923554E+03  0.00000000000E+00 0. -1.
         -1   -1    0    0    0  501 -0.00000000000E+00 -0.00000000000E+00 -0.73764130705E+02  0.73764130705E+02  0.00000000000E+00 0.  1.
         25    2    1    2    0    0 -0.14424888049E+03 -0.13355524619E+03  0.50704053165E+03  0.55801632343E+03  0.12508946065E+03 0.  0.
          5    1    3    3  502    0 -0.16674112630E+03 -0.12538045542E+03  0.45056437101E+03  0.49653659142E+03  0.41800000000E+01 0. -1.
         -5    1    3    3    0  502  0.22492245816E+02 -0.81747907744E+01  0.56476160643E+02  0.61479732001E+02  0.41800000000E+01 0. -1.
        -11    1    1    2    0    0  0.48277748607E+02  0.11069157285E+02  0.10755579901E+02  0.50684807907E+02  0.00000000000E+00 0.  1.
         11    1    1    2    0    0  0.95971131880E+02  0.12248608890E+03  0.18549899328E+03  0.24212223491E+03  0.00000000000E+00 0. -1.
</event>
<event>
 7    1  0.2440960E-009  0.1019843E+03  0.7561462E-02  0.1276178E+00
         -1   -1    0    0    0  501 -0.00000000000E+00  0.00000000000E+00  0.17429557353E+03  0.17429557353E+03  0.00000000000E+00 0.  1.
          1   -1    0    0  501    0  0.00000000000E+00 -0.00000000000E+00 -0.75236556553E+02  0.75236556553E+02  0.00000000000E+00 0. -1.
         25    2    1    2    0    0 -0.27060693911E+02  0.48872280388E+01  0.30149685927E+02  0.13158052290E+03  0.12509302256E+03 0.  0.
          5    1    3    3  502    0  0.24878676404E+02 -0.41087182680E+02  0.38353581620E+02  0.61608236002E+02  0.41800000000E+01 0. -1.
         -5    1    3    3    0  502 -0.51939370315E+02  0.45974410719E+02 -0.82038956928E+01  0.69972286901E+02  0.41800000000E+01 0. -1.
        -11    1    1    2    0    0 -0.12575157814E+02  0.30587970830E+02  0.52925857949E+02  0.62409173950E+02  0.00000000000E+00 0.  1.
         11    1    1    2    0    0  0.39635851725E+02 -0.35475198869E+02  0.15983473103E+02  0.55542433230E+02  0.00000000000E+00 0. -1.
</event>
<event>
 7    1  0.2440960E-009  0.9289821E+02  0.7561462E-02  0.1295981E+00
         -2   -1    0    0    0  501 -0.00000000000E+00  0.00000000000E+00  0.29997277829E+02  0.29997277829E+02  0.00000000000E+00 0.  1.
          2   -1    0    0  501    0  0.00000000000E+00 -0.00000000000E+00 -0.42541630711E+03  0.42541630711E+03  0.00000000000E+00 0. -1.
         25    2    1    2    0    0 -0.18852923514E+02 -0.17405218732E+02 -0.25533545399E+03  0.28548654616E+03  0.12509196461E+03 0.  0.
          5    1    3    3  502    0 -0.71410582297E+02 -0.93199088901E+01 -0.17234106203E+03  0.18682945707E+03  0.41800000000E+01 0. -1.
         -5    1    3    3    0  502  0.52557658783E+02 -0.80853098418E+01 -0.82994391955E+02  0.98657089092E+02  0.41800000000E+01 0. -1.
        -11    1    1    2    0    0  0.17325162152E+01  0.35422509612E+02 -0.14066416162E+03  0.14506606138E+03  0.00000000000E+00 0. -1.
         11    1    1    2    0    0  0.17120407298E+02 -0.18017290880E+02  0.58058632925E+00  0.24860977399E+02  0.00000000000E+00 0.  1.
</event>
<event>
 7    1  0.2440960E-009  0.5266211E+03  0.7561462E-02  0.1007055E+00
          2   -1    0    0  501    0  0.00000000000E+00  0.00000000000E+00  0.22739541716E+04  0.22739541716E+04  0.00000000000E+00 0. -1.
         -2   -1    0    0    0  501 -0.00000000000E+00 -0.00000000000E+00 -0.13738659504E+03  0.13738659504E+03  0.00000000000E+00 0.  1.
         25    2    1    2    0    0 -0.88109745803E+02  0.51554412013E+03  0.14126273622E+04  0.15115265461E+04  0.12508944050E+03 0.  0.
          5    1    3    3  502    0 -0.48052722065E+02  0.28754083529E+03  0.95727568867E+03  0.10006912674E+04  0.41800000000E+01 0.  1.
         -5    1    3    3    0  502 -0.40057023739E+02  0.22800328484E+03  0.45535167349E+03  0.51083527874E+03  0.41800000000E+01 0.  1.
        -11    1    1    2    0    0  0.38520259632E+02 -0.56178728262E+02  0.13550222905E+03  0.15165986282E+03  0.00000000000E+00 0.  1.
         11    1    1    2    0    0  0.49589486171E+02 -0.45936539187E+03  0.58843798534E+03  0.74815435772E+03  0.00000000000E+00 0. -1.
</event>
<event>
 7    1  0.2440960E-009  0.7116475E+02  0.7561462E-02  0.1356176E+00
         -1   -1    0    0    0  501 -0.00000000000E+00  0.00000000000E+00  0.31937828703E+03  0.31937828703E+03  0.00000000000E+00 0.  1.
          1   -1    0    0  501    0  0.00000000000E+00 -0.00000000000E+00 -0.39951098788E+02  0.39951098788E+02  0.00000000000E+00 0. -1.
         25    2    1    2    0    0  0.24243566895E+02  0.22905052804E+02  0.13368091869E+03  0.18609331831E+03  0.12509093940E+03 0.  0.
          5    1    3    3  502    0  0.31134271723E+02  0.74729732616E+01  0.15513733821E+03  0.15846215419E+03  0.41800000000E+01 0. -1.
         -5    1    3    3    0  502 -0.68907048280E+01  0.15432079543E+02 -0.21456419520E+02  0.27631164120E+02  0.41800000000E+01 0. -1.
        -11    1    1    2    0    0 -0.46106839907E+02  0.15326834815E+02  0.89059234344E+02  0.10145097227E+03  0.00000000000E+00 0. -1.
         11    1    1    2    0    0  0.21863273012E+02 -0.38231887619E+02  0.56687035210E+02  0.71785095240E+02  0.00000000000E+00 0.  1.
</event>
<event>
 7    1  0.2440960E-009  0.9341026E+02  0.7561462E-02  0.1294797E+00
          3   -1    0    0  501    0  0.00000000000E+00  0.00000000000E+00  0.31521306465E+02  0.31521306465E+02  0.00000000000E+00 0. -1.
         -3   -1    0    0    0  501 -0.00000000000E+00 -0.00000000000E+00 -0.50376571233E+03  0.50376571233E+03  0.00000000000E+00 0.  1.
         25    2    1    2    0    0  0.51261704764E+02  0.28231657433E+02 -0.33144057254E+03  0.35906109465E+03  0.12508887923E+03 0.  0.
          5    1    3    3  502    0 -0.36518314164E+02  0.13689006036E+02 -0.17210203607E+03  0.17651504009E+03  0.41800000000E+01 0. -1.
         -5    1    3    3    0  502  0.87780018928E+02  0.14542651397E+02 -0.15933853647E+03  0.18254605456E+03  0.41800000000E+01 0. -1.
        -11    1    1    2    0    0 -0.21695031613E+02 -0.11744486828E+02 -0.14021421110E+03  0.14236794710E+03  0.00000000000E+00 0.  1.
         11    1    1    2    0    0 -0.29566673151E+02 -0.16487170605E+02 -0.58962223185E+00  0.33857977053E+02  0.00000000000E+00 0. -1.
</event>
<event>
 7    1  0.2440960E-009  0.7459676E+02  0.7561462E-02  0.1345124E+00
          1   -1    0    0  501    0  0.00000000000E+00  0.00000000000E+00  0.29980707903E+03  0.29980707903E+03  0.00000000000E+00 0. -1.
         -1   -1    0    0    0  501 -0.00000000000E+00 -0.00000000000E+00 -0.45544387392E+02  0.45544387392E+02  0.00000000000E+00 0.  1.
         25    2    1    2    0    0  0.40942914272E+02 -0.78881949755E+01  0.10136812304E+03  0.16631926094E+03  0.12509218337E+03 0.  0.
          5    1    3    3  502    0  0.44368482589E+02 -0.15146040387E+02 -0.15152882388E+02  0.49447416832E+02  0.41800000000E+01 0.  1.
         -5    1    3    3    0  502 -0.34255683177E+01  0.72578454115E+01  0.11652100543E+03  0.11687184411E+03  0.41800000000E+01 0.  1.
        -11    1    1    2    0    0  0.25791998649E+02  0.50444930373E+01  0.46292338443E+02  0.53232083397E+02  0.00000000000E+00 0.  1.
         11    1    1    2    0    0 -0.66734912921E+02  0.28437019382E+01  0.10660223016E+03  0.12580012209E+03  0.00000000000E+00 0. -1.
</event>
<event>
 7    1  0.2440960E-009  0.1124440E+03  0.7561462E-02  0.1256110E+00
          1   -1    0    0  501    0  0.00000000000E+00  0.00000000000E+00  0.50973944955E+02  0.50973944955E+02  0.00000000000E+00 0. -1.
         -1   -1    0    0    0  501 -0.00000000000E+00 -0.00000000000E+00 -0.45171168701E+03  0.45171168701E+03  0.00000000000E+00 0.  1.
         25    2    1    2    0    0  0.34403709783E+02 -0.90601949777E+02 -0.28601844247E+03  0.32686819252E+03  0.12507572624E+03 0.  0.
          5    1    3    3  502    0  0.44933140740E+02 -0.89401780066E+02 -0.29552387520E+03  0.31203124624E+03  0.41800000000E+01 0.  1.
         -5    1    3    3    0  502 -0.10529430957E+02 -0.12001697112E+01  0.95054327268E+01  0.14836946281E+02  0.41800000000E+01 0.  1.
        -11    1    1    2    0    0 -0.42571240347E+02  0.29710679250E+02 -0.77893931008E+01  0.52494853187E+02  0.00000000000E+00 0.  1.
         11    1    1    2    0    0  0.81675305641E+01  0.60891270527E+02 -0.10692990648E+03  0.12332258626E+03  0.00000000000E+00 0. -1.
</event>
<event>
 7    1  0.2440960E-009  0.7132831E+02  0.7561462E-02  0.1355633E+00
         -1   -1    0    0    0  501 -0.00000000000E+00  0.00000000000E+00  0.24527894002E+02  0.24527894002E+02  0.00000000000E+00 0.  1.
          1   -1    0    0  501    0  0.00000000000E+00 -0.00000000000E+00 -0.57104779270E+03  0.57104779270E+03  0.00000000000E+00 0. -1.
         25    2    1    2    0    0 -0.11252853344E+02  0.24702691285E+02 -0.41021486928E+03  0.42972105934E+03  0.12508836958E+03 0.  0.
          5    1    3    3  502    0  0.28366169412E+02  0.20866914988E+02 -0.27385356965E+02  0.44805110025E+02  0.41800000000E+01 0.  1.
         -5    1    3    3    0  502 -0.39619022756E+02  0.38357762972E+01 -0.38282951231E+03  0.38491594932E+03  0.41800000000E+01 0.  1.
        -11    1    1    2    0    0 -0.25491116180E+02 -0.73058357509E+01 -0.32362334921E+01  0.26714143208E+02  0.00000000000E+00 0.  1.
         11    1    1    2    0    0  0.36743969524E+02 -0.17396855535E+02 -0.13306879593E+03  0.13914048415E+03  0.00000000000E+00 0. -1.
</event>
<event>
 7    1  0.2440960E-009  0.1155167E+03  0.7561462E-02  0.1250682E+00
         -1   -1    0    0    0  501 -0.00000000000E+00  0.00000000000E+00  0.35361259969E+03  0.35361259969E+03  0.00000000000E+00 0.  1.
          1   -1    0    0  501    0  0.00000000000E+00 -0.00000000000E+00 -0.62430891085E+02  0.62430891085E+02  0.00000000000E+00 0. -1.
         25    2    1    2    0    0  0.33982656868E+02 -0.41222480265E+02  0.35706994500E+02  0.14062808706E+03  0.12508859088E+03 0.  0.
          5    1    3    3  502    0 -0.34441166531E+02  0.17018176605E+02 -0.97342854627E+01  0.39850232126E+02  0.41800000000E+01 0. -1.
         -5    1    3    3    0  502  0.68423823400E+02 -0.58240656870E+02  0.45441279963E+02  0.10077785494E+03  0.41800000000E+01 0. -1.
        -11    1    1    2    0    0  0.57438304338E+01 -0.24761427740E+02  0.75098304966E+02  0.79283512161E+02  0.00000000000E+00 0. -1.
         11    1    1    2    0    0 -0.39726487302E+02  0.65983908005E+02  0.18037640914E+03  0.19613189155E+03  0.00000000000E+00 0.  1.
</event>
<event>
 7    1  0.2440960E-009  0.4566494E+02  0.7561462E-02  0.1470233E+00
          2   -1    0    0  501    0  0.00000000000E+00  0.00000000000E+00  0.45853102235E+03  0.45853102235E+03  0.00000000000E+00 0. -1.
         -2   -1    0    0    0  501 -0.00000000000E+00 -0.00000000000E+00 -0.20290258237E+02  0.20290258237E+02  0.00000000000E+00 0.  1.
         25    2    1    2    0    0  0.36194019529E+01 -0.95247765197E+01  0.28961327763E+03  0.31563981069E+03  0.12509523603E+03 0.  0.
          5    1    3    3  502    0  0.11054154527E+02 -0.99486295476E+01  0.30100579223E+03  0.30140193914E+03  0.41800000000E+01 0.  1.
         -5    1    3    3    0  502 -0.74347525738E+01  0.42385302791E+00 -0.11392514604E+02  0.14237871548E+02  0.41800000000E+01 0.  1.
        -11    1    1    2    0    0 -0.21241840187E+02 -0.22403839880E+02  0.66015236147E+02  0.72877700427E+02  0.00000000000E+00 0.  1.
         11    1    1    2    0    0  0.17622438234E+02  0.31928616400E+02  0.82612250340E+02  0.90303769471E+02  0.00000000000E+00 0. -1.
</event>
<event>
 7    1  0.2440960E-009  0.7383370E+02  0.7561462E-02  0.1347521E+00
         -4   -1    0    0    0  501 -0.00000000000E+00  0.00000000000E+00  0.82500156574E+02  0.82500156574E+02  0.00000000000E+00 0.  1.
          4   -1    0    0  501    0  0.00000000000E+00 -0.00000000000E+00 -0.16976383521E+03  0.16976383521E+03  0.00000000000E+00 0. -1.
         25    2    1    2    0    0  0.38942248019E+02  0.19879950606E+02 -0.43726279642E+02  0.13954604383E+03  0.12509756073E+03 0.  0.
          5    1    3    3  502    0  0.21357581268E+01  0.55831158730E+01 -0.83222305910E+02  0.83541350519E+02  0.41800000000E+01 0.  1.
         -5    1    3    3    0  502  0.36806489893E+02  0.14296834733E+02  0.39496026268E+02  0.56004693308E+02  0.41800000000E+01 0.  1.
        -11    1    1    2    0    0 -0.68417595057E+02 -0.79851923403E+01 -0.42455187009E+02  0.80914606309E+02  0.00000000000E+00 0.  1.
         11    1    1    2    0    0  0.29475347038E+02 -0.11894758266E+02 -0.10822119858E+01  0.31803341648E+02  0.00000000000E+00 0. -1.
</event>
<event>
 7    1  0.2729071E-009  0.1293305E+03  0.7561462E-02  0.1228452E+00
          2   -1    0    0  501    0  0.00000000000E+00  0.00000000000E+00  0.57586459484E+03  0.57586459484E+03  0.00000000000E+00 0.  1.
         -2   -1    0    0    0  501 -0.00000000000E+00 -0.00000000000E+00 -0.42529435380E+02  0.42529435380E+02  0.00000000000E+00 0. -1.
         25    2    1    2    0    0 -0.82829269329E+02  0.49342424603E+02  0.40261562399E+03  0.43248329159E+03  0.12508834517E+03 0.  0.
          5    1    3    3  502    0  0.24798300168E+02  0.32514964601E+02  0.58389422544E+02  0.71407112245E+02  0.41800000000E+01 0.  1.
         -5    1    3    3    0  502 -0.10762756950E+03  0.16827460002E+02  0.34422620145E+03  0.36107617934E+03  0.41800000000E+01 0.  1.
        -11    1    1    2    0    0  0.81894092359E+02 -0.27075403779E+02  0.13776325858E+03  0.16253748880E+03  0.00000000000E+00 0.  1.
         11    1    1    2    0    0  0.93517696950E+00 -0.22267020825E+02 -0.70437231056E+01  0.23373249829E+02  0.00000000000E+00 0. -1.
</event>
<event>
 7    1  0.2440960E-009  0.1121498E+03  0.7561462E-02  0.1256640E+00
         -1   -1    0    0    0  501 -0.00000000000E+00  0.00000000000E+00  0.20117997348E+02  0.20117997348E+02  0.00000000000E+00 0.  1.
          1   -1    0    0  501    0  0.00000000000E+00 -0.00000000000E+00 -0.83199575604E+03  0.83199575604E+03  0.00000000000E+00 0. -1.
         25    2    1    2    0    0 -0.11734710278E+02  0.69285878371E+02 -0.43457198431E+03  0.45764740778E+03  0.12510037542E+03 0.  0.
          5    1    3    3  502    0  0.25852830787E+02 -0.95495640235E+01 -0.26868600756E+03  0.27012812903E+03  0.41800000000E+01 0. -1.
         -5    1    3    3    0  502 -0.37587541065E+02  0.78835442394E+02 -0.16588597675E+03  0.18751927875E+03  0.41800000000E+01 0. -1.
        -11    1    1    2    0    0  0.26027359866E+02  0.10400642625E+02 -0.50238005556E+02  0.57527854391E+02  0.00000000000E+00 0.  1.
         11    1    1    2    0    0 -0.14292649588E+02 -0.79686520996E+02 -0.32706776882E+03  0.33693849122E+03  0.00000000000E+00 0. -1.
</event>
<event>
 7    1  0.2440960E-009  0.1134950E+03  0.7561462E-02  0.1254231E+00
         -2   -1    0    0    0  501 -0.00000000000E+00  0.00000000000E+00  0.18991720885E+02  0.18991720885E+02  0.00000000000E+00 0. -1.
          2   -1    0    0  501    0  0.00000000000E+00 -0.00000000000E+00 -0.10745722066E+04  0.10745722066E+04  0.00000000000E+00 0.  1.
         25    2    1    2    0    0 -0.57174264375E+02 -0.28654253827E+02 -0.83836785737E+03  0.85005748464E+03  0.12508836941E+03 0.  0.
          5    1    3    3  502    0 -0.54194557893E+02 -0.70582983548E+02 -0.69216553655E+03  0.69787506766E+03  0.41800000000E+01 0.  1.
         -5    1    3    3    0  502 -0.29797064824E+01  0.41928729721E+02 -0.14620232082E+03  0.15218241698E+03  0.41800000000E+01 0.  1.
        -11    1    1    2    0    0 -0.14123957363E+02 -0.72024780178E+01 -0.47519785095E+01  0.16551228382E+02  0.00000000000E+00 0. -1.
         11    1    1    2    0    0  0.71298221738E+02  0.35856731845E+02 -0.21246064985E+03  0.22695521448E+03  0.00000000000E+00 0.  1.
</event>
<event>
 7    1  0.2440960E-009  0.1147111E+03  0.7561462E-02  0.1252086E+00
         -2   -1    0    0    0  501 -0.00000000000E+00  0.00000000000E+00  0.21259192551E+03  0.21259192551E+03  0.00000000000E+00 0.  1.
          2   -1    0    0  501    0  0.00000000000E+00 -0.00000000000E+00 -0.90003357376E+02  0.90003357376E+02  0.00000000000E+00 0. -1.
         25    2    1    2    0    0 -0.74847800722E+02 -0.23613009121E+02  0.30443748888E+02  0.15077692570E+03  0.12508833680E+03 0.  0.
          5    1    3    3  502    0 -0.56031562842E+02  0.44948594773E+02 -0.31692944767E+01  0.72023808800E+02  0.41800000000E+01 0. -1.
         -5    1    3    3    0  502 -0.18816237879E+02 -0.68561603895E+02  0.33613043364E+02  0.78753116895E+02  0.41800000000E+01 0. -1.
        -11    1    1    2    0    0  0.56840362974E+01 -0.83141875381E+01 -0.16378735222E+02  0.19227505052E+02  0.00000000000E+00 0. -1.
         11    1    1    2    0    0  0.69163764424E+02  0.31927196660E+02  0.10852355446E+03  0.13259085213E+03  0.00000000000E+00 0.  1.
</event>
<event>
 7    1  0.2440960E-009  0.1348292E+03  0.7561462E-02  0.1220461E+00
         -1   -1    0    0    0  501 -0.00000000000E+00  0.00000000000E+00  0.21173692749E+02  0.21173692749E+02  0.00000000000E+00 0.  1.
          1   -1    0    0  501    0  0.00000000000E+00 -0.00000000000E+00 -0.11020468480E+04  0.11020468480E+04  0.00000000000E+00 0. -1.
         25    2    1    2    0    0  0.10431419837E+03  0.15022597715E+02 -0.64921954606E+03  0.66950773063E+03  0.12508977561E+03 0.  0.
          5    1    3    3  502    0  0.15724825282E+02  0.61376675180E+02 -0.25140710031E+03  0.25930169470E+03  0.41800000000E+01 0.  1.
         -5    1    3    3    0  502  0.88589373089E+02 -0.46354077465E+02 -0.39781244575E+03  0.41020603593E+03  0.41800000000E+01 0.  1.
        -11    1    1    2    0    0 -0.22633419171E+02 -0.83986180254E+01 -0.13611703961E+02  0.27714381336E+02  0.00000000000E+00 0.  1.
         11    1    1    2    0    0 -0.81680779200E+02 -0.66239796895E+01 -0.41804190522E+03  0.42599842878E+03  0.00000000000E+00 0. -1.
</event>
<event>
 7    1  0.2440960E-009  0.1022637E+03  0.7561462E-02  0.1275606E+00
         -2   -1    0    0    0  501 -0.00000000000E+00  0.00000000000E+00  0.21799459100E+03  0.21799459100E+03  0.00000000000E+00 0.  1.
          2   -1    0    0  501    0  0.00000000000E+00 -0.00000000000E+00 -0.60593816699E+02  0.60593816699E+02  0.00000000000E+00 0. -1.
         25    2    1    2    0    0 -0.25228318541E+02  0.26579888132E+02  0.10315899001E+03  0.16623318146E+03  0.12509490353E+03 0.  0.
          5    1    3    3  502    0 -0.59383604912E+02 -0.16094314817E+02  0.91252350620E+02  0.11013584065E+03  0.41800000000E+01 0. -1.
         -5    1    3    3    0  502  0.34155286371E+02  0.42674202950E+02  0.11906639385E+02  0.56097340810E+02  0.41800000000E+01 0. -1.
        -11    1    1    2    0    0 -0.17757938293E+02  0.18574115442E+02  0.41363130959E+02  0.48695489931E+02  0.00000000000E+00 0.  1.
         11    1    1    2    0    0  0.42986256834E+02 -0.45154003575E+02  0.12878653340E+02  0.63659736312E+02  0.00000000000E+00 0. -1.
</event>
<event>
 7    1  0.2440960E-009  0.1412150E+03  0.7561462E-02  0.1211703E+00
          1   -1    0    0  501    0  0.00000000000E+00  0.00000000000E+00  0.18856086156E+04  0.18856086156E+04  0.00000000000E+00 0. -1.
         -1   -1    0    0    0  501 -0.00000000000E+00 -0.00000000000E+00 -0.22573677917E+02  0.22573677917E+02  0.00000000000E+00 0.  1.
         25    2    1    2    0    0 -0.33369558535E+02 -0.11375821466E+03  0.15713684029E+04  0.15807911533E+04  0.12509018300E+03 0.  0.
          5    1    3    3  502    0  0.21335495802E+02 -0.95631089225E+02  0.12798215336E+04  0.12835735814E+04  0.41800000000E+01 0.  1.
         -5    1    3    3    0  502 -0.54705054338E+02 -0.18127125432E+02  0.29154686925E+03  0.29721757185E+03  0.41800000000E+01 0.  1.
        -11    1    1    2    0    0  0.33132047963E+02  0.36408714497E+02  0.37983198149E+02  0.62177571801E+02  0.00000000000E+00 0.  1.
         11    1    1    2    0    0  0.23751057280E+00  0.77349500159E+02  0.25368333668E+03  0.26521356846E+03  0.00000000000E+00 0. -1.
</event>
<event>
 7    1  0.2440960E-009  0.1393251E+03  0.7561462E-02  0.1214240E+00
         -2   -1    0    0    0  501 -0.00000000000E+00  0.00000000000E+00  0.92584780106E+02  0.92584780106E+02  0.00000000000E+00 0.  1.
          2   -1    0    0  501    0  0.00000000000E+00 -0.00000000000E+00 -0.27139947359E+03  0.27139947359E+03  0.00000000000E+00 0. -1.
         25    2    1    2    0    0  0.21088579529E+02  0.11204061012E+03 -0.74308439673E+02  0.18484366649E+03  0.12509040863E+03 0.  0.
          5    1    3    3  502    0 -0.22859616994E+01 -0.10534048117E+02 -0.57751263711E+02  0.58897136185E+02  0.41800000000E+01 0. -1.
         -5    1    3    3    0  502  0.23374541229E+02  0.12257465824E+03 -0.16557175962E+02  0.12594653030E+03  0.41800000000E+01 0. -1.
        -11    1    1    2    0    0  0.10705173927E+02  0.10883596727E+02 -0.94960977900E+00  0.15295593655E+02  0.00000000000E+00 0.  1.
         11    1    1    2    0    0 -0.31793753456E+02 -0.12292420685E+03 -0.10355664403E+03  0.16384499355E+03  0.00000000000E+00 0. -1.
</event>
<event>
 7    1  0.2597464E-009  0.9264831E+02  0.7561462E-02  0.1296562E+00
          1   -1    0    0  501    0  0.00000000000E+00  0.00000000000E+00  0.31198884655E+03  0.31198884655E+03  0.00000000000E+00 0. -1.
         -1   -1    0    0    0  501 -0.00000000000E+00 -0.00000000000E+00 -0.57720203370E+02  0.57720203370E+02  0.00000000000E+00 0.  1.
         25    2    1    2    0    0  0.27982197494E+02 -0.64569916890E+02  0.18958659220E+03  0.23778790675E+03  0.12509090739E+03 0.  0.
          5    1    3    3  502    0 -0.50568293477E+01 -0.51771227337E+02  0.19485669094E+03  0.20172365728E+03  0.41800000000E+01 0. -1.
         -5    1    3    3    0  502  0.33039026842E+02 -0.12798689553E+02 -0.52700987424E+01  0.36064249468E+02  0.41800000000E+01 0. -1.
        -11    1    1    2    0    0  0.22016715471E+02  0.27306358120E+02  0.59856651709E+02  0.69377169931E+02  0.00000000000E+00 0. -1.
         11    1    1    2    0    0 -0.49998912965E+02  0.37263558770E+02  0.48253992689E+01  0.62543973235E+02  0.00000000000E+00 0.  1.
</event>
<event>
 7    1  0.2440960E-009  0.1074095E+03  0.7561462E-02  0.1265444E+00
          1   -1    0    0  501    0  0.00000000000E+00  0.00000000000E+00  0.26236137827E+03  0.26236137827E+03  0.00000000000E+00 0. -1.
         -1   -1    0    0    0  501 -0.00000000000E+00 -0.00000000000E+00 -0.79036639144E+02  0.79036639144E+02  0.00000000000E+00 0.  1.
         25    2    1    2    0    0  0.73657804851E+02  0.50007696979E+02  0.13644714590E+03  0.20540605611E+03  0.12509029655E+03 0.  0.
          5    1    3    3  502    0  0.16957104254E+02  0.66083771188E+01  0.13245943600E+03  0.13376916168E+03  0.41800000000E+01 0. -1.
         -5    1    3    3    0  502  0.56700700597E+02  0.43399319860E+02  0.39877098968E+01  0.71636894424E+02  0.41800000000E+01 0. -1.
        -11    1    1    2    0    0 -0.77525176373E+02 -0.31354442778E+01  0.43230455118E+02  0.88819233459E+02  0.00000000000E+00 0. -1.
         11    1    1    2    0    0  0.38673715226E+01 -0.46872252701E+02  0.36471381095E+01  0.47172727843E+02  0.00000000000E+00 0.  1.
</event>
<event>
 7    1  0.2440960E-009  0.9783911E+02  0.7561462E-02  0.1284907E+00
          1   -1    0    0  501    0  0.00000000000E+00  0.00000000000E+00  0.35276534031E+02  0.35276534031E+02  0.00000000000E+00 0. -1.
         -1   -1    0    0    0  501 -0.00000000000E+00 -0.00000000000E+00 -0.54335869146E+03  0.54335869146E+03  0.00000000000E+00 0.  1.
         25    2    1    2    0    0 -0.44044772352E+02  0.35260983974E+02 -0.14446653105E+03  0.19924906933E+03  0.12508530718E+03 0.  0.
          5    1    3    3  502    0 -0.63501501475E+02  0.32985974211E+02 -0.21747661781E+02  0.74906263938E+02  0.41800000000E+01 0. -1.
         -5    1    3    3    0  502  0.19456729123E+02  0.22750097625E+01 -0.12271886927E+03  0.12434280539E+03  0.41800000000E+01 0. -1.
        -11    1    1    2    0    0 -0.32960606553E+01 -0.53229901022E+02 -0.13336293660E+03  0.14363133097E+03  0.00000000000E+00 0. -1.
         11    1    1    2    0    0  0.47340833007E+02  0.17968917049E+02 -0.23025268978E+03  0.23575482519E+03  0.00000000000E+00 0.  1.
</event>
<event>
 7    1  0.2440960E-009  0.1152111E+03  0.7561462E-02  0.1251213E+00
          2   -1    0    0  501    0  0.00000000000E+00  0.00000000000E+00  0.55382580846E+03  0.55382580846E+03  0.00000000000E+00 0. -1.
         -2   -1    0    0    0  501 -0.00000000000E+00 -0.00000000000E+00 -0.26447421400E+02  0.26447421400E+02  0.00000000000E+00 0.  1.
         25    2    1    2    0    0 -0.73650001990E+01  0.48924969812E+02  0.34754129187E+03  0.37266377489E+03  0.12508174791E+03 0.  0.
          5    1    3    3  502    0  0.22003001554E+02 -0.36555970666E+02  0.13561694253E+03  0.14223184795E+03  0.41800000000E+01 0.  1.
         -5    1    3    3    0  502 -0.29368001753E+02  0.85480940478E+02  0.21192434933E+03  0.23043192694E+03  0.41800000000E+01 0.  1.
        -11    1    1    2    0    0 -0.38156262076E+02 -0.25305253208E+02  0.48906382647E+02  0.66993211889E+02  0.00000000000E+00 0.  1.
         11    1    1    2    0    0  0.45521262275E+02 -0.23619716604E+02  0.13093071255E+03  0.14061624309E+03  0.00000000000E+00 0. -1.
</event>
<event>
 7    1  0.2440960E-009  0.1062741E+03  0.7561462E-02  0.1267629E+00
          1   -1    0    0  501    0  0.00000000000E+00  0.00000000000E+00  0.47572426161E+03  0.47572426161E+03  0.00000000000E+00 0. -1.
         -1   -1    0    0    0  501 -0.00000000000E+00 -0.00000000000E+00 -0.39159218534E+02  0.39159218534E+02  0.00000000000E+00 0.  1.
         25    2    1    2    0    0  0.70673957263E+02 -0.25251471622E+02  0.30256637232E+03  0.33589749388E+03  0.12509305210E+03 0.  0.
          5    1    3    3  502    0  0.57968115242E+02  0.75084661056E+01  0.29360347943E+03  0.29939464755E+03  0.41800000000E+01 0. -1.
         -5    1    3    3    0  502  0.12705842021E+02 -0.32759937728E+02  0.89628928900E+01  0.36502846332E+02  0.41800000000E+01 0. -1.
        -11    1    1    2    0    0 -0.32992048114E+02  0.59245099404E+02  0.80248959895E+02  0.10506356460E+03  0.00000000000E+00 0.  1.
         11    1    1    2    0    0 -0.37681909150E+02 -0.33993627782E+02  0.53749710861E+02  0.73922421664E+02  0.00000000000E+00 0. -1.
</event>
<event>
 7    1  0.2440960E-009  0.1387128E+03  0.7561462E-02  0.1215072E+00
          1   -1    0    0  501    0  0.00000000000E+00  0.00000000000E+00  0.19304990118E+03  0.19304990118E+03  0.00000000000E+00 0. -1.
         -1   -1    0    0    0  501 -0.00000000000E+00 -0.00000000000E+00 -0.16675248884E+03  0.16675248884E+03  0.00000000000E+00 0.  1.
         25    2    1    2    0    0  0.92557076106E+02 -0.57579076775E+02  0.10759353983E+03  0.19775172308E+03  0.12508881543E+03 0.  0.
          5    1    3    3  502    0  0.95303028319E+02 -0.80753771759E+02  0.48474937699E+02  0.13405644649E+03  0.41800000000E+01 0.  1.
         -5    1    3    3    0  502 -0.27459522132E+01  0.23174694983E+02  0.59118602136E+02  0.63695276588E+02  0.41800000000E+01 0.  1.
        -11    1    1    2    0    0 -0.19718120195E+02 -0.15854003325E+02 -0.46474859334E+02  0.52915652085E+02  0.00000000000E+00 0.  1.
         11    1    1    2    0    0 -0.72838955911E+02  0.73433080100E+02 -0.34821268159E+02  0.10913501486E+03  0.00000000000E+00 0. -1.
</event>
<event>
 7    1  0.2440960E-009  0.9025498E+02  0.7561462E-02  0.1302235E+00
         -1   -1    0    0    0  501 -0.00000000000E+00  0.00000000000E+00  0.52478290449E+03  0.52478290449E+03  0.00000000000E+00 0.  1.
          1   -1    0    0  501    0  0.00000000000E+00 -0.00000000000E+00 -0.30852256810E+02  0.30852256810E+02  0.00000000000E+00 0. -1.
         25    2    1    2    0    0  0.11703019181E+02  0.38706312712E+02  0.39001096343E+03  0.41157070226E+03  0.12508697797E+03 0.  0.
          5    1    3    3  502    0 -0.27541480544E+02  0.37404137873E+02  0.46712267164E+02  0.66008416010E+02  0.41800000000E+01 0. -1.
         -5    1    3    3    0  502  0.39244499725E+02  0.13021748393E+01  0.34329869627E+03  0.34556228625E+03  0.41800000000E+01 0. -1.
        -11    1    1    2    0    0  0.10763349960E+02  0.24792586113E+02  0.53458966177E+02  0.59903114220E+02  0.00000000000E+00 0.  1.
         11    1    1    2    0    0 -0.22466369140E+02 -0.63498898825E+02  0.50460718075E+02  0.84161344826E+02  0.00000000000E+00 0. -1.
</event>
<event>
 7    1  0.2440960E-009  0.1138280E+03  0.7561462E-02  0.1253641E+00
          2   -1    0    0  501    0  0.00000000000E+00  0.00000000000E+00  0.11764262858E+04  0.11764262858E+04  0.00000000000E+00 0.  1.
         -2   -1    0    0    0  501 -0.00000000000E+00 -0.00000000000E+00 -0.17360344476E+02  0.17360344476E+02  0.00000000000E+00 0. -1.
         25    2    1    2    0    0 -0.80273634612E+02 -0.47174517615E+01  0.82483394098E+03  0.83813166053E+03  0.12509012522E+03 0.  0.
          5    1    3    3  502    0 -0.61314838705E+02 -0.60310744806E+02  0.57752802818E+03  0.58391180080E+03  0.41800000000E+01 0. -1.
         -5    1    3    3    0  502 -0.18958795907E+02  0.55593293045E+02  0.24730591280E+03  0.25421985973E+03  0.41800000000E+01 0. -1.
        -11    1    1    2    0    0  0.71962169448E+02 -0.19801352212E+01  0.33701982006E+03  0.34462274139E+03  0.00000000000E+00 0.  1.
         11    1    1    2    0    0  0.83114651640E+01  0.66975869826E+01 -0.27878196888E+01  0.11032228387E+02  0.00000000000E+00 0. -1.
</event>
<event>
 7    1  0.2440960E-009  0.5735322E+02  0.7561462E-02  0.1409287E+00
          2   -1    0    0  501    0  0.00000000000E+00  0.00000000000E+00  0.11480354686E+03  0.11480354686E+03  0.00000000000E+00 0.  1.
         -2   -1    0    0    0  501 -0.00000000000E+00 -0.00000000000E+00 -0.11132902426E+03  0.11132902426E+03  0.00000000000E+00 0. -1.
         25    2    1    2    0    0 -0.23306037879E+02 -0.11059408820E+02  0.23844463545E+02  0.12992898604E+03  0.12508997181E+03 0.  0.
          5    1    3    3  502    0  0.26209358113E+02 -0.18131669086E+02 -0.38329843089E+02  0.50023366018E+02  0.41800000000E+01 0.  1.
         -5    1    3    3    0  502 -0.49515395992E+02  0.70722602662E+01  0.62174306634E+02  0.79905620021E+02  0.41800000000E+01 0.  1.
        -11    1    1    2    0    0  0.14389093307E+02  0.16525759797E+02 -0.55436745330E+02  0.59610229624E+02  0.00000000000E+00 0. -1.
         11    1    1    2    0    0  0.89169445717E+01 -0.54663509764E+01  0.35066804391E+02  0.36593355458E+02  0.00000000000E+00 0.  1.
</event>
<event>
 7    1  0.2440960E-009  0.1051334E+03  0.7561462E-02  0.1269857E+00
         -1   -1    0    0    0  501 -0.00000000000E+00  0.00000000000E+00  0.23430167591E+02  0.23430167591E+02  0.00000000000E+00 0.  1.
          1   -1    0    0  501    0  0.00000000000E+00 -0.00000000000E+00 -0.51974187239E+03  0.51974187239E+03  0.00000000000E+00 0. -1.
         25    2    1    2    0    0  0.21962537029E+02  0.91418896145E+01 -0.30104590589E+03  0.32686728880E+03  0.12509060658E+03 0.  0.
          5    1    3    3  502    0 -0.33397035786E+02 -0.33825704955E+02 -0.65210210344E+02  0.80804605365E+02  0.41800000000E+01 0.  1.
         -5    1    3    3    0  502  0.55359572815E+02  0.42967594569E+02 -0.23583569555E+03  0.24606268344E+03  0.41800000000E+01 0.  1.
        -11    1    1    2    0    0 -0.11736503551E+02  0.40240051831E+02 -0.75513329149E+02  0.86367066444E+02  0.00000000000E+00 0. -1.
         11    1    1    2    0    0 -0.10226033479E+02 -0.49381941446E+02 -0.11975246976E+03  0.12993768474E+03  0.00000000000E+00 0.  1.
</event>
<event>
 7    1  0.2440960E-009  0.8811231E+02  0.7561462E-02  0.1307488E+00
         -2   -1    0    0    0  501 -0.00000000000E+00  0.00000000000E+00  0.11685607958E+03  0.11685607958E+03  0.00000000000E+00 0.  1.
          2   -1    0    0  501    0  0.00000000000E+00 -0.00000000000E+00 -0.14003915311E+03  0.14003915311E+03  0.00000000000E+00 0. -1.
         25    2    1    2    0    0 -0.51837757223E+02  0.20925688817E+02 -0.47500116920E+02  0.14501302505E+03  0.12508988288E+03 0.  0.
          5    1    3    3  502    0 -0.58815545726E+02 -0.78024578409E+01  0.26576575913E+02  0.65145479925E+02  0.41800000000E+01 0. -1.
         -5    1    3    3    0  502  0.69777885026E+01  0.28728146658E+02 -0.74076692833E+02  0.79867545122E+02  0.41800000000E+01 0. -1.
        -11    1    1    2    0    0 -0.14925739081E+02  0.42782532839E+01  0.36336282422E+02  0.39514637269E+02  0.00000000000E+00 0.  1.
         11    1    1    2    0    0  0.66763496304E+02 -0.25203942101E+02 -0.12019239033E+02  0.72367570383E+02  0.00000000000E+00 0. -1.
</event>
<event>
 7    1  0.2440960E-009  0.1507095E+03  0.7561462E-02  0.1199604E+00
          2   -1    0    0  501    0  0.00000000000E+00  0.00000000000E+00  0.60717603653E+03  0.60717603653E+03  0.00000000000E+00 0. -1.
         -2   -1    0    0    0  501 -0.00000000000E+00 -0.00000000000E+00 -0.72242875903E+02  0.72242875903E+02  0.00000000000E+00 0.  1.
         25    2    1    2    0    0 -0.77662220315E+02  0.85028448117E+02  0.50126523723E+03  0.52931724050E+03  0.12509454655E+03 0.  0.
          5    1    3    3  502    0 -0.10965651860E+03  0.47181553277E+02  0.32884065018E+03  0.34986325421E+03  0.41800000000E+01 0.  1.
         -5    1    3    3    0  502  0.31994298282E+02  0.37846894839E+02  0.17242458706E+03  0.17945398629E+03  0.41800000000E+01 0.  1.
        -11    1    1    2    0    0  0.31611446899E+02  0.41363084174E+01 -0.18642868646E+02  0.36931682520E+02  0.00000000000E+00 0.  1.
         11    1    1    2    0    0  0.46050773416E+02 -0.89164756534E+02  0.52310792035E+02  0.11316998941E+03  0.00000000000E+00 0. -1.
</event>
<event>
 7    1  0.2440960E-009  0.1493782E+03  0.7561462E-02  0.1201239E+00
          1   -1    0    0  501    0  0.00000000000E+00  0.00000000000E+00  0.18748669695E+03  0.18748669695E+03  0.00000000000E+00 0. -1.
         -1   -1    0    0    0  501 -0.00000000000E+00 -0.00000000000E+00 -0.16294426317E+03  0.16294426317E+03  0.00000000000E+00 0.  1.
         25    2    1    2    0    0  0.10297077572E+03  0.12677869460E+02 -0.75816450865E+02  0.17933291024E+03  0.12509376262E+03 0.  0.
          5    1    3    3  502    0 -0.25939279570E+02 -0.12028895804E+02 -0.26022188022E+02  0.38886594455E+02  0.41800000000E+01 0. -1.
         -5    1    3    3    0  502  0.12891005529E+03  0.24706765264E+02 -0.49794262844E+02  0.14044631578E+03  0.41800000000E+01 0. -1.
        -11    1    1    2    0    0 -0.92917092491E+02 -0.46036433734E+02  0.76811682703E+02  0.12904640215E+03  0.00000000000E+00 0.  1.
         11    1    1    2    0    0 -0.10053683230E+02  0.33358564275E+02  0.23547201943E+02  0.42051647724E+02  0.00000000000E+00 0. -1.
</event>
<event>
 7    1  0.2440960E-009  0.1653858E+03  0.7561462E-02  0.1182747E+00
         -1   -1    0    0    0  501 -0.00000000000E+00  0.00000000000E+00  0.11977592902E+03  0.11977592902E+03  0.00000000000E+00 0.  1.
          1   -1    0    0  501    0  0.00000000000E+00 -0.00000000000E+00 -0.32302346367E+03  0.32302346367E+03  0.00000000000E+00 0. -1.
         25    2    1    2    0    0  0.90836938534E+02  0.13001112554E+03 -0.12289824515E+03  0.23644482057E+03  0.12509169576E+03 0.  0.
          5    1    3    3  502    0  0.37646881850E+02  0.10504584013E+02 -0.94744670932E+02  0.10257513865E+03  0.41800000000E+01 0.  1.
         -5    1    3    3    0  502  0.53190056683E+02  0.11950654153E+03 -0.28153574220E+02  0.13386968193E+03  0.41800000000E+01 0.  1.
        -11    1    1    2    0    0 -0.73784521758E+02 -0.85574440542E+02 -0.29878206470E-01  0.11299177589E+03  0.00000000000E+00 0.  1.
         11    1    1    2    0    0 -0.17052416776E+02 -0.44436684998E+02 -0.80319411289E+02  0.93362796237E+02  0.00000000000E+00 0. -1.
</event>
<event>
 7    1  0.2440960E-009  0.1254120E+03  0.7561462E-02  0.1234427E+00
         -2   -1    0    0    0  501 -0.00000000000E+00  0.00000000000E+00  0.49508104588E+02  0.49508104588E+02  0.00000000000E+00 0.  1.
          2   -1    0    0  501    0  0.00000000000E+00 -0.00000000000E+00 -0.39035306616E+03  0.39035306616E+03  0.00000000000E+00 0. -1.
         25    2    1    2    0    0  0.75750507136E+02 -0.74811617017E+02 -0.19969120712E+03  0.25857134791E+03  0.12509055275E+03 0.  0.
          5    1    3    3  502    0  0.83777001014E+02 -0.26097395742E+02 -0.18822294568E+03  0.20771376854E+03  0.41800000000E+01 0. -1.
         -5    1    3    3    0  502 -0.80264938782E+01 -0.48714221275E+02 -0.11468261445E+02  0.50857579366E+02  0.41800000000E+01 0. -1.
        -11    1    1    2    0    0 -0.32182726620E+02  0.71714751451E+01 -0.47492627875E+02  0.57816153893E+02  0.00000000000E+00 0. -1.
         11    1    1    2    0    0 -0.43567780516E+02  0.67640141872E+02 -0.93661126574E+02  0.12347366894E+03  0.00000000000E+00 0.  1.
</event>
<event>
 7    1  0.2440960E-009  0.6787342E+02  0.7561462E-02  0.1367478E+00
         -2   -1    0    0    0  501 -0.00000000000E+00  0.00000000000E+00  0.10413584603E+03  0.10413584603E+03  0.00000000000E+00 0.  1.
          2   -1    0    0  501    0  0.00000000000E+00 -0.00000000000E+00 -0.13921770217E+03  0.13921770217E+03  0.00000000000E+00 0. -1.
         25    2    1    2    0    0 -0.26947976925E+02 -0.39177902320E+02  0.27839661507E+01  0.13385182583E+03  0.12508980502E+03 0.  0.
          5    1    3    3  502    0 -0.20251678216E+01 -0.19335065325E+02 -0.60062303958E+02  0.63268466178E+02  0.41800000000E+01 0.  1.
         -5    1    3    3    0  502 -0.24922809104E+02 -0.19842836995E+02  0.62846270108E+02  0.70583359655E+02  0.41800000000E+01 0.  1.
        -11    1    1    2    0    0 -0.10134096729E+02  0.45060155512E+02 -0.51849075374E+02  0.69436619650E+02  0.00000000000E+00 0.  1.
         11    1    1    2    0    0  0.37082073654E+02 -0.58822531921E+01  0.13983253089E+02  0.40065102721E+02  0.00000000000E+00 0. -1.
</event>
<event>
 7    1  0.3245235E-009  0.2399949E+03  0.7561462E-02  0.1119796E+00
          2   -1    0    0  501    0  0.00000000000E+00  0.00000000000E+00  0.79202699117E+03  0.79202699117E+03  0.00000000000E+00 0. -1.
         -2   -1    0    0    0  501 -0.00000000000E+00 -0.00000000000E+00 -0.79148436462E+02  0.79148436462E+02  0.00000000000E+00 0.  1.
         25    2    1    2    0    0  0.13903995349E+03  0.17717088706E+03  0.37047983053E+03  0.45124686028E+03  0.12508713840E+03 0.  0.
          5    1    3    3  502    0 -0.17120367908E+02  0.31090704236E+02  0.20813146099E+02  0.41356962385E+02  0.41800000000E+01 0. -1.
         -5    1    3    3    0  502  0.15616032140E+03  0.14608018283E+03  0.34966668443E+03  0.40988989789E+03  0.41800000000E+01 0. -1.
        -11    1    1    2    0    0 -0.59770514657E+02 -0.11510720867E+03  0.12398167294E+03  0.17942585972E+03  0.00000000000E+00 0.  1.
         11    1    1    2    0    0 -0.79269438831E+02 -0.62063678389E+02  0.21841705124E+03  0.24050270763E+03  0.00000000000E+00 0. -1.
</event>
<event>
 7    1  0.2440960E-009  0.1007739E+03  0.7561462E-02  0.1278677E+00
         -3   -1    0    0    0  501 -0.00000000000E+00  0.00000000000E+00  0.79842374001E+02  0.79842374001E+02  0.00000000000E+00 0.  1.
          3   -1    0    0  501    0  0.00000000000E+00 -0.00000000000E+00 -0.29185102310E+03  0.29185102310E+03  0.00000000000E+00 0. -1.
         25    2    1    2    0    0 -0.89601548883E+02 -0.10653977047E+02 -0.20091972926E+03  0.25329466056E+03  0.12508997831E+03 0.  0.
          5    1    3    3  502    0 -0.39212894208E+02 -0.17415274405E+02  0.28821780159E+01  0.43205580715E+02  0.41800000000E+01 0.  1.
         -5    1    3    3    0  502 -0.50388654674E+02  0.67612973585E+01 -0.20380190728E+03  0.21008907985E+03  0.41800000000E+01 0.  1.
        -11    1    1    2    0    0  0.70333172770E+02 -0.18274611979E+02 -0.30244994785E+02  0.78711348257E+02  0.00000000000E+00 0.  1.
         11    1    1    2    0    0  0.19268376113E+02  0.28928589026E+02  0.19156074947E+02  0.39687388279E+02  0.00000000000E+00 0. -1.
</event>
<event>
 7    1  0.2440960E-009  0.1864698E+03  0.7561462E-02  0.1161684E+00
          1   -1    0    0  501    0  0.00000000000E+00  0.00000000000E+00  0.13531351397E+04  0.13531351397E+04  0.00000000000E+00 0. -1.
         -1   -1    0    0    0  501 -0.00000000000E+00 -0.00000000000E+00 -0.32400079785E+02  0.32400079785E+02  0.00000000000E+00 0.  1.
         25    2    1    2    0    0  0.12624417241E+03  0.10447525855E+03  0.92729927445E+03  0.94993890119E+03  0.12508917166E+03 0.  0.
          5    1    3    3  502    0  0.10081706594E+03  0.12620217497E+03  0.85545174954E+03  0.87057810560E+03  0.41800000000E+01 0. -1.
         -5    1    3    3    0  502  0.25427106470E+02 -0.21726916418E+02  0.71847524908E+02  0.79360795585E+02  0.41800000000E+01 0. -1.
        -11    1    1    2    0    0 -0.31422406528E+02 -0.70050721111E+02  0.23990193347E+03  0.25188769093E+03  0.00000000000E+00 0. -1.
         11    1    1    2    0    0 -0.94821765881E+02 -0.34424537437E+02  0.15353385199E+03  0.18370862737E+03  0.00000000000E+00 0.  1.
</event>
<event>
 7    1  0.2440960E-009  0.1110672E+03  0.7561462E-02  0.1258606E+00
         -1   -1    0    0    0  501 -0.00000000000E+00  0.00000000000E+00  0.42043955398E+03  0.42043955398E+03  0.00000000000E+00 0.  1.
          1   -1    0    0  501    0  0.00000000000E+00 -0.00000000000E+00 -0.58259075319E+02  0.58259075319E+02  0.00000000000E+00 0. -1.
         25    2    1    2    0    0 -0.61005450890E+02  0.17312608743E+02  0.33667701892E+03  0.36471494412E+03  0.12507671218E+03 0.  0.
          5    1    3    3  502    0 -0.86671371998E+02  0.28326573111E+02  0.31803929099E+03  0.33087880633E+03  0.41800000000E+01 0. -1.
         -5    1    3    3    0  502  0.25665921108E+02 -0.11013964368E+02  0.18637727934E+02  0.33836137782E+02  0.41800000000E+01 0. -1.
        -11    1    1    2    0    0 -0.13557513115E+02 -0.24195982848E+02  0.27526518184E+02  0.39076347720E+02  0.00000000000E+00 0.  1.
         11    1    1    2    0    0  0.74562964004E+02  0.68833741047E+01 -0.20230584475E+01  0.74907337462E+02  0.00000000000E+00 0. -1.
</event>
<event>
 7    1  0.2440960E-009  0.1076579E+03  0.7561462E-02  0.1264970E+00
         -2   -1    0    0    0  501 -0.00000000000E+00  0.00000000000E+00  0.39647687504E+02  0.39647687504E+02  0.00000000000E+00 0.  1.
          2   -1    0    0  501    0  0.00000000000E+00 -0.00000000000E+00 -0.39518231891E+03  0.39518231891E+03  0.00000000000E+00 0. -1.
         25    2    1    2    0    0  0.41015555659E+02 -0.89081191164E+00 -0.11481071021E+03  0.17467676408E+03  0.12508958142E+03 0.  0.
          5    1    3    3  502    0  0.58271970721E+02 -0.46982205822E+02 -0.39840461633E+02  0.84898086072E+02  0.41800000000E+01 0.  1.
         -5    1    3    3    0  502 -0.17256415062E+02  0.46091393910E+02 -0.74970248574E+02  0.89778678007E+02  0.41800000000E+01 0.  1.
        -11    1    1    2    0    0 -0.46429807440E+02 -0.32789314529E+02 -0.96915151108E+02  0.11235396157E+03  0.00000000000E+00 0.  1.
         11    1    1    2    0    0  0.54142517815E+01  0.33680126441E+02 -0.14380877009E+03  0.14779928076E+03  0.00000000000E+00 0. -1.
</event>
<event>
 7    1  0.2667052E-009  0.1174813E+03  0.7561462E-02  0.1247311E+00
         -3   -1    0    0    0  501 -0.00000000000E+00  0.00000000000E+00  0.12397639288E+03  0.12397639288E+03  0.00000000000E+00 0.  1.
          3   -1    0    0  501    0  0.00000000000E+00 -0.00000000000E+00 -0.12324720881E+03  0.12324720881E+03  0.00000000000E+00 0. -1.
         25    2    1    2    0    0  0.57116838912E+02 -0.43790613134E+01  0.16750125374E+02  0.13859169544E+03  0.12508230043E+03 0.  0.
          5    1    3    3  502    0  0.88065511348E+02  0.19432202045E+02 -0.10357274346E+02  0.90872934899E+02  0.41800000000E+01 0.  1.
         -5    1    3    3    0  502 -0.30948672436E+02 -0.23811263358E+02  0.27107399720E+02  0.47718760544E+02  0.41800000000E+01 0.  1.
        -11    1    1    2    0    0 -0.95063182092E+01  0.43041350178E+02  0.36337217958E+01  0.44228179311E+02  0.00000000000E+00 0.  1.
         11    1    1    2    0    0 -0.47610520703E+02 -0.38662288865E+02 -0.19654663097E+02  0.64403726936E+02  0.00000000000E+00 0. -1.
</event>
<event>
 7    1  0.2440960E-009  0.1040225E+03  0.7561462E-02  0.1272058E+00
         -2   -1    0    0    0  501 -0.00000000000E+00  0.00000000000E+00  0.16440160658E+03  0.16440160658E+03  0.00000000000E+00 0.  1.
          2   -1    0    0  501    0  0.00000000000E+00 -0.00000000000E+00 -0.73717192970E+02  0.73717192970E+02  0.00000000000E+00 0. -1.
         25    2    1    2    0    0  0.19743708913E+02  0.10932137916E+02  0.64725837958E+02  0.14263851806E+03  0.12508791730E+03 0.  0.
          5    1    3    3  502    0  0.34136404505E+01  0.67607273792E+02  0.31045557142E+02  0.74590183195E+02  0.41800000000E+01 0.  1.
         -5    1    3    3    0  502  0.16330068463E+02 -0.56675135877E+02  0.33680280816E+02  0.68048334869E+02  0.41800000000E+01 0.  1.
        -11    1    1    2    0    0 -0.49762030853E+02 -0.11486377649E+02  0.37452880880E+02  0.63331784061E+02  0.00000000000E+00 0. -1.
         11    1    1    2    0    0  0.30018321940E+02  0.55423973340E+00 -0.11494305231E+02  0.32148497422E+02  0.00000000000E+00 0.  1.
</event>
<event>
 7    1  0.2440960E-009  0.1165244E+03  0.7561462E-02  0.1248943E+00
         -2   -1    0    0    0  501 -0.00000000000E+00  0.00000000000E+00  0.11809427523E+03  0.11809427523E+03  0.00000000000E+00 0.  1.
          2   -1    0    0  501    0  0.00000000000E+00 -0.00000000000E+00 -0.21984546337E+03  0.21984546337E+03  0.00000000000E+00 0. -1.
         25    2    1    2    0    0  0.61958649547E+02 -0.42451862521E+02  0.39813208658E+02  0.15123720428E+03  0.12508623222E+03 0.  0.
          5    1    3    3  502    0 -0.19534141635E+02 -0.15929704394E+02  0.58134121859E+02  0.63501076336E+02  0.41800000000E+01 0.  1.
         -5    1    3    3    0  502  0.81492791182E+02 -0.26522158127E+02 -0.18320913201E+02  0.87736127945E+02  0.41800000000E+01 0.  1.
        -11    1    1    2    0    0 -0.57379544931E+02 -0.18718163385E+02 -0.72279042384E+02  0.94164971114E+02  0.00000000000E+00 0.  1.
         11    1    1    2    0    0 -0.45791046157E+01  0.61170025906E+02 -0.69285354410E+02  0.92537563206E+02  0.00000000000E+00 0. -1.
</event>
<event>
 7    1  0.2440960E-009  0.7488602E+02  0.7561462E-02  0.1344224E+00
          1   -1    0    0  501    0  0.00000000000E+00  0.00000000000E+00  0.35142606202E+03  0.35142606202E+03  0.00000000000E+00 0. -1.
         -1   -1    0    0    0  501 -0.00000000000E+00 -0.00000000000E+00 -0.63425894113E+02  0.63425894113E+02  0.00000000000E+00 0.  1.
         25    2    1    2    0    0 -0.47731573372E+02 -0.17310650993E+02  0.32816634649E+02  0.13893139631E+03  0.12508812748E+03 0.  0.
          5    1    3    3  502    0 -0.18170580516E+02 -0.12138213872E+02  0.79900749688E+02  0.82940390842E+02  0.41800000000E+01 0.  1.
         -5    1    3    3    0  502 -0.29560992857E+02 -0.51724371209E+01 -0.47084115039E+02  0.55991005469E+02  0.41800000000E+01 0.  1.
        -11    1    1    2    0    0  0.13159466688E+02 -0.33372068045E+02  0.48509671057E+02  0.60332865630E+02  0.00000000000E+00 0.  1.
         11    1    1    2    0    0  0.34572106684E+02  0.50682719038E+02  0.20667386220E+03  0.21558769419E+03  0.00000000000E+00 0. -1.
</event>
<event>
 7    1  0.2440960E-009  0.7889012E+02  0.7561462E-02  0.1332231E+00
         -1   -1    0    0    0  501 -0.00000000000E+00  0.00000000000E+00  0.67977175490E+02  0.67977175490E+02  0.00000000000E+00 0.  1.
          1   -1    0    0  501    0  0.00000000000E+00 -0.00000000000E+00 -0.22577925001E+03  0.22577925001E+03  0.00000000000E+00 0. -1.
         25    2    1    2    0    0 -0.22928386160E+02 -0.65163862364E+01 -0.22462153578E+02  0.12930631858E+03  0.12508957391E+03 0.  0.
          5    1    3    3  502    0 -0.17253474136E+02 -0.32788609047E+02  0.43893101602E+02  0.57592117701E+02  0.41800000000E+01 0.  1.
         -5    1    3    3    0  502 -0.56749120236E+01  0.26272222810E+02 -0.66355255181E+02  0.71714200881E+02  0.41800000000E+01 0.  1.
        -11    1    1    2    0    0  0.44604375892E+02  0.35565616827E+02 -0.78571467135E+02  0.97097574104E+02  0.00000000000E+00 0.  1.
         11    1    1    2    0    0 -0.21675989733E+02 -0.29049230591E+02 -0.56768453802E+02  0.67352532810E+02  0.00000000000E+00 0. -1.
</event>
<event>
 7    1  0.2440960E-009  0.1217904E+03  0.7561462E-02  0.1240172E+00
         -1   -1    0    0    0  501 -0.00000000000E+00  0.00000000000E+00  0.32033843754E+02  0.32033843754E+02  0.00000000000E+00 0.  1.
          1   -1    0    0  501    0  0.00000000000E+00 -0.00000000000E+00 -0.65726910122E+03  0.65726910122E+03  0.00000000000E+00 0. -1.
         25    2    1    2    0    0 -0.87295479767E+02 -0.36284997300E+02 -0.37898226393E+03  0.41013783941E+03  0.12509352150E+03 0.  0.
          5    1    3    3  502    0  0.86266707633E+01 -0.11525110917E+02 -0.23407172593E+03  0.23455125860E+03  0.41800000000E+01 0.  1.
         -5    1    3    3    0  502 -0.95922150531E+02 -0.24759886384E+02 -0.14491053800E+03  0.17558658080E+03  0.41800000000E+01 0.  1.
        -11    1    1    2    0    0  0.66515371541E+02 -0.19983928246E+02 -0.15643175717E+03  0.17115649766E+03  0.00000000000E+00 0.  1.
         11    1    1    2    0    0  0.20780108226E+02  0.56268925547E+02 -0.89821236364E+02  0.10800860791E+03  0.00000000000E+00 0. -1.
</event>
<event>
 7    1  0.2440960E-009  0.5663957E+02  0.7561462E-02  0.1412501E+00
         -2   -1    0    0    0  501 -0.00000000000E+00  0.00000000000E+00  0.96974766670E+02  0.96974766670E+02  0.00000000000E+00 0. -1.
          2   -1    0    0  501    0  0.00000000000E+00 -0.00000000000E+00 -0.14420886751E+03  0.14420886751E+03  0.00000000000E+00 0.  1.
         25    2    1    2    0    0 -0.17101823980E+02  0.30407573726E+00 -0.78830672356E+02  0.14884525809E+03  0.12509225038E+03 0.  0.
          5    1    3    3  502    0  0.71893633459E+01  0.19887134585E+02 -0.10544271429E+03  0.10762352654E+03  0.41800000000E+01 0.  1.
         -5    1    3    3    0  502 -0.24291187326E+02 -0.19583058848E+02  0.26612041939E+02  0.41221731547E+02  0.41800000000E+01 0.  1.
        -11    1    1    2    0    0 -0.19699278907E+02 -0.10131453066E+02 -0.18877507240E+02  0.29104436265E+02  0.00000000000E+00 0.  1.
         11    1    1    2    0    0  0.36801102887E+02  0.98273773285E+01  0.50474078760E+02  0.63233939823E+02  0.00000000000E+00 0. -1.
</event>
<event>
 7    1  0.2440960E-009  0.8851331E+02  0.7561462E-02  0.1306492E+00
         -2   -1    0    0    0  501 -0.00000000000E+00  0.00000000000E+00  0.21009225772E+02  0.21009225772E+02  0.00000000000E+00 0.  1.
          2   -1    0    0  501    0  0.00000000000E+00 -0.00000000000E+00 -0.89130841425E+03  0.89130841425E+03  0.00000000000E+00 0. -1.
         25    2    1    2    0    0  0.11469758295E+02 -0.45817980960E+02 -0.72485357161E+03  0.73708254568E+03  0.12508851323E+03 0.  0.
          5    1    3    3  502    0 -0.10673068045E+02 -0.67178398540E+02 -0.67444219870E+03  0.67787653994E+03  0.41800000000E+01 0. -1.
         -5    1    3    3    0  502  0.22142826340E+02  0.21360417580E+02 -0.50411372906E+02  0.59206005741E+02  0.41800000000E+01 0. -1.
        -11    1    1    2    0    0  0.16622478888E+02 -0.69748088818E+01 -0.95888159756E+02  0.97567894026E+02  0.00000000000E+00 0. -1.
         11    1    1    2    0    0 -0.28092237183E+02  0.52792789842E+02 -0.49557457116E+02  0.77667200317E+02  0.00000000000E+00 0.  1.
</event>
<event>
 7    1  0.2440960E-009  0.1182474E+03  0.7561462E-02  0.1246017E+00
         -4   -1    0    0    0  501 -0.00000000000E+00  0.00000000000E+00  0.91926135896E+03  0.91926135896E+03  0.00000000000E+00 0.  1.
          4   -1    0    0  501    0  0.00000000000E+00 -0.00000000000E+00 -0.27125756292E+02  0.27125756292E+02  0.00000000000E+00 0. -1.
         25    2    1    2    0    0  0.23867483738E+02  0.96433569013E+02  0.65178922801E+03  0.67107758779E+03  0.12508733376E+03 0.  0.
          5    1    3    3  502    0  0.18385119897E+02  0.18142280385E+02  0.16474358091E+02  0.30919764645E+02  0.41800000000E+01 0. -1.
         -5    1    3    3    0  502  0.54823638410E+01  0.78291288628E+02  0.63531486992E+03  0.64015782314E+03  0.41800000000E+01 0. -1.
        -11    1    1    2    0    0 -0.35655504556E+02 -0.10889374862E+03  0.18740049922E+03  0.21965452557E+03  0.00000000000E+00 0. -1.
         11    1    1    2    0    0  0.11788020818E+02  0.12460179608E+02  0.52945875428E+02  0.55655001891E+02  0.00000000000E+00 0.  1.
</event>
<event>
 7    1  0.3898754E-009  0.7921368E+02  0.7561462E-02  0.1331298E+00
          4   -1    0    0  501    0  0.00000000000E+00  0.00000000000E+00  0.54563804469E+02  0.54563804469E+02  0.00000000000E+00 0.  1.
         -4   -1    0    0    0  501 -0.00000000000E+00 -0.00000000000E+00 -0.32122172206E+03  0.32122172206E+03  0.00000000000E+00 0. -1.
         25    2    1    2    0    0  0.34481280597E+02  0.53742525646E+02 -0.20497050896E+03  0.24847662012E+03  0.12510197212E+03 0.  0.
          5    1    3    3  502    0  0.54344014290E+02  0.49837751211E+02 -0.43551540376E+02  0.85739619803E+02  0.41800000000E+01 0.  1.
         -5    1    3    3    0  502 -0.19862733693E+02  0.39047744350E+01 -0.16141896858E+03  0.16273700032E+03  0.41800000000E+01 0.  1.
        -11    1    1    2    0    0 -0.24893704037E+02 -0.36654610336E+02  0.16060832103E+02  0.47129685840E+02  0.00000000000E+00 0.  1.
         11    1    1    2    0    0 -0.95875765602E+01 -0.17087915311E+02 -0.77748240732E+02  0.80179220568E+02  0.00000000000E+00 0. -1.
</event>
<event>
 7    1  0.2440960E-009  0.1240153E+03  0.7561462E-02  0.1236616E+00
         -2   -1    0    0    0  501 -0.00000000000E+00  0.00000000000E+00  0.41000993525E+02  0.41000993525E+02  0.00000000000E+00 0.  1.
          2   -1    0    0  501    0  0.00000000000E+00 -0.00000000000E+00 -0.45026766303E+03  0.45026766303E+03  0.00000000000E+00 0. -1.
         25    2    1    2    0    0 -0.51950803692E+02  0.58520751523E+02 -0.18683960269E+03  0.23807589389E+03  0.12509008655E+03 0.  0.
          5    1    3    3  502    0  0.28346021167E+02  0.40709833702E+02 -0.12661481683E+03  0.13604988687E+03  0.41800000000E+01 0. -1.
         -5    1    3    3    0  502 -0.80296824859E+02  0.17810917821E+02 -0.60224785862E+02  0.10202600702E+03  0.41800000000E+01 0. -1.
        -11    1    1    2    0    0  0.57229889076E+02 -0.94873322961E-01 -0.14622230258E+03  0.15702302690E+03  0.00000000000E+00 0. -1.
         11    1    1    2    0    0 -0.52790853841E+01 -0.58425878200E+02 -0.76204764226E+02  0.96169735763E+02  0.00000000000E+00 0.  1.
</event>
<event>
 7    1  0.2440960E-009  0.1465820E+03  0.7561462E-02  0.1204737E+00
          1   -1    0    0  501    0  0.00000000000E+00  0.00000000000E+00  0.38987291311E+03  0.38987291311E+03  0.00000000000E+00 0. -1.
         -1   -1    0    0    0  501 -0.00000000000E+00 -0.00000000000E+00 -0.83659603548E+02  0.83659603548E+02  0.00000000000E+00 0.  1.
         25    2    1    2    0    0 -0.33079535674E+02 -0.10943990187E+03  0.49773339770E+02  0.17662148035E+03  0.12508562733E+03 0.  0.
          5    1    3    3  502    0 -0.56000452278E+02 -0.21808592916E+01  0.34133625851E+02  0.65752441903E+02  0.41800000000E+01 0. -1.
         -5    1    3    3    0  502  0.22920916604E+02 -0.10725904258E+03  0.15639713920E+02  0.11086903844E+03  0.41800000000E+01 0. -1.
        -11    1    1    2    0    0  0.46866442012E+02  0.61500871749E+02  0.71333196727E+02  0.10520097703E+03  0.00000000000E+00 0.  1.
         11    1    1    2    0    0 -0.13786906339E+02  0.47939030125E+02  0.18510677306E+03  0.19171005928E+03  0.00000000000E+00 0. -1.
</event>
<event>
 7    1  0.2440960E-009  0.1696175E+03  0.7561462E-02  0.1178247E+00
         -2   -1    0    0    0  501 -0.00000000000E+00  0.00000000000E+00  0.24700046254E+03  0.24700046254E+03  0.00000000000E+00 0.  1.
          2   -1    0    0  501    0  0.00000000000E+00 -0.00000000000E+00 -0.21423437778E+03  0.21423437778E+03  0.00000000000E+00 0. -1.
         25    2    1    2    0    0  0.78428293864E+02  0.12910293244E+03  0.15212555977E+03  0.24820344287E+03  0.12507677112E+03 0.  0.
          5    1    3    3  502    0 -0.18889209976E+02  0.73223010135E+02  0.27817704515E+02  0.80682764896E+02  0.41800000000E+01 0. -1.
         -5    1    3    3    0  502  0.97317503840E+02  0.55879922307E+02  0.12430785525E+03  0.16752067797E+03  0.41800000000E+01 0. -1.
        -11    1    1    2    0    0 -0.18590229668E+02 -0.36230256918E+02  0.10972469607E+02  0.42173726948E+02  0.00000000000E+00 0.  1.
         11    1    1    2    0    0 -0.59838064196E+02 -0.92872675524E+02 -0.13033194461E+03  0.17085767051E+03  0.00000000000E+00 0. -1.
</event>
<event>
 7    1  0.2440960E-009  0.1113738E+03  0.7561462E-02  0.1258047E+00
         -1   -1    0    0    0  501 -0.00000000000E+00  0.00000000000E+00  0.34216099160E+02  0.34216099160E+02  0.00000000000E+00 0.  1.
          1   -1    0    0  501    0  0.00000000000E+00 -0.00000000000E+00 -0.50244731209E+03  0.50244731209E+03  0.00000000000E+00 0. -1.
         25    2    1    2    0    0 -0.46448141348E+02 -0.25096435458E+02 -0.24955459030E+03  0.28409936754E+03  0.12509075182E+03 0.  0.
          5    1    3    3  502    0  0.34394504096E+02 -0.25668792510E+02 -0.14841377386E+03  0.15455092847E+03  0.41800000000E+01 0. -1.
         -5    1    3    3    0  502 -0.80842645445E+02  0.57235705221E+00 -0.10114081644E+03  0.12954843907E+03  0.41800000000E+01 0. -1.
        -11    1    1    2    0    0  0.67971872928E+02  0.33144977928E+01 -0.59275729757E+02  0.90248399117E+02  0.00000000000E+00 0.  1.
         11    1    1    2    0    0 -0.21523731580E+02  0.21781937665E+02 -0.15940089287E+03  0.16231564459E+03  0.00000000000E+00 0. -1.
</event>
<event>
 7    1  0.2440960E-009  0.1261278E+03  0.7561462E-02  0.1233317E+00
         -3   -1    0    0    0  501 -0.00000000000E+00  0.00000000000E+00  0.12889125099E+03  0.12889125099E+03  0.00000000000E+00 0.  1.
          3   -1    0    0  501    0  0.00000000000E+00 -0.00000000000E+00 -0.21287631584E+03  0.21287631584E+03  0.00000000000E+00 0. -1.
         25    2    1    2    0    0  0.92097450134E+02  0.82443917503E+02 -0.69892059900E+02  0.18924048686E+03  0.12509245372E+03 0.  0.
          5    1    3    3  502    0  0.19883023025E+02  0.11744977683E+02 -0.83906928197E+02  0.87127057249E+02  0.41800000000E+01 0. -1.
         -5    1    3    3    0  502  0.72214427109E+02  0.70698939820E+02  0.14014868297E+02  0.10211342962E+03  0.41800000000E+01 0. -1.
        -11    1    1    2    0    0 -0.51743689659E+02 -0.66480128530E+02  0.31166300637E+02  0.89824023537E+02  0.00000000000E+00 0.  1.
         11    1    1    2    0    0 -0.40353760475E+02 -0.15963788973E+02 -0.45259305593E+02  0.62703056429E+02  0.00000000000E+00 0. -1.
</event>
<event>
 7    1  0.2440960E-009  0.1397253E+03  0.7561462E-02  0.1213699E+00
          2   -1    0    0  501    0  0.00000000000E+00  0.00000000000E+00  0.12022495499E+04  0.12022495499E+04  0.00000000000E+00 0. -1.
         -2   -1    0    0    0  501 -0.00000000000E+00 -0.00000000000E+00 -0.17034260918E+02  0.17034260918E+02  0.00000000000E+00 0.  1.
         25    2    1    2    0    0 -0.89358829096E+02  0.17352310757E+02  0.56106401387E+03  0.58200184514E+03  0.12508883664E+03 0.  0.
          5    1    3    3  502    0 -0.22000101029E+02  0.66308682013E+02  0.29455520900E+03  0.30275582456E+03  0.41800000000E+01 0. -1.
         -5    1    3    3    0  502 -0.67358728067E+02 -0.48956371256E+02  0.26650880487E+03  0.27924602058E+03  0.41800000000E+01 0. -1.
        -11    1    1    2    0    0 -0.11911038117E+02  0.15567426712E+02  0.58553383884E+02  0.61747197246E+02  0.00000000000E+00 0. -1.
         11    1    1    2    0    0  0.10126986721E+03 -0.32919737469E+02  0.56559789121E+03  0.57553476843E+03  0.00000000000E+00 0.  1.
</event>
<event>
 7    1  0.2440960E-009  0.6903708E+02  0.7561462E-02  0.1363398E+00
          2   -1    0    0  501    0  0.00000000000E+00  0.00000000000E+00  0.57865353176E+03  0.57865353176E+03  0.00000000000E+00 0. -1.
         -2   -1    0    0    0  501 -0.00000000000E+00 -0.00000000000E+00 -0.25594754341E+02  0.25594754341E+02  0.00000000000E+00 0.  1.
         25    2    1    2    0    0 -0.24889893126E+02 -0.30316539098E+02  0.41216901279E+03  0.43251490741E+03  0.12508897115E+03 0.  0.
          5    1    3    3  502    0 -0.12216441332E+01 -0.13744426040E+02 -0.42832490212E+01  0.15040621122E+02  0.41800000000E+01 0. -1.
         -5    1    3    3    0  502 -0.23668248992E+02 -0.16572113058E+02  0.41645226182E+03  0.41747428629E+03  0.41800000000E+01 0. -1.
        -11    1    1    2    0    0 -0.27902372680E+02 -0.82349710655E+01  0.67202336926E+02  0.73229169311E+02  0.00000000000E+00 0. -1.
         11    1    1    2    0    0  0.52792265805E+02  0.38551510163E+02  0.73687427702E+02  0.98504209383E+02  0.00000000000E+00 0.  1.
</event>
<event>
 7    1  0.2440960E-009  0.1277608E+03  0.7561462E-02  0.1230817E+00
         -3   -1    0    0    0  501 -0.00000000000E+00  0.00000000000E+00  0.38985357703E+02  0.38985357703E+02  0.00000000000E+00 0.  1.
          3   -1    0    0  501    0  0.00000000000E+00 -0.00000000000E+00 -0.59118932310E+03  0.59118932310E+03  0.00000000000E+00 0. -1.
         25    2    1    2    0    0 -0.88675339253E+02  0.55498824229E+02 -0.32821613156E+03  0.36649276806E+03  0.12509070605E+03 0.  0.
          5    1    3    3  502    0 -0.84103822659E+02  0.51806779692E+01 -0.91708188745E+02  0.12461202467E+03  0.41800000000E+01 0. -1.
         -5    1    3    3    0  502 -0.45715165941E+01  0.50318146260E+02 -0.23650794281E+03  0.24188074338E+03  0.41800000000E+01 0. -1.
        -11    1    1    2    0    0  0.41627077328E+02  0.70176297702E+01 -0.15061315257E+03  0.15641733415E+03  0.00000000000E+00 0. -1.
         11    1    1    2    0    0  0.47048261926E+02 -0.62516453999E+02 -0.73374681275E+02  0.10726457860E+03  0.00000000000E+00 0.  1.
</event>
<event>
 7    1  0.2440960E-009  0.1159571E+03  0.7561462E-02  0.1249920E+00
         -2   -1    0    0    0  501 -0.00000000000E+00  0.00000000000E+00  0.17491999206E+02  0.17491999206E+02  0.00000000000E+00 0.  1.
          2   -1    0    0  501    0  0.00000000000E+00 -0.00000000000E+00 -0.10185178703E+04  0.10185178703E+04  0.00000000000E+00 0. -1.
         25    2    1    2    0    0  0.44825624294E+02  0.57673439907E+02 -0.67298010187E+03  0.68839309605E+03  0.12508906795E+03 0.  0.
          5    1    3    3  502    0  0.20702213733E+02 -0.23898387676E+02 -0.47955321519E+02  0.57592532927E+02  0.41800000000E+01 0. -1.
         -5    1    3    3    0  502  0.24123410561E+02  0.81571827582E+02 -0.62502478035E+03  0.63080056313E+03  0.41800000000E+01 0. -1.
        -11    1    1    2    0    0  0.67310478990E+01 -0.62693229454E+02 -0.17155175222E+03  0.18277240414E+03  0.00000000000E+00 0.  1.
         11    1    1    2    0    0 -0.51556672193E+02  0.50197895473E+01 -0.15649401698E+03  0.16484436928E+03  0.00000000000E+00 0. -1.
</event>
<event>
 7    1  0.2440960E-009  0.2015996E+03  0.7561462E-02  0.1148396E+00
         -1   -1    0    0    0  501 -0.00000000000E+00  0.00000000000E+00  0.16425138724E+02  0.16425138724E+02  0.00000000000E+00 0.  1.
          1   -1    0    0  501    0  0.00000000000E+00 -0.00000000000E+00 -0.28632778833E+04  0.28632778833E+04  0.00000000000E+00 0. -1.
         25    2    1    2    0    0 -0.25609891968E+01  0.18014975182E+03 -0.17848826851E+04  0.17983082730E+04  0.12508378493E+03 0.  0.
          5    1    3    3  502    0 -0.46530375601E+02  0.91281727533E+02 -0.12572054605E+04  0.12613803835E+04  0.41800000000E+01 0. -1.
         -5    1    3    3    0  502  0.43969386404E+02  0.88868024288E+02 -0.52767722461E+03  0.53692788944E+03  0.41800000000E+01 0. -1.
        -11    1    1    2    0    0  0.27560470716E+02 -0.17332723180E+03 -0.97406253426E+03  0.98974730587E+03  0.00000000000E+00 0. -1.
         11    1    1    2    0    0 -0.24999481519E+02 -0.68225200236E+01 -0.87907525211E+02  0.91647443197E+02  0.00000000000E+00 0.  1.
</event>
<event>
 7    1  0.2440960E-009  0.9036499E+02  0.7561462E-02  0.1301970E+00
         -1   -1    0    0    0  501 -0.00000000000E+00  0.00000000000E+00  0.62750605672E+02  0.62750605672E+02  0.00000000000E+00 0.  1.
          1   -1    0    0  501    0  0.00000000000E+00 -0.00000000000E+00 -0.31006175317E+03  0.31006175317E+03  0.00000000000E+00 0. -1.
         25    2    1    2    0    0 -0.39126672173E+02 -0.40639738056E+02 -0.46067569319E+02  0.14474833844E+03  0.12508947099E+03 0.  0.
          5    1    3    3  502    0 -0.45274632239E+02 -0.42342925443E+01 -0.81490236923E+02  0.93412272596E+02  0.41800000000E+01 0.  1.
         -5    1    3    3    0  502  0.61479600661E+01 -0.36405445512E+02  0.35422667604E+02  0.51336065842E+02  0.41800000000E+01 0.  1.
        -11    1    1    2    0    0  0.48476218747E+02  0.59566507219E+02 -0.18815638730E+03  0.20322632371E+03  0.00000000000E+00 0. -1.
         11    1    1    2    0    0 -0.93495465745E+01 -0.18926769163E+02 -0.13087190879E+02  0.24837696697E+02  0.00000000000E+00 0.  1.
</event>
<event>
 7    1  0.2440960E-009  0.1023257E+03  0.7561462E-02  0.1275480E+00
          1   -1    0    0  501    0  0.00000000000E+00  0.00000000000E+00  0.34918894010E+03  0.34918894010E+03  0.00000000000E+00 0. -1.
         -1   -1    0    0    0  501 -0.00000000000E+00 -0.00000000000E+00 -0.53452411593E+02  0.53452411593E+02  0.00000000000E+00 0.  1.
         25    2    1    2    0    0 -0.24574580855E+02 -0.65416812398E+02  0.22492085492E+03  0.26668046941E+03  0.12508322197E+03 0.  0.
          5    1    3    3  502    0  0.39646049546E+02 -0.20419177542E+02  0.15565024305E+03  0.16196673306E+03  0.41800000000E+01 0.  1.
         -5    1    3    3    0  502 -0.64220630401E+02 -0.44997634856E+02  0.69270611868E+02  0.10471373635E+03  0.41800000000E+01 0.  1.
        -11    1    1    2    0    0  0.35540652776E+02  0.39186857220E+02 -0.67660187882E+01  0.53334105306E+02  0.00000000000E+00 0.  1.
         11    1    1    2    0    0 -0.10966071921E+02  0.26229955178E+02  0.77581692381E+02  0.82626776984E+02  0.00000000000E+00 0. -1.
</event>
<event>
 7    1  0.2440960E-009  0.9049701E+02  0.7561462E-02  0.1301653E+00
         -2   -1    0    0    0  501 -0.00000000000E+00  0.00000000000E+00  0.99709814488E+02  0.99709814488E+02  0.00000000000E+00 0. -1.
          2   -1    0    0  501    0  0.00000000000E+00 -0.00000000000E+00 -0.13177565804E+03  0.13177565804E+03  0.00000000000E+00 0.  1.
         25    2    1    2    0    0  0.31467607560E+02  0.37341001195E+02 -0.13381439076E+02  0.13494822221E+03  0.12508956419E+03 0.  0.
          5    1    3    3  502    0  0.15504578636E+02  0.58927584320E+02 -0.57010885985E+02  0.83549779612E+02  0.41800000000E+01 0. -1.
         -5    1    3    3    0  502  0.15963028924E+02 -0.21586583125E+02  0.43629446909E+02  0.51398442593E+02  0.41800000000E+01 0. -1.
        -11    1    1    2    0    0 -0.21004052450E+02 -0.62266564367E+02 -0.41493175461E+01  0.65844605652E+02  0.00000000000E+00 0.  1.
         11    1    1    2    0    0 -0.10463555110E+02  0.24925563171E+02 -0.14535086935E+02  0.30692644675E+02  0.00000000000E+00 0. -1.
</event>
<event>
 7    1  0.2440960E-009  0.1196499E+03  0.7561462E-02  0.1243676E+00
          1   -1    0    0  501    0  0.00000000000E+00  0.00000000000E+00  0.25366907422E+03  0.25366907422E+03  0.00000000000E+00 0.  1.
         -1   -1    0    0    0  501 -0.00000000000E+00 -0.00000000000E+00 -0.88982341841E+02  0.88982341841E+02  0.00000000000E+00 0. -1.
         25    2    1    2    0    0 -0.63788692246E+02 -0.23286164335E+02 -0.30458028742E+01  0.14236662274E+03  0.12509090953E+03 0.  0.
          5    1    3    3  502    0 -0.38147261273E+02  0.45438054087E+02  0.23917609043E+02  0.64104248877E+02  0.41800000000E+01 0. -1.
         -5    1    3    3    0  502 -0.25641430974E+02 -0.68724218422E+02 -0.26963411917E+02  0.78262373861E+02  0.41800000000E+01 0. -1.
        -11    1    1    2    0    0  0.80960357484E+02  0.32051675663E+02  0.15291707003E+03  0.17597022391E+03  0.00000000000E+00 0. -1.
         11    1    1    2    0    0 -0.17171665238E+02 -0.87655113279E+01  0.14815465220E+02  0.24314569409E+02  0.00000000000E+00 0.  1.
</event>
<event>
 7    1  0.2440960E-009  0.8853954E+02  0.7561462E-02  0.1306427E+00
         -4   -1    0    0    0  501 -0.00000000000E+00  0.00000000000E+00  0.56786550559E+02  0.56786550559E+02  0.00000000000E+00 0.  1.
          4   -1    0    0  501    0  0.00000000000E+00 -0.00000000000E+00 -0.23800089696E+03  0.23800089696E+03  0.00000000000E+00 0. -1.
         25    2    1    2    0    0 -0.14555718863E+02 -0.42764649464E+02 -0.92910958817E+02  0.16223555605E+03  0.12508894908E+03 0.  0.
          5    1    3    3  502    0 -0.57931060750E+02 -0.54793072296E+02 -0.84491617874E+02  0.11625228799E+03  0.41800000000E+01 0.  1.
         -5    1    3    3    0  502  0.43375341887E+02  0.12028422832E+02 -0.84193409430E+01  0.45983268061E+02  0.41800000000E+01 0.  1.
        -11    1    1    2    0    0 -0.72975635530E+01  0.15092031787E+02  0.15556335809E+02  0.22869705750E+02  0.00000000000E+00 0.  1.
         11    1    1    2    0    0  0.21853282416E+02  0.27672617677E+02 -0.10385972340E+03  0.10968218573E+03  0.00000000000E+00 0. -1.
</event>
<event>
 7    1  0.2440960E-009  0.1018323E+03  0.7561462E-02  0.1276489E+00
         -4   -1    0    0    0  501 -0.00000000000E+00  0.00000000000E+00  0.99165140583E+02  0.99165140583E+02  0.00000000000E+00 0.  1.
          4   -1    0    0  501    0  0.00000000000E+00 -0.00000000000E+00 -0.18270490598E+03  0.18270490598E+03  0.00000000000E+00 0. -1.
         25    2    1    2    0    0  0.36513725014E+02  0.49080116900E+02 -0.27216176778E+02  0.14188044645E+03  0.12508889167E+03 0.  0.
          5    1    3    3  502    0  0.86071522485E+01 -0.34525035965E+02  0.20796577153E+02  0.41425006934E+02  0.41800000000E+01 0.  1.
         -5    1    3    3    0  502  0.27906572766E+02  0.83605152865E+02 -0.48012753931E+02  0.10045543952E+03  0.41800000000E+01 0.  1.
        -11    1    1    2    0    0 -0.47799876236E+02 -0.27243345532E+02 -0.85603571414E+02  0.10175951790E+03  0.00000000000E+00 0. -1.
         11    1    1    2    0    0  0.11286151221E+02 -0.21836771368E+02  0.29279982796E+02  0.38230082209E+02  0.00000000000E+00 0.  1.
</event>
<event>
 7    1  0.2440960E-009  0.1281104E+03  0.7561462E-02  0.1230287E+00
         -2   -1    0    0    0  501 -0.00000000000E+00  0.00000000000E+00  0.11690211433E+03  0.11690211433E+03  0.00000000000E+00 0.  1.
          2   -1    0    0  501    0  0.00000000000E+00 -0.00000000000E+00 -0.14735604464E+03  0.14735604464E+03  0.00000000000E+00 0. -1.
         25    2    1    2    0    0  0.14773609661E+02 -0.71932573138E+02 -0.22444610633E+02  0.14677959823E+03  0.12509170751E+03 0.  0.
          5    1    3    3  502    0  0.64214201199E+02 -0.10001403318E+02 -0.16622720147E+02  0.67210705464E+02  0.41800000000E+01 0.  1.
         -5    1    3    3    0  502 -0.49440591537E+02 -0.61931169820E+02 -0.58218904861E+01  0.79568892764E+02  0.41800000000E+01 0.  1.
        -11    1    1    2    0    0  0.92885796317E+01 -0.17130237886E+02  0.12259645286E+02  0.23022199376E+02  0.00000000000E+00 0.  1.
         11    1    1    2    0    0 -0.24062189293E+02  0.89062811023E+02 -0.20268964960E+02  0.94456361361E+02  0.00000000000E+00 0. -1.
</event>
<event>
 7    1  0.2440960E-009  0.8597676E+02  0.7561462E-02  0.1312898E+00
         -1   -1    0    0    0  501 -0.00000000000E+00  0.00000000000E+00  0.17871721868E+03  0.17871721868E+03  0.00000000000E+00 0.  1.
          1   -1    0    0  501    0  0.00000000000E+00 -0.00000000000E+00 -0.71916325766E+02  0.71916325766E+02  0.00000000000E+00 0. -1.
         25    2    1    2    0    0  0.26910161195E+02 -0.21159116018E+02  0.57302637749E+02  0.14178613756E+03  0.12509137278E+03 0.  0.
          5    1    3    3  502    0  0.47721618427E+02 -0.34022167890E+02 -0.18837695092E+02  0.61702446707E+02  0.41800000000E+01 0. -1.
         -5    1    3    3    0  502 -0.20811457232E+02  0.12863051872E+02  0.76140332840E+02  0.80083690853E+02  0.41800000000E+01 0. -1.
        -11    1    1    2    0    0 -0.25065063976E+02 -0.28916099511E+02  0.44192154435E+02  0.58458059809E+02  0.00000000000E+00 0.  1.
         11    1    1    2    0    0 -0.18450972188E+01  0.50075215529E+02  0.53061007334E+01  0.50389347079E+02  0.00000000000E+00 0. -1.
</event>
<event>
 7    1  0.2440960E-009  0.1080228E+03  0.7561462E-02  0.1264276E+00
         -1   -1    0    0    0  501 -0.00000000000E+00  0.00000000000E+00  0.15442372931E+02  0.15442372931E+02  0.00000000000E+00 0.  1.
          1   -1    0    0  501    0  0.00000000000E+00 -0.00000000000E+00 -0.10610387177E+04  0.10610387177E+04  0.00000000000E+00 0. -1.
         25    2    1    2    0    0 -0.40883273730E+02  0.34725304960E+02 -0.74814790482E+03  0.76042798042E+03  0.12509251392E+03 0.  0.
          5    1    3    3  502    0 -0.36966546428E+02  0.66955213029E+02 -0.25652410992E+03  0.26771555330E+03  0.41800000000E+01 0. -1.
         -5    1    3    3    0  502 -0.39167273022E+01 -0.32229908069E+02 -0.49162379490E+03  0.49271242712E+03  0.41800000000E+01 0. -1.
        -11    1    1    2    0    0  0.61310903081E+01 -0.62145387868E+02 -0.18144645989E+03  0.19189178541E+03  0.00000000000E+00 0. -1.
         11    1    1    2    0    0  0.34752183422E+02  0.27420082908E+02 -0.11600198008E+03  0.12416132482E+03  0.00000000000E+00 0.  1.
</event>
<event>
 7    1  0.2440960E-009  0.2333131E+03  0.7561462E-02  0.1124329E+00
         -1   -1    0    0    0  501 -0.00000000000E+00  0.00000000000E+00  0.18815033134E+03  0.18815033134E+03  0.00000000000E+00 0.  1.
          1   -1    0    0  501    0  0.00000000000E+00 -0.00000000000E+00 -0.51485929651E+03  0.51485929651E+03  0.00000000000E+00 0. -1.
         25    2    1    2    0    0 -0.19126768465E+03 -0.10316895339E+03 -0.38324876101E+03  0.45799055208E+03  0.12509425585E+03 0.  0.
          5    1    3    3  502    0 -0.14630642866E+03 -0.10927002890E+03 -0.20754230407E+03  0.27647204319E+03  0.41800000000E+01 0. -1.
         -5    1    3    3    0  502 -0.44961255989E+02  0.61010755116E+01 -0.17570645693E+03  0.18151850889E+03  0.41800000000E+01 0. -1.
        -11    1    1    2    0    0  0.54613156023E+02 -0.16191540721E+02  0.13817208444E+02  0.58614657304E+02  0.00000000000E+00 0.  1.
         11    1    1    2    0    0  0.13665452863E+03  0.11936049411E+03  0.42722587388E+02  0.18640441846E+03  0.00000000000E+00 0. -1.
</event>
<event>
 7    1  0.2440960E-009  0.9083618E+02  0.7561462E-02  0.1300839E+00
         -2   -1    0    0    0  501 -0.00000000000E+00  0.00000000000E+00  0.22812182580E+03  0.22812182580E+03  0.00000000000E+00 0. -1.
          2   -1    0    0  501    0  0.00000000000E+00 -0.00000000000E+00 -0.67161522345E+02  0.67161522345E+02  0.00000000000E+00 0.  1.
         25    2    1    2    0    0 -0.22312976170E+02  0.29841489904E+02  0.34735667302E+02  0.13506458197E+03  0.12508993282E+03 0.  0.
          5    1    3    3  502    0  0.28822699476E+02 -0.33976855870E+02 -0.31061774789E+01  0.44858616545E+02  0.41800000000E+01 0.  1.
         -5    1    3    3    0  502 -0.51135675645E+02  0.63818345774E+02  0.37841844781E+02  0.90205965420E+02  0.41800000000E+01 0.  1.
        -11    1    1    2    0    0  0.47140499810E+01  0.10233819411E+02 -0.11263522915E+02  0.15931737991E+02  0.00000000000E+00 0.  1.
         11    1    1    2    0    0  0.17598926189E+02 -0.40075309315E+02  0.13748815907E+03  0.14428702819E+03  0.00000000000E+00 0. -1.
</event>
<event>
 7    1  0.2440960E-009  0.1010432E+03  0.7561462E-02  0.1278118E+00
         -2   -1    0    0    0  501 -0.00000000000E+00  0.00000000000E+00  0.44980161977E+02  0.44980161977E+02  0.00000000000E+00 0.  1.
          2   -1    0    0  501    0  0.00000000000E+00 -0.00000000000E+00 -0.29838672698E+03  0.29838672698E+03  0.00000000000E+00 0. -1.
         25    2    1    2    0    0 -0.29520950189E+01  0.33107532440E+02 -0.10564254815E+03  0.16707399059E+03  0.12509415167E+03 0.  0.
          5    1    3    3  502    0 -0.61973389397E+02  0.10553318046E+01 -0.52134066937E+02  0.81100234611E+02  0.41800000000E+01 0.  1.
         -5    1    3    3    0  502  0.59021294378E+02  0.32052200635E+02 -0.53508481214E+02  0.85973755981E+02  0.41800000000E+01 0.  1.
        -11    1    1    2    0    0  0.13503253640E+02  0.16860020004E+02 -0.11170957314E+03  0.11377885069E+03  0.00000000000E+00 0. -1.
         11    1    1    2    0    0 -0.10551158621E+02 -0.49967552444E+02 -0.36054443715E+02  0.62514047678E+02  0.00000000000E+00 0.  1.
</event>
<event>
 7    1  0.2440960E-009  0.1049420E+03  0.7561462E-02  0.1270234E+00
          4   -1    0    0  501    0  0.00000000000E+00  0.00000000000E+00  0.16808976412E+03  0.16808976412E+03  0.00000000000E+00 0. -1.
         -4   -1    0    0    0  501 -0.00000000000E+00 -0.00000000000E+00 -0.10758102726E+03  0.10758102726E+03  0.00000000000E+00 0.  1.
         25    2    1    2    0    0 -0.27323854883E+01 -0.47904974661E+02 -0.32717404034E+02  0.13791942565E+03  0.12509591088E+03 0.  0.
          5    1    3    3  502    0  0.41633083939E+02  0.24836075604E+02 -0.13000422246E+02  0.50364945232E+02  0.41800000000E+01 0.  1.
         -5    1    3    3    0  502 -0.44365469427E+02 -0.72741050265E+02 -0.19716981788E+02  0.87554480422E+02  0.41800000000E+01 0.  1.
        -11    1    1    2    0    0 -0.27963099364E+02  0.19428204262E+02 -0.16054359499E+01  0.34087643970E+02  0.00000000000E+00 0.  1.
         11    1    1    2    0    0  0.30695484852E+02  0.28476770400E+02  0.94831576841E+02  0.10366372176E+03  0.00000000000E+00 0. -1.
</event>
<event>
 7    1  0.2440960E-009  0.7591516E+02  0.7561462E-02  0.1341060E+00
          1   -1    0    0  501    0  0.00000000000E+00  0.00000000000E+00  0.21082848986E+03  0.21082848986E+03  0.00000000000E+00 0. -1.
         -1   -1    0    0    0  501 -0.00000000000E+00 -0.00000000000E+00 -0.58465943927E+02  0.58465943927E+02  0.00000000000E+00 0.  1.
         25    2    1    2    0    0  0.19251380837E+02  0.11692474253E+02  0.10272490269E+03  0.16342558590E+03  0.12509271312E+03 0.  0.
          5    1    3    3  502    0 -0.18332638573E+02 -0.25222924885E+02  0.10590911452E+03  0.11048300555E+03  0.41800000000E+01 0.  1.
         -5    1    3    3    0  502  0.37584019410E+02  0.36915399138E+02 -0.31842118330E+01  0.52942580345E+02  0.41800000000E+01 0.  1.
        -11    1    1    2    0    0  0.23556129084E+02 -0.62497350060E+01  0.57093337877E+02  0.62077368138E+02  0.00000000000E+00 0. -1.
         11    1    1    2    0    0 -0.42807509921E+02 -0.54427392471E+01 -0.74556946361E+01  0.43791479750E+02  0.00000000000E+00 0.  1.
</event>
<event>
 7    1  0.2440960E-009  0.1255941E+03  0.7561462E-02  0.1234144E+00
          2   -1    0    0  501    0  0.00000000000E+00  0.00000000000E+00  0.85857222281E+02  0.85857222281E+02  0.00000000000E+00 0. -1.
         -2   -1    0    0    0  501 -0.00000000000E+00 -0.00000000000E+00 -0.26307155134E+03  0.26307155134E+03  0.00000000000E+00 0.  1.
         25    2    1    2    0    0 -0.80500681923E+02  0.60573468517E+02 -0.70911812412E+02  0.17557193914E+03  0.12509003075E+03 0.  0.
          5    1    3    3  502    0 -0.10843756488E+03  0.48894787951E+02 -0.80319568334E+02  0.14359008052E+03  0.41800000000E+01 0.  1.
         -5    1    3    3    0  502  0.27936882957E+02  0.11678680566E+02  0.94077559217E+01  0.31981858617E+02  0.41800000000E+01 0.  1.
        -11    1    1    2    0    0  0.22759724461E+02 -0.10080069578E+02 -0.92028331975E+02  0.95335338392E+02  0.00000000000E+00 0.  1.
         11    1    1    2    0    0  0.57740957462E+02 -0.50493398939E+02 -0.14274184675E+02  0.78021496097E+02  0.00000000000E+00 0. -1.
</event>
<event>
 7    1  0.2440960E-009  0.1086430E+03  0.7561462E-02  0.1263104E+00
          2   -1    0    0  501    0  0.00000000000E+00  0.00000000000E+00  0.32241388688E+03  0.32241388688E+03  0.00000000000E+00 0. -1.
         -2   -1    0    0    0  501 -0.00000000000E+00 -0.00000000000E+00 -0.53656947884E+02  0.53656947884E+02  0.00000000000E+00 0.  1.
         25    2    1    2    0    0  0.23071663247E+02  0.70501306569E+02  0.13712008089E+03  0.19987995075E+03  0.12508933710E+03 0.  0.
          5    1    3    3  502    0  0.47137500874E+02  0.10077472830E+02  0.36094014213E+00  0.48384936965E+02  0.41800000000E+01 0.  1.
         -5    1    3    3    0  502 -0.24065837627E+02  0.60423833740E+02  0.13675914075E+03  0.15149501379E+03  0.41800000000E+01 0.  1.
        -11    1    1    2    0    0  0.95332975417E+01 -0.70481482544E+02  0.46373352322E+02  0.84905894667E+02  0.00000000000E+00 0.  1.
         11    1    1    2    0    0 -0.32604960789E+02 -0.19824025716E-01  0.85263505782E+02  0.91284989343E+02  0.00000000000E+00 0. -1.
</event>
<event>
 7    1  0.2440960E-009  0.1172436E+03  0.7561462E-02  0.1247715E+00
          2   -1    0    0  501    0  0.00000000000E+00  0.00000000000E+00  0.10084667072E+03  0.10084667072E+03  0.00000000000E+00 0. -1.
         -2   -1    0    0    0  501 -0.00000000000E+00 -0.00000000000E+00 -0.16667141797E+03  0.16667141797E+03  0.00000000000E+00 0.  1.
         25    2    1    2    0    0 -0.60941732542E+01 -0.50723874152E+02 -0.90252651910E+02  0.16249225083E+03  0.12509252594E+03 0.  0.
          5    1    3    3  502    0  0.56334524494E+02 -0.61142790948E+01 -0.50293687728E+02  0.75880764915E+02  0.41800000000E+01 0. -1.
         -5    1    3    3    0  502 -0.62428697748E+02 -0.44609595057E+02 -0.39958964182E+02  0.86611485914E+02  0.41800000000E+01 0. -1.
        -11    1    1    2    0    0  0.38751518555E+02  0.55634650953E+02  0.24232501118E+02  0.72000754770E+02  0.00000000000E+00 0. -1.
         11    1    1    2    0    0 -0.32657345301E+02 -0.49107768014E+01  0.19540353887E+00  0.33025083095E+02  0.00000000000E+00 0.  1.
</event>
<event>
 7    1  0.2981092E-009  0.1300542E+03  0.7561462E-02  0.1227375E+00
         -1   -1    0    0    0  501 -0.00000000000E+00  0.00000000000E+00  0.36415754154E+02  0.36415754154E+02  0.00000000000E+00 0.  1.
          1   -1    0    0  501    0  0.00000000000E+00 -0.00000000000E+00 -0.76384161154E+03  0.76384161154E+03  0.00000000000E+00 0. -1.
         25    2    1    2    0    0 -0.33222870675E+01  0.10023045907E+03 -0.56920574991E+03  0.59135415447E+03  0.12508943903E+03 0.  0.
          5    1    3    3  502    0 -0.59170084375E+02  0.81213962960E+02 -0.33292264333E+03  0.34778120350E+03  0.41800000000E+01 0.  1.
         -5    1    3    3    0  502  0.55847797307E+02  0.19016496114E+02 -0.23628310658E+03  0.24357295097E+03  0.41800000000E+01 0.  1.
        -11    1    1    2    0    0 -0.89709590778E+00 -0.42543407260E+02 -0.14285213794E+03  0.14905529040E+03  0.00000000000E+00 0.  1.
         11    1    1    2    0    0  0.42193829753E+01 -0.57687051815E+02 -0.15367969537E+02  0.59847920828E+02  0.00000000000E+00 0. -1.
</event>
<event>
 7    1  0.2440960E-009  0.2442497E+03  0.7561462E-02  0.1116994E+00
          1   -1    0    0  501    0  0.00000000000E+00  0.00000000000E+00  0.86902432744E+03  0.86902432744E+03  0.00000000000E+00 0. -1.
         -1   -1    0    0    0  501 -0.00000000000E+00 -0.00000000000E+00 -0.87506539791E+02  0.87506539791E+02  0.00000000000E+00 0.  1.
         25    2    1    2    0    0 -0.23349066120E+03  0.91858185497E+01  0.57065481010E+03  0.62920359080E+03  0.12509187923E+03 0.  0.
          5    1    3    3  502    0 -0.96027524532E+02  0.48931724098E+02  0.34946126315E+03  0.36572701013E+03  0.41800000000E+01 0. -1.
         -5    1    3    3    0  502 -0.13746313666E+03 -0.39745905548E+02  0.22119354695E+03  0.26347658067E+03  0.41800000000E+01 0. -1.
        -11    1    1    2    0    0  0.10485740412E+03  0.16971571772E+02  0.43884688688E+02  0.11493030648E+03  0.00000000000E+00 0.  1.
         11    1    1    2    0    0  0.12863325708E+03 -0.26157390322E+02  0.16697828886E+03  0.21239696995E+03  0.00000000000E+00 0. -1.
</event>
<event>
 7    1  0.2440960E-009  0.1822552E+03  0.7561462E-02  0.1165638E+00
         -2   -1    0    0    0  501 -0.00000000000E+00  0.00000000000E+00  0.48160295594E+02  0.48160295594E+02  0.00000000000E+00 0.  1.
          2   -1    0    0  501    0  0.00000000000E+00 -0.00000000000E+00 -0.79736557533E+03  0.79736557533E+03  0.00000000000E+00 0. -1.
         25    2    1    2    0    0 -0.45286423842E+02  0.15069681959E+03 -0.48526590830E+03  0.52525561406E+03  0.12510022670E+03 0.  0.
          5    1    3    3  502    0 -0.46937211098E+02  0.17999596328E+02 -0.25065068968E+03  0.25567621690E+03  0.41800000000E+01 0.  1.
         -5    1    3    3    0  502  0.16507872554E+01  0.13269722326E+03 -0.23461521862E+03  0.26957939715E+03  0.41800000000E+01 0.  1.
        -11    1    1    2    0    0  0.26829402137E+02  0.25397195435E+01 -0.43412289367E+02  0.51096906584E+02  0.00000000000E+00 0. -1.
         11    1    1    2    0    0  0.18457021706E+02 -0.15323653914E+03 -0.22052708207E+03  0.26917335028E+03  0.00000000000E+00 0.  1.
</event>
<event>
 7    1  0.2440960E-009  0.1130370E+03  0.7561462E-02  0.1255047E+00
         -1   -1    0    0    0  501 -0.00000000000E+00  0.00000000000E+00  0.19683532646E+03  0.19683532646E+03  0.00000000000E+00 0.  1.
          1   -1    0    0  501    0  0.00000000000E+00 -0.00000000000E+00 -0.14055005386E+03  0.14055005386E+03  0.00000000000E+00 0. -1.
         25    2    1    2    0    0 -0.53519912970E+02  0.71872271096E+02 -0.58956497512E+02  0.16478175108E+03  0.12508857843E+03 0.  0.
          5    1    3    3  502    0 -0.66301175718E+02  0.91195885811E+02 -0.75720437039E+02  0.13588080246E+03  0.41800000000E+01 0. -1.
         -5    1    3    3    0  502  0.12781262748E+02 -0.19323614715E+02  0.16763939527E+02  0.28900948627E+02  0.41800000000E+01 0. -1.
        -11    1    1    2    0    0  0.13011431740E+02 -0.20528845555E+02  0.10330263768E+03  0.10612335185E+03  0.00000000000E+00 0.  1.
         11    1    1    2    0    0  0.40508481230E+02 -0.51343425541E+02  0.11939132424E+02  0.66480277383E+02  0.00000000000E+00 0. -1.
</event>
<event>
 7    1  0.2440960E-009  0.8483961E+02  0.7561462E-02  0.1315852E+00
         -2   -1    0    0    0  501 -0.00000000000E+00  0.00000000000E+00  0.57006771557E+02  0.57006771557E+02  0.00000000000E+00 0.  1.
          2   -1    0    0  501    0  0.00000000000E+00 -0.00000000000E+00 -0.25694670387E+03  0.25694670387E+03  0.00000000000E+00 0. -1.
         25    2    1    2    0    0  0.48045519825E+01  0.13785379842E+02 -0.51263131661E+02  0.13597694435E+03  0.12509476532E+03 0.  0.
          5    1    3    3  502    0 -0.21821817993E+02  0.54858478043E+02  0.71887819242E+01  0.59622104452E+02  0.41800000000E+01 0.  1.
         -5    1    3    3    0  502  0.26626369976E+02 -0.41073098201E+02 -0.58451913585E+02  0.76354839897E+02  0.41800000000E+01 0.  1.
        -11    1    1    2    0    0  0.26915428797E+02 -0.12348302750E+02 -0.40302341183E+01  0.29885844060E+02  0.00000000000E+00 0.  1.
         11    1    1    2    0    0 -0.31719980780E+02 -0.14370770925E+01 -0.14464656653E+03  0.14809068701E+03  0.00000000000E+00 0. -1.
</event>
<event>
 7    1  0.2440960E-009  0.1153858E+03  0.7561462E-02  0.1250909E+00
          2   -1    0    0  501    0  0.00000000000E+00  0.00000000000E+00  0.46199047022E+02  0.46199047022E+02  0.00000000000E+00 0. -1.
         -2   -1    0    0    0  501 -0.00000000000E+00 -0.00000000000E+00 -0.30784879908E+03  0.30784879908E+03  0.00000000000E+00 0.  1.
         25    2    1    2    0    0 -0.47821953551E+02  0.10632744622E+02 -0.15223672706E+03  0.20303555358E+03  0.12508964966E+03 0.  0.
          5    1    3    3  502    0 -0.23664349286E+02 -0.56191648067E+02 -0.52899815157E+02  0.80829237181E+02  0.41800000000E+01 0.  1.
         -5    1    3    3    0  502 -0.24157604264E+02  0.66824392689E+02 -0.99336911903E+02  0.12220631640E+03  0.41800000000E+01 0.  1.
        -11    1    1    2    0    0  0.38491425353E+02  0.34924689931E+02 -0.33013690889E+02  0.61572945184E+02  0.00000000000E+00 0. -1.
         11    1    1    2    0    0  0.93305281974E+01 -0.45557434552E+02 -0.76399334111E+02  0.89439347337E+02  0.00000000000E+00 0.  1.
</event>
<event>
 7    1  0.2440960E-009  0.9861681E+02  0.7561462E-02  0.1283232E+00
          2   -1    0    0  501    0  0.00000000000E+00  0.00000000000E+00  0.12041047680E+04  0.12041047680E+04  0.00000000000E+00 0.  1.
         -2   -1    0    0    0  501 -0.00000000000E+00 -0.00000000000E+00 -0.12860556043E+02  0.12860556043E+02  0.00000000000E+00 0. -1.
         25    2    1    2    0    0  0.52893574756E+02 -0.10477560040E+02  0.77538615266E+03  0.78725992840E+03  0.12508796746E+03 0.  0.
          5    1    3    3  502    0 -0.15940780654E+02  0.13788218858E+02  0.54778071319E+03  0.54820197520E+03  0.41800000000E+01 0.  1.
         -5    1    3    3    0  502  0.68834355410E+02 -0.24265778898E+02  0.22760543947E+03  0.23905795320E+03  0.41800000000E+01 0.  1.
        -11    1    1    2    0    0 -0.58208407715E+02 -0.27440320410E+02  0.32145724466E+03  0.32783524834E+03  0.00000000000E+00 0.  1.
         11    1    1    2    0    0  0.53148329588E+01  0.37917880450E+02  0.94400814599E+02  0.10187014727E+03  0.00000000000E+00 0. -1.
</event>
<event>
 7    1  0.2440960E-009  0.2236689E+03  0.7561462E-02  0.1131177E+00
         -2   -1    0    0    0  501 -0.00000000000E+00  0.00000000000E+00  0.11579487195E+03  0.11579487195E+03  0.00000000000E+00 0.  1.
          2   -1    0    0  501    0  0.00000000000E+00 -0.00000000000E+00 -0.54078625289E+03  0.54078625289E+03  0.00000000000E+00 0. -1.
         25    2    1    2    0    0  0.79130668605E+02  0.20846502656E+03 -0.18081308458E+03  0.31314621027E+03  0.12509135636E+03 0.  0.
          5    1    3    3  502    0  0.10818720014E+02  0.56476245977E+02 -0.12450333091E+03  0.13720482087E+03  0.41800000000E+01 0.  1.
         -5    1    3    3    0  502  0.68311948591E+02  0.15198878058E+03 -0.56309753668E+02  0.17594138939E+03  0.41800000000E+01 0.  1.
        -11    1    1    2    0    0 -0.18712624477E+02 -0.46021517340E+02 -0.12101131478E+03  0.13081238732E+03  0.00000000000E+00 0. -1.
         11    1    1    2    0    0 -0.60418044128E+02 -0.16244350922E+03 -0.12316698158E+03  0.21262252725E+03  0.00000000000E+00 0.  1.
</event>
<event>
 7    1  0.2440960E-009  0.1088096E+03  0.7561462E-02  0.1262790E+00
          1   -1    0    0  501    0  0.00000000000E+00  0.00000000000E+00  0.43312322396E+03  0.43312322396E+03  0.00000000000E+00 0. -1.
         -1   -1    0    0    0  501 -0.00000000000E+00 -0.00000000000E+00 -0.35614160524E+02  0.35614160524E+02  0.00000000000E+00 0.  1.
         25    2    1    2    0    0 -0.46430734816E+01  0.50091985083E+02  0.15534525811E+03  0.20569551111E+03  0.12509088285E+03 0.  0.
          5    1    3    3  502    0 -0.29886540302E+02 -0.27114356520E+02  0.98318799667E+02  0.10636001311E+03  0.41800000000E+01 0.  1.
         -5    1    3    3    0  502  0.25243466820E+02  0.77206341603E+02  0.57026458445E+02  0.99335498004E+02  0.41800000000E+01 0.  1.
        -11    1    1    2    0    0  0.12997907140E+02 -0.71532156246E+02  0.21741326652E+03  0.22924729753E+03  0.00000000000E+00 0. -1.
         11    1    1    2    0    0 -0.83548336579E+01  0.21440171163E+02  0.24750538808E+02  0.33794575841E+02  0.00000000000E+00 0.  1.
</event>
<event>
 7    1  0.2440960E-009  0.3409473E+03  0.7561462E-02  0.1066393E+00
         -1   -1    0    0    0  501 -0.00000000000E+00  0.00000000000E+00  0.41443325323E+03  0.41443325323E+03  0.00000000000E+00 0.  1.
          1   -1    0    0  501    0  0.00000000000E+00 -0.00000000000E+00 -0.29969061264E+03  0.29969061264E+03  0.00000000000E+00 0. -1.
         25    2    1    2    0    0  0.51386681818E+02 -0.32406066620E+03  0.12729935705E+03  0.37351006775E+03  0.12509491579E+03 0.  0.
          5    1    3    3  502    0  0.70441340153E+02 -0.14147091495E+03  0.10201084988E+03  0.18814804828E+03  0.41800000000E+01 0.  1.
         -5    1    3    3    0  502 -0.19054658336E+02 -0.18258975125E+03  0.25288507172E+02  0.18536201946E+03  0.41800000000E+01 0.  1.
        -11    1    1    2    0    0  0.66015641333E+01  0.22708991948E+03 -0.14016291536E+02  0.22761781259E+03  0.00000000000E+00 0. -1.
         11    1    1    2    0    0 -0.57988245951E+02  0.96970746716E+02  0.14595750787E+01  0.11299598553E+03  0.00000000000E+00 0.  1.
</event>
<event>
 7    1  0.3324461E-009  0.1233684E+03  0.7561462E-02  0.1237641E+00
         -1   -1    0    0    0  501 -0.00000000000E+00  0.00000000000E+00  0.18065106056E+02  0.18065106056E+02  0.00000000000E+00 0. -1.
          1   -1    0    0  501    0  0.00000000000E+00 -0.00000000000E+00 -0.99750590760E+03  0.99750590760E+03  0.00000000000E+00 0.  1.
         25    2    1    2    0    0  0.53855057327E+02  0.55270857795E+02 -0.59430788391E+03  0.61221316404E+03  0.12509141626E+03 0.  0.
          5    1    3    3  502    0 -0.32226875837E+02 -0.14865151893E+02 -0.15590366427E+03  0.15994676989E+03  0.41800000000E+01 0. -1.
         -5    1    3    3    0  502  0.86081933165E+02  0.70136009688E+02 -0.43840421964E+03  0.45226639414E+03  0.41800000000E+01 0. -1.
        -11    1    1    2    0    0 -0.67815173077E+02 -0.38200532546E+02 -0.36593214060E+03  0.37411831004E+03  0.00000000000E+00 0.  1.
         11    1    1    2    0    0  0.13960115750E+02 -0.17070325249E+02 -0.19200777037E+02  0.29239539577E+02  0.00000000000E+00 0. -1.
</event>
<event>
 7    1  0.2440960E-009  0.1242324E+03  0.7561462E-02  0.1236274E+00
         -1   -1    0    0    0  501 -0.00000000000E+00  0.00000000000E+00  0.23533771803E+03  0.23533771803E+03  0.00000000000E+00 0.  1.
          1   -1    0    0  501    0  0.00000000000E+00 -0.00000000000E+00 -0.78553314793E+02  0.78553314793E+02  0.00000000000E+00 0. -1.
         25    2    1    2    0    0  0.63037232310E+02  0.31787274817E+02  0.39284480297E+02  0.14891204224E+03  0.12508957764E+03 0.  0.
          5    1    3    3  502    0  0.80722706509E+02  0.61975667959E+02  0.86526767242E+01  0.10222269797E+03  0.41800000000E+01 0.  1.
         -5    1    3    3    0  502 -0.17685474199E+02 -0.30188393142E+02  0.30631803573E+02  0.46689344269E+02  0.41800000000E+01 0.  1.
        -11    1    1    2    0    0 -0.63133721028E+02  0.14751205694E+02  0.90005585070E+02  0.11092551620E+03  0.00000000000E+00 0.  1.
         11    1    1    2    0    0  0.96488718398E-01 -0.46538480511E+02  0.27494337866E+02  0.54053474385E+02  0.00000000000E+00 0. -1.
</event>
<event>
 7    1  0.2440960E-009  0.5798804E+02  0.7561462E-02  0.1406474E+00
         -3   -1    0    0    0  501 -0.00000000000E+00  0.00000000000E+00  0.20882879089E+03  0.20882879089E+03  0.00000000000E+00 0.  1.
          3   -1    0    0  501    0  0.00000000000E+00 -0.00000000000E+00 -0.80640592384E+02  0.80640592384E+02  0.00000000000E+00 0. -1.
         25    2    1    2    0    0  0.69726206055E+01 -0.33287546516E+02  0.14159807083E+03  0.19197460572E+03  0.12509019701E+03 0.  0.
          5    1    3    3  502    0  0.72623285529E+01  0.96940596891E+01 -0.20526103791E+02  0.24197304522E+02  0.41800000000E+01 0. -1.
         -5    1    3    3    0  502 -0.28970794741E+00 -0.42981606205E+02  0.16212417462E+03  0.16777730120E+03  0.41800000000E+01 0. -1.
        -11    1    1    2    0    0 -0.17953173021E+02  0.42183646099E+02 -0.44158967391E+02  0.63653678769E+02  0.00000000000E+00 0. -1.
         11    1    1    2    0    0  0.10980552415E+02 -0.88960995827E+01  0.30749095070E+02  0.33841098782E+02  0.00000000000E+00 0.  1.
</event>
<event>
 7    1  0.2440960E-009  0.7149397E+02  0.7561462E-02  0.1355085E+00
         -3   -1    0    0    0  501 -0.00000000000E+00  0.00000000000E+00  0.16599452691E+03  0.16599452691E+03  0.00000000000E+00 0.  1.
          3   -1    0    0  501    0  0.00000000000E+00 -0.00000000000E+00 -0.12007381159E+03  0.12007381159E+03  0.00000000000E+00 0. -1.
         25    2    1    2    0    0  0.50174462138E+02 -0.30518424304E+02  0.94609039350E+02  0.16747590732E+03  0.12509379814E+03 0.  0.
          5    1    3    3  502    0  0.12011796415E+00 -0.57731758977E+00 -0.29753605537E+02  0.30051575106E+02  0.41800000000E+01 0. -1.
         -5    1    3    3    0  502  0.50054344174E+02 -0.29941106714E+02  0.12436264489E+03  0.13742433222E+03  0.41800000000E+01 0. -1.
        -11    1    1    2    0    0 -0.32131616958E+02  0.46275026532E+02  0.81400568079E+01  0.56921695457E+02  0.00000000000E+00 0.  1.
         11    1    1    2    0    0 -0.18042845180E+02 -0.15756602228E+02 -0.56828380839E+02  0.61670735724E+02  0.00000000000E+00 0. -1.
</event>
<event>
 7    1  0.2440960E-009  0.2367365E+03  0.7561462E-02  0.1121986E+00
          1   -1    0    0  501    0  0.00000000000E+00  0.00000000000E+00  0.10745199175E+04  0.10745199175E+04  0.00000000000E+00 0. -1.
         -1   -1    0    0    0  501 -0.00000000000E+00 -0.00000000000E+00 -0.56916574874E+02  0.56916574874E+02  0.00000000000E+00 0.  1.
         25    2    1    2    0    0  0.21629515294E+03  0.28149212818E+02  0.61644805496E+03  0.66575652376E+03  0.12509025980E+03 0.  0.
          5    1    3    3  502    0  0.17950646766E+03 -0.21317967821E+02  0.52605794702E+03  0.55626564132E+03  0.41800000000E+01 0.  1.
         -5    1    3    3    0  502  0.36788685280E+02  0.49467180638E+02  0.90390107933E+02  0.10949088244E+03  0.41800000000E+01 0.  1.
        -11    1    1    2    0    0 -0.99445088755E+02  0.24937185328E+02  0.12899096571E+03  0.16477214002E+03  0.00000000000E+00 0.  1.
         11    1    1    2    0    0 -0.11685006418E+03 -0.53086398145E+02  0.27216432193E+03  0.30090782858E+03  0.00000000000E+00 0. -1.
</event>
<event>
 7    1  0.2440960E-009  0.1279929E+03  0.7561462E-02  0.1230465E+00
         -1   -1    0    0    0  501 -0.00000000000E+00  0.00000000000E+00  0.55971291200E+02  0.55971291200E+02  0.00000000000E+00 0.  1.
          1   -1    0    0  501    0  0.00000000000E+00 -0.00000000000E+00 -0.39044094484E+03  0.39044094484E+03  0.00000000000E+00 0. -1.
         25    2    1    2    0    0 -0.99413399069E+02 -0.38262292746E+01 -0.17166375118E+03  0.23455110180E+03  0.12509241361E+03 0.  0.
          5    1    3    3  502    0 -0.10495103333E+03  0.10266017325E+02 -0.59218624079E+02  0.12101416589E+03  0.41800000000E+01 0. -1.
         -5    1    3    3    0  502  0.55376342607E+01 -0.14092246599E+02 -0.11244512710E+03  0.11353693591E+03  0.41800000000E+01 0. -1.
        -11    1    1    2    0    0  0.19601298473E+02 -0.39378705873E+02 -0.64459248337E+02  0.78037734937E+02  0.00000000000E+00 0.  1.
         11    1    1    2    0    0  0.79812100597E+02  0.43204935147E+02 -0.98346654125E+02  0.13382339930E+03  0.00000000000E+00 0. -1.
</event>
<event>
 7    1  0.2440960E-009  0.1380796E+03  0.7561462E-02  0.1215937E+00
         -1   -1    0    0    0  501 -0.00000000000E+00  0.00000000000E+00  0.36912666730E+03  0.36912666730E+03  0.00000000000E+00 0.  1.
          1   -1    0    0  501    0  0.00000000000E+00 -0.00000000000E+00 -0.59907114195E+02  0.59907114195E+02  0.00000000000E+00 0. -1.
         25    2    1    2    0    0 -0.77557485678E+02 -0.55217725751E+02  0.11710734865E+03  0.19602274016E+03  0.12508646102E+03 0.  0.
          5    1    3    3  502    0 -0.10406487301E+03 -0.16820499678E+02  0.10214764352E+03  0.14684699684E+03  0.41800000000E+01 0. -1.
         -5    1    3    3    0  502  0.26507387334E+02 -0.38397226073E+02  0.14959705131E+02  0.49175743319E+02  0.41800000000E+01 0. -1.
        -11    1    1    2    0    0 -0.82234986172E+01  0.34637874695E+02  0.96808081549E+02  0.10314656052E+03  0.00000000000E+00 0. -1.
         11    1    1    2    0    0  0.85780984296E+02  0.20579851056E+02  0.95304122909E+02  0.12986448082E+03  0.00000000000E+00 0.  1.
</event>
<event>
 7    1  0.2440960E-009  0.1352839E+03  0.7561462E-02  0.1219819E+00
         -1   -1    0    0    0  501 -0.00000000000E+00  0.00000000000E+00  0.12706877795E+03  0.12706877795E+03  0.00000000000E+00 0.  1.
          1   -1    0    0  501    0  0.00000000000E+00 -0.00000000000E+00 -0.20426538338E+03  0.20426538338E+03  0.00000000000E+00 0. -1.
         25    2    1    2    0    0  0.93888824720E+02  0.23533286186E+02  0.29865864682E+02  0.16095687067E+03  0.12508484072E+03 0.  0.
          5    1    3    3  502    0 -0.28617159369E+02  0.17876935657E+02  0.15648520587E+02  0.37428267865E+02  0.41800000000E+01 0.  1.
         -5    1    3    3    0  502  0.12250598409E+03  0.56563505288E+01  0.14217344095E+02  0.12352860281E+03  0.41800000000E+01 0.  1.
        -11    1    1    2    0    0 -0.92376717446E+02 -0.21277060672E+01 -0.41316226549E+02  0.10121766464E+03  0.00000000000E+00 0.  1.
         11    1    1    2    0    0 -0.15121072740E+01 -0.21405580119E+02 -0.65746243564E+02  0.69159626021E+02  0.00000000000E+00 0. -1.
</event>
<event>
 7    1  0.2440960E-009  0.1079865E+03  0.7561462E-02  0.1264345E+00
         -1   -1    0    0    0  501 -0.00000000000E+00  0.00000000000E+00  0.15144888323E+03  0.15144888323E+03  0.00000000000E+00 0.  1.
          1   -1    0    0  501    0  0.00000000000E+00 -0.00000000000E+00 -0.85584246420E+02  0.85584246420E+02  0.00000000000E+00 0. -1.
         25    2    1    2    0    0  0.26821453118E+00 -0.64710129415E+01  0.29375356341E+01  0.12529182013E+03  0.12508982823E+03 0.  0.
          5    1    3    3  502    0  0.60783370398E+02  0.98299034002E+01  0.82145402895E+01  0.62259105277E+02  0.41800000000E+01 0. -1.
         -5    1    3    3    0  502 -0.60515155867E+02 -0.16300916342E+02 -0.52770046553E+01  0.63032714849E+02  0.41800000000E+01 0. -1.
        -11    1    1    2    0    0 -0.42176217756E+02  0.20969631239E+02  0.40134170656E+02  0.61881422356E+02  0.00000000000E+00 0.  1.
         11    1    1    2    0    0  0.41908003225E+02 -0.14498618298E+02  0.22792930522E+02  0.49859887170E+02  0.00000000000E+00 0. -1.
</event>
<event>
 7    1  0.2440960E-009  0.1016827E+03  0.7561462E-02  0.1276797E+00
          2   -1    0    0  501    0  0.00000000000E+00  0.00000000000E+00  0.71838806276E+03  0.71838806276E+03  0.00000000000E+00 0.  1.
         -2   -1    0    0    0  501 -0.00000000000E+00 -0.00000000000E+00 -0.33824279889E+02  0.33824279889E+02  0.00000000000E+00 0. -1.
         25    2    1    2    0    0 -0.46302006437E+02  0.53899011965E+01  0.60994238014E+03  0.62438045635E+03  0.12509324660E+03 0.  0.
          5    1    3    3  502    0 -0.80912956995E+02  0.34508811525E+02  0.40578139402E+03  0.41522737966E+03  0.41800000000E+01 0.  1.
         -5    1    3    3    0  502  0.34610950558E+02 -0.29118910329E+02  0.20416098612E+03  0.20915307669E+03  0.41800000000E+01 0.  1.
        -11    1    1    2    0    0  0.33619945903E+02  0.21666643939E+02  0.86793954343E+02  0.95566389137E+02  0.00000000000E+00 0.  1.
         11    1    1    2    0    0  0.12682060534E+02 -0.27056545135E+02 -0.12172551616E+02  0.32265497159E+02  0.00000000000E+00 0. -1.
</event>
<event>
 7    1  0.2440960E-009  0.1041411E+03  0.7561462E-02  0.1271821E+00
         -2   -1    0    0    0  501 -0.00000000000E+00  0.00000000000E+00  0.13931905540E+02  0.13931905540E+02  0.00000000000E+00 0.  1.
          2   -1    0    0  501    0  0.00000000000E+00 -0.00000000000E+00 -0.97874171001E+03  0.97874171001E+03  0.00000000000E+00 0. -1.
         25    2    1    2    0    0  0.25803723353E+02 -0.32515173113E+02 -0.56678777603E+03  0.58190791597E+03  0.12508145742E+03 0.  0.
          5    1    3    3  502    0  0.56845571475E+02  0.73399676955E+01 -0.46137616962E+03  0.46494164840E+03  0.41800000000E+01 0.  1.
         -5    1    3    3    0  502 -0.31041848123E+02 -0.39855140809E+02 -0.10541160641E+03  0.11696626757E+03  0.41800000000E+01 0.  1.
        -11    1    1    2    0    0 -0.50235664387E+02  0.49374766997E+02 -0.30893588893E+03  0.31686412397E+03  0.00000000000E+00 0.  1.
         11    1    1    2    0    0  0.24431941035E+02 -0.16859593884E+02 -0.89086139513E+02  0.93901575610E+02  0.00000000000E+00 0. -1.
</event>
<event>
 7    1  0.2440960E-009  0.1176827E+03  0.7561462E-02  0.1246970E+00
          3   -1    0    0  501    0  0.00000000000E+00  0.00000000000E+00  0.18601257728E+03  0.18601257728E+03  0.00000000000E+00 0. -1.
         -3   -1    0    0    0  501 -0.00000000000E+00 -0.00000000000E+00 -0.79991058262E+02  0.79991058262E+02  0.00000000000E+00 0.  1.
         25    2    1    2    0    0 -0.29358553775E+02  0.46983862820E+02  0.60127060573E+02  0.14944035718E+03  0.12509096248E+03 0.  0.
          5    1    3    3  502    0  0.37000720164E+02 -0.19460506457E+02  0.11259095810E+02  0.43497175112E+02  0.41800000000E+01 0. -1.
         -5    1    3    3    0  502 -0.66359273939E+02  0.66444369277E+02  0.48867964763E+02  0.10594318207E+03  0.41800000000E+01 0. -1.
        -11    1    1    2    0    0 -0.17473168136E+02  0.14049518876E+02  0.30912743757E+02  0.38187672251E+02  0.00000000000E+00 0. -1.
         11    1    1    2    0    0  0.46831721911E+02 -0.61033381696E+02  0.14981714686E+02  0.78375606112E+02  0.00000000000E+00 0.  1.
</event>
<event>
 7    1  0.2440960E-009  0.1024725E+03  0.7561462E-02  0.1275181E+00
          2   -1    0    0  501    0  0.00000000000E+00  0.00000000000E+00  0.15606904164E+02  0.15606904164E+02  0.00000000000E+00 0.  1.
         -2   -1    0    0    0  501 -0.00000000000E+00 -0.00000000000E+00 -0.14169455502E+04  0.14169455502E+04  0.00000000000E+00 0. -1.
         25    2    1    2    0    0 -0.83020782458E+02  0.50439323302E+02 -0.87566356868E+03  0.88987256724E+03  0.12509965936E+03 0.  0.
          5    1    3    3  502    0 -0.13728313148E+02 -0.51645867067E+01 -0.60045484738E+03  0.60064851259E+03  0.41800000000E+01 0.  1.
         -5    1    3    3    0  502 -0.69292469310E+02  0.55603910008E+02 -0.27520872130E+03  0.28922405465E+03  0.41800000000E+01 0.  1.
        -11    1    1    2    0    0  0.22638244056E+01 -0.10343408523E+02 -0.13673594673E+01  0.10676173131E+02  0.00000000000E+00 0.  1.
         11    1    1    2    0    0  0.80756958053E+02 -0.40095914779E+02 -0.52430771787E+03  0.53200371397E+03  0.00000000000E+00 0. -1.
</event>
<event>
 7    1  0.2440960E-009  0.1391253E+03  0.7561462E-02  0.1214511E+00
         -1   -1    0    0    0  501 -0.00000000000E+00  0.00000000000E+00  0.78739141610E+03  0.78739141610E+03  0.00000000000E+00 0.  1.
          1   -1    0    0  501    0  0.00000000000E+00 -0.00000000000E+00 -0.40027081317E+02  0.40027081317E+02  0.00000000000E+00 0. -1.
         25    2    1    2    0    0 -0.67636477626E+02 -0.10401167587E+03  0.24442977465E+03  0.30130643828E+03  0.12508610311E+03 0.  0.
          5    1    3    3  502    0 -0.82573087486E+02 -0.51202153122E+02  0.73979858292E+02  0.12219029051E+03  0.41800000000E+01 0.  1.
         -5    1    3    3    0  502  0.14936609860E+02 -0.52809522748E+02  0.17044991636E+03  0.17911614777E+03  0.41800000000E+01 0.  1.
        -11    1    1    2    0    0  0.50553123681E+02  0.58322544597E+02  0.43879594527E+03  0.44553228739E+03  0.00000000000E+00 0.  1.
         11    1    1    2    0    0  0.17083353944E+02  0.45689131272E+02  0.64138614871E+02  0.80579771754E+02  0.00000000000E+00 0. -1.
</event>
<event>
 7    1  0.2440960E-009  0.1126992E+03  0.7561462E-02  0.1255651E+00
         -1   -1    0    0    0  501 -0.00000000000E+00  0.00000000000E+00  0.69235760284E+02  0.69235760284E+02  0.00000000000E+00 0.  1.
          1   -1    0    0  501    0  0.00000000000E+00 -0.00000000000E+00 -0.50153089314E+03  0.50153089314E+03  0.00000000000E+00 0. -1.
         25    2    1    2    0    0  0.62853210598E+02 -0.69330563085E+02 -0.40946438415E+03  0.43825276412E+03  0.12508856986E+03 0.  0.
          5    1    3    3  502    0  0.50595703738E+02 -0.63805623656E+02 -0.41514010357E+03  0.42307193341E+03  0.41800000000E+01 0. -1.
         -5    1    3    3    0  502  0.12257506860E+02 -0.55249394288E+01  0.56757194198E+01  0.15180830710E+02  0.41800000000E+01 0. -1.
        -11    1    1    2    0    0 -0.76930181559E+02  0.21437990186E+02 -0.71045142312E+01  0.80176769581E+02  0.00000000000E+00 0.  1.
         11    1    1    2    0    0  0.14076970962E+02  0.47892572898E+02 -0.15726234476E+02  0.52337119725E+02  0.00000000000E+00 0. -1.
</event>
<event>
 7    1  0.2440960E-009  0.9470309E+02  0.7561462E-02  0.1291846E+00
         -2   -1    0    0    0  501 -0.00000000000E+00  0.00000000000E+00  0.77352918440E+02  0.77352918440E+02  0.00000000000E+00 0.  1.
          2   -1    0    0  501    0  0.00000000000E+00 -0.00000000000E+00 -0.17441284877E+03  0.17441284877E+03  0.00000000000E+00 0. -1.
         25    2    1    2    0    0 -0.33276447156E+01 -0.44156492622E+02 -0.42131752730E+02  0.13922412406E+03  0.12508958019E+03 0.  0.
          5    1    3    3  502    0  0.44456693876E+02 -0.91061286024E+01  0.23017755936E+02  0.51054957613E+02  0.41800000000E+01 0.  1.
         -5    1    3    3    0  502 -0.47784338592E+02 -0.35050364019E+02 -0.65149508666E+02  0.88169166447E+02  0.41800000000E+01 0.  1.
        -11    1    1    2    0    0 -0.30459330730E+02  0.21744887473E+01  0.60851556527E+01  0.31137250186E+02  0.00000000000E+00 0. -1.
         11    1    1    2    0    0  0.33786975446E+02  0.41982003875E+02 -0.61013333250E+02  0.81404392961E+02  0.00000000000E+00 0.  1.
</event>
<event>
 7    1  0.2440960E-009  0.8833407E+02  0.7561462E-02  0.1306937E+00
          2   -1    0    0  501    0  0.00000000000E+00  0.00000000000E+00  0.29138804657E+02  0.29138804657E+02  0.00000000000E+00 0. -1.
         -2   -1    0    0    0  501 -0.00000000000E+00 -0.00000000000E+00 -0.42605176720E+03  0.42605176720E+03  0.00000000000E+00 0.  1.
         25    2    1    2    0    0 -0.80164709932E+00 -0.25594093958E+02 -0.22375813586E+03  0.25762325038E+03  0.12508531284E+03 0.  0.
          5    1    3    3  502    0 -0.42486373422E+02 -0.32628003471E+01 -0.20000869766E+03  0.20454019001E+03  0.41800000000E+01 0.  1.
         -5    1    3    3    0  502  0.41684726323E+02 -0.22331293611E+02 -0.23749438205E+02  0.53083060368E+02  0.41800000000E+01 0.  1.
        -11    1    1    2    0    0 -0.27714278239E+02  0.44313987301E+02 -0.60947412127E+02  0.80289462159E+02  0.00000000000E+00 0. -1.
         11    1    1    2    0    0  0.28515925339E+02 -0.18719893343E+02 -0.11220741456E+03  0.11727785932E+03  0.00000000000E+00 0.  1.
</event>
<event>
 7    1  0.2440960E-009  0.2049104E+03  0.7561462E-02  0.1145661E+00
         -1   -1    0    0    0  501 -0.00000000000E+00  0.00000000000E+00  0.28530011403E+03  0.28530011403E+03  0.00000000000E+00 0.  1.
          1   -1    0    0  501    0  0.00000000000E+00 -0.00000000000E+00 -0.37223804094E+03  0.37223804094E+03  0.00000000000E+00 0. -1.
         25    2    1    2    0    0 -0.18298312324E+03  0.12021463997E+02  0.20405513471E+03  0.30152024273E+03  0.12509444347E+03 0.  0.
          5    1    3    3  502    0 -0.14030291336E+03  0.52450208305E+02  0.94604305248E+02  0.17720998510E+03  0.41800000000E+01 0.  1.
         -5    1    3    3    0  502 -0.42680209875E+02 -0.40428744308E+02  0.10945082946E+03  0.12431025762E+03  0.41800000000E+01 0.  1.
        -11    1    1    2    0    0  0.10411782165E+03 -0.47645188485E+02 -0.12996204966E+03  0.17320715668E+03  0.00000000000E+00 0.  1.
         11    1    1    2    0    0  0.78865301586E+02  0.35623724488E+02 -0.16103101195E+03  0.18281075556E+03  0.00000000000E+00 0. -1.
</event>
<event>
 7    1  0.2440960E-009  0.1106152E+03  0.7561462E-02  0.1259435E+00
         -4   -1    0    0    0  501 -0.00000000000E+00  0.00000000000E+00  0.18463277703E+03  0.18463277703E+03  0.00000000000E+00 0.  1.
          4   -1    0    0  501    0  0.00000000000E+00 -0.00000000000E+00 -0.76171867123E+02  0.76171867123E+02  0.00000000000E+00 0. -1.
         25    2    1    2    0    0  0.29976248911E+02  0.34696722231E+02  0.66443302710E+02  0.14888262118E+03  0.12509550105E+03 0.  0.
          5    1    3    3  502    0 -0.15220440340E+02 -0.34581892270E+02 -0.64421421544E+01  0.38555708691E+02  0.41800000000E+01 0. -1.
         -5    1    3    3    0  502  0.45196689251E+02  0.69278614501E+02  0.72885444864E+02  0.11032691249E+03  0.41800000000E+01 0. -1.
        -11    1    1    2    0    0  0.10597681297E+02 -0.54305067287E+02  0.89990988876E+01  0.56056533631E+02  0.00000000000E+00 0.  1.
         11    1    1    2    0    0 -0.40573930208E+02  0.19608345056E+02  0.33018508308E+02  0.55865489341E+02  0.00000000000E+00 0. -1.
</event>
<event>
 7    1  0.2440960E-009  0.1315034E+03  0.7561462E-02  0.1225242E+00
          1   -1    0    0  501    0  0.00000000000E+00  0.00000000000E+00  0.55198607013E+03  0.55198607013E+03  0.00000000000E+00 0. -1.
         -1   -1    0    0    0  501 -0.00000000000E+00 -0.00000000000E+00 -0.42236916266E+02  0.42236916266E+02  0.00000000000E+00 0.  1.
         25    2    1    2    0    0 -0.63125441585E+02 -0.68870786247E+02  0.37229988166E+03  0.40371171595E+03  0.12509173090E+03 0.  0.
          5    1    3    3  502    0 -0.34579316768E+02  0.24478192519E+02  0.20999707010E+03  0.21426887994E+03  0.41800000000E+01 0.  1.
         -5    1    3    3    0  502 -0.28546124817E+02 -0.93348978766E+02  0.16230281155E+03  0.18944283601E+03  0.41800000000E+01 0.  1.
        -11    1    1    2    0    0  0.26920869479E+02  0.80356718559E+02  0.12404995059E+03  0.15023423602E+03  0.00000000000E+00 0. -1.
         11    1    1    2    0    0  0.36204572107E+02 -0.11485932312E+02  0.13399321622E+02  0.40277034429E+02  0.00000000000E+00 0.  1.
</event>
<event>
 7    1  0.2440960E-009  0.7581006E+02  0.7561462E-02  0.1341381E+00
          2   -1    0    0  501    0  0.00000000000E+00  0.00000000000E+00  0.32802526456E+03  0.32802526456E+03  0.00000000000E+00 0. -1.
         -2   -1    0    0    0  501 -0.00000000000E+00 -0.00000000000E+00 -0.40316203592E+02  0.40316203592E+02  0.00000000000E+00 0.  1.
         25    2    1    2    0    0 -0.34785837805E+02 -0.12614159242E+02  0.18114086781E+03  0.22322537292E+03  0.12509349145E+03 0.  0.
          5    1    3    3  502    0 -0.48929184849E+02 -0.31031559354E+02  0.21642194028E+02  0.61990965215E+02  0.41800000000E+01 0.  1.
         -5    1    3    3    0  502  0.14143347044E+02  0.18417400112E+02  0.15949867378E+03  0.16123440771E+03  0.41800000000E+01 0.  1.
        -11    1    1    2    0    0  0.45532853021E+02 -0.84289549342E+01  0.12272633473E+02  0.47905172141E+02  0.00000000000E+00 0.  1.
         11    1    1    2    0    0 -0.10747015215E+02  0.21043114176E+02  0.94295559691E+02  0.97210923089E+02  0.00000000000E+00 0. -1.
</event>
<event>
 7    1  0.2440960E-009  0.2069038E+03  0.7561462E-02  0.1144042E+00
         -2   -1    0    0    0  501 -0.00000000000E+00  0.00000000000E+00  0.30648737838E+03  0.30648737838E+03  0.00000000000E+00 0.  1.
          2   -1    0    0  501    0  0.00000000000E+00 -0.00000000000E+00 -0.14332481022E+03  0.14332481022E+03  0.00000000000E+00 0. -1.
         25    2    1    2    0    0 -0.17610036404E+03  0.25270239300E+02  0.84407390243E+02  0.23328625002E+03  0.12509174117E+03 0.  0.
          5    1    3    3  502    0 -0.14562085362E+03  0.66960518432E+02  0.40493439544E+02  0.16536727332E+03  0.41800000000E+01 0.  1.
         -5    1    3    3    0  502 -0.30479510421E+02 -0.41690279132E+02  0.43913950699E+02  0.67918976697E+02  0.41800000000E+01 0.  1.
        -11    1    1    2    0    0  0.73342977144E+02 -0.58337971798E+02  0.38568168511E+02  0.10134108186E+03  0.00000000000E+00 0.  1.
         11    1    1    2    0    0  0.10275738690E+03  0.33067732498E+02  0.40187009398E+02  0.11518485673E+03  0.00000000000E+00 0. -1.
</event>
<event>
 7    1  0.2440960E-009  0.1053911E+03  0.7561462E-02  0.1269351E+00
          2   -1    0    0  501    0  0.00000000000E+00  0.00000000000E+00  0.11336815161E+03  0.11336815161E+03  0.00000000000E+00 0. -1.
         -2   -1    0    0    0  501 -0.00000000000E+00 -0.00000000000E+00 -0.14645887339E+03  0.14645887339E+03  0.00000000000E+00 0.  1.
         25    2    1    2    0    0  0.48310972639E+02  0.32219694115E+02 -0.55673412582E+02  0.14872412821E+03  0.12508908297E+03 0.  0.
          5    1    3    3  502    0  0.45048577853E+02  0.59503408751E+02  0.11869437748E+02  0.75686101577E+02  0.41800000000E+01 0.  1.
         -5    1    3    3    0  502  0.32623947858E+01 -0.27283714635E+02 -0.67542850330E+02  0.73038026635E+02  0.41800000000E+01 0.  1.
        -11    1    1    2    0    0 -0.74845268401E+02 -0.14244405901E+02  0.20927130654E+02  0.79010518913E+02  0.00000000000E+00 0.  1.
         11    1    1    2    0    0  0.26534295762E+02 -0.17975288215E+02  0.16555601462E+01  0.32092377871E+02  0.00000000000E+00 0. -1.
</event>
<event>
 7    1  0.2440960E-009  0.9622610E+02  0.7561462E-02  0.1288438E+00
          3   -1    0    0  501    0  0.00000000000E+00  0.00000000000E+00  0.19228619554E+03  0.19228619554E+03  0.00000000000E+00 0. -1.
         -3   -1    0    0    0  501 -0.00000000000E+00 -0.00000000000E+00 -0.77697249973E+02  0.77697249973E+02  0.00000000000E+00 0.  1.
         25    2    1    2    0    0  0.20094077884E+02 -0.42309531295E+02  0.31651867380E+02  0.13727702635E+03  0.12509705372E+03 0.  0.
          5    1    3    3  502    0 -0.21988161412E+02 -0.42765183113E+02  0.66711897052E+02  0.82342514762E+02  0.41800000000E+01 0.  1.
         -5    1    3    3    0  502  0.42082239296E+02  0.45565181810E+00 -0.35060029673E+02  0.54934511587E+02  0.41800000000E+01 0.  1.
        -11    1    1    2    0    0  0.20223872338E+02  0.55820162949E+02  0.59931712741E+02  0.84360570151E+02  0.00000000000E+00 0. -1.
         11    1    1    2    0    0 -0.40317950222E+02 -0.13510631655E+02  0.23005365451E+02  0.48345849019E+02  0.00000000000E+00 0.  1.
</event>
<event>
 7    1  0.2440960E-009  0.9072599E+02  0.7561462E-02  0.1301103E+00
          2   -1    0    0  501    0  0.00000000000E+00  0.00000000000E+00  0.55173687616E+02  0.55173687616E+02  0.00000000000E+00 0.  1.
         -2   -1    0    0    0  501 -0.00000000000E+00 -0.00000000000E+00 -0.28284558946E+03  0.28284558946E+03  0.00000000000E+00 0. -1.
         25    2    1    2    0    0 -0.17462536438E+02 -0.61568572749E+02 -0.12625579316E+03  0.18889738660E+03  0.12508424372E+03 0.  0.
          5    1    3    3  502    0 -0.95900042525E+01  0.10324395863E+01  0.23824332368E+02  0.26040455561E+02  0.41800000000E+01 0.  1.
         -5    1    3    3    0  502 -0.78725321855E+01 -0.62601012336E+02 -0.15008012553E+03  0.16285693104E+03  0.41800000000E+01 0.  1.
        -11    1    1    2    0    0 -0.30736071185E+02  0.49092128919E+02 -0.41678218876E+02  0.71356969683E+02  0.00000000000E+00 0. -1.
         11    1    1    2    0    0  0.48198607623E+02  0.12476443830E+02 -0.59737889809E+02  0.77764920795E+02  0.00000000000E+00 0.  1.
</event>
<event>
 7    1  0.2440960E-009  0.1213503E+03  0.7561462E-02  0.1240886E+00
         -1   -1    0    0    0  501 -0.00000000000E+00  0.00000000000E+00  0.42765815310E+02  0.42765815310E+02  0.00000000000E+00 0.  1.
          1   -1    0    0  501    0  0.00000000000E+00 -0.00000000000E+00 -0.42848793484E+03  0.42848793484E+03  0.00000000000E+00 0. -1.
         25    2    1    2    0    0 -0.61383362179E+02 -0.37445351571E+02 -0.17579106590E+03  0.22742023623E+03  0.12508954189E+03 0.  0.
          5    1    3    3  502    0  0.16014122132E+02 -0.41688976131E+02 -0.12947996209E+03  0.13702903277E+03  0.41800000000E+01 0. -1.
         -5    1    3    3    0  502 -0.77397484311E+02  0.42436245595E+01 -0.46311103809E+02  0.90391203461E+02  0.41800000000E+01 0. -1.
        -11    1    1    2    0    0 -0.15491693022E+02  0.40420527892E+02 -0.48501887411E+02  0.65009573988E+02  0.00000000000E+00 0.  1.
         11    1    1    2    0    0  0.76875055201E+02 -0.29751763207E+01 -0.16142916622E+03  0.17882393993E+03  0.00000000000E+00 0. -1.
</event>
<event>
 7    1  0.2440960E-009  0.9569753E+02  0.7561462E-02  0.1289613E+00
          2   -1    0    0  501    0  0.00000000000E+00  0.00000000000E+00  0.88389782275E+03  0.88389782275E+03  0.00000000000E+00 0. -1.
         -2   -1    0    0    0  501 -0.00000000000E+00 -0.00000000000E+00 -0.21730168070E+02  0.21730168070E+02  0.00000000000E+00 0.  1.
         25    2    1    2    0    0 -0.71251417168E+02  0.26299222834E+02  0.47244633618E+03  0.49459147695E+03  0.12508706940E+03 0.  0.
          5    1    3    3  502    0 -0.73904869664E+02  0.22753510767E+02  0.47924654529E+03  0.48546305275E+03  0.41800000000E+01 0.  1.
         -5    1    3    3    0  502  0.26534524954E+01  0.35457120673E+01 -0.68002091176E+01  0.91284241933E+01  0.41800000000E+01 0.  1.
        -11    1    1    2    0    0  0.43521201312E+02  0.24533384105E+02  0.69334219776E+02  0.85458855195E+02  0.00000000000E+00 0.  1.
         11    1    1    2    0    0  0.27730215856E+02 -0.50832606939E+02  0.32038709873E+03  0.32557765868E+03  0.00000000000E+00 0. -1.
</event>
<event>
 7    1  0.2440960E-009  0.1370501E+03  0.7561462E-02  0.1217354E+00
         -2   -1    0    0    0  501 -0.00000000000E+00  0.00000000000E+00  0.89505100172E+02  0.89505100172E+02  0.00000000000E+00 0.  1.
          2   -1    0    0  501    0  0.00000000000E+00 -0.00000000000E+00 -0.29583601111E+03  0.29583601111E+03  0.00000000000E+00 0. -1.
         25    2    1    2    0    0  0.73473992698E+02  0.76526163309E+02 -0.46777813672E+02  0.17056063802E+03  0.12509231038E+03 0.  0.
          5    1    3    3  502    0  0.87860971998E+02  0.53216526727E+02  0.14009344273E+02  0.10375588294E+03  0.41800000000E+01 0.  1.
         -5    1    3    3    0  502 -0.14386979300E+02  0.23309636582E+02 -0.60787157945E+02  0.66804755085E+02  0.41800000000E+01 0.  1.
        -11    1    1    2    0    0 -0.97376770402E+02 -0.64748821946E+02 -0.13418232338E+03  0.17798747502E+03  0.00000000000E+00 0. -1.
         11    1    1    2    0    0  0.23902777704E+02 -0.11777341363E+02 -0.25370773884E+02  0.36792998233E+02  0.00000000000E+00 0.  1.
</event>
<event>
 7    1  0.2440960E-009  0.9954983E+02  0.7561462E-02  0.1281245E+00
         -4   -1    0    0    0  501 -0.00000000000E+00  0.00000000000E+00  0.21235246174E+03  0.21235246174E+03  0.00000000000E+00 0.  1.
          4   -1    0    0  501    0  0.00000000000E+00 -0.00000000000E+00 -0.93442207036E+02  0.93442207036E+02  0.00000000000E+00 0. -1.
         25    2    1    2    0    0 -0.44078240401E+02  0.18023455713E+02 -0.17736067858E+02  0.13501762905E+03  0.12508979102E+03 0.  0.
          5    1    3    3  502    0  0.31125015041E+02  0.43639386932E+01  0.30942621961E+02  0.44302694907E+02  0.41800000000E+01 0.  1.
         -5    1    3    3    0  502 -0.75203255442E+02  0.13659517020E+02 -0.48678689818E+02  0.90714934143E+02  0.41800000000E+01 0.  1.
        -11    1    1    2    0    0  0.61981381410E+02  0.44168774178E+01  0.12538951800E+03  0.13994188676E+03  0.00000000000E+00 0.  1.
         11    1    1    2    0    0 -0.17903141009E+02 -0.22440333131E+02  0.11256804563E+02  0.30835152959E+02  0.00000000000E+00 0. -1.
</event>
<event>
 7    1  0.2440960E-009  0.9924876E+02  0.7561462E-02  0.1281884E+00
          3   -1    0    0  501    0  0.00000000000E+00  0.00000000000E+00  0.35273220682E+03  0.35273220682E+03  0.00000000000E+00 0. -1.
         -3   -1    0    0    0  501 -0.00000000000E+00 -0.00000000000E+00 -0.64305937662E+02  0.64305937662E+02  0.00000000000E+00 0.  1.
         25    2    1    2    0    0  0.84670133340E+01  0.31043433583E+02  0.29330208066E+03  0.32048078811E+03  0.12508573039E+03 0.  0.
          5    1    3    3  502    0  0.48346838010E+02  0.55939240052E+02  0.22927140945E+03  0.24093456978E+03  0.41800000000E+01 0. -1.
         -5    1    3    3    0  502 -0.39879824676E+02 -0.24895806468E+02  0.64030671206E+02  0.79546218333E+02  0.41800000000E+01 0. -1.
        -11    1    1    2    0    0  0.28022087256E+01  0.22426084794E+02 -0.29048909009E+02  0.36805173108E+02  0.00000000000E+00 0.  1.
         11    1    1    2    0    0 -0.11269222060E+02 -0.53469518377E+02  0.24173097511E+02  0.59752183262E+02  0.00000000000E+00 0. -1.
</event>
<event>
 7    1  0.2440960E-009  0.1045963E+03  0.7561462E-02  0.1270917E+00
          1   -1    0    0  501    0  0.00000000000E+00  0.00000000000E+00  0.17310112477E+02  0.17310112477E+02  0.00000000000E+00 0. -1.
         -1   -1    0    0    0  501 -0.00000000000E+00 -0.00000000000E+00 -0.92929323469E+03  0.92929323469E+03  0.00000000000E+00 0.  1.
         25    2    1    2    0    0 -0.28765175918E+02  0.27364095307E+02 -0.67940770630E+03  0.69196727988E+03  0.12509059113E+03 0.  0.
          5    1    3    3  502    0 -0.71915587632E+02  0.11639803934E+02 -0.54510747241E+03  0.54996996796E+03  0.41800000000E+01 0.  1.
         -5    1    3    3    0  502  0.43150411714E+02  0.15724291373E+02 -0.13430023388E+03  0.14199731192E+03  0.41800000000E+01 0.  1.
        -11    1    1    2    0    0  0.23997007005E+02 -0.56078780608E+02 -0.87458519124E+02  0.10662869476E+03  0.00000000000E+00 0. -1.
         11    1    1    2    0    0  0.47681689126E+01  0.28714685301E+02 -0.14511689679E+03  0.14800737252E+03  0.00000000000E+00 0.  1.
</event>
<event>
 7    1  0.2440960E-009  0.1894047E+03  0.7561462E-02  0.1158999E+00
         -1   -1    0    0    0  501 -0.00000000000E+00  0.00000000000E+00  0.94699357868E+02  0.94699357868E+02  0.00000000000E+00 0.  1.
          1   -1    0    0  501    0  0.00000000000E+00 -0.00000000000E+00 -0.45343674019E+03  0.45343674019E+03  0.00000000000E+00 0. -1.
         25    2    1    2    0    0 -0.18989076962E+02  0.17443690525E+03 -0.20487793057E+03  0.29734786304E+03  0.12510781854E+03 0.  0.
          5    1    3    3  502    0  0.14431756586E+02  0.47173095115E+02 -0.14406622187E+03  0.15233556769E+03  0.41800000000E+01 0.  1.
         -5    1    3    3    0  502 -0.33420833548E+02  0.12726381014E+03 -0.60811708704E+02  0.14501229535E+03  0.41800000000E+01 0.  1.
        -11    1    1    2    0    0 -0.65197525066E+01  0.97401777820E+01 -0.13128126737E+02  0.17599032576E+02  0.00000000000E+00 0.  1.
         11    1    1    2    0    0  0.25508829469E+02 -0.18417708304E+03 -0.14073132501E+03  0.23318920244E+03  0.00000000000E+00 0. -1.
</event>
<event>
 7    1  0.2440960E-009  0.1477246E+03  0.7561462E-02  0.1203297E+00
         -2   -1    0    0    0  501 -0.00000000000E+00  0.00000000000E+00  0.51024546409E+02  0.51024546409E+02  0.00000000000E+00 0.  1.
          2   -1    0    0  501    0  0.00000000000E+00 -0.00000000000E+00 -0.47797252858E+03  0.47797252858E+03  0.00000000000E+00 0. -1.
         25    2    1    2    0    0 -0.99738572809E+01  0.10504904889E+03 -0.16818146846E+03  0.23466179116E+03  0.12508544837E+03 0.  0.
          5    1    3    3  502    0  0.34529558989E+02 -0.62511113691E+01 -0.11132910582E+02  0.37051058492E+02  0.41800000000E+01 0.  1.
         -5    1    3    3    0  502 -0.44503416270E+02  0.11130016026E+03 -0.15704855788E+03  0.19761073267E+03  0.41800000000E+01 0.  1.
        -11    1    1    2    0    0 -0.41377729921E+02 -0.49642211218E+02 -0.11402275858E+03  0.13106355383E+03  0.00000000000E+00 0.  1.
         11    1    1    2    0    0  0.51351587202E+02 -0.55406837670E+02 -0.14474375514E+03  0.16327173001E+03  0.00000000000E+00 0. -1.
</event>
<event>
 7    1  0.2440960E-009  0.1002716E+03  0.7561462E-02  0.1279726E+00
          2   -1    0    0  501    0  0.00000000000E+00  0.00000000000E+00  0.17628626578E+03  0.17628626578E+03  0.00000000000E+00 0. -1.
         -2   -1    0    0    0  501 -0.00000000000E+00 -0.00000000000E+00 -0.10355333967E+03  0.10355333967E+03  0.00000000000E+00 0.  1.
         25    2    1    2    0    0 -0.77799318182E+02  0.84773781949E+01  0.60195669645E+02  0.15935952584E+03  0.12508932801E+03 0.  0.
          5    1    3    3  502    0 -0.83600935084E+02 -0.42525682581E+01  0.91945588772E+02  0.12441328055E+03  0.41800000000E+01 0. -1.
         -5    1    3    3    0  502  0.58016169014E+01  0.12729946453E+02 -0.31749919127E+02  0.34946245291E+02  0.41800000000E+01 0. -1.
        -11    1    1    2    0    0  0.33237497499E+02  0.28840080089E+02 -0.25649060130E+02  0.50934818593E+02  0.00000000000E+00 0.  1.
         11    1    1    2    0    0  0.44561820683E+02 -0.37317458284E+02  0.38186316595E+02  0.69545261021E+02  0.00000000000E+00 0. -1.
</event>
<event>
 7    1  0.2440960E-009  0.1260428E+03  0.7561462E-02  0.1233448E+00
         -2   -1    0    0    0  501 -0.00000000000E+00  0.00000000000E+00  0.14338159351E+03  0.14338159351E+03  0.00000000000E+00 0.  1.
          2   -1    0    0  501    0  0.00000000000E+00 -0.00000000000E+00 -0.17974614711E+03  0.17974614711E+03  0.00000000000E+00 0. -1.
         25    2    1    2    0    0  0.24517436482E+02  0.66880834604E+02  0.74284611909E+02  0.16198804275E+03  0.12509105363E+03 0.  0.
          5    1    3    3  502    0  0.75683113617E+00  0.10070164081E+03  0.63287649779E+02  0.11901341215E+03  0.41800000000E+01 0. -1.
         -5    1    3    3    0  502  0.23760605346E+02 -0.33820806211E+02  0.10996962130E+02  0.42974630601E+02  0.41800000000E+01 0. -1.
        -11    1    1    2    0    0  0.31218986549E+02 -0.26025418584E+02 -0.15404815278E+02  0.43465571058E+02  0.00000000000E+00 0.  1.
         11    1    1    2    0    0 -0.55736423032E+02 -0.40855416019E+02 -0.95244350237E+02  0.11767412682E+03  0.00000000000E+00 0. -1.
</event>
<event>
 7    1  0.2440960E-009  0.1819086E+03  0.7561462E-02  0.1165969E+00
         -1   -1    0    0    0  501 -0.00000000000E+00  0.00000000000E+00  0.16717055693E+03  0.16717055693E+03  0.00000000000E+00 0.  1.
          1   -1    0    0  501    0  0.00000000000E+00 -0.00000000000E+00 -0.23096929339E+03  0.23096929339E+03  0.00000000000E+00 0. -1.
         25    2    1    2    0    0 -0.12536681514E+03  0.97658432910E+02 -0.70972081925E+02  0.21433317489E+03  0.12509062950E+03 0.  0.
          5    1    3    3  502    0 -0.34803685520E+02  0.87674037057E+02  0.65256295292E+01  0.94647184535E+02  0.41800000000E+01 0. -1.
         -5    1    3    3    0  502 -0.90563129618E+02  0.99843958530E+01 -0.77497711454E+02  0.11968599036E+03  0.41800000000E+01 0. -1.
        -11    1    1    2    0    0  0.50029594816E+01 -0.47545838713E+02  0.21924231249E+02  0.52595706083E+02  0.00000000000E+00 0.  1.
         11    1    1    2    0    0  0.12036385566E+03 -0.50112594197E+02 -0.14750885783E+02  0.13121096935E+03  0.00000000000E+00 0. -1.
</event>
<event>
 7    1  0.2984085E-009  0.6190182E+02  0.7561462E-02  0.1390020E+00
         -2   -1    0    0    0  501 -0.00000000000E+00  0.00000000000E+00  0.34363434318E+02  0.34363434318E+02  0.00000000000E+00 0. -1.
          2   -1    0    0  501    0  0.00000000000E+00 -0.00000000000E+00 -0.40389422412E+03  0.40389422412E+03  0.00000000000E+00 0.  1.
         25    2    1    2    0    0  0.32517603728E+02 -0.18830051149E+02 -0.26390612838E+03  0.29445925223E+03  0.12509133162E+03 0.  0.
          5    1    3    3  502    0  0.45521857898E+02 -0.37865534482E+02 -0.26444352451E+03  0.27102377812E+03  0.41800000000E+01 0.  1.
         -5    1    3    3    0  502 -0.13004254171E+02  0.19035483332E+02  0.53739612783E+00  0.23435474112E+02  0.41800000000E+01 0.  1.
        -11    1    1    2    0    0 -0.20091303649E+02  0.21367470191E+01 -0.11791238452E+03  0.11963091822E+03  0.00000000000E+00 0.  1.
         11    1    1    2    0    0 -0.12426300078E+02  0.16693304130E+02  0.12287723108E+02  0.24167487987E+02  0.00000000000E+00 0. -1.
</event>
<event>
 7    1  0.2440960E-009  0.1284241E+03  0.7561462E-02  0.1229813E+00
          1   -1    0    0  501    0  0.00000000000E+00  0.00000000000E+00  0.21329242530E+02  0.21329242530E+02  0.00000000000E+00 0. -1.
         -1   -1    0    0    0  501 -0.00000000000E+00 -0.00000000000E+00 -0.78016329992E+03  0.78016329992E+03  0.00000000000E+00 0.  1.
         25    2    1    2    0    0  0.20504314708E+02  0.65999614127E+02 -0.43963627790E+03  0.46228152268E+03  0.12509106033E+03 0.  0.
          5    1    3    3  502    0  0.39016408484E+01  0.10202013762E+03 -0.33773122078E+03  0.35285008314E+03  0.41800000000E+01 0.  1.
         -5    1    3    3    0  502  0.16602673859E+02 -0.36020523497E+02 -0.10190505712E+03  0.10943143953E+03  0.41800000000E+01 0.  1.
        -11    1    1    2    0    0  0.11105061897E+02 -0.79602551843E+02 -0.22203059086E+03  0.23613020124E+03  0.00000000000E+00 0. -1.
         11    1    1    2    0    0 -0.31609376604E+02  0.13602937716E+02 -0.97167188629E+02  0.10308081853E+03  0.00000000000E+00 0.  1.
</event>
<event>
 7    1  0.2440960E-009  0.1337708E+03  0.7561462E-02  0.1221965E+00
          2   -1    0    0  501    0  0.00000000000E+00  0.00000000000E+00  0.58845709353E+03  0.58845709353E+03  0.00000000000E+00 0.  1.
         -2   -1    0    0    0  501 -0.00000000000E+00 -0.00000000000E+00 -0.36162947343E+02  0.36162947343E+02  0.00000000000E+00 0. -1.
         25    2    1    2    0    0 -0.30048632581E+02  0.88714699117E+02  0.32788727656E+03  0.36322162375E+03  0.12508662467E+03 0.  0.
          5    1    3    3  502    0  0.35949195789E+02  0.60277478670E+02  0.23740809361E+03  0.24760006951E+03  0.41800000000E+01 0. -1.
         -5    1    3    3    0  502 -0.65997828370E+02  0.28437220447E+02  0.90479182953E+02  0.11562155424E+03  0.41800000000E+01 0. -1.
        -11    1    1    2    0    0 -0.14269546445E+02  0.97415847427E+01  0.75588648142E+02  0.77538133567E+02  0.00000000000E+00 0.  1.
         11    1    1    2    0    0  0.44318179026E+02 -0.98456283860E+02  0.14881822149E+03  0.18386028356E+03  0.00000000000E+00 0. -1.
</event>
<event>
 7    1  0.2440960E-009  0.1234493E+03  0.7561462E-02  0.1237513E+00
          2   -1    0    0  501    0  0.00000000000E+00  0.00000000000E+00  0.10648477788E+04  0.10648477788E+04  0.00000000000E+00 0. -1.
         -2   -1    0    0    0  501 -0.00000000000E+00 -0.00000000000E+00 -0.15889447986E+02  0.15889447986E+02  0.00000000000E+00 0.  1.
         25    2    1    2    0    0  0.30683088199E+01 -0.72439706094E+02  0.66033501383E+03  0.67597595207E+03  0.12507690334E+03 0.  0.
          5    1    3    3  502    0  0.62647867348E+02 -0.44935775661E+02  0.40614015834E+03  0.41341417469E+03  0.41800000000E+01 0.  1.
         -5    1    3    3    0  502 -0.59579558528E+02 -0.27503930433E+02  0.25419485549E+03  0.26256177738E+03  0.41800000000E+01 0.  1.
        -11    1    1    2    0    0  0.35193146627E+02  0.25962960429E+02  0.89175572450E+02  0.99322281516E+02  0.00000000000E+00 0.  1.
         11    1    1    2    0    0 -0.38261455447E+02  0.46476745665E+02  0.29944774452E+03  0.30543899318E+03  0.00000000000E+00 0. -1.
</event>
<event>
 7    1  0.2440960E-009  0.1809464E+03  0.7561462E-02  0.1166890E+00
          2   -1    0    0  501    0  0.00000000000E+00  0.00000000000E+00  0.13597325933E+04  0.13597325933E+04  0.00000000000E+00 0. -1.
         -2   -1    0    0    0  501 -0.00000000000E+00 -0.00000000000E+00 -0.29673636006E+02  0.29673636006E+02  0.00000000000E+00 0.  1.
         25    2    1    2    0    0 -0.36243384549E+02 -0.15471496234E+03  0.50319052757E+03  0.54230766283E+03  0.12508633672E+03 0.  0.
          5    1    3    3  502    0  0.29408044971E+02 -0.12018428939E+03  0.25904541828E+03  0.28710816369E+03  0.41800000000E+01 0. -1.
         -5    1    3    3    0  502 -0.65651429519E+02 -0.34530672949E+02  0.24414510930E+03  0.25519949915E+03  0.41800000000E+01 0. -1.
        -11    1    1    2    0    0 -0.84863584371E+01  0.17026727270E+02  0.21026525524E+02  0.28355643118E+02  0.00000000000E+00 0.  1.
         11    1    1    2    0    0  0.44729742986E+02  0.13768823507E+03  0.80584190416E+03  0.81874292332E+03  0.00000000000E+00 0. -1.
</event>
<event>
 7    1  0.2440960E-009  0.1355263E+03  0.7561462E-02  0.1219479E+00
         -4   -1    0    0    0  501 -0.00000000000E+00  0.00000000000E+00  0.41371173790E+03  0.41371173790E+03  0.00000000000E+00 0.  1.
          4   -1    0    0  501    0  0.00000000000E+00 -0.00000000000E+00 -0.65893084381E+02  0.65893084381E+02  0.00000000000E+00 0. -1.
         25    2    1    2    0    0 -0.44752256439E+02  0.82390283853E+02  0.67520528006E+02  0.17028636186E+03  0.12508996763E+03 0.  0.
          5    1    3    3  502    0 -0.84219503687E+02  0.35581998320E+02  0.57548503900E+02  0.10811246971E+03  0.41800000000E+01 0.  1.
         -5    1    3    3    0  502  0.39467247248E+02  0.46808285532E+02  0.99720241059E+01  0.62173892146E+02  0.41800000000E+01 0.  1.
        -11    1    1    2    0    0  0.44240513222E+02 -0.94753333159E+01  0.48521393842E+02  0.66342524914E+02  0.00000000000E+00 0.  1.
         11    1    1    2    0    0  0.51174321670E+00 -0.72914950537E+02  0.23177673167E+03  0.24297593551E+03  0.00000000000E+00 0. -1.
</event>
<event>
 7    1  0.2440960E-009  0.1483255E+03  0.7561462E-02  0.1202546E+00
         -1   -1    0    0    0  501 -0.00000000000E+00  0.00000000000E+00  0.41314548615E+02  0.41314548615E+02  0.00000000000E+00 0.  1.
          1   -1    0    0  501    0  0.00000000000E+00 -0.00000000000E+00 -0.92818397309E+03  0.92818397309E+03  0.00000000000E+00 0. -1.
         25    2    1    2    0    0 -0.11550986084E+02 -0.14027888276E+03 -0.63396357488E+03  0.66133978219E+03  0.12509557546E+03 0.  0.
          5    1    3    3  502    0 -0.18936416718E+02 -0.84259096265E+02 -0.56730063253E+03  0.57385160386E+03  0.41800000000E+01 0. -1.
         -5    1    3    3    0  502  0.73854306342E+01 -0.56019786494E+02 -0.66662942351E+02  0.87488178329E+02  0.41800000000E+01 0. -1.
        -11    1    1    2    0    0  0.31293798922E+02  0.37359119415E+02 -0.19842805111E+02  0.52618842339E+02  0.00000000000E+00 0.  1.
         11    1    1    2    0    0 -0.19742812839E+02  0.10291976334E+03 -0.23306304448E+03  0.25553989717E+03  0.00000000000E+00 0. -1.
</event>
<event>
 7    1  0.2440960E-009  0.1151784E+03  0.7561462E-02  0.1251270E+00
         -2   -1    0    0    0  501 -0.00000000000E+00  0.00000000000E+00  0.26667165760E+02  0.26667165760E+02  0.00000000000E+00 0.  1.
          2   -1    0    0  501    0  0.00000000000E+00 -0.00000000000E+00 -0.52926135227E+03  0.52926135227E+03  0.00000000000E+00 0. -1.
         25    2    1    2    0    0 -0.47483324473E+02  0.34074235991E+00 -0.27484345235E+03  0.30568655623E+03  0.12510221881E+03 0.  0.
          5    1    3    3  502    0 -0.41665273986E+02 -0.56310026313E+02 -0.10323211142E+03  0.12482449819E+03  0.41800000000E+01 0.  1.
         -5    1    3    3    0  502 -0.58180504878E+01  0.56650768673E+02 -0.17161134093E+03  0.18086205804E+03  0.41800000000E+01 0.  1.
        -11    1    1    2    0    0 -0.87977082235E+00 -0.40322395572E+02 -0.10256058920E+03  0.11020591653E+03  0.00000000000E+00 0. -1.
         11    1    1    2    0    0  0.48363095296E+02  0.39981653212E+02 -0.12519014496E+03  0.14003604527E+03  0.00000000000E+00 0.  1.
</event>
<event>
 7    1  0.2440960E-009  0.1419838E+03  0.7561462E-02  0.1210684E+00
         -2   -1    0    0    0  501 -0.00000000000E+00  0.00000000000E+00  0.35233808309E+02  0.35233808309E+02  0.00000000000E+00 0.  1.
          2   -1    0    0  501    0  0.00000000000E+00 -0.00000000000E+00 -0.66605318069E+03  0.66605318069E+03  0.00000000000E+00 0. -1.
         25    2    1    2    0    0 -0.19133909119E+02 -0.94673678240E+02 -0.45142782209E+03  0.47829258065E+03  0.12508997687E+03 0.  0.
          5    1    3    3  502    0  0.45832589668E+02 -0.72061223384E+02 -0.29947349997E+03  0.31144067778E+03  0.41800000000E+01 0.  1.
         -5    1    3    3    0  502 -0.64966498787E+02 -0.22612454856E+02 -0.15195432212E+03  0.16685190287E+03  0.41800000000E+01 0.  1.
        -11    1    1    2    0    0 -0.32645213234E+02  0.18745385070E+02 -0.74966981954E+02  0.83887709420E+02  0.00000000000E+00 0. -1.
         11    1    1    2    0    0  0.51779122353E+02  0.75928293170E+02 -0.10442456833E+03  0.13910669893E+03  0.00000000000E+00 0.  1.
</event>
<event>
 7    1  0.2440960E-009  0.9695170E+02  0.7561462E-02  0.1286840E+00
          2   -1    0    0  501    0  0.00000000000E+00  0.00000000000E+00  0.18466110159E+04  0.18466110159E+04  0.00000000000E+00 0. -1.
         -2   -1    0    0    0  501 -0.00000000000E+00 -0.00000000000E+00 -0.23198078665E+02  0.23198078665E+02  0.00000000000E+00 0.  1.
         25    2    1    2    0    0 -0.52792887514E+02  0.53989665397E+01  0.16962854052E+04  0.17017198604E+04  0.12510023789E+03 0.  0.
          5    1    3    3  502    0 -0.59194372078E+00 -0.27889387621E+02  0.13238489286E+04  0.13241493973E+04  0.41800000000E+01 0. -1.
         -5    1    3    3    0  502 -0.52200943793E+02  0.33288354161E+02  0.37243647660E+03  0.37757046304E+03  0.41800000000E+01 0. -1.
        -11    1    1    2    0    0 -0.38848291762E+01 -0.38040635645E+02  0.21546877460E+02  0.43891340675E+02  0.00000000000E+00 0.  1.
         11    1    1    2    0    0  0.56677716690E+02  0.32641669105E+02  0.10558065459E+03  0.12419789352E+03  0.00000000000E+00 0. -1.
</event>
<event>
 7    1  0.2440960E-009  0.1083701E+03  0.7561462E-02  0.1263618E+00
          2   -1    0    0  501    0  0.00000000000E+00  0.00000000000E+00  0.16783151653E+03  0.16783151653E+03  0.00000000000E+00 0. -1.
         -2   -1    0    0    0  501 -0.00000000000E+00 -0.00000000000E+00 -0.98961157877E+02  0.98961157877E+02  0.00000000000E+00 0.  1.
         25    2    1    2    0    0 -0.11017275826E+02 -0.24861475308E+02 -0.28286070947E+02  0.13109615024E+03  0.12508647199E+03 0.  0.
          5    1    3    3  502    0 -0.56342832044E+02 -0.50461772573E+02 -0.15278960718E+02  0.77277579249E+02  0.41800000000E+01 0.  1.
         -5    1    3    3    0  502  0.45325556218E+02  0.25600297265E+02 -0.13007110229E+02  0.53818570987E+02  0.41800000000E+01 0.  1.
        -11    1    1    2    0    0  0.42068202925E+02 -0.87898557124E+01  0.70916205678E+02  0.82922273778E+02  0.00000000000E+00 0. -1.
         11    1    1    2    0    0 -0.31050927099E+02  0.33651331020E+02  0.26240223924E+02  0.52774250395E+02  0.00000000000E+00 0.  1.
</event>
<event>
 7    1  0.2440960E-009  0.9229656E+02  0.7561462E-02  0.1297384E+00
         -1   -1    0    0    0  501 -0.00000000000E+00  0.00000000000E+00  0.94581197130E+02  0.94581197130E+02  0.00000000000E+00 0.  1.
          1   -1    0    0  501    0  0.00000000000E+00 -0.00000000000E+00 -0.14470043126E+03  0.14470043126E+03  0.00000000000E+00 0. -1.
         25    2    1    2    0    0 -0.31079217983E+01 -0.42781831793E+02 -0.45974825303E+02  0.14000677518E+03  0.12509303828E+03 0.  0.
          5    1    3    3  502    0 -0.38877198752E+02 -0.52759769914E+01  0.28858087974E+02  0.48882861593E+02  0.41800000000E+01 0. -1.
         -5    1    3    3    0  502  0.35769276953E+02 -0.37505854802E+02 -0.74832913277E+02  0.91123913589E+02  0.41800000000E+01 0. -1.
        -11    1    1    2    0    0 -0.32060382796E+02  0.47862387084E+02  0.14133077801E+02  0.59316272055E+02  0.00000000000E+00 0.  1.
         11    1    1    2    0    0  0.35168304595E+02 -0.50805552909E+01 -0.18277486626E+02  0.39958581150E+02  0.00000000000E+00 0. -1.
</event>
<event>
 7    1  0.2440960E-009  0.1190731E+03  0.7561462E-02  0.1244634E+00
          2   -1    0    0  501    0  0.00000000000E+00  0.00000000000E+00  0.34943520358E+02  0.34943520358E+02  0.00000000000E+00 0. -1.
         -2   -1    0    0    0  501 -0.00000000000E+00 -0.00000000000E+00 -0.70499537686E+03  0.70499537686E+03  0.00000000000E+00 0.  1.
         25    2    1    2    0    0 -0.43284005997E+02 -0.98155261464E+02 -0.27508348059E+03  0.32066529736E+03  0.12508937250E+03 0.  0.
          5    1    3    3  502    0 -0.32270068535E+02 -0.37030508363E+02 -0.12571590696E+02  0.50873698170E+02  0.41800000000E+01 0.  1.
         -5    1    3    3    0  502 -0.11013937463E+02 -0.61124753101E+02 -0.26251188989E+03  0.26979159919E+03  0.41800000000E+01 0.  1.
        -11    1    1    2    0    0  0.61316139117E+02  0.68883219231E+02 -0.18722965875E+03  0.20870915630E+03  0.00000000000E+00 0. -1.
         11    1    1    2    0    0 -0.18032133119E+02  0.29272042233E+02 -0.20773871716E+03  0.21056444356E+03  0.00000000000E+00 0.  1.
</event>
<event>
 7    1  0.2440960E-009  0.2387421E+03  0.7561462E-02  0.1120634E+00
         -4   -1    0    0    0  501 -0.00000000000E+00  0.00000000000E+00  0.93933440956E+03  0.93933440956E+03  0.00000000000E+00 0.  1.
          4   -1    0    0  501    0  0.00000000000E+00 -0.00000000000E+00 -0.61548917962E+02  0.61548917962E+02  0.00000000000E+00 0. -1.
         25    2    1    2    0    0 -0.90696989475E+02 -0.19249675282E+03  0.41030382514E+03  0.47882881646E+03  0.12508742064E+03 0.  0.
          5    1    3    3  502    0 -0.48075448533E+02 -0.19709609972E+03  0.35263650921E+03  0.40685144869E+03  0.41800000000E+01 0.  1.
         -5    1    3    3    0  502 -0.42621540942E+02  0.45993469003E+01  0.57667315935E+02  0.71977367771E+02  0.41800000000E+01 0.  1.
        -11    1    1    2    0    0  0.93678349737E+01  0.12625439390E+03  0.27819997523E+03  0.30565201542E+03  0.00000000000E+00 0.  1.
         11    1    1    2    0    0  0.81329154502E+02  0.66242358912E+02  0.18928169122E+03  0.21640249564E+03  0.00000000000E+00 0. -1.
</event>
<event>
 7    1  0.2440960E-009  0.1115967E+03  0.7561462E-02  0.1257641E+00
         -1   -1    0    0    0  501 -0.00000000000E+00  0.00000000000E+00  0.20625956024E+03  0.20625956024E+03  0.00000000000E+00 0.  1.
          1   -1    0    0  501    0  0.00000000000E+00 -0.00000000000E+00 -0.71336363022E+02  0.71336363022E+02  0.00000000000E+00 0. -1.
         25    2    1    2    0    0 -0.42741723869E+02  0.30762698918E+02  0.63916007398E+02  0.15002038082E+03  0.12509060738E+03 0.  0.
          5    1    3    3  502    0 -0.74968379413E+02 -0.87384498605E+01  0.63726755829E+02  0.98869561677E+02  0.41800000000E+01 0. -1.
         -5    1    3    3    0  502  0.32226655544E+02  0.39501148778E+02  0.18925156941E+00  0.51150819138E+02  0.41800000000E+01 0. -1.
        -11    1    1    2    0    0 -0.11826337133E+01  0.25245733158E+02  0.45345545425E+02  0.51913044171E+02  0.00000000000E+00 0.  1.
         11    1    1    2    0    0  0.43924357583E+02 -0.56008432075E+02  0.25661644396E+02  0.75662498278E+02  0.00000000000E+00 0. -1.
</event>
<event>
 7    1  0.2440960E-009  0.9422572E+02  0.7561462E-02  0.1292930E+00
          1   -1    0    0  501    0  0.00000000000E+00  0.00000000000E+00  0.66280935188E+03  0.66280935188E+03  0.00000000000E+00 0. -1.
         -1   -1    0    0    0  501 -0.00000000000E+00 -0.00000000000E+00 -0.23758516548E+02  0.23758516548E+02  0.00000000000E+00 0.  1.
         25    2    1    2    0    0 -0.39143086395E+02 -0.19209319143E+02  0.22256319619E+03  0.25900388360E+03  0.12508979283E+03 0.  0.
          5    1    3    3  502    0 -0.63646305744E+02 -0.50661119178E+01  0.42798787611E+02  0.76978739570E+02  0.41800000000E+01 0. -1.
         -5    1    3    3    0  502  0.24503219348E+02 -0.14143207225E+02  0.17976440858E+03  0.18202514403E+03  0.41800000000E+01 0. -1.
        -11    1    1    2    0    0 -0.43809405260E+01 -0.29916191057E+02  0.10676611299E+03  0.11096474220E+03  0.00000000000E+00 0.  1.
         11    1    1    2    0    0  0.43524026921E+02  0.49125510200E+02  0.30972152615E+03  0.31659924262E+03  0.00000000000E+00 0. -1.
</event>
<event>
 7    1  0.2440960E-009  0.1312536E+03  0.7561462E-02  0.1225607E+00
         -2   -1    0    0    0  501 -0.00000000000E+00  0.00000000000E+00  0.14174716200E+03  0.14174716200E+03  0.00000000000E+00 0. -1.
          2   -1    0    0  501    0  0.00000000000E+00 -0.00000000000E+00 -0.17997503686E+03  0.17997503686E+03  0.00000000000E+00 0.  1.
         25    2    1    2    0    0  0.62706698075E+02 -0.61794579791E+02 -0.95354543203E+02  0.18025183822E+03  0.12509011230E+03 0.  0.
          5    1    3    3  502    0 -0.12599576863E+02 -0.55920410913E+02 -0.86821519326E+02  0.10412151705E+03  0.41800000000E+01 0.  1.
         -5    1    3    3    0  502  0.75306274937E+02 -0.58741688774E+01 -0.85330238769E+01  0.76130321170E+02  0.41800000000E+01 0.  1.
        -11    1    1    2    0    0 -0.59941959840E+02 -0.71636149472E+01  0.24873899409E+02  0.65292164924E+02  0.00000000000E+00 0.  1.
         11    1    1    2    0    0 -0.27647382346E+01  0.68958194738E+02  0.32252768930E+02  0.76178195716E+02  0.00000000000E+00 0. -1.
</event>
<event>
 7    1  0.2440960E-009  0.1261847E+03  0.7561462E-02  0.1233229E+00
         -1   -1    0    0    0  501 -0.00000000000E+00  0.00000000000E+00  0.73254258361E+03  0.73254258361E+03  0.00000000000E+00 0.  1.
          1   -1    0    0  501    0  0.00000000000E+00 -0.00000000000E+00 -0.26616236435E+02  0.26616236435E+02  0.00000000000E+00 0. -1.
         25    2    1    2    0    0  0.50418113044E+02 -0.53252985512E+02  0.44837846665E+03  0.47124204444E+03  0.12509176033E+03 0.  0.
          5    1    3    3  502    0 -0.39140604970E+02 -0.22289451936E+02  0.92924728300E+02  0.10335029828E+03  0.41800000000E+01 0.  1.
         -5    1    3    3    0  502  0.89558718014E+02 -0.30963533576E+02  0.35545373835E+03  0.36789174616E+03  0.41800000000E+01 0.  1.
        -11    1    1    2    0    0 -0.19439063995E+02 -0.22917814832E+02  0.14755761067E+03  0.15058669235E+03  0.00000000000E+00 0.  1.
         11    1    1    2    0    0 -0.30979049049E+02  0.76170800343E+02  0.10999026985E+03  0.13733008325E+03  0.00000000000E+00 0. -1.
</event>
<event>
 7    1  0.2440960E-009  0.1495053E+03  0.7561462E-02  0.1201082E+00
          1   -1    0    0  501    0  0.00000000000E+00  0.00000000000E+00  0.67007296065E+03  0.67007296065E+03  0.00000000000E+00 0. -1.
         -1   -1    0    0    0  501 -0.00000000000E+00 -0.00000000000E+00 -0.50655079879E+02  0.50655079879E+02  0.00000000000E+00 0.  1.
         25    2    1    2    0    0 -0.71709509170E+02  0.99929400030E+02  0.16069807340E+03  0.23790610738E+03  0.12508919393E+03 0.  0.
          5    1    3    3  502    0 -0.69951884497E+02  0.24621576352E+02  0.17898880041E+02  0.76402424526E+02  0.41800000000E+01 0.  1.
         -5    1    3    3    0  502 -0.17576246728E+01  0.75307823678E+02  0.14279919335E+03  0.16150368285E+03  0.41800000000E+01 0.  1.
        -11    1    1    2    0    0  0.52952502537E+02 -0.57531276513E+01  0.13389012820E+03  0.14409591400E+03  0.00000000000E+00 0.  1.
         11    1    1    2    0    0  0.18757006633E+02 -0.94176272378E+02  0.32482967918E+03  0.33872601916E+03  0.00000000000E+00 0. -1.
</event>
<event>
 7    1  0.2440960E-009  0.1700950E+03  0.7561462E-02  0.1177749E+00
         -1   -1    0    0    0  501 -0.00000000000E+00  0.00000000000E+00  0.22694492222E+03  0.22694492222E+03  0.00000000000E+00 0.  1.
          1   -1    0    0  501    0  0.00000000000E+00 -0.00000000000E+00 -0.16544273760E+03  0.16544273760E+03  0.00000000000E+00 0. -1.
         25    2    1    2    0    0 -0.15563825110E+03  0.20855961537E+02  0.61852640978E+02  0.21007390414E+03  0.12508820755E+03 0.  0.
          5    1    3    3  502    0 -0.17901355032E+02 -0.27722706781E+02 -0.23620908479E+02  0.40797385953E+02  0.41800000000E+01 0. -1.
         -5    1    3    3    0  502 -0.13773689607E+03  0.48578668318E+02  0.85473549457E+02  0.16927651819E+03  0.41800000000E+01 0. -1.
        -11    1    1    2    0    0  0.58749184898E+02 -0.24974879198E+02 -0.42376678023E+02  0.76622412892E+02  0.00000000000E+00 0. -1.
         11    1    1    2    0    0  0.96889066203E+02  0.41189176608E+01  0.42026221662E+02  0.10569134278E+03  0.00000000000E+00 0.  1.
</event>
<event>
 7    1  0.2440960E-009  0.1149458E+03  0.7561462E-02  0.1251676E+00
          2   -1    0    0  501    0  0.00000000000E+00  0.00000000000E+00  0.45850667397E+02  0.45850667397E+02  0.00000000000E+00 0. -1.
         -2   -1    0    0    0  501 -0.00000000000E+00 -0.00000000000E+00 -0.33907414071E+03  0.33907414071E+03  0.00000000000E+00 0.  1.
         25    2    1    2    0    0 -0.36243478943E+02 -0.50617004388E+02 -0.16502582292E+03  0.21623434458E+03  0.12509236047E+03 0.  0.
          5    1    3    3  502    0  0.37384602481E+02 -0.49108679311E+02 -0.49772323771E+02  0.79397906143E+02  0.41800000000E+01 0.  1.
         -5    1    3    3    0  502 -0.73628081424E+02 -0.15083250768E+01 -0.11525349915E+03  0.13683643844E+03  0.41800000000E+01 0.  1.
        -11    1    1    2    0    0  0.22525618302E+02 -0.15110960239E+02 -0.38820576790E+01  0.27401003103E+02  0.00000000000E+00 0. -1.
         11    1    1    2    0    0  0.13717860641E+02  0.65727964627E+02 -0.12431559272E+03  0.14128946042E+03  0.00000000000E+00 0.  1.
</event>
<event>
 7    1  0.2440960E-009  0.6708276E+02  0.7561462E-02  0.1370304E+00
          1   -1    0    0  501    0  0.00000000000E+00  0.00000000000E+00  0.51524575134E+03  0.51524575134E+03  0.00000000000E+00 0. -1.
         -1   -1    0    0    0  501 -0.00000000000E+00 -0.00000000000E+00 -0.26454761338E+02  0.26454761338E+02  0.00000000000E+00 0.  1.
         25    2    1    2    0    0  0.14472036829E+02 -0.33695503591E+02  0.21502272228E+03  0.25144929388E+03  0.12508856656E+03 0.  0.
          5    1    3    3  502    0  0.37819230285E+01 -0.11182695470E+02 -0.15284615664E+02  0.19759744325E+02  0.41800000000E+01 0. -1.
         -5    1    3    3    0  502  0.10690113801E+02 -0.22512808121E+02  0.23030733794E+03  0.23168954955E+03  0.41800000000E+01 0. -1.
        -11    1    1    2    0    0 -0.17699981718E+02 -0.28794182218E+02  0.10038380915E+03  0.10592121328E+03  0.00000000000E+00 0.  1.
         11    1    1    2    0    0  0.32279448888E+01  0.62489685809E+02  0.17338445858E+03  0.18433000552E+03  0.00000000000E+00 0. -1.
</event>
<event>
 7    1  0.2440960E-009  0.9919287E+02  0.7561462E-02  0.1282002E+00
          1   -1    0    0  501    0  0.00000000000E+00  0.00000000000E+00  0.98710999123E+03  0.98710999123E+03  0.00000000000E+00 0. -1.
         -1   -1    0    0    0  501 -0.00000000000E+00 -0.00000000000E+00 -0.14321912161E+02  0.14321912161E+02  0.00000000000E+00 0.  1.
         25    2    1    2    0    0 -0.15264567100E+02  0.44276452757E+01  0.74368908832E+03  0.75430343290E+03  0.12509035831E+03 0.  0.
          5    1    3    3  502    0 -0.19745310139E+02 -0.58492274356E+02  0.41536908393E+03  0.41995258270E+03  0.41800000000E+01 0. -1.
         -5    1    3    3    0  502  0.44807430388E+01  0.62919919631E+02  0.32832000439E+03  0.33435085020E+03  0.41800000000E+01 0. -1.
        -11    1    1    2    0    0 -0.28886895940E+02  0.29451890914E+00  0.17391634304E+03  0.17629927361E+03  0.00000000000E+00 0.  1.
         11    1    1    2    0    0  0.44151463040E+02 -0.47221641848E+01  0.55182647701E+02  0.70829196879E+02  0.00000000000E+00 0. -1.
</event>
<event>
 7    1  0.2440960E-009  0.1142601E+03  0.7561462E-02  0.1252878E+00
         -2   -1    0    0    0  501 -0.00000000000E+00  0.00000000000E+00  0.12837315046E+03  0.12837315046E+03  0.00000000000E+00 0.  1.
          2   -1    0    0  501    0  0.00000000000E+00 -0.00000000000E+00 -0.21289780698E+03  0.21289780698E+03  0.00000000000E+00 0. -1.
         25    2    1    2    0    0  0.14998291778E+02  0.50500634850E+02 -0.16284409504E+03  0.21199218060E+03  0.12508885829E+03 0.  0.
          5    1    3    3  502    0  0.27354461448E+02  0.84748754686E+02 -0.14731193534E+03  0.17218854978E+03  0.41800000000E+01 0. -1.
         -5    1    3    3    0  502 -0.12356169671E+02 -0.34248119835E+02 -0.15532159701E+02  0.39803630817E+02  0.41800000000E+01 0. -1.
        -11    1    1    2    0    0 -0.15406296983E+02  0.23836408536E+02  0.24643210676E+02  0.37587447253E+02  0.00000000000E+00 0.  1.
         11    1    1    2    0    0  0.40800520497E+00 -0.74337043386E+02  0.53676227839E+02  0.91691329594E+02  0.00000000000E+00 0. -1.
</event>
<event>
 7    1  0.2440960E-009  0.1496830E+03  0.7561462E-02  0.1200863E+00
         -1   -1    0    0    0  501 -0.00000000000E+00  0.00000000000E+00  0.67505893505E+03  0.67505893505E+03  0.00000000000E+00 0. -1.
          1   -1    0    0  501    0  0.00000000000E+00 -0.00000000000E+00 -0.39937439840E+02  0.39937439840E+02  0.00000000000E+00 0.  1.
         25    2    1    2    0    0 -0.91097111684E+02 -0.83100518123E+02  0.35343172835E+03  0.39467177999E+03  0.12508975757E+03 0.  0.
          5    1    3    3  502    0 -0.75792188769E+02 -0.96175700653E+01  0.78392359430E+02  0.10954354362E+03  0.41800000000E+01 0. -1.
         -5    1    3    3    0  502 -0.15304922915E+02 -0.73482948058E+02  0.27503936892E+03  0.28512823637E+03  0.41800000000E+01 0. -1.
        -11    1    1    2    0    0  0.10657036524E+03  0.71426753735E+02  0.26623834828E+03  0.29553660009E+03  0.00000000000E+00 0. -1.
         11    1    1    2    0    0 -0.15473253553E+02  0.11673764388E+02  0.15451418577E+02  0.24787994807E+02  0.00000000000E+00 0.  1.
</event>
<event>
 7    1  0.2440960E-009  0.1006859E+03  0.7561462E-02  0.1278860E+00
         -2   -1    0    0    0  501 -0.00000000000E+00  0.00000000000E+00  0.40582807411E+02  0.40582807411E+02  0.00000000000E+00 0. -1.
          2   -1    0    0  501    0  0.00000000000E+00 -0.00000000000E+00 -0.46680674250E+03  0.46680674250E+03  0.00000000000E+00 0.  1.
         25    2    1    2    0    0 -0.52086171764E+02  0.20133002311E+02 -0.35031542739E+03  0.37614777587E+03  0.12509174056E+03 0.  0.
          5    1    3    3  502    0 -0.33497278141E+02 -0.36406199786E+02 -0.51887109112E+02  0.71813811469E+02  0.41800000000E+01 0. -1.
         -5    1    3    3    0  502 -0.18588893623E+02  0.56539202097E+02 -0.29842831828E+03  0.30433396440E+03  0.41800000000E+01 0. -1.
        -11    1    1    2    0    0  0.65104489779E+02 -0.33656048039E+02 -0.83404087597E+02  0.11102957258E+03  0.00000000000E+00 0.  1.
         11    1    1    2    0    0 -0.13018318016E+02  0.13523045728E+02  0.74955798995E+01  0.20212201457E+02  0.00000000000E+00 0. -1.
</event>
<event>
 7    1  0.2440960E-009  0.1056765E+03  0.7561462E-02  0.1268792E+00
         -1   -1    0    0    0  501 -0.00000000000E+00  0.00000000000E+00  0.11405607722E+03  0.11405607722E+03  0.00000000000E+00 0.  1.
          1   -1    0    0  501    0  0.00000000000E+00 -0.00000000000E+00 -0.16908176874E+03  0.16908176874E+03  0.00000000000E+00 0. -1.
         25    2    1    2    0    0 -0.14072799785E+02  0.86736395210E+02 -0.40059541361E+02  0.15802968190E+03  0.12508943824E+03 0.  0.
          5    1    3    3  502    0 -0.10472228447E+02  0.34857950274E+02 -0.82828142937E+02  0.90568857387E+02  0.41800000000E+01 0.  1.
         -5    1    3    3    0  502 -0.36005713378E+01  0.51878444937E+02  0.42768601575E+02  0.67460824511E+02  0.41800000000E+01 0.  1.
        -11    1    1    2    0    0  0.11911659063E+02  0.15910875328E+02 -0.10169230347E+02  0.22326146581E+02  0.00000000000E+00 0. -1.
         11    1    1    2    0    0  0.21611407224E+01 -0.10264727054E+03 -0.47969198055E+01  0.10278201748E+03  0.00000000000E+00 0.  1.
</event>
<event>
 7    1  0.2440960E-009  0.2597414E+03  0.7561462E-02  0.1107299E+00
          2   -1    0    0  501    0  0.00000000000E+00  0.00000000000E+00  0.45050845424E+03  0.45050845424E+03  0.00000000000E+00 0.  1.
         -2   -1    0    0    0  501 -0.00000000000E+00 -0.00000000000E+00 -0.16790440835E+03  0.16790440835E+03  0.00000000000E+00 0. -1.
         25    2    1    2    0    0 -0.14462781953E+03  0.20430742666E+03  0.10813443675E+03  0.29999832073E+03  0.12508878950E+03 0.  0.
          5    1    3    3  502    0 -0.72474264581E+02  0.13624666178E+03  0.16149661655E+01  0.15438831688E+03  0.41800000000E+01 0. -1.
         -5    1    3    3    0  502 -0.72153554949E+02  0.68060764880E+02  0.10651947058E+03  0.14561000385E+03  0.41800000000E+01 0. -1.
        -11    1    1    2    0    0  0.13653393898E+03 -0.21359660788E+03  0.16178624045E+03  0.30073213163E+03  0.00000000000E+00 0. -1.
         11    1    1    2    0    0  0.80938805471E+01  0.92891812213E+01  0.12683368692E+02  0.17682410228E+02  0.00000000000E+00 0.  1.
</event>
<event>
 7    1  0.2440960E-009  0.8313970E+02  0.7561462E-02  0.1320370E+00
         -1   -1    0    0    0  501 -0.00000000000E+00  0.00000000000E+00  0.17243214297E+03  0.17243214297E+03  0.00000000000E+00 0.  1.
          1   -1    0    0  501    0  0.00000000000E+00 -0.00000000000E+00 -0.10135865769E+03  0.10135865769E+03  0.00000000000E+00 0. -1.
         25    2    1    2    0    0 -0.30099705311E+02  0.25197053695E+02  0.10554659445E+03  0.16829848477E+03  0.12507362872E+03 0.  0.
          5    1    3    3  502    0 -0.94077351337E+01  0.52126455983E+02 -0.42409667940E+01  0.53302261613E+02  0.41800000000E+01 0. -1.
         -5    1    3    3    0  502 -0.20691970177E+02 -0.26929402288E+02  0.10978756124E+03  0.11499622316E+03  0.41800000000E+01 0. -1.
        -11    1    1    2    0    0  0.43610291593E+02  0.68548986709E+01 -0.50601606460E+02  0.67151840965E+02  0.00000000000E+00 0. -1.
         11    1    1    2    0    0 -0.13510586282E+02 -0.32051952366E+02  0.16128497297E+02  0.38340474922E+02  0.00000000000E+00 0.  1.
</event>
<event>
 7    1  0.2440960E-009  0.9214369E+02  0.7561462E-02  0.1297742E+00
         -2   -1    0    0    0  501 -0.00000000000E+00  0.00000000000E+00  0.17538958814E+03  0.17538958814E+03  0.00000000000E+00 0.  1.
          2   -1    0    0  501    0  0.00000000000E+00 -0.00000000000E+00 -0.15857047841E+03  0.15857047841E+03  0.00000000000E+00 0. -1.
         25    2    1    2    0    0 -0.38666551367E+02 -0.24543000564E+02 -0.10852509425E+03  0.17182222340E+03  0.12509084419E+03 0.  0.
          5    1    3    3  502    0  0.12133867588E+01 -0.56061258500E+02 -0.50450485698E+01  0.56455840505E+02  0.41800000000E+01 0.  1.
         -5    1    3    3    0  502 -0.39879938126E+02  0.31518257936E+02 -0.10348004568E+03  0.11536638289E+03  0.41800000000E+01 0.  1.
        -11    1    1    2    0    0 -0.14710352252E+02 -0.56169777976E+01  0.90008275073E+02  0.91375239997E+02  0.00000000000E+00 0.  1.
         11    1    1    2    0    0  0.53376903619E+02  0.30159978362E+02  0.35335928901E+02  0.70762603160E+02  0.00000000000E+00 0. -1.
</event>
<event>
 7    1  0.2440960E-009  0.1313717E+03  0.7561462E-02  0.1225434E+00
         -2   -1    0    0    0  501 -0.00000000000E+00  0.00000000000E+00  0.16323079842E+03  0.16323079842E+03  0.00000000000E+00 0. -1.
          2   -1    0    0  501    0  0.00000000000E+00 -0.00000000000E+00 -0.12530136713E+03  0.12530136713E+03  0.00000000000E+00 0.  1.
         25    2    1    2    0    0  0.62661530221E+02 -0.51747446603E+02 -0.23021113536E+02  0.15093922996E+03  0.12509362043E+03 0.  0.
          5    1    3    3  502    0 -0.28300146081E+02  0.15121527967E+02 -0.19769494665E+02  0.37919179785E+02  0.41800000000E+01 0.  1.
         -5    1    3    3    0  502  0.90961676302E+02 -0.66868974570E+02 -0.32516188704E+01  0.11302005017E+03  0.41800000000E+01 0.  1.
        -11    1    1    2    0    0 -0.58900009958E+02 -0.63064656995E+01  0.51822571730E+02  0.78705537438E+02  0.00000000000E+00 0.  1.
         11    1    1    2    0    0 -0.37615202630E+01  0.58053912302E+02  0.91279731019E+01  0.58887398153E+02  0.00000000000E+00 0. -1.
</event>
<event>
 7    1  0.2440960E-009  0.1273214E+03  0.7561462E-02  0.1231485E+00
          1   -1    0    0  501    0  0.00000000000E+00  0.00000000000E+00  0.36980907548E+02  0.36980907548E+02  0.00000000000E+00 0. -1.
         -1   -1    0    0    0  501 -0.00000000000E+00 -0.00000000000E+00 -0.71027291705E+03  0.71027291705E+03  0.00000000000E+00 0.  1.
         25    2    1    2    0    0  0.74411642766E+02 -0.77139255576E+02 -0.49681692791E+03  0.52341368112E+03  0.12508902587E+03 0.  0.
          5    1    3    3  502    0  0.69753204455E+02 -0.42118893716E+02 -0.12112973865E+03  0.14604587199E+03  0.41800000000E+01 0. -1.
         -5    1    3    3    0  502  0.46584383113E+01 -0.35020361860E+02 -0.37568718926E+03  0.37736780913E+03  0.41800000000E+01 0. -1.
        -11    1    1    2    0    0 -0.71789361398E+02  0.12602447801E+02 -0.87210412959E+02  0.11365821672E+03  0.00000000000E+00 0.  1.
         11    1    1    2    0    0 -0.26222813685E+01  0.64536807775E+02 -0.89264668624E+02  0.11018192675E+03  0.00000000000E+00 0. -1.
</event>
<event>
 7    1  0.2440960E-009  0.1192715E+03  0.7561462E-02  0.1244304E+00
         -1   -1    0    0    0  501 -0.00000000000E+00  0.00000000000E+00  0.37563984197E+03  0.37563984197E+03  0.00000000000E+00 0.  1.
          1   -1    0    0  501    0  0.00000000000E+00 -0.00000000000E+00 -0.45766244385E+02  0.45766244385E+02  0.00000000000E+00 0. -1.
         25    2    1    2    0    0 -0.21695216770E+01  0.71716679797E+02  0.20698563096E+03  0.25226332971E+03  0.12508296089E+03 0.  0.
          5    1    3    3  502    0 -0.39670304083E+02  0.91754682606E+02  0.12799262462E+03  0.16245688402E+03  0.41800000000E+01 0. -1.
         -5    1    3    3    0  502  0.37500782406E+02 -0.20038002809E+02  0.78993006336E+02  0.89806445691E+02  0.41800000000E+01 0. -1.
        -11    1    1    2    0    0  0.32773096961E+02 -0.34495635394E+02  0.10909603952E+03  0.11902088298E+03  0.00000000000E+00 0.  1.
         11    1    1    2    0    0 -0.30603575284E+02 -0.37221044403E+02  0.13791927102E+02  0.50121873666E+02  0.00000000000E+00 0. -1.
</event>
<event>
 7    1  0.2440960E-009  0.1364686E+03  0.7561462E-02  0.1218161E+00
         -2   -1    0    0    0  501 -0.00000000000E+00  0.00000000000E+00  0.35985657313E+02  0.35985657313E+02  0.00000000000E+00 0.  1.
          2   -1    0    0  501    0  0.00000000000E+00 -0.00000000000E+00 -0.62641971753E+03  0.62641971753E+03  0.00000000000E+00 0. -1.
         25    2    1    2    0    0 -0.23712101702E+02  0.58030982748E+02 -0.43741496642E+03  0.45924931104E+03  0.12509283801E+03 0.  0.
          5    1    3    3  502    0  0.35544049869E+02  0.70604644148E+02 -0.25328504563E+03  0.26536612820E+03  0.41800000000E+01 0. -1.
         -5    1    3    3    0  502 -0.59256151571E+02 -0.12573661400E+02 -0.18412992079E+03  0.19388318284E+03  0.41800000000E+01 0. -1.
        -11    1    1    2    0    0 -0.52008801704E+01  0.35131527349E+02 -0.49459857666E+02  0.60889661591E+02  0.00000000000E+00 0.  1.
         11    1    1    2    0    0  0.28912981872E+02 -0.93162510097E+02 -0.10355923613E+03  0.14226640220E+03  0.00000000000E+00 0. -1.
</event>
<event>
 7    1  0.2440960E-009  0.8218162E+02  0.7561462E-02  0.1322972E+00
          3   -1    0    0  501    0  0.00000000000E+00  0.00000000000E+00  0.26560537101E+03  0.26560537101E+03  0.00000000000E+00 0. -1.
         -3   -1    0    0    0  501 -0.00000000000E+00 -0.00000000000E+00 -0.41656281198E+02  0.41656281198E+02  0.00000000000E+00 0.  1.
         25    2    1    2    0    0 -0.47918859126E+02  0.13526211326E+02  0.20061356523E+03  0.24160970266E+03  0.12510104082E+03 0.  0.
          5    1    3    3  502    0  0.13683936482E+02 -0.27235034606E+02  0.14714278068E+03  0.15032454069E+03  0.41800000000E+01 0. -1.
         -5    1    3    3    0  502 -0.61602795607E+02  0.40761245932E+02  0.53470784552E+02  0.91285161977E+02  0.41800000000E+01 0. -1.
        -11    1    1    2    0    0  0.66477164754E+01  0.10074687404E+02 -0.12387761907E+01  0.12133673272E+02  0.00000000000E+00 0.  1.
         11    1    1    2    0    0  0.41271142650E+02 -0.23600898731E+02  0.24574300776E+02  0.53518276273E+02  0.00000000000E+00 0. -1.
</event>
<event>
 7    1  0.2440960E-009  0.2313442E+03  0.7561462E-02  0.1125697E+00
         -2   -1    0    0    0  501 -0.00000000000E+00  0.00000000000E+00  0.30563530609E+02  0.30563530609E+02  0.00000000000E+00 0.  1.
          2   -1    0    0  501    0  0.00000000000E+00 -0.00000000000E+00 -0.18819030854E+04  0.18819030854E+04  0.00000000000E+00 0. -1.
         25    2    1    2    0    0  0.19062970715E+03  0.85898986752E+02 -0.11096783359E+04  0.11361125824E+04  0.12508984526E+03 0.  0.
          5    1    3    3  502    0  0.83050341364E+02 -0.23357224992E+02 -0.50187363248E+03  0.50925193621E+03  0.41800000000E+01 0.  1.
         -5    1    3    3    0  502  0.10757936578E+03  0.10925621174E+03 -0.60780470345E+03  0.62686064614E+03  0.41800000000E+01 0.  1.
        -11    1    1    2    0    0 -0.52836102108E+02  0.11642716233E+02 -0.27055734763E+03  0.27591390846E+03  0.00000000000E+00 0. -1.
         11    1    1    2    0    0 -0.13779360504E+03 -0.97541702985E+02 -0.47110387128E+03  0.50044012523E+03  0.00000000000E+00 0.  1.
</event>
<event>
 7    1  0.2440960E-009  0.1057670E+03  0.7561462E-02  0.1268616E+00
         -2   -1    0    0    0  501 -0.00000000000E+00  0.00000000000E+00  0.56800029356E+02  0.56800029356E+02  0.00000000000E+00 0.  1.
          2   -1    0    0  501    0  0.00000000000E+00 -0.00000000000E+00 -0.34892655090E+03  0.34892655090E+03  0.00000000000E+00 0. -1.
         25    2    1    2    0    0  0.85638992809E+02  0.69802037394E+01 -0.12391619642E+03  0.19592313694E+03  0.12509153257E+03 0.  0.
          5    1    3    3  502    0  0.78194828077E+02  0.11801171541E+02 -0.80008492914E+01  0.79593873993E+02  0.41800000000E+01 0.  1.
         -5    1    3    3    0  502  0.74441647314E+01 -0.48209678019E+01 -0.11591534713E+03  0.11632926295E+03  0.41800000000E+01 0.  1.
        -11    1    1    2    0    0 -0.87075503460E+02  0.24947375974E+02 -0.10286431261E+03  0.13706050372E+03  0.00000000000E+00 0.  1.
         11    1    1    2    0    0  0.14365106510E+01 -0.31927579713E+02 -0.65346012512E+02  0.72742939592E+02  0.00000000000E+00 0. -1.
</event>
<event>
 7    1  0.2440960E-009  0.7736454E+02  0.7561462E-02  0.1336701E+00
          1   -1    0    0  501    0  0.00000000000E+00  0.00000000000E+00  0.11632777460E+03  0.11632777460E+03  0.00000000000E+00 0. -1.
         -1   -1    0    0    0  501 -0.00000000000E+00 -0.00000000000E+00 -0.11173945986E+03  0.11173945986E+03  0.00000000000E+00 0.  1.
         25    2    1    2    0    0 -0.33187526604E+02 -0.28950064424E+01  0.14532493763E+02  0.13027455929E+03  0.12510185625E+03 0.  0.
          5    1    3    3  502    0 -0.54685225171E+02  0.15790834719E+02 -0.39253580456E+02  0.69268609714E+02  0.41800000000E+01 0.  1.
         -5    1    3    3    0  502  0.21497698566E+02 -0.18685841162E+02  0.53786074218E+02  0.61005949574E+02  0.41800000000E+01 0.  1.
        -11    1    1    2    0    0 -0.14733349943E+02 -0.11655828422E+02 -0.36540739668E+02  0.41087170652E+02  0.00000000000E+00 0.  1.
         11    1    1    2    0    0  0.47920876548E+02  0.14550834865E+02  0.26596560650E+02  0.56705504519E+02  0.00000000000E+00 0. -1.
</event>
<event>
 7    1  0.2440960E-009  0.7885372E+02  0.7561462E-02  0.1332336E+00
         -4   -1    0    0    0  501 -0.00000000000E+00  0.00000000000E+00  0.10040637453E+03  0.10040637453E+03  0.00000000000E+00 0.  1.
          4   -1    0    0  501    0  0.00000000000E+00 -0.00000000000E+00 -0.12723919156E+03  0.12723919156E+03  0.00000000000E+00 0. -1.
         25    2    1    2    0    0 -0.16339987142E+02  0.43277590998E+00  0.65009023362E+01  0.12632534542E+03  0.12509455899E+03 0.  0.
          5    1    3    3  502    0 -0.12598784904E+02  0.36709264101E+02 -0.47216892009E+02  0.61263420920E+02  0.41800000000E+01 0.  1.
         -5    1    3    3    0  502 -0.37412022380E+01 -0.36276488191E+02  0.53717794345E+02  0.65061924495E+02  0.41800000000E+01 0.  1.
        -11    1    1    2    0    0  0.34594904778E+02  0.30451753893E+02  0.77953925760E+01  0.46742752349E+02  0.00000000000E+00 0.  1.
         11    1    1    2    0    0 -0.18254917636E+02 -0.30884529803E+02 -0.41129111946E+02  0.54577468322E+02  0.00000000000E+00 0. -1.
</event>
<event>
 7    1  0.2440960E-009  0.1119401E+03  0.7561462E-02  0.1257019E+00
          1   -1    0    0  501    0  0.00000000000E+00  0.00000000000E+00  0.39797319082E+03  0.39797319082E+03  0.00000000000E+00 0. -1.
         -1   -1    0    0    0  501 -0.00000000000E+00 -0.00000000000E+00 -0.46832131903E+02  0.46832131903E+02  0.00000000000E+00 0.  1.
         25    2    1    2    0    0  0.41032334719E+02 -0.56667107452E+02  0.12107889167E+03  0.18762486939E+03  0.12509268581E+03 0.  0.
          5    1    3    3  502    0  0.39830979645E+02  0.12706028002E+02 -0.63274676935E+01  0.42490697035E+02  0.41800000000E+01 0.  1.
         -5    1    3    3    0  502  0.12013550738E+01 -0.69373135454E+02  0.12740635937E+03  0.14513417235E+03  0.41800000000E+01 0.  1.
        -11    1    1    2    0    0 -0.63487224456E+02  0.62567677925E+02  0.15725209924E+03  0.18075830467E+03  0.00000000000E+00 0.  1.
         11    1    1    2    0    0  0.22454889737E+02 -0.59005704726E+01  0.72810067994E+02  0.76422148663E+02  0.00000000000E+00 0. -1.
</event>
<event>
 7    1  0.2440960E-009  0.9915366E+02  0.7561462E-02  0.1282086E+00
          2   -1    0    0  501    0  0.00000000000E+00  0.00000000000E+00  0.64599146558E+03  0.64599146558E+03  0.00000000000E+00 0. -1.
         -2   -1    0    0    0  501 -0.00000000000E+00 -0.00000000000E+00 -0.21084785600E+02  0.21084785600E+02  0.00000000000E+00 0.  1.
         25    2    1    2    0    0  0.25703215273E+02 -0.11896739316E+02  0.27321088014E+03  0.30181725486E+03  0.12508909873E+03 0.  0.
          5    1    3    3  502    0  0.85560461614E+01 -0.54192081094E+02  0.51313615969E+02  0.75236607864E+02  0.41800000000E+01 0. -1.
         -5    1    3    3    0  502  0.17147169111E+02  0.42295341777E+02  0.22189726417E+03  0.22658064699E+03  0.41800000000E+01 0. -1.
        -11    1    1    2    0    0 -0.56192930981E+02 -0.13478974797E+02  0.23519194843E+03  0.24218707822E+03  0.00000000000E+00 0.  1.
         11    1    1    2    0    0  0.30489715709E+02  0.25375714113E+02  0.11650385142E+03  0.12307191810E+03  0.00000000000E+00 0. -1.
</event>
<event>
 7    1  0.2440960E-009  0.1262652E+03  0.7561462E-02  0.1233105E+00
          1   -1    0    0  501    0  0.00000000000E+00  0.00000000000E+00  0.24963752896E+02  0.24963752896E+02  0.00000000000E+00 0. -1.
         -1   -1    0    0    0  501 -0.00000000000E+00 -0.00000000000E+00 -0.71702498949E+03  0.71702498949E+03  0.00000000000E+00 0.  1.
         25    2    1    2    0    0 -0.64887694993E+02 -0.43106242773E+02 -0.35561064608E+03  0.38493586814E+03  0.12509248517E+03 0.  0.
          5    1    3    3  502    0 -0.96576185745E+02 -0.37771545111E+02 -0.32172103593E+03  0.33804666340E+03  0.41800000000E+01 0.  1.
         -5    1    3    3    0  502  0.31688490752E+02 -0.53346976618E+01 -0.33889610150E+02  0.46889204743E+02  0.41800000000E+01 0.  1.
        -11    1    1    2    0    0  0.60251342319E+02  0.68096237759E+02 -0.22369024598E+03  0.24146355418E+03  0.00000000000E+00 0. -1.
         11    1    1    2    0    0  0.46363526741E+01 -0.24989994987E+02 -0.11276034453E+03  0.11558932007E+03  0.00000000000E+00 0.  1.
</event>
<event>
 7    1  0.2440960E-009  0.2050074E+03  0.7561462E-02  0.1145582E+00
          2   -1    0    0  501    0  0.00000000000E+00  0.00000000000E+00  0.11870596523E+03  0.11870596523E+03  0.00000000000E+00 0. -1.
         -2   -1    0    0    0  501 -0.00000000000E+00 -0.00000000000E+00 -0.38284816241E+03  0.38284816241E+03  0.00000000000E+00 0.  1.
         25    2    1    2    0    0 -0.11534646838E+03 -0.14528788345E+03 -0.12501305566E+03  0.25629844888E+03  0.12508898420E+03 0.  0.
          5    1    3    3  502    0  0.44144528850E+00  0.18056770415E+02 -0.28479260857E+02  0.33982091324E+02  0.41800000000E+01 0.  1.
         -5    1    3    3    0  502 -0.11578791367E+03 -0.16334465386E+03 -0.96533794805E+02  0.22231635755E+03  0.41800000000E+01 0.  1.
        -11    1    1    2    0    0  0.33349221871E+02  0.79068913656E+02 -0.10248938678E+03  0.13367175509E+03  0.00000000000E+00 0. -1.
         11    1    1    2    0    0  0.81997246506E+02  0.66218969789E+02 -0.36639754732E+02  0.11158392367E+03  0.00000000000E+00 0.  1.
</event>
<event>
 7    1  0.2440960E-009  0.2371559E+03  0.7561462E-02  0.1121702E+00
         -2   -1    0    0    0  501 -0.00000000000E+00  0.00000000000E+00  0.14804589597E+03  0.14804589597E+03  0.00000000000E+00 0.  1.
          2   -1    0    0  501    0  0.00000000000E+00 -0.00000000000E+00 -0.48923638598E+03  0.48923638598E+03  0.00000000000E+00 0. -1.
         25    2    1    2    0    0  0.23548391076E+03  0.17900119861E+00 -0.92183112837E+02  0.28213014885E+03  0.12508793039E+03 0.  0.
          5    1    3    3  502    0  0.15563511113E+03  0.12987012415E+02 -0.11947293732E+03  0.19667792317E+03  0.41800000000E+01 0.  1.
         -5    1    3    3    0  502  0.79848799630E+02 -0.12808011217E+02  0.27289824486E+02  0.85452225683E+02  0.41800000000E+01 0.  1.
        -11    1    1    2    0    0 -0.13800648993E+03  0.13519298102E+02 -0.81446352038E+02  0.16081688638E+03  0.00000000000E+00 0.  1.
         11    1    1    2    0    0 -0.97477420834E+02 -0.13698299301E+02 -0.16756102513E+03  0.19433524673E+03  0.00000000000E+00 0. -1.
</event>
<event>
 7    1  0.2440960E-009  0.9602660E+02  0.7561462E-02  0.1288881E+00
          3   -1    0    0  501    0  0.00000000000E+00  0.00000000000E+00  0.50367055604E+03  0.50367055604E+03  0.00000000000E+00 0. -1.
         -3   -1    0    0    0  501 -0.00000000000E+00 -0.00000000000E+00 -0.25083584508E+02  0.25083584508E+02  0.00000000000E+00 0.  1.
         25    2    1    2    0    0  0.13797670132E+02  0.26804959935E+02  0.27188505638E+03  0.30079427807E+03  0.12508729856E+03 0.  0.
          5    1    3    3  502    0 -0.28703305026E+02  0.57402639330E+02  0.20994265867E+03  0.21957307451E+03  0.41800000000E+01 0.  1.
         -5    1    3    3    0  502  0.42500975158E+02 -0.30597679396E+02  0.61942397713E+02  0.81221203562E+02  0.41800000000E+01 0.  1.
        -11    1    1    2    0    0  0.11753565830E+02  0.19238229310E+02  0.10601973937E+02  0.24913001185E+02  0.00000000000E+00 0.  1.
         11    1    1    2    0    0 -0.25551235962E+02 -0.46043189245E+02  0.19609994121E+03  0.20304686129E+03  0.00000000000E+00 0. -1.
</event>
<event>
 7    1  0.2440960E-009  0.8160022E+02  0.7561462E-02  0.1324571E+00
          1   -1    0    0  501    0  0.00000000000E+00  0.00000000000E+00  0.11218110111E+02  0.11218110111E+02  0.00000000000E+00 0. -1.
         -1   -1    0    0    0  501 -0.00000000000E+00 -0.00000000000E+00 -0.13253675926E+04  0.13253675926E+04  0.00000000000E+00 0.  1.
         25    2    1    2    0    0 -0.28017122048E+02 -0.49279615045E+02 -0.78405411143E+03  0.79599088991E+03  0.12508879876E+03 0.  0.
          5    1    3    3  502    0 -0.11564238786E+02 -0.22265184766E+02 -0.23072358211E+02  0.34340590921E+02  0.41800000000E+01 0.  1.
         -5    1    3    3    0  502 -0.16452883262E+02 -0.27014430278E+02 -0.76098175322E+03  0.76165029898E+03  0.41800000000E+01 0.  1.
        -11    1    1    2    0    0  0.21765588335E+02  0.75670635694E+02 -0.40710865093E+03  0.41465315579E+03  0.00000000000E+00 0. -1.
         11    1    1    2    0    0  0.62515337131E+01 -0.26391020650E+02 -0.12298672012E+03  0.12594165701E+03  0.00000000000E+00 0.  1.
</event>
<event>
 7    1  0.2440960E-009  0.1607680E+03  0.7561462E-02  0.1187832E+00
          1   -1    0    0  501    0  0.00000000000E+00  0.00000000000E+00  0.62521626897E+03  0.62521626897E+03  0.00000000000E+00 0. -1.
         -1   -1    0    0    0  501 -0.00000000000E+00 -0.00000000000E+00 -0.54965282535E+02  0.54965282535E+02  0.00000000000E+00 0.  1.
         25    2    1    2    0    0 -0.20351563048E+02 -0.14598206447E+03  0.35621159210E+03  0.40529011144E+03  0.12509367218E+03 0.  0.
          5    1    3    3  502    0  0.15070032964E+02 -0.13210092599E+03  0.17357258136E+03  0.21868395904E+03  0.41800000000E+01 0.  1.
         -5    1    3    3    0  502 -0.35421596012E+02 -0.13881138477E+02  0.18263901074E+03  0.18660615240E+03  0.41800000000E+01 0.  1.
        -11    1    1    2    0    0  0.27688891233E+02  0.10410796972E+03  0.79751954886E+02  0.13403551158E+03  0.00000000000E+00 0.  1.
         11    1    1    2    0    0 -0.73373281846E+01  0.41874094747E+02  0.13428743945E+03  0.14085592849E+03  0.00000000000E+00 0. -1.
</event>
<event>
 7    1  0.2440960E-009  0.1069145E+03  0.7561462E-02  0.1266393E+00
          2   -1    0    0  501    0  0.00000000000E+00  0.00000000000E+00  0.42206804050E+03  0.42206804050E+03  0.00000000000E+00 0. -1.
         -2   -1    0    0    0  501 -0.00000000000E+00 -0.00000000000E+00 -0.60169326189E+02  0.60169326189E+02  0.00000000000E+00 0.  1.
         25    2    1    2    0    0  0.50889436203E+02 -0.32790249683E+02  0.43998896630E+02  0.14576807362E+03  0.12508994041E+03 0.  0.
          5    1    3    3  502    0  0.19613064239E+02 -0.66513978815E+02  0.64904382555E+02  0.95072777078E+02  0.41800000000E+01 0. -1.
         -5    1    3    3    0  502  0.31276371965E+02  0.33723729132E+02 -0.20905485924E+02  0.50695296543E+02  0.41800000000E+01 0. -1.
        -11    1    1    2    0    0  0.13232344812E+02 -0.13642407418E+02  0.17578795141E+02  0.25888689963E+02  0.00000000000E+00 0.  1.
         11    1    1    2    0    0 -0.64121781015E+02  0.46432657101E+02  0.30032102254E+03  0.31058060311E+03  0.00000000000E+00 0. -1.
</event>
<event>
 7    1  0.2440960E-009  0.7357027E+02  0.7561462E-02  0.1348356E+00
          2   -1    0    0  501    0  0.00000000000E+00  0.00000000000E+00  0.62642192103E+02  0.62642192103E+02  0.00000000000E+00 0. -1.
         -2   -1    0    0    0  501 -0.00000000000E+00 -0.00000000000E+00 -0.23782831685E+03  0.23782831685E+03  0.00000000000E+00 0.  1.
         25    2    1    2    0    0 -0.13301315281E+02 -0.70556501139E+01 -0.16880631102E+03  0.21064083139E+03  0.12508909633E+03 0.  0.
          5    1    3    3  502    0 -0.26200196474E+02 -0.27918577744E+02  0.14832021202E+01  0.38543087150E+02  0.41800000000E+01 0. -1.
         -5    1    3    3    0  502  0.12898881193E+02  0.20862927630E+02 -0.17028951314E+03  0.17209774424E+03  0.41800000000E+01 0. -1.
        -11    1    1    2    0    0  0.17881192455E+02  0.43490199831E+02 -0.19401443529E+02  0.50867971613E+02  0.00000000000E+00 0.  1.
         11    1    1    2    0    0 -0.45798771747E+01 -0.36434549717E+02  0.13021629804E+02  0.38961705953E+02  0.00000000000E+00 0. -1.
</event>
<event>
 7    1  0.2440960E-009  0.1696059E+03  0.7561462E-02  0.1178259E+00
         -2   -1    0    0    0  501 -0.00000000000E+00  0.00000000000E+00  0.49004696353E+02  0.49004696353E+02  0.00000000000E+00 0.  1.
          2   -1    0    0  501    0  0.00000000000E+00 -0.00000000000E+00 -0.74695832980E+03  0.74695832980E+03  0.00000000000E+00 0. -1.
         25    2    1    2    0    0  0.12945445075E+03  0.82637598580E+02 -0.44481115974E+03  0.48692074695E+03  0.12508964171E+03 0.  0.
          5    1    3    3  502    0  0.92942309066E+02  0.83947671377E+02 -0.17856919805E+03  0.21815112935E+03  0.41800000000E+01 0.  1.
         -5    1    3    3    0  502  0.36512141688E+02 -0.13100727972E+01 -0.26624196169E+03  0.26876961760E+03  0.41800000000E+01 0.  1.
        -11    1    1    2    0    0 -0.63188635591E+02 -0.90520165662E+02 -0.15161139184E+03  0.18754391005E+03  0.00000000000E+00 0.  1.
         11    1    1    2    0    0 -0.66265815162E+02  0.78825670816E+01 -0.10153108186E+03  0.12149836915E+03  0.00000000000E+00 0. -1.
</event>
<event>
 7    1  0.2440960E-009  0.1471517E+03  0.7561462E-02  0.1204017E+00
         -2   -1    0    0    0  501 -0.00000000000E+00  0.00000000000E+00  0.89707052868E+02  0.89707052868E+02  0.00000000000E+00 0.  1.
          2   -1    0    0  501    0  0.00000000000E+00 -0.00000000000E+00 -0.49204204170E+03  0.49204204170E+03  0.00000000000E+00 0. -1.
         25    2    1    2    0    0 -0.42843942573E+02  0.12513622798E+03 -0.37659958469E+03  0.41829328730E+03  0.12508936024E+03 0.  0.
          5    1    3    3  502    0 -0.46052545340E+02  0.21641081695E+02 -0.24767760040E+03  0.25288503216E+03  0.41800000000E+01 0.  1.
         -5    1    3    3    0  502  0.32086027668E+01  0.10349514629E+03 -0.12892198429E+03  0.16540825515E+03  0.41800000000E+01 0.  1.
        -11    1    1    2    0    0 -0.95366930852E+01 -0.19909899077E+02  0.26787506164E+02  0.34712001998E+02  0.00000000000E+00 0.  1.
         11    1    1    2    0    0  0.52380635658E+02 -0.10522632891E+03 -0.52522910303E+02  0.12874380527E+03  0.00000000000E+00 0. -1.
</event>
<event>
 7    1  0.2440960E-009  0.5589209E+02  0.7561462E-02  0.1415927E+00
          2   -1    0    0  501    0  0.00000000000E+00  0.00000000000E+00  0.65110872070E+03  0.65110872070E+03  0.00000000000E+00 0. -1.
         -2   -1    0    0    0  501 -0.00000000000E+00 -0.00000000000E+00 -0.57627045031E+02  0.57627045031E+02  0.00000000000E+00 0.  1.
         25    2    1    2    0    0  0.18006576800E+02 -0.83621992590E+01  0.60271682814E+03  0.61587977827E+03  0.12508462405E+03 0.  0.
          5    1    3    3  502    0  0.49015379255E+02 -0.49747607996E+01  0.56317900682E+03  0.56534531197E+03  0.41800000000E+01 0.  1.
         -5    1    3    3    0  502 -0.31008802455E+02 -0.33874384593E+01  0.39537821324E+02  0.50534466299E+02  0.41800000000E+01 0.  1.
        -11    1    1    2    0    0 -0.10057895672E+02 -0.78851893239E+01 -0.48217110027E+02  0.49882132827E+02  0.00000000000E+00 0.  1.
         11    1    1    2    0    0 -0.79486811282E+01  0.16247388583E+02  0.38981957559E+02  0.42973854639E+02  0.00000000000E+00 0. -1.
</event>
<event>
 7    1  0.2440960E-009  0.8781085E+02  0.7561462E-02  0.1308241E+00
          2   -1    0    0  501    0  0.00000000000E+00  0.00000000000E+00  0.21666349382E+03  0.21666349382E+03  0.00000000000E+00 0. -1.
         -2   -1    0    0    0  501 -0.00000000000E+00 -0.00000000000E+00 -0.11931932783E+03  0.11931932783E+03  0.00000000000E+00 0.  1.
         25    2    1    2    0    0  0.60103825385E+02  0.62492604277E+02  0.13622846476E+03  0.20426188894E+03  0.12508768623E+03 0.  0.
          5    1    3    3  502    0  0.32294444941E+02  0.31284146452E+02 -0.14784111297E+02  0.47514959119E+02  0.41800000000E+01 0. -1.
         -5    1    3    3    0  502  0.27809380444E+02  0.31208457825E+02  0.15101257606E+03  0.15674692982E+03  0.41800000000E+01 0. -1.
        -11    1    1    2    0    0 -0.34217203714E+02 -0.47499319953E+02  0.23069933515E+02  0.62922366917E+02  0.00000000000E+00 0. -1.
         11    1    1    2    0    0 -0.25886621671E+02 -0.14993284324E+02 -0.61954232288E+02  0.68798565790E+02  0.00000000000E+00 0.  1.
</event>
<event>
 7    1  0.2440960E-009  0.1934445E+03  0.7561462E-02  0.1155391E+00
         -1   -1    0    0    0  501 -0.00000000000E+00  0.00000000000E+00  0.93202815640E+03  0.93202815640E+03  0.00000000000E+00 0.  1.
          1   -1    0    0  501    0  0.00000000000E+00 -0.00000000000E+00 -0.53243293572E+02  0.53243293572E+02  0.00000000000E+00 0. -1.
         25    2    1    2    0    0 -0.17307925453E+03 -0.59051419305E+02  0.60273125028E+03  0.64216476984E+03  0.12508850102E+03 0.  0.
          5    1    3    3  502    0 -0.11596987330E+03 -0.56160700482E+02  0.54778755844E+03  0.56275369157E+03  0.41800000000E+01 0. -1.
         -5    1    3    3    0  502 -0.57109381223E+02 -0.28907188239E+01  0.54943691838E+02  0.79411078269E+02  0.41800000000E+01 0. -1.
        -11    1    1    2    0    0  0.83031560122E+02 -0.14595221881E+02  0.14621340800E+03  0.16877683833E+03  0.00000000000E+00 0.  1.
         11    1    1    2    0    0  0.90047694404E+02  0.73646641187E+02  0.12984020455E+03  0.17432984180E+03  0.00000000000E+00 0. -1.
</event>
<event>
 7    1  0.2440960E-009  0.2325827E+03  0.7561462E-02  0.1124835E+00
          1   -1    0    0  501    0  0.00000000000E+00  0.00000000000E+00  0.35288777492E+03  0.35288777492E+03  0.00000000000E+00 0. -1.
         -1   -1    0    0    0  501 -0.00000000000E+00 -0.00000000000E+00 -0.16518210261E+03  0.16518210261E+03  0.00000000000E+00 0.  1.
         25    2    1    2    0    0 -0.97786712546E+02 -0.17681382512E+03  0.14998847308E+03  0.28101345730E+03  0.12508657491E+03 0.  0.
          5    1    3    3  502    0 -0.95054208281E+02 -0.19284688381E+03  0.11901067602E+03  0.24577680223E+03  0.41800000000E+01 0. -1.
         -5    1    3    3    0  502 -0.27325042652E+01  0.16033058682E+02  0.30977797055E+02  0.35236655072E+02  0.41800000000E+01 0. -1.
        -11    1    1    2    0    0  0.10926960293E+03  0.78976714559E+02  0.30859462371E+02  0.13830934164E+03  0.00000000000E+00 0.  1.
         11    1    1    2    0    0 -0.11482890384E+02  0.97837110566E+02  0.68577368651E+01  0.98747078592E+02  0.00000000000E+00 0. -1.
</event>
<event>
 7    1  0.2440960E-009  0.5924683E+02  0.7561462E-02  0.1401020E+00
          1   -1    0    0  501    0  0.00000000000E+00  0.00000000000E+00  0.67772205621E+02  0.67772205621E+02  0.00000000000E+00 0. -1.
         -1   -1    0    0    0  501 -0.00000000000E+00 -0.00000000000E+00 -0.21554648774E+03  0.21554648774E+03  0.00000000000E+00 0.  1.
         25    2    1    2    0    0 -0.22300339551E+02 -0.26532874182E+02 -0.13104713189E+03  0.18445010707E+03  0.12508873915E+03 0.  0.
          5    1    3    3  502    0  0.17338385266E+02 -0.37291760947E+01 -0.13694533631E+03  0.13815217658E+03  0.41800000000E+01 0.  1.
         -5    1    3    3    0  502 -0.39638724818E+02 -0.22803698087E+02  0.58982044156E+01  0.46297930482E+02  0.41800000000E+01 0.  1.
        -11    1    1    2    0    0  0.80227798537E+00  0.32127915287E+02 -0.49655182371E+02  0.59147981597E+02  0.00000000000E+00 0.  1.
         11    1    1    2    0    0  0.21498061566E+02 -0.55950411052E+01  0.32928032149E+02  0.39720604694E+02  0.00000000000E+00 0. -1.
</event>
<event>
 7    1  0.2440960E-009  0.1203693E+03  0.7561462E-02  0.1242489E+00
         -1   -1    0    0    0  501 -0.00000000000E+00  0.00000000000E+00  0.30533774107E+03  0.30533774107E+03  0.00000000000E+00 0. -1.
          1   -1    0    0  501    0  0.00000000000E+00 -0.00000000000E+00 -0.72566430158E+02  0.72566430158E+02  0.00000000000E+00 0.  1.
         25    2    1    2    0    0 -0.24064888782E+02 -0.10023036557E+03  0.12925541097E+03  0.20731623163E+03  0.12509122103E+03 0.  0.
          5    1    3    3  502    0  0.21324775171E+02 -0.37024134238E+02 -0.13221816127E+02  0.44920166672E+02  0.41800000000E+01 0.  1.
         -5    1    3    3    0  502 -0.45389663953E+02 -0.63206231333E+02  0.14247722710E+03  0.16239606496E+03  0.41800000000E+01 0.  1.
        -11    1    1    2    0    0  0.44890971355E+02  0.66275311627E+02  0.27271989067E+02  0.84565818320E+02  0.00000000000E+00 0.  1.
         11    1    1    2    0    0 -0.20826082573E+02  0.33955053944E+02  0.76243910873E+02  0.86022121276E+02  0.00000000000E+00 0. -1.
</event>
<event>
 7    1  0.2440960E-009  0.1370548E+03  0.7561462E-02  0.1217348E+00
         -2   -1    0    0    0  501 -0.00000000000E+00  0.00000000000E+00  0.16669784479E+02  0.16669784479E+02  0.00000000000E+00 0. -1.
          2   -1    0    0  501    0  0.00000000000E+00 -0.00000000000E+00 -0.12070179027E+04  0.12070179027E+04  0.00000000000E+00 0.  1.
         25    2    1    2    0    0  0.26869608691E+02 -0.80706207063E+02 -0.51771275283E+03  0.53936140262E+03  0.12509500575E+03 0.  0.
          5    1    3    3  502    0 -0.26385129542E+02 -0.91543671248E+02 -0.29278815209E+03  0.30792660361E+03  0.41800000000E+01 0.  1.
         -5    1    3    3    0  502  0.53254738234E+02  0.10837464185E+02 -0.22492460074E+03  0.23143479901E+03  0.41800000000E+01 0.  1.
        -11    1    1    2    0    0 -0.37514077745E+02  0.97438067823E+02 -0.60075080066E+03  0.60975651500E+03  0.00000000000E+00 0. -1.
         11    1    1    2    0    0  0.10644469054E+02 -0.16731860760E+02 -0.71884564735E+02  0.74569769566E+02  0.00000000000E+00 0.  1.
</event>
<event>
 7    1  0.2440960E-009  0.1084620E+03  0.7561462E-02  0.1263445E+00
         -2   -1    0    0    0  501 -0.00000000000E+00  0.00000000000E+00  0.14375803994E+03  0.14375803994E+03  0.00000000000E+00 0.  1.
          2   -1    0    0  501    0  0.00000000000E+00 -0.00000000000E+00 -0.83902231102E+02  0.83902231102E+02  0.00000000000E+00 0. -1.
         25    2    1    2    0    0 -0.10881115693E+02  0.80908406199E+01  0.50652123697E+02  0.13563944734E+03  0.12509421114E+03 0.  0.
          5    1    3    3  502    0 -0.45570681308E+02  0.52091296152E+02  0.32648836071E+02  0.76639474336E+02  0.41800000000E+01 0. -1.
         -5    1    3    3    0  502  0.34689565615E+02 -0.44000455532E+02  0.18003287626E+02  0.58999973007E+02  0.41800000000E+01 0. -1.
        -11    1    1    2    0    0 -0.18075951800E+02  0.35053418101E+02  0.66573804546E+01  0.39997535781E+02  0.00000000000E+00 0.  1.
         11    1    1    2    0    0  0.28957067494E+02 -0.43144258721E+02  0.25463046888E+01  0.52023287920E+02  0.00000000000E+00 0. -1.
</event>
<event>
 7    1  0.2440960E-009  0.9819411E+02  0.7561462E-02  0.1284140E+00
          2   -1    0    0  501    0  0.00000000000E+00  0.00000000000E+00  0.40405231611E+03  0.40405231611E+03  0.00000000000E+00 0. -1.
         -2   -1    0    0    0  501 -0.00000000000E+00 -0.00000000000E+00 -0.52772871393E+02  0.52772871393E+02  0.00000000000E+00 0.  1.
         25    2    1    2    0    0  0.49491886038E+02  0.26512100771E+02  0.31730470218E+03  0.34566162928E+03  0.12508936669E+03 0.  0.
          5    1    3    3  502    0  0.68587069157E+02  0.90507359651E+01  0.75685360550E+02  0.10262479271E+03  0.41800000000E+01 0. -1.
         -5    1    3    3    0  502 -0.19095183119E+02  0.17461364806E+02  0.24161934164E+03  0.24303683657E+03  0.41800000000E+01 0. -1.
        -11    1    1    2    0    0 -0.72298747452E+02 -0.10625900965E+02  0.39134018637E+02  0.82894451377E+02  0.00000000000E+00 0. -1.
         11    1    1    2    0    0  0.22806861413E+02 -0.15886199806E+02 -0.51592761048E+01  0.28269106843E+02  0.00000000000E+00 0.  1.
</event>
<event>
 7    1  0.2440960E-009  0.1166225E+03  0.7561462E-02  0.1248775E+00
         -1   -1    0    0    0  501 -0.00000000000E+00  0.00000000000E+00  0.30503395236E+03  0.30503395236E+03  0.00000000000E+00 0.  1.
          1   -1    0    0  501    0  0.00000000000E+00 -0.00000000000E+00 -0.62779787030E+02  0.62779787030E+02  0.00000000000E+00 0. -1.
         25    2    1    2    0    0  0.82530482802E+02  0.16800355862E+02  0.15753093495E+03  0.21807741818E+03  0.12509289471E+03 0.  0.
          5    1    3    3  502    0  0.29953777858E+01  0.47171338455E+02  0.11155992768E+03  0.12123199794E+03  0.41800000000E+01 0. -1.
         -5    1    3    3    0  502  0.79535105016E+02 -0.30370982593E+02  0.45971007269E+02  0.96845420247E+02  0.41800000000E+01 0. -1.
        -11    1    1    2    0    0 -0.50440596574E+01 -0.22309856988E+02  0.65969987406E+02  0.69822714749E+02  0.00000000000E+00 0.  1.
         11    1    1    2    0    0 -0.77486423144E+02  0.55095011260E+01  0.18753242971E+02  0.79913606453E+02  0.00000000000E+00 0. -1.
</event>
<event>
 7    1  0.2440960E-009  0.1417423E+03  0.7561462E-02  0.1211004E+00
          1   -1    0    0  501    0  0.00000000000E+00  0.00000000000E+00  0.31140118843E+03  0.31140118843E+03  0.00000000000E+00 0. -1.
         -1   -1    0    0    0  501 -0.00000000000E+00 -0.00000000000E+00 -0.85002858372E+02  0.85002858372E+02  0.00000000000E+00 0.  1.
         25    2    1    2    0    0 -0.11721000776E+03 -0.21933790376E+02  0.14262401765E+03  0.22406955227E+03  0.12508507811E+03 0.  0.
          5    1    3    3  502    0 -0.43110023370E+02 -0.41368475830E+02  0.13411200127E+03  0.14687861039E+03  0.41800000000E+01 0. -1.
         -5    1    3    3    0  502 -0.74099984386E+02  0.19434685454E+02  0.85120163852E+01  0.77190941876E+02  0.41800000000E+01 0. -1.
        -11    1    1    2    0    0  0.35336409372E+02 -0.32940211750E+02  0.10285964713E+02  0.49391501774E+02  0.00000000000E+00 0.  1.
         11    1    1    2    0    0  0.81873598385E+02  0.54874002126E+02  0.73488347695E+02  0.12294299276E+03  0.00000000000E+00 0. -1.
</event>
<event>
 7    1  0.2440960E-009  0.8792797E+02  0.7561462E-02  0.1307948E+00
         -1   -1    0    0    0  501 -0.00000000000E+00  0.00000000000E+00  0.21663732424E+02  0.21663732424E+02  0.00000000000E+00 0.  1.
          1   -1    0    0  501    0  0.00000000000E+00 -0.00000000000E+00 -0.86171138543E+03  0.86171138543E+03  0.00000000000E+00 0. -1.
         25    2    1    2    0    0  0.42323375346E+02 -0.40287747722E+02 -0.64745343762E+03  0.66201039122E+03  0.12508970177E+03 0.  0.
          5    1    3    3  502    0  0.75432573198E+02 -0.25458646329E+02 -0.23938226045E+03  0.25230845169E+03  0.41800000000E+01 0.  1.
         -5    1    3    3    0  502 -0.33109197852E+02 -0.14829101393E+02 -0.40807117716E+03  0.40970193954E+03  0.41800000000E+01 0.  1.
        -11    1    1    2    0    0 -0.65352713200E+01  0.13207482125E+02  0.73348331726E+01  0.16460471834E+02  0.00000000000E+00 0.  1.
         11    1    1    2    0    0 -0.35788104026E+02  0.27080265596E+02 -0.19992904856E+03  0.20490425479E+03  0.00000000000E+00 0. -1.
</event>
<event>
 7    1  0.2440960E-009  0.1168793E+03  0.7561462E-02  0.1248336E+00
         -1   -1    0    0    0  501 -0.00000000000E+00  0.00000000000E+00  0.10799936248E+03  0.10799936248E+03  0.00000000000E+00 0.  1.
          1   -1    0    0  501    0  0.00000000000E+00 -0.00000000000E+00 -0.17521343783E+03  0.17521343783E+03  0.00000000000E+00 0. -1.
         25    2    1    2    0    0  0.13421295378E+02 -0.82592942153E+02 -0.15297867712E+02  0.15127394487E+03  0.12509219151E+03 0.  0.
          5    1    3    3  502    0 -0.15757986587E+02 -0.10411008868E+03 -0.33387617327E+02  0.11054153109E+03  0.41800000000E+01 0.  1.
         -5    1    3    3    0  502  0.29179281965E+02  0.21517146525E+02  0.18089749615E+02  0.40732413772E+02  0.41800000000E+01 0.  1.
        -11    1    1    2    0    0 -0.19971894742E+02  0.17773682308E+02  0.21117673000E+02  0.34069582846E+02  0.00000000000E+00 0.  1.
         11    1    1    2    0    0  0.65505993635E+01  0.64819259845E+02 -0.73033880636E+02  0.97869272602E+02  0.00000000000E+00 0. -1.
</event>
<event>
 7    1  0.2440960E-009  0.1074650E+03  0.7561462E-02  0.1265338E+00
          1   -1    0    0  501    0  0.00000000000E+00  0.00000000000E+00  0.39131793275E+03  0.39131793275E+03  0.00000000000E+00 0. -1.
         -1   -1    0    0    0  501 -0.00000000000E+00 -0.00000000000E+00 -0.36173874079E+02  0.36173874079E+02  0.00000000000E+00 0.  1.
         25    2    1    2    0    0 -0.22366526763E+02 -0.38057730232E+02  0.15196886671E+03  0.20172023612E+03  0.12509142601E+03 0.  0.
          5    1    3    3  502    0 -0.13547659577E+01 -0.76994902842E+02  0.54011219907E+02  0.94152720249E+02  0.41800000000E+01 0. -1.
         -5    1    3    3    0  502 -0.21011760805E+02  0.38937172610E+02  0.97957646803E+02  0.10756751587E+03  0.41800000000E+01 0. -1.
        -11    1    1    2    0    0 -0.63535250831E+01 -0.24085375192E+02  0.91081389720E+02  0.94426119970E+02  0.00000000000E+00 0.  1.
         11    1    1    2    0    0  0.28720051846E+02  0.62143105424E+02  0.11209380224E+03  0.13134545074E+03  0.00000000000E+00 0. -1.
</event>
<event>
 7    1  0.2440960E-009  0.1274621E+03  0.7561462E-02  0.1231271E+00
         -2   -1    0    0    0  501 -0.00000000000E+00  0.00000000000E+00  0.15130756381E+03  0.15130756381E+03  0.00000000000E+00 0. -1.
          2   -1    0    0  501    0  0.00000000000E+00 -0.00000000000E+00 -0.16499691890E+03  0.16499691890E+03  0.00000000000E+00 0.  1.
         25    2    1    2    0    0  0.59630219886E+02 -0.66949531080E+02 -0.79156476187E+02  0.17306444980E+03  0.12509018038E+03 0.  0.
          5    1    3    3  502    0 -0.30636756498E+02 -0.33638362377E+01 -0.49839014724E+02  0.58747987469E+02  0.41800000000E+01 0.  1.
         -5    1    3    3    0  502  0.90266976385E+02 -0.63585694843E+02 -0.29317461463E+02  0.11431646234E+03  0.41800000000E+01 0.  1.
        -11    1    1    2    0    0 -0.72466502666E+02  0.38369467531E+02  0.14288812606E+02  0.83233287890E+02  0.00000000000E+00 0.  1.
         11    1    1    2    0    0  0.12836282780E+02  0.28580063550E+02  0.51178308485E+02  0.60006745017E+02  0.00000000000E+00 0. -1.
</event>
<event>
 7    1  0.2440960E-009  0.1197297E+03  0.7561462E-02  0.1243544E+00
          3   -1    0    0  501    0  0.00000000000E+00  0.00000000000E+00  0.16041608870E+03  0.16041608870E+03  0.00000000000E+00 0. -1.
         -3   -1    0    0    0  501 -0.00000000000E+00 -0.00000000000E+00 -0.11753663665E+03  0.11753663665E+03  0.00000000000E+00 0.  1.
         25    2    1    2    0    0 -0.32591418770E+02 -0.54226509039E+02  0.75428982104E+02  0.15919769667E+03  0.12510659624E+03 0.  0.
          5    1    3    3  502    0 -0.76742485254E+01 -0.89856004007E+02  0.71834204881E+02  0.11537166436E+03  0.41800000000E+01 0.  1.
         -5    1    3    3    0  502 -0.24917170245E+02  0.35629494968E+02  0.35947772237E+01  0.43826032309E+02  0.41800000000E+01 0.  1.
        -11    1    1    2    0    0  0.24563976238E+02  0.77280024775E+02 -0.43476625887E+02  0.92009826412E+02  0.00000000000E+00 0. -1.
         11    1    1    2    0    0  0.80274425325E+01 -0.23053515735E+02  0.10927095831E+02  0.26745202274E+02  0.00000000000E+00 0.  1.
</event>
<event>
 7    1  0.2440960E-009  0.4658162E+02  0.7561462E-02  0.1464703E+00
          1   -1    0    0  501    0  0.00000000000E+00  0.00000000000E+00  0.11754906787E+03  0.11754906787E+03  0.00000000000E+00 0. -1.
         -1   -1    0    0    0  501 -0.00000000000E+00 -0.00000000000E+00 -0.95851431331E+02  0.95851431331E+02  0.00000000000E+00 0.  1.
         25    2    1    2    0    0 -0.83387554037E+01  0.21710251670E+02  0.19509074741E+02  0.12872219794E+03  0.12509168788E+03 0.  0.
          5    1    3    3  502    0  0.21707080531E+02  0.16168083995E+02 -0.47572126592E+02  0.54892475930E+02  0.41800000000E+01 0.  1.
         -5    1    3    3    0  502 -0.30045835935E+02  0.55421676748E+01  0.67081201333E+02  0.73829722008E+02  0.41800000000E+01 0.  1.
        -11    1    1    2    0    0  0.17717465018E+02 -0.16494290516E+02 -0.36906639994E+02  0.44136948942E+02  0.00000000000E+00 0.  1.
         11    1    1    2    0    0 -0.93787096145E+01 -0.52159611536E+01  0.39095201791E+02  0.40541352320E+02  0.00000000000E+00 0. -1.
</event>
<event>
 7    1  0.2440960E-009  0.8422753E+02  0.7561462E-02  0.1317465E+00
          4   -1    0    0  501    0  0.00000000000E+00  0.00000000000E+00  0.27898728226E+03  0.27898728226E+03  0.00000000000E+00 0. -1.
         -4   -1    0    0    0  501 -0.00000000000E+00 -0.00000000000E+00 -0.72685294132E+02  0.72685294132E+02  0.00000000000E+00 0.  1.
         25    2    1    2    0    0 -0.18772978130E+02 -0.56353269874E+02  0.28656946959E+02  0.14140561112E+03  0.12508481328E+03 0.  0.
          5    1    3    3  502    0  0.25049475985E+02 -0.21650793453E+02 -0.40439273815E+02  0.52431291907E+02  0.41800000000E+01 0.  1.
         -5    1    3    3    0  502 -0.43822454116E+02 -0.34702476421E+02  0.69096220775E+02  0.88974319215E+02  0.41800000000E+01 0.  1.
        -11    1    1    2    0    0  0.35811518682E+02  0.26123730776E+02  0.16870754759E+03  0.17443380061E+03  0.00000000000E+00 0. -1.
         11    1    1    2    0    0 -0.17038540552E+02  0.30229539098E+02  0.89374935758E+01  0.35833164661E+02  0.00000000000E+00 0.  1.
</event>
<event>
 7    1  0.2440960E-009  0.1140804E+03  0.7561462E-02  0.1253195E+00
          2   -1    0    0  501    0  0.00000000000E+00  0.00000000000E+00  0.89653359893E+02  0.89653359893E+02  0.00000000000E+00 0. -1.
         -2   -1    0    0    0  501 -0.00000000000E+00 -0.00000000000E+00 -0.19856406731E+03  0.19856406731E+03  0.00000000000E+00 0.  1.
         25    2    1    2    0    0  0.49905130201E+02  0.28050206630E+02 -0.11700932221E+03  0.18059788947E+03  0.12508828916E+03 0.  0.
          5    1    3    3  502    0  0.47334744998E+02 -0.35277378789E+02 -0.16050287030E+02  0.61320108056E+02  0.41800000000E+01 0. -1.
         -5    1    3    3    0  502  0.25703852025E+01  0.63327585419E+02 -0.10095903518E+03  0.11927778141E+03  0.41800000000E+01 0. -1.
        -11    1    1    2    0    0 -0.80395710396E+01 -0.55056792862E+02 -0.56771980466E+01  0.55929560345E+02  0.00000000000E+00 0. -1.
         11    1    1    2    0    0 -0.41865559161E+02  0.27006586232E+02  0.13775812832E+02  0.51689977394E+02  0.00000000000E+00 0.  1.
</event>
<event>
 7    1  0.2795030E-009  0.1041713E+03  0.7561462E-02  0.1271761E+00
          1   -1    0    0  501    0  0.00000000000E+00  0.00000000000E+00  0.40288286147E+03  0.40288286147E+03  0.00000000000E+00 0. -1.
         -1   -1    0    0    0  501 -0.00000000000E+00 -0.00000000000E+00 -0.39671651504E+02  0.39671651504E+02  0.00000000000E+00 0.  1.
         25    2    1    2    0    0 -0.56010073425E+02  0.14273139150E+02  0.25294258244E+03  0.28804139388E+03  0.12508814392E+03 0.  0.
          5    1    3    3  502    0 -0.69232220922E+02 -0.22391280520E+02  0.23285560807E+03  0.24399523862E+03  0.41800000000E+01 0. -1.
         -5    1    3    3    0  502  0.13222147497E+02  0.36664419670E+02  0.20086974370E+02  0.44046155263E+02  0.41800000000E+01 0. -1.
        -11    1    1    2    0    0  0.56058725467E+02  0.21828478774E+02  0.10047268966E+03  0.11710603978E+03  0.00000000000E+00 0. -1.
         11    1    1    2    0    0 -0.48652041405E-01 -0.36101617924E+02  0.97959378631E+01  0.37407079308E+02  0.00000000000E+00 0.  1.
</event>
<event>
 7    1  0.2440960E-009  0.9078569E+02  0.7561462E-02  0.1300960E+00
          4   -1    0    0  501    0  0.00000000000E+00  0.00000000000E+00  0.12660859337E+03  0.12660859337E+03  0.00000000000E+00 0. -1.
         -4   -1    0    0    0  501 -0.00000000000E+00 -0.00000000000E+00 -0.10704991971E+03  0.10704991971E+03  0.00000000000E+00 0.  1.
         25    2    1    2    0    0  0.17746576097E+02 -0.35978980128E+02 -0.72395379974E+01  0.13156600721E+03  0.12509106830E+03 0.  0.
          5    1    3    3  502    0 -0.43652544481E+02 -0.22950166174E+02 -0.37175252289E+02  0.61900941429E+02  0.41800000000E+01 0.  1.
         -5    1    3    3    0  502  0.61399120578E+02 -0.13028813955E+02  0.29935714291E+02  0.69665065786E+02  0.41800000000E+01 0.  1.
        -11    1    1    2    0    0 -0.26196232197E+02 -0.55616333323E+01 -0.23978580136E+02  0.35946441437E+02  0.00000000000E+00 0.  1.
         11    1    1    2    0    0  0.84496561003E+01  0.41540613461E+02  0.50776791792E+02  0.66146064430E+02  0.00000000000E+00 0. -1.
</event>
<event>
 7    1  0.2440960E-009  0.2614231E+03  0.7561462E-02  0.1106291E+00
          1   -1    0    0  501    0  0.00000000000E+00  0.00000000000E+00  0.11622582952E+04  0.11622582952E+04  0.00000000000E+00 0. -1.
         -1   -1    0    0    0  501 -0.00000000000E+00 -0.00000000000E+00 -0.81842796621E+02  0.81842796621E+02  0.00000000000E+00 0.  1.
         25    2    1    2    0    0  0.12727102392E+03 -0.20997070115E+03  0.24591036673E+03  0.36933091016E+03  0.12509118219E+03 0.  0.
          5    1    3    3  502    0 -0.16538399412E+02 -0.55785973888E+02  0.23652019129E+02  0.62948264048E+02  0.41800000000E+01 0. -1.
         -5    1    3    3    0  502  0.14380942333E+03 -0.15418472726E+03  0.22225834760E+03  0.30638264611E+03  0.41800000000E+01 0. -1.
        -11    1    1    2    0    0 -0.44858133357E+02  0.13484979989E+03  0.57534959205E+03  0.59264143774E+03  0.00000000000E+00 0. -1.
         11    1    1    2    0    0 -0.82412890563E+02  0.75120901265E+02  0.25915553982E+03  0.28212874394E+03  0.00000000000E+00 0.  1.
</event>
<event>
 7    1  0.2440960E-009  0.1451446E+03  0.7561462E-02  0.1206569E+00
         -2   -1    0    0    0  501 -0.00000000000E+00  0.00000000000E+00  0.24407092291E+03  0.24407092291E+03  0.00000000000E+00 0.  1.
          2   -1    0    0  501    0  0.00000000000E+00 -0.00000000000E+00 -0.11260198739E+03  0.11260198739E+03  0.00000000000E+00 0. -1.
         25    2    1    2    0    0 -0.54263075952E+02  0.11285397749E+03  0.75380137373E+02  0.19237592513E+03  0.12508329150E+03 0.  0.
          5    1    3    3  502    0 -0.42972194629E+02 -0.30127722257E+01 -0.14063809759E+02  0.45507685644E+02  0.41800000000E+01 0. -1.
         -5    1    3    3    0  502 -0.11290881323E+02  0.11586674972E+03  0.89443947132E+02  0.14686823948E+03  0.41800000000E+01 0. -1.
        -11    1    1    2    0    0  0.43371378719E+02 -0.47737833222E+02 -0.16093699754E+02  0.66475441966E+02  0.00000000000E+00 0. -1.
         11    1    1    2    0    0  0.10891697233E+02 -0.65116144268E+02  0.72182497902E+02  0.97821543212E+02  0.00000000000E+00 0.  1.
</event>
<event>
 7    1  0.2440960E-009  0.9192749E+02  0.7561462E-02  0.1298250E+00
          2   -1    0    0  501    0  0.00000000000E+00  0.00000000000E+00  0.11685946604E+03  0.11685946604E+03  0.00000000000E+00 0. -1.
         -2   -1    0    0    0  501 -0.00000000000E+00 -0.00000000000E+00 -0.14414799292E+03  0.14414799292E+03  0.00000000000E+00 0.  1.
         25    2    1    2    0    0  0.27624033368E+02 -0.63469097399E+02  0.45792673046E+01  0.14303817858E+03  0.12509011671E+03 0.  0.
          5    1    3    3  502    0  0.84102569538E+01 -0.85371119679E+01 -0.56889507828E+02  0.58288105165E+02  0.41800000000E+01 0. -1.
         -5    1    3    3    0  502  0.19213776415E+02 -0.54931985431E+02  0.61468775133E+02  0.84750073415E+02  0.41800000000E+01 0. -1.
        -11    1    1    2    0    0 -0.60100331521E+02  0.47626417372E+02 -0.27970637029E+02  0.81625253545E+02  0.00000000000E+00 0.  1.
         11    1    1    2    0    0  0.32476298152E+02  0.15842680027E+02 -0.38971571561E+01  0.36344026827E+02  0.00000000000E+00 0. -1.
</event>
<event>
 7    1  0.2440960E-009  0.1021828E+03  0.7561462E-02  0.1275772E+00
         -1   -1    0    0    0  501 -0.00000000000E+00  0.00000000000E+00  0.21497778780E+02  0.21497778780E+02  0.00000000000E+00 0.  1.
          1   -1    0    0  501    0  0.00000000000E+00 -0.00000000000E+00 -0.68970849331E+03  0.68970849331E+03  0.00000000000E+00 0. -1.
         25    2    1    2    0    0  0.28479902508E+02 -0.61516702010E+01 -0.54078171160E+03  0.55582545679E+03  0.12509248945E+03 0.  0.
          5    1    3    3  502    0  0.47340445790E+01  0.52389275458E+02 -0.36888530308E+03  0.37264042533E+03  0.41800000000E+01 0. -1.
         -5    1    3    3    0  502  0.23745857929E+02 -0.58540945659E+02 -0.17189640852E+03  0.18318503145E+03  0.41800000000E+01 0. -1.
        -11    1    1    2    0    0 -0.54206951368E+02 -0.13557210518E+02 -0.71543498122E+02  0.90778101199E+02  0.00000000000E+00 0.  1.
         11    1    1    2    0    0  0.25727048860E+02  0.19708880719E+02 -0.55885504803E+02  0.64602714102E+02  0.00000000000E+00 0. -1.
</event>
<event>
 7    1  0.2440960E-009  0.2699554E+03  0.7561462E-02  0.1101305E+00
          2   -1    0    0  501    0  0.00000000000E+00  0.00000000000E+00  0.89960079517E+03  0.89960079517E+03  0.00000000000E+00 0. -1.
         -2   -1    0    0    0  501 -0.00000000000E+00 -0.00000000000E+00 -0.11864552899E+03  0.11864552899E+03  0.00000000000E+00 0.  1.
         25    2    1    2    0    0  0.16875209825E+03 -0.19823695444E+03  0.14101429460E+03  0.32141685426E+03  0.12509437297E+03 0.  0.
          5    1    3    3  502    0  0.12393496191E+02 -0.69999491445E+02 -0.58606236084E+01  0.71451709983E+02  0.41800000000E+01 0. -1.
         -5    1    3    3    0  502  0.15635860206E+03 -0.12823746300E+03  0.14687491820E+03  0.24996514427E+03  0.41800000000E+01 0. -1.
        -11    1    1    2    0    0 -0.75116858061E+02  0.13153521612E+03  0.44996622773E+03  0.47477748635E+03  0.00000000000E+00 0.  1.
         11    1    1    2    0    0 -0.93635240191E+02  0.66701738322E+02  0.18997474384E+03  0.22205198355E+03  0.00000000000E+00 0. -1.
</event>
<event>
 7    1  0.2483302E-009  0.1694652E+03  0.7561462E-02  0.1178407E+00
         -2   -1    0    0    0  501 -0.00000000000E+00  0.00000000000E+00  0.12048389541E+03  0.12048389541E+03  0.00000000000E+00 0.  1.
          2   -1    0    0  501    0  0.00000000000E+00 -0.00000000000E+00 -0.24335036910E+03  0.24335036910E+03  0.00000000000E+00 0. -1.
         25    2    1    2    0    0 -0.72544103379E+02  0.11008437568E+03 -0.57091499141E+02  0.19048529993E+03  0.12507595097E+03 0.  0.
          5    1    3    3  502    0  0.19738271458E+02  0.80251936607E+02 -0.12609396952E+02  0.83704491999E+02  0.41800000000E+01 0.  1.
         -5    1    3    3    0  502 -0.92282374837E+02  0.29832439069E+02 -0.44482102190E+02  0.10678080793E+03  0.41800000000E+01 0.  1.
        -11    1    1    2    0    0  0.15490597446E+02 -0.99970486442E+02 -0.31159214270E+02  0.10585345248E+03  0.00000000000E+00 0.  1.
         11    1    1    2    0    0  0.57053505933E+02 -0.10113889234E+02 -0.34615760269E+02  0.67495512101E+02  0.00000000000E+00 0. -1.
</event>
<event>
 7    1  0.2440960E-009  0.1135999E+03  0.7561462E-02  0.1254045E+00
         -1   -1    0    0    0  501 -0.00000000000E+00  0.00000000000E+00  0.41297612462E+03  0.41297612462E+03  0.00000000000E+00 0.  1.
          1   -1    0    0  501    0  0.00000000000E+00 -0.00000000000E+00 -0.33709048045E+02  0.33709048045E+02  0.00000000000E+00 0. -1.
         25    2    1    2    0    0 -0.63416250217E+01  0.40867251773E+02  0.23592062226E+03  0.27021546611E+03  0.12509000616E+03 0.  0.
          5    1    3    3  502    0 -0.86331273793E+00 -0.41460488462E+02  0.40799110773E+02  0.58324585315E+02  0.41800000000E+01 0.  1.
         -5    1    3    3    0  502 -0.54783122838E+01  0.82327740235E+02  0.19512151149E+03  0.21189088079E+03  0.41800000000E+01 0.  1.
        -11    1    1    2    0    0  0.81629700660E+01 -0.71627196365E+02  0.98844778744E+02  0.12234124253E+03  0.00000000000E+00 0. -1.
         11    1    1    2    0    0 -0.18213450443E+01  0.30759944592E+02  0.44501675568E+02  0.54128464022E+02  0.00000000000E+00 0.  1.
</event>
<event>
 7    1  0.2440960E-009  0.9329899E+02  0.7561462E-02  0.1295054E+00
          3   -1    0    0  501    0  0.00000000000E+00  0.00000000000E+00  0.53275677416E+02  0.53275677416E+02  0.00000000000E+00 0. -1.
         -3   -1    0    0    0  501 -0.00000000000E+00 -0.00000000000E+00 -0.29169035778E+03  0.29169035778E+03  0.00000000000E+00 0.  1.
         25    2    1    2    0    0  0.37023551510E+02 -0.48381691762E+02 -0.13617900180E+03  0.19468957535E+03  0.12509108183E+03 0.  0.
          5    1    3    3  502    0  0.51424220580E+02 -0.76318121098E+01 -0.42130661544E+00  0.52156925884E+02  0.41800000000E+01 0.  1.
         -5    1    3    3    0  502 -0.14400669070E+02 -0.40749879652E+02 -0.13575769519E+03  0.14253264947E+03  0.41800000000E+01 0.  1.
        -11    1    1    2    0    0  0.81153312067E+01  0.45033223720E+02 -0.93615042439E+02  0.10419993287E+03  0.00000000000E+00 0.  1.
         11    1    1    2    0    0 -0.45138882716E+02  0.33484680422E+01 -0.86206361238E+01  0.46076526977E+02  0.00000000000E+00 0. -1.
</event>
<event>
 7    1  0.2440960E-009  0.1025962E+03  0.7561462E-02  0.1274929E+00
         -1   -1    0    0    0  501 -0.00000000000E+00  0.00000000000E+00  0.58087925104E+02  0.58087925104E+02  0.00000000000E+00 0.  1.
          1   -1    0    0  501    0  0.00000000000E+00 -0.00000000000E+00 -0.34879527542E+03  0.34879527542E+03  0.00000000000E+00 0. -1.
         25    2    1    2    0    0  0.20723051174E+02 -0.71862316461E+02 -0.23469620406E+03  0.27626727582E+03  0.12509061559E+03 0.  0.
          5    1    3    3  502    0 -0.12320083784E+02  0.82843747593E+01 -0.16289972177E+03  0.16362825881E+03  0.41800000000E+01 0.  1.
         -5    1    3    3    0  502  0.33043134958E+02 -0.80146691220E+02 -0.71796482293E+02  0.11263901700E+03  0.41800000000E+01 0.  1.
        -11    1    1    2    0    0 -0.46717073545E+02  0.37591864712E+02 -0.63071738373E+02  0.87026877655E+02  0.00000000000E+00 0. -1.
         11    1    1    2    0    0  0.25994022371E+02  0.34270451749E+02  0.70605921192E+01  0.43589047055E+02  0.00000000000E+00 0.  1.
</event>
<event>
 7    1  0.2440960E-009  0.1407093E+03  0.7561462E-02  0.1212378E+00
         -1   -1    0    0    0  501 -0.00000000000E+00  0.00000000000E+00  0.89569341915E+02  0.89569341915E+02  0.00000000000E+00 0. -1.
          1   -1    0    0  501    0  0.00000000000E+00 -0.00000000000E+00 -0.27545669244E+03  0.27545669244E+03  0.00000000000E+00 0.  1.
         25    2    1    2    0    0 -0.11287501735E+03  0.15005030879E+01 -0.11318738585E+03  0.20298087290E+03  0.12508728711E+03 0.  0.
          5    1    3    3  502    0  0.16722676231E+02 -0.30200623442E+02 -0.27830127840E+02  0.44538904030E+02  0.41800000000E+01 0. -1.
         -5    1    3    3    0  502 -0.12959769358E+03  0.31701126530E+02 -0.85357258009E+02  0.15844196887E+03  0.41800000000E+01 0. -1.
        -11    1    1    2    0    0  0.59375278686E+02  0.31554432413E+01  0.13043402714E+02  0.60872907730E+02  0.00000000000E+00 0. -1.
         11    1    1    2    0    0  0.53499738661E+02 -0.46559463292E+01 -0.85743367395E+02  0.10117225373E+03  0.00000000000E+00 0.  1.
</event>
<event>
 7    1  0.2440960E-009  0.1291249E+03  0.7561462E-02  0.1228760E+00
          2   -1    0    0  501    0  0.00000000000E+00  0.00000000000E+00  0.66010573579E+03  0.66010573579E+03  0.00000000000E+00 0. -1.
         -2   -1    0    0    0  501 -0.00000000000E+00 -0.00000000000E+00 -0.36204381358E+02  0.36204381358E+02  0.00000000000E+00 0.  1.
         25    2    1    2    0    0  0.82517876102E+02 -0.15387730868E+02  0.49418604920E+03  0.51663630176E+03  0.12508890812E+03 0.  0.
          5    1    3    3  502    0  0.95422482663E+02  0.20058400491E+02  0.43861153947E+03  0.44933878598E+03  0.41800000000E+01 0.  1.
         -5    1    3    3    0  502 -0.12904606561E+02 -0.35446131359E+02  0.55574509729E+02  0.67297515782E+02  0.41800000000E+01 0.  1.
        -11    1    1    2    0    0 -0.99648574514E+02 -0.35586527242E-01  0.92890488629E+02  0.13622952157E+03  0.00000000000E+00 0.  1.
         11    1    1    2    0    0  0.17130698412E+02  0.15423317396E+02  0.36824816608E+02  0.43444293823E+02  0.00000000000E+00 0. -1.
</event>
<event>
 7    1  0.2440960E-009  0.1194911E+03  0.7561462E-02  0.1243939E+00
          1   -1    0    0  501    0  0.00000000000E+00  0.00000000000E+00  0.14319896347E+03  0.14319896347E+03  0.00000000000E+00 0. -1.
         -1   -1    0    0    0  501 -0.00000000000E+00 -0.00000000000E+00 -0.14328000874E+03  0.14328000874E+03  0.00000000000E+00 0.  1.
         25    2    1    2    0    0 -0.80218109106E+02  0.17320604582E+02 -0.44040734838E+02  0.15595928580E+03  0.12509502041E+03 0.  0.
          5    1    3    3  502    0  0.28123250254E+02 -0.19695140409E+02 -0.15437200204E+02  0.37876051943E+02  0.41800000000E+01 0. -1.
         -5    1    3    3    0  502 -0.10834135936E+03  0.37015744991E+02 -0.28603534634E+02  0.11808323386E+03  0.41800000000E+01 0. -1.
        -11    1    1    2    0    0  0.24382059150E+02 -0.23234619931E+02 -0.24742798844E+02  0.41791607607E+02  0.00000000000E+00 0.  1.
         11    1    1    2    0    0  0.55836049955E+02  0.59140153495E+01  0.68702488416E+02  0.88728078795E+02  0.00000000000E+00 0. -1.
</event>
<event>
 7    1  0.2440960E-009  0.1272951E+03  0.7561462E-02  0.1231525E+00
         -2   -1    0    0    0  501 -0.00000000000E+00  0.00000000000E+00  0.55744556906E+02  0.55744556906E+02  0.00000000000E+00 0.  1.
          2   -1    0    0  501    0  0.00000000000E+00 -0.00000000000E+00 -0.42693763855E+03  0.42693763855E+03  0.00000000000E+00 0. -1.
         25    2    1    2    0    0 -0.86654537756E+02  0.44793851043E+02 -0.27245732911E+03  0.31527172905E+03  0.12509104265E+03 0.  0.
          5    1    3    3  502    0 -0.35044948117E+02 -0.17413831750E+02 -0.99833404730E+01  0.40602086298E+02  0.41800000000E+01 0. -1.
         -5    1    3    3    0  502 -0.51609589639E+02  0.62207682793E+02 -0.26247398864E+03  0.27466964276E+03  0.41800000000E+01 0. -1.
        -11    1    1    2    0    0  0.71495578587E+02 -0.73060557929E+02 -0.83041601481E+02  0.13170182405E+03  0.00000000000E+00 0. -1.
         11    1    1    2    0    0  0.15158959169E+02  0.28266706886E+02 -0.15694151058E+02  0.35708642353E+02  0.00000000000E+00 0.  1.
</event>
<event>
 7    1  0.2440960E-009  0.1481873E+03  0.7561462E-02  0.1202718E+00
         -2   -1    0    0    0  501 -0.00000000000E+00  0.00000000000E+00  0.91090805759E+02  0.91090805759E+02  0.00000000000E+00 0.  1.
          2   -1    0    0  501    0  0.00000000000E+00 -0.00000000000E+00 -0.29068643484E+03  0.29068643484E+03  0.00000000000E+00 0. -1.
         25    2    1    2    0    0 -0.96726971864E+02  0.63520832873E+02 -0.64272616274E+02  0.18212650575E+03  0.12509233229E+03 0.  0.
          5    1    3    3  502    0 -0.11146238172E+03  0.71329343121E+02 -0.19069300888E+02  0.13376415202E+03  0.41800000000E+01 0. -1.
         -5    1    3    3    0  502  0.14735409859E+02 -0.78085102483E+01 -0.45203315386E+02  0.48362353726E+02  0.41800000000E+01 0. -1.
        -11    1    1    2    0    0  0.22312866195E+02 -0.68658297278E+02 -0.67629704813E+02  0.98922205576E+02  0.00000000000E+00 0. -1.
         11    1    1    2    0    0  0.74414105669E+02  0.51374644052E+01 -0.67693307993E+02  0.10072852928E+03  0.00000000000E+00 0.  1.
</event>
<event>
 7    1  0.2440960E-009  0.1126272E+03  0.7561462E-02  0.1255781E+00
          2   -1    0    0  501    0  0.00000000000E+00  0.00000000000E+00  0.93689774277E+03  0.93689774277E+03  0.00000000000E+00 0. -1.
         -2   -1    0    0    0  501 -0.00000000000E+00 -0.00000000000E+00 -0.14006586296E+02  0.14006586296E+02  0.00000000000E+00 0.  1.
         25    2    1    2    0    0  0.31915166601E+02  0.35350680580E+01  0.44243681367E+03  0.46090011742E+03  0.12509000593E+03 0.  0.
          5    1    3    3  502    0  0.77944767418E+02 -0.14743894759E+02  0.26993819904E+03  0.28138385331E+03  0.41800000000E+01 0. -1.
         -5    1    3    3    0  502 -0.46029600816E+02  0.18278962817E+02  0.17249861463E+03  0.17951626411E+03  0.41800000000E+01 0. -1.
        -11    1    1    2    0    0 -0.61693112170E+02 -0.16155166260E+02  0.33163164955E+03  0.33770783300E+03  0.00000000000E+00 0.  1.
         11    1    1    2    0    0  0.29777945568E+02  0.12620098202E+02  0.14882269325E+03  0.15229637864E+03  0.00000000000E+00 0. -1.
</event>
<event>
 7    1  0.2440960E-009  0.1076442E+03  0.7561462E-02  0.1264996E+00
          1   -1    0    0  501    0  0.00000000000E+00  0.00000000000E+00  0.39570593302E+03  0.39570593302E+03  0.00000000000E+00 0. -1.
         -1   -1    0    0    0  501 -0.00000000000E+00 -0.00000000000E+00 -0.46866865874E+02  0.46866865874E+02  0.00000000000E+00 0.  1.
         25    2    1    2    0    0 -0.27310247543E+02 -0.62889324550E+02  0.25976934393E+03  0.29635731642E+03  0.12508649082E+03 0.  0.
          5    1    3    3  502    0  0.43935562663E+02  0.88374177661E+00  0.11104919090E+03  0.11950108730E+03  0.41800000000E+01 0. -1.
         -5    1    3    3    0  502 -0.71245810206E+02 -0.63773066326E+02  0.14872015303E+03  0.17685622912E+03  0.41800000000E+01 0. -1.
        -11    1    1    2    0    0 -0.56820985431E+01  0.22893043239E+02 -0.16374162219E+02  0.28713948892E+02  0.00000000000E+00 0.  1.
         11    1    1    2    0    0  0.32992346086E+02  0.39996281310E+02  0.10544388544E+03  0.11750153358E+03  0.00000000000E+00 0. -1.
</event>
<event>
 7    1  0.2440960E-009  0.1298452E+03  0.7561462E-02  0.1227686E+00
         -2   -1    0    0    0  501 -0.00000000000E+00  0.00000000000E+00  0.74616752027E+02  0.74616752027E+02  0.00000000000E+00 0.  1.
          2   -1    0    0  501    0  0.00000000000E+00 -0.00000000000E+00 -0.24309913881E+03  0.24309913881E+03  0.00000000000E+00 0. -1.
         25    2    1    2    0    0 -0.40412208637E+02  0.65395862918E+02 -0.65703489620E+02  0.16085601340E+03  0.12509173836E+03 0.  0.
          5    1    3    3  502    0  0.37776977861E+02 -0.72412722689E+01 -0.27317573100E+02  0.47363047626E+02  0.41800000000E+01 0.  1.
         -5    1    3    3    0  502 -0.78189186498E+02  0.72637135186E+02 -0.38385916520E+02  0.11349296578E+03  0.41800000000E+01 0.  1.
        -11    1    1    2    0    0 -0.23837826475E+02 -0.19805820445E+01 -0.63075092285E+01  0.24737610009E+02  0.00000000000E+00 0.  1.
         11    1    1    2    0    0  0.64250035112E+02 -0.63415280873E+02 -0.96471387936E+02  0.13212226743E+03  0.00000000000E+00 0. -1.
</event>
<event>
 7    1  0.2440960E-009  0.9966278E+02  0.7561462E-02  0.1281007E+00
          3   -1    0    0  501    0  0.00000000000E+00  0.00000000000E+00  0.19214116404E+03  0.19214116404E+03  0.00000000000E+00 0.  1.
         -3   -1    0    0    0  501 -0.00000000000E+00 -0.00000000000E+00 -0.80339393958E+02  0.80339393958E+02  0.00000000000E+00 0. -1.
         25    2    1    2    0    0 -0.19417438448E+01 -0.21315673349E+02  0.94456583722E+00  0.12691204344E+03  0.12509055227E+03 0.  0.
          5    1    3    3  502    0 -0.55927579159E+02 -0.40099642673E+02 -0.58767416461E+01  0.69194536963E+02  0.41800000000E+01 0.  1.
         -5    1    3    3    0  502  0.53985835315E+02  0.18783969324E+02  0.68213074833E+01  0.57717506478E+02  0.41800000000E+01 0.  1.
        -11    1    1    2    0    0 -0.33943862163E+02  0.88454590769E+01  0.10012420213E+03  0.10609092222E+03  0.00000000000E+00 0.  1.
         11    1    1    2    0    0  0.35885606008E+02  0.12470214272E+02  0.10733002113E+02  0.39477592339E+02  0.00000000000E+00 0. -1.
</event>
<event>
 7    1  0.2440960E-009  0.1836324E+03  0.7561462E-02  0.1164333E+00
         -1   -1    0    0    0  501 -0.00000000000E+00  0.00000000000E+00  0.39139655269E+03  0.39139655269E+03  0.00000000000E+00 0.  1.
          1   -1    0    0  501    0  0.00000000000E+00 -0.00000000000E+00 -0.12358294951E+03  0.12358294951E+03  0.00000000000E+00 0. -1.
         25    2    1    2    0    0  0.13555566178E+03 -0.10857224521E+03  0.23407768344E+03  0.31718026153E+03  0.12509071329E+03 0.  0.
          5    1    3    3  502    0  0.10050748942E+03 -0.62812843812E+02  0.58306872893E+02  0.13215283805E+03  0.41800000000E+01 0. -1.
         -5    1    3    3    0  502  0.35048172360E+02 -0.45759401394E+02  0.17577081055E+03  0.18502742349E+03  0.41800000000E+01 0. -1.
        -11    1    1    2    0    0  0.62279836846E+01  0.26145646270E+02  0.19448712990E+02  0.33175820059E+02  0.00000000000E+00 0.  1.
         11    1    1    2    0    0 -0.14178364546E+03  0.82426598936E+02  0.14287206749E+02  0.16462342060E+03  0.00000000000E+00 0. -1.
</event>
<event>
 7    1  0.2440960E-009  0.1562521E+03  0.7561462E-02  0.1192994E+00
         -3   -1    0    0    0  501 -0.00000000000E+00  0.00000000000E+00  0.65395661602E+02  0.65395661602E+02  0.00000000000E+00 0.  1.
          3   -1    0    0  501    0  0.00000000000E+00 -0.00000000000E+00 -0.65822744876E+03  0.65822744876E+03  0.00000000000E+00 0. -1.
         25    2    1    2    0    0  0.12685168617E+03 -0.90751802467E+02 -0.43826022033E+03  0.48171241840E+03  0.12509034086E+03 0.  0.
          5    1    3    3  502    0  0.49574585359E+02 -0.31831698825E+02 -0.33377763474E+03  0.33896294549E+03  0.41800000000E+01 0. -1.
         -5    1    3    3    0  502  0.77277100811E+02 -0.58920103642E+02 -0.10448258559E+03  0.14274947291E+03  0.41800000000E+01 0. -1.
        -11    1    1    2    0    0 -0.49349625559E+02  0.30572793119E+02 -0.12754332972E+03  0.14013344419E+03  0.00000000000E+00 0. -1.
         11    1    1    2    0    0 -0.77502060611E+02  0.60179009348E+02 -0.27028237103E+02  0.10177724778E+03  0.00000000000E+00 0.  1.
</event>
<event>
 7    1  0.2440960E-009  0.1019735E+03  0.7561462E-02  0.1276200E+00
          2   -1    0    0  501    0  0.00000000000E+00  0.00000000000E+00  0.65031610187E+03  0.65031610187E+03  0.00000000000E+00 0.  1.
         -2   -1    0    0    0  501 -0.00000000000E+00 -0.00000000000E+00 -0.19743507299E+02  0.19743507299E+02  0.00000000000E+00 0. -1.
         25    2    1    2    0    0  0.80365615168E+01  0.21820111153E+02  0.42968970391E+03  0.44813160151E+03  0.12509191440E+03 0.  0.
          5    1    3    3  502    0  0.20743185451E+02 -0.49811241151E+02  0.19701237855E+03  0.20431052149E+03  0.41800000000E+01 0. -1.
         -5    1    3    3    0  502 -0.12706623934E+02  0.71631352305E+02  0.23267732536E+03  0.24382108002E+03  0.41800000000E+01 0. -1.
        -11    1    1    2    0    0 -0.33826824892E+02  0.10675830056E+02  0.15925381978E+03  0.16315638677E+03  0.00000000000E+00 0. -1.
         11    1    1    2    0    0  0.25790263375E+02 -0.32495941210E+02  0.41629070879E+02  0.58771620892E+02  0.00000000000E+00 0.  1.
</event>
<event>
 7    1  0.2440960E-009  0.1156092E+03  0.7561462E-02  0.1250521E+00
         -4   -1    0    0    0  501 -0.00000000000E+00  0.00000000000E+00  0.84635901208E+02  0.84635901208E+02  0.00000000000E+00 0.  1.
          4   -1    0    0  501    0  0.00000000000E+00 -0.00000000000E+00 -0.27002185023E+03  0.27002185023E+03  0.00000000000E+00 0. -1.
         25    2    1    2    0    0  0.89120711714E+02  0.50662625415E+02 -0.11834721349E+03  0.20040669983E+03  0.12509028549E+03 0.  0.
          5    1    3    3  502    0  0.98438162355E+02  0.31160904803E+02 -0.27504501264E+02  0.10693476416E+03  0.41800000000E+01 0. -1.
         -5    1    3    3    0  502 -0.93174506413E+01  0.19501720612E+02 -0.90842712225E+02  0.93471935669E+02  0.41800000000E+01 0. -1.
        -11    1    1    2    0    0 -0.59932986619E+02 -0.47568758242E+02 -0.89164179965E+02  0.11749468343E+03  0.00000000000E+00 0. -1.
         11    1    1    2    0    0 -0.29187725095E+02 -0.30938671735E+01  0.22125444432E+02  0.36756368178E+02  0.00000000000E+00 0.  1.
</event>
<event>
 7    1  0.2440960E-009  0.1568491E+03  0.7561462E-02  0.1192301E+00
          2   -1    0    0  501    0  0.00000000000E+00  0.00000000000E+00  0.26777930087E+03  0.26777930087E+03  0.00000000000E+00 0. -1.
         -2   -1    0    0    0  501 -0.00000000000E+00 -0.00000000000E+00 -0.29148168472E+03  0.29148168472E+03  0.00000000000E+00 0.  1.
         25    2    1    2    0    0  0.13712557585E+03 -0.38817196298E+02 -0.22701968773E+03  0.29579643453E+03  0.12508954307E+03 0.  0.
          5    1    3    3  502    0  0.10456252163E+03  0.12476459816E+02 -0.67763438830E+02  0.12529301266E+03  0.41800000000E+01 0.  1.
         -5    1    3    3    0  502  0.32563054225E+02 -0.51293656114E+02 -0.15925624890E+03  0.17050342187E+03  0.41800000000E+01 0.  1.
        -11    1    1    2    0    0 -0.22322122494E+02  0.22072642681E+02  0.11054273884E+03  0.11491377558E+03  0.00000000000E+00 0. -1.
         11    1    1    2    0    0 -0.11480345336E+03  0.16744553617E+02  0.92774565039E+02  0.14855077548E+03  0.00000000000E+00 0.  1.
</event>
<event>
 7    1  0.2440960E-009  0.1006297E+03  0.7561462E-02  0.1278977E+00
          2   -1    0    0  501    0  0.00000000000E+00  0.00000000000E+00  0.22402152415E+03  0.22402152415E+03  0.00000000000E+00 0. -1.
         -2   -1    0    0    0  501 -0.00000000000E+00 -0.00000000000E+00 -0.90899844402E+02  0.90899844402E+02  0.00000000000E+00 0.  1.
         25    2    1    2    0    0  0.61422246310E+02 -0.43490262262E+02  0.11769087642E+03  0.18751625771E+03  0.12508840577E+03 0.  0.
          5    1    3    3  502    0  0.28380941890E+02 -0.98444595108E+01 -0.23648343322E+02  0.38459170395E+02  0.41800000000E+01 0. -1.
         -5    1    3    3    0  502  0.33041304420E+02 -0.33645802751E+02  0.14133921974E+03  0.14905708731E+03  0.41800000000E+01 0. -1.
        -11    1    1    2    0    0 -0.88310991878E+02  0.38026801590E+02  0.23157708430E+02  0.98899688500E+02  0.00000000000E+00 0.  1.
         11    1    1    2    0    0  0.26888745568E+02  0.54634606715E+01 -0.77269051012E+01  0.28505422346E+02  0.00000000000E+00 0. -1.
</event>
<event>
 7    1  0.2440960E-009  0.1234833E+03  0.7561462E-02  0.1237459E+00
         -2   -1    0    0    0  501 -0.00000000000E+00  0.00000000000E+00  0.14949912533E+03  0.14949912533E+03  0.00000000000E+00 0.  1.
          2   -1    0    0  501    0  0.00000000000E+00 -0.00000000000E+00 -0.15837872358E+03  0.15837872358E+03  0.00000000000E+00 0. -1.
         25    2    1    2    0    0  0.58862587019E+01  0.68622439203E+02 -0.93879765590E+02  0.17089509415E+03  0.12509210853E+03 0.  0.
          5    1    3    3  502    0 -0.58456755326E+02  0.37484941458E+02 -0.33415432731E+02  0.77177565549E+02  0.41800000000E+01 0. -1.
         -5    1    3    3    0  502  0.64343014028E+02  0.31137497744E+02 -0.60464332859E+02  0.93717528606E+02  0.41800000000E+01 0. -1.
        -11    1    1    2    0    0  0.35009767261E+02 -0.49548884152E+02  0.60304718195E+02  0.85542005827E+02  0.00000000000E+00 0.  1.
         11    1    1    2    0    0 -0.40896025963E+02 -0.19073555051E+02  0.24695449140E+02  0.51440748926E+02  0.00000000000E+00 0. -1.
</event>
<event>
 7    1  0.2907708E-009  0.1531827E+03  0.7561462E-02  0.1196616E+00
          2   -1    0    0  501    0  0.00000000000E+00  0.00000000000E+00  0.18673437331E+03  0.18673437331E+03  0.00000000000E+00 0. -1.
         -2   -1    0    0    0  501 -0.00000000000E+00 -0.00000000000E+00 -0.15224076461E+03  0.15224076461E+03  0.00000000000E+00 0.  1.
         25    2    1    2    0    0 -0.10786266705E+03 -0.68263647559E+02  0.46508861851E+01  0.17878203893E+03  0.12508839347E+03 0.  0.
          5    1    3    3  502    0 -0.11447512283E+03 -0.95929232247E+02  0.90951671574E+01  0.14969023285E+03  0.41800000000E+01 0. -1.
         -5    1    3    3    0  502  0.66124557744E+01  0.27665584688E+02 -0.44442809723E+01  0.29091806077E+02  0.41800000000E+01 0. -1.
        -11    1    1    2    0    0  0.55539848211E+02  0.28118056983E+02  0.61086168150E+02  0.87217084376E+02  0.00000000000E+00 0. -1.
         11    1    1    2    0    0  0.52322818844E+02  0.40145590576E+02 -0.31243445637E+02  0.72976014619E+02  0.00000000000E+00 0.  1.
</event>
<event>
 7    1  0.2440960E-009  0.1300472E+03  0.7561462E-02  0.1227386E+00
         -2   -1    0    0    0  501 -0.00000000000E+00  0.00000000000E+00  0.26619612983E+02  0.26619612983E+02  0.00000000000E+00 0.  1.
          2   -1    0    0  501    0  0.00000000000E+00 -0.00000000000E+00 -0.11528368438E+04  0.11528368438E+04  0.00000000000E+00 0. -1.
         25    2    1    2    0    0  0.97405971418E+02 -0.22188622315E+01 -0.92617520751E+03  0.93964724109E+03  0.12507428214E+03 0.  0.
          5    1    3    3  502    0 -0.22692505672E+02  0.21124921022E+02 -0.29932877414E+03  0.30095913265E+03  0.41800000000E+01 0.  1.
         -5    1    3    3    0  502  0.12009847709E+03 -0.23343783254E+02 -0.62684643338E+03  0.63868810843E+03  0.41800000000E+01 0.  1.
        -11    1    1    2    0    0 -0.75506044938E+02  0.20082743297E+02 -0.19632926603E+03  0.21130466181E+03  0.00000000000E+00 0. -1.
         11    1    1    2    0    0 -0.21899926481E+02 -0.17863881065E+02 -0.37127572861E+01  0.28504553903E+02  0.00000000000E+00 0.  1.
</event>
<event>
 7    1  0.2440960E-009  0.2804488E+03  0.7561462E-02  0.1095444E+00
         -2   -1    0    0    0  501 -0.00000000000E+00  0.00000000000E+00  0.42551204328E+03  0.42551204328E+03  0.00000000000E+00 0.  1.
          2   -1    0    0  501    0  0.00000000000E+00 -0.00000000000E+00 -0.19586822727E+03  0.19586822727E+03  0.00000000000E+00 0. -1.
         25    2    1    2    0    0  0.82635069643E+02  0.25293553720E+03  0.94008095315E+02  0.30869217236E+03  0.12509354331E+03 0.  0.
          5    1    3    3  502    0 -0.10020745616E+02 -0.23046093998E+01 -0.12738771362E+02  0.16896013228E+02  0.41800000000E+01 0. -1.
         -5    1    3    3    0  502  0.92655815259E+02  0.25524014660E+03  0.10674686668E+03  0.29179615913E+03  0.41800000000E+01 0. -1.
        -11    1    1    2    0    0  0.37279843521E+01 -0.11776366247E+03  0.33374441191E+02  0.12245828429E+03  0.00000000000E+00 0.  1.
         11    1    1    2    0    0 -0.86363053995E+02 -0.13517187473E+03  0.10226127951E+03  0.19022981391E+03  0.00000000000E+00 0. -1.
</event>
<event>
 7    1  0.2440960E-009  0.1194514E+03  0.7561462E-02  0.1244005E+00
          2   -1    0    0  501    0  0.00000000000E+00  0.00000000000E+00  0.15383018119E+04  0.15383018119E+04  0.00000000000E+00 0. -1.
         -2   -1    0    0    0  501 -0.00000000000E+00 -0.00000000000E+00 -0.17857996498E+02  0.17857996498E+02  0.00000000000E+00 0.  1.
         25    2    1    2    0    0 -0.48463410342E+02 -0.17638056069E+02  0.13462128403E+04  0.13529950697E+04  0.12508734543E+03 0.  0.
          5    1    3    3  502    0 -0.89204313765E+02 -0.26191096486E+02  0.97530101625E+03  0.97973104872E+03  0.41800000000E+01 0. -1.
         -5    1    3    3    0  502  0.40740903422E+02  0.85530404170E+01  0.37091182408E+03  0.37326402097E+03  0.41800000000E+01 0. -1.
        -11    1    1    2    0    0  0.57566895500E+02 -0.23269795811E+02  0.94165978502E+02  0.11279477985E+03  0.00000000000E+00 0. -1.
         11    1    1    2    0    0 -0.91034851574E+01  0.40907851879E+02  0.80064996602E+02  0.90369958882E+02  0.00000000000E+00 0.  1.
</event>
<event>
 7    1  0.2440960E-009  0.1814019E+03  0.7561462E-02  0.1166453E+00
          2   -1    0    0  501    0  0.00000000000E+00  0.00000000000E+00  0.29211425783E+04  0.29211425783E+04  0.00000000000E+00 0. -1.
         -2   -1    0    0    0  501 -0.00000000000E+00 -0.00000000000E+00 -0.27130754489E+02  0.27130754489E+02  0.00000000000E+00 0.  1.
         25    2    1    2    0    0  0.14276045217E+03 -0.98547519933E+02  0.24933977795E+04  0.25025530291E+04  0.12508803239E+03 0.  0.
          5    1    3    3  502    0  0.14156923269E+03 -0.72561131903E+02  0.24063249836E+04  0.24115812997E+04  0.41800000000E+01 0. -1.
         -5    1    3    3    0  502  0.11912194860E+01 -0.25986388030E+02  0.87072795890E+02  0.90971729404E+02  0.41800000000E+01 0. -1.
        -11    1    1    2    0    0 -0.68420822741E+02  0.69440003397E+02  0.30993717130E+03  0.32490671463E+03  0.00000000000E+00 0.  1.
         11    1    1    2    0    0 -0.74339629430E+02  0.29107516536E+02  0.90676873013E+02  0.12081358915E+03  0.00000000000E+00 0. -1.
</event>
<event>
 7    1  0.2440960E-009  0.1084074E+03  0.7561462E-02  0.1263548E+00
         -3   -1    0    0    0  501 -0.00000000000E+00  0.00000000000E+00  0.56958212855E+03  0.56958212855E+03  0.00000000000E+00 0.  1.
          3   -1    0    0  501    0  0.00000000000E+00 -0.00000000000E+00 -0.27831849359E+02  0.27831849359E+02  0.00000000000E+00 0. -1.
         25    2    1    2    0    0 -0.36570394603E+02  0.41324923470E+02  0.22358061691E+03  0.26206996417E+03  0.12508889160E+03 0.  0.
          5    1    3    3  502    0 -0.76938865035E+02  0.54049894265E+02  0.15011620106E+03  0.17718161937E+03  0.41800000000E+01 0. -1.
         -5    1    3    3    0  502  0.40368470432E+02 -0.12724970795E+02  0.73464415852E+02  0.84888344802E+02  0.41800000000E+01 0. -1.
        -11    1    1    2    0    0  0.51129672680E+02 -0.21262699663E+02  0.29879330058E+03  0.30388119767E+03  0.00000000000E+00 0.  1.
         11    1    1    2    0    0 -0.14559278077E+02 -0.20062223807E+02  0.19376361704E+02  0.31462816070E+02  0.00000000000E+00 0. -1.
</event>
<event>
 7    1  0.2440960E-009  0.1161504E+03  0.7561462E-02  0.1249586E+00
         -2   -1    0    0    0  501 -0.00000000000E+00  0.00000000000E+00  0.17409517523E+02  0.17409517523E+02  0.00000000000E+00 0.  1.
          2   -1    0    0  501    0  0.00000000000E+00 -0.00000000000E+00 -0.84747830392E+03  0.84747830392E+03  0.00000000000E+00 0. -1.
         25    2    1    2    0    0 -0.19742886973E+01  0.50352844629E+02 -0.43154861847E+03  0.45213069211E+03  0.12509454768E+03 0.  0.
          5    1    3    3  502    0  0.51669918316E+02  0.50132284033E+02 -0.32331614991E+03  0.33126097198E+03  0.41800000000E+01 0. -1.
         -5    1    3    3    0  502 -0.53644207014E+02  0.22056059555E+00 -0.10823246856E+03  0.12086972013E+03  0.41800000000E+01 0. -1.
        -11    1    1    2    0    0  0.80564842151E+01  0.27312506395E+02 -0.13461231798E+03  0.13759126460E+03  0.00000000000E+00 0.  1.
         11    1    1    2    0    0 -0.60821955178E+01 -0.77665351024E+02 -0.26390784994E+03  0.27516586473E+03  0.00000000000E+00 0. -1.
</event>
<event>
 7    1  0.2440960E-009  0.1261578E+03  0.7561462E-02  0.1233271E+00
          4   -1    0    0  501    0  0.00000000000E+00  0.00000000000E+00  0.47196709352E+03  0.47196709352E+03  0.00000000000E+00 0.  1.
         -4   -1    0    0    0  501 -0.00000000000E+00 -0.00000000000E+00 -0.49457005453E+02  0.49457005453E+02  0.00000000000E+00 0. -1.
         25    2    1    2    0    0  0.61897087706E+00  0.10053154043E+03  0.28966654059E+03  0.33115143517E+03  0.12509034548E+03 0.  0.
          5    1    3    3  502    0  0.30809855435E+02  0.53981150854E+01  0.18025041150E+03  0.18299199459E+03  0.41800000000E+01 0.  1.
         -5    1    3    3    0  502 -0.30190884557E+02  0.95133425342E+02  0.10941612909E+03  0.14815944058E+03  0.41800000000E+01 0.  1.
        -11    1    1    2    0    0 -0.32651878066E+02 -0.66745928673E+02  0.12139207381E+03  0.14232778969E+03  0.00000000000E+00 0.  1.
         11    1    1    2    0    0  0.32032907189E+02 -0.33785611754E+02  0.11451473675E+02  0.47944874115E+02  0.00000000000E+00 0. -1.
</event>
<event>
 7    1  0.2440960E-009  0.7960603E+02  0.7561462E-02  0.1330173E+00
         -4   -1    0    0    0  501 -0.00000000000E+00  0.00000000000E+00  0.89074997488E+02  0.89074997488E+02  0.00000000000E+00 0.  1.
          4   -1    0    0  501    0  0.00000000000E+00 -0.00000000000E+00 -0.33407099104E+03  0.33407099104E+03  0.00000000000E+00 0. -1.
         25    2    1    2    0    0 -0.15114726953E+01  0.15646069071E+02 -0.27981683715E+03  0.30690689113E+03  0.12508914201E+03 0.  0.
          5    1    3    3  502    0 -0.40502174764E+02 -0.24369932779E+02 -0.44645576129E+02  0.65153815331E+02  0.41800000000E+01 0.  1.
         -5    1    3    3    0  502  0.38990702069E+02  0.40016001850E+02 -0.23517126102E+03  0.24175307580E+03  0.41800000000E+01 0.  1.
        -11    1    1    2    0    0  0.17540206065E+02  0.13725016998E+02  0.66518926448E+02  0.70148431887E+02  0.00000000000E+00 0.  1.
         11    1    1    2    0    0 -0.16028733370E+02 -0.29371086069E+02 -0.31698082857E+02  0.46090665510E+02  0.00000000000E+00 0. -1.
</event>
<event>
 7    1  0.2440960E-009  0.1289385E+03  0.7561462E-02  0.1229039E+00
          2   -1    0    0  501    0  0.00000000000E+00  0.00000000000E+00  0.35687940415E+03  0.35687940415E+03  0.00000000000E+00 0. -1.
         -2   -1    0    0    0  501 -0.00000000000E+00 -0.00000000000E+00 -0.54671872822E+02  0.54671872822E+02  0.00000000000E+00 0.  1.
         25    2    1    2    0    0 -0.67063806133E+02  0.27529822849E+02  0.23747690125E+03  0.27802628108E+03  0.12509152290E+03 0.  0.
          5    1    3    3  502    0  0.25123970864E+02  0.41886797779E+02  0.60034396392E+02  0.77506895760E+02  0.41800000000E+01 0. -1.
         -5    1    3    3    0  502 -0.92187776998E+02 -0.14356974930E+02  0.17744250486E+03  0.20051938532E+03  0.41800000000E+01 0. -1.
        -11    1    1    2    0    0 -0.14587548979E+01  0.27524168171E+02  0.72521322286E+01  0.28500898604E+02  0.00000000000E+00 0.  1.
         11    1    1    2    0    0  0.68522561031E+02 -0.55053991020E+02  0.57478497851E+02  0.10502409730E+03  0.00000000000E+00 0. -1.
</event>
<event>
 7    1  0.2440960E-009  0.9513956E+02  0.7561462E-02  0.1290862E+00
         -1   -1    0    0    0  501 -0.00000000000E+00  0.00000000000E+00  0.39622803309E+02  0.39622803309E+02  0.00000000000E+00 0.  1.
          1   -1    0    0  501    0  0.00000000000E+00 -0.00000000000E+00 -0.36430361541E+03  0.36430361541E+03  0.00000000000E+00 0. -1.
         25    2    1    2    0    0 -0.23841066877E+01 -0.24812882160E+02 -0.25812669323E+03  0.28792055827E+03  0.12508994778E+03 0.  0.
          5    1    3    3  502    0  0.28646444731E+02  0.32164359975E+02 -0.35429767336E+02  0.55927682428E+02  0.41800000000E+01 0. -1.
         -5    1    3    3    0  502 -0.31030551419E+02 -0.56977242135E+02 -0.22269692589E+03  0.23199287585E+03  0.41800000000E+01 0. -1.
        -11    1    1    2    0    0 -0.31734209801E+02  0.34150124752E+02 -0.75714483839E+01  0.47229417982E+02  0.00000000000E+00 0.  1.
         11    1    1    2    0    0  0.34118316489E+02 -0.93372425923E+01 -0.58982670491E+02  0.68776442460E+02  0.00000000000E+00 0. -1.
</event>
<event>
 7    1  0.2440960E-009  0.1850310E+03  0.7561462E-02  0.1163021E+00
         -2   -1    0    0    0  501 -0.00000000000E+00  0.00000000000E+00  0.95801212948E+02  0.95801212948E+02  0.00000000000E+00 0.  1.
          2   -1    0    0  501    0  0.00000000000E+00 -0.00000000000E+00 -0.78156584983E+03  0.78156584983E+03  0.00000000000E+00 0. -1.
         25    2    1    2    0    0 -0.73359458412E+02 -0.15819782888E+03 -0.63817857660E+03  0.67329609265E+03  0.12509024557E+03 0.  0.
          5    1    3    3  502    0  0.91533639462E+01 -0.72925479173E+01 -0.96428552054E-01  0.12427671750E+02  0.41800000000E+01 0. -1.
         -5    1    3    3    0  502 -0.82512822358E+02 -0.15090528096E+03 -0.63808214805E+03  0.66086842090E+03  0.41800000000E+01 0. -1.
        -11    1    1    2    0    0  0.68994912337E+01  0.90368450136E+02  0.12806872969E+02  0.91531829188E+02  0.00000000000E+00 0.  1.
         11    1    1    2    0    0  0.66459967178E+02  0.67829378746E+02 -0.60392933247E+02  0.11253914094E+03  0.00000000000E+00 0. -1.
</event>
<event>
 7    1  0.2440960E-009  0.1382134E+03  0.7561462E-02  0.1215753E+00
         -1   -1    0    0    0  501 -0.00000000000E+00  0.00000000000E+00  0.22266416244E+02  0.22266416244E+02  0.00000000000E+00 0.  1.
          1   -1    0    0  501    0  0.00000000000E+00 -0.00000000000E+00 -0.14713191255E+04  0.14713191255E+04  0.00000000000E+00 0. -1.
         25    2    1    2    0    0  0.80800855301E+02 -0.80991956782E+02 -0.11555233378E+04  0.11678914340E+04  0.12509093525E+03 0.  0.
          5    1    3    3  502    0  0.27729348939E+00 -0.58193906489E+02 -0.19043284528E+03  0.19917014989E+03  0.41800000000E+01 0.  1.
         -5    1    3    3    0  502  0.80523561811E+02 -0.22798050293E+02 -0.96509049254E+03  0.96872128411E+03  0.41800000000E+01 0.  1.
        -11    1    1    2    0    0 -0.65297246173E+02  0.15667771856E+02 -0.96697974822E+02  0.11772726009E+03  0.00000000000E+00 0.  1.
         11    1    1    2    0    0 -0.15503609128E+02  0.65324184925E+02 -0.19683139663E+03  0.20796684767E+03  0.00000000000E+00 0. -1.
</event>
<event>
 7    1  0.2440960E-009  0.1041495E+03  0.7561462E-02  0.1271804E+00
          2   -1    0    0  501    0  0.00000000000E+00  0.00000000000E+00  0.75589941990E+02  0.75589941990E+02  0.00000000000E+00 0.  1.
         -2   -1    0    0    0  501 -0.00000000000E+00 -0.00000000000E+00 -0.15385568176E+03  0.15385568176E+03  0.00000000000E+00 0. -1.
         25    2    1    2    0    0 -0.62314577496E+01 -0.36162660165E+01 -0.22576855532E+02  0.12731517490E+03  0.12509009117E+03 0.  0.
          5    1    3    3  502    0 -0.42170077583E+02 -0.50590312741E+02 -0.11047355064E+02  0.66911969337E+02  0.41800000000E+01 0.  1.
         -5    1    3    3    0  502  0.35938619834E+02  0.46974046725E+02 -0.11529500468E+02  0.60403205563E+02  0.41800000000E+01 0.  1.
        -11    1    1    2    0    0  0.43975803918E+02  0.89968092049E+01 -0.17528214156E+02  0.48187676823E+02  0.00000000000E+00 0.  1.
         11    1    1    2    0    0 -0.37744346168E+02 -0.53805431884E+01 -0.38160670077E+02  0.53942772022E+02  0.00000000000E+00 0. -1.
</event>
<event>
 7    1  0.3022443E-009  0.1237574E+03  0.7561462E-02  0.1237024E+00
          1   -1    0    0  501    0  0.00000000000E+00  0.00000000000E+00  0.10753316975E+03  0.10753316975E+03  0.00000000000E+00 0. -1.
         -1   -1    0    0    0  501 -0.00000000000E+00 -0.00000000000E+00 -0.19180817314E+03  0.19180817314E+03  0.00000000000E+00 0.  1.
         25    2    1    2    0    0  0.38202392252E+02 -0.80751055524E+02 -0.76045031514E+02  0.17149142722E+03  0.12508519917E+03 0.  0.
          5    1    3    3  502    0  0.55867935541E+01 -0.87769628258E+02  0.32537948371E+00  0.88047136118E+02  0.41800000000E+01 0.  1.
         -5    1    3    3    0  502  0.32615598698E+02  0.70185727340E+01 -0.76370410998E+02  0.83444291102E+02  0.41800000000E+01 0.  1.
        -11    1    1    2    0    0 -0.56698132229E+02  0.16595858566E+02 -0.14371279940E+02  0.60799954005E+02  0.00000000000E+00 0.  1.
         11    1    1    2    0    0  0.18495739978E+02  0.64155196958E+02  0.61413080690E+01  0.67049961662E+02  0.00000000000E+00 0. -1.
</event>
<event>
 7    1  0.2440960E-009  0.1390153E+03  0.7561462E-02  0.1214660E+00
         -1   -1    0    0    0  501 -0.00000000000E+00  0.00000000000E+00  0.19331092123E+03  0.19331092123E+03  0.00000000000E+00 0.  1.
          1   -1    0    0  501    0  0.00000000000E+00 -0.00000000000E+00 -0.11405957338E+03  0.11405957338E+03  0.00000000000E+00 0. -1.
         25    2    1    2    0    0  0.45412622226E+02 -0.89144121569E+02  0.28814845265E+02  0.16274596345E+03  0.12508785970E+03 0.  0.
          5    1    3    3  502    0  0.78141077955E+02 -0.29488164833E+02 -0.10126777022E+02  0.84235407888E+02  0.41800000000E+01 0. -1.
         -5    1    3    3    0  502 -0.32728455729E+02 -0.59655956736E+02  0.38941622287E+02  0.78510555563E+02  0.41800000000E+01 0. -1.
        -11    1    1    2    0    0 -0.57386417356E+02  0.96432759314E+02  0.24077830450E+02  0.11477029182E+03  0.00000000000E+00 0. -1.
         11    1    1    2    0    0  0.11973795130E+02 -0.72886377448E+01  0.26358672130E+02  0.29854239338E+02  0.00000000000E+00 0.  1.
</event>
<event>
 7    1  0.2440960E-009  0.1282186E+03  0.7561462E-02  0.1230123E+00
         -2   -1    0    0    0  501 -0.00000000000E+00  0.00000000000E+00  0.18105966683E+03  0.18105966683E+03  0.00000000000E+00 0.  1.
          2   -1    0    0  501    0  0.00000000000E+00 -0.00000000000E+00 -0.12830901164E+03  0.12830901164E+03  0.00000000000E+00 0. -1.
         25    2    1    2    0    0 -0.75494198930E+02  0.67236751131E+02  0.64374422419E+02  0.17323865307E+03  0.12508960741E+03 0.  0.
          5    1    3    3  502    0 -0.16733931996E+02  0.89499142044E+02  0.13208698663E+02  0.92098116306E+02  0.41800000000E+01 0.  1.
         -5    1    3    3    0  502 -0.58760266935E+02 -0.22262390913E+02  0.51165723756E+02  0.81140536767E+02  0.41800000000E+01 0.  1.
        -11    1    1    2    0    0  0.39379544187E+02 -0.24565733753E+02  0.39067344467E+02  0.60666969423E+02  0.00000000000E+00 0.  1.
         11    1    1    2    0    0  0.36114654743E+02 -0.42671017378E+02 -0.50691111703E+02  0.75463055975E+02  0.00000000000E+00 0. -1.
</event>
<event>
 7    1  0.2440960E-009  0.8197448E+02  0.7561462E-02  0.1323540E+00
         -1   -1    0    0    0  501 -0.00000000000E+00  0.00000000000E+00  0.24094986673E+02  0.24094986673E+02  0.00000000000E+00 0.  1.
          1   -1    0    0  501    0  0.00000000000E+00 -0.00000000000E+00 -0.66659222585E+03  0.66659222585E+03  0.00000000000E+00 0. -1.
         25    2    1    2    0    0 -0.37806926125E+02  0.39210075691E+02 -0.23863990542E+03  0.27488848616E+03  0.12509149319E+03 0.  0.
          5    1    3    3  502    0 -0.11592543218E+02  0.37955435823E+02 -0.55516280887E+01  0.40290137022E+02  0.41800000000E+01 0.  1.
         -5    1    3    3    0  502 -0.26214382907E+02  0.12546398676E+01 -0.23308827733E+03  0.23459834914E+03  0.41800000000E+01 0.  1.
        -11    1    1    2    0    0  0.29362605700E+02 -0.64465839227E+02 -0.25892823991E+03  0.26844336546E+03  0.00000000000E+00 0.  1.
         11    1    1    2    0    0  0.84443204252E+01  0.25255763536E+02 -0.14492909385E+03  0.14735536089E+03  0.00000000000E+00 0. -1.
</event>
<event>
 7    1  0.2440960E-009  0.1130539E+03  0.7561462E-02  0.1255017E+00
         -1   -1    0    0    0  501 -0.00000000000E+00  0.00000000000E+00  0.16542330299E+02  0.16542330299E+02  0.00000000000E+00 0.  1.
          1   -1    0    0  501    0  0.00000000000E+00 -0.00000000000E+00 -0.83879178103E+03  0.83879178103E+03  0.00000000000E+00 0. -1.
         25    2    1    2    0    0  0.29042161384E+02  0.32205484773E+02 -0.49983876832E+03  0.51707500472E+03  0.12508847192E+03 0.  0.
          5    1    3    3  502    0 -0.36529300224E+02 -0.18147899985E+02 -0.89158041455E+02  0.98134422120E+02  0.41800000000E+01 0.  1.
         -5    1    3    3    0  502  0.65571461608E+02  0.50353384758E+02 -0.41068072686E+03  0.41894058260E+03  0.41800000000E+01 0.  1.
        -11    1    1    2    0    0  0.22121588166E+02 -0.44508641878E+02 -0.15721450416E+03  0.16488415382E+03  0.00000000000E+00 0.  1.
         11    1    1    2    0    0 -0.51163749549E+02  0.12303157105E+02 -0.16519617826E+03  0.17337495279E+03  0.00000000000E+00 0. -1.
</event>
<event>
 7    1  0.2440960E-009  0.1519173E+03  0.7561462E-02  0.1198137E+00
          1   -1    0    0  501    0  0.00000000000E+00  0.00000000000E+00  0.56668238469E+03  0.56668238469E+03  0.00000000000E+00 0. -1.
         -1   -1    0    0    0  501 -0.00000000000E+00 -0.00000000000E+00 -0.56236846231E+02  0.56236846231E+02  0.00000000000E+00 0.  1.
         25    2    1    2    0    0  0.98657102353E+02 -0.72968031062E+02  0.15124453213E+03  0.23147225847E+03  0.12508773138E+03 0.  0.
          5    1    3    3  502    0  0.11866060350E+03 -0.51155957937E+02  0.15444151284E+03  0.20141232371E+03  0.41800000000E+01 0. -1.
         -5    1    3    3    0  502 -0.20003501148E+02 -0.21812073124E+02 -0.31969807062E+01  0.30059934760E+02  0.41800000000E+01 0. -1.
        -11    1    1    2    0    0 -0.95019819205E+02  0.27323393514E+02  0.16886056710E+03  0.19567632713E+03  0.00000000000E+00 0.  1.
         11    1    1    2    0    0 -0.36372831488E+01  0.45644637547E+02  0.19034043923E+03  0.19577064533E+03  0.00000000000E+00 0. -1.
</event>
<event>
 7    1  0.2440960E-009  0.9597810E+02  0.7561462E-02  0.1288988E+00
          2   -1    0    0  501    0  0.00000000000E+00  0.00000000000E+00  0.13309197393E+03  0.13309197393E+03  0.00000000000E+00 0. -1.
         -2   -1    0    0    0  501 -0.00000000000E+00 -0.00000000000E+00 -0.11020070326E+03  0.11020070326E+03  0.00000000000E+00 0.  1.
         25    2    1    2    0    0 -0.19293327266E+02  0.27524417233E+02  0.51578508676E+02  0.13942075978E+03  0.12509188495E+03 0.  0.
          5    1    3    3  502    0  0.26706174900E+02  0.48595261112E+02 -0.13166388640E+02  0.57144950522E+02  0.41800000000E+01 0.  1.
         -5    1    3    3    0  502 -0.45999502166E+02 -0.21070843879E+02  0.64744897316E+02  0.82275809262E+02  0.41800000000E+01 0.  1.
        -11    1    1    2    0    0 -0.14274333579E+01 -0.52843900694E+02 -0.43016947815E+02  0.68154040276E+02  0.00000000000E+00 0.  1.
         11    1    1    2    0    0  0.20720760624E+02  0.25319483461E+02  0.14329709802E+02  0.35717877129E+02  0.00000000000E+00 0. -1.
</event>
<event>
 7    1  0.2440960E-009  0.1012338E+03  0.7561462E-02  0.1277723E+00
          1   -1    0    0  501    0  0.00000000000E+00  0.00000000000E+00  0.18475882005E+03  0.18475882005E+03  0.00000000000E+00 0. -1.
         -1   -1    0    0    0  501 -0.00000000000E+00 -0.00000000000E+00 -0.68256652233E+02  0.68256652233E+02  0.00000000000E+00 0.  1.
         25    2    1    2    0    0 -0.42260128662E+01 -0.12532115120E+02  0.10284714988E+03  0.16247548061E+03  0.12508330212E+03 0.  0.
          5    1    3    3  502    0  0.55008602651E+02 -0.23911740429E+02  0.28193115798E+02  0.66408146144E+02  0.41800000000E+01 0.  1.
         -5    1    3    3    0  502 -0.59234615517E+02  0.11379625309E+02  0.74654034078E+02  0.96067334468E+02  0.41800000000E+01 0.  1.
        -11    1    1    2    0    0 -0.15572782889E+02  0.42893127100E+02  0.25666407694E+02  0.52355481119E+02  0.00000000000E+00 0. -1.
         11    1    1    2    0    0  0.19798795756E+02 -0.30361011980E+02 -0.12011389758E+02  0.38184510547E+02  0.00000000000E+00 0.  1.
</event>
<event>
 7    1  0.2440960E-009  0.1007794E+03  0.7561462E-02  0.1278666E+00
          1   -1    0    0  501    0  0.00000000000E+00  0.00000000000E+00  0.37423929212E+03  0.37423929212E+03  0.00000000000E+00 0. -1.
         -1   -1    0    0    0  501 -0.00000000000E+00 -0.00000000000E+00 -0.92211151220E+02  0.92211151220E+02  0.00000000000E+00 0.  1.
         25    2    1    2    0    0  0.32415820147E+02 -0.10627557062E+02 -0.33349559745E+02  0.13387672069E+03  0.12508818027E+03 0.  0.
          5    1    3    3  502    0  0.50070277765E+02  0.29723436007E+02 -0.58782502504E+02  0.82845460734E+02  0.41800000000E+01 0.  1.
         -5    1    3    3    0  502 -0.17654457617E+02 -0.40350993069E+02  0.25432942760E+02  0.51031259958E+02  0.41800000000E+01 0.  1.
        -11    1    1    2    0    0 -0.56808968930E+02  0.33119862065E+02  0.14818260495E+03  0.16211807001E+03  0.00000000000E+00 0.  1.
         11    1    1    2    0    0  0.24393148783E+02 -0.22492305003E+02  0.16719509570E+03  0.17045565265E+03  0.00000000000E+00 0. -1.
</event>
<event>
 7    1  0.2440960E-009  0.8079583E+02  0.7561462E-02  0.1326808E+00
          2   -1    0    0  501    0  0.00000000000E+00  0.00000000000E+00  0.13207371153E+03  0.13207371153E+03  0.00000000000E+00 0. -1.
         -2   -1    0    0    0  501 -0.00000000000E+00 -0.00000000000E+00 -0.18987413443E+03  0.18987413443E+03  0.00000000000E+00 0.  1.
         25    2    1    2    0    0 -0.58953566770E+02 -0.17587578905E+02  0.67848457586E+02  0.15503292379E+03  0.12508776238E+03 0.  0.
          5    1    3    3  502    0  0.99346276911E+01 -0.10801989681E+02  0.82714032861E+02  0.84109829631E+02  0.41800000000E+01 0. -1.
         -5    1    3    3    0  502 -0.68888194461E+02 -0.67855892233E+01 -0.14865575275E+02  0.70923094161E+02  0.41800000000E+01 0. -1.
        -11    1    1    2    0    0  0.55762364232E+02 -0.32948526809E+01 -0.20245231421E+02  0.59415206085E+02  0.00000000000E+00 0. -1.
         11    1    1    2    0    0  0.31912025380E+01  0.20882431586E+02 -0.10540364906E+03  0.10749971608E+03  0.00000000000E+00 0.  1.
</event>
<event>
 7    1  0.2440960E-009  0.1785167E+03  0.7561462E-02  0.1169246E+00
          1   -1    0    0  501    0  0.00000000000E+00  0.00000000000E+00  0.90961148133E+03  0.90961148133E+03  0.00000000000E+00 0. -1.
         -1   -1    0    0    0  501 -0.00000000000E+00 -0.00000000000E+00 -0.46134355518E+02  0.46134355518E+02  0.00000000000E+00 0.  1.
         25    2    1    2    0    0  0.14558423526E+03  0.78576921748E+02  0.57267279438E+03  0.60907380712E+03  0.12509065077E+03 0.  0.
          5    1    3    3  502    0  0.14480810050E+03  0.61584131311E+02  0.32845006002E+03  0.36422370259E+03  0.41800000000E+01 0. -1.
         -5    1    3    3    0  502  0.77613476046E+00  0.16992790437E+02  0.24422273436E+03  0.24485010453E+03  0.41800000000E+01 0. -1.
        -11    1    1    2    0    0 -0.96624328646E+02 -0.89757827158E+02  0.16510076566E+03  0.21130781161E+03  0.00000000000E+00 0.  1.
         11    1    1    2    0    0 -0.48959906611E+02  0.11180905410E+02  0.12570356577E+03  0.13536421813E+03  0.00000000000E+00 0. -1.
</event>
<event>
 7    1  0.2440960E-009  0.4870192E+02  0.7561462E-02  0.1452471E+00
          2   -1    0    0  501    0  0.00000000000E+00  0.00000000000E+00  0.11240696863E+03  0.11240696863E+03  0.00000000000E+00 0.  1.
         -2   -1    0    0    0  501 -0.00000000000E+00 -0.00000000000E+00 -0.16276753923E+03  0.16276753923E+03  0.00000000000E+00 0. -1.
         25    2    1    2    0    0  0.29805015152E+02  0.36812744286E+00 -0.10508365923E+03  0.16606540419E+03  0.12508664432E+03 0.  0.
          5    1    3    3  502    0 -0.13082836667E+02 -0.63745810244E+00  0.25271156281E+02  0.28769266725E+02  0.41800000000E+01 0.  1.
         -5    1    3    3    0  502  0.42887851819E+02  0.10055855453E+01 -0.13035481552E+03  0.13729613747E+03  0.41800000000E+01 0.  1.
        -11    1    1    2    0    0 -0.14242218433E+02  0.13561171523E+02 -0.22050004865E+02  0.29545708208E+02  0.00000000000E+00 0. -1.
         11    1    1    2    0    0 -0.15562796720E+02 -0.13929298966E+02  0.76773093499E+02  0.79563395459E+02  0.00000000000E+00 0.  1.
</event>
<event>
 7    1  0.2440960E-009  0.1323441E+03  0.7561462E-02  0.1224018E+00
          2   -1    0    0  501    0  0.00000000000E+00  0.00000000000E+00  0.15714383439E+04  0.15714383439E+04  0.00000000000E+00 0.  1.
         -2   -1    0    0    0  501 -0.00000000000E+00 -0.00000000000E+00 -0.20820526757E+02  0.20820526757E+02  0.00000000000E+00 0. -1.
         25    2    1    2    0    0 -0.94838741293E+02 -0.76992873398E+02  0.11877699806E+04  0.12005688176E+04  0.12508265059E+03 0.  0.
          5    1    3    3  502    0 -0.50948960305E+02 -0.53951229933E+02  0.23438411742E+03  0.24588598713E+03  0.41800000000E+01 0.  1.
         -5    1    3    3    0  502 -0.43889780988E+02 -0.23041643465E+02  0.95338586320E+03  0.95468283045E+03  0.41800000000E+01 0.  1.
        -11    1    1    2    0    0  0.41052244241E+02  0.76511916453E+02  0.16245220861E+03  0.18420119489E+03  0.00000000000E+00 0. -1.
         11    1    1    2    0    0  0.53786497051E+02  0.48095694485E+00  0.20039562788E+03  0.20748885816E+03  0.00000000000E+00 0.  1.
</event>
<event>
 7    1  0.2440960E-009  0.1396949E+03  0.7561462E-02  0.1213740E+00
         -2   -1    0    0    0  501 -0.00000000000E+00  0.00000000000E+00  0.56652821635E+02  0.56652821635E+02  0.00000000000E+00 0. -1.
          2   -1    0    0  501    0  0.00000000000E+00 -0.00000000000E+00 -0.44778954012E+03  0.44778954012E+03  0.00000000000E+00 0.  1.
         25    2    1    2    0    0  0.55087294832E+02 -0.91576321759E+02 -0.14158543871E+03  0.21705982687E+03  0.12509076396E+03 0.  0.
          5    1    3    3  502    0  0.91553810600E+02 -0.38422231644E+02 -0.94390180278E+02  0.13705964633E+03  0.41800000000E+01 0. -1.
         -5    1    3    3    0  502 -0.36466515768E+02 -0.53154090116E+02 -0.47195258428E+02  0.80000180539E+02  0.41800000000E+01 0. -1.
        -11    1    1    2    0    0 -0.58019918309E+02  0.59141309413E+02 -0.81541912576E+02  0.11624581242E+03  0.00000000000E+00 0. -1.
         11    1    1    2    0    0  0.29326234767E+01  0.32435012347E+02 -0.16800936720E+03  0.17113672246E+03  0.00000000000E+00 0.  1.
</event>
<event>
 7    1  0.2440960E-009  0.8555288E+02  0.7561462E-02  0.1313993E+00
          1   -1    0    0  501    0  0.00000000000E+00  0.00000000000E+00  0.44772948627E+03  0.44772948627E+03  0.00000000000E+00 0. -1.
         -1   -1    0    0    0  501 -0.00000000000E+00 -0.00000000000E+00 -0.32045999762E+02  0.32045999762E+02  0.00000000000E+00 0.  1.
         25    2    1    2    0    0 -0.40371490382E+02  0.95763316545E+01  0.17905576170E+03  0.22232679961E+03  0.12508667661E+03 0.  0.
          5    1    3    3  502    0 -0.64840141209E+02  0.89846592131E+01  0.31623375110E+02  0.72818117708E+02  0.41800000000E+01 0.  1.
         -5    1    3    3    0  502  0.24468650828E+02  0.59167244140E+00  0.14743238659E+03  0.14950868190E+03  0.41800000000E+01 0.  1.
        -11    1    1    2    0    0  0.79765963259E+01 -0.37239087086E+02  0.19205027703E+03  0.19578989913E+03  0.00000000000E+00 0. -1.
         11    1    1    2    0    0  0.32394894056E+02  0.27662755432E+02  0.44577447782E+02  0.61658787287E+02  0.00000000000E+00 0.  1.
</event>
<event>
 7    1  0.2440960E-009  0.7948905E+02  0.7561462E-02  0.1330508E+00
         -2   -1    0    0    0  501 -0.00000000000E+00  0.00000000000E+00  0.57747688948E+02  0.57747688948E+02  0.00000000000E+00 0.  1.
          2   -1    0    0  501    0  0.00000000000E+00 -0.00000000000E+00 -0.27886624401E+03  0.27886624401E+03  0.00000000000E+00 0. -1.
         25    2    1    2    0    0 -0.44073002045E+02 -0.72394299116E+01 -0.18571647007E+03  0.22833277630E+03  0.12510160120E+03 0.  0.
          5    1    3    3  502    0 -0.28179407903E+01 -0.15523639885E+02  0.15627234165E+02  0.22596615525E+02  0.41800000000E+01 0.  1.
         -5    1    3    3    0  502 -0.41255061255E+02  0.82842099731E+01 -0.20134370424E+03  0.20573616078E+03  0.41800000000E+01 0.  1.
        -11    1    1    2    0    0 -0.16476582096E+02 -0.26388299635E+02 -0.14436581552E+01  0.31143286019E+02  0.00000000000E+00 0.  1.
         11    1    1    2    0    0  0.60549584141E+02  0.33627729546E+02 -0.33958426838E+02  0.77137870643E+02  0.00000000000E+00 0. -1.
</event>
<event>
 7    1  0.2440960E-009  0.4008221E+03  0.7561462E-02  0.1043495E+00
          2   -1    0    0  501    0  0.00000000000E+00  0.00000000000E+00  0.50848772239E+03  0.50848772239E+03  0.00000000000E+00 0.  1.
         -2   -1    0    0    0  501 -0.00000000000E+00 -0.00000000000E+00 -0.52489277285E+03  0.52489277285E+03  0.00000000000E+00 0. -1.
         25    2    1    2    0    0 -0.38694298564E+03  0.75525676399E+02 -0.32437768836E+03  0.52563945550E+03  0.12508777135E+03 0.  0.
          5    1    3    3  502    0 -0.20995823943E+03  0.89832661211E+02 -0.23149599887E+03  0.32520799378E+03  0.41800000000E+01 0. -1.
         -5    1    3    3    0  502 -0.17698474620E+03 -0.14306984811E+02 -0.92881689485E+02  0.20043146171E+03  0.41800000000E+01 0. -1.
        -11    1    1    2    0    0  0.29511135403E+03 -0.71791614575E+02  0.27611621277E+03  0.41046913423E+03  0.00000000000E+00 0.  1.
         11    1    1    2    0    0  0.91831631605E+02 -0.37340618243E+01  0.31856425121E+02  0.97271905514E+02  0.00000000000E+00 0. -1.
</event>
<event>
 7    1  0.2440960E-009  0.7727243E+02  0.7561462E-02  0.1336975E+00
         -1   -1    0    0    0  501 -0.00000000000E+00  0.00000000000E+00  0.14830119240E+03  0.14830119240E+03  0.00000000000E+00 0.  1.
          1   -1    0    0  501    0  0.00000000000E+00 -0.00000000000E+00 -0.10229072861E+03  0.10229072861E+03  0.00000000000E+00 0. -1.
         25    2    1    2    0    0  0.56246965608E+02  0.18381211514E+01  0.35373993242E+02  0.14165702706E+03  0.12509314165E+03 0.  0.
          5    1    3    3  502    0  0.76855407382E+02  0.24344322688E+01 -0.22377935039E+02  0.80193045090E+02  0.41800000000E+01 0.  1.
         -5    1    3    3    0  502 -0.20608441774E+02 -0.59631111737E+00  0.57751928280E+02  0.61463981968E+02  0.41800000000E+01 0.  1.
        -11    1    1    2    0    0 -0.25758487422E+02 -0.33471440451E+01  0.51646775476E+02  0.57810833454E+02  0.00000000000E+00 0.  1.
         11    1    1    2    0    0 -0.30488478186E+02  0.15090228937E+01 -0.41010304924E+02  0.51124060502E+02  0.00000000000E+00 0. -1.
</event>
<event>
 7    1  0.2440960E-009  0.1324486E+03  0.7561462E-02  0.1223867E+00
         -1   -1    0    0    0  501 -0.00000000000E+00  0.00000000000E+00  0.63276763108E+03  0.63276763108E+03  0.00000000000E+00 0.  1.
          1   -1    0    0  501    0  0.00000000000E+00 -0.00000000000E+00 -0.33847658511E+02  0.33847658511E+02  0.00000000000E+00 0. -1.
         25    2    1    2    0    0 -0.83105180097E+02  0.52824325018E+02  0.32506997467E+03  0.36196044910E+03  0.12509195819E+03 0.  0.
          5    1    3    3  502    0 -0.32177670211E+01  0.59225156361E+02  0.22992839813E+03  0.23749213427E+03  0.41800000000E+01 0. -1.
         -5    1    3    3    0  502 -0.79887413076E+02 -0.64008313429E+01  0.95141576538E+02  0.12446831483E+03  0.41800000000E+01 0. -1.
        -11    1    1    2    0    0  0.33526956509E+02  0.18522975929E+02  0.13947498895E+03  0.14463896429E+03  0.00000000000E+00 0.  1.
         11    1    1    2    0    0  0.49578223588E+02 -0.71347300947E+02  0.13437500894E+03  0.16001587620E+03  0.00000000000E+00 0. -1.
</event>
<event>
 7    1  0.2440960E-009  0.8209798E+02  0.7561462E-02  0.1323201E+00
         -2   -1    0    0    0  501 -0.00000000000E+00  0.00000000000E+00  0.16698228886E+02  0.16698228886E+02  0.00000000000E+00 0. -1.
          2   -1    0    0  501    0  0.00000000000E+00 -0.00000000000E+00 -0.19523940475E+04  0.19523940475E+04  0.00000000000E+00 0.  1.
         25    2    1    2    0    0 -0.21217785359E+00 -0.15574414227E+01 -0.18158329283E+04  0.18201371033E+04  0.12508948982E+03 0.  0.
          5    1    3    3  502    0  0.57802138526E+02  0.17208603770E+02 -0.11178495919E+04  0.11194830976E+04  0.41800000000E+01 0. -1.
         -5    1    3    3    0  502 -0.58014316380E+02 -0.18766045193E+02 -0.69798333643E+03  0.70065400569E+03  0.41800000000E+01 0. -1.
        -11    1    1    2    0    0 -0.48501639850E+00  0.22082542444E+02 -0.12568326020E+03  0.12760938764E+03  0.00000000000E+00 0.  1.
         11    1    1    2    0    0  0.69719425209E+00 -0.20525101021E+02  0.58203699028E+01  0.21345785476E+02  0.00000000000E+00 0. -1.
</event>
<event>
 7    1  0.2440960E-009  0.1131010E+03  0.7561462E-02  0.1254933E+00
          2   -1    0    0  501    0  0.00000000000E+00  0.00000000000E+00  0.41514949005E+03  0.41514949005E+03  0.00000000000E+00 0. -1.
         -2   -1    0    0    0  501 -0.00000000000E+00 -0.00000000000E+00 -0.31847332766E+02  0.31847332766E+02  0.00000000000E+00 0.  1.
         25    2    1    2    0    0  0.16353361995E+02 -0.32543109801E+02  0.23387347045E+03  0.26772206432E+03  0.12510722241E+03 0.  0.
          5    1    3    3  502    0  0.41131910043E+02  0.35645206677E+02  0.72612884965E+02  0.90843372052E+02  0.41800000000E+01 0. -1.
         -5    1    3    3    0  502 -0.24778548049E+02 -0.68188316478E+02  0.16126058549E+03  0.17687869227E+03  0.41800000000E+01 0. -1.
        -11    1    1    2    0    0 -0.22055085741E+01 -0.32400665834E+02  0.45217964981E+02  0.55671642436E+02  0.00000000000E+00 0.  1.
         11    1    1    2    0    0 -0.14147853420E+02  0.64943775635E+02  0.10421072185E+03  0.12360311605E+03  0.00000000000E+00 0. -1.
</event>
<event>
 7    1  0.2641053E-009  0.1650493E+03  0.7561462E-02  0.1183111E+00
          2   -1    0    0  501    0  0.00000000000E+00  0.00000000000E+00  0.69317345627E+03  0.69317345627E+03  0.00000000000E+00 0. -1.
         -2   -1    0    0    0  501 -0.00000000000E+00 -0.00000000000E+00 -0.44830048304E+02  0.44830048304E+02  0.00000000000E+00 0.  1.
         25    2    1    2    0    0 -0.99052424420E+02  0.91679230289E+02  0.27722370070E+03  0.33274189234E+03  0.12509085752E+03 0.  0.
          5    1    3    3  502    0 -0.91297884549E+02 -0.50263331973E+00  0.13493353087E+03  0.16297265573E+03  0.41800000000E+01 0. -1.
         -5    1    3    3    0  502 -0.77545398706E+01  0.92181863609E+02  0.14229016983E+03  0.16976923660E+03  0.41800000000E+01 0. -1.
        -11    1    1    2    0    0  0.98620037947E+02 -0.62150695304E+02  0.35014435734E+03  0.36903887572E+03  0.00000000000E+00 0. -1.
         11    1    1    2    0    0  0.43238647280E+00 -0.29528534986E+02  0.20975349919E+02  0.36222736516E+02  0.00000000000E+00 0.  1.
</event>
<event>
 7    1  0.2440960E-009  0.1121068E+03  0.7561462E-02  0.1256717E+00
         -2   -1    0    0    0  501 -0.00000000000E+00  0.00000000000E+00  0.13709183088E+02  0.13709183088E+02  0.00000000000E+00 0.  1.
          2   -1    0    0  501    0  0.00000000000E+00 -0.00000000000E+00 -0.12827682643E+04  0.12827682643E+04  0.00000000000E+00 0. -1.
         25    2    1    2    0    0 -0.25142603332E+02  0.38434381615E+02 -0.98436298754E+03  0.99334181314E+03  0.12509242304E+03 0.  0.
          5    1    3    3  502    0  0.33269063460E+02  0.57703956964E+02 -0.64321863679E+03  0.64667168203E+03  0.41800000000E+01 0. -1.
         -5    1    3    3    0  502 -0.58411666792E+02 -0.19269575349E+02 -0.34114435075E+03  0.34667013111E+03  0.41800000000E+01 0. -1.
        -11    1    1    2    0    0  0.45257100824E+02 -0.53952181776E+02 -0.25243040170E+03  0.26206898099E+03  0.00000000000E+00 0. -1.
         11    1    1    2    0    0 -0.20114497492E+02  0.15517800161E+02 -0.32265691948E+02  0.41066653237E+02  0.00000000000E+00 0.  1.
</event>
<event>
 7    1  0.3457024E-009  0.1074673E+03  0.7561462E-02  0.1265333E+00
          2   -1    0    0  501    0  0.00000000000E+00  0.00000000000E+00  0.61128093100E+03  0.61128093100E+03  0.00000000000E+00 0.  1.
         -2   -1    0    0    0  501 -0.00000000000E+00 -0.00000000000E+00 -0.33139059822E+02  0.33139059822E+02  0.00000000000E+00 0. -1.
         25    2    1    2    0    0 -0.65569377999E+02 -0.40623636481E+02  0.42722422947E+03  0.45179399938E+03  0.12509057700E+03 0.  0.
          5    1    3    3  502    0  0.31744658133E+02 -0.14490074274E+02  0.20182731756E+03  0.20486440415E+03  0.41800000000E+01 0. -1.
         -5    1    3    3    0  502 -0.97314036133E+02 -0.26133562207E+02  0.22539691191E+03  0.24692959523E+03  0.41800000000E+01 0. -1.
        -11    1    1    2    0    0  0.27869747620E+02  0.27144393017E+02  0.14738541245E+03  0.15243359442E+03  0.00000000000E+00 0.  1.
         11    1    1    2    0    0  0.37699630379E+02  0.13479243464E+02  0.35322292555E+01  0.40192397024E+02  0.00000000000E+00 0. -1.
</event>
<event>
 7    1  0.2440960E-009  0.1077310E+03  0.7561462E-02  0.1264830E+00
         -2   -1    0    0    0  501 -0.00000000000E+00  0.00000000000E+00  0.21875463156E+02  0.21875463156E+02  0.00000000000E+00 0.  1.
          2   -1    0    0  501    0  0.00000000000E+00 -0.00000000000E+00 -0.11423462077E+04  0.11423462077E+04  0.00000000000E+00 0. -1.
         25    2    1    2    0    0 -0.31278062242E+02 -0.24468693781E+02 -0.99427185385E+03  0.10028958824E+04  0.12508636018E+03 0.  0.
          5    1    3    3  502    0  0.36172345088E+02 -0.32581057035E+02 -0.65758923472E+03  0.65940203051E+03  0.41800000000E+01 0. -1.
         -5    1    3    3    0  502 -0.67450407330E+02  0.81123632541E+01 -0.33668261913E+03  0.34349385193E+03  0.41800000000E+01 0. -1.
        -11    1    1    2    0    0 -0.39618416379E+01  0.53028185525E+02 -0.83725797718E+02  0.99185149356E+02  0.00000000000E+00 0. -1.
         11    1    1    2    0    0  0.35239903880E+02 -0.28559491744E+02 -0.42473092932E+02  0.62140639016E+02  0.00000000000E+00 0.  1.
</event>
<event>
 7    1  0.2440960E-009  0.1037775E+03  0.7561462E-02  0.1272547E+00
         -1   -1    0    0    0  501 -0.00000000000E+00  0.00000000000E+00  0.20293138187E+03  0.20293138187E+03  0.00000000000E+00 0.  1.
          1   -1    0    0  501    0  0.00000000000E+00 -0.00000000000E+00 -0.70189745859E+02  0.70189745859E+02  0.00000000000E+00 0. -1.
         25    2    1    2    0    0  0.42304399479E+02  0.12967049253E+02  0.49322540998E+02  0.14155263937E+03  0.12508649041E+03 0.  0.
          5    1    3    3  502    0  0.44909619199E+02 -0.43434134498E+02  0.56680913048E+02  0.84460619464E+02  0.41800000000E+01 0. -1.
         -5    1    3    3    0  502 -0.26052197202E+01  0.56401183751E+02 -0.73583720503E+01  0.57092019911E+02  0.41800000000E+01 0. -1.
        -11    1    1    2    0    0 -0.10230374015E+02  0.31712807917E+02  0.65899710623E+02  0.73845342430E+02  0.00000000000E+00 0.  1.
         11    1    1    2    0    0 -0.32074025464E+02 -0.44679857170E+02  0.17519384393E+02  0.57723145927E+02  0.00000000000E+00 0. -1.
</event>
<event>
 7    1  0.2440960E-009  0.1357630E+03  0.7561462E-02  0.1219147E+00
          2   -1    0    0  501    0  0.00000000000E+00  0.00000000000E+00  0.16493992155E+03  0.16493992155E+03  0.00000000000E+00 0. -1.
         -2   -1    0    0    0  501 -0.00000000000E+00 -0.00000000000E+00 -0.13847927275E+03  0.13847927275E+03  0.00000000000E+00 0.  1.
         25    2    1    2    0    0 -0.64370434101E+02 -0.56978167890E+02  0.75608741749E+02  0.16957126860E+03  0.12509064275E+03 0.  0.
          5    1    3    3  502    0 -0.14835309972E+01 -0.79889828304E+02  0.61807033283E+02  0.10110473428E+03  0.41800000000E+01 0.  1.
         -5    1    3    3    0  502 -0.62886903104E+02  0.22911660414E+02  0.13801708466E+02  0.68466534318E+02  0.41800000000E+01 0.  1.
        -11    1    1    2    0    0  0.33696122375E+02 -0.21650410313E+02 -0.14127514687E+02  0.42470643992E+02  0.00000000000E+00 0.  1.
         11    1    1    2    0    0  0.30674311726E+02  0.78628578203E+02 -0.35020578264E+02  0.91377281706E+02  0.00000000000E+00 0. -1.
</event>
<event>
 7    1  0.2440960E-009  0.7893560E+02  0.7561462E-02  0.1332099E+00
         -2   -1    0    0    0  501 -0.00000000000E+00  0.00000000000E+00  0.11171758105E+03  0.11171758105E+03  0.00000000000E+00 0.  1.
          2   -1    0    0  501    0  0.00000000000E+00 -0.00000000000E+00 -0.16973809593E+03  0.16973809593E+03  0.00000000000E+00 0. -1.
         25    2    1    2    0    0  0.16971702462E+02  0.54577104420E+02 -0.98640748037E+02  0.16924579028E+03  0.12508973317E+03 0.  0.
          5    1    3    3  502    0 -0.12200816629E+01  0.46255769138E+02  0.18741395673E+02  0.50097875101E+02  0.41800000000E+01 0. -1.
         -5    1    3    3    0  502  0.18191784124E+02  0.83213352815E+01 -0.11738214371E+03  0.11914791518E+03  0.41800000000E+01 0. -1.
        -11    1    1    2    0    0 -0.44595910537E+02 -0.39102243895E+02 -0.17246012505E+01  0.59335950011E+02  0.00000000000E+00 0. -1.
         11    1    1    2    0    0  0.27624208075E+02 -0.15474860525E+02  0.42344834401E+02  0.52873936684E+02  0.00000000000E+00 0.  1.
</event>
<event>
 7    1  0.2440960E-009  0.3098585E+03  0.7561462E-02  0.1080414E+00
         -2   -1    0    0    0  501 -0.00000000000E+00  0.00000000000E+00  0.87177168288E+02  0.87177168288E+02  0.00000000000E+00 0.  1.
          2   -1    0    0  501    0  0.00000000000E+00 -0.00000000000E+00 -0.12329939927E+04  0.12329939927E+04  0.00000000000E+00 0. -1.
         25    2    1    2    0    0 -0.14255006616E+03  0.26114349941E+03 -0.75157063110E+03  0.81793764522E+03  0.12508848589E+03 0.  0.
          5    1    3    3  502    0 -0.51835008140E+02  0.19343855630E+03 -0.38106385503E+03  0.43050258669E+03  0.41800000000E+01 0. -1.
         -5    1    3    3    0  502 -0.90715058024E+02  0.67704943105E+02 -0.37050677606E+03  0.38743505853E+03  0.41800000000E+01 0. -1.
        -11    1    1    2    0    0  0.18281072044E+02 -0.10499890696E+03 -0.96361428530E+02  0.14368191593E+03  0.00000000000E+00 0.  1.
         11    1    1    2    0    0  0.12426899412E+03 -0.15614459245E+03 -0.29788476478E+03  0.35855159983E+03  0.00000000000E+00 0. -1.
</event>
<event>
 7    1  0.2440960E-009  0.1628739E+03  0.7561462E-02  0.1185490E+00
          3   -1    0    0  501    0  0.00000000000E+00  0.00000000000E+00  0.50175395490E+02  0.50175395490E+02  0.00000000000E+00 0. -1.
         -3   -1    0    0    0  501 -0.00000000000E+00 -0.00000000000E+00 -0.71690946743E+03  0.71690946743E+03  0.00000000000E+00 0.  1.
         25    2    1    2    0    0  0.10111203855E+03  0.10463070722E+03 -0.23739073215E+03  0.30524061805E+03  0.12508495498E+03 0.  0.
          5    1    3    3  502    0  0.96090662095E+02  0.11249736725E+03 -0.24906320185E+03  0.28972232206E+03  0.41800000000E+01 0. -1.
         -5    1    3    3    0  502  0.50213764505E+01 -0.78666600288E+01  0.11672469703E+02  0.15518295990E+02  0.41800000000E+01 0. -1.
        -11    1    1    2    0    0 -0.37823807702E+02 -0.96570781599E+02 -0.30387900994E+03  0.32109034394E+03  0.00000000000E+00 0.  1.
         11    1    1    2    0    0 -0.63288230844E+02 -0.80599256219E+01 -0.12546432986E+03  0.14075390094E+03  0.00000000000E+00 0. -1.
</event>
<event>
 7    1  0.2440960E-009  0.1100427E+03  0.7561462E-02  0.1260491E+00
          2   -1    0    0  501    0  0.00000000000E+00  0.00000000000E+00  0.51785328313E+03  0.51785328313E+03  0.00000000000E+00 0.  1.
         -2   -1    0    0    0  501 -0.00000000000E+00 -0.00000000000E+00 -0.37229416920E+02  0.37229416920E+02  0.00000000000E+00 0. -1.
         25    2    1    2    0    0  0.11567057634E+01  0.72266302097E+02  0.18237278090E+03  0.23266046263E+03  0.12508918127E+03 0.  0.
          5    1    3    3  502    0  0.26268742472E+02  0.44217535504E+01 -0.86801344502E+01  0.28326945999E+02  0.41800000000E+01 0. -1.
         -5    1    3    3    0  502 -0.25112036709E+02  0.67844548547E+02  0.19105291535E+03  0.20433351663E+03  0.41800000000E+01 0. -1.
        -11    1    1    2    0    0 -0.34652933046E+02 -0.79201886234E+02  0.18669715495E+03  0.20574156658E+03  0.00000000000E+00 0. -1.
         11    1    1    2    0    0  0.33496227282E+02  0.69355841368E+01  0.11155393036E+03  0.11668067084E+03  0.00000000000E+00 0.  1.
</event>
<event>
 7    1  0.2440960E-009  0.1073457E+03  0.7561462E-02  0.1265566E+00
         -1   -1    0    0    0  501 -0.00000000000E+00  0.00000000000E+00  0.15134497270E+02  0.15134497270E+02  0.00000000000E+00 0.  1.
          1   -1    0    0  501    0  0.00000000000E+00 -0.00000000000E+00 -0.10409825000E+04  0.10409825000E+04  0.00000000000E+00 0. -1.
         25    2    1    2    0    0 -0.55528170868E+01 -0.17590511333E+02 -0.82554990200E+03  0.83517721887E+03  0.12509231133E+03 0.  0.
          5    1    3    3  502    0 -0.50312828084E+02  0.30489306575E+02 -0.32369921017E+03  0.32902831117E+03  0.41800000000E+01 0. -1.
         -5    1    3    3    0  502  0.44760010997E+02 -0.48079817907E+02 -0.50185069183E+03  0.50614890770E+03  0.41800000000E+01 0. -1.
        -11    1    1    2    0    0  0.45090602738E+02 -0.32293806286E+01 -0.71316272123E+02  0.84436970718E+02  0.00000000000E+00 0.  1.
         11    1    1    2    0    0 -0.39537785651E+02  0.20819891961E+02 -0.12898182864E+03  0.13650280771E+03  0.00000000000E+00 0. -1.
</event>
<event>
 7    1  0.2440960E-009  0.1513948E+03  0.7561462E-02  0.1198769E+00
         -2   -1    0    0    0  501 -0.00000000000E+00  0.00000000000E+00  0.20949601849E+02  0.20949601849E+02  0.00000000000E+00 0.  1.
          2   -1    0    0  501    0  0.00000000000E+00 -0.00000000000E+00 -0.18673801969E+04  0.18673801969E+04  0.00000000000E+00 0. -1.
         25    2    1    2    0    0 -0.89873616914E+02  0.94175422988E+02 -0.14358975993E+04  0.14472025232E+04  0.12508777001E+03 0.  0.
          5    1    3    3  502    0 -0.42171163903E+00  0.77737671841E+02 -0.92378657341E+03  0.92706117871E+03  0.41800000000E+01 0.  1.
         -5    1    3    3    0  502 -0.89451905275E+02  0.16437751147E+02 -0.51211102585E+03  0.52014134447E+03  0.41800000000E+01 0.  1.
        -11    1    1    2    0    0  0.65101143514E+02 -0.45973068243E+02 -0.35381276816E+03  0.36267775891E+03  0.00000000000E+00 0. -1.
         11    1    1    2    0    0  0.24772473400E+02 -0.48202354745E+02 -0.56720227583E+02  0.78449516623E+02  0.00000000000E+00 0.  1.
</event>
<event>
 7    1  0.2440960E-009  0.1145367E+03  0.7561462E-02  0.1252392E+00
         -1   -1    0    0    0  501 -0.00000000000E+00  0.00000000000E+00  0.58428552975E+02  0.58428552975E+02  0.00000000000E+00 0.  1.
          1   -1    0    0  501    0  0.00000000000E+00 -0.00000000000E+00 -0.24813002938E+03  0.24813002938E+03  0.00000000000E+00 0. -1.
         25    2    1    2    0    0  0.41192426421E+02 -0.14251409953E+02 -0.14841557306E+03  0.19893216962E+03  0.12508759773E+03 0.  0.
          5    1    3    3  502    0 -0.32335932140E+02  0.29674770043E+02 -0.70033878053E+02  0.82755186905E+02  0.41800000000E+01 0. -1.
         -5    1    3    3    0  502  0.73528358561E+02 -0.43926179996E+02 -0.78381695004E+02  0.11617698272E+03  0.41800000000E+01 0. -1.
        -11    1    1    2    0    0 -0.47473980796E+02 -0.28932774807E+02 -0.26137016564E+02  0.61433117661E+02  0.00000000000E+00 0. -1.
         11    1    1    2    0    0  0.62815543746E+01  0.43184184760E+02 -0.15148886785E+02  0.46193295072E+02  0.00000000000E+00 0.  1.
</event>
<event>
 7    1  0.2440960E-009  0.1766832E+03  0.7561462E-02  0.1171052E+00
         -1   -1    0    0    0  501 -0.00000000000E+00  0.00000000000E+00  0.19113497544E+03  0.19113497544E+03  0.00000000000E+00 0.  1.
          1   -1    0    0  501    0  0.00000000000E+00 -0.00000000000E+00 -0.19156027363E+03  0.19156027363E+03  0.00000000000E+00 0. -1.
         25    2    1    2    0    0 -0.11201647471E+03 -0.10642162995E+03 -0.30459209731E+02  0.20111642920E+03  0.12508717244E+03 0.  0.
          5    1    3    3  502    0 -0.12334371458E+03 -0.75187916278E+02  0.14296985431E+02  0.14521973307E+03  0.41800000000E+01 0.  1.
         -5    1    3    3    0  502  0.11327239873E+02 -0.31233713676E+02 -0.44756195162E+02  0.55896696133E+02  0.41800000000E+01 0.  1.
        -11    1    1    2    0    0  0.59035007066E+02  0.10719805788E+03  0.37667757370E+02  0.12804458450E+03  0.00000000000E+00 0.  1.
         11    1    1    2    0    0  0.52981467641E+02 -0.77642793063E+00 -0.76338458298E+01  0.53534235363E+02  0.00000000000E+00 0. -1.
</event>
<event>
 7    1  0.2440960E-009  0.1352167E+03  0.7561462E-02  0.1219914E+00
         -2   -1    0    0    0  501 -0.00000000000E+00  0.00000000000E+00  0.88647376500E+02  0.88647376500E+02  0.00000000000E+00 0. -1.
          2   -1    0    0  501    0  0.00000000000E+00 -0.00000000000E+00 -0.45474095018E+03  0.45474095018E+03  0.00000000000E+00 0.  1.
         25    2    1    2    0    0 -0.81615906037E+02 -0.95924873724E+02 -0.34169156835E+03  0.38504884277E+03  0.12508695342E+03 0.  0.
          5    1    3    3  502    0 -0.55251916748E+02 -0.98329883016E+02 -0.13210182744E+03  0.17375242563E+03  0.41800000000E+01 0.  1.
         -5    1    3    3    0  502 -0.26363989289E+02  0.24050092916E+01 -0.20958974091E+03  0.21129641714E+03  0.41800000000E+01 0.  1.
        -11    1    1    2    0    0  0.23178334575E+02  0.67374643363E+01  0.30106191535E+02  0.38587710325E+02  0.00000000000E+00 0. -1.
         11    1    1    2    0    0  0.58437571462E+02  0.89187409388E+02 -0.54508196858E+02  0.11975177358E+03  0.00000000000E+00 0.  1.
</event>
<event>
 7    1  0.2440960E-009  0.1716742E+03  0.7561462E-02  0.1176113E+00
         -1   -1    0    0    0  501 -0.00000000000E+00  0.00000000000E+00  0.20490556188E+03  0.20490556188E+03  0.00000000000E+00 0.  1.
          1   -1    0    0  501    0  0.00000000000E+00 -0.00000000000E+00 -0.27651244489E+03  0.27651244489E+03  0.00000000000E+00 0. -1.
         25    2    1    2    0    0  0.16363509306E+02  0.15038378375E+03 -0.18677071346E+03  0.27095219121E+03  0.12509493859E+03 0.  0.
          5    1    3    3  502    0 -0.19562278228E+01 -0.16887890732E+02  0.24735405900E+01  0.17681020437E+02  0.41800000000E+01 0.  1.
         -5    1    3    3    0  502  0.18319737128E+02  0.16727167448E+03 -0.18924425405E+03  0.25327117077E+03  0.41800000000E+01 0.  1.
        -11    1    1    2    0    0 -0.29802246133E+02 -0.70952015056E+02  0.94209561267E+01  0.77531391896E+02  0.00000000000E+00 0.  1.
         11    1    1    2    0    0  0.13438736827E+02 -0.79431768692E+02  0.10574287432E+03  0.13293442367E+03  0.00000000000E+00 0. -1.
</event>
<event>
 7    1  0.2440960E-009  0.1208828E+03  0.7561462E-02  0.1241648E+00
         -3   -1    0    0    0  501 -0.00000000000E+00  0.00000000000E+00  0.16708416638E+03  0.16708416638E+03  0.00000000000E+00 0.  1.
          3   -1    0    0  501    0  0.00000000000E+00 -0.00000000000E+00 -0.11401627360E+03  0.11401627360E+03  0.00000000000E+00 0. -1.
         25    2    1    2    0    0  0.63894219376E+02 -0.47353313547E+02  0.23693374744E+02  0.15011438649E+03  0.12509254755E+03 0.  0.
          5    1    3    3  502    0  0.54941520261E+02  0.20888436925E+02  0.49026327710E+02  0.76654749719E+02  0.41800000000E+01 0.  1.
         -5    1    3    3    0  502  0.89526991148E+01 -0.68241750473E+02 -0.25332952966E+02  0.73459636774E+02  0.41800000000E+01 0.  1.
        -11    1    1    2    0    0 -0.79083250843E+02  0.55533167770E+02  0.46003089130E+02  0.10702512554E+03  0.00000000000E+00 0.  1.
         11    1    1    2    0    0  0.15189031467E+02 -0.81798542226E+01 -0.16628571095E+02  0.23960927959E+02  0.00000000000E+00 0. -1.
</event>
<event>
 7    1  0.2440960E-009  0.2291268E+03  0.7561462E-02  0.1127256E+00
          1   -1    0    0  501    0  0.00000000000E+00  0.00000000000E+00  0.37004522168E+03  0.37004522168E+03  0.00000000000E+00 0. -1.
         -1   -1    0    0    0  501 -0.00000000000E+00 -0.00000000000E+00 -0.20976731399E+03  0.20976731399E+03  0.00000000000E+00 0.  1.
         25    2    1    2    0    0 -0.21664172205E+03  0.71247822244E+02 -0.39990164403E+02  0.26316924451E+03  0.12509576371E+03 0.  0.
          5    1    3    3  502    0 -0.11366289415E+03  0.22518845125E+02 -0.81629810508E+02  0.14180003617E+03  0.41800000000E+01 0.  1.
         -5    1    3    3    0  502 -0.10297882790E+03  0.48728977119E+02  0.41639646105E+02  0.12136920834E+03  0.41800000000E+01 0.  1.
        -11    1    1    2    0    0  0.21872273921E+02 -0.10631902377E+02  0.71240971555E+02  0.75277551386E+02  0.00000000000E+00 0.  1.
         11    1    1    2    0    0  0.19476944813E+03 -0.60615919867E+02  0.12902710054E+03  0.24136573978E+03  0.00000000000E+00 0. -1.
</event>
<event>
 7    1  0.2440960E-009  0.1929371E+03  0.7561462E-02  0.1155839E+00
         -2   -1    0    0    0  501 -0.00000000000E+00  0.00000000000E+00  0.79310235733E+02  0.79310235733E+02  0.00000000000E+00 0.  1.
          2   -1    0    0  501    0  0.00000000000E+00 -0.00000000000E+00 -0.66272563576E+03  0.66272563576E+03  0.00000000000E+00 0. -1.
         25    2    1    2    0    0  0.25237585671E+02 -0.17585608741E+03 -0.45547037819E+03  0.50463966578E+03  0.12508248344E+03 0.  0.
          5    1    3    3  502    0 -0.25795677607E+02 -0.83338324859E+02 -0.95301993222E+02  0.12926962399E+03  0.41800000000E+01 0. -1.
         -5    1    3    3    0  502  0.51033263278E+02 -0.92517762550E+02 -0.36016838497E+03  0.37537004180E+03  0.41800000000E+01 0. -1.
        -11    1    1    2    0    0  0.84482162826E+01  0.15023011820E+03 -0.12383258474E+03  0.19487167525E+03  0.00000000000E+00 0.  1.
         11    1    1    2    0    0 -0.33685801954E+02  0.25625969213E+02 -0.41124370920E+01  0.42524530453E+02  0.00000000000E+00 0. -1.
</event>
<event>
 7    1  0.2440960E-009  0.1161694E+03  0.7561462E-02  0.1249554E+00
         -4   -1    0    0    0  501 -0.00000000000E+00  0.00000000000E+00  0.39527104897E+02  0.39527104897E+02  0.00000000000E+00 0.  1.
          4   -1    0    0  501    0  0.00000000000E+00 -0.00000000000E+00 -0.44844824485E+03  0.44844824485E+03  0.00000000000E+00 0. -1.
         25    2    1    2    0    0  0.18286723318E+02 -0.61041161122E+02 -0.30914544842E+03  0.33952547231E+03  0.12508481310E+03 0.  0.
          5    1    3    3  502    0 -0.18387622863E+02 -0.82578448030E+02 -0.12858753783E+03  0.15397899870E+03  0.41800000000E+01 0. -1.
         -5    1    3    3    0  502  0.36674346180E+02  0.21537286908E+02 -0.18055791059E+03  0.18554647361E+03  0.41800000000E+01 0. -1.
        -11    1    1    2    0    0 -0.23425057037E+02  0.80984526559E+02 -0.59412377860E+02  0.10313611144E+03  0.00000000000E+00 0.  1.
         11    1    1    2    0    0  0.51383337193E+01 -0.19943365438E+02 -0.40363313672E+02  0.45313765999E+02  0.00000000000E+00 0. -1.
</event>
<event>
 7    1  0.2440960E-009  0.2112766E+03  0.7561462E-02  0.1140559E+00
          1   -1    0    0  501    0  0.00000000000E+00  0.00000000000E+00  0.19899111210E+03  0.19899111210E+03  0.00000000000E+00 0. -1.
         -1   -1    0    0    0  501 -0.00000000000E+00 -0.00000000000E+00 -0.27927734305E+03  0.27927734305E+03  0.00000000000E+00 0.  1.
         25    2    1    2    0    0  0.59842519581E+02 -0.20078392553E+03 -0.43865579257E+02  0.24793225282E+03  0.12510356126E+03 0.  0.
          5    1    3    3  502    0  0.18480131449E+02 -0.57271707993E+02 -0.74039629870E+02  0.95503418714E+02  0.41800000000E+01 0. -1.
         -5    1    3    3    0  502  0.41362388131E+02 -0.14351221754E+03  0.30174050613E+02  0.15242883410E+03  0.41800000000E+01 0. -1.
        -11    1    1    2    0    0 -0.55159030847E+02  0.12196059261E+03 -0.61749837142E+02  0.14741081107E+03  0.00000000000E+00 0.  1.
         11    1    1    2    0    0 -0.46834887335E+01  0.78823332921E+02  0.25329185450E+02  0.82925391256E+02  0.00000000000E+00 0. -1.
</event>
<event>
 7    1  0.2440960E-009  0.3642608E+03  0.7561462E-02  0.1056909E+00
          1   -1    0    0  501    0  0.00000000000E+00  0.00000000000E+00  0.14500838773E+04  0.14500838773E+04  0.00000000000E+00 0. -1.
         -1   -1    0    0    0  501 -0.00000000000E+00 -0.00000000000E+00 -0.15622020903E+03  0.15622020903E+03  0.00000000000E+00 0.  1.
         25    2    1    2    0    0  0.33353775776E+03 -0.13369893724E+03  0.11442853812E+04  0.12058850669E+04  0.12508764570E+03 0.  0.
          5    1    3    3  502    0  0.23978255709E+02 -0.15715110599E+01  0.17828201549E+02  0.30211646170E+02  0.41800000000E+01 0. -1.
         -5    1    3    3    0  502  0.30955950206E+03 -0.13212742618E+03  0.11264571797E+04  0.11756734207E+04  0.41800000000E+01 0. -1.
        -11    1    1    2    0    0 -0.27592610178E+03  0.76480184871E+02  0.91520195771E+02  0.30060003087E+03  0.00000000000E+00 0.  1.
         11    1    1    2    0    0 -0.57611655982E+02  0.57218752369E+02  0.58058091297E+02  0.99818988639E+02  0.00000000000E+00 0. -1.
</event>
<event>
 7    1  0.2860267E-009  0.1043283E+03  0.7561462E-02  0.1271449E+00
          1   -1    0    0  501    0  0.00000000000E+00  0.00000000000E+00  0.47326708359E+03  0.47326708359E+03  0.00000000000E+00 0. -1.
         -1   -1    0    0    0  501 -0.00000000000E+00 -0.00000000000E+00 -0.32792059585E+02  0.32792059585E+02  0.00000000000E+00 0.  1.
         25    2    1    2    0    0  0.77946850383E+01 -0.50284643039E+02  0.17746545962E+03  0.22299688996E+03  0.12507726066E+03 0.  0.
          5    1    3    3  502    0 -0.28291409825E+02  0.31434924370E+02  0.80889445112E+02  0.91373590662E+02  0.41800000000E+01 0. -1.
         -5    1    3    3    0  502  0.36086094863E+02 -0.81719567409E+02  0.96576014509E+02  0.13162329930E+03  0.41800000000E+01 0. -1.
        -11    1    1    2    0    0  0.15485085725E+02  0.51140426110E+02  0.25143456455E+03  0.25704955030E+03  0.00000000000E+00 0. -1.
         11    1    1    2    0    0 -0.23279770763E+02 -0.85578307085E+00  0.11574999840E+02  0.26012702911E+02  0.00000000000E+00 0.  1.
</event>
<event>
 7    1  0.2440960E-009  0.2340400E+03  0.7561462E-02  0.1123828E+00
          2   -1    0    0  501    0  0.00000000000E+00  0.00000000000E+00  0.62585287847E+02  0.62585287847E+02  0.00000000000E+00 0. -1.
         -2   -1    0    0    0  501 -0.00000000000E+00 -0.00000000000E+00 -0.11402144643E+04  0.11402144643E+04  0.00000000000E+00 0.  1.
         25    2    1    2    0    0  0.91521497097E+02 -0.19379129049E+03 -0.81399599797E+03  0.85098074457E+03  0.12508994450E+03 0.  0.
          5    1    3    3  502    0  0.76043201151E+02 -0.28850391033E+02 -0.23355889340E+03  0.24735024275E+03  0.41800000000E+01 0. -1.
         -5    1    3    3    0  502  0.15478295946E+02 -0.16494089946E+03 -0.58043710457E+03  0.60363050182E+03  0.41800000000E+01 0. -1.
        -11    1    1    2    0    0  0.24620464235E+01  0.44127232965E+02 -0.10662410571E+03  0.11542085722E+03  0.00000000000E+00 0.  1.
         11    1    1    2    0    0 -0.93983543521E+02  0.14966405753E+03 -0.15700907281E+03  0.23639815040E+03  0.00000000000E+00 0. -1.
</event>
<event>
 7    1  0.2440960E-009  0.9599211E+02  0.7561462E-02  0.1288957E+00
          1   -1    0    0  501    0  0.00000000000E+00  0.00000000000E+00  0.45766630718E+03  0.45766630718E+03  0.00000000000E+00 0. -1.
         -1   -1    0    0    0  501 -0.00000000000E+00 -0.00000000000E+00 -0.34913521813E+02  0.34913521813E+02  0.00000000000E+00 0.  1.
         25    2    1    2    0    0 -0.61676103690E+02  0.17220799185E+02  0.25866150591E+03  0.29436994803E+03  0.12508954383E+03 0.  0.
          5    1    3    3  502    0  0.23055939960E+02 -0.34148547691E+01  0.25865931446E+01  0.23820169282E+02  0.41800000000E+01 0.  1.
         -5    1    3    3    0  502 -0.84732043650E+02  0.20635653954E+02  0.25607491276E+03  0.27054977875E+03  0.41800000000E+01 0.  1.
        -11    1    1    2    0    0  0.35855143176E+02 -0.34635135901E+02  0.25179821049E+02  0.55849864092E+02  0.00000000000E+00 0.  1.
         11    1    1    2    0    0  0.25820960514E+02  0.17414336716E+02  0.13891145841E+03  0.14236001687E+03  0.00000000000E+00 0. -1.
</event>
<event>
 7    1  0.2440960E-009  0.8709062E+02  0.7561462E-02  0.1310054E+00
         -2   -1    0    0    0  501 -0.00000000000E+00  0.00000000000E+00  0.18866789047E+02  0.18866789047E+02  0.00000000000E+00 0.  1.
          2   -1    0    0  501    0  0.00000000000E+00 -0.00000000000E+00 -0.74713446017E+03  0.74713446017E+03  0.00000000000E+00 0. -1.
         25    2    1    2    0    0 -0.86685731104E+01  0.27026640789E+02 -0.54789524920E+03  0.56271028993E+03  0.12509229725E+03 0.  0.
          5    1    3    3  502    0 -0.17941376933E+01 -0.35715924805E+02 -0.40304949833E+03  0.40465444112E+03  0.41800000000E+01 0. -1.
         -5    1    3    3    0  502 -0.68744354171E+01  0.62742565594E+02 -0.14484575087E+03  0.15805584882E+03  0.41800000000E+01 0. -1.
        -11    1    1    2    0    0  0.39246988278E+02 -0.16601727095E+02 -0.37350783066E+02  0.56665901802E+02  0.00000000000E+00 0.  1.
         11    1    1    2    0    0 -0.30578415167E+02 -0.10424913694E+02 -0.14302163886E+03  0.14662505748E+03  0.00000000000E+00 0. -1.
</event>
<event>
 7    1  0.2440960E-009  0.7851509E+02  0.7561462E-02  0.1333319E+00
         -2   -1    0    0    0  501 -0.00000000000E+00  0.00000000000E+00  0.64149070084E+02  0.64149070084E+02  0.00000000000E+00 0.  1.
          2   -1    0    0  501    0  0.00000000000E+00 -0.00000000000E+00 -0.27394748865E+03  0.27394748865E+03  0.00000000000E+00 0. -1.
         25    2    1    2    0    0  0.71606064200E+01  0.43518447535E+02 -0.19267424008E+03  0.23391645718E+03  0.12509363128E+03 0.  0.
          5    1    3    3  502    0 -0.17766306925E+01 -0.44367304254E+01 -0.18410270964E+03  0.18421216325E+03  0.41800000000E+01 0.  1.
         -5    1    3    3    0  502  0.89372371125E+01  0.47955177961E+02 -0.85715304413E+01  0.49704293925E+02  0.41800000000E+01 0.  1.
        -11    1    1    2    0    0 -0.48364310027E+02 -0.34858620045E+02 -0.17296873333E+02  0.62075854427E+02  0.00000000000E+00 0. -1.
         11    1    1    2    0    0  0.41203703607E+02 -0.86598274907E+01  0.17269484497E+00  0.42104247133E+02  0.00000000000E+00 0.  1.
</event>
<event>
 7    1  0.2440960E-009  0.1182540E+03  0.7561462E-02  0.1246005E+00
          1   -1    0    0  501    0  0.00000000000E+00  0.00000000000E+00  0.53418962909E+02  0.53418962909E+02  0.00000000000E+00 0. -1.
         -1   -1    0    0    0  501 -0.00000000000E+00 -0.00000000000E+00 -0.28008942863E+03  0.28008942863E+03  0.00000000000E+00 0.  1.
         25    2    1    2    0    0  0.45313719240E+02  0.18867677192E+02 -0.86580326531E+02  0.15985356295E+03  0.12509071209E+03 0.  0.
          5    1    3    3  502    0 -0.15342872025E+02  0.59265999588E+02 -0.38314480309E+02  0.72341787582E+02  0.41800000000E+01 0. -1.
         -5    1    3    3    0  502  0.60656591265E+02 -0.40398322396E+02 -0.48265846222E+02  0.87511775367E+02  0.41800000000E+01 0. -1.
        -11    1    1    2    0    0 -0.65904241835E+02 -0.36236856840E+02 -0.95503071157E+02  0.12156198207E+03  0.00000000000E+00 0. -1.
         11    1    1    2    0    0  0.20590522595E+02  0.17369179648E+02 -0.44587068036E+02  0.52092846518E+02  0.00000000000E+00 0.  1.
</event>
<event>
 7    1  0.2440960E-009  0.1167185E+03  0.7561462E-02  0.1248611E+00
          1   -1    0    0  501    0  0.00000000000E+00  0.00000000000E+00  0.13948728573E+03  0.13948728573E+03  0.00000000000E+00 0. -1.
         -1   -1    0    0    0  501 -0.00000000000E+00 -0.00000000000E+00 -0.23596034674E+03  0.23596034674E+03  0.00000000000E+00 0.  1.
         25    2    1    2    0    0 -0.16234232540E+02  0.94450635684E+02 -0.16450215678E+03  0.22780105142E+03  0.12509151272E+03 0.  0.
          5    1    3    3  502    0 -0.80072501844E+01  0.11482684735E+03 -0.16945144251E+03  0.20489164135E+03  0.41800000000E+01 0.  1.
         -5    1    3    3    0  502 -0.82269823557E+01 -0.20376211664E+02  0.49492857257E+01  0.22909410068E+02  0.41800000000E+01 0.  1.
        -11    1    1    2    0    0  0.11061401122E+02 -0.55243674619E+02 -0.12697863899E+02  0.57753388885E+02  0.00000000000E+00 0.  1.
         11    1    1    2    0    0  0.51728314177E+01 -0.39206961066E+02  0.80726959673E+02  0.89893192173E+02  0.00000000000E+00 0. -1.
</event>
<event>
 7    1  0.2440960E-009  0.1025886E+03  0.7561462E-02  0.1274945E+00
         -2   -1    0    0    0  501 -0.00000000000E+00  0.00000000000E+00  0.63219078699E+02  0.63219078699E+02  0.00000000000E+00 0.  1.
          2   -1    0    0  501    0  0.00000000000E+00 -0.00000000000E+00 -0.30186987909E+03  0.30186987909E+03  0.00000000000E+00 0. -1.
         25    2    1    2    0    0  0.26914178146E+02  0.68233339475E+02 -0.70068494126E+02  0.16105116449E+03  0.12509085544E+03 0.  0.
          5    1    3    3  502    0 -0.16238101448E+02  0.53905280954E+02 -0.93886496962E+02  0.10955182319E+03  0.41800000000E+01 0. -1.
         -5    1    3    3    0  502  0.43152279594E+02  0.14328058521E+02  0.23818002836E+02  0.51499341299E+02  0.41800000000E+01 0. -1.
        -11    1    1    2    0    0 -0.51648658661E+02 -0.53055310810E+02 -0.72341577704E+02  0.10351692524E+03  0.00000000000E+00 0.  1.
         11    1    1    2    0    0  0.24734480515E+02 -0.15178028665E+02 -0.96240728559E+02  0.10052086805E+03  0.00000000000E+00 0. -1.
</event>
<event>
 7    1  0.2440960E-009  0.1523562E+03  0.7561462E-02  0.1197607E+00
          2   -1    0    0  501    0  0.00000000000E+00  0.00000000000E+00  0.71358481029E+03  0.71358481029E+03  0.00000000000E+00 0. -1.
         -2   -1    0    0    0  501 -0.00000000000E+00 -0.00000000000E+00 -0.36933855848E+02  0.36933855848E+02  0.00000000000E+00 0.  1.
         25    2    1    2    0    0 -0.83143165466E+02 -0.87804717442E+02  0.40766808035E+03  0.44324125493E+03  0.12508833663E+03 0.  0.
          5    1    3    3  502    0 -0.22412394604E+02  0.24427966068E+02  0.17193480942E+03  0.17515162588E+03  0.41800000000E+01 0. -1.
         -5    1    3    3    0  502 -0.60730770863E+02 -0.11223268351E+03  0.23573327094E+03  0.26808962905E+03  0.41800000000E+01 0. -1.
        -11    1    1    2    0    0  0.48646151039E+02  0.96478290658E+02  0.23220238118E+03  0.25611023877E+03  0.00000000000E+00 0.  1.
         11    1    1    2    0    0  0.34497014427E+02 -0.86735732163E+01  0.36780492910E+02  0.51167172439E+02  0.00000000000E+00 0. -1.
</event>
<event>
 7    1  0.2440960E-009  0.1605094E+03  0.7561462E-02  0.1188123E+00
          1   -1    0    0  501    0  0.00000000000E+00  0.00000000000E+00  0.17426544376E+03  0.17426544376E+03  0.00000000000E+00 0. -1.
         -1   -1    0    0    0  501 -0.00000000000E+00 -0.00000000000E+00 -0.31845914732E+03  0.31845914732E+03  0.00000000000E+00 0.  1.
         25    2    1    2    0    0 -0.13059585011E+03 -0.24022519483E+02  0.94106911241E+02  0.20526249005E+03  0.12507686265E+03 0.  0.
          5    1    3    3  502    0 -0.73533955272E+02  0.34518059057E+02  0.92790885584E+02  0.12339513696E+03  0.41800000000E+01 0.  1.
         -5    1    3    3    0  502 -0.57061894840E+02 -0.58540578539E+02  0.13160256569E+01  0.81867353090E+02  0.41800000000E+01 0.  1.
        -11    1    1    2    0    0  0.30276548031E+02 -0.31060213518E+02 -0.92023547486E+02  0.10173366953E+03  0.00000000000E+00 0.  1.
         11    1    1    2    0    0  0.10031930208E+03  0.55082733001E+02 -0.14627706732E+03  0.18572843150E+03  0.00000000000E+00 0. -1.
</event>
<event>
 7    1  0.2440960E-009  0.7027292E+02  0.7561462E-02  0.1359167E+00
         -1   -1    0    0    0  501 -0.00000000000E+00  0.00000000000E+00  0.49039610822E+02  0.49039610822E+02  0.00000000000E+00 0.  1.
          1   -1    0    0  501    0  0.00000000000E+00 -0.00000000000E+00 -0.28834998932E+03  0.28834998932E+03  0.00000000000E+00 0. -1.
         25    2    1    2    0    0  0.22577387441E+02 -0.32687406789E+02 -0.91012563363E+02  0.15970816179E+03  0.12508079495E+03 0.  0.
          5    1    3    3  502    0 -0.14444625078E+00 -0.70953737288E+01 -0.11652624872E+03  0.11681696895E+03  0.41800000000E+01 0. -1.
         -5    1    3    3    0  502  0.22721833692E+02 -0.25592033060E+02  0.25513685359E+02  0.42891192838E+02  0.41800000000E+01 0. -1.
        -11    1    1    2    0    0 -0.48409874680E+02  0.47693409942E+02 -0.10526137738E+03  0.12529219802E+03  0.00000000000E+00 0.  1.
         11    1    1    2    0    0  0.25832487239E+02 -0.15006003153E+02 -0.43036437755E+02  0.52389240328E+02  0.00000000000E+00 0. -1.
</event>
<event>
 7    1  0.2440960E-009  0.1058970E+03  0.7561462E-02  0.1268362E+00
         -4   -1    0    0    0  501 -0.00000000000E+00  0.00000000000E+00  0.54636284027E+02  0.54636284027E+02  0.00000000000E+00 0.  1.
          4   -1    0    0  501    0  0.00000000000E+00 -0.00000000000E+00 -0.33338018764E+03  0.33338018764E+03  0.00000000000E+00 0. -1.
         25    2    1    2    0    0 -0.15357704139E+02  0.75600123364E+02 -0.16344290990E+03  0.21979987043E+03  0.12508861066E+03 0.  0.
          5    1    3    3  502    0  0.23695636117E+02  0.53492020659E+02 -0.16457468469E+03  0.17471456346E+03  0.41800000000E+01 0. -1.
         -5    1    3    3    0  502 -0.39053340256E+02  0.22108102705E+02  0.11317747938E+01  0.45085306970E+02  0.41800000000E+01 0. -1.
        -11    1    1    2    0    0  0.44755436790E+02 -0.59801191854E+02 -0.37541928014E+02  0.83598014501E+02  0.00000000000E+00 0.  1.
         11    1    1    2    0    0 -0.29397732651E+02 -0.15798931510E+02 -0.77759065697E+02  0.84618586729E+02  0.00000000000E+00 0. -1.
</event>
<event>
 7    1  0.2440960E-009  0.1161803E+03  0.7561462E-02  0.1249535E+00
         -2   -1    0    0    0  501 -0.00000000000E+00  0.00000000000E+00  0.56928068649E+02  0.56928068649E+02  0.00000000000E+00 0.  1.
          2   -1    0    0  501    0  0.00000000000E+00 -0.00000000000E+00 -0.27936072545E+03  0.27936072545E+03  0.00000000000E+00 0. -1.
         25    2    1    2    0    0 -0.41909755597E+02  0.18281165930E+02 -0.64891588279E+02  0.14815129526E+03  0.12508900598E+03 0.  0.
          5    1    3    3  502    0 -0.73724106157E+02 -0.23212217955E+02 -0.54531756780E+02  0.94684929047E+02  0.41800000000E+01 0.  1.
         -5    1    3    3    0  502  0.31814350560E+02  0.41493383885E+02 -0.10359831499E+02  0.53466366217E+02  0.41800000000E+01 0.  1.
        -11    1    1    2    0    0 -0.40467297361E+01  0.33227219066E+02 -0.58794739060E+02  0.67655343097E+02  0.00000000000E+00 0. -1.
         11    1    1    2    0    0  0.45956485333E+02 -0.51508384996E+02 -0.98746329467E+02  0.12048215574E+03  0.00000000000E+00 0.  1.
</event>
<event>
 7    1  0.2440960E-009  0.2565405E+03  0.7561462E-02  0.1109240E+00
         -2   -1    0    0    0  501 -0.00000000000E+00  0.00000000000E+00  0.23919937541E+03  0.23919937541E+03  0.00000000000E+00 0.  1.
          2   -1    0    0  501    0  0.00000000000E+00 -0.00000000000E+00 -0.32397034048E+03  0.32397034048E+03  0.00000000000E+00 0. -1.
         25    2    1    2    0    0 -0.11775247345E+02 -0.24667495255E+03  0.20832517800E+02  0.27760900149E+03  0.12508227391E+03 0.  0.
          5    1    3    3  502    0  0.43442318634E+01 -0.39802788764E+02 -0.44519474261E+02  0.60021582221E+02  0.41800000000E+01 0.  1.
         -5    1    3    3    0  502 -0.16119479208E+02 -0.20687216378E+03  0.65351992061E+02  0.21758741927E+03  0.41800000000E+01 0.  1.
        -11    1    1    2    0    0 -0.39597752031E+02  0.15718037774E+03 -0.66736875353E+02  0.17529250880E+03  0.00000000000E+00 0.  1.
         11    1    1    2    0    0  0.51372999375E+02  0.89494574810E+02 -0.38866607523E+02  0.11026820560E+03  0.00000000000E+00 0. -1.
</event>
<event>
 7    1  0.2440960E-009  0.1464539E+03  0.7561462E-02  0.1204899E+00
         -2   -1    0    0    0  501 -0.00000000000E+00  0.00000000000E+00  0.69386831348E+02  0.69386831348E+02  0.00000000000E+00 0. -1.
          2   -1    0    0  501    0  0.00000000000E+00 -0.00000000000E+00 -0.42868327708E+03  0.42868327708E+03  0.00000000000E+00 0.  1.
         25    2    1    2    0    0  0.32063907012E+02  0.10573511677E+03 -0.80030525149E+02  0.18509500955E+03  0.12508904250E+03 0.  0.
          5    1    3    3  502    0  0.27637901937E+02 -0.19989830500E+02  0.26979111938E+01  0.34470249081E+02  0.41800000000E+01 0. -1.
         -5    1    3    3    0  502  0.44260050752E+01  0.12572494727E+03 -0.82728436343E+02  0.15062476047E+03  0.41800000000E+01 0. -1.
        -11    1    1    2    0    0 -0.55816932910E+02 -0.66662099109E+02 -0.12639162030E+03  0.15340862798E+03  0.00000000000E+00 0.  1.
         11    1    1    2    0    0  0.23753025898E+02 -0.39073017656E+02 -0.15287430029E+03  0.15956647090E+03  0.00000000000E+00 0. -1.
</event>
<event>
 7    1  0.2440960E-009  0.9594414E+02  0.7561462E-02  0.1289064E+00
         -1   -1    0    0    0  501 -0.00000000000E+00  0.00000000000E+00  0.29792283275E+02  0.29792283275E+02  0.00000000000E+00 0.  1.
          1   -1    0    0  501    0  0.00000000000E+00 -0.00000000000E+00 -0.77282897360E+03  0.77282897360E+03  0.00000000000E+00 0. -1.
         25    2    1    2    0    0 -0.14468294666E+02  0.74747382756E+02 -0.59460657663E+03  0.61237307317E+03  0.12508915619E+03 0.  0.
          5    1    3    3  502    0 -0.18418058192E+02  0.82934022401E+02 -0.59620475127E+03  0.60224152528E+03  0.41800000000E+01 0. -1.
         -5    1    3    3    0  502  0.39497635254E+01 -0.81866396449E+01  0.15981746337E+01  0.10131547895E+02  0.41800000000E+01 0. -1.
        -11    1    1    2    0    0 -0.13761119262E+02 -0.65784090122E+02 -0.14576194760E+03  0.16051000057E+03  0.00000000000E+00 0. -1.
         11    1    1    2    0    0  0.28229413928E+02 -0.89632926341E+01 -0.26681660969E+01  0.29738183130E+02  0.00000000000E+00 0.  1.
</event>
<event>
 7    1  0.2440960E-009  0.1684022E+03  0.7561462E-02  0.1179524E+00
         -1   -1    0    0    0  501 -0.00000000000E+00  0.00000000000E+00  0.56784137197E+02  0.56784137197E+02  0.00000000000E+00 0.  1.
          1   -1    0    0  501    0  0.00000000000E+00 -0.00000000000E+00 -0.56951719137E+03  0.56951719137E+03  0.00000000000E+00 0. -1.
         25    2    1    2    0    0 -0.69803074627E+02 -0.12188958176E+03 -0.31326210086E+03  0.36539073450E+03  0.12509078964E+03 0.  0.
          5    1    3    3  502    0 -0.64152096241E+02 -0.10964681090E+02 -0.18233815698E+03  0.19365017835E+03  0.41800000000E+01 0.  1.
         -5    1    3    3    0  502 -0.56509783860E+01 -0.11092490067E+03 -0.13092394388E+03  0.17174055615E+03  0.41800000000E+01 0.  1.
        -11    1    1    2    0    0 -0.11862501671E+02  0.50803792261E+02 -0.31112684995E+02  0.60743258240E+02  0.00000000000E+00 0. -1.
         11    1    1    2    0    0  0.81665576298E+02  0.71085789502E+02 -0.16835826832E+03  0.20016733583E+03  0.00000000000E+00 0.  1.
</event>
<event>
 7    1  0.2440960E-009  0.9654845E+02  0.7561462E-02  0.1287726E+00
          1   -1    0    0  501    0  0.00000000000E+00  0.00000000000E+00  0.41480924471E+03  0.41480924471E+03  0.00000000000E+00 0. -1.
         -1   -1    0    0    0  501 -0.00000000000E+00 -0.00000000000E+00 -0.35842349837E+02  0.35842349837E+02  0.00000000000E+00 0.  1.
         25    2    1    2    0    0  0.47816216277E+02 -0.13791394139E+02  0.25346219319E+03  0.28699715446E+03  0.12509072788E+03 0.  0.
          5    1    3    3  502    0 -0.14642578479E+02 -0.40854452127E+02  0.28901961955E+02  0.52309532285E+02  0.41800000000E+01 0.  1.
         -5    1    3    3    0  502  0.62458794755E+02  0.27063057987E+02  0.22456023124E+03  0.23468762218E+03  0.41800000000E+01 0.  1.
        -11    1    1    2    0    0 -0.53455816497E+02 -0.12093411788E+02  0.25958450650E+02  0.60643351542E+02  0.00000000000E+00 0.  1.
         11    1    1    2    0    0  0.56396002203E+01  0.25884805928E+02  0.99546251032E+02  0.10301108854E+03  0.00000000000E+00 0. -1.
</event>
<event>
 7    1  0.2440960E-009  0.2057675E+03  0.7561462E-02  0.1144962E+00
         -1   -1    0    0    0  501 -0.00000000000E+00  0.00000000000E+00  0.18662743425E+03  0.18662743425E+03  0.00000000000E+00 0.  1.
          1   -1    0    0  501    0  0.00000000000E+00 -0.00000000000E+00 -0.30507079759E+03  0.30507079759E+03  0.00000000000E+00 0. -1.
         25    2    1    2    0    0 -0.15993716931E+03 -0.10666441655E+03  0.33882843991E+02  0.23184516064E+03  0.12508771126E+03 0.  0.
          5    1    3    3  502    0 -0.87931738227E+02 -0.18752823795E+02  0.68356733731E+02  0.11302112384E+03  0.41800000000E+01 0.  1.
         -5    1    3    3    0  502 -0.72005431087E+02 -0.87911592756E+02 -0.34473889740E+02  0.11882403680E+03  0.41800000000E+01 0.  1.
        -11    1    1    2    0    0  0.83079968562E+02  0.10095734530E+03 -0.11542072687E+03  0.17440358637E+03  0.00000000000E+00 0. -1.
         11    1    1    2    0    0  0.76857200752E+02  0.57070712456E+01 -0.36905480459E+02  0.85449484829E+02  0.00000000000E+00 0.  1.
</event>
<event>
 7    1  0.2440960E-009  0.1290319E+03  0.7561462E-02  0.1228899E+00
         -1   -1    0    0    0  501 -0.00000000000E+00  0.00000000000E+00  0.25454759852E+02  0.25454759852E+02  0.00000000000E+00 0.  1.
          1   -1    0    0  501    0  0.00000000000E+00 -0.00000000000E+00 -0.85435559505E+03  0.85435559505E+03  0.00000000000E+00 0. -1.
         25    2    1    2    0    0  0.49965895830E+02  0.78686279527E+02 -0.51423909258E+03  0.53737987989E+03  0.12508864715E+03 0.  0.
          5    1    3    3  502    0  0.77725984266E+02  0.94310628723E+02 -0.43539322510E+03  0.45223948985E+03  0.41800000000E+01 0.  1.
         -5    1    3    3    0  502 -0.27760088436E+02 -0.15624349195E+02 -0.78845867482E+02  0.85140390044E+02  0.41800000000E+01 0.  1.
        -11    1    1    2    0    0 -0.21380365597E+02 -0.16044002769E+01 -0.49653389024E+01  0.22007924113E+02  0.00000000000E+00 0.  1.
         11    1    1    2    0    0 -0.28585530232E+02 -0.77081879251E+02 -0.30969640372E+03  0.32042255090E+03  0.00000000000E+00 0. -1.
</event>
<event>
 7    1  0.2440960E-009  0.1200698E+03  0.7561462E-02  0.1242982E+00
          1   -1    0    0  501    0  0.00000000000E+00  0.00000000000E+00  0.53532808085E+02  0.53532808085E+02  0.00000000000E+00 0. -1.
         -1   -1    0    0    0  501 -0.00000000000E+00 -0.00000000000E+00 -0.31113669473E+03  0.31113669473E+03  0.00000000000E+00 0.  1.
         25    2    1    2    0    0  0.49216712908E+02  0.54859255075E+02 -0.11290081135E+03  0.18391764659E+03  0.12508910755E+03 0.  0.
          5    1    3    3  502    0  0.10807411367E+02 -0.35343387891E+02 -0.64607376383E+02  0.74548914755E+02  0.41800000000E+01 0.  1.
         -5    1    3    3    0  502  0.38409301541E+02  0.90202642966E+02 -0.48293434964E+02  0.10936873184E+03  0.41800000000E+01 0.  1.
        -11    1    1    2    0    0 -0.22091864662E+02  0.17085603456E+02 -0.61029560134E+02  0.67116134721E+02  0.00000000000E+00 0.  1.
         11    1    1    2    0    0 -0.27124848246E+02 -0.71944858531E+02 -0.83673515160E+02  0.11363572150E+03  0.00000000000E+00 0. -1.
</event>
<event>
 7    1  0.2440960E-009  0.1238917E+03  0.7561462E-02  0.1236812E+00
         -1   -1    0    0    0  501 -0.00000000000E+00  0.00000000000E+00  0.22144604214E+03  0.22144604214E+03  0.00000000000E+00 0.  1.
          1   -1    0    0  501    0  0.00000000000E+00 -0.00000000000E+00 -0.77558133223E+02  0.77558133223E+02  0.00000000000E+00 0. -1.
         25    2    1    2    0    0 -0.57109195961E+02 -0.45241267428E+02  0.81884442881E+02  0.16631404341E+03  0.12508823488E+03 0.  0.
          5    1    3    3  502    0  0.18819620480E+02 -0.62793998867E+02  0.47336010739E+02  0.80965639140E+02  0.41800000000E+01 0. -1.
         -5    1    3    3    0  502 -0.75928816441E+02  0.17552731438E+02  0.34548432143E+02  0.85348404265E+02  0.41800000000E+01 0. -1.
        -11    1    1    2    0    0  0.53494044647E+02  0.64877330122E+02  0.20374213340E+02  0.86520456227E+02  0.00000000000E+00 0. -1.
         11    1    1    2    0    0  0.36151513132E+01 -0.19636062694E+02  0.41629252697E+02  0.46169675732E+02  0.00000000000E+00 0.  1.
</event>
<event>
 7    1  0.2440960E-009  0.1827661E+03  0.7561462E-02  0.1165153E+00
         -1   -1    0    0    0  501 -0.00000000000E+00  0.00000000000E+00  0.74597633296E+02  0.74597633296E+02  0.00000000000E+00 0.  1.
          1   -1    0    0  501    0  0.00000000000E+00 -0.00000000000E+00 -0.55477698574E+03  0.55477698574E+03  0.00000000000E+00 0. -1.
         25    2    1    2    0    0  0.17141845262E+03  0.20632711491E+01 -0.26403032701E+03  0.33874495357E+03  0.12509031539E+03 0.  0.
          5    1    3    3  502    0  0.13885637271E+03  0.39189198624E+02 -0.24747662458E+03  0.28649439374E+03  0.41800000000E+01 0.  1.
         -5    1    3    3    0  502  0.32562079914E+02 -0.37125927475E+02 -0.16553702430E+02  0.52250559838E+02  0.41800000000E+01 0.  1.
        -11    1    1    2    0    0 -0.36025049111E+02 -0.38223420654E+01 -0.11788702346E+03  0.12332787504E+03  0.00000000000E+00 0. -1.
         11    1    1    2    0    0 -0.13539340351E+03  0.17590709163E+01 -0.98262001977E+02  0.16730179042E+03  0.00000000000E+00 0.  1.
</event>
<event>
 7    1  0.2440960E-009  0.1094044E+03  0.7561462E-02  0.1261677E+00
         -2   -1    0    0    0  501 -0.00000000000E+00  0.00000000000E+00  0.26487309560E+02  0.26487309560E+02  0.00000000000E+00 0. -1.
          2   -1    0    0  501    0  0.00000000000E+00 -0.00000000000E+00 -0.54829668094E+03  0.54829668094E+03  0.00000000000E+00 0.  1.
         25    2    1    2    0    0  0.33313776051E+02 -0.30042061910E+02 -0.23365563482E+03  0.26880304674E+03  0.12509112316E+03 0.  0.
          5    1    3    3  502    0 -0.30971676538E+02  0.20560896299E+02 -0.13742755430E+03  0.14242822854E+03  0.41800000000E+01 0. -1.
         -5    1    3    3    0  502  0.64285452589E+02 -0.50602958210E+02 -0.96228080524E+02  0.12637481820E+03  0.41800000000E+01 0. -1.
        -11    1    1    2    0    0 -0.19086001367E+02 -0.31217713904E+02 -0.70586329748E+02  0.79506295706E+02  0.00000000000E+00 0. -1.
         11    1    1    2    0    0 -0.14227774685E+02  0.61259775815E+02 -0.21756740681E+03  0.22647464805E+03  0.00000000000E+00 0.  1.
</event>
<event>
 7    1  0.2440960E-009  0.1387572E+03  0.7561462E-02  0.1215011E+00
          2   -1    0    0  501    0  0.00000000000E+00  0.00000000000E+00  0.42690878819E+03  0.42690878819E+03  0.00000000000E+00 0. -1.
         -2   -1    0    0    0  501 -0.00000000000E+00 -0.00000000000E+00 -0.57409254889E+02  0.57409254889E+02  0.00000000000E+00 0.  1.
         25    2    1    2    0    0  0.43614066512E+02  0.97921197218E+02  0.25223755257E+03  0.30126613730E+03  0.12508698930E+03 0.  0.
          5    1    3    3  502    0 -0.37312068564E+02  0.45477515402E+02  0.14740608367E+03  0.15876530090E+03  0.41800000000E+01 0.  1.
         -5    1    3    3    0  502  0.80926135076E+02  0.52443681815E+02  0.10483146890E+03  0.14250083639E+03  0.41800000000E+01 0.  1.
        -11    1    1    2    0    0  0.66771472938E+01 -0.56418532712E+02  0.10235500121E+02  0.57726948578E+02  0.00000000000E+00 0.  1.
         11    1    1    2    0    0 -0.50291213806E+02 -0.41502664506E+02  0.10702648061E+03  0.12532495721E+03  0.00000000000E+00 0. -1.
</event>
<event>
 7    1  0.2440960E-009  0.7383261E+02  0.7561462E-02  0.1347525E+00
          1   -1    0    0  501    0  0.00000000000E+00  0.00000000000E+00  0.55002994965E+02  0.55002994965E+02  0.00000000000E+00 0. -1.
         -1   -1    0    0    0  501 -0.00000000000E+00 -0.00000000000E+00 -0.49170951098E+03  0.49170951098E+03  0.00000000000E+00 0.  1.
         25    2    1    2    0    0  0.11541006285E+02  0.46816006971E+02 -0.42123229018E+03  0.44204912427E+03  0.12508338274E+03 0.  0.
          5    1    3    3  502    0 -0.25800888903E+02  0.31433654591E+02 -0.35374236375E+02  0.54060794558E+02  0.41800000000E+01 0. -1.
         -5    1    3    3    0  502  0.37341895188E+02  0.15382352380E+02 -0.38585805381E+03  0.38798832971E+03  0.41800000000E+01 0. -1.
        -11    1    1    2    0    0 -0.22768302609E+02 -0.55751931621E+01 -0.46347091991E+02  0.51937763896E+02  0.00000000000E+00 0.  1.
         11    1    1    2    0    0  0.11227296324E+02 -0.41240813809E+02  0.30872866155E+02  0.52725617787E+02  0.00000000000E+00 0. -1.
</event>
<event>
 7    1  0.3138462E-009  0.8199722E+02  0.7561462E-02  0.1323477E+00
         -2   -1    0    0    0  501 -0.00000000000E+00  0.00000000000E+00  0.28517401667E+02  0.28517401667E+02  0.00000000000E+00 0.  1.
          2   -1    0    0  501    0  0.00000000000E+00 -0.00000000000E+00 -0.61118856814E+03  0.61118856814E+03  0.00000000000E+00 0. -1.
         25    2    1    2    0    0  0.29798606335E+01  0.61863061504E+02 -0.21818855987E+03  0.25901798076E+03  0.12509256074E+03 0.  0.
          5    1    3    3  502    0 -0.19377781345E+02  0.13286702550E+02  0.90591423206E+01  0.25525973715E+02  0.41800000000E+01 0. -1.
         -5    1    3    3    0  502  0.22357641979E+02  0.48576358954E+02 -0.22724770219E+03  0.23349200705E+03  0.41800000000E+01 0. -1.
        -11    1    1    2    0    0  0.25296595829E+02 -0.95745096259E+01 -0.27759232454E+02  0.38757760275E+02  0.00000000000E+00 0.  1.
         11    1    1    2    0    0 -0.28276456462E+02 -0.52288551878E+02 -0.33672337415E+03  0.34193022877E+03  0.00000000000E+00 0. -1.
</event>
<event>
 7    1  0.2440960E-009  0.9812477E+02  0.7561462E-02  0.1284289E+00
         -2   -1    0    0    0  501 -0.00000000000E+00  0.00000000000E+00  0.62105407425E+02  0.62105407425E+02  0.00000000000E+00 0.  1.
          2   -1    0    0  501    0  0.00000000000E+00 -0.00000000000E+00 -0.20569332228E+03  0.20569332228E+03  0.00000000000E+00 0. -1.
         25    2    1    2    0    0 -0.17008248342E+02  0.25113296022E+02 -0.95519096650E+02  0.16028338067E+03  0.12508759389E+03 0.  0.
          5    1    3    3  502    0 -0.13992252229E+02 -0.36946802184E+02  0.69927293317E+01  0.40338814776E+02  0.41800000000E+01 0. -1.
         -5    1    3    3    0  502 -0.30159961133E+01  0.62060098206E+02 -0.10251182598E+03  0.11994456590E+03  0.41800000000E+01 0. -1.
        -11    1    1    2    0    0  0.36099068516E+02 -0.50752694183E+02 -0.41612118368E+02  0.74903585426E+02  0.00000000000E+00 0.  1.
         11    1    1    2    0    0 -0.19090820174E+02  0.25639398161E+02 -0.64566998405E+01  0.32611763611E+02  0.00000000000E+00 0. -1.
</event>
<event>
 7    1  0.2440960E-009  0.1343386E+03  0.7561462E-02  0.1221156E+00
         -1   -1    0    0    0  501 -0.00000000000E+00  0.00000000000E+00  0.12634294618E+03  0.12634294618E+03  0.00000000000E+00 0.  1.
          1   -1    0    0  501    0  0.00000000000E+00 -0.00000000000E+00 -0.19125905846E+03  0.19125905846E+03  0.00000000000E+00 0. -1.
         25    2    1    2    0    0  0.94858734472E+02 -0.65277959162E+01 -0.98716723705E+02  0.18556389056E+03  0.12509266292E+03 0.  0.
          5    1    3    3  502    0  0.65437124537E+02  0.51724816759E+02 -0.25340685805E+02  0.87275980049E+02  0.41800000000E+01 0.  1.
         -5    1    3    3    0  502  0.29421609936E+02 -0.58252612675E+02 -0.73376037900E+02  0.98287910511E+02  0.41800000000E+01 0.  1.
        -11    1    1    2    0    0 -0.10419019362E+03  0.17188555964E+02  0.44187295709E+02  0.11447078232E+03  0.00000000000E+00 0.  1.
         11    1    1    2    0    0  0.93314591499E+01 -0.10660760048E+02 -0.10386684288E+02  0.17567331760E+02  0.00000000000E+00 0. -1.
</event>
<event>
 7    1  0.2440960E-009  0.1279304E+03  0.7561462E-02  0.1230559E+00
         -4   -1    0    0    0  501 -0.00000000000E+00  0.00000000000E+00  0.19980068175E+02  0.19980068175E+02  0.00000000000E+00 0. -1.
          4   -1    0    0  501    0  0.00000000000E+00 -0.00000000000E+00 -0.12221080461E+04  0.12221080461E+04  0.00000000000E+00 0.  1.
         25    2    1    2    0    0  0.47058415161E+02  0.55760599558E+02 -0.98744909500E+03  0.99801271563E+03  0.12509966607E+03 0.  0.
          5    1    3    3  502    0 -0.44567109030E+01  0.84954014410E+02 -0.55049315245E+03  0.55704329287E+03  0.41800000000E+01 0.  1.
         -5    1    3    3    0  502  0.51515126064E+02 -0.29193414852E+02 -0.43695594255E+03  0.44096942276E+03  0.41800000000E+01 0.  1.
        -11    1    1    2    0    0 -0.57628023895E+02 -0.71832625476E+02 -0.14485683782E+03  0.17165202791E+03  0.00000000000E+00 0. -1.
         11    1    1    2    0    0  0.10569608734E+02  0.16072025918E+02 -0.69822045094E+02  0.72423370724E+02  0.00000000000E+00 0.  1.
</event>
<event>
 7    1  0.2440960E-009  0.1143133E+03  0.7561462E-02  0.1252785E+00
          1   -1    0    0  501    0  0.00000000000E+00  0.00000000000E+00  0.43692825162E+03  0.43692825162E+03  0.00000000000E+00 0. -1.
         -1   -1    0    0    0  501 -0.00000000000E+00 -0.00000000000E+00 -0.39570763072E+02  0.39570763072E+02  0.00000000000E+00 0.  1.
         25    2    1    2    0    0  0.54518251251E+02 -0.14716590343E+01  0.33515033415E+03  0.36187045653E+03  0.12510026112E+03 0.  0.
          5    1    3    3  502    0 -0.16009356956E+02  0.45515779933E+02  0.86407350947E+02  0.99053967264E+02  0.41800000000E+01 0. -1.
         -5    1    3    3    0  502  0.70527608206E+02 -0.46987438967E+02  0.24874298320E+03  0.26281648927E+03  0.41800000000E+01 0. -1.
        -11    1    1    2    0    0 -0.67224466341E+02  0.22404545228E+02  0.52916871084E+02  0.88438044794E+02  0.00000000000E+00 0.  1.
         11    1    1    2    0    0  0.12706215091E+02 -0.20932886194E+02  0.92902833209E+01  0.26190513369E+02  0.00000000000E+00 0. -1.
</event>
<event>
 7    1  0.2440960E-009  0.6351064E+02  0.7561462E-02  0.1383663E+00
          1   -1    0    0  501    0  0.00000000000E+00  0.00000000000E+00  0.38734153095E+02  0.38734153095E+02  0.00000000000E+00 0. -1.
         -1   -1    0    0    0  501 -0.00000000000E+00 -0.00000000000E+00 -0.35645640248E+03  0.35645640248E+03  0.00000000000E+00 0.  1.
         25    2    1    2    0    0  0.65430083241E+01 -0.28167773848E+02 -0.25824668472E+03  0.28840123454E+03  0.12509071698E+03 0.  0.
          5    1    3    3  502    0  0.18158636368E+02  0.26621786364E+02 -0.10174187814E+02  0.34050581223E+02  0.41800000000E+01 0. -1.
         -5    1    3    3    0  502 -0.11615628044E+02 -0.54789560212E+02 -0.24807249691E+03  0.25435065332E+03  0.41800000000E+01 0. -1.
        -11    1    1    2    0    0 -0.16051301246E+02  0.13990811292E+02 -0.78437132955E+02  0.81275893711E+02  0.00000000000E+00 0.  1.
         11    1    1    2    0    0  0.95082929223E+01  0.14176962556E+02  0.18961568290E+02  0.25513427320E+02  0.00000000000E+00 0. -1.
</event>
<event>
 7    1  0.2440960E-009  0.1539499E+03  0.7561462E-02  0.1195702E+00
         -2   -1    0    0    0  501 -0.00000000000E+00  0.00000000000E+00  0.17347533586E+02  0.17347533586E+02  0.00000000000E+00 0.  1.
          2   -1    0    0  501    0  0.00000000000E+00 -0.00000000000E+00 -0.15616100733E+04  0.15616100733E+04  0.00000000000E+00 0. -1.
         25    2    1    2    0    0  0.33003807869E+02  0.11237225897E+03 -0.10203804435E+04  0.10346692569E+04  0.12508975035E+03 0.  0.
          5    1    3    3  502    0  0.73106850989E+02  0.57682781101E+02 -0.75482582016E+03  0.76055992931E+03  0.41800000000E+01 0.  1.
         -5    1    3    3    0  502 -0.40103043119E+02  0.54689477871E+02 -0.26555462337E+03  0.27410932755E+03  0.41800000000E+01 0.  1.
        -11    1    1    2    0    0  0.18190387136E+02 -0.88320316482E+02 -0.35046506402E+03  0.36187999335E+03  0.00000000000E+00 0. -1.
         11    1    1    2    0    0 -0.51194195006E+02 -0.24051942490E+02 -0.17341703218E+03  0.18240835669E+03  0.00000000000E+00 0.  1.
</event>
<event>
 7    1  0.2440960E-009  0.1450411E+03  0.7561462E-02  0.1206702E+00
          2   -1    0    0  501    0  0.00000000000E+00  0.00000000000E+00  0.63546920881E+03  0.63546920881E+03  0.00000000000E+00 0. -1.
         -2   -1    0    0    0  501 -0.00000000000E+00 -0.00000000000E+00 -0.35245629919E+02  0.35245629919E+02  0.00000000000E+00 0.  1.
         25    2    1    2    0    0  0.15593064676E+02 -0.99684580971E+02  0.29460886360E+03  0.33559119479E+03  0.12508760195E+03 0.  0.
          5    1    3    3  502    0  0.32229125346E+02 -0.12141777535E+03  0.27274070521E+03  0.30030976903E+03  0.41800000000E+01 0.  1.
         -5    1    3    3    0  502 -0.16636060671E+02  0.21733194384E+02  0.21868158387E+02  0.35281425765E+02  0.41800000000E+01 0.  1.
        -11    1    1    2    0    0  0.38803482399E+02  0.47354527825E+02  0.11909043547E+03  0.13390553899E+03  0.00000000000E+00 0.  1.
         11    1    1    2    0    0 -0.54396547075E+02  0.52330053146E+02  0.18652427983E+03  0.20121810495E+03  0.00000000000E+00 0. -1.
</event>
<event>
 7    1  0.2440960E-009  0.1124385E+03  0.7561462E-02  0.1256120E+00
         -2   -1    0    0    0  501 -0.00000000000E+00  0.00000000000E+00  0.22002325416E+02  0.22002325416E+02  0.00000000000E+00 0.  1.
          2   -1    0    0  501    0  0.00000000000E+00 -0.00000000000E+00 -0.79056378040E+03  0.79056378040E+03  0.00000000000E+00 0. -1.
         25    2    1    2    0    0  0.11074629341E+02  0.34478981298E+02 -0.21962641595E+03  0.25533126664E+03  0.12508735178E+03 0.  0.
          5    1    3    3  502    0 -0.36614205938E+00  0.80986931834E+02 -0.12176718961E+03  0.14630016423E+03  0.41800000000E+01 0.  1.
         -5    1    3    3    0  502  0.11440771401E+02 -0.46507950536E+02 -0.97859226344E+02  0.10903110242E+03  0.41800000000E+01 0.  1.
        -11    1    1    2    0    0  0.37274222270E+02 -0.28636102763E+02 -0.28311883919E+03  0.28699420052E+03  0.00000000000E+00 0. -1.
         11    1    1    2    0    0 -0.48348851611E+02 -0.58428785352E+01 -0.26581619984E+03  0.27024063865E+03  0.00000000000E+00 0.  1.
</event>
<event>
 7    1  0.2440960E-009  0.1254840E+03  0.7561462E-02  0.1234315E+00
          1   -1    0    0  501    0  0.00000000000E+00  0.00000000000E+00  0.62114214759E+03  0.62114214759E+03  0.00000000000E+00 0. -1.
         -1   -1    0    0    0  501 -0.00000000000E+00 -0.00000000000E+00 -0.33953122551E+02  0.33953122551E+02  0.00000000000E+00 0.  1.
         25    2    1    2    0    0 -0.32448756533E+01  0.59818345881E+02  0.15395988138E+03  0.20721668841E+03  0.12508535949E+03 0.  0.
          5    1    3    3  502    0  0.83126297552E+01 -0.38478336178E+02  0.41692577709E+02  0.57492830896E+02  0.41800000000E+01 0. -1.
         -5    1    3    3    0  502 -0.11557505408E+02  0.98296682059E+02  0.11226730367E+03  0.14972385752E+03  0.41800000000E+01 0. -1.
        -11    1    1    2    0    0  0.14671024893E+02  0.23780863780E+02  0.80996259500E+02  0.85680584187E+02  0.00000000000E+00 0.  1.
         11    1    1    2    0    0 -0.11426149240E+02 -0.83599209661E+02  0.35223288416E+03  0.36219799754E+03  0.00000000000E+00 0. -1.
</event>
<event>
 7    1  0.2440960E-009  0.7233934E+02  0.7561462E-02  0.1352314E+00
          1   -1    0    0  501    0  0.00000000000E+00  0.00000000000E+00  0.80579668733E+02  0.80579668733E+02  0.00000000000E+00 0. -1.
         -1   -1    0    0    0  501 -0.00000000000E+00 -0.00000000000E+00 -0.23556620563E+03  0.23556620563E+03  0.00000000000E+00 0.  1.
         25    2    1    2    0    0  0.63346277501E+02  0.12040658508E+02 -0.15817098984E+03  0.21171987361E+03  0.12509801966E+03 0.  0.
          5    1    3    3  502    0  0.30224469446E+02 -0.14350806775E+02  0.12395445740E+02  0.35924694619E+02  0.41800000000E+01 0.  1.
         -5    1    3    3    0  502  0.33121808055E+02  0.26391465283E+02 -0.17056643558E+03  0.17579517899E+03  0.41800000000E+01 0.  1.
        -11    1    1    2    0    0 -0.23929215734E+02 -0.16004532469E+02  0.40708929610E+02  0.49859496339E+02  0.00000000000E+00 0. -1.
         11    1    1    2    0    0 -0.39417061767E+02  0.39638739605E+01 -0.37524476665E+02  0.54566504415E+02  0.00000000000E+00 0.  1.
</event>
<event>
 7    1  0.2440960E-009  0.1156939E+03  0.7561462E-02  0.1250375E+00
         -1   -1    0    0    0  501 -0.00000000000E+00  0.00000000000E+00  0.42694435623E+02  0.42694435623E+02  0.00000000000E+00 0.  1.
          1   -1    0    0  501    0  0.00000000000E+00 -0.00000000000E+00 -0.34435219035E+03  0.34435219035E+03  0.00000000000E+00 0. -1.
         25    2    1    2    0    0  0.36468412073E+02 -0.58616017901E+02 -0.17487381841E+03  0.22582133058E+03  0.12509451764E+03 0.  0.
          5    1    3    3  502    0 -0.35727308257E+02  0.14030380838E+02 -0.32998070248E+02  0.50790128784E+02  0.41800000000E+01 0. -1.
         -5    1    3    3    0  502  0.72195720331E+02 -0.72646398738E+02 -0.14187574816E+03  0.17503120179E+03  0.41800000000E+01 0. -1.
        -11    1    1    2    0    0 -0.18206407866E+02 -0.89464529717E+01 -0.52077143618E+01  0.20943557411E+02  0.00000000000E+00 0.  1.
         11    1    1    2    0    0 -0.18262004208E+02  0.67562470872E+02 -0.12157622196E+03  0.14028173799E+03  0.00000000000E+00 0. -1.
</event>
<event>
 7    1  0.2440960E-009  0.1067936E+03  0.7561462E-02  0.1266626E+00
          3   -1    0    0  501    0  0.00000000000E+00  0.00000000000E+00  0.33644638609E+03  0.33644638609E+03  0.00000000000E+00 0. -1.
         -3   -1    0    0    0  501 -0.00000000000E+00 -0.00000000000E+00 -0.42532859248E+02  0.42532859248E+02  0.00000000000E+00 0.  1.
         25    2    1    2    0    0  0.31101871359E+02 -0.41005121038E+01  0.10787451110E+03  0.16813284590E+03  0.12509037982E+03 0.  0.
          5    1    3    3  502    0  0.76151503464E+02  0.33834721273E+01  0.92126099323E+02  0.11964610290E+03  0.41800000000E+01 0.  1.
         -5    1    3    3    0  502 -0.45049632104E+02 -0.74839842311E+01  0.15748411778E+02  0.48486742995E+02  0.41800000000E+01 0.  1.
        -11    1    1    2    0    0  0.26635169610E+02  0.17815905659E+02  0.10892951221E+03  0.11354504562E+03  0.00000000000E+00 0. -1.
         11    1    1    2    0    0 -0.57737040969E+02 -0.13715393556E+02  0.77109503529E+02  0.97301353818E+02  0.00000000000E+00 0.  1.
</event>
<event>
 7    1  0.2440960E-009  0.3465552E+03  0.7561462E-02  0.1064038E+00
         -2   -1    0    0    0  501 -0.00000000000E+00  0.00000000000E+00  0.45580734906E+02  0.45580734906E+02  0.00000000000E+00 0.  1.
          2   -1    0    0  501    0  0.00000000000E+00 -0.00000000000E+00 -0.28820308427E+04  0.28820308427E+04  0.00000000000E+00 0. -1.
         25    2    1    2    0    0  0.91353539230E+02  0.31846152761E+03 -0.10399621181E+04  0.10986055247E+04  0.12509867376E+03 0.  0.
          5    1    3    3  502    0  0.73455625494E+02  0.32332360014E+03 -0.10107524138E+04  0.10637536340E+04  0.41800000000E+01 0.  1.
         -5    1    3    3    0  502  0.17897913736E+02 -0.48620725317E+01 -0.29209704245E+02  0.34851890730E+02  0.41800000000E+01 0.  1.
        -11    1    1    2    0    0 -0.10236162486E+03 -0.21134530796E+03 -0.11704045273E+04  0.11937300779E+04  0.00000000000E+00 0.  1.
         11    1    1    2    0    0  0.11008085634E+02 -0.10711621964E+03 -0.62608346238E+03  0.63527597493E+03  0.00000000000E+00 0. -1.
</event>
<event>
 7    1  0.2440960E-009  0.1047263E+03  0.7561462E-02  0.1270660E+00
         -1   -1    0    0    0  501 -0.00000000000E+00  0.00000000000E+00  0.28709728493E+02  0.28709728493E+02  0.00000000000E+00 0.  1.
          1   -1    0    0  501    0  0.00000000000E+00 -0.00000000000E+00 -0.41989195340E+03  0.41989195340E+03  0.00000000000E+00 0. -1.
         25    2    1    2    0    0 -0.31812386524E+01 -0.17039124710E+02 -0.21843538182E+03  0.25231370806E+03  0.12509092370E+03 0.  0.
          5    1    3    3  502    0  0.12151126948E+02 -0.68299296651E+02 -0.15022593557E+03  0.16552265080E+03  0.41800000000E+01 0. -1.
         -5    1    3    3    0  502 -0.15332365601E+02  0.51260171941E+02 -0.68209446246E+02  0.86791057255E+02  0.41800000000E+01 0. -1.
        -11    1    1    2    0    0  0.96273977713E+01  0.50908371764E+02 -0.64783895303E+02  0.82953614714E+02  0.00000000000E+00 0.  1.
         11    1    1    2    0    0 -0.64461591189E+01 -0.33869247054E+02 -0.10796294778E+03  0.11333435912E+03  0.00000000000E+00 0. -1.
</event>
<event>
 7    1  0.2440960E-009  0.1586718E+03  0.7561462E-02  0.1190204E+00
          1   -1    0    0  501    0  0.00000000000E+00  0.00000000000E+00  0.11902400625E+04  0.11902400625E+04  0.00000000000E+00 0. -1.
         -1   -1    0    0    0  501 -0.00000000000E+00 -0.00000000000E+00 -0.21263282147E+02  0.21263282147E+02  0.00000000000E+00 0.  1.
         25    2    1    2    0    0  0.81599097675E+02  0.82865759279E+02  0.63709968718E+03  0.65959778192E+03  0.12509226876E+03 0.  0.
          5    1    3    3  502    0 -0.31419389261E+02  0.34959381602E+02  0.14975315054E+03  0.15701214883E+03  0.41800000000E+01 0.  1.
         -5    1    3    3    0  502  0.11301848694E+03  0.47906377677E+02  0.48734653664E+03  0.50258563308E+03  0.41800000000E+01 0.  1.
        -11    1    1    2    0    0  0.94144075612E+01 -0.49510594528E+02  0.18260307085E+03  0.18943022864E+03  0.00000000000E+00 0. -1.
         11    1    1    2    0    0 -0.91013505236E+02 -0.33355164750E+02  0.34927402236E+03  0.36247533412E+03  0.00000000000E+00 0.  1.
</event>
<event>
 7    1  0.2440960E-009  0.1309163E+03  0.7561462E-02  0.1226102E+00
          2   -1    0    0  501    0  0.00000000000E+00  0.00000000000E+00  0.25240022901E+03  0.25240022901E+03  0.00000000000E+00 0. -1.
         -2   -1    0    0    0  501 -0.00000000000E+00 -0.00000000000E+00 -0.10739824776E+03  0.10739824776E+03  0.00000000000E+00 0.  1.
         25    2    1    2    0    0 -0.76205169386E+02 -0.90584993056E+02  0.13028120440E+03  0.21594723404E+03  0.12508855607E+03 0.  0.
          5    1    3    3  502    0 -0.24759964587E+02 -0.25037150639E+02 -0.22411408545E+02  0.41948282342E+02  0.41800000000E+01 0. -1.
         -5    1    3    3    0  502 -0.51445204799E+02 -0.65547842417E+02  0.15269261295E+03  0.17399895169E+03  0.41800000000E+01 0. -1.
        -11    1    1    2    0    0 -0.10735867828E+02  0.41993476963E+02  0.14089366700E+01  0.43366992840E+02  0.00000000000E+00 0. -1.
         11    1    1    2    0    0  0.86941037214E+02  0.48591516093E+02  0.13311840172E+02  0.10048424989E+03  0.00000000000E+00 0.  1.
</event>
<event>
 7    1  0.2440960E-009  0.2247511E+03  0.7561462E-02  0.1130390E+00
          2   -1    0    0  501    0  0.00000000000E+00  0.00000000000E+00  0.28609156982E+03  0.28609156982E+03  0.00000000000E+00 0. -1.
         -2   -1    0    0    0  501 -0.00000000000E+00 -0.00000000000E+00 -0.19365710030E+03  0.19365710030E+03  0.00000000000E+00 0.  1.
         25    2    1    2    0    0  0.11339827673E+03  0.16433297587E+03  0.10876328341E+03  0.25950382626E+03  0.12509311692E+03 0.  0.
          5    1    3    3  502    0  0.12227045049E+03  0.75459292796E+02  0.48605541162E+02  0.15173707182E+03  0.41800000000E+01 0. -1.
         -5    1    3    3    0  502 -0.88721737585E+01  0.88873683075E+02  0.60157742252E+02  0.10776675444E+03  0.41800000000E+01 0. -1.
        -11    1    1    2    0    0 -0.86791160593E+02 -0.52591538299E+02  0.11283020630E+02  0.10210720842E+03  0.00000000000E+00 0. -1.
         11    1    1    2    0    0 -0.26607116140E+02 -0.11174143757E+03 -0.27611834522E+02  0.11813763543E+03  0.00000000000E+00 0.  1.
</event>
<event>
 7    1  0.2440960E-009  0.8553609E+02  0.7561462E-02  0.1314037E+00
         -2   -1    0    0    0  501 -0.00000000000E+00  0.00000000000E+00  0.18926822928E+03  0.18926822928E+03  0.00000000000E+00 0.  1.
          2   -1    0    0  501    0  0.00000000000E+00 -0.00000000000E+00 -0.95114651599E+02  0.95114651599E+02  0.00000000000E+00 0. -1.
         25    2    1    2    0    0 -0.23213421772E+01 -0.19689913456E+02  0.13198088504E+03  0.18291914534E+03  0.12508948155E+03 0.  0.
          5    1    3    3  502    0 -0.26172580781E+02 -0.61964511483E+02  0.38787028891E+02  0.77759312486E+02  0.41800000000E+01 0. -1.
         -5    1    3    3    0  502  0.23851238604E+02  0.42274598027E+02  0.93193856152E+02  0.10515983285E+03  0.41800000000E+01 0. -1.
        -11    1    1    2    0    0 -0.21691384093E+01  0.37006169320E+02  0.19164315237E+02  0.41730476964E+02  0.00000000000E+00 0.  1.
         11    1    1    2    0    0  0.44904805865E+01 -0.17316255864E+02 -0.56991622601E+02  0.59733258573E+02  0.00000000000E+00 0. -1.
</event>
<event>
 7    1  0.2440960E-009  0.1043977E+03  0.7561462E-02  0.1271311E+00
          4   -1    0    0  501    0  0.00000000000E+00  0.00000000000E+00  0.12752906042E+03  0.12752906042E+03  0.00000000000E+00 0. -1.
         -4   -1    0    0    0  501 -0.00000000000E+00 -0.00000000000E+00 -0.20294592236E+03  0.20294592236E+03  0.00000000000E+00 0.  1.
         25    2    1    2    0    0  0.98511459996E+01  0.27071826185E+02 -0.15844162041E+03  0.20391653108E+03  0.12509306823E+03 0.  0.
          5    1    3    3  502    0 -0.64088931776E+01 -0.45780001789E+02 -0.95523075176E+02  0.10620269661E+03  0.41800000000E+01 0.  1.
         -5    1    3    3    0  502  0.16260039177E+02  0.72851827974E+02 -0.62918545233E+02  0.97713834473E+02  0.41800000000E+01 0.  1.
        -11    1    1    2    0    0  0.35609242994E+02 -0.22047160482E+02  0.65153533013E+02  0.77453717380E+02  0.00000000000E+00 0.  1.
         11    1    1    2    0    0 -0.45460388994E+02 -0.50246657029E+01  0.17871225465E+02  0.49104734318E+02  0.00000000000E+00 0. -1.
</event>
<event>
 7    1  0.2440960E-009  0.1005705E+03  0.7561462E-02  0.1279101E+00
         -2   -1    0    0    0  501 -0.00000000000E+00  0.00000000000E+00  0.42255487242E+03  0.42255487242E+03  0.00000000000E+00 0.  1.
          2   -1    0    0  501    0  0.00000000000E+00 -0.00000000000E+00 -0.31794659340E+02  0.31794659340E+02  0.00000000000E+00 0. -1.
         25    2    1    2    0    0 -0.36623088290E+02 -0.12824045343E+02  0.24443963751E+03  0.27731566929E+03  0.12509011677E+03 0.  0.
          5    1    3    3  502    0  0.40456338678E+02  0.61761625460E+01  0.37627728209E+02  0.55751041723E+02  0.41800000000E+01 0. -1.
         -5    1    3    3    0  502 -0.77079426968E+02 -0.19000207889E+02  0.20681190930E+03  0.22156462757E+03  0.41800000000E+01 0. -1.
        -11    1    1    2    0    0  0.11259582260E+02 -0.29270285150E+02  0.11279235882E+02  0.33327900437E+02  0.00000000000E+00 0. -1.
         11    1    1    2    0    0  0.25363506030E+02  0.42094330494E+02  0.13504133969E+03  0.14370596203E+03  0.00000000000E+00 0.  1.
</event>
<event>
 7    1  0.2440960E-009  0.1305549E+03  0.7561462E-02  0.1226635E+00
          2   -1    0    0  501    0  0.00000000000E+00  0.00000000000E+00  0.31375981476E+03  0.31375981476E+03  0.00000000000E+00 0. -1.
         -2   -1    0    0    0  501 -0.00000000000E+00 -0.00000000000E+00 -0.67855082732E+02  0.67855082732E+02  0.00000000000E+00 0.  1.
         25    2    1    2    0    0 -0.54238931099E+02  0.84972787504E+02  0.12620627332E+03  0.20429569668E+03  0.12508585850E+03 0.  0.
          5    1    3    3  502    0  0.96009569189E+01  0.83512517985E+02  0.31232942200E+02  0.89774651836E+02  0.41800000000E+01 0. -1.
         -5    1    3    3    0  502 -0.63839888018E+02  0.14602695197E+01  0.94973331119E+02  0.11452104485E+03  0.41800000000E+01 0. -1.
        -11    1    1    2    0    0  0.44909200109E+02 -0.91251821983E+02  0.63263810434E+02  0.11977495974E+03  0.00000000000E+00 0.  1.
         11    1    1    2    0    0  0.93297309896E+01  0.62790344791E+01  0.56434648277E+02  0.57544241072E+02  0.00000000000E+00 0. -1.
</event>
<event>
 7    1  0.2440960E-009  0.8700030E+02  0.7561462E-02  0.1310283E+00
          2   -1    0    0  501    0  0.00000000000E+00  0.00000000000E+00  0.17930425143E+03  0.17930425143E+03  0.00000000000E+00 0. -1.
         -2   -1    0    0    0  501 -0.00000000000E+00 -0.00000000000E+00 -0.72977083670E+02  0.72977083670E+02  0.00000000000E+00 0.  1.
         25    2    1    2    0    0  0.17659440757E+02 -0.17165801739E+02  0.93977482521E+02  0.15838434166E+03  0.12508921562E+03 0.  0.
          5    1    3    3  502    0 -0.30873938120E+02 -0.56723002267E+02  0.46206305765E+02  0.79518514408E+02  0.41800000000E+01 0. -1.
         -5    1    3    3    0  502  0.48533378877E+02  0.39557200528E+02  0.47771176756E+02  0.78865827248E+02  0.41800000000E+01 0. -1.
        -11    1    1    2    0    0 -0.28165005978E+02  0.22036023078E+01  0.46932356831E+02  0.54779280230E+02  0.00000000000E+00 0. -1.
         11    1    1    2    0    0  0.10505565221E+02  0.14962199432E+02 -0.34582671594E+02  0.39117713213E+02  0.00000000000E+00 0.  1.
</event>
<event>
 7    1  0.2440960E-009  0.9758850E+02  0.7561462E-02  0.1285450E+00
          2   -1    0    0  501    0  0.00000000000E+00  0.00000000000E+00  0.45208349573E+02  0.45208349573E+02  0.00000000000E+00 0. -1.
         -2   -1    0    0    0  501 -0.00000000000E+00 -0.00000000000E+00 -0.39045944655E+03  0.39045944655E+03  0.00000000000E+00 0.  1.
         25    2    1    2    0    0  0.25964130143E+02 -0.40208902828E+02 -0.29070977452E+03  0.32007897364E+03  0.12508990545E+03 0.  0.
          5    1    3    3  502    0  0.27114686674E+02  0.22353197863E+02 -0.23030113466E+03  0.23300419892E+03  0.41800000000E+01 0. -1.
         -5    1    3    3    0  502 -0.11505565313E+01 -0.62562100691E+02 -0.60408639859E+02  0.87074774722E+02  0.41800000000E+01 0. -1.
        -11    1    1    2    0    0  0.69652932376E+01  0.58833842761E+02 -0.49927132674E+02  0.77476802599E+02  0.00000000000E+00 0.  1.
         11    1    1    2    0    0 -0.32929423381E+02 -0.18624939933E+02 -0.46141897754E+01  0.38112019875E+02  0.00000000000E+00 0. -1.
</event>
<event>
 7    1  0.2440960E-009  0.8247895E+02  0.7561462E-02  0.1322160E+00
          2   -1    0    0  501    0  0.00000000000E+00  0.00000000000E+00  0.68143687021E+03  0.68143687021E+03  0.00000000000E+00 0.  1.
         -2   -1    0    0    0  501 -0.00000000000E+00 -0.00000000000E+00 -0.41569746898E+02  0.41569746898E+02  0.00000000000E+00 0. -1.
         25    2    1    2    0    0 -0.55271813690E+02 -0.46313515589E+02  0.56906686137E+03  0.58709825675E+03  0.12508938907E+03 0.  0.
          5    1    3    3  502    0 -0.41814676251E+02 -0.27927233427E+01  0.51305106877E+03  0.51477678465E+03  0.41800000000E+01 0. -1.
         -5    1    3    3    0  502 -0.13457137438E+02 -0.43520792246E+02  0.56015792597E+02  0.72321472095E+02  0.41800000000E+01 0. -1.
        -11    1    1    2    0    0  0.19211745761E+01  0.15231938932E+02 -0.20548119791E+02  0.25650109207E+02  0.00000000000E+00 0. -1.
         11    1    1    2    0    0  0.53350639113E+02  0.31081576657E+02  0.91348381739E+02  0.11025825115E+03  0.00000000000E+00 0.  1.
</event>
<event>
 7    1  0.2440960E-009  0.9765959E+02  0.7561462E-02  0.1285296E+00
         -1   -1    0    0    0  501 -0.00000000000E+00  0.00000000000E+00  0.52979172421E+02  0.52979172421E+02  0.00000000000E+00 0.  1.
          1   -1    0    0  501    0  0.00000000000E+00 -0.00000000000E+00 -0.34318126732E+03  0.34318126732E+03  0.00000000000E+00 0. -1.
         25    2    1    2    0    0 -0.27836917095E+02  0.65005591438E+02 -0.18791814876E+03  0.23656083061E+03  0.12508866886E+03 0.  0.
          5    1    3    3  502    0 -0.60329946347E+02  0.38130769438E+02 -0.38395923608E+02  0.81150337977E+02  0.41800000000E+01 0. -1.
         -5    1    3    3    0  502  0.32493029252E+02  0.26874822000E+02 -0.14952222515E+03  0.15541049264E+03  0.41800000000E+01 0. -1.
        -11    1    1    2    0    0 -0.53215862196E+01 -0.38871223485E+02 -0.10990483849E+03  0.11669774984E+03  0.00000000000E+00 0.  1.
         11    1    1    2    0    0  0.33158503315E+02 -0.26134367953E+02  0.76208923428E+01  0.42901859290E+02  0.00000000000E+00 0. -1.
</event>
<event>
 7    1  0.2440960E-009  0.1429350E+03  0.7561462E-02  0.1209433E+00
         -1   -1    0    0    0  501 -0.00000000000E+00  0.00000000000E+00  0.58426199379E+02  0.58426199379E+02  0.00000000000E+00 0.  1.
          1   -1    0    0  501    0  0.00000000000E+00 -0.00000000000E+00 -0.42466410624E+03  0.42466410624E+03  0.00000000000E+00 0. -1.
         25    2    1    2    0    0  0.48844296237E+01  0.10701078101E+03 -0.24778146713E+03  0.29752102997E+03  0.12509173800E+03 0.  0.
          5    1    3    3  502    0 -0.43540508782E+02  0.33007931720E+02 -0.30093898136E+02  0.62517314133E+02  0.41800000000E+01 0.  1.
         -5    1    3    3    0  502  0.48424938406E+02  0.74002849288E+02 -0.21768756899E+03  0.23500371584E+03  0.41800000000E+01 0.  1.
        -11    1    1    2    0    0 -0.17115357335E+02  0.13255605464E+02 -0.13790619466E+02  0.25667639513E+02  0.00000000000E+00 0. -1.
         11    1    1    2    0    0  0.12230927712E+02 -0.12026638647E+03 -0.10466582027E+03  0.15990163614E+03  0.00000000000E+00 0.  1.
</event>
<event>
 7    1  0.2440960E-009  0.1336712E+03  0.7561462E-02  0.1222108E+00
         -3   -1    0    0    0  501 -0.00000000000E+00  0.00000000000E+00  0.88682983627E+02  0.88682983627E+02  0.00000000000E+00 0.  1.
          3   -1    0    0  501    0  0.00000000000E+00 -0.00000000000E+00 -0.23273256369E+03  0.23273256369E+03  0.00000000000E+00 0. -1.
         25    2    1    2    0    0 -0.86515392189E+02 -0.26479325918E+02 -0.50207192290E+02  0.16233918488E+03  0.12508869255E+03 0.  0.
          5    1    3    3  502    0 -0.12726196170E+02  0.46487765475E+02 -0.36304379881E+01  0.48515161422E+02  0.41800000000E+01 0.  1.
         -5    1    3    3    0  502 -0.73789196019E+02 -0.72967091393E+02 -0.46576754302E+02  0.11382402346E+03  0.41800000000E+01 0.  1.
        -11    1    1    2    0    0  0.32248335433E+02 -0.24615370371E+02 -0.69845456549E+02  0.80772887761E+02  0.00000000000E+00 0. -1.
         11    1    1    2    0    0  0.54267056756E+02  0.51094696289E+02 -0.23996931224E+02  0.78303474674E+02  0.00000000000E+00 0.  1.
</event>
<event>
 7    1  0.2440960E-009  0.1088367E+03  0.7561462E-02  0.1262739E+00
          2   -1    0    0  501    0  0.00000000000E+00  0.00000000000E+00  0.40252979164E+03  0.40252979164E+03  0.00000000000E+00 0. -1.
         -2   -1    0    0    0  501 -0.00000000000E+00 -0.00000000000E+00 -0.30515345126E+02  0.30515345126E+02  0.00000000000E+00 0.  1.
         25    2    1    2    0    0 -0.18084288720E+02 -0.89933867610E+01  0.21642088875E+03  0.25078650421E+03  0.12509175472E+03 0.  0.
          5    1    3    3  502    0 -0.64155115412E+02  0.23883134829E+02  0.13654813322E+03  0.15280428020E+03  0.41800000000E+01 0.  1.
         -5    1    3    3    0  502  0.46070826692E+02 -0.32876521590E+02  0.79872755535E+02  0.97982224003E+02  0.41800000000E+01 0.  1.
        -11    1    1    2    0    0  0.54985607263E+02  0.60811539663E+01  0.11309191712E+03  0.12589749464E+03  0.00000000000E+00 0.  1.
         11    1    1    2    0    0 -0.36901318543E+02  0.29122327947E+01  0.42501640646E+02  0.56361137921E+02  0.00000000000E+00 0. -1.
</event>
<event>
 7    1  0.2440960E-009  0.1390425E+03  0.7561462E-02  0.1214623E+00
          2   -1    0    0  501    0  0.00000000000E+00  0.00000000000E+00  0.51117627360E+03  0.51117627360E+03  0.00000000000E+00 0. -1.
         -2   -1    0    0    0  501 -0.00000000000E+00 -0.00000000000E+00 -0.76017036706E+02  0.76017036706E+02  0.00000000000E+00 0.  1.
         25    2    1    2    0    0 -0.91732760880E+02  0.45399840255E+02  0.41903819676E+03  0.44912946448E+03  0.12509284797E+03 0.  0.
          5    1    3    3  502    0 -0.10913052023E+02 -0.34312057337E+02  0.19049941418E+03  0.19391727924E+03  0.41800000000E+01 0. -1.
         -5    1    3    3    0  502 -0.80819708857E+02  0.79711897592E+02  0.22853878257E+03  0.25521218525E+03  0.41800000000E+01 0. -1.
        -11    1    1    2    0    0  0.10181130029E+03 -0.24016901243E+02 -0.72052608123E+01  0.10485355595E+03  0.00000000000E+00 0.  1.
         11    1    1    2    0    0 -0.10078539410E+02 -0.21382939012E+02  0.23326300951E+02  0.33210289874E+02  0.00000000000E+00 0. -1.
</event>
<event>
 7    1  0.2440960E-009  0.2673286E+03  0.7561462E-02  0.1102818E+00
         -1   -1    0    0    0  501 -0.00000000000E+00  0.00000000000E+00  0.15328540189E+03  0.15328540189E+03  0.00000000000E+00 0.  1.
          1   -1    0    0  501    0  0.00000000000E+00 -0.00000000000E+00 -0.49087339711E+03  0.49087339711E+03  0.00000000000E+00 0. -1.
         25    2    1    2    0    0  0.13181078407E+03 -0.21302534371E+03 -0.14191310225E+03  0.31391078563E+03  0.12508706121E+03 0.  0.
          5    1    3    3  502    0  0.98689468254E+02 -0.22400281282E+03 -0.12592018584E+03  0.27530026680E+03  0.41800000000E+01 0.  1.
         -5    1    3    3    0  502  0.33121315812E+02  0.10977469106E+02 -0.15992916413E+02  0.38610518832E+02  0.41800000000E+01 0.  1.
        -11    1    1    2    0    0 -0.11823639036E+03  0.15411331211E+03 -0.18616207038E+03  0.26904845924E+03  0.00000000000E+00 0.  1.
         11    1    1    2    0    0 -0.13574393705E+02  0.58912031606E+02 -0.95128225873E+01  0.61199554132E+02  0.00000000000E+00 0. -1.
</event>
<event>
 7    1  0.2440960E-009  0.1006021E+03  0.7561462E-02  0.1279035E+00
         -1   -1    0    0    0  501 -0.00000000000E+00  0.00000000000E+00  0.25644303612E+03  0.25644303612E+03  0.00000000000E+00 0.  1.
          1   -1    0    0  501    0  0.00000000000E+00 -0.00000000000E+00 -0.13156159836E+03  0.13156159836E+03  0.00000000000E+00 0. -1.
         25    2    1    2    0    0  0.49917651098E+02 -0.61368511097E+02  0.19750744935E+03  0.24681010218E+03  0.12509263745E+03 0.  0.
          5    1    3    3  502    0  0.35726279237E+01 -0.11900264382E+02  0.17466556510E+03  0.17515682115E+03  0.41800000000E+01 0. -1.
         -5    1    3    3    0  502  0.46345023174E+02 -0.49468246715E+02  0.22841884243E+02  0.71653281026E+02  0.41800000000E+01 0. -1.
        -11    1    1    2    0    0 -0.68681334083E+02  0.15198734331E+02 -0.50903898155E+02  0.86829338499E+02  0.00000000000E+00 0.  1.
         11    1    1    2    0    0  0.18763682985E+02  0.46169776766E+02 -0.21722113430E+02  0.54365193807E+02  0.00000000000E+00 0. -1.
</event>
<event>
 7    1  0.2440960E-009  0.2735943E+03  0.7561462E-02  0.1099240E+00
         -2   -1    0    0    0  501 -0.00000000000E+00  0.00000000000E+00  0.57723083957E+03  0.57723083957E+03  0.00000000000E+00 0.  1.
          2   -1    0    0  501    0  0.00000000000E+00 -0.00000000000E+00 -0.14501540403E+03  0.14501540403E+03  0.00000000000E+00 0. -1.
         25    2    1    2    0    0 -0.24712416787E+03 -0.72421454632E+02  0.12815242173E+03  0.31366453520E+03  0.12508867257E+03 0.  0.
          5    1    3    3  502    0 -0.33582879600E+02  0.23201551830E+02  0.54735157621E+02  0.68407102624E+02  0.41800000000E+01 0.  1.
         -5    1    3    3    0  502 -0.21354128828E+03 -0.95623006462E+02  0.73417264106E+02  0.24525743257E+03  0.41800000000E+01 0.  1.
        -11    1    1    2    0    0  0.18389494463E+03  0.11359199914E+02  0.21992200059E+03  0.28690079893E+03  0.00000000000E+00 0. -1.
         11    1    1    2    0    0  0.63229223248E+02  0.61062254718E+02  0.84141013230E+02  0.12168090948E+03  0.00000000000E+00 0.  1.
</event>
<event>
 7    1  0.2440960E-009  0.9466870E+02  0.7561462E-02  0.1291924E+00
         -2   -1    0    0    0  501 -0.00000000000E+00  0.00000000000E+00  0.15652203352E+02  0.15652203352E+02  0.00000000000E+00 0.  1.
          2   -1    0    0  501    0  0.00000000000E+00 -0.00000000000E+00 -0.15837474752E+04  0.15837474752E+04  0.00000000000E+00 0. -1.
         25    2    1    2    0    0  0.62068697603E+02  0.97938437168E+00 -0.13228207471E+04  0.13301712381E+04  0.12508921342E+03 0.  0.
          5    1    3    3  502    0  0.69361456316E+02  0.38406856027E+02 -0.48357916565E+03  0.49005344613E+03  0.41800000000E+01 0.  1.
         -5    1    3    3    0  502 -0.72927587130E+01 -0.37427471655E+02 -0.83924158144E+03  0.84011779197E+03  0.41800000000E+01 0.  1.
        -11    1    1    2    0    0 -0.35616390943E+02 -0.18221671650E+02 -0.23123827506E+03  0.23467359560E+03  0.00000000000E+00 0. -1.
         11    1    1    2    0    0 -0.26452306660E+02  0.17242287278E+02 -0.14036249729E+02  0.34554844880E+02  0.00000000000E+00 0.  1.
</event>
<event>
 7    1  0.2440960E-009  0.1337577E+03  0.7561462E-02  0.1221984E+00
          2   -1    0    0  501    0  0.00000000000E+00  0.00000000000E+00  0.50098982771E+02  0.50098982771E+02  0.00000000000E+00 0. -1.
         -2   -1    0    0    0  501 -0.00000000000E+00 -0.00000000000E+00 -0.46896662844E+03  0.46896662844E+03  0.00000000000E+00 0.  1.
         25    2    1    2    0    0 -0.43688233123E+02 -0.95882215315E+02 -0.27037246797E+03  0.31599223295E+03  0.12509100255E+03 0.  0.
          5    1    3    3  502    0  0.10241367106E+02 -0.78238794700E+02 -0.63298710289E+02  0.10124422809E+03  0.41800000000E+01 0.  1.
         -5    1    3    3    0  502 -0.53929600229E+02 -0.17643420615E+02 -0.20707375768E+03  0.21474800486E+03  0.41800000000E+01 0.  1.
        -11    1    1    2    0    0  0.13144394622E+02 -0.13018087878E+02 -0.29262156878E+01  0.18729881479E+02  0.00000000000E+00 0. -1.
         11    1    1    2    0    0  0.30543838500E+02  0.10890030319E+03 -0.14556896201E+03  0.18434349678E+03  0.00000000000E+00 0.  1.
</event>
<event>
 7    1  0.2440960E-009  0.9084702E+02  0.7561462E-02  0.1300813E+00
          1   -1    0    0  501    0  0.00000000000E+00  0.00000000000E+00  0.10244595502E+04  0.10244595502E+04  0.00000000000E+00 0. -1.
         -1   -1    0    0    0  501 -0.00000000000E+00 -0.00000000000E+00 -0.13660327185E+02  0.13660327185E+02  0.00000000000E+00 0.  1.
         25    2    1    2    0    0 -0.17287603857E+02  0.51710954465E+01  0.78458114596E+03  0.79469488838E+03  0.12508712781E+03 0.  0.
          5    1    3    3  502    0 -0.42933304527E+01  0.47295387335E+02  0.67244017283E+03  0.67412798843E+03  0.41800000000E+01 0.  1.
         -5    1    3    3    0  502 -0.12994273405E+02 -0.42124291889E+02  0.11214097313E+03  0.12056689995E+03  0.41800000000E+01 0.  1.
        -11    1    1    2    0    0  0.32860624087E+02 -0.39893738806E+02  0.12316549727E+03  0.13357047103E+03  0.00000000000E+00 0. -1.
         11    1    1    2    0    0 -0.15573020229E+02  0.34722643360E+02  0.10305257974E+03  0.10985451794E+03  0.00000000000E+00 0.  1.
</event>
<event>
 7    1  0.2440960E-009  0.6022402E+02  0.7561462E-02  0.1396894E+00
         -2   -1    0    0    0  501 -0.00000000000E+00  0.00000000000E+00  0.10146726718E+03  0.10146726718E+03  0.00000000000E+00 0.  1.
          2   -1    0    0  501    0  0.00000000000E+00 -0.00000000000E+00 -0.22303996632E+03  0.22303996632E+03  0.00000000000E+00 0. -1.
         25    2    1    2    0    0 -0.42316676075E+02 -0.35741128144E+02  0.29850116822E+02  0.14002060902E+03  0.12508641877E+03 0.  0.
          5    1    3    3  502    0 -0.36845938980E+02 -0.21416150124E+02  0.78182679365E+02  0.89141900687E+02  0.41800000000E+01 0.  1.
         -5    1    3    3    0  502 -0.54707370954E+01 -0.14324978021E+02 -0.48332562543E+02  0.50878708333E+02  0.41800000000E+01 0.  1.
        -11    1    1    2    0    0  0.14723578309E+02  0.30186073990E+02 -0.15266191604E+03  0.15631264642E+03  0.00000000000E+00 0. -1.
         11    1    1    2    0    0  0.27593097766E+02  0.55550541541E+01  0.12391000790E+01  0.28173978065E+02  0.00000000000E+00 0.  1.
</event>
<event>
 7    1  0.2440960E-009  0.1093912E+03  0.7561462E-02  0.1261701E+00
         -2   -1    0    0    0  501 -0.00000000000E+00  0.00000000000E+00  0.86699122899E+02  0.86699122899E+02  0.00000000000E+00 0.  1.
          2   -1    0    0  501    0  0.00000000000E+00 -0.00000000000E+00 -0.50759718115E+03  0.50759718115E+03  0.00000000000E+00 0. -1.
         25    2    1    2    0    0 -0.45111758286E+01 -0.10538570127E+03 -0.42294676998E+03  0.45349477208E+03  0.12508813426E+03 0.  0.
          5    1    3    3  502    0  0.89756625389E+01 -0.89246648736E+02 -0.12044113785E+03  0.15023004664E+03  0.41800000000E+01 0. -1.
         -5    1    3    3    0  502 -0.13486838367E+02 -0.16139052533E+02 -0.30250563213E+03  0.30326472544E+03  0.41800000000E+01 0. -1.
        -11    1    1    2    0    0 -0.66562038013E+01  0.72692453365E+02  0.44944431650E+02  0.85723390983E+02  0.00000000000E+00 0.  1.
         11    1    1    2    0    0  0.11167379630E+02  0.32693247904E+02 -0.42895719923E+02  0.55078140982E+02  0.00000000000E+00 0. -1.
</event>
<event>
 7    1  0.2440960E-009  0.1252711E+03  0.7561462E-02  0.1234646E+00
         -2   -1    0    0    0  501 -0.00000000000E+00  0.00000000000E+00  0.23935716888E+02  0.23935716888E+02  0.00000000000E+00 0.  1.
          2   -1    0    0  501    0  0.00000000000E+00 -0.00000000000E+00 -0.13092656638E+04  0.13092656638E+04  0.00000000000E+00 0. -1.
         25    2    1    2    0    0  0.10139105380E+03  0.49743999434E+01 -0.10620142113E+04  0.10741618697E+04  0.12507856216E+03 0.  0.
          5    1    3    3  502    0  0.58996484858E+02  0.43211568367E+02 -0.88709822792E+03  0.89011716265E+03  0.41800000000E+01 0. -1.
         -5    1    3    3    0  502  0.42394568941E+02 -0.38237168424E+02 -0.17491598341E+03  0.18404470701E+03  0.41800000000E+01 0. -1.
        -11    1    1    2    0    0 -0.62550908977E+01  0.20606571681E+02 -0.93374243570E+01  0.23472205951E+02  0.00000000000E+00 0.  1.
         11    1    1    2    0    0 -0.95135962902E+02 -0.25580971624E+02 -0.21397831120E+03  0.23556730505E+03  0.00000000000E+00 0. -1.
</event>
<event>
 7    1  0.2440960E-009  0.1114371E+03  0.7561462E-02  0.1257931E+00
          2   -1    0    0  501    0  0.00000000000E+00  0.00000000000E+00  0.25986605462E+03  0.25986605462E+03  0.00000000000E+00 0. -1.
         -2   -1    0    0    0  501 -0.00000000000E+00 -0.00000000000E+00 -0.69883956622E+02  0.69883956622E+02  0.00000000000E+00 0.  1.
         25    2    1    2    0    0  0.20003882579E+02  0.70229325408E+02  0.15390746231E+03  0.21134719851E+03  0.12509123830E+03 0.  0.
          5    1    3    3  502    0 -0.21476975384E+02  0.80012919008E+02  0.45105124317E+02  0.94420719757E+02  0.41800000000E+01 0. -1.
         -5    1    3    3    0  502  0.41480857963E+02 -0.97835935995E+01  0.10880233800E+03  0.11692647876E+03  0.41800000000E+01 0. -1.
        -11    1    1    2    0    0 -0.41981320528E+02 -0.31189556695E+02  0.49111513540E+02  0.71743713887E+02  0.00000000000E+00 0.  1.
         11    1    1    2    0    0  0.21977437950E+02 -0.39039768713E+02 -0.13036877860E+02  0.46659098837E+02  0.00000000000E+00 0. -1.
</event>
<event>
 7    1  0.2440960E-009  0.2085430E+03  0.7561462E-02  0.1142725E+00
          1   -1    0    0  501    0  0.00000000000E+00  0.00000000000E+00  0.21285889359E+04  0.21285889359E+04  0.00000000000E+00 0. -1.
         -1   -1    0    0    0  501 -0.00000000000E+00 -0.00000000000E+00 -0.34721130939E+02  0.34721130939E+02  0.00000000000E+00 0.  1.
         25    2    1    2    0    0 -0.65333389087E+02  0.17766365790E+03  0.17144042462E+04  0.17293524161E+04  0.12508010484E+03 0.  0.
          5    1    3    3  502    0 -0.62138204441E+02  0.16120574894E+02  0.56165963923E+03  0.56533180711E+03  0.41800000000E+01 0.  1.
         -5    1    3    3    0  502 -0.31951846460E+01  0.16154308301E+03  0.11527446070E+04  0.11640206090E+04  0.41800000000E+01 0.  1.
        -11    1    1    2    0    0  0.49772680053E+02 -0.97536732003E+02  0.12233555125E+03  0.16418502023E+03  0.00000000000E+00 0.  1.
         11    1    1    2    0    0  0.15560709034E+02 -0.80126925899E+02  0.25712800746E+03  0.26977263045E+03  0.00000000000E+00 0. -1.
</event>
<event>
 7    1  0.2440960E-009  0.7371104E+02  0.7561462E-02  0.1347910E+00
          2   -1    0    0  501    0  0.00000000000E+00  0.00000000000E+00  0.47359008946E+03  0.47359008946E+03  0.00000000000E+00 0. -1.
         -2   -1    0    0    0  501 -0.00000000000E+00 -0.00000000000E+00 -0.27155294073E+02  0.27155294073E+02  0.00000000000E+00 0.  1.
         25    2    1    2    0    0 -0.36635477753E+02  0.13325011664E+01  0.24331387608E+03  0.27603274308E+03  0.12509396136E+03 0.  0.
          5    1    3    3  502    0 -0.12776445626E+02 -0.17386626774E+02 -0.76030156113E+01  0.23255334867E+02  0.41800000000E+01 0. -1.
         -5    1    3    3    0  502 -0.23859032127E+02  0.18719127941E+02  0.25091689169E+03  0.25277740821E+03  0.41800000000E+01 0. -1.
        -11    1    1    2    0    0  0.35108382999E+01  0.40960766017E+02  0.10653548975E+03  0.11419247310E+03  0.00000000000E+00 0.  1.
         11    1    1    2    0    0  0.33124639453E+02 -0.42293267183E+02  0.96585429556E+02  0.11052016735E+03  0.00000000000E+00 0. -1.
</event>
<event>
 7    1  0.2440960E-009  0.9712184E+02  0.7561462E-02  0.1286467E+00
          1   -1    0    0  501    0  0.00000000000E+00  0.00000000000E+00  0.24238008149E+03  0.24238008149E+03  0.00000000000E+00 0. -1.
         -1   -1    0    0    0  501 -0.00000000000E+00 -0.00000000000E+00 -0.61268176392E+02  0.61268176392E+02  0.00000000000E+00 0.  1.
         25    2    1    2    0    0  0.67180259336E+01  0.98203205611E+01  0.15796804883E+03  0.20184964147E+03  0.12509117772E+03 0.  0.
          5    1    3    3  502    0  0.42426268889E+02 -0.24123065877E+02  0.16019733356E+02  0.51536539038E+02  0.41800000000E+01 0. -1.
         -5    1    3    3    0  502 -0.35708242955E+02  0.33943386439E+02  0.14194831547E+03  0.15031310243E+03  0.41800000000E+01 0. -1.
        -11    1    1    2    0    0  0.12050658616E+02  0.40423407393E+02  0.23248003965E+02  0.48163678500E+02  0.00000000000E+00 0. -1.
         11    1    1    2    0    0 -0.18768684549E+02 -0.50243727954E+02 -0.10414769042E+00  0.53634937915E+02  0.00000000000E+00 0.  1.
</event>
<event>
 7    1  0.2440960E-009  0.1113765E+03  0.7561462E-02  0.1258042E+00
         -1   -1    0    0    0  501 -0.00000000000E+00  0.00000000000E+00  0.39205767142E+02  0.39205767142E+02  0.00000000000E+00 0.  1.
          1   -1    0    0  501    0  0.00000000000E+00 -0.00000000000E+00 -0.41950096560E+03  0.41950096560E+03  0.00000000000E+00 0. -1.
         25    2    1    2    0    0  0.29437899174E+02 -0.53391989307E+02 -0.26942453059E+03  0.30324002219E+03  0.12509052299E+03 0.  0.
          5    1    3    3  502    0  0.63533802426E+02  0.99196106610E+01 -0.15712068671E+03  0.16982145129E+03  0.41800000000E+01 0. -1.
         -5    1    3    3    0  502 -0.34095903252E+02 -0.63311599968E+02 -0.11230384389E+03  0.13341857090E+03  0.41800000000E+01 0. -1.
        -11    1    1    2    0    0 -0.39469914544E+02  0.86186441394E+01 -0.57996076234E+01  0.40814098416E+02  0.00000000000E+00 0.  1.
         11    1    1    2    0    0  0.10032015370E+02  0.44773345168E+02 -0.10507106024E+03  0.11465261214E+03  0.00000000000E+00 0. -1.
</event>
<event>
 7    1  0.2440960E-009  0.7114922E+02  0.7561462E-02  0.1356228E+00
          2   -1    0    0  501    0  0.00000000000E+00  0.00000000000E+00  0.13705384823E+03  0.13705384823E+03  0.00000000000E+00 0. -1.
         -2   -1    0    0    0  501 -0.00000000000E+00 -0.00000000000E+00 -0.10692876217E+03  0.10692876217E+03  0.00000000000E+00 0.  1.
         25    2    1    2    0    0 -0.22374744226E+02 -0.30664663485E+02 -0.21575059305E+02  0.13248970408E+03  0.12508831975E+03 0.  0.
          5    1    3    3  502    0  0.66482985647E+01 -0.45431945429E+02 -0.63979402305E+02  0.78861257019E+02  0.41800000000E+01 0. -1.
         -5    1    3    3    0  502 -0.29023042790E+02  0.14767281945E+02  0.42404343001E+02  0.53628447061E+02  0.41800000000E+01 0. -1.
        -11    1    1    2    0    0 -0.47652745636E+01  0.35479298846E+02 -0.15386443938E+02  0.38964485693E+02  0.00000000000E+00 0.  1.
         11    1    1    2    0    0  0.27140018789E+02 -0.48146353609E+01  0.67086589302E+02  0.72528420620E+02  0.00000000000E+00 0. -1.
</event>
<event>
 7    1  0.2440960E-009  0.7233487E+02  0.7561462E-02  0.1352329E+00
          3   -1    0    0  501    0  0.00000000000E+00  0.00000000000E+00  0.13408809168E+03  0.13408809168E+03  0.00000000000E+00 0. -1.
         -3   -1    0    0    0  501 -0.00000000000E+00 -0.00000000000E+00 -0.10863178325E+03  0.10863178325E+03  0.00000000000E+00 0.  1.
         25    2    1    2    0    0 -0.20622270807E+02  0.11115893033E+02 -0.66329026308E+01  0.12743763217E+03  0.12509002185E+03 0.  0.
          5    1    3    3  502    0 -0.47163383382E+02  0.34701024356E+02 -0.45764156012E+02  0.74433703381E+02  0.41800000000E+01 0.  1.
         -5    1    3    3    0  502  0.26541112575E+02 -0.23585131323E+02  0.39131253382E+02  0.53003928793E+02  0.41800000000E+01 0.  1.
        -11    1    1    2    0    0  0.98117906603E+01  0.17257903307E+02 -0.35786823266E+02  0.40924359274E+02  0.00000000000E+00 0.  1.
         11    1    1    2    0    0  0.10810480147E+02 -0.28373796340E+02  0.67876034326E+02  0.74357883480E+02  0.00000000000E+00 0. -1.
</event>
<event>
 7    1  0.2440960E-009  0.1318411E+03  0.7561462E-02  0.1224749E+00
          2   -1    0    0  501    0  0.00000000000E+00  0.00000000000E+00  0.81288484333E+03  0.81288484333E+03  0.00000000000E+00 0.  1.
         -2   -1    0    0    0  501 -0.00000000000E+00 -0.00000000000E+00 -0.25658023962E+02  0.25658023962E+02  0.00000000000E+00 0. -1.
         25    2    1    2    0    0 -0.49099897419E+02  0.81439409245E+02  0.41188809494E+03  0.44084275115E+03  0.12508937277E+03 0.  0.
          5    1    3    3  502    0 -0.13739579418E+02  0.95559379889E+02  0.16671855682E+03  0.19269904182E+03  0.41800000000E+01 0.  1.
         -5    1    3    3    0  502 -0.35360318001E+02 -0.14119970644E+02  0.24516953812E+03  0.24814370933E+03  0.41800000000E+01 0.  1.
        -11    1    1    2    0    0 -0.25297928348E+02 -0.19577891113E+02  0.62049856427E+02  0.69810197548E+02  0.00000000000E+00 0.  1.
         11    1    1    2    0    0  0.74397825766E+02 -0.61861518132E+02  0.31328886800E+03  0.32788991860E+03  0.00000000000E+00 0. -1.
</event>
<event>
 7    1  0.2880128E-009  0.1157107E+03  0.7561462E-02  0.1250346E+00
          1   -1    0    0  501    0  0.00000000000E+00  0.00000000000E+00  0.71894959523E+03  0.71894959523E+03  0.00000000000E+00 0. -1.
         -1   -1    0    0    0  501 -0.00000000000E+00 -0.00000000000E+00 -0.30354603633E+02  0.30354603633E+02  0.00000000000E+00 0.  1.
         25    2    1    2    0    0  0.67807426022E+02  0.31458232337E+02  0.54348117616E+03  0.56267803330E+03  0.12508921979E+03 0.  0.
          5    1    3    3  502    0  0.10302706867E+02 -0.44118125317E+02  0.11277682226E+03  0.12160854735E+03  0.41800000000E+01 0. -1.
         -5    1    3    3    0  502  0.57504719155E+02  0.75576357654E+02  0.43070435391E+03  0.44106948595E+03  0.41800000000E+01 0. -1.
        -11    1    1    2    0    0 -0.37328709709E+02  0.10710923182E+02  0.75643914799E+01  0.39564838713E+02  0.00000000000E+00 0.  1.
         11    1    1    2    0    0 -0.30478716313E+02 -0.42169155519E+02  0.13754942396E+03  0.14706132686E+03  0.00000000000E+00 0. -1.
</event>
<event>
 7    1  0.2440960E-009  0.1058508E+03  0.7561462E-02  0.1268452E+00
         -2   -1    0    0    0  501 -0.00000000000E+00  0.00000000000E+00  0.49975170549E+02  0.49975170549E+02  0.00000000000E+00 0. -1.
          2   -1    0    0  501    0  0.00000000000E+00 -0.00000000000E+00 -0.25031004615E+03  0.25031004615E+03  0.00000000000E+00 0.  1.
         25    2    1    2    0    0 -0.68205117799E+01  0.24399558745E+02 -0.90334024906E+02  0.15636188764E+03  0.12508775321E+03 0.  0.
          5    1    3    3  502    0  0.33884913740E+02 -0.39133891476E+02 -0.40185935252E+02  0.65666053889E+02  0.41800000000E+01 0. -1.
         -5    1    3    3    0  502 -0.40705425520E+02  0.63533450221E+02 -0.50148089653E+02  0.90695833750E+02  0.41800000000E+01 0. -1.
        -11    1    1    2    0    0 -0.32844069482E+02 -0.29573753484E+02 -0.27012637970E+02  0.51797899623E+02  0.00000000000E+00 0. -1.
         11    1    1    2    0    0  0.39664581262E+02  0.51741947385E+01 -0.82988212729E+02  0.92125429442E+02  0.00000000000E+00 0.  1.
</event>
<event>
 7    1  0.2440960E-009  0.1326796E+03  0.7561462E-02  0.1223533E+00
         -2   -1    0    0    0  501 -0.00000000000E+00  0.00000000000E+00  0.12294925917E+03  0.12294925917E+03  0.00000000000E+00 0.  1.
          2   -1    0    0  501    0  0.00000000000E+00 -0.00000000000E+00 -0.23735584474E+03  0.23735584474E+03  0.00000000000E+00 0. -1.
         25    2    1    2    0    0  0.79610823937E+02  0.38968592791E+02  0.41131634325E+02  0.15873191928E+03  0.12509027277E+03 0.  0.
          5    1    3    3  502    0 -0.24676363473E+00 -0.40362886046E+02  0.13288672460E+02  0.42699937682E+02  0.41800000000E+01 0.  1.
         -5    1    3    3    0  502  0.79857587571E+02  0.79331478838E+02  0.27842961866E+02  0.11603198159E+03  0.41800000000E+01 0.  1.
        -11    1    1    2    0    0 -0.91504133937E+02 -0.40648550734E+02 -0.89013524853E+02  0.13397282863E+03  0.00000000000E+00 0.  1.
         11    1    1    2    0    0  0.11893310001E+02  0.16799579427E+01 -0.66524695046E+02  0.67600356008E+02  0.00000000000E+00 0. -1.
</event>
<event>
 7    1  0.2440960E-009  0.1450930E+03  0.7561462E-02  0.1206636E+00
         -1   -1    0    0    0  501 -0.00000000000E+00  0.00000000000E+00  0.17606720610E+03  0.17606720610E+03  0.00000000000E+00 0.  1.
          1   -1    0    0  501    0  0.00000000000E+00 -0.00000000000E+00 -0.17915068517E+03  0.17915068517E+03  0.00000000000E+00 0. -1.
         25    2    1    2    0    0  0.62724422493E-01 -0.13461679421E+03 -0.41298245981E+02  0.18834752957E+03  0.12509021366E+03 0.  0.
          5    1    3    3  502    0  0.14153490523E+02 -0.10859383592E+03 -0.82693887656E+02  0.13729054574E+03  0.41800000000E+01 0.  1.
         -5    1    3    3    0  502 -0.14090766101E+02 -0.26022958291E+02  0.41395641675E+02  0.51056983824E+02  0.41800000000E+01 0.  1.
        -11    1    1    2    0    0 -0.33154149911E+02  0.51543173299E+02 -0.14621391524E+02  0.63005408182E+02  0.00000000000E+00 0. -1.
         11    1    1    2    0    0  0.33091425489E+02  0.83073620914E+02  0.52836158432E+02  0.10386495352E+03  0.00000000000E+00 0.  1.
</event>
<event>
 7    1  0.2440960E-009  0.1654015E+03  0.7561462E-02  0.1182730E+00
          1   -1    0    0  501    0  0.00000000000E+00  0.00000000000E+00  0.14975785606E+03  0.14975785606E+03  0.00000000000E+00 0. -1.
         -1   -1    0    0    0  501 -0.00000000000E+00 -0.00000000000E+00 -0.25852875528E+03  0.25852875528E+03  0.00000000000E+00 0.  1.
         25    2    1    2    0    0  0.14939669438E+03  0.40717714138E+02 -0.22626903620E+01  0.19907214785E+03  0.12508915120E+03 0.  0.
          5    1    3    3  502    0  0.14616778012E+03  0.45070914934E+02 -0.42059403387E+02  0.15869112493E+03  0.41800000000E+01 0. -1.
         -5    1    3    3    0  502  0.32289142516E+01 -0.43532007964E+01  0.39796713025E+02  0.40381022920E+02  0.41800000000E+01 0. -1.
        -11    1    1    2    0    0 -0.78288123724E+02  0.16094955761E+02 -0.17313936558E+02  0.81779278037E+02  0.00000000000E+00 0. -1.
         11    1    1    2    0    0 -0.71108570652E+02 -0.56812669899E+02 -0.89194272292E+02  0.12743518545E+03  0.00000000000E+00 0.  1.
</event>
<event>
 7    1  0.2440960E-009  0.1106912E+03  0.7561462E-02  0.1259295E+00
          2   -1    0    0  501    0  0.00000000000E+00  0.00000000000E+00  0.45177423128E+03  0.45177423128E+03  0.00000000000E+00 0. -1.
         -2   -1    0    0    0  501 -0.00000000000E+00 -0.00000000000E+00 -0.57346558977E+02  0.57346558977E+02  0.00000000000E+00 0.  1.
         25    2    1    2    0    0  0.59731819171E+02 -0.38717998671E+02  0.36116140214E+03  0.38877979364E+03  0.12508075755E+03 0.  0.
          5    1    3    3  502    0  0.72021066753E+02 -0.51091276250E+02  0.13169667859E+03  0.15861538424E+03  0.41800000000E+01 0.  1.
         -5    1    3    3    0  502 -0.12289247582E+02  0.12373277579E+02  0.22946472355E+03  0.23016440941E+03  0.41800000000E+01 0.  1.
        -11    1    1    2    0    0 -0.28015200860E+02 -0.28968280862E+02  0.17566535173E+02  0.43961300405E+02  0.00000000000E+00 0. -1.
         11    1    1    2    0    0 -0.31716618311E+02  0.67686279533E+02  0.15699734992E+02  0.76379696208E+02  0.00000000000E+00 0.  1.
</event>
<event>
 7    1  0.2440960E-009  0.7421767E+02  0.7561462E-02  0.1346311E+00
          2   -1    0    0  501    0  0.00000000000E+00  0.00000000000E+00  0.30228171829E+03  0.30228171829E+03  0.00000000000E+00 0. -1.
         -2   -1    0    0    0  501 -0.00000000000E+00 -0.00000000000E+00 -0.30020247872E+02  0.30020247872E+02  0.00000000000E+00 0.  1.
         25    2    1    2    0    0 -0.22719941191E+02 -0.14898342814E+02  0.20142891754E+03  0.23866227689E+03  0.12509163539E+03 0.  0.
          5    1    3    3  502    0 -0.67723525280E+02 -0.21804643753E+02  0.16654132855E+03  0.18115022739E+03  0.41800000000E+01 0. -1.
         -5    1    3    3    0  502  0.45003584088E+02  0.69063009388E+01  0.34887588983E+02  0.57512049507E+02  0.41800000000E+01 0. -1.
        -11    1    1    2    0    0  0.57243512228E+01  0.13170115747E+02  0.74746801569E+02  0.76113760192E+02  0.00000000000E+00 0. -1.
         11    1    1    2    0    0  0.16995589969E+02  0.17282270668E+01 -0.39142486895E+01  0.17525929076E+02  0.00000000000E+00 0.  1.
</event>
<event>
 7    1  0.2440960E-009  0.1606760E+03  0.7561462E-02  0.1187936E+00
         -2   -1    0    0    0  501 -0.00000000000E+00  0.00000000000E+00  0.49657533453E+02  0.49657533453E+02  0.00000000000E+00 0.  1.
          2   -1    0    0  501    0  0.00000000000E+00 -0.00000000000E+00 -0.57204362062E+03  0.57204362062E+03  0.00000000000E+00 0. -1.
         25    2    1    2    0    0  0.79699367996E+02  0.95044738580E+02 -0.34151484824E+03  0.38427249549E+03  0.12508983822E+03 0.  0.
          5    1    3    3  502    0 -0.26192170528E+02  0.44901250567E+02 -0.15912349373E+03  0.16745121903E+03  0.41800000000E+01 0.  1.
         -5    1    3    3    0  502  0.10589153852E+03  0.50143488013E+02 -0.18239135451E+03  0.21682127645E+03  0.41800000000E+01 0.  1.
        -11    1    1    2    0    0 -0.98418874676E+02 -0.87801773151E+02 -0.14279442409E+03  0.19438537448E+03  0.00000000000E+00 0.  1.
         11    1    1    2    0    0  0.18719506681E+02 -0.72429654284E+01 -0.38076814829E+02  0.43043284100E+02  0.00000000000E+00 0. -1.
</event>
<event>
 7    1  0.2440960E-009  0.1130268E+03  0.7561462E-02  0.1255065E+00
         -1   -1    0    0    0  501 -0.00000000000E+00  0.00000000000E+00  0.55208066657E+02  0.55208066657E+02  0.00000000000E+00 0.  1.
          1   -1    0    0  501    0  0.00000000000E+00 -0.00000000000E+00 -0.35124565765E+03  0.35124565765E+03  0.00000000000E+00 0. -1.
         25    2    1    2    0    0  0.57277796830E+02  0.18622190097E+02 -0.74354528056E+02  0.15749613130E+03  0.12509557769E+03 0.  0.
          5    1    3    3  502    0  0.87604696246E+02 -0.19312629373E+02 -0.43311587127E+02  0.99704194682E+02  0.41800000000E+01 0. -1.
         -5    1    3    3    0  502 -0.30326899416E+02  0.37934819470E+02 -0.31042940929E+02  0.57791936617E+02  0.41800000000E+01 0. -1.
        -11    1    1    2    0    0 -0.69914268128E+02 -0.23787280644E+02 -0.22331476013E+03  0.23520910208E+03  0.00000000000E+00 0. -1.
         11    1    1    2    0    0  0.12636471299E+02  0.51650905465E+01  0.16316971904E+01  0.13748490934E+02  0.00000000000E+00 0.  1.
</event>
<event>
 7    1  0.2440960E-009  0.9052376E+02  0.7561462E-02  0.1301588E+00
          4   -1    0    0  501    0  0.00000000000E+00  0.00000000000E+00  0.32991865485E+02  0.32991865485E+02  0.00000000000E+00 0. -1.
         -4   -1    0    0    0  501 -0.00000000000E+00 -0.00000000000E+00 -0.42871852387E+03  0.42871852387E+03  0.00000000000E+00 0.  1.
         25    2    1    2    0    0 -0.46172315204E+01 -0.38693794051E+02 -0.16776853520E+03  0.21286448818E+03  0.12508589208E+03 0.  0.
          5    1    3    3  502    0  0.32406498042E+02 -0.33521513179E+01  0.44552386356E+01  0.33147240987E+02  0.41800000000E+01 0.  1.
         -5    1    3    3    0  502 -0.37023729562E+02 -0.35341642733E+02 -0.17222377384E+03  0.17971724719E+03  0.41800000000E+01 0.  1.
        -11    1    1    2    0    0  0.46023513145E+02  0.28742914892E+02 -0.15674239277E+03  0.16586891394E+03  0.00000000000E+00 0.  1.
         11    1    1    2    0    0 -0.41406281625E+02  0.99508791597E+01 -0.71215730411E+02  0.82976987243E+02  0.00000000000E+00 0. -1.
</event>
<event>
 7    1  0.2440960E-009  0.1168640E+03  0.7561462E-02  0.1248362E+00
          2   -1    0    0  501    0  0.00000000000E+00  0.00000000000E+00  0.65857084767E+03  0.65857084767E+03  0.00000000000E+00 0. -1.
         -2   -1    0    0    0  501 -0.00000000000E+00 -0.00000000000E+00 -0.26917003260E+02  0.26917003260E+02  0.00000000000E+00 0.  1.
         25    2    1    2    0    0  0.22929699109E+02  0.43334111615E+02  0.29916843120E+03  0.32795399279E+03  0.12509378413E+03 0.  0.
          5    1    3    3  502    0 -0.62583824501E+01 -0.27980962546E+02  0.20103495606E+03  0.20311235209E+03  0.41800000000E+01 0. -1.
         -5    1    3    3    0  502  0.29188081559E+02  0.71315074161E+02  0.98133475144E+02  0.12484164070E+03  0.41800000000E+01 0. -1.
        -11    1    1    2    0    0 -0.28386570884E+02 -0.82908489259E+02  0.26496319252E+03  0.27907903610E+03  0.00000000000E+00 0. -1.
         11    1    1    2    0    0  0.54568717751E+01  0.39574377644E+02  0.67522220689E+02  0.78454822046E+02  0.00000000000E+00 0.  1.
</event>
<event>
 7    1  0.2440960E-009  0.1398778E+03  0.7561462E-02  0.1213493E+00
          2   -1    0    0  501    0  0.00000000000E+00  0.00000000000E+00  0.50329781522E+02  0.50329781522E+02  0.00000000000E+00 0.  1.
         -2   -1    0    0    0  501 -0.00000000000E+00 -0.00000000000E+00 -0.55898608034E+03  0.55898608034E+03  0.00000000000E+00 0. -1.
         25    2    1    2    0    0 -0.12172237446E+03 -0.38666016865E+02 -0.25281887625E+03  0.30963907499E+03  0.12509026848E+03 0.  0.
          5    1    3    3  502    0 -0.14183139640E+02 -0.16002953909E+02 -0.17145326002E+03  0.17283214040E+03  0.41800000000E+01 0. -1.
         -5    1    3    3    0  502 -0.10753923482E+03 -0.22663062956E+02 -0.81365616235E+02  0.13680693459E+03  0.41800000000E+01 0. -1.
        -11    1    1    2    0    0  0.11266619321E+03  0.57939748577E+02 -0.24491739501E+03  0.27574483846E+03  0.00000000000E+00 0. -1.
         11    1    1    2    0    0  0.90561812475E+01 -0.19273731712E+02 -0.10920027549E+02  0.23931948408E+02  0.00000000000E+00 0.  1.
</event>
<event>
 7    1  0.2758520E-009  0.8659934E+02  0.7561462E-02  0.1311302E+00
          1   -1    0    0  501    0  0.00000000000E+00  0.00000000000E+00  0.46016500767E+02  0.46016500767E+02  0.00000000000E+00 0. -1.
         -1   -1    0    0    0  501 -0.00000000000E+00 -0.00000000000E+00 -0.37570946382E+03  0.37570946382E+03  0.00000000000E+00 0.  1.
         25    2    1    2    0    0 -0.25113630537E+02 -0.30109123270E+02 -0.28344077107E+03  0.31228980749E+03  0.12509596083E+03 0.  0.
          5    1    3    3  502    0 -0.64727116338E+01 -0.68075684937E+02 -0.84124557683E+02  0.10849243513E+03  0.41800000000E+01 0.  1.
         -5    1    3    3    0  502 -0.18640918904E+02  0.37966561667E+02 -0.19931621338E+03  0.20379737236E+03  0.41800000000E+01 0.  1.
        -11    1    1    2    0    0  0.86654002762E+01  0.41360230690E+02 -0.67922918012E+02  0.79995503848E+02  0.00000000000E+00 0.  1.
         11    1    1    2    0    0  0.16448230261E+02 -0.11251107420E+02  0.21670726029E+02  0.29440653245E+02  0.00000000000E+00 0. -1.
</event>
<event>
 7    1  0.2440960E-009  0.9536226E+02  0.7561462E-02  0.1290362E+00
          2   -1    0    0  501    0  0.00000000000E+00  0.00000000000E+00  0.11248291288E+04  0.11248291288E+04  0.00000000000E+00 0.  1.
         -2   -1    0    0    0  501 -0.00000000000E+00 -0.00000000000E+00 -0.13796789981E+02  0.13796789981E+02  0.00000000000E+00 0. -1.
         25    2    1    2    0    0 -0.27165647013E+02 -0.14748622316E+02  0.86076532250E+03  0.87035638517E+03  0.12509117697E+03 0.  0.
          5    1    3    3  502    0  0.34514343200E+02 -0.13296983601E+02  0.64034670315E+03  0.64142764385E+03  0.41800000000E+01 0. -1.
         -5    1    3    3    0  502 -0.61679990213E+02 -0.14516387149E+01  0.22041861935E+03  0.22892874133E+03  0.41800000000E+01 0. -1.
        -11    1    1    2    0    0  0.57816639666E+02  0.39490078196E+00  0.19566438261E+03  0.20402811177E+03  0.00000000000E+00 0.  1.
         11    1    1    2    0    0 -0.30650992653E+02  0.14353721534E+02  0.54602633719E+02  0.64241421852E+02  0.00000000000E+00 0. -1.
</event>
<event>
 7    1  0.2440960E-009  0.9654708E+02  0.7561462E-02  0.1287729E+00
         -2   -1    0    0    0  501 -0.00000000000E+00  0.00000000000E+00  0.53573869533E+02  0.53573869533E+02  0.00000000000E+00 0.  1.
          2   -1    0    0  501    0  0.00000000000E+00 -0.00000000000E+00 -0.29357540940E+03  0.29357540940E+03  0.00000000000E+00 0. -1.
         25    2    1    2    0    0 -0.31725460052E+02  0.49995980270E+02 -0.10111713329E+03  0.17139072483E+03  0.12507598913E+03 0.  0.
          5    1    3    3  502    0 -0.44791784799E+02 -0.15914419006E+02 -0.91752760708E+02  0.10341960266E+03  0.41800000000E+01 0. -1.
         -5    1    3    3    0  502  0.13066324747E+02  0.65910399276E+02 -0.93643725804E+01  0.67971122169E+02  0.41800000000E+01 0. -1.
        -11    1    1    2    0    0  0.44973789276E+02 -0.45717919399E+02 -0.14647698450E+03  0.15990083447E+03  0.00000000000E+00 0. -1.
         11    1    1    2    0    0 -0.13248329224E+02 -0.42780608706E+01  0.75925779289E+01  0.15857719623E+02  0.00000000000E+00 0.  1.
</event>
<event>
 7    1  0.2440960E-009  0.1192931E+03  0.7561462E-02  0.1244268E+00
         -3   -1    0    0    0  501 -0.00000000000E+00  0.00000000000E+00  0.37105473208E+02  0.37105473208E+02  0.00000000000E+00 0.  1.
          3   -1    0    0  501    0  0.00000000000E+00 -0.00000000000E+00 -0.47175115759E+03  0.47175115759E+03  0.00000000000E+00 0. -1.
         25    2    1    2    0    0  0.99503490606E+01  0.68774801065E+02 -0.30451711183E+03  0.33645966342E+03  0.12508177728E+03 0.  0.
          5    1    3    3  502    0  0.63868612430E+02  0.31025568568E+02 -0.20574213837E+03  0.21769034306E+03  0.41800000000E+01 0.  1.
         -5    1    3    3    0  502 -0.53918263369E+02  0.37749232497E+02 -0.98774973454E+02  0.11876932036E+03  0.41800000000E+01 0.  1.
        -11    1    1    2    0    0 -0.19219903509E+02 -0.82629971079E+02 -0.69958838197E+02  0.10996070140E+03  0.00000000000E+00 0.  1.
         11    1    1    2    0    0  0.92695544479E+01  0.13855170014E+02 -0.60169734360E+02  0.62436265974E+02  0.00000000000E+00 0. -1.
</event>
<event>
 7    1  0.2440960E-009  0.7366215E+02  0.7561462E-02  0.1348065E+00
         -1   -1    0    0    0  501 -0.00000000000E+00  0.00000000000E+00  0.93975581258E+02  0.93975581258E+02  0.00000000000E+00 0. -1.
          1   -1    0    0  501    0  0.00000000000E+00 -0.00000000000E+00 -0.18970180014E+03  0.18970180014E+03  0.00000000000E+00 0.  1.
         25    2    1    2    0    0  0.43794866718E+02  0.21058144831E+02 -0.11803058478E+03  0.17871748025E+03  0.12508910020E+03 0.  0.
          5    1    3    3  502    0 -0.20660515374E+02  0.21493149145E+01  0.17444886523E+02  0.27445817822E+02  0.41800000000E+01 0.  1.
         -5    1    3    3    0  502  0.64455382092E+02  0.18908829916E+02 -0.13547547130E+03  0.15127166243E+03  0.41800000000E+01 0.  1.
        -11    1    1    2    0    0 -0.19872376134E+02 -0.27621863545E+02 -0.31085224322E+02  0.46088717166E+02  0.00000000000E+00 0.  1.
         11    1    1    2    0    0 -0.23922490584E+02  0.65637187137E+01  0.53389590221E+02  0.58871183979E+02  0.00000000000E+00 0. -1.
</event>
<event>
 7    1  0.2440960E-009  0.1366162E+03  0.7561462E-02  0.1217956E+00
         -2   -1    0    0    0  501 -0.00000000000E+00  0.00000000000E+00  0.51875407496E+02  0.51875407496E+02  0.00000000000E+00 0.  1.
          2   -1    0    0  501    0  0.00000000000E+00 -0.00000000000E+00 -0.52614826405E+03  0.52614826405E+03  0.00000000000E+00 0. -1.
         25    2    1    2    0    0 -0.88770496378E+02  0.44987490075E+02 -0.12599865373E+03  0.20353808774E+03  0.12509203463E+03 0.  0.
          5    1    3    3  502    0 -0.95302348930E+02  0.71192696849E+02 -0.62574436063E+02  0.13447665316E+03  0.41800000000E+01 0. -1.
         -5    1    3    3    0  502  0.65318525521E+01 -0.26205206773E+02 -0.63424217664E+02  0.69061434578E+02  0.41800000000E+01 0. -1.
        -11    1    1    2    0    0  0.71266639366E+00 -0.38575130141E+02 -0.18386332169E+03  0.18786769180E+03  0.00000000000E+00 0. -1.
         11    1    1    2    0    0  0.88057829985E+02 -0.64123599343E+01 -0.16441088113E+03  0.18661789201E+03  0.00000000000E+00 0.  1.
</event>
<event>
 7    1  0.3268541E-009  0.1124241E+03  0.7561462E-02  0.1256146E+00
         -2   -1    0    0    0  501 -0.00000000000E+00  0.00000000000E+00  0.30805488590E+02  0.30805488590E+02  0.00000000000E+00 0.  1.
          2   -1    0    0  501    0  0.00000000000E+00 -0.00000000000E+00 -0.66921853315E+03  0.66921853315E+03  0.00000000000E+00 0. -1.
         25    2    1    2    0    0  0.74538481265E+02  0.56145514160E+02 -0.32190693784E+03  0.35774182649E+03  0.12508730489E+03 0.  0.
          5    1    3    3  502    0  0.79926626617E+02  0.15369212715E+02 -0.30016229612E+03  0.31102950785E+03  0.41800000000E+01 0. -1.
         -5    1    3    3    0  502 -0.53881453522E+01  0.40776301444E+02 -0.21744641723E+02  0.46712318648E+02  0.41800000000E+01 0. -1.
        -11    1    1    2    0    0 -0.40712940975E+02 -0.54684276184E+01 -0.24463605454E+03  0.24806097324E+03  0.00000000000E+00 0. -1.
         11    1    1    2    0    0 -0.33825540290E+02 -0.50677086541E+02 -0.71870052190E+02  0.94221222015E+02  0.00000000000E+00 0.  1.
</event>
<event>
 7    1  0.2440960E-009  0.1204824E+03  0.7561462E-02  0.1242303E+00
          1   -1    0    0  501    0  0.00000000000E+00  0.00000000000E+00  0.14697137290E+03  0.14697137290E+03  0.00000000000E+00 0. -1.
         -1   -1    0    0    0  501 -0.00000000000E+00 -0.00000000000E+00 -0.13067042555E+03  0.13067042555E+03  0.00000000000E+00 0.  1.
         25    2    1    2    0    0  0.13096848800E+02 -0.74858733376E+02 -0.29017233362E+02  0.14921386008E+03  0.12508964305E+03 0.  0.
          5    1    3    3  502    0 -0.21331309144E+02 -0.97304951678E+02 -0.17562781694E+01  0.99718780998E+02  0.41800000000E+01 0.  1.
         -5    1    3    3    0  502  0.34428157944E+02  0.22446218302E+02 -0.27260955192E+02  0.49495079083E+02  0.41800000000E+01 0.  1.
        -11    1    1    2    0    0  0.23193555636E+02  0.92427273034E+01 -0.17597885563E+02  0.30545942567E+02  0.00000000000E+00 0.  1.
         11    1    1    2    0    0 -0.36290404436E+02  0.65616006072E+02  0.62916066277E+02  0.97881995805E+02  0.00000000000E+00 0. -1.
</event>
<event>
 7    1  0.2440960E-009  0.1788182E+03  0.7561462E-02  0.1168952E+00
          2   -1    0    0  501    0  0.00000000000E+00  0.00000000000E+00  0.34295216936E+03  0.34295216936E+03  0.00000000000E+00 0. -1.
         -2   -1    0    0    0  501 -0.00000000000E+00 -0.00000000000E+00 -0.14855733946E+03  0.14855733946E+03  0.00000000000E+00 0.  1.
         25    2    1    2    0    0 -0.11468461437E+03 -0.12626201159E+03  0.21134982258E+03  0.29901787006E+03  0.12509309641E+03 0.  0.
          5    1    3    3  502    0 -0.20687617846E+02  0.72419802589E+01 -0.95692825190E+01  0.24278949280E+02  0.41800000000E+01 0.  1.
         -5    1    3    3    0  502 -0.93996996520E+02 -0.13350399185E+03  0.22091910510E+03  0.27473892078E+03  0.41800000000E+01 0.  1.
        -11    1    1    2    0    0  0.64989315090E+02  0.87364433657E+02 -0.51606048377E+02  0.12049622224E+03  0.00000000000E+00 0.  1.
         11    1    1    2    0    0  0.49695299276E+02  0.38897577933E+02  0.34651055702E+02  0.71995416524E+02  0.00000000000E+00 0. -1.
</event>
<event>
 7    1  0.2440960E-009  0.1516106E+03  0.7561462E-02  0.1198508E+00
          3   -1    0    0  501    0  0.00000000000E+00  0.00000000000E+00  0.61411662965E+03  0.61411662965E+03  0.00000000000E+00 0. -1.
         -3   -1    0    0    0  501 -0.00000000000E+00 -0.00000000000E+00 -0.41772572215E+02  0.41772572215E+02  0.00000000000E+00 0.  1.
         25    2    1    2    0    0 -0.52889079879E+02  0.96996330581E+02  0.37025040372E+03  0.40612542971E+03  0.12508781029E+03 0.  0.
          5    1    3    3  502    0  0.31294751906E+02  0.53499900170E+02  0.21860735734E+03  0.22726251318E+03  0.41800000000E+01 0.  1.
         -5    1    3    3    0  502 -0.84183831784E+02  0.43496430412E+02  0.15164304638E+03  0.17886291653E+03  0.41800000000E+01 0.  1.
        -11    1    1    2    0    0  0.48709510603E+02  0.45320355410E+00  0.77401771643E+02  0.91454120029E+02  0.00000000000E+00 0.  1.
         11    1    1    2    0    0  0.41795692753E+01 -0.97449534136E+02  0.12469188207E+03  0.15830965213E+03  0.00000000000E+00 0. -1.
</event>
<event>
 7    1  0.2440960E-009  0.2785685E+03  0.7561462E-02  0.1096473E+00
         -2   -1    0    0    0  501 -0.00000000000E+00  0.00000000000E+00  0.22034779388E+03  0.22034779388E+03  0.00000000000E+00 0.  1.
          2   -1    0    0  501    0  0.00000000000E+00 -0.00000000000E+00 -0.40326001341E+03  0.40326001341E+03  0.00000000000E+00 0. -1.
         25    2    1    2    0    0 -0.11716668846E+03  0.23096148015E+03  0.98278250014E+01  0.28777628439E+03  0.12508943008E+03 0.  0.
          5    1    3    3  502    0 -0.11532097088E+03  0.90069479708E+02 -0.10642157379E+01  0.14639003537E+03  0.41800000000E+01 0.  1.
         -5    1    3    3    0  502 -0.18457175746E+01  0.14089200044E+03  0.10892040739E+02  0.14138624903E+03  0.41800000000E+01 0.  1.
        -11    1    1    2    0    0  0.94472041317E+01 -0.98956430635E+02 -0.10346593695E+03  0.14348109610E+03  0.00000000000E+00 0.  1.
         11    1    1    2    0    0  0.10771948432E+03 -0.13200504952E+03 -0.89274107590E+02  0.19235042679E+03  0.00000000000E+00 0. -1.
</event>
<event>
 7    1  0.3001060E-009  0.1084632E+03  0.7561462E-02  0.1263443E+00
         -2   -1    0    0    0  501 -0.00000000000E+00  0.00000000000E+00  0.90913008992E+02  0.90913008992E+02  0.00000000000E+00 0.  1.
          2   -1    0    0  501    0  0.00000000000E+00 -0.00000000000E+00 -0.18772521701E+03  0.18772521701E+03  0.00000000000E+00 0. -1.
         25    2    1    2    0    0 -0.53457767596E+02 -0.37962587970E+01 -0.10444816459E+01  0.13608997889E+03  0.12508895601E+03 0.  0.
          5    1    3    3  502    0 -0.84398305876E+02 -0.35378075800E+02 -0.27176673039E+01  0.91649006528E+02  0.41800000000E+01 0.  1.
         -5    1    3    3    0  502  0.30940538279E+02  0.31581817003E+02  0.16731856580E+01  0.44440972362E+02  0.41800000000E+01 0.  1.
        -11    1    1    2    0    0  0.66587647023E+02  0.81288190545E+01 -0.26847705718E+02  0.72255046451E+02  0.00000000000E+00 0.  1.
         11    1    1    2    0    0 -0.13129879427E+02 -0.43325602574E+01 -0.68920020659E+02  0.70293200666E+02  0.00000000000E+00 0. -1.
</event>
<event>
 7    1  0.2440960E-009  0.1447555E+03  0.7561462E-02  0.1207070E+00
         -1   -1    0    0    0  501 -0.00000000000E+00  0.00000000000E+00  0.55647265561E+02  0.55647265561E+02  0.00000000000E+00 0.  1.
          1   -1    0    0  501    0  0.00000000000E+00 -0.00000000000E+00 -0.55554964597E+03  0.55554964597E+03  0.00000000000E+00 0. -1.
         25    2    1    2    0    0  0.45754473830E+02  0.98398108621E+02 -0.11669837065E+03  0.20258799298E+03  0.12509086911E+03 0.  0.
          5    1    3    3  502    0  0.56107537441E+02  0.11845408805E+03 -0.12190928230E+03  0.17904963626E+03  0.41800000000E+01 0. -1.
         -5    1    3    3    0  502 -0.10353063611E+02 -0.20055979432E+02  0.52109116504E+01  0.23538356726E+02  0.41800000000E+01 0. -1.
        -11    1    1    2    0    0 -0.37453756207E+01  0.14491210809E+02 -0.14945151037E+02  0.21151372740E+02  0.00000000000E+00 0.  1.
         11    1    1    2    0    0 -0.42009098209E+02 -0.11288931943E+03 -0.36825885873E+03  0.38745754581E+03  0.00000000000E+00 0. -1.
</event>
<event>
 7    1  0.2440960E-009  0.7370223E+02  0.7561462E-02  0.1347938E+00
          2   -1    0    0  501    0  0.00000000000E+00  0.00000000000E+00  0.14531612739E+03  0.14531612739E+03  0.00000000000E+00 0. -1.
         -2   -1    0    0    0  501 -0.00000000000E+00 -0.00000000000E+00 -0.98989730582E+02  0.98989730582E+02  0.00000000000E+00 0.  1.
         25    2    1    2    0    0 -0.41607730294E+02 -0.28339085590E+02  0.27795492003E+02  0.13767421782E+03  0.12508914375E+03 0.  0.
          5    1    3    3  502    0 -0.11647689859E+02 -0.48610774497E+02  0.67306373380E+02  0.83942220449E+02  0.41800000000E+01 0. -1.
         -5    1    3    3    0  502 -0.29960040436E+02  0.20271688907E+02 -0.39510881378E+02  0.53731997369E+02  0.41800000000E+01 0. -1.
        -11    1    1    2    0    0  0.13318485477E+02  0.29655412816E+02 -0.33945447108E+02  0.47001265345E+02  0.00000000000E+00 0.  1.
         11    1    1    2    0    0  0.28289244817E+02 -0.13163272266E+01  0.52476351909E+02  0.59630374805E+02  0.00000000000E+00 0. -1.
</event>
<event>
 7    1  0.2443466E-009  0.1313078E+03  0.7561462E-02  0.1225528E+00
          1   -1    0    0  501    0  0.00000000000E+00  0.00000000000E+00  0.14973348331E+04  0.14973348331E+04  0.00000000000E+00 0. -1.
         -1   -1    0    0    0  501 -0.00000000000E+00 -0.00000000000E+00 -0.18243352116E+02  0.18243352116E+02  0.00000000000E+00 0.  1.
         25    2    1    2    0    0 -0.10101231278E+03  0.10399551235E+02  0.11124552208E+04  0.11240623484E+04  0.12509159391E+03 0.  0.
          5    1    3    3  502    0 -0.12951586986E+03 -0.19961749336E+01  0.87525109416E+03  0.88479392826E+03  0.41800000000E+01 0.  1.
         -5    1    3    3    0  502  0.28503557080E+02  0.12395726168E+02  0.23720412662E+03  0.23926842014E+03  0.41800000000E+01 0.  1.
        -11    1    1    2    0    0  0.39639294788E+02 -0.17777147600E+01  0.31403859318E+02  0.50602730570E+02  0.00000000000E+00 0.  1.
         11    1    1    2    0    0  0.61373017988E+02 -0.86218364748E+01  0.33523240086E+03  0.34091310621E+03  0.00000000000E+00 0. -1.
</event>
<event>
 7    1  0.2440960E-009  0.2492707E+03  0.7561462E-02  0.1113767E+00
         -2   -1    0    0    0  501 -0.00000000000E+00  0.00000000000E+00  0.16278800993E+03  0.16278800993E+03  0.00000000000E+00 0. -1.
          2   -1    0    0  501    0  0.00000000000E+00 -0.00000000000E+00 -0.42258490759E+03  0.42258490759E+03  0.00000000000E+00 0.  1.
         25    2    1    2    0    0 -0.19431504357E+02  0.23171859048E+03 -0.18157202053E+03  0.32044813364E+03  0.12509004429E+03 0.  0.
          5    1    3    3  502    0 -0.17496089491E+02  0.12410976102E+01 -0.54104674199E+02  0.57030181842E+02  0.41800000000E+01 0.  1.
         -5    1    3    3    0  502 -0.19354148662E+01  0.23047749287E+03 -0.12746734633E+03  0.26341795180E+03  0.41800000000E+01 0.  1.
        -11    1    1    2    0    0 -0.22863090363E+02 -0.18716018462E+03 -0.40565839455E+02  0.19286586774E+03  0.00000000000E+00 0. -1.
         11    1    1    2    0    0  0.42294594720E+02 -0.44558405857E+02 -0.37659037676E+02  0.72058916130E+02  0.00000000000E+00 0.  1.
</event>
<event>
 7    1  0.2440960E-009  0.2399330E+03  0.7561462E-02  0.1119837E+00
         -2   -1    0    0    0  501 -0.00000000000E+00  0.00000000000E+00  0.67794457839E+03  0.67794457839E+03  0.00000000000E+00 0.  1.
          2   -1    0    0  501    0  0.00000000000E+00 -0.00000000000E+00 -0.88651557667E+02  0.88651557667E+02  0.00000000000E+00 0. -1.
         25    2    1    2    0    0  0.20449331169E+03  0.77267594085E+02  0.34067868064E+03  0.42367371490E+03  0.12509859164E+03 0.  0.
          5    1    3    3  502    0  0.35622840134E+02  0.65914139420E+02  0.15614898656E+03  0.17324444845E+03  0.41800000000E+01 0. -1.
         -5    1    3    3    0  502  0.16887047155E+03  0.11353454666E+02  0.18452969408E+03  0.25042926645E+03  0.41800000000E+01 0. -1.
        -11    1    1    2    0    0 -0.37668834105E+02  0.19755690176E+02  0.55299567356E+02  0.69765826211E+02  0.00000000000E+00 0.  1.
         11    1    1    2    0    0 -0.16682447758E+03 -0.97023284262E+02  0.19331477272E+03  0.27315659495E+03  0.00000000000E+00 0. -1.
</event>
<event>
 7    1  0.2440960E-009  0.9649426E+02  0.7561462E-02  0.1287846E+00
         -2   -1    0    0    0  501 -0.00000000000E+00  0.00000000000E+00  0.74762156200E+02  0.74762156200E+02  0.00000000000E+00 0.  1.
          2   -1    0    0  501    0  0.00000000000E+00 -0.00000000000E+00 -0.26389437444E+03  0.26389437444E+03  0.00000000000E+00 0. -1.
         25    2    1    2    0    0 -0.57729363796E-01  0.57797419538E+02 -0.23574874715E+02  0.13979343095E+03  0.12508350643E+03 0.  0.
          5    1    3    3  502    0  0.32899055744E+02  0.64586407555E+02 -0.56905860730E+02  0.92246958189E+02  0.41800000000E+01 0.  1.
         -5    1    3    3    0  502 -0.32956785107E+02 -0.67889880166E+01  0.33330986015E+02  0.47546472757E+02  0.41800000000E+01 0.  1.
        -11    1    1    2    0    0  0.83256245231E+01  0.12870159834E+02  0.32545228915E+01  0.15670001822E+02  0.00000000000E+00 0.  1.
         11    1    1    2    0    0 -0.82678951593E+01 -0.70667579372E+02 -0.16881186641E+03  0.18319309787E+03  0.00000000000E+00 0. -1.
</event>
<event>
 7    1  0.2440960E-009  0.7787888E+02  0.7561462E-02  0.1335181E+00
         -1   -1    0    0    0  501 -0.00000000000E+00  0.00000000000E+00  0.46937096175E+02  0.46937096175E+02  0.00000000000E+00 0.  1.
          1   -1    0    0  501    0  0.00000000000E+00 -0.00000000000E+00 -0.26865909244E+03  0.26865909244E+03  0.00000000000E+00 0. -1.
         25    2    1    2    0    0  0.72096295620E+01 -0.13608169643E+02 -0.15555890377E+03  0.20020100902E+03  0.12507881687E+03 0.  0.
          5    1    3    3  502    0 -0.26805229212E+02  0.31846624138E+02 -0.87487304897E+01  0.42740384501E+02  0.41800000000E+01 0.  1.
         -5    1    3    3    0  502  0.34014858774E+02 -0.45454793780E+02 -0.14681017328E+03  0.15746062452E+03  0.41800000000E+01 0.  1.
        -11    1    1    2    0    0 -0.31225112414E+02  0.59329060554E+01 -0.80390581410E+02  0.86445662696E+02  0.00000000000E+00 0. -1.
         11    1    1    2    0    0  0.24015482852E+02  0.76752635872E+01  0.14227488917E+02  0.28949516898E+02  0.00000000000E+00 0.  1.
</event>
<event>
 7    1  0.2440960E-009  0.1091077E+03  0.7561462E-02  0.1262231E+00
          2   -1    0    0  501    0  0.00000000000E+00  0.00000000000E+00  0.30683842956E+03  0.30683842956E+03  0.00000000000E+00 0. -1.
         -2   -1    0    0    0  501 -0.00000000000E+00 -0.00000000000E+00 -0.51195261246E+02  0.51195261246E+02  0.00000000000E+00 0.  1.
         25    2    1    2    0    0  0.15525486027E+02  0.43486400051E+02  0.79327571098E+02  0.15515326016E+03  0.12509021902E+03 0.  0.
          5    1    3    3  502    0 -0.91197091411E+01 -0.41618679919E+02  0.14176325693E+02  0.45096831631E+02  0.41800000000E+01 0. -1.
         -5    1    3    3    0  502  0.24645195168E+02  0.85105079970E+02  0.65151245405E+02  0.11005642852E+03  0.41800000000E+01 0. -1.
        -11    1    1    2    0    0 -0.42567059402E+02 -0.10115320855E+02  0.37672425665E+02  0.57736348323E+02  0.00000000000E+00 0. -1.
         11    1    1    2    0    0  0.27041573375E+02 -0.33371079196E+02  0.13864317155E+03  0.14514408233E+03  0.00000000000E+00 0.  1.
</event>
<event>
 7    1  0.2440960E-009  0.1070886E+03  0.7561462E-02  0.1266058E+00
          1   -1    0    0  501    0  0.00000000000E+00  0.00000000000E+00  0.32975590862E+03  0.32975590862E+03  0.00000000000E+00 0. -1.
         -1   -1    0    0    0  501 -0.00000000000E+00 -0.00000000000E+00 -0.47999610886E+02  0.47999610886E+02  0.00000000000E+00 0.  1.
         25    2    1    2    0    0  0.56271900398E+02 -0.10132664556E+02  0.10958678454E+03  0.17585852351E+03  0.12509100400E+03 0.  0.
          5    1    3    3  502    0  0.74987827630E+02 -0.52083999490E+02  0.74066549557E+02  0.11764031392E+03  0.41800000000E+01 0.  1.
         -5    1    3    3    0  502 -0.18715927232E+02  0.41951334935E+02  0.35520234984E+02  0.58218209593E+02  0.41800000000E+01 0.  1.
        -11    1    1    2    0    0 -0.32041368882E+02 -0.20164880292E+02  0.15485112342E+03  0.15941186324E+03  0.00000000000E+00 0. -1.
         11    1    1    2    0    0 -0.24230531516E+02  0.30297544847E+02  0.17318389782E+02  0.42485132764E+02  0.00000000000E+00 0.  1.
</event>
<event>
 7    1  0.2440960E-009  0.9583770E+02  0.7561462E-02  0.1289300E+00
          1   -1    0    0  501    0  0.00000000000E+00  0.00000000000E+00  0.13950732278E+03  0.13950732278E+03  0.00000000000E+00 0. -1.
         -1   -1    0    0    0  501 -0.00000000000E+00 -0.00000000000E+00 -0.12077201807E+03  0.12077201807E+03  0.00000000000E+00 0.  1.
         25    2    1    2    0    0 -0.22202943175E+02  0.54665684653E+02  0.50767566860E+02  0.14732565990E+03  0.12508475709E+03 0.  0.
          5    1    3    3  502    0  0.36535370258E+02  0.17614949692E+02 -0.22265663171E+02  0.46458065920E+02  0.41800000000E+01 0. -1.
         -5    1    3    3    0  502 -0.58738313434E+02  0.37050734961E+02  0.73033230030E+02  0.10086759398E+03  0.41800000000E+01 0. -1.
        -11    1    1    2    0    0  0.22827603209E+02  0.35555061445E+01 -0.47404115467E+02  0.52734156440E+02  0.00000000000E+00 0.  1.
         11    1    1    2    0    0 -0.62466003323E+00 -0.58221190798E+02  0.15371853312E+02  0.60219524511E+02  0.00000000000E+00 0. -1.
</event>
<event>
 7    1  0.2440960E-009  0.1053992E+03  0.7561462E-02  0.1269335E+00
          1   -1    0    0  501    0  0.00000000000E+00  0.00000000000E+00  0.29843222602E+03  0.29843222602E+03  0.00000000000E+00 0. -1.
         -1   -1    0    0    0  501 -0.00000000000E+00 -0.00000000000E+00 -0.39210665845E+02  0.39210665845E+02  0.00000000000E+00 0.  1.
         25    2    1    2    0    0  0.16568263589E+01 -0.58505425516E+01  0.16669552821E+03  0.20850094425E+03  0.12509304818E+03 0.  0.
          5    1    3    3  502    0 -0.50862864307E+02 -0.36541427567E+02  0.68443040618E+02  0.92866727643E+02  0.41800000000E+01 0.  1.
         -5    1    3    3    0  502  0.52519690666E+02  0.30690885016E+02  0.98252487595E+02  0.11563421660E+03  0.41800000000E+01 0.  1.
        -11    1    1    2    0    0  0.36772116219E+02  0.24656928054E+02  0.63617434724E+02  0.77506971513E+02  0.00000000000E+00 0. -1.
         11    1    1    2    0    0 -0.38428942578E+02 -0.18806385503E+02  0.28908597239E+02  0.51634976108E+02  0.00000000000E+00 0.  1.
</event>
<event>
 7    1  0.2440960E-009  0.1061274E+03  0.7561462E-02  0.1267914E+00
          2   -1    0    0  501    0  0.00000000000E+00  0.00000000000E+00  0.14153468292E+03  0.14153468292E+03  0.00000000000E+00 0. -1.
         -2   -1    0    0    0  501 -0.00000000000E+00 -0.00000000000E+00 -0.13127270808E+03  0.13127270808E+03  0.00000000000E+00 0.  1.
         25    2    1    2    0    0 -0.30157363688E+02  0.73843597925E+02  0.26068974011E+02  0.15062714361E+03  0.12508637594E+03 0.  0.
          5    1    3    3  502    0  0.14379362134E+02  0.96418171524E+01 -0.42819090146E+02  0.46375398374E+02  0.41800000000E+01 0.  1.
         -5    1    3    3    0  502 -0.44536725822E+02  0.64201780772E+02  0.68888064157E+02  0.10425174524E+03  0.41800000000E+01 0.  1.
        -11    1    1    2    0    0  0.59488945694E+02 -0.41506397586E+02 -0.26508487581E+02  0.77229629121E+02  0.00000000000E+00 0.  1.
         11    1    1    2    0    0 -0.29331582006E+02 -0.32337200338E+02  0.10701488404E+02  0.44950618269E+02  0.00000000000E+00 0. -1.
</event>
<event>
 7    1  0.2440960E-009  0.1035229E+03  0.7561462E-02  0.1273058E+00
          2   -1    0    0  501    0  0.00000000000E+00  0.00000000000E+00  0.74404900895E+03  0.74404900895E+03  0.00000000000E+00 0. -1.
         -2   -1    0    0    0  501 -0.00000000000E+00 -0.00000000000E+00 -0.18502443921E+02  0.18502443921E+02  0.00000000000E+00 0.  1.
         25    2    1    2    0    0  0.48115365866E+02  0.20556774583E+02  0.43099827578E+03  0.45182500055E+03  0.12509455616E+03 0.  0.
          5    1    3    3  502    0 -0.27721628281E+02 -0.41311047217E+01  0.27609835380E+03  0.27754878503E+03  0.41800000000E+01 0.  1.
         -5    1    3    3    0  502  0.75836994147E+02  0.24687879305E+02  0.15489992198E+03  0.17427621552E+03  0.41800000000E+01 0.  1.
        -11    1    1    2    0    0  0.19631253330E+02  0.12693769728E+02  0.76105366030E+02  0.79614977459E+02  0.00000000000E+00 0.  1.
         11    1    1    2    0    0 -0.67746619196E+02 -0.33250544311E+02  0.21844292322E+03  0.23111147486E+03  0.00000000000E+00 0. -1.
</event>
<event>
 7    1  0.2440960E-009  0.1495401E+03  0.7561462E-02  0.1201039E+00
         -2   -1    0    0    0  501 -0.00000000000E+00  0.00000000000E+00  0.10642388421E+03  0.10642388421E+03  0.00000000000E+00 0.  1.
          2   -1    0    0  501    0  0.00000000000E+00 -0.00000000000E+00 -0.29257178058E+03  0.29257178058E+03  0.00000000000E+00 0. -1.
         25    2    1    2    0    0 -0.90955389585E+01  0.10381829620E+03 -0.20190744613E+03  0.25937382191E+03  0.12508874943E+03 0.  0.
          5    1    3    3  502    0  0.74333398089E+01  0.12936269512E+03 -0.14354000179E+03  0.19341966276E+03  0.41800000000E+01 0. -1.
         -5    1    3    3    0  502 -0.16528878767E+02 -0.25544398922E+02 -0.58367444341E+02  0.65954159145E+02  0.41800000000E+01 0. -1.
        -11    1    1    2    0    0 -0.33120897350E+02 -0.80797375313E+01  0.43433743410E+01  0.34367730511E+02  0.00000000000E+00 0.  1.
         11    1    1    2    0    0  0.42216436308E+02 -0.95738558665E+02  0.11416175422E+02  0.10525411237E+03  0.00000000000E+00 0. -1.
</event>
<event>
 7    1  0.2440960E-009  0.1239504E+03  0.7561462E-02  0.1236719E+00
          2   -1    0    0  501    0  0.00000000000E+00  0.00000000000E+00  0.34975219880E+03  0.34975219880E+03  0.00000000000E+00 0. -1.
         -2   -1    0    0    0  501 -0.00000000000E+00 -0.00000000000E+00 -0.62465763519E+02  0.62465763519E+02  0.00000000000E+00 0.  1.
         25    2    1    2    0    0 -0.34059565674E+02  0.90758537231E+02  0.19283775781E+03  0.24946627008E+03  0.12509937241E+03 0.  0.
          5    1    3    3  502    0 -0.53824562008E+02  0.73858855171E+01  0.13613403618E+03  0.14663418082E+03  0.41800000000E+01 0. -1.
         -5    1    3    3    0  502  0.19764996335E+02  0.83372651714E+02  0.56703721637E+02  0.10283208926E+03  0.41800000000E+01 0. -1.
        -11    1    1    2    0    0 -0.11686214755E+02 -0.13653438716E+02  0.66434816214E+02  0.68822734684E+02  0.00000000000E+00 0. -1.
         11    1    1    2    0    0  0.45745780428E+02 -0.77105098515E+02  0.28013861251E+02  0.93928957549E+02  0.00000000000E+00 0.  1.
</event>
<event>
 7    1  0.2440960E-009  0.2209570E+03  0.7561462E-02  0.1133172E+00
         -2   -1    0    0    0  501 -0.00000000000E+00  0.00000000000E+00  0.45231702378E+02  0.45231702378E+02  0.00000000000E+00 0.  1.
          2   -1    0    0  501    0  0.00000000000E+00 -0.00000000000E+00 -0.17321884738E+04  0.17321884738E+04  0.00000000000E+00 0. -1.
         25    2    1    2    0    0 -0.12664794440E+03  0.16268085399E+03 -0.13536536577E+04  0.13749655139E+04  0.12508867835E+03 0.  0.
          5    1    3    3  502    0 -0.28504787101E+02  0.10631732798E+03 -0.40996279555E+03  0.42450307802E+03  0.41800000000E+01 0.  1.
         -5    1    3    3    0  502 -0.98143157295E+02  0.56363526011E+02 -0.94369086215E+03  0.95046243592E+03  0.41800000000E+01 0.  1.
        -11    1    1    2    0    0  0.13145296041E+03 -0.12793412729E+03 -0.23521798598E+03  0.29828597462E+03  0.00000000000E+00 0.  1.
         11    1    1    2    0    0 -0.48050160142E+01 -0.34746726697E+02 -0.98085127704E+02  0.10416868758E+03  0.00000000000E+00 0. -1.
</event>
<event>
 7    1  0.2544712E-009  0.1401674E+03  0.7561462E-02  0.1213104E+00
         -2   -1    0    0    0  501 -0.00000000000E+00  0.00000000000E+00  0.47733133208E+02  0.47733133208E+02  0.00000000000E+00 0.  1.
          2   -1    0    0  501    0  0.00000000000E+00 -0.00000000000E+00 -0.50690147039E+03  0.50690147039E+03  0.00000000000E+00 0. -1.
         25    2    1    2    0    0  0.52961517903E+02  0.97917195587E+02 -0.24250272867E+03  0.29469774490E+03  0.12508592194E+03 0.  0.
          5    1    3    3  502    0 -0.21530213858E+02  0.31264338952E+02 -0.70011394652E+01  0.38826503225E+02  0.41800000000E+01 0. -1.
         -5    1    3    3    0  502  0.74491731761E+02  0.66652856635E+02 -0.23550158920E+03  0.25587124167E+03  0.41800000000E+01 0. -1.
        -11    1    1    2    0    0 -0.69287529114E+02 -0.36031545268E+02 -0.10015471080E+03  0.12700393710E+03  0.00000000000E+00 0.  1.
         11    1    1    2    0    0  0.16326011211E+02 -0.61885650319E+02 -0.11651089772E+03  0.13293292160E+03  0.00000000000E+00 0. -1.
</event>
<event>
 7    1  0.2440960E-009  0.9180447E+02  0.7561462E-02  0.1298540E+00
          3   -1    0    0  501    0  0.00000000000E+00  0.00000000000E+00  0.17844872690E+03  0.17844872690E+03  0.00000000000E+00 0. -1.
         -3   -1    0    0    0  501 -0.00000000000E+00 -0.00000000000E+00 -0.88639862742E+02  0.88639862742E+02  0.00000000000E+00 0.  1.
         25    2    1    2    0    0  0.49420582701E+02  0.33511688237E+02  0.29113692698E+02  0.14164744896E+03  0.12510381869E+03 0.  0.
          5    1    3    3  502    0  0.37927219935E+02 -0.79967589593E+01  0.71269228855E+02  0.81235445142E+02  0.41800000000E+01 0.  1.
         -5    1    3    3    0  502  0.11493362765E+02  0.41508447196E+02 -0.42155536157E+02  0.60412003815E+02  0.41800000000E+01 0.  1.
        -11    1    1    2    0    0 -0.58564088686E+02  0.77619097371E+01  0.58453889682E+02  0.83107502342E+02  0.00000000000E+00 0. -1.
         11    1    1    2    0    0  0.91435059859E+01 -0.41273597974E+02  0.22412817773E+01  0.42333638344E+02  0.00000000000E+00 0.  1.
</event>
<event>
 7    1  0.2440960E-009  0.1355639E+03  0.7561462E-02  0.1219426E+00
         -1   -1    0    0    0  501 -0.00000000000E+00  0.00000000000E+00  0.65359450958E+02  0.65359450958E+02  0.00000000000E+00 0.  1.
          1   -1    0    0  501    0  0.00000000000E+00 -0.00000000000E+00 -0.33487478317E+03  0.33487478317E+03  0.00000000000E+00 0. -1.
         25    2    1    2    0    0  0.39151794989E+02  0.77585291435E+02 -0.21176310445E+03  0.26084997642E+03  0.12508699889E+03 0.  0.
          5    1    3    3  502    0  0.61996858198E+02 -0.26853171269E+01 -0.54193489591E+02  0.82493806243E+02  0.41800000000E+01 0.  1.
         -5    1    3    3    0  502 -0.22845063209E+02  0.80270608562E+02 -0.15756961486E+03  0.17835617017E+03  0.41800000000E+01 0.  1.
        -11    1    1    2    0    0 -0.62591629135E+02 -0.24276003457E+02 -0.41492942828E+02  0.78922117852E+02  0.00000000000E+00 0.  1.
         11    1    1    2    0    0  0.23439834146E+02 -0.53309287978E+02 -0.16259284930E+02  0.60462139856E+02  0.00000000000E+00 0. -1.
</event>
<event>
 7    1  0.2440960E-009  0.1294088E+03  0.7561462E-02  0.1228336E+00
          2   -1    0    0  501    0  0.00000000000E+00  0.00000000000E+00  0.48067472461E+02  0.48067472461E+02  0.00000000000E+00 0. -1.
         -2   -1    0    0    0  501 -0.00000000000E+00 -0.00000000000E+00 -0.36600506545E+03  0.36600506545E+03  0.00000000000E+00 0.  1.
         25    2    1    2    0    0  0.75520369378E+02  0.13328643812E+01 -0.18638701549E+03  0.23683845683E+03  0.12508889788E+03 0.  0.
          5    1    3    3  502    0  0.18385559486E+02  0.60605722620E+02 -0.87572560246E+02  0.10815501893E+03  0.41800000000E+01 0. -1.
         -5    1    3    3    0  502  0.57134809892E+02 -0.59272858239E+02 -0.98814455244E+02  0.12868343790E+03  0.41800000000E+01 0. -1.
        -11    1    1    2    0    0 -0.80432018637E+02  0.26473872302E+02 -0.11967225763E+03  0.14660022095E+03  0.00000000000E+00 0.  1.
         11    1    1    2    0    0  0.49116492582E+01 -0.27806736683E+02 -0.11878319869E+02  0.30633860127E+02  0.00000000000E+00 0. -1.
</event>
<event>
 7    1  0.2440960E-009  0.1087709E+03  0.7561462E-02  0.1262863E+00
         -1   -1    0    0    0  501 -0.00000000000E+00  0.00000000000E+00  0.87033662978E+02  0.87033662978E+02  0.00000000000E+00 0.  1.
          1   -1    0    0  501    0  0.00000000000E+00 -0.00000000000E+00 -0.17556061486E+03  0.17556061486E+03  0.00000000000E+00 0. -1.
         25    2    1    2    0    0  0.56772076112E+02  0.77746106272E+01 -0.33996627716E+02  0.14173641602E+03  0.12509967120E+03 0.  0.
          5    1    3    3  502    0  0.92355157567E+02  0.13651065549E+02 -0.45106044057E+02  0.10376827227E+03  0.41800000000E+01 0. -1.
         -5    1    3    3    0  502 -0.35583081455E+02 -0.58764549215E+01  0.11109416341E+02  0.37968143749E+02  0.41800000000E+01 0. -1.
        -11    1    1    2    0    0 -0.54709326517E+02  0.21245572600E+02 -0.67117289259E+02  0.89158371903E+02  0.00000000000E+00 0. -1.
         11    1    1    2    0    0 -0.20627495951E+01 -0.29020183227E+02  0.12586965094E+02  0.31699489912E+02  0.00000000000E+00 0.  1.
</event>
<event>
 7    1  0.2440960E-009  0.1064460E+03  0.7561462E-02  0.1267297E+00
          1   -1    0    0  501    0  0.00000000000E+00  0.00000000000E+00  0.16713209127E+04  0.16713209127E+04  0.00000000000E+00 0. -1.
         -1   -1    0    0    0  501 -0.00000000000E+00 -0.00000000000E+00 -0.12527226891E+02  0.12527226891E+02  0.00000000000E+00 0.  1.
         25    2    1    2    0    0  0.44737756571E+02 -0.30791850968E+01  0.13914049253E+04  0.13977359555E+04  0.12508871609E+03 0.  0.
          5    1    3    3  502    0  0.80751030009E+02  0.12270939004E+02  0.11702155446E+04  0.11730699885E+04  0.41800000000E+01 0.  1.
         -5    1    3    3    0  502 -0.36013273438E+02 -0.15350124101E+02  0.22118938074E+03  0.22466596699E+03  0.41800000000E+01 0.  1.
        -11    1    1    2    0    0  0.17624054555E+02  0.20453822037E+02  0.14663547826E+03  0.14910040114E+03  0.00000000000E+00 0. -1.
         11    1    1    2    0    0 -0.62361811126E+02 -0.17374636941E+02  0.12075328227E+03  0.13701178297E+03  0.00000000000E+00 0.  1.
</event>
<event>
 7    1  0.2440960E-009  0.1089873E+03  0.7561462E-02  0.1262457E+00
          1   -1    0    0  501    0  0.00000000000E+00  0.00000000000E+00  0.26952992382E+03  0.26952992382E+03  0.00000000000E+00 0. -1.
         -1   -1    0    0    0  501 -0.00000000000E+00 -0.00000000000E+00 -0.54407629747E+02  0.54407629747E+02  0.00000000000E+00 0.  1.
         25    2    1    2    0    0 -0.72466773457E+01  0.93841268286E+01  0.52249386889E+02  0.13607952116E+03  0.12508821479E+03 0.  0.
          5    1    3    3  502    0 -0.49436504381E+02 -0.37104442482E+02  0.33485443275E+02  0.70423397593E+02  0.41800000000E+01 0.  1.
         -5    1    3    3    0  502  0.42189827036E+02  0.46488569310E+02  0.18763943615E+02  0.65656123566E+02  0.41800000000E+01 0.  1.
        -11    1    1    2    0    0  0.39741570981E+02 -0.34029371943E+02  0.10111074280E+03  0.11384539046E+03  0.00000000000E+00 0. -1.
         11    1    1    2    0    0 -0.32494893635E+02  0.24645245114E+02  0.61762164388E+02  0.74012641954E+02  0.00000000000E+00 0.  1.
</event>
<event>
 7    1  0.2440960E-009  0.1116266E+03  0.7561462E-02  0.1257587E+00
         -3   -1    0    0    0  501 -0.00000000000E+00  0.00000000000E+00  0.57157741248E+02  0.57157741248E+02  0.00000000000E+00 0.  1.
          3   -1    0    0  501    0  0.00000000000E+00 -0.00000000000E+00 -0.37720773022E+03  0.37720773022E+03  0.00000000000E+00 0. -1.
         25    2    1    2    0    0  0.64482519069E+02 -0.12305335832E+02 -0.29080668950E+03  0.32330340608E+03  0.12508854933E+03 0.  0.
          5    1    3    3  502    0  0.78478973743E+02  0.25512545110E+02 -0.25874132448E+03  0.27161440439E+03  0.41800000000E+01 0. -1.
         -5    1    3    3    0  502 -0.13996454674E+02 -0.37817880943E+02 -0.32065365014E+02  0.51689001692E+02  0.41800000000E+01 0. -1.
        -11    1    1    2    0    0 -0.43361098157E+02  0.44143512853E+02  0.16929688480E+01  0.61900732661E+02  0.00000000000E+00 0.  1.
         11    1    1    2    0    0 -0.21121420912E+02 -0.31838177021E+02 -0.30936268321E+02  0.49161332722E+02  0.00000000000E+00 0. -1.
</event>
<event>
 7    1  0.2440960E-009  0.2092972E+03  0.7561462E-02  0.1142124E+00
         -2   -1    0    0    0  501 -0.00000000000E+00  0.00000000000E+00  0.25543020729E+03  0.25543020729E+03  0.00000000000E+00 0.  1.
          2   -1    0    0  501    0  0.00000000000E+00 -0.00000000000E+00 -0.47484818218E+03  0.47484818218E+03  0.00000000000E+00 0. -1.
         25    2    1    2    0    0 -0.17779005109E+03 -0.10039947390E+03 -0.38381907278E+03  0.45238683781E+03  0.12508962294E+03 0.  0.
          5    1    3    3  502    0 -0.11708632586E+03 -0.92004379201E+02 -0.15303197158E+03  0.21356561105E+03  0.41800000000E+01 0. -1.
         -5    1    3    3    0  502 -0.60703725226E+02 -0.83950946986E+01 -0.23078710120E+03  0.23882122676E+03  0.41800000000E+01 0. -1.
        -11    1    1    2    0    0  0.13169617511E+03  0.52637780281E+02  0.15624733973E+03  0.21101623071E+03  0.00000000000E+00 0.  1.
         11    1    1    2    0    0  0.46093875986E+02  0.47761693619E+02  0.81537581583E+01  0.66875320955E+02  0.00000000000E+00 0. -1.
</event>
<event>
 7    1  0.2440960E-009  0.1095967E+03  0.7561462E-02  0.1261319E+00
          3   -1    0    0  501    0  0.00000000000E+00  0.00000000000E+00  0.73466615807E+02  0.73466615807E+02  0.00000000000E+00 0. -1.
         -3   -1    0    0    0  501 -0.00000000000E+00 -0.00000000000E+00 -0.17165452555E+03  0.17165452555E+03  0.00000000000E+00 0.  1.
         25    2    1    2    0    0  0.54408936787E+02 -0.46642361268E+02 -0.78436299783E+02  0.16411953846E+03  0.12508847874E+03 0.  0.
          5    1    3    3  502    0  0.34592627921E+02 -0.89689501175E+02 -0.57945471270E+02  0.11232099790E+03  0.41800000000E+01 0.  1.
         -5    1    3    3    0  502  0.19816308865E+02  0.43047139907E+02 -0.20490828513E+02  0.51798540562E+02  0.41800000000E+01 0.  1.
        -11    1    1    2    0    0 -0.26376163394E+02  0.78131594582E+01  0.35598351655E+01  0.27738418890E+02  0.00000000000E+00 0.  1.
         11    1    1    2    0    0 -0.28032773393E+02  0.38829201810E+02 -0.23311445129E+02  0.53263184014E+02  0.00000000000E+00 0. -1.
</event>
<event>
 7    1  0.2440960E-009  0.1083771E+03  0.7561462E-02  0.1263605E+00
          1   -1    0    0  501    0  0.00000000000E+00  0.00000000000E+00  0.58339278532E+03  0.58339278532E+03  0.00000000000E+00 0. -1.
         -1   -1    0    0    0  501 -0.00000000000E+00 -0.00000000000E+00 -0.22880376140E+02  0.22880376140E+02  0.00000000000E+00 0.  1.
         25    2    1    2    0    0  0.17343352292E+02  0.37418258179E+00  0.42054273017E+03  0.43909490366E+03  0.12508882701E+03 0.  0.
          5    1    3    3  502    0  0.67955628345E+02  0.20120930383E+02  0.21308351512E+03  0.22459936794E+03  0.41800000000E+01 0. -1.
         -5    1    3    3    0  502 -0.50612276053E+02 -0.19746747801E+02  0.20745921505E+03  0.21449553573E+03  0.41800000000E+01 0. -1.
        -11    1    1    2    0    0  0.36270431016E+02 -0.79293366021E+01  0.52332606420E+02  0.64164789720E+02  0.00000000000E+00 0.  1.
         11    1    1    2    0    0 -0.53613783309E+02  0.75551540203E+01  0.87637072592E+02  0.10301346808E+03  0.00000000000E+00 0. -1.
</event>
<event>
 7    1  0.2440960E-009  0.3270111E+03  0.7561462E-02  0.1072467E+00
          2   -1    0    0  501    0  0.00000000000E+00  0.00000000000E+00  0.48702765504E+03  0.48702765504E+03  0.00000000000E+00 0. -1.
         -2   -1    0    0    0  501 -0.00000000000E+00 -0.00000000000E+00 -0.22120404005E+03  0.22120404005E+03  0.00000000000E+00 0.  1.
         25    2    1    2    0    0 -0.30772082693E+03 -0.29489718502E+02  0.15229382947E+03  0.36660979582E+03  0.12509029167E+03 0.  0.
          5    1    3    3  502    0 -0.26540924519E+03  0.20454118715E+02  0.13632760842E+03  0.29910387430E+03  0.41800000000E+01 0.  1.
         -5    1    3    3    0  502 -0.42311581747E+02 -0.49943837217E+02  0.15966221052E+02  0.67505921522E+02  0.41800000000E+01 0.  1.
        -11    1    1    2    0    0  0.21003411293E+03  0.62422686551E+02  0.76509005903E+02  0.23208737229E+03  0.00000000000E+00 0. -1.
         11    1    1    2    0    0  0.97686714006E+02 -0.32932968049E+02  0.37020779615E+02  0.10953452698E+03  0.00000000000E+00 0.  1.
</event>
<event>
 7    1  0.2440960E-009  0.1369031E+03  0.7561462E-02  0.1217558E+00
         -1   -1    0    0    0  501 -0.00000000000E+00  0.00000000000E+00  0.36067858943E+02  0.36067858943E+02  0.00000000000E+00 0.  1.
          1   -1    0    0  501    0  0.00000000000E+00 -0.00000000000E+00 -0.63690374875E+03  0.63690374875E+03  0.00000000000E+00 0. -1.
         25    2    1    2    0    0 -0.52512672750E+02  0.69823245432E+02 -0.19611448690E+03  0.24847817977E+03  0.12509055700E+03 0.  0.
          5    1    3    3  502    0  0.13846954255E+02  0.83231629492E+02 -0.11609326137E+03  0.14357701775E+03  0.41800000000E+01 0. -1.
         -5    1    3    3    0  502 -0.66359627005E+02 -0.13408384060E+02 -0.80021225530E+02  0.10490116203E+03  0.41800000000E+01 0. -1.
        -11    1    1    2    0    0 -0.20078501904E+02 -0.36423757670E+02 -0.80976374657E+02  0.91033013869E+02  0.00000000000E+00 0.  1.
         11    1    1    2    0    0  0.72591174654E+02 -0.33399487761E+02 -0.32374502826E+03  0.33346041405E+03  0.00000000000E+00 0. -1.
</event>
<event>
 7    1  0.2440960E-009  0.1578872E+03  0.7561462E-02  0.1191103E+00
         -1   -1    0    0    0  501 -0.00000000000E+00  0.00000000000E+00  0.10947388852E+03  0.10947388852E+03  0.00000000000E+00 0.  1.
          1   -1    0    0  501    0  0.00000000000E+00 -0.00000000000E+00 -0.27679311384E+03  0.27679311384E+03  0.00000000000E+00 0. -1.
         25    2    1    2    0    0  0.54687313044E+02  0.12127784763E+03 -0.65394282391E+02  0.19396548362E+03  0.12508868108E+03 0.  0.
          5    1    3    3  502    0  0.10665605518E+02 -0.25511227350E+02 -0.18945356847E+02  0.33778348213E+02  0.41800000000E+01 0.  1.
         -5    1    3    3    0  502  0.44021707526E+02  0.14678907498E+03 -0.46448925545E+02  0.16018713541E+03  0.41800000000E+01 0.  1.
        -11    1    1    2    0    0 -0.20878444870E+02 -0.25634062884E+02  0.16015516228E+02  0.36735696539E+02  0.00000000000E+00 0.  1.
         11    1    1    2    0    0 -0.33808868174E+02 -0.95643784746E+02 -0.11794045916E+03  0.15556582219E+03  0.00000000000E+00 0. -1.
</event>
<event>
 7    1  0.2440960E-009  0.9859436E+02  0.7561462E-02  0.1283280E+00
          1   -1    0    0  501    0  0.00000000000E+00  0.00000000000E+00  0.74345063400E+03  0.74345063400E+03  0.00000000000E+00 0. -1.
         -1   -1    0    0    0  501 -0.00000000000E+00 -0.00000000000E+00 -0.19800890870E+02  0.19800890870E+02  0.00000000000E+00 0.  1.
         25    2    1    2    0    0 -0.30799831903E+02  0.20580995953E+02  0.53009352565E+03  0.54591150733E+03  0.12509204959E+03 0.  0.
          5    1    3    3  502    0 -0.35126489029E+02  0.66937637928E+02  0.22848097592E+03  0.24069803980E+03  0.41800000000E+01 0. -1.
         -5    1    3    3    0  502  0.43266571258E+01 -0.46356641975E+02  0.30161254972E+03  0.30521346754E+03  0.41800000000E+01 0. -1.
        -11    1    1    2    0    0  0.15584245665E+02 -0.44071416157E+02  0.18050342262E+03  0.18645815620E+03  0.00000000000E+00 0. -1.
         11    1    1    2    0    0  0.15215586238E+02  0.23490420204E+02  0.13052794865E+02  0.30881861339E+02  0.00000000000E+00 0.  1.
</event>
<event>
 7    1  0.3366438E-009  0.8805643E+02  0.7561462E-02  0.1307628E+00
         -1   -1    0    0    0  501 -0.00000000000E+00  0.00000000000E+00  0.96627640927E+02  0.96627640927E+02  0.00000000000E+00 0.  1.
          1   -1    0    0  501    0  0.00000000000E+00 -0.00000000000E+00 -0.15394449325E+03  0.15394449325E+03  0.00000000000E+00 0. -1.
         25    2    1    2    0    0  0.43490221030E+02 -0.82362911864E+01  0.22152424993E+01  0.13270421961E+03  0.12508503822E+03 0.  0.
          5    1    3    3  502    0 -0.12541993848E+02 -0.43671799706E+02 -0.34131483949E+02  0.56982087500E+02  0.41800000000E+01 0. -1.
         -5    1    3    3    0  502  0.56032214879E+02  0.35435508520E+02  0.36346726448E+02  0.75722132113E+02  0.41800000000E+01 0. -1.
        -11    1    1    2    0    0  0.68653498668E+01 -0.85594538727E+01  0.19669424253E+02  0.22522955620E+02  0.00000000000E+00 0.  1.
         11    1    1    2    0    0 -0.50355570897E+02  0.16795745059E+02 -0.79201519078E+02  0.95344958948E+02  0.00000000000E+00 0. -1.
</event>
<event>
 7    1  0.2440960E-009  0.1050094E+03  0.7561462E-02  0.1270101E+00
          1   -1    0    0  501    0  0.00000000000E+00  0.00000000000E+00  0.21953915695E+04  0.21953915695E+04  0.00000000000E+00 0. -1.
         -1   -1    0    0    0  501 -0.00000000000E+00 -0.00000000000E+00 -0.82115239580E+01  0.82115239580E+01  0.00000000000E+00 0.  1.
         25    2    1    2    0    0  0.25986341880E+02 -0.28458061306E+02  0.16233028006E+04  0.16285709249E+04  0.12508446668E+03 0.  0.
          5    1    3    3  502    0 -0.31393348931E+02  0.54087743114E+01  0.11638383736E+04  0.11642817655E+04  0.41800000000E+01 0.  1.
         -5    1    3    3    0  502  0.57379690811E+02 -0.33866835617E+02  0.45946442698E+03  0.46428915940E+03  0.41800000000E+01 0.  1.
        -11    1    1    2    0    0  0.23835189189E+02  0.51114675210E+02  0.33407792744E+03  0.33880508831E+03  0.00000000000E+00 0. -1.
         11    1    1    2    0    0 -0.49821531068E+02 -0.22656613904E+02  0.22979931751E+03  0.23622708024E+03  0.00000000000E+00 0.  1.
</event>
<event>
 7    1  0.2440960E-009  0.1081860E+03  0.7561462E-02  0.1263966E+00
         -1   -1    0    0    0  501 -0.00000000000E+00  0.00000000000E+00  0.45203890743E+03  0.45203890743E+03  0.00000000000E+00 0.  1.
          1   -1    0    0  501    0  0.00000000000E+00 -0.00000000000E+00 -0.29719908890E+02  0.29719908890E+02  0.00000000000E+00 0. -1.
         25    2    1    2    0    0 -0.45515315663E+01 -0.31475569929E+02  0.28804011113E+03  0.31563769107E+03  0.12509443818E+03 0.  0.
          5    1    3    3  502    0 -0.56239804897E+02  0.96641504586E+01  0.88321278763E+02  0.10523512789E+03  0.41800000000E+01 0.  1.
         -5    1    3    3    0  502  0.51688273331E+02 -0.41139720388E+02  0.19971883237E+03  0.21040256319E+03  0.41800000000E+01 0.  1.
        -11    1    1    2    0    0  0.40568418816E+02 -0.59703369668E+01  0.85642063417E+02  0.94952643750E+02  0.00000000000E+00 0.  1.
         11    1    1    2    0    0 -0.36016887250E+02  0.37445906896E+02  0.48636823991E+02  0.71168481495E+02  0.00000000000E+00 0. -1.
</event>
<event>
 7    1  0.2440960E-009  0.1202089E+03  0.7561462E-02  0.1242753E+00
         -1   -1    0    0    0  501 -0.00000000000E+00  0.00000000000E+00  0.11109289232E+03  0.11109289232E+03  0.00000000000E+00 0.  1.
          1   -1    0    0  501    0  0.00000000000E+00 -0.00000000000E+00 -0.23110765691E+03  0.23110765691E+03  0.00000000000E+00 0. -1.
         25    2    1    2    0    0 -0.11197567258E+03  0.12353174873E+01 -0.10186650768E+03  0.19637842101E+03  0.12509045363E+03 0.  0.
          5    1    3    3  502    0 -0.99655864703E+02  0.71943179993E+01 -0.13047517910E+03  0.16439067596E+03  0.41800000000E+01 0. -1.
         -5    1    3    3    0  502 -0.12319807879E+02 -0.59590005119E+01  0.28608671414E+02  0.31987745050E+02  0.41800000000E+01 0. -1.
        -11    1    1    2    0    0  0.10502227695E+03 -0.19271289671E+02 -0.42333254206E+02  0.11486150649E+03  0.00000000000E+00 0. -1.
         11    1    1    2    0    0  0.69533956291E+01  0.18035972184E+02  0.24184997301E+02  0.30960621729E+02  0.00000000000E+00 0.  1.
</event>
<event>
 7    1  0.2440960E-009  0.1010675E+03  0.7561462E-02  0.1278067E+00
          2   -1    0    0  501    0  0.00000000000E+00  0.00000000000E+00  0.23413947490E+03  0.23413947490E+03  0.00000000000E+00 0. -1.
         -2   -1    0    0    0  501 -0.00000000000E+00 -0.00000000000E+00 -0.57870235061E+02  0.57870235061E+02  0.00000000000E+00 0.  1.
         25    2    1    2    0    0  0.22785466447E-01 -0.36908344385E+02  0.13873341190E+03  0.19041142394E+03  0.12508926566E+03 0.  0.
          5    1    3    3  502    0 -0.58129861170E+02  0.22179751588E+01  0.47075920537E+02  0.74950749615E+02  0.41800000000E+01 0.  1.
         -5    1    3    3    0  502  0.58152646637E+02 -0.39126319544E+02  0.91657491361E+02  0.11546067432E+03  0.41800000000E+01 0.  1.
        -11    1    1    2    0    0 -0.16704867170E+02  0.49792569166E+02  0.53641085945E+02  0.75071423542E+02  0.00000000000E+00 0. -1.
         11    1    1    2    0    0  0.16682081704E+02 -0.12884224781E+02 -0.16105258000E+02  0.26526862488E+02  0.00000000000E+00 0.  1.
</event>
<event>
 7    1  0.2440960E-009  0.1011654E+03  0.7561462E-02  0.1277864E+00
         -3   -1    0    0    0  501 -0.00000000000E+00  0.00000000000E+00  0.37759996205E+03  0.37759996205E+03  0.00000000000E+00 0.  1.
          3   -1    0    0  501    0  0.00000000000E+00 -0.00000000000E+00 -0.44903041966E+02  0.44903041966E+02  0.00000000000E+00 0. -1.
         25    2    1    2    0    0 -0.35278019961E+02  0.36832277216E+02  0.24065504650E+03  0.27597459022E+03  0.12508384268E+03 0.  0.
          5    1    3    3  502    0  0.95719233425E+01 -0.21289496465E+02  0.17740033800E+03  0.17897825762E+03  0.41800000000E+01 0.  1.
         -5    1    3    3    0  502 -0.44849943304E+02  0.58121773681E+02  0.63254708500E+02  0.96996332599E+02  0.41800000000E+01 0.  1.
        -11    1    1    2    0    0  0.36913114955E+02 -0.66133114251E+02  0.89242661043E+02  0.11704879071E+03  0.00000000000E+00 0.  1.
         11    1    1    2    0    0 -0.16350949936E+01  0.29300837035E+02  0.27992125343E+01  0.29479623088E+02  0.00000000000E+00 0. -1.
</event>
<event>
 7    1  0.2440960E-009  0.1577261E+03  0.7561462E-02  0.1191288E+00
          1   -1    0    0  501    0  0.00000000000E+00  0.00000000000E+00  0.10372877749E+04  0.10372877749E+04  0.00000000000E+00 0. -1.
         -1   -1    0    0    0  501 -0.00000000000E+00 -0.00000000000E+00 -0.26775054624E+02  0.26775054624E+02  0.00000000000E+00 0.  1.
         25    2    1    2    0    0 -0.12112464508E+03 -0.29250694872E+02  0.63731092435E+03  0.66131671976E+03  0.12509119367E+03 0.  0.
          5    1    3    3  502    0 -0.79689650231E+02  0.41782985656E+02  0.26112407038E+03  0.27622366078E+03  0.41800000000E+01 0.  1.
         -5    1    3    3    0  502 -0.41434994851E+02 -0.71033680527E+02  0.37618685398E+03  0.38509305898E+03  0.41800000000E+01 0.  1.
        -11    1    1    2    0    0 -0.48027313227E+01  0.15655276007E+02  0.12950048301E+02  0.20877203980E+02  0.00000000000E+00 0.  1.
         11    1    1    2    0    0  0.12592737640E+03  0.13595418864E+02  0.36025174761E+03  0.38186890577E+03  0.00000000000E+00 0. -1.
</event>
<event>
 7    1  0.2440960E-009  0.1021875E+03  0.7561462E-02  0.1275762E+00
         -1   -1    0    0    0  501 -0.00000000000E+00  0.00000000000E+00  0.14088312581E+03  0.14088312581E+03  0.00000000000E+00 0.  1.
          1   -1    0    0  501    0  0.00000000000E+00 -0.00000000000E+00 -0.85271581660E+02  0.85271581660E+02  0.00000000000E+00 0. -1.
         25    2    1    2    0    0  0.17998462105E+01  0.31805819287E+01  0.49391949695E+02  0.13453854093E+03  0.12509076206E+03 0.  0.
          5    1    3    3  502    0  0.23506347993E+02 -0.53427016172E+02  0.44603713726E+02  0.73579604043E+02  0.41800000000E+01 0.  1.
         -5    1    3    3    0  502 -0.21706501783E+02  0.56607598100E+02  0.47882359684E+01  0.60958936884E+02  0.41800000000E+01 0.  1.
        -11    1    1    2    0    0  0.13310491583E+02  0.38507691847E+02  0.19719499106E+02  0.45264447004E+02  0.00000000000E+00 0.  1.
         11    1    1    2    0    0 -0.15110337793E+02 -0.41688273776E+02 -0.13499904651E+02  0.46351719539E+02  0.00000000000E+00 0. -1.
</event>
<event>
 7    1  0.2440960E-009  0.9292002E+02  0.7561462E-02  0.1295931E+00
          1   -1    0    0  501    0  0.00000000000E+00  0.00000000000E+00  0.35328745541E+02  0.35328745541E+02  0.00000000000E+00 0. -1.
         -1   -1    0    0    0  501 -0.00000000000E+00 -0.00000000000E+00 -0.45500254346E+03  0.45500254346E+03  0.00000000000E+00 0.  1.
         25    2    1    2    0    0 -0.57647302894E+02 -0.12242673656E+02 -0.30075866092E+03  0.33102334588E+03  0.12509032261E+03 0.  0.
          5    1    3    3  502    0 -0.65081602770E+02 -0.52995679708E+02 -0.25800709524E+03  0.27134717740E+03  0.41800000000E+01 0.  1.
         -5    1    3    3    0  502  0.74342998757E+01  0.40753006052E+02 -0.42751565676E+02  0.59676168482E+02  0.41800000000E+01 0.  1.
        -11    1    1    2    0    0  0.34624217448E+02  0.13379817798E+02 -0.12893601030E+03  0.13417283894E+03  0.00000000000E+00 0.  1.
         11    1    1    2    0    0  0.23023085446E+02 -0.11371441417E+01  0.10020873300E+02  0.25135104176E+02  0.00000000000E+00 0. -1.
</event>
<event>
 7    1  0.2440960E-009  0.1260966E+03  0.7561462E-02  0.1233365E+00
         -1   -1    0    0    0  501 -0.00000000000E+00  0.00000000000E+00  0.18604401399E+02  0.18604401399E+02  0.00000000000E+00 0.  1.
          1   -1    0    0  501    0  0.00000000000E+00 -0.00000000000E+00 -0.10343208606E+04  0.10343208606E+04  0.00000000000E+00 0. -1.
         25    2    1    2    0    0 -0.20155344074E+02 -0.80602055717E+02 -0.46896969429E+03  0.49242571299E+03  0.12509028490E+03 0.  0.
          5    1    3    3  502    0 -0.66041599077E+02 -0.13485006898E+02 -0.24422640597E+03  0.25339168888E+03  0.41800000000E+01 0.  1.
         -5    1    3    3    0  502  0.45886255002E+02 -0.67117048819E+02 -0.22474328832E+03  0.23903402412E+03  0.41800000000E+01 0.  1.
        -11    1    1    2    0    0 -0.13204682423E+02 -0.27328622841E+01 -0.11336426947E+02  0.17616661150E+02  0.00000000000E+00 0.  1.
         11    1    1    2    0    0  0.33360026498E+02  0.83334918002E+02 -0.53541033797E+03  0.54288288786E+03  0.00000000000E+00 0. -1.
</event>
<event>
 7    1  0.2440960E-009  0.1194540E+03  0.7561462E-02  0.1244001E+00
         -3   -1    0    0    0  501 -0.00000000000E+00  0.00000000000E+00  0.39382495519E+03  0.39382495519E+03  0.00000000000E+00 0.  1.
          3   -1    0    0  501    0  0.00000000000E+00 -0.00000000000E+00 -0.69358660265E+02  0.69358660265E+02  0.00000000000E+00 0. -1.
         25    2    1    2    0    0 -0.15301585394E+02  0.73408860141E+02  0.34874237651E+02  0.14995616632E+03  0.12509052763E+03 0.  0.
          5    1    3    3  502    0 -0.30753480456E+02  0.91502256179E+02  0.61083682109E+02  0.11431153951E+03  0.41800000000E+01 0.  1.
         -5    1    3    3    0  502  0.15451895062E+02 -0.18093396038E+02 -0.26209444458E+02  0.35644626803E+02  0.41800000000E+01 0.  1.
        -11    1    1    2    0    0 -0.33206831972E+02 -0.39986724940E+01  0.10360127181E+03  0.10886646220E+03  0.00000000000E+00 0.  1.
         11    1    1    2    0    0  0.48508417367E+02 -0.69410187647E+02  0.18599078546E+03  0.20436098694E+03  0.00000000000E+00 0. -1.
</event>
<event>
 7    1  0.3204603E-009  0.1270065E+03  0.7561462E-02  0.1231966E+00
         -2   -1    0    0    0  501 -0.00000000000E+00  0.00000000000E+00  0.32316795118E+02  0.32316795118E+02  0.00000000000E+00 0.  1.
          2   -1    0    0  501    0  0.00000000000E+00 -0.00000000000E+00 -0.76835222312E+03  0.76835222312E+03  0.00000000000E+00 0. -1.
         25    2    1    2    0    0  0.83642748036E+02  0.48572377696E+02 -0.54862672665E+03  0.57095948063E+03  0.12509219861E+03 0.  0.
          5    1    3    3  502    0  0.10504616658E+03  0.18344264956E+02 -0.27802846979E+03  0.29780616445E+03  0.41800000000E+01 0. -1.
         -5    1    3    3    0  502 -0.21403418547E+02  0.30228112739E+02 -0.27059825685E+03  0.27315331618E+03  0.41800000000E+01 0. -1.
        -11    1    1    2    0    0 -0.49103789061E+02 -0.56221274141E+02 -0.17812863578E+03  0.19313680294E+03  0.00000000000E+00 0. -1.
         11    1    1    2    0    0 -0.34538958975E+02  0.76488964450E+01 -0.92800655737E+01  0.36572734666E+02  0.00000000000E+00 0.  1.
</event>
<event>
 7    1  0.2848621E-009  0.9852781E+02  0.7561462E-02  0.1283423E+00
          2   -1    0    0  501    0  0.00000000000E+00  0.00000000000E+00  0.50917427079E+03  0.50917427079E+03  0.00000000000E+00 0.  1.
         -2   -1    0    0    0  501 -0.00000000000E+00 -0.00000000000E+00 -0.27691644654E+02  0.27691644654E+02  0.00000000000E+00 0. -1.
         25    2    1    2    0    0 -0.41166964072E+02  0.25903552696E+02  0.26735096976E+03  0.29914801447E+03  0.12508909048E+03 0.  0.
          5    1    3    3  502    0  0.21195158386E+02 -0.33442357608E+02  0.41971127107E+02  0.57850444527E+02  0.41800000000E+01 0. -1.
         -5    1    3    3    0  502 -0.62362122458E+02  0.59345910304E+02  0.22537984265E+03  0.24129756994E+03  0.41800000000E+01 0. -1.
        -11    1    1    2    0    0  0.25643414779E+02 -0.41669759378E+02  0.20946722018E+03  0.21510571796E+03  0.00000000000E+00 0.  1.
         11    1    1    2    0    0  0.15523549293E+02  0.15766206682E+02  0.46644362008E+01  0.22612183019E+02  0.00000000000E+00 0. -1.
</event>
<event>
 7    1  0.2440960E-009  0.1419022E+03  0.7561462E-02  0.1210792E+00
          1   -1    0    0  501    0  0.00000000000E+00  0.00000000000E+00  0.33839220134E+03  0.33839220134E+03  0.00000000000E+00 0. -1.
         -1   -1    0    0    0  501 -0.00000000000E+00 -0.00000000000E+00 -0.83480350177E+02  0.83480350177E+02  0.00000000000E+00 0.  1.
         25    2    1    2    0    0 -0.93237386875E+02  0.67727385223E+02  0.67246993879E+02  0.18289295499E+03  0.12508983083E+03 0.  0.
          5    1    3    3  502    0 -0.71521962195E+02  0.98744721885E+02  0.22375473328E+02  0.12403243682E+03  0.41800000000E+01 0.  1.
         -5    1    3    3    0  502 -0.21715424679E+02 -0.31017336662E+02  0.44871520551E+02  0.58860518169E+02  0.41800000000E+01 0.  1.
        -11    1    1    2    0    0  0.20791106218E+02 -0.41947069597E+02  0.13704495830E+02  0.48781553393E+02  0.00000000000E+00 0.  1.
         11    1    1    2    0    0  0.72446280657E+02 -0.25780315626E+02  0.17396036145E+03  0.19019804313E+03  0.00000000000E+00 0. -1.
</event>
<event>
 7    1  0.2440960E-009  0.9587313E+02  0.7561462E-02  0.1289222E+00
         -4   -1    0    0    0  501 -0.00000000000E+00  0.00000000000E+00  0.36268674352E+02  0.36268674352E+02  0.00000000000E+00 0.  1.
          4   -1    0    0  501    0  0.00000000000E+00 -0.00000000000E+00 -0.36202602145E+03  0.36202602145E+03  0.00000000000E+00 0. -1.
         25    2    1    2    0    0 -0.30132030295E+01 -0.57773411951E+01 -0.24986732491E+03  0.27950640875E+03  0.12509074871E+03 0.  0.
          5    1    3    3  502    0 -0.54309703104E+02  0.28785187145E+02 -0.10189746436E+03  0.11907433180E+03  0.41800000000E+01 0. -1.
         -5    1    3    3    0  502  0.51296500074E+02 -0.34562528340E+02 -0.14796986055E+03  0.16043207696E+03  0.41800000000E+01 0. -1.
        -11    1    1    2    0    0  0.10344425113E+02 -0.29942202459E+02 -0.75984894919E+02  0.82324035827E+02  0.00000000000E+00 0. -1.
         11    1    1    2    0    0 -0.73312220838E+01  0.35719543654E+02  0.94872733574E-01  0.36464251219E+02  0.00000000000E+00 0.  1.
</event>
<event>
 7    1  0.2440960E-009  0.1134283E+03  0.7561462E-02  0.1254350E+00
         -1   -1    0    0    0  501 -0.00000000000E+00  0.00000000000E+00  0.26040210907E+02  0.26040210907E+02  0.00000000000E+00 0.  1.
          1   -1    0    0  501    0  0.00000000000E+00 -0.00000000000E+00 -0.62415587206E+03  0.62415587206E+03  0.00000000000E+00 0. -1.
         25    2    1    2    0    0 -0.45760625117E+02 -0.73109518079E+01 -0.48648582278E+03  0.50444353938E+03  0.12508934340E+03 0.  0.
          5    1    3    3  502    0 -0.85497745485E+02  0.16042293514E+02 -0.31284569790E+03  0.32474162462E+03  0.41800000000E+01 0. -1.
         -5    1    3    3    0  502  0.39737120368E+02 -0.23353245322E+02 -0.17364012488E+03  0.17970191477E+03  0.41800000000E+01 0. -1.
        -11    1    1    2    0    0 -0.20831048400E+02  0.16085552485E+02 -0.36132158279E+02  0.44701347162E+02  0.00000000000E+00 0. -1.
         11    1    1    2    0    0  0.66591673517E+02 -0.87746006770E+01 -0.75497680093E+02  0.10105119642E+03  0.00000000000E+00 0.  1.
</event>
<event>
 7    1  0.2440960E-009  0.2164273E+03  0.7561462E-02  0.1136575E+00
          2   -1    0    0  501    0  0.00000000000E+00  0.00000000000E+00  0.27659159758E+03  0.27659159758E+03  0.00000000000E+00 0. -1.
         -2   -1    0    0    0  501 -0.00000000000E+00 -0.00000000000E+00 -0.22533829677E+03  0.22533829677E+03  0.00000000000E+00 0.  1.
         25    2    1    2    0    0 -0.10934552601E+03 -0.17253937894E+03 -0.66705600749E+02  0.24864358279E+03  0.12509081801E+03 0.  0.
          5    1    3    3  502    0 -0.10677831216E+03 -0.74306555597E+02 -0.63575147185E+00  0.13015739983E+03  0.41800000000E+01 0. -1.
         -5    1    3    3    0  502 -0.25672138529E+01 -0.98232823338E+02 -0.66069849277E+02  0.11848618296E+03  0.41800000000E+01 0. -1.
        -11    1    1    2    0    0  0.71409098387E+02  0.10774461079E+03  0.12247352167E+03  0.17806718956E+03  0.00000000000E+00 0. -1.
         11    1    1    2    0    0  0.37936427621E+02  0.64794768144E+02 -0.45146201204E+01  0.75219121999E+02  0.00000000000E+00 0.  1.
</event>
<event>
 7    1  0.2440960E-009  0.1373800E+03  0.7561462E-02  0.1216898E+00
          2   -1    0    0  501    0  0.00000000000E+00  0.00000000000E+00  0.21334650795E+04  0.21334650795E+04  0.00000000000E+00 0.  1.
         -2   -1    0    0    0  501 -0.00000000000E+00 -0.00000000000E+00 -0.10203684460E+02  0.10203684460E+02  0.00000000000E+00 0. -1.
         25    2    1    2    0    0 -0.61435848595E+02 -0.56607099607E+02  0.15292503715E+04  0.15366302756E+04  0.12508868011E+03 0.  0.
          5    1    3    3  502    0 -0.33370880076E+02  0.38328166762E+02  0.47159944868E+03  0.47434815948E+03  0.41800000000E+01 0.  1.
         -5    1    3    3    0  502 -0.28064968519E+02 -0.94935266368E+02  0.10576509228E+04  0.10622821161E+04  0.41800000000E+01 0.  1.
        -11    1    1    2    0    0 -0.24283561382E+02  0.20062781337E+02  0.12983592143E+03  0.13360229430E+03  0.00000000000E+00 0.  1.
         11    1    1    2    0    0  0.85719409977E+02  0.36544318269E+02  0.46417510217E+03  0.47343619413E+03  0.00000000000E+00 0. -1.
</event>
<event>
 7    1  0.2440960E-009  0.9577658E+02  0.7561462E-02  0.1289437E+00
          2   -1    0    0  501    0  0.00000000000E+00  0.00000000000E+00  0.16561093519E+03  0.16561093519E+03  0.00000000000E+00 0. -1.
         -2   -1    0    0    0  501 -0.00000000000E+00 -0.00000000000E+00 -0.11371721648E+03  0.11371721648E+03  0.00000000000E+00 0.  1.
         25    2    1    2    0    0  0.81781099764E+02  0.63719733165E+01  0.45508723542E+02  0.15635629261E+03  0.12508995163E+03 0.  0.
          5    1    3    3  502    0  0.64728630073E+02  0.58909525882E+01 -0.35010332125E+02  0.73943861334E+02  0.41800000000E+01 0.  1.
         -5    1    3    3    0  502  0.17052469691E+02  0.48102072834E+00  0.80519055667E+02  0.82412431277E+02  0.41800000000E+01 0.  1.
        -11    1    1    2    0    0  0.10585744532E+02  0.10560670924E+02 -0.20425272250E+02  0.25313583392E+02  0.00000000000E+00 0.  1.
         11    1    1    2    0    0 -0.92366844296E+02 -0.16932644241E+02  0.26810267417E+02  0.97658275661E+02  0.00000000000E+00 0. -1.
</event>
<event>
 7    1  0.2440960E-009  0.1102366E+03  0.7561462E-02  0.1260132E+00
          2   -1    0    0  501    0  0.00000000000E+00  0.00000000000E+00  0.32581355102E+03  0.32581355102E+03  0.00000000000E+00 0. -1.
         -2   -1    0    0    0  501 -0.00000000000E+00 -0.00000000000E+00 -0.55730803056E+02  0.55730803056E+02  0.00000000000E+00 0.  1.
         25    2    1    2    0    0  0.15971801474E+02  0.40504061080E+02  0.24206997518E+03  0.27593633425E+03  0.12508920924E+03 0.  0.
          5    1    3    3  502    0  0.70053799762E+02  0.21171435456E+02  0.11425011883E+03  0.13574360608E+03  0.41800000000E+01 0.  1.
         -5    1    3    3    0  502 -0.54081998288E+02  0.19332625624E+02  0.12781985635E+03  0.14019272817E+03  0.41800000000E+01 0.  1.
        -11    1    1    2    0    0  0.11946098375E+02 -0.56269480754E+02  0.41390716398E+02  0.70867165420E+02  0.00000000000E+00 0. -1.
         11    1    1    2    0    0 -0.27917899849E+02  0.15765419674E+02 -0.13377943616E+02  0.34740854406E+02  0.00000000000E+00 0.  1.
</event>
<event>
 7    1  0.2440960E-009  0.2320720E+03  0.7561462E-02  0.1125190E+00
          2   -1    0    0  501    0  0.00000000000E+00  0.00000000000E+00  0.20764868086E+04  0.20764868086E+04  0.00000000000E+00 0. -1.
         -2   -1    0    0    0  501 -0.00000000000E+00 -0.00000000000E+00 -0.30816614942E+02  0.30816614942E+02  0.00000000000E+00 0.  1.
         25    2    1    2    0    0  0.12587684738E+03  0.18193296026E+03  0.12841204244E+04  0.13090296529E+04  0.12509510379E+03 0.  0.
          5    1    3    3  502    0  0.65187279718E+02  0.57262390618E+02  0.82091378514E+03  0.82549698839E+03  0.41800000000E+01 0. -1.
         -5    1    3    3    0  502  0.60689567661E+02  0.12467056964E+03  0.46320663925E+03  0.48353266447E+03  0.41800000000E+01 0. -1.
        -11    1    1    2    0    0 -0.18650736065E+02 -0.10485716597E+03  0.37231675972E+03  0.38725010623E+03  0.00000000000E+00 0. -1.
         11    1    1    2    0    0 -0.10722611131E+03 -0.77075794298E+02  0.38923300954E+03  0.41102366444E+03  0.00000000000E+00 0.  1.
</event>
<event>
 7    1  0.2440960E-009  0.1270237E+03  0.7561462E-02  0.1231940E+00
         -2   -1    0    0    0  501 -0.00000000000E+00  0.00000000000E+00  0.15765081362E+02  0.15765081362E+02  0.00000000000E+00 0.  1.
          2   -1    0    0  501    0  0.00000000000E+00 -0.00000000000E+00 -0.10658775698E+04  0.10658775698E+04  0.00000000000E+00 0. -1.
         25    2    1    2    0    0 -0.39986800312E+02 -0.56777482429E+02 -0.63576024972E+03  0.65165979337E+03  0.12508702753E+03 0.  0.
          5    1    3    3  502    0 -0.36786585045E+02 -0.95165111061E+02 -0.40533356433E+03  0.41799811240E+03  0.41800000000E+01 0. -1.
         -5    1    3    3    0  502 -0.32002152664E+01  0.38387628632E+02 -0.23042668539E+03  0.23366168096E+03  0.41800000000E+01 0. -1.
        -11    1    1    2    0    0  0.62130610089E+02  0.12064100651E+02 -0.26749927733E+03  0.27488473695E+03  0.00000000000E+00 0.  1.
         11    1    1    2    0    0 -0.22143809778E+02  0.44713381778E+02 -0.14685296136E+03  0.15509812082E+03  0.00000000000E+00 0. -1.
</event>
<event>
 7    1  0.2440960E-009  0.1158060E+03  0.7561462E-02  0.1250181E+00
          3   -1    0    0  501    0  0.00000000000E+00  0.00000000000E+00  0.99752300319E+02  0.99752300319E+02  0.00000000000E+00 0. -1.
         -3   -1    0    0    0  501 -0.00000000000E+00 -0.00000000000E+00 -0.18507172663E+03  0.18507172663E+03  0.00000000000E+00 0.  1.
         25    2    1    2    0    0  0.65319434839E+02 -0.41924833878E+02 -0.17601360953E+02  0.14826371854E+03  0.12509197442E+03 0.  0.
          5    1    3    3  502    0 -0.28027342024E+02  0.19804422358E+02  0.17437600233E+01  0.34615894397E+02  0.41800000000E+01 0. -1.
         -5    1    3    3    0  502  0.93346776863E+02 -0.61729256236E+02 -0.19345120976E+02  0.11364782414E+03  0.41800000000E+01 0. -1.
        -11    1    1    2    0    0 -0.38239907175E+02  0.39974240945E+01 -0.79658965449E+02  0.88452363884E+02  0.00000000000E+00 0.  1.
         11    1    1    2    0    0 -0.27079527664E+02  0.37927409783E+02  0.11940900095E+02  0.48107944526E+02  0.00000000000E+00 0. -1.
</event>
<event>
 7    1  0.2440960E-009  0.1094828E+03  0.7561462E-02  0.1261531E+00
         -4   -1    0    0    0  501 -0.00000000000E+00  0.00000000000E+00  0.22322362986E+03  0.22322362986E+03  0.00000000000E+00 0.  1.
          4   -1    0    0  501    0  0.00000000000E+00 -0.00000000000E+00 -0.63836768831E+02  0.63836768831E+02  0.00000000000E+00 0. -1.
         25    2    1    2    0    0  0.18813103246E+02 -0.38568846404E+02  0.61705876641E+02  0.14591674435E+03  0.12507034942E+03 0.  0.
          5    1    3    3  502    0 -0.25885656286E+02 -0.64263222209E+02  0.63622152723E+02  0.94154551919E+02  0.41800000000E+01 0. -1.
         -5    1    3    3    0  502  0.44698759532E+02  0.25694375805E+02 -0.19162760814E+01  0.51762192435E+02  0.41800000000E+01 0. -1.
        -11    1    1    2    0    0 -0.46967539320E+02 -0.36252533261E+01  0.66862597785E+02  0.81790581328E+02  0.00000000000E+00 0.  1.
         11    1    1    2    0    0  0.28154436075E+02  0.42194099730E+02  0.30818386601E+02  0.59353073008E+02  0.00000000000E+00 0. -1.
</event>
<event>
 7    1  0.2440960E-009  0.1614417E+03  0.7561462E-02  0.1187079E+00
         -2   -1    0    0    0  501 -0.00000000000E+00  0.00000000000E+00  0.37698546062E+02  0.37698546062E+02  0.00000000000E+00 0.  1.
          2   -1    0    0  501    0  0.00000000000E+00 -0.00000000000E+00 -0.72516169255E+03  0.72516169255E+03  0.00000000000E+00 0. -1.
         25    2    1    2    0    0 -0.57368235287E+02 -0.10443745313E+03 -0.28920793478E+03  0.33687509877E+03  0.12508120000E+03 0.  0.
          5    1    3    3  502    0 -0.84426608486E+02 -0.11471127663E+03 -0.22505667420E+03  0.26637287439E+03  0.41800000000E+01 0.  1.
         -5    1    3    3    0  502  0.27058373199E+02  0.10273823491E+02 -0.64151260580E+02  0.70502224386E+02  0.41800000000E+01 0.  1.
        -11    1    1    2    0    0  0.72839646194E+02  0.36503984232E+02 -0.21921124915E+03  0.23386262352E+03  0.00000000000E+00 0.  1.
         11    1    1    2    0    0 -0.15471410907E+02  0.67933468903E+02 -0.17904396255E+03  0.19212251632E+03  0.00000000000E+00 0. -1.
</event>
<event>
 7    1  0.2440960E-009  0.1132916E+03  0.7561462E-02  0.1254593E+00
         -1   -1    0    0    0  501 -0.00000000000E+00  0.00000000000E+00  0.48831340795E+02  0.48831340795E+02  0.00000000000E+00 0.  1.
          1   -1    0    0  501    0  0.00000000000E+00 -0.00000000000E+00 -0.50704980855E+03  0.50704980855E+03  0.00000000000E+00 0. -1.
         25    2    1    2    0    0 -0.94135780780E+02 -0.45925875249E+02 -0.32797682424E+03  0.36631684782E+03  0.12509398273E+03 0.  0.
          5    1    3    3  502    0 -0.40705770364E+02  0.19485039618E+01 -0.27242046632E+03  0.27548346462E+03  0.41800000000E+01 0.  1.
         -5    1    3    3    0  502 -0.53430010416E+02 -0.47874379210E+02 -0.55556357921E+02  0.90833383198E+02  0.41800000000E+01 0.  1.
        -11    1    1    2    0    0  0.64634166328E+02  0.71450147163E+01 -0.18418567267E+02  0.67586021575E+02  0.00000000000E+00 0.  1.
         11    1    1    2    0    0  0.29501614452E+02  0.38780860532E+02 -0.11182307625E+03  0.12197827996E+03  0.00000000000E+00 0. -1.
</event>
<event>
 7    1  0.2440960E-009  0.7054503E+02  0.7561462E-02  0.1358249E+00
          2   -1    0    0  501    0  0.00000000000E+00  0.00000000000E+00  0.13943543332E+03  0.13943543332E+03  0.00000000000E+00 0. -1.
         -2   -1    0    0    0  501 -0.00000000000E+00 -0.00000000000E+00 -0.91036047273E+02  0.91036047273E+02  0.00000000000E+00 0.  1.
         25    2    1    2    0    0 -0.23666185549E+02  0.16215361198E+02  0.19796806608E+02  0.12985424275E+03  0.12508870665E+03 0.  0.
          5    1    3    3  502    0  0.11261211679E+02 -0.13487110110E+02 -0.46074830650E+02  0.49488174820E+02  0.41800000000E+01 0. -1.
         -5    1    3    3    0  502 -0.34927397227E+02  0.29702471308E+02  0.65871637258E+02  0.80366067926E+02  0.41800000000E+01 0. -1.
        -11    1    1    2    0    0  0.24217426112E+02 -0.43453452905E+02 -0.12511998753E+02  0.51295578851E+02  0.00000000000E+00 0.  1.
         11    1    1    2    0    0 -0.55124056325E+00  0.27238091707E+02  0.41114578188E+02  0.49321658991E+02  0.00000000000E+00 0. -1.
</event>
<event>
 7    1  0.2440960E-009  0.1609230E+03  0.7561462E-02  0.1187659E+00
         -2   -1    0    0    0  501 -0.00000000000E+00  0.00000000000E+00  0.96879760760E+02  0.96879760760E+02  0.00000000000E+00 0.  1.
          2   -1    0    0  501    0  0.00000000000E+00 -0.00000000000E+00 -0.28551481577E+03  0.28551481577E+03  0.00000000000E+00 0. -1.
         25    2    1    2    0    0 -0.12037748190E+03  0.22586885900E+02 -0.12254546298E+03  0.21369769103E+03  0.12509359332E+03 0.  0.
          5    1    3    3  502    0 -0.13447485654E+03 -0.90282459218E+01 -0.73654166302E+02  0.15364701390E+03  0.41800000000E+01 0.  1.
         -5    1    3    3    0  502  0.14097374645E+02  0.31615131822E+02 -0.48891296683E+02  0.60050677126E+02  0.41800000000E+01 0.  1.
        -11    1    1    2    0    0  0.37153497580E+02  0.34910877846E+02 -0.67629220988E+01  0.51428483253E+02  0.00000000000E+00 0.  1.
         11    1    1    2    0    0  0.83223984318E+02 -0.57497763747E+02 -0.59326669925E+02  0.11726840225E+03  0.00000000000E+00 0. -1.
</event>
<event>
 7    1  0.2440960E-009  0.1415787E+03  0.7561462E-02  0.1211220E+00
         -2   -1    0    0    0  501 -0.00000000000E+00  0.00000000000E+00  0.39858910460E+02  0.39858910460E+02  0.00000000000E+00 0.  1.
          2   -1    0    0  501    0  0.00000000000E+00 -0.00000000000E+00 -0.56090660767E+03  0.56090660767E+03  0.00000000000E+00 0. -1.
         25    2    1    2    0    0  0.84042197714E+02 -0.60151032725E+02 -0.26161988069E+03  0.30785204482E+03  0.12508669710E+03 0.  0.
          5    1    3    3  502    0  0.14470944656E+01  0.35373715348E+02 -0.65017734054E+02  0.74149659213E+02  0.41800000000E+01 0. -1.
         -5    1    3    3    0  502  0.82595103248E+02 -0.95524748073E+02 -0.19660214664E+03  0.23370238561E+03  0.41800000000E+01 0. -1.
        -11    1    1    2    0    0 -0.27385846273E+02 -0.11594598577E+02 -0.18012780569E+02  0.34768945283E+02  0.00000000000E+00 0.  1.
         11    1    1    2    0    0 -0.56656351441E+02  0.71745631302E+02 -0.24141503595E+03  0.25814452803E+03  0.00000000000E+00 0. -1.
</event>
<event>
 7    1  0.2440960E-009  0.1108230E+03  0.7561462E-02  0.1259053E+00
          2   -1    0    0  501    0  0.00000000000E+00  0.00000000000E+00  0.69558340913E+03  0.69558340913E+03  0.00000000000E+00 0. -1.
         -2   -1    0    0    0  501 -0.00000000000E+00 -0.00000000000E+00 -0.32594766507E+02  0.32594766507E+02  0.00000000000E+00 0.  1.
         25    2    1    2    0    0  0.80019335185E+02  0.53964382306E+02  0.41301401073E+03  0.44220343810E+03  0.12509220217E+03 0.  0.
          5    1    3    3  502    0 -0.15771336608E+02  0.31725646692E+01  0.22122721811E+03  0.22185074860E+03  0.41800000000E+01 0.  1.
         -5    1    3    3    0  502  0.95790671792E+02  0.50791817637E+02  0.19178679262E+03  0.22035268949E+03  0.41800000000E+01 0.  1.
        -11    1    1    2    0    0 -0.37631478072E+02 -0.25968370771E+02  0.19054898455E+02  0.49533560114E+02  0.00000000000E+00 0.  1.
         11    1    1    2    0    0 -0.42387857112E+02 -0.27996011535E+02  0.23091973343E+03  0.23644117742E+03  0.00000000000E+00 0. -1.
</event>
<event>
 7    1  0.2440960E-009  0.6243755E+02  0.7561462E-02  0.1387878E+00
         -1   -1    0    0    0  501 -0.00000000000E+00  0.00000000000E+00  0.32359304649E+03  0.32359304649E+03  0.00000000000E+00 0.  1.
          1   -1    0    0  501    0  0.00000000000E+00 -0.00000000000E+00 -0.36303702213E+02  0.36303702213E+02  0.00000000000E+00 0. -1.
         25    2    1    2    0    0 -0.11261053780E+02 -0.16595281674E+01  0.17425902801E+03  0.21481008358E+03  0.12509035853E+03 0.  0.
          5    1    3    3  502    0  0.17920643878E+02  0.31298926442E+02  0.13459990353E+01  0.36332580239E+02  0.41800000000E+01 0.  1.
         -5    1    3    3    0  502 -0.29181697659E+02 -0.32958454610E+02  0.17291302898E+03  0.17847750334E+03  0.41800000000E+01 0.  1.
        -11    1    1    2    0    0  0.11638670165E+02 -0.19756197196E+02 -0.63559665920E+01  0.23794206903E+02  0.00000000000E+00 0. -1.
         11    1    1    2    0    0 -0.37761638430E+00  0.21415725363E+02  0.11938628285E+03  0.12129245822E+03  0.00000000000E+00 0.  1.
</event>
<event>
 7    1  0.2440960E-009  0.1109322E+03  0.7561462E-02  0.1258853E+00
         -2   -1    0    0    0  501 -0.00000000000E+00  0.00000000000E+00  0.11614320923E+03  0.11614320923E+03  0.00000000000E+00 0.  1.
          2   -1    0    0  501    0  0.00000000000E+00 -0.00000000000E+00 -0.13668665400E+03  0.13668665400E+03  0.00000000000E+00 0. -1.
         25    2    1    2    0    0 -0.45770471817E+02  0.51491837518E+02 -0.35813614609E+02  0.14722968172E+03  0.12509044235E+03 0.  0.
          5    1    3    3  502    0  0.36900745459E+02 -0.63703921481E+01 -0.25956950880E+02  0.45754591142E+02  0.41800000000E+01 0.  1.
         -5    1    3    3    0  502 -0.82671217276E+02  0.57862229667E+02 -0.98566637292E+01  0.10147509058E+03  0.41800000000E+01 0.  1.
        -11    1    1    2    0    0  0.55225760260E+02 -0.39397753519E+02 -0.16937506425E+02  0.69921003300E+02  0.00000000000E+00 0. -1.
         11    1    1    2    0    0 -0.94552884429E+01 -0.12094083999E+02  0.32207676269E+02  0.35679178213E+02  0.00000000000E+00 0.  1.
</event>
<event>
 7    1  0.2440960E-009  0.1172378E+03  0.7561462E-02  0.1247725E+00
          1   -1    0    0  501    0  0.00000000000E+00  0.00000000000E+00  0.91762493320E+02  0.91762493320E+02  0.00000000000E+00 0. -1.
         -1   -1    0    0    0  501 -0.00000000000E+00 -0.00000000000E+00 -0.15974559044E+03  0.15974559044E+03  0.00000000000E+00 0.  1.
         25    2    1    2    0    0  0.31142046016E+02 -0.43508616114E+02 -0.29968020330E+02  0.13931152156E+03  0.12508713399E+03 0.  0.
          5    1    3    3  502    0  0.34493235278E+02  0.35644716740E+02 -0.33330335573E+02  0.59905865997E+02  0.41800000000E+01 0.  1.
         -5    1    3    3    0  502 -0.33511892622E+01 -0.79153332855E+02  0.33623152423E+01  0.79405655562E+02  0.41800000000E+01 0.  1.
        -11    1    1    2    0    0 -0.57066260451E+02  0.52877595938E+02 -0.31043859664E+02  0.83763473285E+02  0.00000000000E+00 0. -1.
         11    1    1    2    0    0  0.25924214435E+02 -0.93689798231E+01 -0.69712171230E+01  0.28433088913E+02  0.00000000000E+00 0.  1.
</event>
<event>
 7    1  0.2440960E-009  0.8392363E+02  0.7561462E-02  0.1318272E+00
         -1   -1    0    0    0  501 -0.00000000000E+00  0.00000000000E+00  0.32411791629E+02  0.32411791629E+02  0.00000000000E+00 0.  1.
          1   -1    0    0  501    0  0.00000000000E+00 -0.00000000000E+00 -0.37437749709E+03  0.37437749709E+03  0.00000000000E+00 0. -1.
         25    2    1    2    0    0 -0.12859701924E+02 -0.13252772133E+02 -0.22593604906E+03  0.25890256353E+03  0.12506970550E+03 0.  0.
          5    1    3    3  502    0  0.34871394848E+02 -0.45981686340E+02 -0.61086029505E+02  0.84138606227E+02  0.41800000000E+01 0. -1.
         -5    1    3    3    0  502 -0.47731096771E+02  0.32728914206E+02 -0.16485001955E+03  0.17476395730E+03  0.41800000000E+01 0. -1.
        -11    1    1    2    0    0 -0.59376041156E+01  0.27652677571E+02 -0.12051270218E+03  0.12378706357E+03  0.00000000000E+00 0. -1.
         11    1    1    2    0    0  0.18797306039E+02 -0.14399905438E+02  0.44830457800E+01  0.24099661624E+02  0.00000000000E+00 0.  1.
</event>
<event>
 7    1  0.2440960E-009  0.1858782E+03  0.7561462E-02  0.1162232E+00
         -1   -1    0    0    0  501 -0.00000000000E+00  0.00000000000E+00  0.20134227485E+02  0.20134227485E+02  0.00000000000E+00 0.  1.
          1   -1    0    0  501    0  0.00000000000E+00 -0.00000000000E+00 -0.21998314194E+04  0.21998314194E+04  0.00000000000E+00 0. -1.
         25    2    1    2    0    0 -0.96550860504E+01 -0.17765556218E+03 -0.12777389630E+04  0.12961168142E+04  0.12508884379E+03 0.  0.
          5    1    3    3  502    0 -0.25623530403E+02 -0.64916679925E+02 -0.86857393983E+03  0.87138332667E+03  0.41800000000E+01 0. -1.
         -5    1    3    3    0  502  0.15968444353E+02 -0.11273888225E+03 -0.40916502322E+03  0.42473348751E+03  0.41800000000E+01 0. -1.
        -11    1    1    2    0    0  0.32940242439E+02  0.65083645220E+02 -0.20767626824E+03  0.22011445395E+03  0.00000000000E+00 0.  1.
         11    1    1    2    0    0 -0.23285156388E+02  0.11257191696E+03 -0.69428196062E+03  0.70373437875E+03  0.00000000000E+00 0. -1.
</event>
<event>
 7    1  0.2440960E-009  0.1194833E+03  0.7561462E-02  0.1243952E+00
          1   -1    0    0  501    0  0.00000000000E+00  0.00000000000E+00  0.23519628143E+03  0.23519628143E+03  0.00000000000E+00 0. -1.
         -1   -1    0    0    0  501 -0.00000000000E+00 -0.00000000000E+00 -0.10143609934E+03  0.10143609934E+03  0.00000000000E+00 0.  1.
         25    2    1    2    0    0  0.10566932837E+03  0.17940865072E+02  0.49107304528E+02  0.17189092374E+03  0.12508829165E+03 0.  0.
          5    1    3    3  502    0  0.70288736558E+02  0.43132963672E+02 -0.24666559830E+02  0.86179293428E+02  0.41800000000E+01 0. -1.
         -5    1    3    3    0  502  0.35380591816E+02 -0.25192098599E+02  0.73773864358E+02  0.85711630316E+02  0.41800000000E+01 0. -1.
        -11    1    1    2    0    0 -0.12157403706E+02  0.93601938817E+01 -0.17710882097E+02  0.23432691672E+02  0.00000000000E+00 0.  1.
         11    1    1    2    0    0 -0.93511924668E+02 -0.27301058954E+02  0.10236375966E+03  0.14130876536E+03  0.00000000000E+00 0. -1.
</event>
<event>
 7    1  0.2440960E-009  0.1217796E+03  0.7561462E-02  0.1240190E+00
         -2   -1    0    0    0  501 -0.00000000000E+00  0.00000000000E+00  0.12855118219E+03  0.12855118219E+03  0.00000000000E+00 0.  1.
          2   -1    0    0  501    0  0.00000000000E+00 -0.00000000000E+00 -0.14268192903E+03  0.14268192903E+03  0.00000000000E+00 0. -1.
         25    2    1    2    0    0 -0.25606464750E+02 -0.70493561749E+02 -0.28695113109E+02  0.14863756929E+03  0.12507871203E+03 0.  0.
          5    1    3    3  502    0 -0.24629200479E+02  0.30196209932E+02 -0.27452029509E+02  0.47848667010E+02  0.41800000000E+01 0. -1.
         -5    1    3    3    0  502 -0.97726427050E+00 -0.10068977168E+03 -0.12430836002E+01  0.10078890228E+03  0.41800000000E+01 0. -1.
        -11    1    1    2    0    0 -0.52523017609E+01 -0.13296284795E+02  0.28822000821E+02  0.32172746144E+02  0.00000000000E+00 0.  1.
         11    1    1    2    0    0  0.30858766511E+02  0.83789846544E+02 -0.14257634548E+02  0.90422795783E+02  0.00000000000E+00 0. -1.
</event>
<event>
 7    1  0.2440960E-009  0.1068878E+03  0.7561462E-02  0.1266444E+00
          2   -1    0    0  501    0  0.00000000000E+00  0.00000000000E+00  0.40618972311E+03  0.40618972311E+03  0.00000000000E+00 0. -1.
         -2   -1    0    0    0  501 -0.00000000000E+00 -0.00000000000E+00 -0.44279260104E+02  0.44279260104E+02  0.00000000000E+00 0.  1.
         25    2    1    2    0    0  0.65220729026E+02 -0.36770523319E+02  0.22351342412E+03  0.26685580173E+03  0.12509177939E+03 0.  0.
          5    1    3    3  502    0  0.64343529026E+02 -0.11391189384E+00  0.22060698538E+03  0.22983693590E+03  0.41800000000E+01 0.  1.
         -5    1    3    3    0  502  0.87719999958E+00 -0.36656611425E+02  0.29064387400E+01  0.37018865828E+02  0.41800000000E+01 0.  1.
        -11    1    1    2    0    0  0.19297305202E+02  0.16707342736E+02  0.76624031193E+01  0.26650210335E+02  0.00000000000E+00 0.  1.
         11    1    1    2    0    0 -0.84518034227E+02  0.20063180583E+02  0.13073463576E+03  0.15696297115E+03  0.00000000000E+00 0. -1.
</event>
<event>
 7    1  0.2440960E-009  0.1035651E+03  0.7561462E-02  0.1272973E+00
         -1   -1    0    0    0  501 -0.00000000000E+00  0.00000000000E+00  0.31037753754E+02  0.31037753754E+02  0.00000000000E+00 0.  1.
          1   -1    0    0  501    0  0.00000000000E+00 -0.00000000000E+00 -0.53722335222E+03  0.53722335222E+03  0.00000000000E+00 0. -1.
         25    2    1    2    0    0  0.68227172628E+02  0.10457291480E+02 -0.23599394925E+03  0.27587085548E+03  0.12508909939E+03 0.  0.
          5    1    3    3  502    0  0.92294644896E+02 -0.20104367241E+01 -0.22989812465E+03  0.24777603486E+03  0.41800000000E+01 0. -1.
         -5    1    3    3    0  502 -0.24067472269E+02  0.12467728204E+02 -0.60958246026E+01  0.28094820618E+02  0.41800000000E+01 0. -1.
        -11    1    1    2    0    0 -0.20219094064E+02 -0.29401585133E+02 -0.29708328755E+02  0.46431129326E+02  0.00000000000E+00 0.  1.
         11    1    1    2    0    0 -0.48008078564E+02  0.18944293653E+02 -0.24048332046E+03  0.24595912118E+03  0.00000000000E+00 0. -1.
</event>
<event>
 7    1  0.2440960E-009  0.1420742E+03  0.7561462E-02  0.1210565E+00
          3   -1    0    0  501    0  0.00000000000E+00  0.00000000000E+00  0.39978206709E+03  0.39978206709E+03  0.00000000000E+00 0. -1.
         -3   -1    0    0    0  501 -0.00000000000E+00 -0.00000000000E+00 -0.65477099762E+02  0.65477099762E+02  0.00000000000E+00 0.  1.
         25    2    1    2    0    0 -0.97254018017E+02  0.61851987207E+02  0.22193839653E+03  0.27962150268E+03  0.12509004982E+03 0.  0.
          5    1    3    3  502    0  0.28528480879E+02  0.23839882742E+02  0.63933092053E+02  0.74075143536E+02  0.41800000000E+01 0. -1.
         -5    1    3    3    0  502 -0.12578249890E+03  0.38012104465E+02  0.15800530448E+03  0.20554635914E+03  0.41800000000E+01 0. -1.
        -11    1    1    2    0    0  0.33050511223E+02 -0.21975322617E+02 -0.10798354010E+02  0.41132171661E+02  0.00000000000E+00 0.  1.
         11    1    1    2    0    0  0.64203506793E+02 -0.39876664590E+02  0.12316492481E+03  0.14450549252E+03  0.00000000000E+00 0. -1.
</event>
<event>
 7    1  0.2440960E-009  0.7005603E+02  0.7561462E-02  0.1359903E+00
         -1   -1    0    0    0  501 -0.00000000000E+00  0.00000000000E+00  0.74842625727E+02  0.74842625727E+02  0.00000000000E+00 0.  1.
          1   -1    0    0  501    0  0.00000000000E+00 -0.00000000000E+00 -0.21129653075E+03  0.21129653075E+03  0.00000000000E+00 0. -1.
         25    2    1    2    0    0 -0.21279162764E+02  0.33398478510E+02 -0.13107320253E+03  0.18546085997E+03  0.12508910833E+03 0.  0.
          5    1    3    3  502    0 -0.13735518367E+01  0.22707064025E+02  0.21253061765E+02  0.31411183290E+02  0.41800000000E+01 0.  1.
         -5    1    3    3    0  502 -0.19905610928E+02  0.10691414485E+02 -0.15232626430E+03  0.15404967668E+03  0.41800000000E+01 0.  1.
        -11    1    1    2    0    0 -0.26032696414E+02  0.11791103872E+02 -0.18373241372E+02  0.33975099877E+02  0.00000000000E+00 0. -1.
         11    1    1    2    0    0  0.47311859179E+02 -0.45189582382E+02  0.12992538878E+02  0.66703196635E+02  0.00000000000E+00 0.  1.
</event>
<event>
 7    1  0.2440960E-009  0.1305083E+03  0.7561462E-02  0.1226703E+00
         -2   -1    0    0    0  501 -0.00000000000E+00  0.00000000000E+00  0.18323885254E+02  0.18323885254E+02  0.00000000000E+00 0.  1.
          2   -1    0    0  501    0  0.00000000000E+00 -0.00000000000E+00 -0.11405143391E+04  0.11405143391E+04  0.00000000000E+00 0. -1.
         25    2    1    2    0    0 -0.56869834378E+02  0.76541324219E+02 -0.56066026912E+03  0.58230566829E+03  0.12508877480E+03 0.  0.
          5    1    3    3  502    0 -0.32959242314E+02 -0.14601987461E+02 -0.34523199273E+03  0.34713416844E+03  0.41800000000E+01 0.  1.
         -5    1    3    3    0  502 -0.23910592063E+02  0.91143311680E+02 -0.21542827639E+03  0.23517149986E+03  0.41800000000E+01 0.  1.
        -11    1    1    2    0    0  0.71994532039E+02 -0.24246473650E+02 -0.34487020410E+03  0.35313816248E+03  0.00000000000E+00 0.  1.
         11    1    1    2    0    0 -0.15124697661E+02 -0.52294850569E+02 -0.21665998060E+03  0.22339439355E+03  0.00000000000E+00 0. -1.
</event>
<event>
 7    1  0.2440960E-009  0.1167072E+03  0.7561462E-02  0.1248630E+00
          1   -1    0    0  501    0  0.00000000000E+00  0.00000000000E+00  0.78756763785E+03  0.78756763785E+03  0.00000000000E+00 0. -1.
         -1   -1    0    0    0  501 -0.00000000000E+00 -0.00000000000E+00 -0.30991046471E+02  0.30991046471E+02  0.00000000000E+00 0.  1.
         25    2    1    2    0    0  0.55910309768E+02  0.34942911107E+02  0.65168973923E+03  0.66685451296E+03  0.12509378666E+03 0.  0.
          5    1    3    3  502    0 -0.37940217311E+02 -0.63981878555E+01  0.16955101535E+03  0.17391209303E+03  0.41800000000E+01 0.  1.
         -5    1    3    3    0  502  0.93850527079E+02  0.41341098963E+02  0.48213872388E+03  0.49294241993E+03  0.41800000000E+01 0.  1.
        -11    1    1    2    0    0 -0.58882832684E+02 -0.19160126852E+01  0.22799145758E+02  0.63171671949E+02  0.00000000000E+00 0.  1.
         11    1    1    2    0    0  0.29725229162E+01 -0.33026898422E+02  0.82087706392E+02  0.88532499414E+02  0.00000000000E+00 0. -1.
</event>
<event>
 7    1  0.2440960E-009  0.1062135E+03  0.7561462E-02  0.1267747E+00
         -1   -1    0    0    0  501 -0.00000000000E+00  0.00000000000E+00  0.55672273209E+02  0.55672273209E+02  0.00000000000E+00 0.  1.
          1   -1    0    0  501    0  0.00000000000E+00 -0.00000000000E+00 -0.36575849148E+03  0.36575849148E+03  0.00000000000E+00 0. -1.
         25    2    1    2    0    0 -0.61723030407E+01 -0.58539677480E+02 -0.27490216003E+03  0.30770675715E+03  0.12508900687E+03 0.  0.
          5    1    3    3  502    0 -0.53748032362E+02 -0.38517344301E+02 -0.22937834117E+03  0.23875580117E+03  0.41800000000E+01 0.  1.
         -5    1    3    3    0  502  0.47575729321E+02 -0.20022333180E+02 -0.45523818863E+02  0.68950955978E+02  0.41800000000E+01 0.  1.
        -11    1    1    2    0    0  0.40068384415E+02  0.29621479533E+02 -0.46064585800E+02  0.67859071201E+02  0.00000000000E+00 0. -1.
         11    1    1    2    0    0 -0.33896081375E+02  0.28918197947E+02  0.10880527564E+02  0.45864936336E+02  0.00000000000E+00 0.  1.
</event>
<event>
 7    1  0.2440960E-009  0.1191916E+03  0.7561462E-02  0.1244437E+00
          1   -1    0    0  501    0  0.00000000000E+00  0.00000000000E+00  0.19097095214E+04  0.19097095214E+04  0.00000000000E+00 0. -1.
         -1   -1    0    0    0  501 -0.00000000000E+00 -0.00000000000E+00 -0.19005396209E+02  0.19005396209E+02  0.00000000000E+00 0.  1.
         25    2    1    2    0    0  0.94048907389E+02  0.29655631717E+02  0.16090094693E+04  0.16168747775E+04  0.12509164793E+03 0.  0.
          5    1    3    3  502    0  0.89687325096E+02 -0.92301454972E+01  0.56840428597E+03  0.57552577404E+03  0.41800000000E+01 0. -1.
         -5    1    3    3    0  502  0.43615822921E+01  0.38885777214E+02  0.10406051833E+04  0.10413490035E+04  0.41800000000E+01 0. -1.
        -11    1    1    2    0    0 -0.83774846097E+02 -0.41167448146E+02  0.28132451676E+03  0.29640591653E+03  0.00000000000E+00 0. -1.
         11    1    1    2    0    0 -0.10274061291E+02  0.11511816428E+02  0.37013909180E+00  0.15434223526E+02  0.00000000000E+00 0.  1.
</event>
<event>
 7    1  0.2440960E-009  0.1766590E+03  0.7561462E-02  0.1171076E+00
         -3   -1    0    0    0  501 -0.00000000000E+00  0.00000000000E+00  0.37339366175E+03  0.37339366175E+03  0.00000000000E+00 0.  1.
          3   -1    0    0  501    0  0.00000000000E+00 -0.00000000000E+00 -0.10428045870E+03  0.10428045870E+03  0.00000000000E+00 0. -1.
         25    2    1    2    0    0 -0.11662699687E+02  0.15522834412E+03  0.76694799265E+02  0.21391952363E+03  0.12509041919E+03 0.  0.
          5    1    3    3  502    0  0.45969957517E+02  0.60679343671E+02 -0.47662463429E+01  0.76389850417E+02  0.41800000000E+01 0. -1.
         -5    1    3    3    0  502 -0.57632657204E+02  0.94549000452E+02  0.81461045608E+02  0.13752967321E+03  0.41800000000E+01 0. -1.
        -11    1    1    2    0    0  0.31090697376E+02 -0.47284439318E+02  0.11900241560E+03  0.13177262456E+03  0.00000000000E+00 0.  1.
         11    1    1    2    0    0 -0.19427997689E+02 -0.10794390481E+03  0.73415988185E+02  0.13198197225E+03  0.00000000000E+00 0. -1.
</event>
<event>
 7    1  0.2440960E-009  0.9640281E+02  0.7561462E-02  0.1288048E+00
          2   -1    0    0  501    0  0.00000000000E+00  0.00000000000E+00  0.63126551556E+03  0.63126551556E+03  0.00000000000E+00 0. -1.
         -2   -1    0    0    0  501 -0.00000000000E+00 -0.00000000000E+00 -0.26382051537E+02  0.26382051537E+02  0.00000000000E+00 0.  1.
         25    2    1    2    0    0  0.51745619060E+02 -0.33510570538E+02  0.27555352529E+03  0.30883301020E+03  0.12509002944E+03 0.  0.
          5    1    3    3  502    0  0.59059629384E+02 -0.37465859625E+02  0.28622354023E+03  0.29467459653E+03  0.41800000000E+01 0. -1.
         -5    1    3    3    0  502 -0.73140103240E+01  0.39552890866E+01 -0.10670014944E+02  0.14158413671E+02  0.41800000000E+01 0. -1.
        -11    1    1    2    0    0  0.26484820482E+02  0.21858249330E+02  0.12740636448E+03  0.13195306169E+03  0.00000000000E+00 0.  1.
         11    1    1    2    0    0 -0.78230439542E+02  0.11652321209E+02  0.20192357426E+03  0.21686149520E+03  0.00000000000E+00 0. -1.
</event>
<event>
 7    1  0.2440960E-009  0.7317825E+02  0.7561462E-02  0.1349607E+00
         -2   -1    0    0    0  501 -0.00000000000E+00  0.00000000000E+00  0.17390557436E+02  0.17390557436E+02  0.00000000000E+00 0.  1.
          2   -1    0    0  501    0  0.00000000000E+00 -0.00000000000E+00 -0.78243968566E+03  0.78243968566E+03  0.00000000000E+00 0. -1.
         25    2    1    2    0    0  0.18620474750E+02  0.20378382726E+02 -0.55390125379E+03  0.56852269641E+03  0.12509778904E+03 0.  0.
          5    1    3    3  502    0 -0.34750212981E+02 -0.40140826817E+01 -0.42917569628E+03  0.43061925275E+03  0.41800000000E+01 0.  1.
         -5    1    3    3    0  502  0.53370687730E+02  0.24392465408E+02 -0.12472555751E+03  0.13790344366E+03  0.41800000000E+01 0.  1.
        -11    1    1    2    0    0 -0.30603551666E+02 -0.24936129289E+02 -0.21446245431E+03  0.21806543107E+03  0.00000000000E+00 0. -1.
         11    1    1    2    0    0  0.11983076916E+02  0.45577465632E+01  0.33145798799E+01  0.13242115612E+02  0.00000000000E+00 0.  1.
</event>
<event>
 7    1  0.2440960E-009  0.1093594E+03  0.7561462E-02  0.1261761E+00
          2   -1    0    0  501    0  0.00000000000E+00  0.00000000000E+00  0.41237641410E+02  0.41237641410E+02  0.00000000000E+00 0. -1.
         -2   -1    0    0    0  501 -0.00000000000E+00 -0.00000000000E+00 -0.46163591976E+03  0.46163591976E+03  0.00000000000E+00 0.  1.
         25    2    1    2    0    0 -0.19519406714E+02 -0.17084642594E+02 -0.37570462067E+03  0.39682910864E+03  0.12508591937E+03 0.  0.
          5    1    3    3  502    0  0.37521970840E+02 -0.47091016662E+02 -0.14045468491E+03  0.15287397771E+03  0.41800000000E+01 0. -1.
         -5    1    3    3    0  502 -0.57041377555E+02  0.30006374069E+02 -0.23524993576E+03  0.24395513094E+03  0.41800000000E+01 0. -1.
        -11    1    1    2    0    0 -0.27094514748E+02  0.34628129216E+02 -0.92941385166E+01  0.44939971887E+02  0.00000000000E+00 0. -1.
         11    1    1    2    0    0  0.46613921463E+02 -0.17543486623E+02 -0.35399519167E+02  0.61104480640E+02  0.00000000000E+00 0.  1.
</event>
<event>
 7    1  0.2440960E-009  0.1329185E+03  0.7561462E-02  0.1223188E+00
          1   -1    0    0  501    0  0.00000000000E+00  0.00000000000E+00  0.51779081746E+03  0.51779081746E+03  0.00000000000E+00 0. -1.
         -1   -1    0    0    0  501 -0.00000000000E+00 -0.00000000000E+00 -0.37610682859E+02  0.37610682859E+02  0.00000000000E+00 0.  1.
         25    2    1    2    0    0  0.81155525042E+02  0.19748635604E+02  0.31700157945E+03  0.35087590726E+03  0.12509065940E+03 0.  0.
          5    1    3    3  502    0  0.87789328504E+02  0.57913972921E+02  0.18074741251E+03  0.20916045035E+03  0.41800000000E+01 0. -1.
         -5    1    3    3    0  502 -0.66338034618E+01 -0.38165337317E+02  0.13625416693E+03  0.14171545691E+03  0.41800000000E+01 0. -1.
        -11    1    1    2    0    0 -0.98019749957E+02 -0.33190208909E+01  0.14364480227E+03  0.17393308053E+03  0.00000000000E+00 0.  1.
         11    1    1    2    0    0  0.16864224915E+02 -0.16429614714E+02  0.19533752884E+02  0.30592512538E+02  0.00000000000E+00 0. -1.
</event>
<event>
 7    1  0.2440960E-009  0.1196690E+03  0.7561462E-02  0.1243644E+00
         -2   -1    0    0    0  501 -0.00000000000E+00  0.00000000000E+00  0.55190033548E+02  0.55190033548E+02  0.00000000000E+00 0.  1.
          2   -1    0    0  501    0  0.00000000000E+00 -0.00000000000E+00 -0.43967430353E+03  0.43967430353E+03  0.00000000000E+00 0. -1.
         25    2    1    2    0    0  0.24169726010E+02 -0.77993694079E+02 -0.32687364146E+03  0.35938814804E+03  0.12508505706E+03 0.  0.
          5    1    3    3  502    0 -0.17314145782E+02  0.10647285583E+02 -0.18968499735E+03  0.19081670512E+03  0.41800000000E+01 0.  1.
         -5    1    3    3    0  502  0.41483871793E+02 -0.88640979662E+02 -0.13718864411E+03  0.16857144292E+03  0.41800000000E+01 0.  1.
        -11    1    1    2    0    0  0.17637704253E+02 -0.12044861664E+02 -0.20176742538E+02  0.29381426841E+02  0.00000000000E+00 0.  1.
         11    1    1    2    0    0 -0.41807430263E+02  0.90038555743E+02 -0.37433885983E+02  0.10609476220E+03  0.00000000000E+00 0. -1.
</event>
<event>
 7    1  0.2440960E-009  0.1084153E+03  0.7561462E-02  0.1263533E+00
          3   -1    0    0  501    0  0.00000000000E+00  0.00000000000E+00  0.17874770801E+02  0.17874770801E+02  0.00000000000E+00 0. -1.
         -3   -1    0    0    0  501 -0.00000000000E+00 -0.00000000000E+00 -0.68019760751E+03  0.68019760751E+03  0.00000000000E+00 0.  1.
         25    2    1    2    0    0  0.69263592813E+01  0.76555016467E+01 -0.36134734145E+03  0.38252599542E+03  0.12509058654E+03 0.  0.
          5    1    3    3  502    0 -0.77860695310E+01  0.64174981922E+02 -0.22495488487E+03  0.23409661213E+03  0.41800000000E+01 0.  1.
         -5    1    3    3    0  502  0.14712428812E+02 -0.56519480275E+02 -0.13639245658E+03  0.14842938329E+03  0.41800000000E+01 0.  1.
        -11    1    1    2    0    0  0.41104225580E+02  0.10037383984E+02 -0.16234152886E+03  0.16776494994E+03  0.00000000000E+00 0. -1.
         11    1    1    2    0    0 -0.48030584861E+02 -0.17692885631E+02 -0.13863396641E+03  0.14778143295E+03  0.00000000000E+00 0.  1.
</event>
<event>
 7    1  0.2440960E-009  0.1465121E+03  0.7561462E-02  0.1204826E+00
         -1   -1    0    0    0  501 -0.00000000000E+00  0.00000000000E+00  0.89981726030E+03  0.89981726030E+03  0.00000000000E+00 0.  1.
          1   -1    0    0  501    0  0.00000000000E+00 -0.00000000000E+00 -0.28653072737E+02  0.28653072737E+02  0.00000000000E+00 0. -1.
         25    2    1    2    0    0  0.44424968829E+02  0.10643900278E+03  0.38707950125E+03  0.42282327702E+03  0.12508454794E+03 0.  0.
          5    1    3    3  502    0  0.28620866779E+02  0.12440576321E+03  0.22326150754E+03  0.25721415412E+03  0.41800000000E+01 0.  1.
         -5    1    3    3    0  502  0.15804102051E+02 -0.17966760424E+02  0.16381799372E+03  0.16560912290E+03  0.41800000000E+01 0.  1.
        -11    1    1    2    0    0 -0.61472590894E+02 -0.42241649146E+02  0.18913617272E+03  0.20331189878E+03  0.00000000000E+00 0.  1.
         11    1    1    2    0    0  0.17047622064E+02 -0.64197353638E+02  0.29494851359E+03  0.30233515724E+03  0.00000000000E+00 0. -1.
</event>
<event>
 7    1  0.2440960E-009  0.1225698E+03  0.7561462E-02  0.1238917E+00
          4   -1    0    0  501    0  0.00000000000E+00  0.00000000000E+00  0.87367489928E+02  0.87367489928E+02  0.00000000000E+00 0. -1.
         -4   -1    0    0    0  501 -0.00000000000E+00 -0.00000000000E+00 -0.19535097425E+03  0.19535097425E+03  0.00000000000E+00 0.  1.
         25    2    1    2    0    0  0.69863037079E+02 -0.13330145576E+02 -0.47604717475E+02  0.15156481387E+03  0.12508855641E+03 0.  0.
          5    1    3    3  502    0 -0.25716056134E+02  0.14613702372E+02 -0.42262390039E+02  0.51753819684E+02  0.41800000000E+01 0.  1.
         -5    1    3    3    0  502  0.95579093213E+02 -0.27943847947E+02 -0.53423274368E+01  0.99810994184E+02  0.41800000000E+01 0.  1.
        -11    1    1    2    0    0 -0.82143070305E+02 -0.16103754506E+02 -0.36532029333E+02  0.91331287495E+02  0.00000000000E+00 0.  1.
         11    1    1    2    0    0  0.12280033226E+02  0.29433900082E+02 -0.23846737510E+02  0.39822362812E+02  0.00000000000E+00 0. -1.
</event>
<event>
 7    1  0.2440960E-009  0.1367260E+03  0.7561462E-02  0.1217803E+00
          3   -1    0    0  501    0  0.00000000000E+00  0.00000000000E+00  0.65948795116E+02  0.65948795116E+02  0.00000000000E+00 0. -1.
         -3   -1    0    0    0  501 -0.00000000000E+00 -0.00000000000E+00 -0.71267893546E+03  0.71267893546E+03  0.00000000000E+00 0.  1.
         25    2    1    2    0    0  0.14759577671E+02 -0.10529867944E+03 -0.58096184046E+02  0.17414801960E+03  0.12508680627E+03 0.  0.
          5    1    3    3  502    0  0.27854536906E+02  0.10380987118E+02 -0.48787859089E+02  0.57283223672E+02  0.41800000000E+01 0. -1.
         -5    1    3    3    0  502 -0.13094959235E+02 -0.11567966656E+03 -0.93083249573E+01  0.11686479592E+03  0.41800000000E+01 0. -1.
        -11    1    1    2    0    0 -0.12429030925E+02  0.11565691813E+03 -0.57748562446E+03  0.58908458643E+03  0.00000000000E+00 0.  1.
         11    1    1    2    0    0 -0.23305467463E+01 -0.10358238690E+02 -0.11148331842E+02  0.15395124545E+02  0.00000000000E+00 0. -1.
</event>
<event>
 7    1  0.2440960E-009  0.1353387E+03  0.7561462E-02  0.1219742E+00
         -1   -1    0    0    0  501 -0.00000000000E+00  0.00000000000E+00  0.36740111726E+02  0.36740111726E+02  0.00000000000E+00 0.  1.
          1   -1    0    0  501    0  0.00000000000E+00 -0.00000000000E+00 -0.72703050721E+03  0.72703050721E+03  0.00000000000E+00 0. -1.
         25    2    1    2    0    0  0.40028969804E+02 -0.72854691515E+02 -0.58110330830E+03  0.60019872309E+03  0.12508927922E+03 0.  0.
          5    1    3    3  502    0  0.23579020105E+02 -0.10814948346E+03 -0.44431481760E+03  0.45791419557E+03  0.41800000000E+01 0.  1.
         -5    1    3    3    0  502  0.16449949700E+02  0.35294791943E+02 -0.13678849070E+03  0.14228452752E+03  0.41800000000E+01 0.  1.
        -11    1    1    2    0    0 -0.54812760036E+02  0.94276604722E+01 -0.39684875005E+02  0.68324291060E+02  0.00000000000E+00 0.  1.
         11    1    1    2    0    0  0.14783790232E+02  0.63427031043E+02 -0.69502212181E+02  0.95247604792E+02  0.00000000000E+00 0. -1.
</event>
<event>
 7    1  0.2440960E-009  0.8793922E+02  0.7561462E-02  0.1307920E+00
          1   -1    0    0  501    0  0.00000000000E+00  0.00000000000E+00  0.68581740228E+03  0.68581740228E+03  0.00000000000E+00 0. -1.
         -1   -1    0    0    0  501 -0.00000000000E+00 -0.00000000000E+00 -0.21450415561E+02  0.21450415561E+02  0.00000000000E+00 0.  1.
         25    2    1    2    0    0 -0.85219939012E+00  0.32043258491E+01  0.21592268562E+03  0.24956126086E+03  0.12508885965E+03 0.  0.
          5    1    3    3  502    0 -0.42262597578E+02  0.38268544432E+01  0.16308471843E+02  0.45653155672E+02  0.41800000000E+01 0.  1.
         -5    1    3    3    0  502  0.41410398188E+02 -0.62252859412E+00  0.19961421377E+03  0.20390810519E+03  0.41800000000E+01 0.  1.
        -11    1    1    2    0    0 -0.28192850697E+02 -0.37342458293E+02  0.23022810801E+03  0.23493462440E+03  0.00000000000E+00 0. -1.
         11    1    1    2    0    0  0.29045050087E+02  0.34138132444E+02  0.21821619309E+03  0.22277193259E+03  0.00000000000E+00 0.  1.
</event>
<event>
 7    1  0.2440960E-009  0.1103265E+03  0.7561462E-02  0.1259967E+00
          3   -1    0    0  501    0  0.00000000000E+00  0.00000000000E+00  0.11626622911E+03  0.11626622911E+03  0.00000000000E+00 0. -1.
         -3   -1    0    0    0  501 -0.00000000000E+00 -0.00000000000E+00 -0.13848969446E+03  0.13848969446E+03  0.00000000000E+00 0.  1.
         25    2    1    2    0    0 -0.36467112324E+02 -0.53410298852E+02 -0.18091794532E+02  0.14197108200E+03  0.12508383105E+03 0.  0.
          5    1    3    3  502    0  0.38825715908E+02 -0.54551250695E+01 -0.32942986031E+02  0.51380028552E+02  0.41800000000E+01 0.  1.
         -5    1    3    3    0  502 -0.75292828232E+02 -0.47955173782E+02  0.14851191499E+02  0.90591053447E+02  0.41800000000E+01 0.  1.
        -11    1    1    2    0    0  0.34538212281E+02 -0.36814747722E+01 -0.33757097947E+02  0.48435348929E+02  0.00000000000E+00 0.  1.
         11    1    1    2    0    0  0.19289000430E+01  0.57091773624E+02  0.29625427128E+02  0.64349492643E+02  0.00000000000E+00 0. -1.
</event>
<event>
 7    1  0.2440960E-009  0.1157100E+03  0.7561462E-02  0.1250347E+00
          3   -1    0    0  501    0  0.00000000000E+00  0.00000000000E+00  0.13813091090E+03  0.13813091090E+03  0.00000000000E+00 0. -1.
         -3   -1    0    0    0  501 -0.00000000000E+00 -0.00000000000E+00 -0.14052942776E+03  0.14052942776E+03  0.00000000000E+00 0.  1.
         25    2    1    2    0    0  0.86954949329E+02 -0.63597827788E+01 -0.82207514245E+01  0.15270153359E+03  0.12509423471E+03 0.  0.
          5    1    3    3  502    0  0.58868127693E+02  0.41568161428E+02 -0.45812277191E+02  0.85496231753E+02  0.41800000000E+01 0. -1.
         -5    1    3    3    0  502  0.28086821636E+02 -0.47927944207E+02  0.37591525766E+02  0.67205301837E+02  0.41800000000E+01 0. -1.
        -11    1    1    2    0    0  0.44207776234E+01  0.11180292063E+02  0.29147663329E+02  0.31529803091E+02  0.00000000000E+00 0. -1.
         11    1    1    2    0    0 -0.91375726952E+02 -0.48205092843E+01 -0.23325428764E+02  0.94429001969E+02  0.00000000000E+00 0.  1.
</event>
<event>
 7    1  0.2440960E-009  0.1239213E+03  0.7561462E-02  0.1236765E+00
         -2   -1    0    0    0  501 -0.00000000000E+00  0.00000000000E+00  0.20002868433E+02  0.20002868433E+02  0.00000000000E+00 0. -1.
          2   -1    0    0  501    0  0.00000000000E+00 -0.00000000000E+00 -0.26987343662E+04  0.26987343662E+04  0.00000000000E+00 0.  1.
         25    2    1    2    0    0 -0.97967417372E+02  0.32545803928E+02 -0.24227214784E+04  0.24281442216E+04  0.12509258436E+03 0.  0.
          5    1    3    3  502    0 -0.89318716306E+02  0.42886766583E+02 -0.91529701312E+03  0.92065368215E+03  0.41800000000E+01 0.  1.
         -5    1    3    3    0  502 -0.86487010657E+01 -0.10340962655E+02 -0.15074244653E+04  0.15074905394E+04  0.41800000000E+01 0.  1.
        -11    1    1    2    0    0  0.34019787481E+02  0.29816956944E+02 -0.11609519632E+03  0.12459731727E+03  0.00000000000E+00 0.  1.
         11    1    1    2    0    0  0.63947629890E+02 -0.62362760872E+02 -0.13991482305E+03  0.16599569579E+03  0.00000000000E+00 0. -1.
</event>
<event>
 7    1  0.2440960E-009  0.1961152E+03  0.7561462E-02  0.1153059E+00
         -1   -1    0    0    0  501 -0.00000000000E+00  0.00000000000E+00  0.79441313091E+03  0.79441313091E+03  0.00000000000E+00 0.  1.
          1   -1    0    0  501    0  0.00000000000E+00 -0.00000000000E+00 -0.60841740656E+02  0.60841740656E+02  0.00000000000E+00 0. -1.
         25    2    1    2    0    0  0.18498387236E+02  0.17685380925E+03  0.51510588602E+03  0.55910810692E+03  0.12509333008E+03 0.  0.
          5    1    3    3  502    0  0.24025834969E+02  0.18328338199E+03  0.51734469058E+03  0.54939333827E+03  0.41800000000E+01 0.  1.
         -5    1    3    3    0  502 -0.55274477333E+01 -0.64295727443E+01 -0.22388045560E+01  0.97147686519E+01  0.41800000000E+01 0.  1.
        -11    1    1    2    0    0 -0.42292115326E+02 -0.16674787794E+03  0.17380268380E+03  0.24454212461E+03  0.00000000000E+00 0. -1.
         11    1    1    2    0    0  0.23793728091E+02 -0.10105931314E+02  0.44662820433E+02  0.51604640035E+02  0.00000000000E+00 0.  1.
</event>
<event>
 7    1  0.4381563E-009  0.1445718E+03  0.7561462E-02  0.1207306E+00
          2   -1    0    0  501    0  0.00000000000E+00  0.00000000000E+00  0.49889866004E+03  0.49889866004E+03  0.00000000000E+00 0.  1.
         -2   -1    0    0    0  501 -0.00000000000E+00 -0.00000000000E+00 -0.52186645310E+02  0.52186645310E+02  0.00000000000E+00 0. -1.
         25    2    1    2    0    0 -0.89399443995E+02  0.71506361272E+02  0.29546541896E+03  0.34066586722E+03  0.12509196216E+03 0.  0.
          5    1    3    3  502    0 -0.10010110936E+03  0.11973875506E+02  0.13082217081E+03  0.16521355442E+03  0.41800000000E+01 0. -1.
         -5    1    3    3    0  502  0.10701665368E+02  0.59532485766E+02  0.16464324815E+03  0.17545231280E+03  0.41800000000E+01 0. -1.
        -11    1    1    2    0    0  0.64293867803E+02 -0.15353606419E+02  0.26277903061E+02  0.71133415892E+02  0.00000000000E+00 0.  1.
         11    1    1    2    0    0  0.25105576192E+02 -0.56152754853E+02  0.12496869271E+03  0.13928602223E+03  0.00000000000E+00 0. -1.
</event>
<event>
 7    1  0.2440960E-009  0.1046835E+03  0.7561462E-02  0.1270744E+00
          1   -1    0    0  501    0  0.00000000000E+00  0.00000000000E+00  0.29285196549E+02  0.29285196549E+02  0.00000000000E+00 0. -1.
         -1   -1    0    0    0  501 -0.00000000000E+00 -0.00000000000E+00 -0.56095988673E+03  0.56095988673E+03  0.00000000000E+00 0.  1.
         25    2    1    2    0    0 -0.39782617531E+02  0.55994612864E+02 -0.36856103457E+03  0.39522699614E+03  0.12509631871E+03 0.  0.
          5    1    3    3  502    0 -0.40736433355E+02 -0.29828137905E+02 -0.19617474529E+03  0.20261090273E+03  0.41800000000E+01 0. -1.
         -5    1    3    3    0  502  0.95381582358E+00  0.85822750769E+02 -0.17238628927E+03  0.19261609342E+03  0.41800000000E+01 0. -1.
        -11    1    1    2    0    0  0.74039988914E+01 -0.30999092132E+02 -0.57000010375E+01  0.32376734307E+02  0.00000000000E+00 0. -1.
         11    1    1    2    0    0  0.32378618640E+02 -0.24995520732E+02 -0.15741365458E+03  0.16264135282E+03  0.00000000000E+00 0.  1.
</event>
<event>
 7    1  0.2440960E-009  0.8749058E+02  0.7561462E-02  0.1309045E+00
         -2   -1    0    0    0  501 -0.00000000000E+00  0.00000000000E+00  0.13233509284E+02  0.13233509284E+02  0.00000000000E+00 0.  1.
          2   -1    0    0  501    0  0.00000000000E+00 -0.00000000000E+00 -0.10622801466E+04  0.10622801466E+04  0.00000000000E+00 0. -1.
         25    2    1    2    0    0 -0.40633110524E+02 -0.12696218700E+02 -0.55867652632E+03  0.57408997453E+03  0.12509034398E+03 0.  0.
          5    1    3    3  502    0 -0.53468930714E+02 -0.16762176459E+02 -0.96271285781E+02  0.11146986130E+03  0.41800000000E+01 0. -1.
         -5    1    3    3    0  502  0.12835820190E+02  0.40659577590E+01 -0.46240524054E+03  0.46262011323E+03  0.41800000000E+01 0. -1.
        -11    1    1    2    0    0  0.24323239194E+02  0.54574883363E+02 -0.27620487311E+03  0.28259364782E+03  0.00000000000E+00 0.  1.
         11    1    1    2    0    0  0.16309871330E+02 -0.41878664663E+02 -0.21416523792E+03  0.21883003356E+03  0.00000000000E+00 0. -1.
</event>
<event>
 7    1  0.2440960E-009  0.7911089E+02  0.7561462E-02  0.1331594E+00
         -1   -1    0    0    0  501 -0.00000000000E+00  0.00000000000E+00  0.85201080033E+02  0.85201080033E+02  0.00000000000E+00 0.  1.
          1   -1    0    0  501    0  0.00000000000E+00 -0.00000000000E+00 -0.14425279655E+03  0.14425279655E+03  0.00000000000E+00 0. -1.
         25    2    1    2    0    0 -0.11354979414E+02  0.10032377604E+02 -0.43491739822E+02  0.13329857081E+03  0.12508954148E+03 0.  0.
          5    1    3    3  502    0 -0.24298812752E+01  0.56879598657E+02 -0.59849769554E+02  0.82708284845E+02  0.41800000000E+01 0. -1.
         -5    1    3    3    0  502 -0.89250981384E+01 -0.46847221052E+02  0.16358029732E+02  0.50590285963E+02  0.41800000000E+01 0. -1.
        -11    1    1    2    0    0  0.15205438510E+02 -0.29623753983E+02  0.31000077384E+02  0.45494801441E+02  0.00000000000E+00 0.  1.
         11    1    1    2    0    0 -0.38504590968E+01  0.19591376379E+02 -0.46560054078E+02  0.50660504334E+02  0.00000000000E+00 0. -1.
</event>
<event>
 7    1  0.2440960E-009  0.2176042E+03  0.7561462E-02  0.1135682E+00
         -2   -1    0    0    0  501 -0.00000000000E+00  0.00000000000E+00  0.27755458935E+03  0.27755458935E+03  0.00000000000E+00 0.  1.
          2   -1    0    0  501    0  0.00000000000E+00 -0.00000000000E+00 -0.22612472911E+03  0.22612472911E+03  0.00000000000E+00 0. -1.
         25    2    1    2    0    0  0.63618213508E+01 -0.21107986453E+03 -0.53425342013E+02  0.25119190603E+03  0.12509166441E+03 0.  0.
          5    1    3    3  502    0  0.63716885547E+01 -0.92666424778E+02 -0.87734183266E+02  0.12783749063E+03  0.41800000000E+01 0.  1.
         -5    1    3    3    0  502 -0.98672039697E-02 -0.11841343975E+03  0.34308841253E+02  0.12335441540E+03  0.41800000000E+01 0.  1.
        -11    1    1    2    0    0  0.26487212000E+02  0.31379412102E+02  0.43403206559E+02  0.59750131740E+02  0.00000000000E+00 0. -1.
         11    1    1    2    0    0 -0.32849033350E+02  0.17970045243E+03  0.61451995700E+02  0.19273728069E+03  0.00000000000E+00 0.  1.
</event>
<event>
 7    1  0.2440960E-009  0.1040482E+03  0.7561462E-02  0.1272006E+00
          1   -1    0    0  501    0  0.00000000000E+00  0.00000000000E+00  0.65113438847E+03  0.65113438847E+03  0.00000000000E+00 0. -1.
         -1   -1    0    0    0  501 -0.00000000000E+00 -0.00000000000E+00 -0.19695223974E+02  0.19695223974E+02  0.00000000000E+00 0.  1.
         25    2    1    2    0    0  0.10885496731E+02 -0.28304890207E+02  0.38619526505E+03  0.40707937613E+03  0.12508866806E+03 0.  0.
          5    1    3    3  502    0 -0.12933796226E+02 -0.74315066053E+02  0.20103245976E+03  0.21475924755E+03  0.41800000000E+01 0.  1.
         -5    1    3    3    0  502  0.23819292957E+02  0.46010175846E+02  0.18516280529E+03  0.19232012859E+03  0.41800000000E+01 0.  1.
        -11    1    1    2    0    0  0.25085015379E+02  0.35910412383E+02  0.56672334298E+02  0.71627991657E+02  0.00000000000E+00 0.  1.
         11    1    1    2    0    0 -0.35970512110E+02 -0.76055221765E+01  0.18857156515E+03  0.19212224465E+03  0.00000000000E+00 0. -1.
</event>
<event>
 7    1  0.2440960E-009  0.1121640E+03  0.7561462E-02  0.1256614E+00
          1   -1    0    0  501    0  0.00000000000E+00  0.00000000000E+00  0.16748969974E+03  0.16748969974E+03  0.00000000000E+00 0. -1.
         -1   -1    0    0    0  501 -0.00000000000E+00 -0.00000000000E+00 -0.80415466032E+02  0.80415466032E+02  0.00000000000E+00 0.  1.
         25    2    1    2    0    0 -0.37341197343E+02 -0.42500242611E+01  0.61602201372E+02  0.14442556866E+03  0.12510589892E+03 0.  0.
          5    1    3    3  502    0  0.42617861501E+02  0.86855475281E+01  0.42809068072E+02  0.61170332385E+02  0.41800000000E+01 0. -1.
         -5    1    3    3    0  502 -0.79959058845E+02 -0.12935571789E+02  0.18793133299E+02  0.83255236280E+02  0.41800000000E+01 0. -1.
        -11    1    1    2    0    0  0.45973915639E+02  0.41107705750E+02  0.95279436152E+01  0.62403734670E+02  0.00000000000E+00 0.  1.
         11    1    1    2    0    0 -0.86327182952E+01 -0.36857681489E+02  0.15944088724E+02  0.41075862440E+02  0.00000000000E+00 0. -1.
</event>
<event>
 7    1  0.2440960E-009  0.1093165E+03  0.7561462E-02  0.1261841E+00
          2   -1    0    0  501    0  0.00000000000E+00  0.00000000000E+00  0.28126840179E+03  0.28126840179E+03  0.00000000000E+00 0. -1.
         -2   -1    0    0    0  501 -0.00000000000E+00 -0.00000000000E+00 -0.68610830736E+02  0.68610830736E+02  0.00000000000E+00 0.  1.
         25    2    1    2    0    0  0.12881830844E+02  0.62254582304E+02  0.43159462689E+02  0.14679208106E+03  0.12507438291E+03 0.  0.
          5    1    3    3  502    0  0.59903379426E+02  0.56301553710E+02 -0.35220614545E+00  0.82315710931E+02  0.41800000000E+01 0.  1.
         -5    1    3    3    0  502 -0.47021548582E+02  0.59530285939E+01  0.43511668835E+02  0.64476370131E+02  0.41800000000E+01 0.  1.
        -11    1    1    2    0    0  0.23926321139E+02 -0.12942825639E+02  0.52687537996E+01  0.27708218011E+02  0.00000000000E+00 0. -1.
         11    1    1    2    0    0 -0.36808151983E+02 -0.49311756665E+02  0.16422935456E+03  0.17537893345E+03  0.00000000000E+00 0.  1.
</event>
<event>
 7    1  0.2440960E-009  0.6281255E+02  0.7561462E-02  0.1386394E+00
          1   -1    0    0  501    0  0.00000000000E+00  0.00000000000E+00  0.12000720060E+03  0.12000720060E+03  0.00000000000E+00 0. -1.
         -1   -1    0    0    0  501 -0.00000000000E+00 -0.00000000000E+00 -0.12874157969E+03  0.12874157969E+03  0.00000000000E+00 0.  1.
         25    2    1    2    0    0  0.35435788185E+02  0.44900302789E+02  0.18030090262E+02  0.13872295890E+03  0.12508893994E+03 0.  0.
          5    1    3    3  502    0  0.16564745428E+02 -0.98716291789E+00 -0.50894532623E+02  0.53694423664E+02  0.41800000000E+01 0. -1.
         -5    1    3    3    0  502  0.18871042757E+02  0.45887465707E+02  0.68924622885E+02  0.85028535231E+02  0.41800000000E+01 0. -1.
        -11    1    1    2    0    0 -0.11259216112E+02 -0.55894887490E+01  0.32538029714E+02  0.34881738913E+02  0.00000000000E+00 0. -1.
         11    1    1    2    0    0 -0.24176572073E+02 -0.39310814040E+02 -0.59302499065E+02  0.75144082488E+02  0.00000000000E+00 0.  1.
</event>
<event>
 7    1  0.2440960E-009  0.8399876E+02  0.7561462E-02  0.1318072E+00
          2   -1    0    0  501    0  0.00000000000E+00  0.00000000000E+00  0.95112671634E+03  0.95112671634E+03  0.00000000000E+00 0. -1.
         -2   -1    0    0    0  501 -0.00000000000E+00 -0.00000000000E+00 -0.11660954926E+02  0.11660954926E+02  0.00000000000E+00 0.  1.
         25    2    1    2    0    0  0.22000591030E+02 -0.17165037747E+02  0.62031745984E+03  0.63341898975E+03  0.12508877276E+03 0.  0.
          5    1    3    3  502    0  0.45311425510E+02 -0.37977371466E+02  0.57594221740E+03  0.57898386524E+03  0.41800000000E+01 0.  1.
         -5    1    3    3    0  502 -0.23310834480E+02  0.20812333720E+02  0.44375242434E+02  0.54435124507E+02  0.41800000000E+01 0.  1.
        -11    1    1    2    0    0  0.13774847687E+00  0.43100490599E+02  0.12433344295E+03  0.13159208297E+03  0.00000000000E+00 0.  1.
         11    1    1    2    0    0 -0.22138339507E+02 -0.25935452852E+02  0.19481485862E+03  0.19777659854E+03  0.00000000000E+00 0. -1.
</event>
<event>
 7    1  0.2440960E-009  0.1017543E+03  0.7561462E-02  0.1276650E+00
         -2   -1    0    0    0  501 -0.00000000000E+00  0.00000000000E+00  0.45289602228E+02  0.45289602228E+02  0.00000000000E+00 0.  1.
          2   -1    0    0  501    0  0.00000000000E+00 -0.00000000000E+00 -0.49113098895E+03  0.49113098895E+03  0.00000000000E+00 0. -1.
         25    2    1    2    0    0  0.55001841975E+02 -0.15694540857E+02 -0.39106358426E+03  0.41454892723E+03  0.12509422406E+03 0.  0.
          5    1    3    3  502    0 -0.71315812232E+00  0.30852229334E+02 -0.28043994067E+03  0.28216378466E+03  0.41800000000E+01 0.  1.
         -5    1    3    3    0  502  0.55715000097E+02 -0.46546770191E+02 -0.11062364360E+03  0.13238514257E+03  0.41800000000E+01 0.  1.
        -11    1    1    2    0    0 -0.76596387452E+02  0.95180192989E+01 -0.18773107054E+02  0.79435689778E+02  0.00000000000E+00 0.  1.
         11    1    1    2    0    0  0.21594545478E+02  0.61765215577E+01 -0.36004695406E+02  0.42435974176E+02  0.00000000000E+00 0. -1.
</event>
<event>
 7    1  0.2440960E-009  0.9568998E+02  0.7561462E-02  0.1289630E+00
          2   -1    0    0  501    0  0.00000000000E+00  0.00000000000E+00  0.23319976574E+03  0.23319976574E+03  0.00000000000E+00 0. -1.
         -2   -1    0    0    0  501 -0.00000000000E+00 -0.00000000000E+00 -0.69951141062E+02  0.69951141062E+02  0.00000000000E+00 0.  1.
         25    2    1    2    0    0  0.42587833076E+02  0.47820330784E+02  0.57054811586E+02  0.15166801919E+03  0.12508968365E+03 0.  0.
          5    1    3    3  502    0  0.42970962826E+02 -0.13263072832E+02  0.75276782057E+02  0.87786554005E+02  0.41800000000E+01 0. -1.
         -5    1    3    3    0  502 -0.38312975033E+00  0.61083403616E+02 -0.18221970471E+02  0.63881465181E+02  0.41800000000E+01 0. -1.
        -11    1    1    2    0    0  0.34534159767E+01  0.10286694580E+02 -0.92672039086E+01  0.14269661368E+02  0.00000000000E+00 0.  1.
         11    1    1    2    0    0 -0.46041249053E+02 -0.58107025364E+02  0.11546101700E+03  0.13721322625E+03  0.00000000000E+00 0. -1.
</event>
<event>
 7    1  0.2440960E-009  0.2042067E+03  0.7561462E-02  0.1146238E+00
         -2   -1    0    0    0  501 -0.00000000000E+00  0.00000000000E+00  0.48967303755E+02  0.48967303755E+02  0.00000000000E+00 0.  1.
          2   -1    0    0  501    0  0.00000000000E+00 -0.00000000000E+00 -0.88036377643E+03  0.88036377643E+03  0.00000000000E+00 0. -1.
         25    2    1    2    0    0  0.89887780569E+02  0.14784545835E+03 -0.35075590433E+03  0.41062775261E+03  0.12508938464E+03 0.  0.
          5    1    3    3  502    0 -0.15448197400E+02 -0.13380854760E+02 -0.35733183220E+02  0.41376646312E+02  0.41800000000E+01 0.  1.
         -5    1    3    3    0  502  0.10533597797E+03  0.16122631311E+03 -0.31502272111E+03  0.36925110630E+03  0.41800000000E+01 0.  1.
        -11    1    1    2    0    0 -0.99309012593E+02 -0.15430334849E+03 -0.45636730487E+03  0.49187693612E+03  0.00000000000E+00 0.  1.
         11    1    1    2    0    0  0.94212320244E+01  0.64578901443E+01 -0.24273263480E+02  0.26826391444E+02  0.00000000000E+00 0. -1.
</event>
<event>
 7    1  0.2440960E-009  0.1314466E+03  0.7561462E-02  0.1225325E+00
         -1   -1    0    0    0  501 -0.00000000000E+00  0.00000000000E+00  0.74040691596E+02  0.74040691596E+02  0.00000000000E+00 0.  1.
          1   -1    0    0  501    0  0.00000000000E+00 -0.00000000000E+00 -0.25802779622E+03  0.25802779622E+03  0.00000000000E+00 0. -1.
         25    2    1    2    0    0  0.20626173872E+02 -0.81310167807E+02 -0.11545901763E+03  0.18977767062E+03  0.12509195448E+03 0.  0.
          5    1    3    3  502    0 -0.39705261211E+02 -0.64937946068E+02 -0.25960884536E+02  0.80528780776E+02  0.41800000000E+01 0.  1.
         -5    1    3    3    0  502  0.60331435082E+02 -0.16372221738E+02 -0.89498133094E+02  0.10924888984E+03  0.41800000000E+01 0.  1.
        -11    1    1    2    0    0 -0.21637069853E+02  0.10150765835E+03 -0.51545908369E+02  0.11588333860E+03  0.00000000000E+00 0.  1.
         11    1    1    2    0    0  0.10108959811E+01 -0.20197490547E+02 -0.16982178629E+02  0.26407478601E+02  0.00000000000E+00 0. -1.
</event>
<event>
 7    1  0.2440960E-009  0.9966886E+02  0.7561462E-02  0.1280994E+00
         -2   -1    0    0    0  501 -0.00000000000E+00  0.00000000000E+00  0.45221617834E+02  0.45221617834E+02  0.00000000000E+00 0.  1.
          2   -1    0    0  501    0  0.00000000000E+00 -0.00000000000E+00 -0.40884951226E+03  0.40884951226E+03  0.00000000000E+00 0. -1.
         25    2    1    2    0    0  0.24743709470E+02  0.73180718489E+02 -0.24471175732E+03  0.28548199458E+03  0.12509379017E+03 0.  0.
          5    1    3    3  502    0  0.25889761249E+02  0.47301064392E+02 -0.17624585435E+02  0.56883818806E+02  0.41800000000E+01 0. -1.
         -5    1    3    3    0  502 -0.11460517792E+01  0.25879654097E+02 -0.22708717189E+03  0.22859817577E+03  0.41800000000E+01 0. -1.
        -11    1    1    2    0    0  0.97820672387E+01 -0.82638380503E+02 -0.75945530162E+02  0.11266105948E+03  0.00000000000E+00 0.  1.
         11    1    1    2    0    0 -0.34525776708E+02  0.94576620136E+01 -0.42970606941E+02  0.55928076035E+02  0.00000000000E+00 0. -1.
</event>
<event>
 7    1  0.2440960E-009  0.1343027E+03  0.7561462E-02  0.1221207E+00
          4   -1    0    0  501    0  0.00000000000E+00  0.00000000000E+00  0.25754940032E+03  0.25754940032E+03  0.00000000000E+00 0. -1.
         -4   -1    0    0    0  501 -0.00000000000E+00 -0.00000000000E+00 -0.89931698871E+02  0.89931698871E+02  0.00000000000E+00 0.  1.
         25    2    1    2    0    0  0.75797856948E+02  0.73481829857E+02  0.81923485335E+02  0.18304042809E+03  0.12508975349E+03 0.  0.
          5    1    3    3  502    0  0.40780087996E+02 -0.27168816952E+02  0.53495627150E+02  0.72666462110E+02  0.41800000000E+01 0.  1.
         -5    1    3    3    0  502  0.35017768952E+02  0.10065064681E+03  0.28427858185E+02  0.11037396598E+03  0.41800000000E+01 0.  1.
        -11    1    1    2    0    0 -0.50948940218E+02 -0.21773605308E+02 -0.65702420245E+01  0.55794735215E+02  0.00000000000E+00 0.  1.
         11    1    1    2    0    0 -0.24848916730E+02 -0.51708224549E+02  0.92264458139E+02  0.10864593589E+03  0.00000000000E+00 0. -1.
</event>
<event>
 7    1  0.2440960E-009  0.9252338E+02  0.7561462E-02  0.1296854E+00
          4   -1    0    0  501    0  0.00000000000E+00  0.00000000000E+00  0.37459382109E+02  0.37459382109E+02  0.00000000000E+00 0. -1.
         -4   -1    0    0    0  501 -0.00000000000E+00 -0.00000000000E+00 -0.31768164523E+03  0.31768164523E+03  0.00000000000E+00 0.  1.
         25    2    1    2    0    0 -0.13324627568E+02  0.15379785249E+02 -0.15712021412E+03  0.20186289710E+03  0.12509110299E+03 0.  0.
          5    1    3    3  502    0  0.25287068735E+02  0.41426090530E+02 -0.14583764544E+03  0.15375840806E+03  0.41800000000E+01 0.  1.
         -5    1    3    3    0  502 -0.38611696302E+02 -0.26046305281E+02 -0.11282568681E+02  0.48104489044E+02  0.41800000000E+01 0.  1.
        -11    1    1    2    0    0  0.20233393963E+02  0.34078160372E+02 -0.69589621572E+02  0.80083872759E+02  0.00000000000E+00 0.  1.
         11    1    1    2    0    0 -0.69087663956E+01 -0.49457945621E+02 -0.53512427427E+02  0.73194257475E+02  0.00000000000E+00 0. -1.
</event>
<event>
 7    1  0.2440960E-009  0.1210199E+03  0.7561462E-02  0.1241424E+00
          1   -1    0    0  501    0  0.00000000000E+00  0.00000000000E+00  0.50226952344E+02  0.50226952344E+02  0.00000000000E+00 0. -1.
         -1   -1    0    0    0  501 -0.00000000000E+00 -0.00000000000E+00 -0.46549253908E+03  0.46549253908E+03  0.00000000000E+00 0.  1.
         25    2    1    2    0    0  0.39566956887E+02 -0.10065035075E+03 -0.25954502902E+03  0.30774545152E+03  0.12509038195E+03 0.  0.
          5    1    3    3  502    0  0.42575725307E+02 -0.18211039221E+02 -0.20148833567E+03  0.20678335558E+03  0.41800000000E+01 0. -1.
         -5    1    3    3    0  502 -0.30087684196E+01 -0.82439311529E+02 -0.58056693352E+02  0.10096209594E+03  0.41800000000E+01 0. -1.
        -11    1    1    2    0    0  0.42488625845E+00  0.41740522615E+02 -0.12247475427E+03  0.12939287921E+03  0.00000000000E+00 0.  1.
         11    1    1    2    0    0 -0.39991843146E+02  0.58909828135E+02 -0.33245803436E+02  0.78581160688E+02  0.00000000000E+00 0. -1.
</event>
<event>
 7    1  0.2440960E-009  0.1796440E+03  0.7561462E-02  0.1168148E+00
         -2   -1    0    0    0  501 -0.00000000000E+00  0.00000000000E+00  0.31520440769E+02  0.31520440769E+02  0.00000000000E+00 0.  1.
          2   -1    0    0  501    0  0.00000000000E+00 -0.00000000000E+00 -0.13197709172E+04  0.13197709172E+04  0.00000000000E+00 0. -1.
         25    2    1    2    0    0 -0.29406563331E+02 -0.17026162890E+03 -0.66926069100E+03  0.70243235672E+03  0.12509026739E+03 0.  0.
          5    1    3    3  502    0 -0.92953219592E+01 -0.11651306608E+03 -0.60488966942E+03  0.61609307913E+03  0.41800000000E+01 0.  1.
         -5    1    3    3    0  502 -0.20111241372E+02 -0.53748562820E+02 -0.64371021583E+02  0.86339277587E+02  0.41800000000E+01 0.  1.
        -11    1    1    2    0    0 -0.19446340631E+02  0.25910179472E+02 -0.48196987058E+02  0.58072774393E+02  0.00000000000E+00 0.  1.
         11    1    1    2    0    0  0.48852903962E+02  0.14435144943E+03 -0.57079279841E+03  0.59078622690E+03  0.00000000000E+00 0. -1.
</event>
<event>
 7    1  0.2440960E-009  0.1007027E+03  0.7561462E-02  0.1278825E+00
         -2   -1    0    0    0  501 -0.00000000000E+00  0.00000000000E+00  0.12004980220E+03  0.12004980220E+03  0.00000000000E+00 0.  1.
          2   -1    0    0  501    0  0.00000000000E+00 -0.00000000000E+00 -0.11212116902E+03  0.11212116902E+03  0.00000000000E+00 0. -1.
         25    2    1    2    0    0  0.10055961533E+02 -0.33327615829E+02 -0.19011377756E+02  0.13123311354E+03  0.12509534470E+03 0.  0.
          5    1    3    3  502    0  0.64363416436E+02 -0.38530319588E+02 -0.10690162102E+02  0.75887988962E+02  0.41800000000E+01 0.  1.
         -5    1    3    3    0  502 -0.54307454903E+02  0.52027037589E+01 -0.83212156537E+01  0.55345124577E+02  0.41800000000E+01 0.  1.
        -11    1    1    2    0    0 -0.31823018938E+02  0.85083847154E-01  0.46738351011E+02  0.56543657724E+02  0.00000000000E+00 0.  1.
         11    1    1    2    0    0  0.21767057405E+02  0.33242531982E+02 -0.19798340077E+02  0.44394199964E+02  0.00000000000E+00 0. -1.
</event>
<event>
 7    1  0.2440960E-009  0.1221079E+03  0.7561462E-02  0.1239660E+00
         -2   -1    0    0    0  501 -0.00000000000E+00  0.00000000000E+00  0.32456441652E+02  0.32456441652E+02  0.00000000000E+00 0.  1.
          2   -1    0    0  501    0  0.00000000000E+00 -0.00000000000E+00 -0.54568111324E+03  0.54568111324E+03  0.00000000000E+00 0. -1.
         25    2    1    2    0    0  0.16677326640E+02  0.79539604877E+02 -0.27203429072E+03  0.31025427784E+03  0.12510147728E+03 0.  0.
          5    1    3    3  502    0  0.48705101425E+02  0.85386169403E+02 -0.12229885105E+03  0.15696326385E+03  0.41800000000E+01 0.  1.
         -5    1    3    3    0  502 -0.32027774785E+02 -0.58465645258E+01 -0.14973543968E+03  0.15329101399E+03  0.41800000000E+01 0.  1.
        -11    1    1    2    0    0  0.30016884613E+02 -0.15603095139E+02 -0.44826975017E+02  0.56159840002E+02  0.00000000000E+00 0. -1.
         11    1    1    2    0    0 -0.46694211253E+02 -0.63936509738E+02 -0.19636340584E+03  0.21172343705E+03  0.00000000000E+00 0.  1.
</event>
